<?xml version="1.0"?>
<VTKFile type="UnstructuredGrid"  version="0.1"  >
<UnstructuredGrid>
<Piece  NumberOfPoints="173" NumberOfCells="288">
<Points>
<DataArray  type="Float64"  NumberOfComponents="3"  format="ascii">0.7599999999999999 0 0  0.7930434782608695 0 0  0.7930434782608695 0.03333333333333333 0  0.7599999999999999 0.03333333333333333 0  0.8260869565217391 0 0  0.8260869565217391 0.03333333333333333 0  0.8591304347826086 0 0  0.8591304347826086 0.03333333333333333 0  0.8921739130434783 0 0  0.8921739130434783 0.03333333333333333 0  0.9252173913043478 0 0  0.9252173913043478 0.03333333333333333 0  0.9582608695652173 0 0  0.9582608695652173 0.03333333333333333 0  0.991304347826087 0 0  0.991304347826087 0.03333333333333333 0  1.024347826086957 0 0  1.024347826086957 0.03333333333333333 0  1.057391304347826 0 0  1.057391304347826 0.03333333333333333 0  1.090434782608696 0 0  1.090434782608696 0.03333333333333333 0  1.123478260869565 0 0  1.123478260869565 0.03333333333333333 0  1.156521739130435 0 0  1.156521739130435 0.03333333333333333 0  1.189565217391304 0 0  1.189565217391304 0.03333333333333333 0  1.222608695652174 0 0  1.222608695652174 0.03333333333333333 0  1.255652173913044 0 0  1.255652173913044 0.03333333333333333 0  1.288695652173913 0 0  1.288695652173913 0.03333333333333333 0  1.321739130434783 0 0  1.321739130434783 0.03333333333333333 0  1.354782608695652 0 0  1.354782608695652 0.03333333333333333 0  1.387826086956522 0 0  1.387826086956522 0.03333333333333333 0  1.420869565217391 0 0  1.420869565217391 0.03333333333333333 0  1.453913043478261 0 0  1.453913043478261 0.03333333333333333 0  0.7930434782608695 0.06666666666666667 0  0.8260869565217391 0.06666666666666667 0  0.8591304347826086 0.06666666666666667 0  0.8921739130434783 0.06666666666666667 0  0.9252173913043478 0.06666666666666667 0  0.9582608695652173 0.06666666666666667 0  0.991304347826087 0.06666666666666667 0  1.024347826086957 0.06666666666666667 0  1.057391304347826 0.06666666666666667 0  1.090434782608696 0.06666666666666667 0  1.123478260869565 0.06666666666666667 0  1.156521739130435 0.06666666666666667 0  1.189565217391304 0.06666666666666667 0  1.222608695652174 0.06666666666666667 0  1.255652173913044 0.06666666666666667 0  1.288695652173913 0.06666666666666667 0  1.321739130434783 0.06666666666666667 0  1.354782608695652 0.06666666666666667 0  1.387826086956522 0.06666666666666667 0  1.420869565217391 0.06666666666666667 0  1.453913043478261 0.06666666666666667 0  0.8260869565217391 0.1 0  0.8591304347826086 0.1 0  0.8921739130434783 0.1 0  0.9252173913043478 0.1 0  0.9582608695652173 0.1 0  0.991304347826087 0.1 0  1.024347826086957 0.1 0  1.057391304347826 0.1 0  1.090434782608696 0.1 0  1.123478260869565 0.1 0  1.156521739130435 0.1 0  1.189565217391304 0.1 0  1.222608695652174 0.1 0  1.255652173913044 0.1 0  1.288695652173913 0.1 0  1.321739130434783 0.1 0  1.354782608695652 0.1 0  1.387826086956522 0.1 0  1.420869565217391 0.1 0  1.453913043478261 0.1 0  1.486956521739131 0.1 0  0.8591304347826086 0.1333333333333333 0  0.8260869565217391 0.1333333333333333 0  0.8921739130434783 0.1333333333333333 0  0.9252173913043478 0.1333333333333333 0  0.9582608695652173 0.1333333333333333 0  0.991304347826087 0.1333333333333333 0  1.024347826086957 0.1333333333333333 0  1.057391304347826 0.1333333333333333 0  1.090434782608696 0.1333333333333333 0  1.123478260869565 0.1333333333333333 0  1.156521739130435 0.1333333333333333 0  1.189565217391304 0.1333333333333333 0  1.222608695652174 0.1333333333333333 0  1.255652173913044 0.1333333333333333 0  1.288695652173913 0.1333333333333333 0  1.321739130434783 0.1333333333333333 0  1.354782608695652 0.1333333333333333 0  1.387826086956522 0.1333333333333333 0  1.420869565217391 0.1333333333333333 0  1.453913043478261 0.1333333333333333 0  1.486956521739131 0.1333333333333333 0  0.8591304347826086 0.1666666666666667 0  0.8921739130434783 0.1666666666666667 0  0.9252173913043478 0.1666666666666667 0  0.9582608695652173 0.1666666666666667 0  0.991304347826087 0.1666666666666667 0  1.024347826086957 0.1666666666666667 0  1.057391304347826 0.1666666666666667 0  1.090434782608696 0.1666666666666667 0  1.123478260869565 0.1666666666666667 0  1.156521739130435 0.1666666666666667 0  1.189565217391304 0.1666666666666667 0  1.222608695652174 0.1666666666666667 0  1.255652173913044 0.1666666666666667 0  1.288695652173913 0.1666666666666667 0  1.321739130434783 0.1666666666666667 0  1.354782608695652 0.1666666666666667 0  1.387826086956522 0.1666666666666667 0  1.420869565217391 0.1666666666666667 0  1.453913043478261 0.1666666666666667 0  1.486956521739131 0.1666666666666667 0  1.52 0.1666666666666667 0  0.8921739130434783 0.2 0  0.9252173913043478 0.2 0  0.9582608695652173 0.2 0  0.991304347826087 0.2 0  1.024347826086957 0.2 0  1.057391304347826 0.2 0  1.090434782608696 0.2 0  1.123478260869565 0.2 0  1.156521739130435 0.2 0  1.189565217391304 0.2 0  1.222608695652174 0.2 0  1.255652173913044 0.2 0  1.288695652173913 0.2 0  1.321739130434783 0.2 0  1.354782608695652 0.2 0  1.387826086956522 0.2 0  1.420869565217391 0.2 0  1.453913043478261 0.2 0  1.486956521739131 0.2 0  0.9252173913043478 0.2333333333333333 0  0.9582608695652173 0.2333333333333333 0  0.991304347826087 0.2333333333333333 0  1.024347826086957 0.2333333333333333 0  1.057391304347826 0.2333333333333333 0  1.090434782608696 0.2333333333333333 0  1.123478260869565 0.2333333333333333 0  1.156521739130435 0.2333333333333333 0  1.189565217391304 0.2333333333333333 0  1.222608695652174 0.2333333333333333 0  1.255652173913044 0.2333333333333333 0  0.9582608695652173 0.2666666666666667 0  0.991304347826087 0.2666666666666667 0  1.024347826086957 0.2666666666666667 0  1.057391304347826 0.2666666666666667 0  1.090434782608696 0.2666666666666667 0  1.123478260869565 0.2666666666666667 0  1.156521739130435 0.2666666666666667 0  1.189565217391304 0.2666666666666667 0  0.991304347826087 0.3 0  1.024347826086957 0.3 0  1.057391304347826 0.3 0  1.090434782608696 0.3 0  1.123478260869565 0.3 0  1.156521739130435 0.3 0  1.024347826086957 0.3333333333333333 0  </DataArray>
</Points>
<Cells>
<DataArray  type="UInt32"  Name="connectivity"  format="ascii">0 1 2  0 3 2  1 4 5  1 2 5  4 6 7  4 5 7  6 8 9  6 7 9  8 10 11  8 9 11  10 12 13  10 11 13  12 14 15  12 13 15  14 16 17  14 15 17  16 18 19  16 17 19  18 20 21  18 19 21  20 22 23  20 21 23  22 24 25  22 23 25  24 26 27  24 25 27  26 28 29  26 27 29  28 30 31  28 29 31  30 32 33  30 31 33  32 34 35  32 33 35  34 36 37  34 35 37  36 38 39  36 37 39  38 40 41  38 39 41  40 42 43  40 41 43  3 2 44  2 5 45  2 44 45  5 7 46  5 45 46  7 9 47  7 46 47  9 11 48  9 47 48  11 13 49  11 48 49  13 15 50  13 49 50  15 17 51  15 50 51  17 19 52  17 51 52  19 21 53  19 52 53  21 23 54  21 53 54  23 25 55  23 54 55  25 27 56  25 55 56  27 29 57  27 56 57  29 31 58  29 57 58  31 33 59  31 58 59  33 35 60  33 59 60  35 37 61  35 60 61  37 39 62  37 61 62  39 41 63  39 62 63  41 43 64  41 63 64  44 45 65  45 46 66  45 65 66  46 47 67  46 66 67  47 48 68  47 67 68  48 49 69  48 68 69  49 50 70  49 69 70  50 51 71  50 70 71  51 52 72  51 71 72  52 53 73  52 72 73  53 54 74  53 73 74  54 55 75  54 74 75  55 56 76  55 75 76  56 57 77  56 76 77  57 58 78  57 77 78  58 59 79  58 78 79  59 60 80  59 79 80  60 61 81  60 80 81  61 62 82  61 81 82  62 63 83  62 82 83  63 64 84  63 83 84  64 84 85  65 66 86  65 87 86  66 67 88  66 86 88  67 68 89  67 88 89  68 69 90  68 89 90  69 70 91  69 90 91  70 71 92  70 91 92  71 72 93  71 92 93  72 73 94  72 93 94  73 74 95  73 94 95  74 75 96  74 95 96  75 76 97  75 96 97  76 77 98  76 97 98  77 78 99  77 98 99  78 79 100  78 99 100  79 80 101  79 100 101  80 81 102  80 101 102  81 82 103  81 102 103  82 83 104  82 103 104  83 84 105  83 104 105  84 85 106  84 105 106  87 86 107  86 88 108  86 107 108  88 89 109  88 108 109  89 90 110  89 109 110  90 91 111  90 110 111  91 92 112  91 111 112  92 93 113  92 112 113  93 94 114  93 113 114  94 95 115  94 114 115  95 96 116  95 115 116  96 97 117  96 116 117  97 98 118  97 117 118  98 99 119  98 118 119  99 100 120  99 119 120  100 101 121  100 120 121  101 102 122  101 121 122  102 103 123  102 122 123  103 104 124  103 123 124  104 105 125  104 124 125  105 106 126  105 125 126  106 126 127  107 108 128  108 109 129  108 128 129  109 110 130  109 129 130  110 111 131  110 130 131  111 112 132  111 131 132  112 113 133  112 132 133  113 114 134  113 133 134  114 115 135  114 134 135  115 116 136  115 135 136  116 117 137  116 136 137  117 118 138  117 137 138  118 119 139  118 138 139  119 120 140  119 139 140  120 121 141  120 140 141  121 122 142  121 141 142  122 123 143  122 142 143  123 124 144  123 143 144  124 125 145  124 144 145  125 126 146  125 145 146  128 129 147  129 130 148  129 147 148  130 131 149  130 148 149  131 132 150  131 149 150  132 133 151  132 150 151  133 134 152  133 151 152  134 135 153  134 152 153  135 136 154  135 153 154  136 137 155  136 154 155  137 138 156  137 155 156  138 139 157  138 156 157  147 148 158  148 149 159  148 158 159  149 150 160  149 159 160  150 151 161  150 160 161  151 152 162  151 161 162  152 153 163  152 162 163  153 154 164  153 163 164  154 155 165  154 164 165  158 159 166  159 160 167  159 166 167  160 161 168  160 167 168  161 162 169  161 168 169  162 163 170  162 169 170  163 164 171  163 170 171  166 167 172  </DataArray>
<DataArray  type="UInt32"  Name="offsets"  format="ascii">3 6 9 12 15 18 21 24 27 30 33 36 39 42 45 48 51 54 57 60 63 66 69 72 75 78 81 84 87 90 93 96 99 102 105 108 111 114 117 120 123 126 129 132 135 138 141 144 147 150 153 156 159 162 165 168 171 174 177 180 183 186 189 192 195 198 201 204 207 210 213 216 219 222 225 228 231 234 237 240 243 246 249 252 255 258 261 264 267 270 273 276 279 282 285 288 291 294 297 300 303 306 309 312 315 318 321 324 327 330 333 336 339 342 345 348 351 354 357 360 363 366 369 372 375 378 381 384 387 390 393 396 399 402 405 408 411 414 417 420 423 426 429 432 435 438 441 444 447 450 453 456 459 462 465 468 471 474 477 480 483 486 489 492 495 498 501 504 507 510 513 516 519 522 525 528 531 534 537 540 543 546 549 552 555 558 561 564 567 570 573 576 579 582 585 588 591 594 597 600 603 606 609 612 615 618 621 624 627 630 633 636 639 642 645 648 651 654 657 660 663 666 669 672 675 678 681 684 687 690 693 696 699 702 705 708 711 714 717 720 723 726 729 732 735 738 741 744 747 750 753 756 759 762 765 768 771 774 777 780 783 786 789 792 795 798 801 804 807 810 813 816 819 822 825 828 831 834 837 840 843 846 849 852 855 858 861 864 </DataArray>
<DataArray  type="UInt8"  Name="types"  format="ascii">5 5 5 5 5 5 5 5 5 5 5 5 5 5 5 5 5 5 5 5 5 5 5 5 5 5 5 5 5 5 5 5 5 5 5 5 5 5 5 5 5 5 5 5 5 5 5 5 5 5 5 5 5 5 5 5 5 5 5 5 5 5 5 5 5 5 5 5 5 5 5 5 5 5 5 5 5 5 5 5 5 5 5 5 5 5 5 5 5 5 5 5 5 5 5 5 5 5 5 5 5 5 5 5 5 5 5 5 5 5 5 5 5 5 5 5 5 5 5 5 5 5 5 5 5 5 5 5 5 5 5 5 5 5 5 5 5 5 5 5 5 5 5 5 5 5 5 5 5 5 5 5 5 5 5 5 5 5 5 5 5 5 5 5 5 5 5 5 5 5 5 5 5 5 5 5 5 5 5 5 5 5 5 5 5 5 5 5 5 5 5 5 5 5 5 5 5 5 5 5 5 5 5 5 5 5 5 5 5 5 5 5 5 5 5 5 5 5 5 5 5 5 5 5 5 5 5 5 5 5 5 5 5 5 5 5 5 5 5 5 5 5 5 5 5 5 5 5 5 5 5 5 5 5 5 5 5 5 5 5 5 5 5 5 5 5 5 5 5 5 5 5 5 5 5 5 5 5 5 5 5 5 5 5 5 5 5 5 </DataArray>
</Cells>
<CellData  Scalars="rho_bar"> 
<DataArray  type="Float64"  Name="rho_bar"  format="ascii">7.7062816361216357e-01   7.1071459310912000e-01   7.7201932018747665e-01   7.1090008310295527e-01   7.7498431504865795e-01   7.1358934022060916e-01   7.7781065199788979e-01   7.1726052789007011e-01   7.7813876563452022e-01   7.1895688746918041e-01   7.7691787040035065e-01   7.1776432936562407e-01   7.7615786016885790e-01   7.1635118038655154e-01   7.7600523097863683e-01   7.1601482167422947e-01   7.7544647027821600e-01   7.1574265549118399e-01   7.7469946366805165e-01   7.1482322598076198e-01   7.7526605968979034e-01   7.1470175846723083e-01   7.7707322600815032e-01   7.1648420155884407e-01   7.7822892158236179e-01   7.1850998831662627e-01   7.7828780027364186e-01   7.1904970891723707e-01   7.7921112697811623e-01   7.1956486225118010e-01   7.8147050553672481e-01   7.2210619238691010e-01   7.8170955146022503e-01   7.2442263799557183e-01   7.7646290276681673e-01   7.2166701459036442e-01   7.6605063464164669e-01   7.1236894414622876e-01   7.5756100163752227e-01   7.0204236632046435e-01   7.6784546037462320e-01   7.0636247811941300e-01   4.7180498948303606e-01   4.7058038008640396e-01   3.0812437157356870e-01   4.7294457686943486e-01   3.0788048043683997e-01   4.7652502495291782e-01   3.1012822802580925e-01   4.7727871792671178e-01   3.1181040575175406e-01   4.7513090844124684e-01   3.1047179630602162e-01   4.7361716250374652e-01   3.0848705256072095e-01   4.7356643209892940e-01   3.0800442621360674e-01   4.7325831075136721e-01   3.0812839767599015e-01   4.7220567091837456e-01   3.0749103022633545e-01   4.7252631134050249e-01   3.0702938290971088e-01   4.7506951812905462e-01   3.0850519680472160e-01   4.7740945250475897e-01   3.1102279794378951e-01   4.7809668809004274e-01   3.1240960477060575e-01   4.7987571224462977e-01   3.1353407533730276e-01   4.8499989320951359e-01   3.1751060430157446e-01   4.8983725306680981e-01   3.2392361288597477e-01   4.8925096718783151e-01   3.2833546854681223e-01   4.8433390817767341e-01   3.2944368334191820e-01   4.8572103001562950e-01   3.3393497152457841e-01   5.1605181041963366e-01   3.5872147575293051e-01   1.0690097229107587e-01   1.0572441656799603e-01   6.0533324939208273e-02   1.0587401780888665e-01   5.9917228164604312e-02   1.0586916482681191e-01   5.9790471076529100e-02   1.0500693150345018e-01   5.9347354870037693e-02   1.0418092522265136e-01   5.8715313840118147e-02   1.0401424824351779e-01   5.8445870740661106e-02   1.0403721702460318e-01   5.8464010901914581e-02   1.0383006838727260e-01   5.8425021157463709e-02   1.0385275060384105e-01   5.8347010557025673e-02   1.0464589532207176e-01   5.8624152800575487e-02   1.0578994269779901e-01   5.9311560420708093e-02   1.0671339284978112e-01   6.0053110194101686e-02   1.0812735339067316e-01   6.0919965720375446e-02   1.1134541119024306e-01   6.2726806342742678e-02   1.1629051585489693e-01   6.6095880182258204e-02   1.2195069114496350e-01   7.0896762946050962e-02   1.2948264435862630e-01   7.7648963315276626e-02   1.4512815614319463e-01   8.9825724547245411e-02   1.8459339597925212e-01   1.1722781704317467e-01   1.8319715058758493e-01   2.1012331889634948e-02   1.4686697584978868e-02   2.0366961012392874e-02   1.3855493390495310e-02   1.9997052792331989e-02   1.3403774601620485e-02   1.9703740162131004e-02   1.3112473275323253e-02   1.9490041858241356e-02   1.2901922178217094e-02   1.9398000816007926e-02   1.2789175413401086e-02   1.9378442940635281e-02   1.2755389262149293e-02   1.9375349505610682e-02   1.2752853565172813e-02   1.9423654306527125e-02   1.2776543505262408e-02   1.9596391412983524e-02   1.2876410231698495e-02   1.9906294726434091e-02   1.3094186730850364e-02   2.0366820496475386e-02   1.3452064593652602e-02   2.1153343207538856e-02   1.4049592590382666e-02   2.2614328729405372e-02   1.5145133232308046e-02   2.5170476766330455e-02   1.7148603065712333e-02   2.9485133222496865e-02   2.0708948414891837e-02   3.7174207653738169e-02   2.7198946449570754e-02   5.2644027490026397e-02   4.0099355885750983e-02   8.8672114608250335e-02   6.9282534199951437e-02   1.7514554072728208e-01   1.3970367199174269e-01   7.3874598696449410e-03   6.6259830313537497e-03   5.3687960877503368e-03   6.1964262857452873e-03   4.7905352074901313e-03   5.9465715625180203e-03   4.4663718945320164e-03   5.8041281726584210e-03   4.2841771029292460e-03   5.7338842808197345e-03   4.1896992280170357e-03   5.7092143960723067e-03   4.1507370463402865e-03   5.7159675859105689e-03   4.1478797465343007e-03   5.7626194740267892e-03   4.1807318051320071e-03   5.8759337355246289e-03   4.2702914394812533e-03   6.0959040375361748e-03   4.4558020853715267e-03   6.4990702270748633e-03   4.8076175297921053e-03   7.2461456621329932e-03   5.4677829584654737e-03   8.6465056256873514e-03   6.7216651958028209e-03   1.1303290848965553e-02   9.1504538087450408e-03   1.6519963639070517e-02   1.4040997184927618e-02   2.7259165585971450e-02   2.4404177225344676e-02   5.0503235299368239e-02   4.7220462057045103e-02   1.0355456604551930e-01   9.7923932339073552e-02   2.1478940545467551e-01   2.0026939544880795e-01   3.4093441042055883e-01   3.4353165583602572e-03   2.8225646325256439e-03   2.6077326450095343e-03   2.4958999875072780e-03   2.1357575256202130e-03   2.3249812933207798e-03   1.8918288865642750e-03   2.2419506090357055e-03   1.7710387376973450e-03   2.2119518009374910e-03   1.7206303087810280e-03   2.2221269689015333e-03   1.7177692434631544e-03   2.2798919130370492e-03   1.7630219855214858e-03   2.4152923273794988e-03   1.8815161800074438e-03   2.6927262171997451e-03   2.1337856286927858e-03   3.2422273164798001e-03   2.6450468621077167e-03   4.3287483480867733e-03   3.6751816771985928e-03   6.5148980347777465e-03   5.7873853101693094e-03   1.1127361147856792e-02   1.0329589929715265e-02   2.1572353122093071e-02   2.0859001584443232e-02   4.5929067858861986e-02   4.6313449260202394e-02   9.8320096828566586e-02   1.0275758408400738e-01   1.9092008002046151e-01   1.9902744000809083e-01   3.1011235447991348e-01   3.0899439277415941e-01   2.0114132068095340e-03   1.4971381893460467e-03   1.5731546228427351e-03   1.2435502244472188e-03   1.1928211524473392e-03   1.1247832207418877e-03   1.0130859991378262e-03   1.0829583253828593e-03   9.4009609476560971e-04   1.0988990326016323e-03   9.3736600699565343e-04   1.1839265883657371e-03   1.0063922395334810e-03   1.3873542348403251e-03   1.1894648171973036e-03   1.8257007043708975e-03   1.5965420447185937e-03   2.7588786249397703e-03   2.4817311374313459e-03   4.7828250661381324e-03   4.4447226351815817e-03   1.4549628705580984e-03   1.0496554381977713e-03   1.2340872395582355e-03   8.6729537645979695e-04   9.5271032710744893e-04   8.0497050220568569e-04   8.4182701358098016e-04   8.3074460185959961e-04   8.3926498068661399e-04   9.6440463352241560e-04   9.4869631473472760e-04   1.2941536596132400e-03   1.2454479156553608e-03   2.0498459259972557e-03   1.9431779750423380e-03   1.4407154380676329e-03   1.1521447445172945e-03   1.4578895263306535e-03   1.0557570759777471e-03   1.2836473442694350e-03   1.0973799025854084e-03   1.2807162871247338e-03   1.3108466420171587e-03   1.4556235407894537e-03   1.8542220238634858e-03   1.9404147087793676e-03   2.1969172729101039e-03   </DataArray> 
</CellData> 
</Piece>
</UnstructuredGrid>
</VTKFile>