<?xml version="1.0"?>
<VTKFile type="UnstructuredGrid"  version="0.1"  >
<UnstructuredGrid>
<Piece  NumberOfPoints="617" NumberOfCells="1135">
<Points>
<DataArray  type="Float64"  NumberOfComponents="3"  format="ascii">0 0 0  0.01652173913043478 0 0  0.01652173913043478 0.01666666666666667 0  0 0.01666666666666667 0  0.03304347826086956 0 0  0.03304347826086956 0.01666666666666667 0  0.04956521739130434 0 0  0.04956521739130434 0.01666666666666667 0  0.06608695652173913 0 0  0.06608695652173913 0.01666666666666667 0  0.08260869565217391 0 0  0.08260869565217391 0.01666666666666667 0  0.09913043478260869 0.01666666666666667 0  0.01652173913043478 0.03333333333333333 0  0 0.03333333333333333 0  0.03304347826086956 0.03333333333333333 0  0.04956521739130434 0.03333333333333333 0  0.06608695652173913 0.03333333333333333 0  0.08260869565217391 0.03333333333333333 0  0.09913043478260869 0.03333333333333333 0  0.1156521739130435 0.03333333333333333 0  0.01652173913043478 0.05 0  0 0.05 0  0.03304347826086956 0.05 0  0.04956521739130434 0.05 0  0.06608695652173913 0.05 0  0.08260869565217391 0.05 0  0.09913043478260869 0.05 0  0.1156521739130435 0.05 0  0.1321739130434783 0.05 0  0.01652173913043478 0.06666666666666667 0  0 0.06666666666666667 0  0.03304347826086956 0.06666666666666667 0  0.04956521739130434 0.06666666666666667 0  0.06608695652173913 0.06666666666666667 0  0.08260869565217391 0.06666666666666667 0  0.09913043478260869 0.06666666666666667 0  0.1156521739130435 0.06666666666666667 0  0.1321739130434783 0.06666666666666667 0  0.148695652173913 0.06666666666666667 0  0.01652173913043478 0.08333333333333333 0  0 0.08333333333333333 0  0.03304347826086956 0.08333333333333333 0  0.04956521739130434 0.08333333333333333 0  0.06608695652173913 0.08333333333333333 0  0.08260869565217391 0.08333333333333333 0  0.09913043478260869 0.08333333333333333 0  0.1156521739130435 0.08333333333333333 0  0.1321739130434783 0.08333333333333333 0  0.148695652173913 0.08333333333333333 0  0.1652173913043478 0.08333333333333333 0  0.01652173913043478 0.1 0  0 0.1 0  0.03304347826086956 0.1 0  0.04956521739130434 0.1 0  0.06608695652173913 0.1 0  0.08260869565217391 0.1 0  0.09913043478260869 0.1 0  0.1156521739130435 0.1 0  0.1321739130434783 0.1 0  0.148695652173913 0.1 0  0.1652173913043478 0.1 0  0.1817391304347826 0.1 0  0.01652173913043478 0.1166666666666667 0  0 0.1166666666666667 0  0.03304347826086956 0.1166666666666667 0  0.04956521739130434 0.1166666666666667 0  0.06608695652173913 0.1166666666666667 0  0.08260869565217391 0.1166666666666667 0  0.09913043478260869 0.1166666666666667 0  0.1156521739130435 0.1166666666666667 0  0.1321739130434783 0.1166666666666667 0  0.148695652173913 0.1166666666666667 0  0.1652173913043478 0.1166666666666667 0  0.1817391304347826 0.1166666666666667 0  0.1982608695652174 0.1166666666666667 0  0.01652173913043478 0.1333333333333333 0  0 0.1333333333333333 0  0.03304347826086956 0.1333333333333333 0  0.04956521739130434 0.1333333333333333 0  0.06608695652173913 0.1333333333333333 0  0.08260869565217391 0.1333333333333333 0  0.09913043478260869 0.1333333333333333 0  0.1156521739130435 0.1333333333333333 0  0.1321739130434783 0.1333333333333333 0  0.148695652173913 0.1333333333333333 0  0.1652173913043478 0.1333333333333333 0  0.1817391304347826 0.1333333333333333 0  0.1982608695652174 0.1333333333333333 0  0.2147826086956522 0.1333333333333333 0  0.01652173913043478 0.15 0  0 0.15 0  0.03304347826086956 0.15 0  0.04956521739130434 0.15 0  0.06608695652173913 0.15 0  0.08260869565217391 0.15 0  0.09913043478260869 0.15 0  0.1156521739130435 0.15 0  0.1321739130434783 0.15 0  0.148695652173913 0.15 0  0.1652173913043478 0.15 0  0.1817391304347826 0.15 0  0.1982608695652174 0.15 0  0.2147826086956522 0.15 0  0.2313043478260869 0.15 0  0.01652173913043478 0.1666666666666667 0  0 0.1666666666666667 0  0.03304347826086956 0.1666666666666667 0  0.04956521739130434 0.1666666666666667 0  0.06608695652173913 0.1666666666666667 0  0.08260869565217391 0.1666666666666667 0  0.09913043478260869 0.1666666666666667 0  0.1156521739130435 0.1666666666666667 0  0.1321739130434783 0.1666666666666667 0  0.148695652173913 0.1666666666666667 0  0.1652173913043478 0.1666666666666667 0  0.1817391304347826 0.1666666666666667 0  0.1982608695652174 0.1666666666666667 0  0.2147826086956522 0.1666666666666667 0  0.2313043478260869 0.1666666666666667 0  0.2478260869565218 0.1666666666666667 0  0.01652173913043478 0.1833333333333333 0  0 0.1833333333333333 0  0.03304347826086956 0.1833333333333333 0  0.04956521739130434 0.1833333333333333 0  0.06608695652173913 0.1833333333333333 0  0.08260869565217391 0.1833333333333333 0  0.09913043478260869 0.1833333333333333 0  0.1156521739130435 0.1833333333333333 0  0.1321739130434783 0.1833333333333333 0  0.148695652173913 0.1833333333333333 0  0.1652173913043478 0.1833333333333333 0  0.1817391304347826 0.1833333333333333 0  0.1982608695652174 0.1833333333333333 0  0.2147826086956522 0.1833333333333333 0  0.2313043478260869 0.1833333333333333 0  0.2478260869565218 0.1833333333333333 0  0.2643478260869565 0.1833333333333333 0  0.01652173913043478 0.2 0  0 0.2 0  0.03304347826086956 0.2 0  0.04956521739130434 0.2 0  0.06608695652173913 0.2 0  0.08260869565217391 0.2 0  0.09913043478260869 0.2 0  0.1156521739130435 0.2 0  0.1321739130434783 0.2 0  0.148695652173913 0.2 0  0.1652173913043478 0.2 0  0.1817391304347826 0.2 0  0.1982608695652174 0.2 0  0.2147826086956522 0.2 0  0.2313043478260869 0.2 0  0.2478260869565218 0.2 0  0.2643478260869565 0.2 0  0.2808695652173913 0.2 0  0.01652173913043478 0.2166666666666667 0  0 0.2166666666666667 0  0.03304347826086956 0.2166666666666667 0  0.04956521739130434 0.2166666666666667 0  0.06608695652173913 0.2166666666666667 0  0.08260869565217391 0.2166666666666667 0  0.09913043478260869 0.2166666666666667 0  0.1156521739130435 0.2166666666666667 0  0.1321739130434783 0.2166666666666667 0  0.148695652173913 0.2166666666666667 0  0.1652173913043478 0.2166666666666667 0  0.1817391304347826 0.2166666666666667 0  0.1982608695652174 0.2166666666666667 0  0.2147826086956522 0.2166666666666667 0  0.2313043478260869 0.2166666666666667 0  0.2478260869565218 0.2166666666666667 0  0.2643478260869565 0.2166666666666667 0  0.2808695652173913 0.2166666666666667 0  0.2973913043478261 0.2166666666666667 0  0.01652173913043478 0.2333333333333333 0  0 0.2333333333333333 0  0.03304347826086956 0.2333333333333333 0  0.04956521739130434 0.2333333333333333 0  0.06608695652173913 0.2333333333333333 0  0.08260869565217391 0.2333333333333333 0  0.09913043478260869 0.2333333333333333 0  0.1156521739130435 0.2333333333333333 0  0.1321739130434783 0.2333333333333333 0  0.148695652173913 0.2333333333333333 0  0.1652173913043478 0.2333333333333333 0  0.1817391304347826 0.2333333333333333 0  0.1982608695652174 0.2333333333333333 0  0.2147826086956522 0.2333333333333333 0  0.2313043478260869 0.2333333333333333 0  0.2478260869565218 0.2333333333333333 0  0.2643478260869565 0.2333333333333333 0  0.2808695652173913 0.2333333333333333 0  0.2973913043478261 0.2333333333333333 0  0.01652173913043478 0.25 0  0 0.25 0  0.03304347826086956 0.25 0  0.04956521739130434 0.25 0  0.06608695652173913 0.25 0  0.08260869565217391 0.25 0  0.09913043478260869 0.25 0  0.1156521739130435 0.25 0  0.1321739130434783 0.25 0  0.148695652173913 0.25 0  0.1652173913043478 0.25 0  0.1817391304347826 0.25 0  0.1982608695652174 0.25 0  0.2147826086956522 0.25 0  0.2313043478260869 0.25 0  0.2478260869565218 0.25 0  0.2643478260869565 0.25 0  0.2808695652173913 0.25 0  0.2973913043478261 0.25 0  0.01652173913043478 0.2666666666666667 0  0 0.2666666666666667 0  0.03304347826086956 0.2666666666666667 0  0.04956521739130434 0.2666666666666667 0  0.06608695652173913 0.2666666666666667 0  0.08260869565217391 0.2666666666666667 0  0.09913043478260869 0.2666666666666667 0  0.1156521739130435 0.2666666666666667 0  0.1321739130434783 0.2666666666666667 0  0.148695652173913 0.2666666666666667 0  0.1652173913043478 0.2666666666666667 0  0.1817391304347826 0.2666666666666667 0  0.1982608695652174 0.2666666666666667 0  0.2147826086956522 0.2666666666666667 0  0.2313043478260869 0.2666666666666667 0  0.2478260869565218 0.2666666666666667 0  0.2643478260869565 0.2666666666666667 0  0.2808695652173913 0.2666666666666667 0  0.2973913043478261 0.2666666666666667 0  0.3139130434782609 0.2666666666666667 0  0.01652173913043478 0.2833333333333333 0  0 0.2833333333333333 0  0.03304347826086956 0.2833333333333333 0  0.04956521739130434 0.2833333333333333 0  0.06608695652173913 0.2833333333333333 0  0.08260869565217391 0.2833333333333333 0  0.09913043478260869 0.2833333333333333 0  0.1156521739130435 0.2833333333333333 0  0.1321739130434783 0.2833333333333333 0  0.148695652173913 0.2833333333333333 0  0.1652173913043478 0.2833333333333333 0  0.1817391304347826 0.2833333333333333 0  0.1982608695652174 0.2833333333333333 0  0.2147826086956522 0.2833333333333333 0  0.2313043478260869 0.2833333333333333 0  0.2478260869565218 0.2833333333333333 0  0.2643478260869565 0.2833333333333333 0  0.2808695652173913 0.2833333333333333 0  0.2973913043478261 0.2833333333333333 0  0.3139130434782609 0.2833333333333333 0  0.3304347826086956 0.2833333333333333 0  0.01652173913043478 0.3 0  0 0.3 0  0.03304347826086956 0.3 0  0.04956521739130434 0.3 0  0.06608695652173913 0.3 0  0.08260869565217391 0.3 0  0.09913043478260869 0.3 0  0.1156521739130435 0.3 0  0.1321739130434783 0.3 0  0.148695652173913 0.3 0  0.1652173913043478 0.3 0  0.1817391304347826 0.3 0  0.1982608695652174 0.3 0  0.2147826086956522 0.3 0  0.2313043478260869 0.3 0  0.2478260869565218 0.3 0  0.2643478260869565 0.3 0  0.2808695652173913 0.3 0  0.2973913043478261 0.3 0  0.3139130434782609 0.3 0  0.3304347826086956 0.3 0  0.3469565217391304 0.3 0  0.01652173913043478 0.3166666666666667 0  0 0.3166666666666667 0  0.03304347826086956 0.3166666666666667 0  0.04956521739130434 0.31666666
[...]
<PointData  Vectors="Displacement"> 
<DataArray  type="Float64"  Name="Displacement"  NumberOfComponents="3" format="ascii">0.0000000000000000e+00 0.0000000000000000e+00 0.0000000000000000e+00  7.5795612459836383e-06 3.8618472810820655e-06 0.0000000000000000e+00  3.9358636335992101e-06 2.0940335929247559e-06 0.0000000000000000e+00  0.0000000000000000e+00 0.0000000000000000e+00 0.0000000000000000e+00  1.4573984652562180e-05 9.1117929659186999e-06 0.0000000000000000e+00  8.2631830232327459e-06 7.2806242176889574e-06 0.0000000000000000e+00  2.1383294759066247e-05 1.6833607976965291e-05 0.0000000000000000e+00  1.2425754743752487e-05 1.5051562657945050e-05 0.0000000000000000e+00  2.8074082335006122e-05 2.7129329218847436e-05 0.0000000000000000e+00  1.6422172471843773e-05 2.5396986095869719e-05 0.0000000000000000e+00  3.4731344019309042e-05 4.0017808445105666e-05 0.0000000000000000e+00  2.0302756395706476e-05 3.8294498991037918e-05 0.0000000000000000e+00  2.4127517838029379e-05 5.3883814984432261e-05 0.0000000000000000e+00  1.1525333496902238e-06 1.4982538270299920e-06 0.0000000000000000e+00  0.0000000000000000e+00 0.0000000000000000e+00 0.0000000000000000e+00  2.4861467250993877e-06 6.4057217608241949e-06 0.0000000000000000e+00  3.8382230462569651e-06 1.4206741034903981e-05 0.0000000000000000e+00  5.0705768400028817e-06 2.4637587050951827e-05 0.0000000000000000e+00  6.1509945994637807e-06 3.7536884821207942e-05 0.0000000000000000e+00  7.1375102082860155e-06 5.3010045058281619e-05 0.0000000000000000e+00  7.9244555433009054e-06 7.1755249222634832e-05 0.0000000000000000e+00  -1.5278300961974799e-06 1.6390939885941404e-06 0.0000000000000000e+00  0.0000000000000000e+00 0.0000000000000000e+00 0.0000000000000000e+00  -3.0719979170698577e-06 6.4901239714159488e-06 0.0000000000000000e+00  -4.5271345788335432e-06 1.4295631454510860e-05 0.0000000000000000e+00  -5.9408651321623570e-06 2.4837724797629822e-05 0.0000000000000000e+00  -7.4659416781502058e-06 3.7772827697805379e-05 0.0000000000000000e+00  -9.2573798734509712e-06 5.2994931706296059e-05 0.0000000000000000e+00  -1.1517722322083663e-05 7.1867389717057611e-05 0.0000000000000000e+00  -1.4261205283316954e-05 9.4068926422798753e-05 0.0000000000000000e+00  -4.3254624464876139e-06 2.5554698591195104e-06 0.0000000000000000e+00  0.0000000000000000e+00 0.0000000000000000e+00 0.0000000000000000e+00  -8.7658955796611477e-06 7.4323499408535266e-06 0.0000000000000000e+00  -1.2903540974993925e-05 1.5159768076551451e-05 0.0000000000000000e+00  -1.6602698933213563e-05 2.5582786318745932e-05 0.0000000000000000e+00  -1.9538481890737727e-05 3.8395352641638690e-05 0.0000000000000000e+00  -2.2365471678659069e-05 5.3370901366424837e-05 0.0000000000000000e+00  -2.8797805348687497e-05 7.2466672206915585e-05 0.0000000000000000e+00  -3.5950107256573841e-05 9.4959521489926095e-05 0.0000000000000000e+00  -4.0275250126119696e-05 1.1969089971035948e-04 0.0000000000000000e+00  -6.9031904270060660e-06 3.9954067873311247e-06 0.0000000000000000e+00  0.0000000000000000e+00 0.0000000000000000e+00 0.0000000000000000e+00  -1.3685300095345345e-05 8.9106402598839622e-06 0.0000000000000000e+00  -2.0697981405962880e-05 1.6537368831202038e-05 0.0000000000000000e+00  -2.7096749331760689e-05 2.6816128340238487e-05 0.0000000000000000e+00  -2.6262697775366076e-05 4.2611715037292406e-05 0.0000000000000000e+00  -2.8747677033150972e-05 5.8785166790160649e-05 0.0000000000000000e+00  -3.3041040455828687e-05 7.8348005474086614e-05 0.0000000000000000e+00  -3.7985169495095676e-05 1.0031812815140104e-04 0.0000000000000000e+00  -4.2578498267501929e-05 1.2418018513249166e-04 0.0000000000000000e+00  -4.6549722092318554e-05 1.5111389974657388e-04 0.0000000000000000e+00  -4.9423981556675946e-06 6.3000384493361466e-06 0.0000000000000000e+00  0.0000000000000000e+00 0.0000000000000000e+00 0.0000000000000000e+00  -1.0656672444812677e-05 1.2893356066114630e-05 0.0000000000000000e+00  -1.6606617070219554e-05 2.1421169994005757e-05 0.0000000000000000e+00  -2.2190884837663290e-05 3.2193943064020594e-05 0.0000000000000000e+00  -2.6783805661728186e-05 4.5968071015775045e-05 0.0000000000000000e+00  -3.0856979552360873e-05 6.3033794134604462e-05 0.0000000000000000e+00  -3.5461985283982675e-05 8.2617592604888038e-05 0.0000000000000000e+00  -4.0186537868364042e-05 1.0427497903053337e-04 0.0000000000000000e+00  -4.4731771905314985e-05 1.2776156904124443e-04 0.0000000000000000e+00  -4.8849922464214402e-05 1.5352741215788877e-04 0.0000000000000000e+00  -5.2231910153594650e-05 1.8088589988124852e-04 0.0000000000000000e+00  -4.4470463370081559e-06 7.6440490208273991e-06 0.0000000000000000e+00  0.0000000000000000e+00 0.0000000000000000e+00 0.0000000000000000e+00  -9.5562256391032639e-06 1.5738150424165149e-05 0.0000000000000000e+00  -1.5147583054920357e-05 2.5228666157587297e-05 0.0000000000000000e+00  -2.0867407105630530e-05 3.6619986998778019e-05 0.0000000000000000e+00  -2.6487697667036517e-05 5.0470389954064776e-05 0.0000000000000000e+00  -3.1895869449339272e-05 6.7164510609714988e-05 0.0000000000000000e+00  -3.7120407744214081e-05 8.6400479706931851e-05 0.0000000000000000e+00  -4.2189791850452808e-05 1.0763802447229346e-04 0.0000000000000000e+00  -4.7043374012677156e-05 1.3069544781029859e-04 0.0000000000000000e+00  -5.1595703323405690e-05 1.5569916089050462e-04 0.0000000000000000e+00  -5.5728673142649056e-05 1.8243710215449461e-04 0.0000000000000000e+00  -5.9484320727409659e-05 2.1124479510575302e-04 0.0000000000000000e+00  -4.4373997804923842e-06 8.6308811388659275e-06 0.0000000000000000e+00  0.0000000000000000e+00 0.0000000000000000e+00 0.0000000000000000e+00  -9.4344647858652904e-06 1.7874919433157873e-05 0.0000000000000000e+00  -1.4939289194557525e-05 2.8305002013540502e-05 0.0000000000000000e+00  -2.0769739607978764e-05 4.0372562482738567e-05 0.0000000000000000e+00  -2.6745922171518891e-05 5.4526730448567402e-05 0.0000000000000000e+00  -3.2687330526601518e-05 7.1054672709418539e-05 0.0000000000000000e+00  -3.8443114829376000e-05 8.9857997078270457e-05 0.0000000000000000e+00  -4.3957234773458852e-05 1.1063735050254793e-04 0.0000000000000000e+00  -4.9231250305884008e-05 1.3322437574009015e-04 0.0000000000000000e+00  -5.4246049224355368e-05 1.5761971218643213e-04 0.0000000000000000e+00  -5.8958523080555643e-05 1.8375217209334470e-04 0.0000000000000000e+00  -6.3362797469382923e-05 2.1176907189056972e-04 0.0000000000000000e+00  -6.7385024063588666e-05 2.4169329430786545e-04 0.0000000000000000e+00  -4.6220699992924571e-06 9.4418962101082125e-06 0.0000000000000000e+00  0.0000000000000000e+00 0.0000000000000000e+00 0.0000000000000000e+00  -9.7277928863605685e-06 1.9591146402825328e-05 0.0000000000000000e+00  -1.5296385695207018e-05 3.0826356935875034e-05 0.0000000000000000e+00  -2.1223029167106305e-05 4.3506955482704648e-05 0.0000000000000000e+00  -2.7366294314419144e-05 5.7977293307662701e-05 0.0000000000000000e+00  -3.3558366907523393e-05 7.4457666833700910e-05 0.0000000000000000e+00  -3.9641088183089075e-05 9.2943481137014718e-05 0.0000000000000000e+00  -4.5523144811920191e-05 1.1329771487840999e-04 0.0000000000000000e+00  -5.1179094923782240e-05 1.3541319601951808e-04 0.0000000000000000e+00  -5.6597364109306284e-05 1.5925275964174312e-04 0.0000000000000000e+00  -6.1755751085515174e-05 1.8477771246369211e-04 0.0000000000000000e+00  -6.6632590765576305e-05 2.1203296257285261e-04 0.0000000000000000e+00  -7.1168404251136018e-05 2.4098095581618221e-04 0.0000000000000000e+00  -7.5305198187112729e-05 2.7142347089130844e-04 0.0000000000000000e+00  -4.8801729536071430e-06 1.0138786307058634e-05 0.0000000000000000e+00  0.0000000000000000e+00 0.0000000000000000e+00 0.0000000000000000e+00  -1.0179901197497045e-05 2.1017717701053111e-05 0.0000000000000000e+00  -1.5879989468367079e-05 3.2910600609836396e-05 0.0000000000000000e+00  -2.1908705489784346e-05 4.6098587201294707e-05 0.0000000000000000e+00  -2.8156620771630341e-05 6.0845193651154090e-05 0.0000000000000000e+00  -3.4487393513854915e-05 7.7327217445185203e-05 0.0000000000000000e+00  -4.0767303086925313e-05 9.5586757649754095e-05 0.0000000000000000e+00  -4.6903020576245983e-05 1.1557803556748954e-04 0.0000000000000000e+00  -5.2848040064296281e-05 1.3724684853170491e-04 0.0000000000000000e+00  -5.8577772150173158e-05 1.6055830294099736e-04 0.0000000000000000e+00  -6.4069235526595825e-05 1.8548012572143074e-04 0.0000000000000000e+00  -6.9295400959199036e-05 2.1200555378130694e-04 0.0000000000000000e+00  -7.4210609466474327e-05 2.4007432807047346e-04 0.0000000000000000e+00  -7.8773536294590143e-05 2.6954223243432792e-04 0.0000000000000000e+00  -8.2976086052795626e-05 3.0023922626691026e-04 0.0000000000000000e+00  -5.1556123656258651e-06 1.0742443124213013e-05 0.0000000000000000e+00  0.0000000000000000e+00 0.0000000000000000e+00 0.0000000000000000e+00  -1.0671526486043415e-05 2.2214688365083956e-05 0.0000000000000000e+00  -1.6523622166632522e-05 3.4632010462966834e-05 0.0000000000000000e+00  -2.2655389422885634e-05 4.8219302943819275e-05 0.0000000000000000e+00  -2.8981372765369695e-05 6.3184481928385176e-05 0.0000000000000000e+00  -3.5395312100937172e-05 7.9676001163255514e-05 0.0000000000000000e+00  -4.1790515255329801e-05 9.7758495505319171e-05 0.0000000000000000e+00  -4.8083278105050917e-05 1.1743570829920531e-04 0.0000000000000000e+00  -5.4219542240695274e-05 1.3868954805533451e-04 0.0000000000000000e+00  -6.0164140430490074e-05 1.6149743660588299e-04 0.0000000000000000e+00  -6.5888448165333664e-05 1.8583093476260968e-04 0.0000000000000000e+00  -7.1363111119140759e-05 2.1166094748866385e-04 0.0000000000000000e+00  -7.6551902134532258e-05 2.3892177066420797e-04 0.0000000000000000e+00  -8.1424242698764851e-05 2.6750006455683676e-04 0.0000000000000000e+00  -8.5970063281459071e-05 2.9726170490164291e-04 0.0000000000000000e+00  -9.0200483734373166e-05 3.2806758309014786e-04 0.0000000000000000e+00  -5.4209076252806628e-06 1.1259465173415887e-05 0.0000000000000000e+00  0.0000000000000000e+00 0.0000000000000000e+00 0.0000000000000000e+00  -1.1144831599473411e-05 2.3211041734922991e-05 0.0000000000000000e+00  -1.7143162909259753e-05 3.6036693986014697e-05 0.0000000000000000e+00  -2.3367752713914674e-05 4.9923980994685159e-05 0.0000000000000000e+00  -2.9750748155663135e-05 6.5044808371175821e-05 0.0000000000000000e+00  -3.6209964793095945e-05 8.1529296993690151e-05 0.0000000000000000e+00  -4.2661768564578811e-05 9.9452302148046325e-05 0.0000000000000000e+00  -4.9035152498119127e-05 1.1884399701830619e-04 0.0000000000000000e+00  -5.5277008197459014e-05 1.3970900093503069e-04 0.0000000000000000e+00  -6.1347976266369728e-05 1.6203672116436434e-04 0.0000000000000000e+00  -6.7215884698656198e-05 1.8580341344528640e-04 0.0000000000000000e+00  -7.2850754433558901e-05 2.1097318815542531e-04 0.0000000000000000e+00  -7.8222196721833048e-05 2.3748277337063447e-04 0.0000000000000000e+00  -8.3305992670793875e-05 2.6523877463920158e-04 0.0000000000000000e+00  -8.8091818489137734e-05 2.9413139509988948e-04 0.0000000000000000e+00  -9.2584767906785299e-05 3.2404459563648540e-04 0.0000000000000000e+00  -9.6803934512411222e-05 3.5486390565975213e-04 0.0000000000000000e+00  -5.6621389942380622e-06 1.1691461300189439e-05 0.0000000000000000e+00  0.0000000000000000e+00 0.0000000000000000e+00 0.0000000000000000e+00  -1.1570706308851302e-05 2.4021303279671615e-05 0.0000000000000000e+00  -1.7694592506090381e-05 3.7152777289695573e-05 0.0000000000000000e+00  -2.3991523246120668e-05 5.1250153379427722e-05 0.0000000000000000e+00  -3.0406949036043684e-05 6.6463090470441879e-05 0.0000000000000000e+00  -3.6877223613017601e-05 8.2910144307380895e-05 0.0000000000000000e+00  -4.3337253809034826e-05 1.0067047940181922e-04 0.0000000000000000e+00  -4.9728724223377790e-05 1.1978822059639082e-04 0.0000000000000000e+00  -5.6003818085203115e-05 1.4028171706093675e-04 0.0000000000000000e+00  -6.2123950113371999e-05 1.6214957173915669e-04 0.0000000000000000e+00  -6.8056641548985472e-05 1.8537301427189773e-04 0.0000000000000000e+00  -7.3772816260221413e-05 2.0991650351585703e-04 0.0000000000000000e+00  -7.9245875591339116e-05 2.3572223517213015e-04 0.0000000000000000e+00  -8.4455192281413750e-05 2.6271097154816731e-04 0.0000000000000000e+00  -8.9390199788674275e-05 2.9079023253152862e-04 0.0000000000000000e+00  -9.4051787983214592e-05 3.1986154399836323e-04 0.0000000000000000e+00  -9.8452146063826817e-05 3.4982677721459858e-04 0.0000000000000000e+00  -1.0261397946573969e-04 3.8059345718259807e-04 0.0000000000000000e+00  -5.8721287563368402e-06 1.2038180697673178e-05 0.0000000000000000e+00  0.0000000000000000e+00 0.0000000000000000e+00 0.0000000000000000e+00  -1.1934045990034558e-05 2.4652462767433738e-05 0.0000000000000000e+00  -1.8154064051389626e-05 3.7996470089001363e-05 0.0000000000000000e+00  -2.4495045022376088e-05 5.2221180533835426e-05 0.0000000000000000e+00  -3.0913119675819710e-05 6.7463431361128540e-05 0.0000000000000000e+00  -3.7359230803337087e-05 8.3834937380606605e-05 0.0000000000000000e+00  -4.3783300423843514e-05 1.0141660532434105e-04 0.0000000000000000e+00  -5.0138795166378089e-05 1.2025985940741390e-04 0.0000000000000000e+00  -5.6385112233854768e-05 1.4039108605465173e-04 0.0000000000000000e+00  -6.2487436653256779e-05 1.6181522286711850e-04 0.0000000000000000e+00  -6.8415459470932345e-05 1.8451787993532180e-04 0.0000000000000000e+00  -7.4142198303501789e-05 2.0846638847379147e-04 0.0000000000000000e+00  -7.9643880961103027e-05 2.3360882448837531e-04 0.0000000000000000e+00  -8.4901893167078213e-05 2.5987634921646806e-04 0.0000000000000000e+00  -8.9905001310579453e-05 2.8718902225853408e-04 0.0000000000000000e+00  -9.4650387448648248e-05 3.1546155981535803e-04 0.0000000000000000e+00  -9.9143894681504578e-05 3.4460879408980025e-04 0.0000000000000000e+00  -1.0339989829323396e-04 3.7455061593209994e-04 0.0000000000000000e+00  -6.0471559663643733e-06 1.2298417427768940e-05 0.0000000000000000e+00  0.0000000000000000e+00 0.0000000000000000e+00 0.0000000000000000e+00  -1.2226771392629733e-05 2.5106860343823876e-05 0.0000000000000000e+00  -1.8508108636093739e-05 3.8575563202660408e-05 0.0000000000000000e+00  -2.4859197618414017e-05 5.2849433777474669e-05 0.0000000000000000e+00  -3.1245471366180256e-05 6.8059048763765764e-05 0.0000000000000000e+00  -3.7630030656813429e-05 8.4312697895565491e-05 0.0000000000000000e+00  -4.3975452008221839e-05 1.0169209694923922e-04 0.0000000000000000e+00  -5.0245995518178348e-05 1.2025238919077301e-04 0.0000000000000000e+00  -5.6408928192642592e-05 1.4002437438766452e-04 0.0000000000000000e+00  -6.2434716377090073e-05 1.6101688752699248e-04 0.0000000000000000e+00  -6.8296665713792033e-05 1.8321875894825352e-04 0.0000000000000000e+00  -7.3970615721558495e-05 2.0660035898733417e-04 0.0000000000000000e+00  -7.9435197050431190e-05 2.3111468503697754e-04 0.0000000000000000e+00  -8.4672985382748235e-05 2.5670029786263235e-04 0.0000000000000000e+00  -8.9671716447135169e-05 2.8328605957507859e-04 0.0000000000000000e+00  -9.4424932145901797e-05 3.1079612505604165e-04 0.0000000000000000e+00  -9.8932239843281365e-05 3.3915492659608728e-04 0.0000000000000000e+00  -1.0319942094030599e-04 3.6829190380001213e-04 0.0000000000000000e+00  -6.1852585011047805e-06 1.2470123661399313e-05 0.0000000000000000e+00  0.0000000000000000e+00 0.0000000000000000e+00 0.0000000000000000e+00  -1.2444272677116378e-05 2.5383319868264296e-05 0.0000000000000000e+00  -1.8748472792197828e-05 3.8891345085020127e-05 0.0000000000000000e+00  -2.5071552906571833e-05 5.3138600750128712e-05 0.0000000000000000e+00  -3.1387828292247103e-05 6.8254193945559225e-05 0.0000000000000000e+00  -3.7671345120485689e-05 8.4345518679984684e-05 0.0000000000000000e+00  -4.3895953374022305e-05 1.0149483369157003e-04 0.0000000000000000e+00  -5.0035898283802747e-05 1.1975891013459775e-04 0.0000000000000000e+00  -5.6066323968287081e-05 1.3917047317334603e-04 0.0000000000000000e+00  -6.1963497698710481e-05 1.5974018001779566e-04 0.0000000000000000e+00  -6.7704919900058756e-05 1.8145862581499071e-04 0.0000000000000000e+00  -7.3269522301350112e-05 2.0429827569677108e-04 0.0000000000000000e+00  -7.8638109917649853e-05 2.2821545343684968e-04 0.0000000000000000e+00  -8.3794080905668007e-05 2.5315343654610921e-04 0.0000000000000000e+00  -8.8724023461322403e-05 2.7904664494308936e-04 0.0000000000000000e+00  -9.3417951995137754e-05 3.0582523189427350e-04 0.0000000000000000e+00  -9.7869365260141883e-05 3.3341989108208128e-04 0.0000000000000000e+00  -1.0207538502253440e-04 3.6176661846863478e-04 0.0000000000000000e+00  -1.0603716590467224e-04 3.9081103178464167e-04 0.0000000000000000e+00  -6.2852565744632169e-06 1.2550221217938534e-05 0.0000000000000000e+00  0.0000000000000000e+00 0.0000000000000000e+00 0.0000000000000000e+00  -1.2583368920273973e-05 2.5477421446514575e-05 0.0000000000000000e+00  -1.8869052859551641e-05 3.8939475373679935e-05 0.0000000000000000e+00  -2.5122624423097993e-05 5.3085053432293655e-05 0.0000000000000000e+00  -3.1327692436279606e-05 6.8045533248230284e-05 0.0000000000000000e+00  -3.7469005591085568e-05 8.3929252330186777e-05 0.0000000000000000e+00  -4.3531058474423024e-05 1.0081881766519413e-04 0.0000000000000000e+00  -4.9497474263763675e-05 1.1877107625002269e-04 0.0000000000000000e+00  -5.5350901311999296e-05 1.3781866572411792e-04 0.0000000000000000e+00  -6.1073228278291726e-05 1.5797216624777381e-04 0.0000000000000000e+00  -6.6646029435785988e-05 1.7922235350944086e-04 0.0000000000000000e+00  -7.2051156876390735e-05 2.0154241098163956e-04 0.0000000000000000e+00  -7.7271356017890501e-05 2.2489022008599074e-04 0.0000000000000000e+00  -8.2290755744258610e-05 2.4921133469488498e-04 0.0000000000000000e+00  -8.7095008373772737e-05 2.7444278001860977e-04 0.0000000000000000e+00  -9.1671025947023051e-05 3.0051740147788212e-04 0.0000000000000000e+00  -9.6006613417061343e-05 3.2736874528036328e-04 0.0000000000000000e+00  -1.0009045654099874e-04 3.5493623191527299e-04 0.0000000000000000e+00  -1.0391287796351663e-04 3.8317007544574775e-04 0.0000000000000000e+00  -1.0746748180148055e-04 4.1203502239955567e-04 0.0000000000000000e+00  -6.3460802738714326e-06 1.2534233653066781e-05 0.0000000000000000e+00  0.0000000000000000e+00 0.0000000000000000e+00 0.0000000000000000e+00  -1.2640874724204640e-05 2.5381213746615984e-05 0.0000000000000000e+00  -1.8863680924867495e-05 3.8710068018123855e-05 0.0000000000000000e+00  -2.5003031558211391e-05 5.2678396072305988e-05 0.0000000000000000e+00  -3.1053088531546978e-05 6.7422946171083912e-05 0.0000000000000000e+00  -3.7009883229647972e-05 8.3054151104399414e-05 0.0000000000000000e+00  -4.2868483436160532e-05 9.9654390464248450e-05 0.0000000000000000e+00  -4.8621397285827690e-05 1.1727893494478411e-04 0.0000000000000000e+00  -5.4258075092600867e-05 1.3595831216110392e-04 0.0000000000000000e+00  -5.9765238452335000e-05 1.5570110690109464e-04 0.0000000000000000e+00  -6.5127748057385420e-05 1.7649665255317323e-04 0.0000000000000000e+00  -7.0329700114678996e-05 1.9831744293836187e-04 0.0000000000000000e+00  -7.5355367526159326e-05 2.2112132400705628e-04 0.0000000000000000e+00  -8.0189660102824738e-05 2.4485404948453694e-04 0.0000000000000000e+00  -8.4817890956600243e-05 2.6945260050712509e-04 0.0000000000000000e+00  -8.9224820802201934e-05 2.9484924534545746e-04 0.0000000000000000e+00  -9.3393483171421511e-05 3.2097670319266371e-04 0.0000000000000000e+00  -9.7304671889502438e-05 3.4777429164963881e-04 0.0000000000000000e+00  -1.0093804311599637e-04 3.7519438717286205e-04 0.0000000000000000e+00  -1.0427547403342737e-04 4.0320788167122414e-04 0.0000000000000000e+00  -1.0730800162944466e-04 4.3180894186529859e-04 0.0000000000000000e+00  -6.3661658116667232e-06 1.2415699252899194e-05 0.0000000000000000e+00  0.0000000000000000e+00 0.0000000000000000e+00 0.0000000000000000e+00  -1.2612268801598314e-05 2.5082383268349856e-05 0.0000000000000000e+00  -1.8724056182612079e-05 3.8187047729828416e-05 0.0000000000000000e+00  -2.4700850256247005e-05 5.19012935