<?xml version="1.0"?>
<VTKFile type="UnstructuredGrid"  version="0.1"  >
<UnstructuredGrid>
<Piece  NumberOfPoints="611" NumberOfCells="1123">
<Points>
<DataArray  type="Float64"  NumberOfComponents="3"  format="ascii">1.883478260869565 0.01666666666666667 0  1.9 0.01666666666666667 0  1.9 0.03333333333333333 0  1.883478260869565 0.03333333333333333 0  1.916521739130435 0.03333333333333333 0  1.9 0.05 0  1.883478260869565 0.05 0  1.916521739130435 0.05 0  1.933043478260869 0.05 0  1.9 0.06666666666666667 0  1.883478260869565 0.06666666666666667 0  1.916521739130435 0.06666666666666667 0  1.933043478260869 0.06666666666666667 0  1.949565217391304 0.06666666666666667 0  1.9 0.08333333333333333 0  1.883478260869565 0.08333333333333333 0  1.916521739130435 0.08333333333333333 0  1.933043478260869 0.08333333333333333 0  1.949565217391304 0.08333333333333333 0  1.966086956521739 0.08333333333333333 0  1.9 0.1 0  1.883478260869565 0.1 0  1.916521739130435 0.1 0  1.933043478260869 0.1 0  1.949565217391304 0.1 0  1.966086956521739 0.1 0  1.982608695652174 0.1 0  1.9 0.1166666666666667 0  1.883478260869565 0.1166666666666667 0  1.916521739130435 0.1166666666666667 0  1.933043478260869 0.1166666666666667 0  1.949565217391304 0.1166666666666667 0  1.966086956521739 0.1166666666666667 0  1.982608695652174 0.1166666666666667 0  1.999130434782608 0.1166666666666667 0  1.9 0.1333333333333333 0  1.883478260869565 0.1333333333333333 0  1.916521739130435 0.1333333333333333 0  1.933043478260869 0.1333333333333333 0  1.949565217391304 0.1333333333333333 0  1.966086956521739 0.1333333333333333 0  1.982608695652174 0.1333333333333333 0  1.999130434782608 0.1333333333333333 0  2.015652173913043 0.1166666666666667 0  2.015652173913043 0.1333333333333333 0  2.032173913043478 0.1166666666666667 0  2.032173913043478 0.1333333333333333 0  2.048695652173913 0.1166666666666667 0  2.048695652173913 0.1333333333333333 0  2.065217391304348 0.1166666666666667 0  2.065217391304348 0.1333333333333333 0  2.081739130434782 0.1166666666666667 0  2.081739130434782 0.1333333333333333 0  2.098260869565217 0.1333333333333333 0  1.9 0.15 0  1.883478260869565 0.15 0  1.916521739130435 0.15 0  1.933043478260869 0.15 0  1.949565217391304 0.15 0  1.966086956521739 0.15 0  1.982608695652174 0.15 0  1.999130434782608 0.15 0  2.015652173913043 0.15 0  2.032173913043478 0.15 0  2.048695652173913 0.15 0  2.065217391304348 0.15 0  2.081739130434782 0.15 0  2.098260869565217 0.15 0  2.114782608695652 0.15 0  1.9 0.1666666666666667 0  1.883478260869565 0.1666666666666667 0  1.916521739130435 0.1666666666666667 0  1.933043478260869 0.1666666666666667 0  1.949565217391304 0.1666666666666667 0  1.966086956521739 0.1666666666666667 0  1.982608695652174 0.1666666666666667 0  1.999130434782608 0.1666666666666667 0  2.015652173913043 0.1666666666666667 0  2.032173913043478 0.1666666666666667 0  2.048695652173913 0.1666666666666667 0  2.065217391304348 0.1666666666666667 0  2.081739130434782 0.1666666666666667 0  2.098260869565217 0.1666666666666667 0  2.114782608695652 0.1666666666666667 0  2.131304347826087 0.1666666666666667 0  1.9 0.1833333333333333 0  1.883478260869565 0.1833333333333333 0  1.916521739130435 0.1833333333333333 0  1.933043478260869 0.1833333333333333 0  1.949565217391304 0.1833333333333333 0  1.966086956521739 0.1833333333333333 0  1.982608695652174 0.1833333333333333 0  1.999130434782608 0.1833333333333333 0  2.015652173913043 0.1833333333333333 0  2.032173913043478 0.1833333333333333 0  2.048695652173913 0.1833333333333333 0  2.065217391304348 0.1833333333333333 0  2.081739130434782 0.1833333333333333 0  2.098260869565217 0.1833333333333333 0  2.114782608695652 0.1833333333333333 0  2.131304347826087 0.1833333333333333 0  2.147826086956522 0.1833333333333333 0  1.9 0.2 0  1.883478260869565 0.2 0  1.916521739130435 0.2 0  1.933043478260869 0.2 0  1.949565217391304 0.2 0  1.966086956521739 0.2 0  1.982608695652174 0.2 0  1.999130434782608 0.2 0  2.015652173913043 0.2 0  2.032173913043478 0.2 0  2.048695652173913 0.2 0  2.065217391304348 0.2 0  2.081739130434782 0.2 0  2.098260869565217 0.2 0  2.114782608695652 0.2 0  2.131304347826087 0.2 0  2.147826086956522 0.2 0  2.164347826086956 0.2 0  1.9 0.2166666666666667 0  1.883478260869565 0.2166666666666667 0  1.916521739130435 0.2166666666666667 0  1.933043478260869 0.2166666666666667 0  1.949565217391304 0.2166666666666667 0  1.966086956521739 0.2166666666666667 0  1.982608695652174 0.2166666666666667 0  1.999130434782608 0.2166666666666667 0  2.015652173913043 0.2166666666666667 0  2.032173913043478 0.2166666666666667 0  2.048695652173913 0.2166666666666667 0  2.065217391304348 0.2166666666666667 0  2.081739130434782 0.2166666666666667 0  2.098260869565217 0.2166666666666667 0  2.114782608695652 0.2166666666666667 0  2.131304347826087 0.2166666666666667 0  2.147826086956522 0.2166666666666667 0  2.164347826086956 0.2166666666666667 0  2.180869565217391 0.2166666666666667 0  1.9 0.2333333333333333 0  1.883478260869565 0.2333333333333333 0  1.916521739130435 0.2333333333333333 0  1.933043478260869 0.2333333333333333 0  1.949565217391304 0.2333333333333333 0  1.966086956521739 0.2333333333333333 0  1.982608695652174 0.2333333333333333 0  1.999130434782608 0.2333333333333333 0  2.015652173913043 0.2333333333333333 0  2.032173913043478 0.2333333333333333 0  2.048695652173913 0.2333333333333333 0  2.065217391304348 0.2333333333333333 0  2.081739130434782 0.2333333333333333 0  2.098260869565217 0.2333333333333333 0  2.114782608695652 0.2333333333333333 0  2.131304347826087 0.2333333333333333 0  2.147826086956522 0.2333333333333333 0  2.164347826086956 0.2333333333333333 0  2.180869565217391 0.2333333333333333 0  2.197391304347826 0.2333333333333333 0  1.9 0.25 0  1.916521739130435 0.25 0  1.933043478260869 0.25 0  1.949565217391304 0.25 0  1.966086956521739 0.25 0  1.982608695652174 0.25 0  1.999130434782608 0.25 0  2.015652173913043 0.25 0  2.032173913043478 0.25 0  2.048695652173913 0.25 0  2.065217391304348 0.25 0  2.081739130434782 0.25 0  2.098260869565217 0.25 0  2.114782608695652 0.25 0  2.131304347826087 0.25 0  2.147826086956522 0.25 0  2.164347826086956 0.25 0  2.180869565217391 0.25 0  2.197391304347826 0.25 0  2.213913043478261 0.25 0  1.916521739130435 0.2666666666666667 0  1.9 0.2666666666666667 0  1.933043478260869 0.2666666666666667 0  1.949565217391304 0.2666666666666667 0  1.966086956521739 0.2666666666666667 0  1.982608695652174 0.2666666666666667 0  1.999130434782608 0.2666666666666667 0  2.015652173913043 0.2666666666666667 0  2.032173913043478 0.2666666666666667 0  2.048695652173913 0.2666666666666667 0  2.065217391304348 0.2666666666666667 0  2.081739130434782 0.2666666666666667 0  2.098260869565217 0.2666666666666667 0  2.114782608695652 0.2666666666666667 0  2.131304347826087 0.2666666666666667 0  2.147826086956522 0.2666666666666667 0  2.164347826086956 0.2666666666666667 0  2.180869565217391 0.2666666666666667 0  2.197391304347826 0.2666666666666667 0  2.213913043478261 0.2666666666666667 0  2.230434782608695 0.25 0  2.230434782608695 0.2666666666666667 0  2.24695652173913 0.2666666666666667 0  1.916521739130435 0.2833333333333333 0  1.9 0.2833333333333333 0  1.933043478260869 0.2833333333333333 0  1.949565217391304 0.2833333333333333 0  1.966086956521739 0.2833333333333333 0  1.982608695652174 0.2833333333333333 0  1.999130434782608 0.2833333333333333 0  2.015652173913043 0.2833333333333333 0  2.032173913043478 0.2833333333333333 0  2.048695652173913 0.2833333333333333 0  2.065217391304348 0.2833333333333333 0  2.081739130434782 0.2833333333333333 0  2.098260869565217 0.2833333333333333 0  2.114782608695652 0.2833333333333333 0  2.131304347826087 0.2833333333333333 0  2.147826086956522 0.2833333333333333 0  2.164347826086956 0.2833333333333333 0  2.180869565217391 0.2833333333333333 0  2.197391304347826 0.2833333333333333 0  2.213913043478261 0.2833333333333333 0  2.230434782608695 0.2833333333333333 0  2.24695652173913 0.2833333333333333 0  2.263478260869565 0.2833333333333333 0  1.916521739130435 0.3 0  1.9 0.3 0  1.933043478260869 0.3 0  1.949565217391304 0.3 0  1.966086956521739 0.3 0  1.982608695652174 0.3 0  1.999130434782608 0.3 0  2.015652173913043 0.3 0  2.032173913043478 0.3 0  2.048695652173913 0.3 0  2.065217391304348 0.3 0  2.081739130434782 0.3 0  2.098260869565217 0.3 0  2.114782608695652 0.3 0  2.131304347826087 0.3 0  2.147826086956522 0.3 0  2.164347826086956 0.3 0  2.180869565217391 0.3 0  2.197391304347826 0.3 0  2.213913043478261 0.3 0  2.230434782608695 0.3 0  2.24695652173913 0.3 0  2.263478260869565 0.3 0  2.28 0.3 0  1.916521739130435 0.3166666666666667 0  1.9 0.3166666666666667 0  1.933043478260869 0.3166666666666667 0  1.949565217391304 0.3166666666666667 0  1.966086956521739 0.3166666666666667 0  1.982608695652174 0.3166666666666667 0  1.999130434782608 0.3166666666666667 0  2.015652173913043 0.3166666666666667 0  2.032173913043478 0.3166666666666667 0  2.048695652173913 0.3166666666666667 0  2.065217391304348 0.3166666666666667 0  2.081739130434782 0.3166666666666667 0  2.098260869565217 0.3166666666666667 0  2.114782608695652 0.3166666666666667 0  2.131304347826087 0.3166666666666667 0  2.147826086956522 0.3166666666666667 0  2.164347826086956 0.3166666666666667 0  2.180869565217391 0.3166666666666667 0  2.197391304347826 0.3166666666666667 0  2.213913043478261 0.3166666666666667 0  2.230434782608695 0.3166666666666667 0  2.24695652173913 0.3166666666666667 0  2.263478260869565 0.3166666666666667 0  2.28 0.3166666666666667 0  2.296521739130434 0.3166666666666667 0  1.916521739130435 0.3333333333333333 0  1.9 0.3333333333333333 0  1.933043478260869 0.3333333333333333 0  1.949565217391304 0.3333333333333333 0  1.966086956521739 0.3333333333333333 0  1.982608695652174 0.3333333333333333 0  1.999130434782608 0.3333333333333333 0  2.015652173913043 0.3333333333333333 0  2.032173913043478 0.3333333333333333 0  2.048695652173913 0.3333333333333333 0  2.06521739
[...]
<CellData  Scalars="rho"> 
<DataArray  type="Float64"  Name="rho"  format="ascii">9.1508952475335159e-01   8.5907150931829745e-01   8.5000227556115093e-01   7.1900531920688138e-01   6.4588004458417980e-01   7.1482576854672075e-01   6.4509705405481199e-01   6.4193746824324527e-01   5.0502605004862422e-01   4.2200911464990171e-01   5.1017599134478997e-01   4.2314073912234385e-01   5.1424391639292011e-01   4.3153453480078208e-01   4.5612613065516838e-01   2.9499949992669483e-01   2.0147660459550504e-01   3.1440069078203481e-01   2.2734192736903067e-01   3.3763420707368746e-01   2.5111174644422940e-01   3.5549863104786128e-01   2.9388454871178665e-01   2.9021096606749969e-01   1.2067611873522902e-01   1.2424256165738187e-01   1.5740310460545776e-01   1.6292107170762143e-01   2.1418870084854780e-01   2.0901910434644647e-01   2.4675654174918538e-01   2.5052277827420710e-01   2.4051817349870946e-01   2.7196101713445409e-01   2.6545791229903576e-01   1.5757414945009174e-01   9.2466470824489250e-02   2.1195984220499936e-01   2.1200024625704675e-01   2.7851682256961624e-01   2.6708873795899218e-01   3.2378150604414058e-01   3.3090362779067067e-01   4.6539250493938294e-01   4.9548441559010187e-01   4.4778221876468050e-01   4.8531611945464803e-01   7.1422339395021595e-01   1.8865690368320995e-01   1.7891983436833317e-01   2.5386265735823460e-01   2.4411497191030251e-01   3.1153074362620120e-01   6.1982495443776031e-01   8.1576882686902374e-01   7.8408165024183463e-01   8.7043822615982891e-01   8.6157904282800779e-01   8.2478881464190490e-01   8.8131162071644109e-01   7.5708085990666651e-01   8.0387432177867824e-01   5.8793115615960556e-01   6.9618443541824837e-01   4.8144464026024952e-01   5.4927927768469254e-01   3.8079390455240381e-01   4.4410051213063756e-01   2.9244628886480856e-01   3.3756076966025889e-01   2.3710117086549479e-01   2.7861775971879416e-01   2.5800900855716685e-01   2.0495547341998915e-01   2.0505045338693370e-01   5.8029706961232486e-01   5.0755574946071580e-01   6.8561170210228706e-01   6.5520098028632301e-01   7.7548979148490682e-01   7.4991174907399372e-01   8.6451809057479223e-01   8.2109092140510664e-01   8.7836899977341998e-01   8.8135207941031035e-01   7.8153789942298069e-01   8.4610420631065097e-01   7.1076021410949863e-01   7.6022053829360114e-01   5.5888699024299537e-01   6.1772079719958095e-01   4.6016863993971363e-01   5.1865939541471828e-01   3.5304498277684682e-01   3.9898961284015561e-01   3.1848294609460115e-01   3.4040883795841576e-01   2.8029988386992072e-01   3.1703884237457902e-01   2.6539338993915040e-01   2.3812303995356646e-01   2.0259987313069658e-01   5.2088942594900511e-01   2.9594124825939755e-01   6.5888562396143080e-01   6.1918060772326999e-01   7.4709842378041325e-01   7.4403939084534942e-01   8.1034011432719288e-01   8.1825082839374741e-01   8.4031925949946118e-01   8.6449012760306654e-01   8.3509269237732797e-01   8.7396570829552644e-01   6.8573987219804600e-01   7.2163772580918328e-01   6.0631815662901445e-01   6.5709256501073454e-01   4.6752452129100674e-01   5.1393269302719990e-01   4.0542407549213316e-01   4.5082730028805795e-01   3.4861087937563351e-01   3.8439918144792745e-01   3.2711393182525850e-01   3.5969930851418258e-01   2.9150787695299696e-01   3.3850734493114726e-01   3.0459552245714133e-01   3.0627354462544432e-01   3.4923036046600003e-01   3.5005910739054147e-01   3.7179772886180890e-01   4.2922394929349295e-01   4.1110471295046447e-01   5.0162320333329324e-01   4.4475257107369437e-01   8.1286295284940879e-01   4.8385278235355200e-01   8.5672655154259136e-01   5.3360263267239882e-01   7.7188445266964634e-01   5.7076909025892220e-01   6.0596790738712958e-01   5.8869358197087374e-01   5.7987399723391653e-01   5.8401706841898027e-01   5.3119939087136514e-01   5.4702888040677933e-01   4.8740840102029603e-01   5.1689803081016594e-01   4.5859028751583469e-01   4.8260333656352133e-01   4.3489293365543580e-01   4.6392472724911032e-01   4.1352969632500508e-01   4.4789832407790414e-01   3.6447726375518052e-01   4.2527111803763290e-01   4.1020595179994246e-01   3.7739814534006277e-01   3.6786279413633333e-01   3.9714942134882697e-01   3.9094922466297882e-01   4.1784118457488906e-01   4.0978849494267627e-01   4.4310227770396782e-01   4.3144410495002095e-01   4.8412176950857544e-01   4.5999712024942468e-01   5.3624222625228690e-01   5.0379929797051626e-01   5.7959474999094729e-01   5.5407942837866653e-01   6.0487707297041060e-01   5.9291076457823877e-01   6.1134107469956178e-01   6.1565453700428563e-01   5.7262519996685302e-01   5.6604225100359562e-01   5.3707856900138884e-01   5.4701301765843990e-01   5.1697547442338398e-01   5.1177075786829329e-01   4.7860777167581170e-01   4.9075693348439475e-01   4.5972377189630359e-01   4.7014606756474514e-01   4.4228698276197781e-01   4.5073547821910481e-01   4.1729577892512970e-01   4.2002400378247889e-01   4.0754688187150012e-01   3.6038615720041262e-01   2.1198373641680077e-01   3.8636957686296525e-01   3.4755474139744741e-01   3.9333382080599938e-01   3.7557819535094372e-01   4.1659088320945109e-01   4.0317366444373959e-01   4.4985750740299052e-01   4.2880428669141424e-01   4.9813919415629715e-01   4.6298058808042475e-01   5.5193437652517008e-01   5.2418611760408274e-01   6.0632607063569499e-01   5.8518214014445369e-01   6.3428260008311632e-01   5.5607531487739026e-01   5.7465967993325173e-01   5.7099772339665766e-01   5.3571807197777643e-01   5.4927688584346235e-01   5.1901166340740301e-01   5.5187138484045817e-01   4.9496679972977442e-01   4.8376755870556160e-01   4.4881729317125263e-01   4.5389243331415435e-01   4.1750573676116726e-01   4.2339278379063333e-01   3.8874454436389710e-01   3.9582193971202212e-01   3.6895974228973533e-01   3.3050910851964710e-01   3.1354897311654667e-01   1.7016338590674976e-01   1.3707559611788761e-01   2.0475138761686992e-01   1.6606911369789595e-01   2.4272330360138714e-01   1.9912060969836076e-01   3.8262097232099923e-01   2.3607984202460111e-01   4.0639993167822025e-01   3.9071133149037912e-01   4.3769761471441837e-01   4.1713718517608517e-01   4.7888248717561999e-01   4.4906580246516092e-01   5.2524208827664121e-01   4.9563234660290967e-01   5.5180373830446072e-01   5.3491810961661246e-01   5.6674964874881961e-01   5.5938447460101626e-01   5.4624716760739622e-01   5.4742088243413844e-01   5.3164442372717291e-01   5.4396323406384917e-01   5.0478014777169122e-01   5.0815793955849775e-01   4.4856917277834502e-01   4.7570267943370842e-01   4.1696802074135381e-01   4.3885083072545483e-01   3.8822805554347051e-01   4.0793825954948337e-01   3.6479713457142432e-01   3.8115813307738361e-01   1.7432552341713109e-01   3.6233974194147156e-01   3.4222837526816857e-01   1.0548579636894369e-01   1.3269091033115279e-01   1.0494960227631840e-01   1.6030072839820597e-01   1.2832805127726360e-01   1.9180313813769534e-01   1.5617411387415803e-01   2.2688510758654773e-01   1.8829562437656938e-01   4.0536409121286410e-01   2.2450894778203498e-01   4.3133174421624976e-01   4.0848959446945665e-01   4.7453881736917070e-01   4.4966623328715805e-01   5.0869719986015727e-01   4.8700785754563763e-01   5.4613708278366191e-01   5.1725649393884954e-01   5.4637116853511858e-01   5.5245852773436743e-01   5.4266538176186163e-01   5.4819724820802707e-01   5.2211915538721476e-01   5.3648193411685752e-01   4.9079172123455500e-01   5.1129189855071300e-01   4.5410414651164782e-01   4.7708502649850631e-01   4.1687395507415775e-01   4.3978818497837219e-01   3.8972108779283482e-01   4.0582421292671444e-01   3.6809722161251957e-01   3.8661544150947624e-01   3.5098562193121580e-01   3.5992448512553410e-01   3.5169313762457288e-01   8.1959378094294461e-02   6.6273411530943044e-02   1.0234220077588156e-01   8.3380877800356745e-02   1.2783311239250780e-01   1.0570140653438234e-01   1.5842423924362484e-01   1.3340305017888276e-01   3.7702100017725504e-01   3.6151509041157781e-01   4.0015579943933288e-01   3.8870919260686065e-01   4.3956331369404950e-01   4.1860696206553266e-01   4.7539319706371058e-01   4.5505529340049933e-01   5.0663267660597300e-01   4.8588107616942594e-01   5.4546398946675823e-01   5.1568318176111527e-01   5.4061462723408926e-01   5.3448000831968057e-01   5.3508111769654942e-01   5.3964142111483393e-01   5.1348789406290751e-01   5.2280751771667444e-01   4.8116322917579302e-01   4.9693672301556008e-01   4.4453880831248122e-01   4.6272684882356774e-01   4.1147193742080168e-01   4.2733737141085715e-01   3.9326646938052823e-01   4.0115511594389797e-01   3.6580941157135211e-01   3.8115449204351343e-01   3.4768980516765191e-01   3.5833874228839641e-01   3.4238956130571052e-01   3.4205881328522281e-01   3.3643194150619765e-01   5.9716525140614672e-02   5.6111876228639238e-02   7.6466626787671702e-02   2.9293819346023670e-01   3.1585969669004205e-01   3.0964377140092447e-01   3.3696735372356762e-01   3.2797211356407424e-01   3.5964353664653803e-01   3.4859848182392067e-01   3.9039097997824562e-01   3.7634087227759649e-01   4.1973151949483650e-01   4.0330517309264791e-01   4.5323677905684961e-01   4.3502365468803911e-01   4.7798176577014001e-01   4.6398800438200904e-01   5.0782566100960913e-01   4.9479585419277644e-01   5.2912500525552830e-01   5.5874785091857748e-01   5.3849526595592156e-01   5.6947501203321316e-01   5.3353860409827114e-01   5.7226573695860328e-01   5.1477500716979030e-01   5.6129429868507530e-01   5.2244442767467081e-01   5.3842044816770951e-01   4.8853068010489253e-01   5.0889880367619744e-01   4.3892566013240808e-01   4.7864402742019574e-01   4.1888664417412269e-01   4.5957094170455731e-01   3.5809478948080237e-01   4.0081272801031165e-01   3.4558279626998734e-01   3.7669123422410156e-01   3.3958904506234411e-01   3.6512569997883704e-01   3.6062652684352625e-01   2.9275055306504671e-01   2.8815387723766928e-01   3.0849283746888551e-01   3.0815963739983787e-01   3.1682345020523106e-01   3.2498482198700129e-01   3.3525251313547560e-01   3.4243530134180333e-01   3.5533880236768040e-01   4.1753521879137584e-01   4.3448555684758111e-01   4.3670898407953734e-01   4.5472453812533947e-01   4.5437577427264064e-01   4.7891362381419184e-01   4.6273341861952422e-01   5.0096279061478166e-01   4.7376291910573792e-01   5.2274260880787826e-01   4.9733356704696491e-01   5.0717341405663940e-01   5.2202987791551203e-01   5.4826917865124936e-01   5.4371708436893895e-01   5.5519559004009056e-01   5.5737538201438208e-01   5.4913777309053824e-01   5.6192109905891929e-01   5.3113410737036393e-01   5.5140923216683213e-01   5.0213558181775497e-01   5.3054960512967575e-01   4.7862533399567964e-01   5.0381989857119691e-01   4.5866447397619492e-01   4.7671001445292804e-01   4.2130156147367748e-01   4.4848057580225259e-01   3.9868206181261517e-01   4.2029727563656433e-01   3.8277827111956636e-01   4.0099079225065931e-01   3.9101406608235811e-01   3.8863090403809708e-01   3.8086623006640530e-01   2.9260681995677573e-01   3.3905083850539536e-01   3.6688537045555780e-01   3.5651604786241597e-01   3.8168101479900635e-01   3.7218041227838644e-01   3.9557791641500190e-01   3.8062565221373429e-01   4.0154431084696929e-01   3.9903117181426495e-01   4.2328152107763395e-01   4.1932292480962119e-01   4.4348856700401862e-01   4.3747818650826276e-01   4.6647149218856088e-01   4.5774036117478684e-01   4.9592417744612893e-01   4.8182366559778905e-01   5.2287146809748153e-01   5.0533790346181540e-01   5.4232047875661427e-01   5.2639396016143802e-01   5.6336940670421420e-01   5.5020799434531897e-01   5.6133478470189058e-01   5.6883717649219823e-01   5.6586057284857871e-01   5.7888387726896584e-01   5.5925333856021076e-01   5.7891422260386860e-01   5.4250404176824751e-01   5.5047801516264305e-01   5.1826814998729487e-01   5.3115354095970080e-01   4.9183884725448496e-01   5.0608753934900985e-01   4.6290741012354542e-01   4.7391865835437696e-01   4.3491069637225011e-01   4.4925606725154527e-01   4.1368007241993277e-01   4.2303584993609106e-01   4.0016004045353171e-01   4.0839972479543957e-01   3.9314940442836688e-01   3.9639893682979743e-01   3.8816999977112610e-01   2.9542609065249187e-01   2.5912578115300500e-01   3.1241276697785919e-01   2.6845009923944713e-01   3.3540696854896113e-01   2.9395523516779354e-01   3.5530513203570591e-01   3.1585211410382963e-01   3.7269322971294783e-01   3.3642186828710235e-01   3.9048657879137078e-01   3.5840550020964929e-01   4.0432214770132918e-01   3.8093112835518056e-01   4.2488267036347555e-01   4.0017442148411664e-01   4.4789763761571288e-01   4.2120756136048304e-01   4.7420616316696124e-01   4.4512231218665871e-01   5.0231954771689091e-01   4.7027548791148116e-01   5.2286077416109522e-01   4.9555957021615266e-01   5.4139802296648987e-01   5.1756338099677190e-01   5.7138128712393277e-01   5.3523772784782708e-01   5.7694638932208120e-01   5.3315752385247972e-01   5.9061363501931896e-01   5.5185618903328315e-01   5.5443807430442960e-01   5.4300274744479837e-01   5.2046284232681406e-01   5.2200736262157188e-01   4.8743646015776548e-01   4.8648532319400672e-01   4.5852551346100995e-01   4.6415206640091905e-01   4.0173934589358412e-01   4.3569851438802837e-01   3.8169403834106647e-01   4.0604738419858510e-01   3.6779498391790821e-01   3.8406921710383535e-01   3.5784242111457570e-01   3.3446905890120865e-01   3.2553238619905606e-01   1.5530633314059114e-01   1.3112129647779433e-01   1.8308459843257421e-01   1.5609620790701451e-01   2.3988826152427503e-01   1.9064457834369933e-01   2.6953408549840557e-01   2.2202060269395721e-01   2.9453837324056942e-01   2.3251245823708688e-01   3.1573776136517712e-01   2.6590199259854846e-01   3.2941594968711385e-01   2.9493617893496571e-01   3.5139144123236254e-01   3.2837526725337185e-01   3.7748640588616522e-01   3.5287682862457426e-01   4.0731462985487721e-01   3.7950166785360867e-01   4.4000500746221982e-01   4.1639335034947061e-01   4.7552808016142173e-01   4.5172854347105484e-01   5.1501188144762955e-01   4.9475219762176309e-01   5.5250598915282212e-01   5.3549216924526144e-01   5.8343614443310132e-01   5.6798674698278762e-01   5.9962395845264227e-01   5.9971052995087870e-01   5.6338549851273190e-01   6.4797756911820514e-01   5.3736142760161842e-01   6.3787245399467196e-01   4.7366343350552848e-01   6.0572054250955876e-01   4.3123548685747770e-01   5.4256594849299855e-01   3.9733321502710944e-01   4.0956948875001009e-01   3.6790170741764222e-01   3.7596602011272884e-01   3.3748740952681078e-01   3.4709844619830571e-01   3.1404254999568570e-01   3.2134544901219242e-01   2.9309018623450794e-01   2.9407477604397969e-01   2.7282959542764279e-01   7.9311137429288817e-02   5.8135963056905333e-02   1.3075786901236178e-01   7.7284616704775141e-02   1.5653410088528483e-01   1.2213488722191572e-01   1.9843016541791397e-01   1.7417597709563665e-01   2.3415628638608377e-01   2.1137340497858151e-01   2.7306696286392163e-01   2.5050647905973095e-01   2.9722689329275431e-01   2.7518367242598701e-01   3.1849433918064346e-01   2.9648548646327344e-01   3.4012254624491634e-01   3.1701981067646551e-01   3.6500556683979407e-01   3.3959530178016234e-01   3.9841954654685735e-01   3.6890972375289272e-01   4.4061157458028422e-01   4.0591620356317698e-01   4.8494115408193117e-01   4.4725830782841741e-01   5.2191943258076556e-01   4.9381247447388549e-01   5.6143099263412610e-01   6.5327553253244708e-01   7.6142191353518751e-01   7.3335736422664966e-01   7.9142673141327535e-01   7.7595898023428367e-01   7.9471294289241001e-01   7.9371108958273995e-01   7.6922327619639697e-01   7.8170303907831018e-01   7.2031755500967187e-01   7.4155745265359552e-01   6.5369304292117170e-01   6.8216212341002258e-01   6.0026792051382916e-01   6.1338861093284103e-01   3.6347096210084856e-01   5.5548303460764537e-01   2.8290180810036608e-01   3.2895734890707284e-01   2.5808188667836413e-01   2.5228702875367498e-01   2.3489264720885225e-01   2.2814049255324978e-01   2.0580268015936296e-01   3.9557830090315035e-02   2.0850561072796630e-02   5.5134625732960872e-02   3.5108552867557513e-02   7.2512687861089484e-02   5.3338647583504276e-02   1.5295353545005974e-01   6.8155234977218745e-02   1.9991156549463360e-01   1.6446352690819990e-01   2.4162930348813100e-01   1.9744575956577265e-01   2.6197661023357610e-01   2.3636435693895833e-01   2.8006318829125265e-01   2.5282593861517211e-01   2.9811192495756345e-01   2.6895951234392274e-01   3.1909397414332474e-01   2.8707433759070078e-01   3.4831248467911202e-01   3.1118820535355862e-01   3.9206217049961412e-01   3.4293557576860545e-01   4.2878178412140128e-01   3.8504973287926847e-01   4.7074436276597892e-01   4.2857212840602438e-01   6.4424647572615823e-01   4.7710860513930858e-01   7.0582478478123412e-01   5.2602958603485539e-01   7.4905783596468378e-01   6.9804703978355831e-01   7.6606497787492811e-01   7.2833241136228222e-01   7.5088635871456333e-01   7.2819369992694627e-01   7.0558899669926545e-01   6.9490465047140193e-01   6.4149167311241728e-01   6.3679604253228284e-01   5.7297045400675473e-01   5.6769506069861175e-01   5.0633400757164837e-01   3.2970923883886222e-01   2.4782225178686038e-01   1.7779337687988228e-01   2.1963373955438911e-01   1.5700296641579758e-01   1.4736059043208111e-01   1.3191788736178595e-01   1.2955699181679298e-01   1.2297391274895644e-01   1.1695832744934088e-01   0.0000000000000000e+00   0.0000000000000000e+00   6.8488344655957692e-03   0.0000000000000000e+00   1.6853937844501097e-02   0.0000000000000000e+00   3.6686685642660040e-02   2.7596119382379005e-03   4.7847547041493209e-02   2.3672288174631444e-02   5.0643335200519030e-02   2.6551800818276676e-02   5.4373398017547550e-02   2.9688506278916307e-02   9.9499070460563513e-02   3.2505884328222746e-02   2.1048926074110366e-01   2.7464490587823492e-02   2.2651969757380938e-01   9.6893459459996875e-02   2.4814664921382407e-01   1.1625418971956704e-01   2.9059226860283988e-01   1.4207987282734114e-01   3.1965646306020834e-01   1.8237852269813434e-01   3.6067721064671132e-01   2.0049017201552455e-01   4.0645361418538328e-01   2.4091271408751830e-01   4.5416075602583250e-01   2.7855903264478282e-01   3.4863695908500242e-01   3.0097791407713359e-01   3.6041524392064528e-01   3.2142952095060573e-01   3.4841179796734245e-01   3.2099100441560746e-01   3.1245955909713119e-01   2.9633719406781600e-01   2.4816421451821838e-01   2.5283741362539408e-01   2.0120831148926485e-01   2.0531911211256501e-01   1.6422617083757388e-01   1.6463090756901883e-01   1.3817350877353224e-01   1.3493981915376826e-01   1.2072954806767236e-01   1.6708859738035406e-01   1.0919649800410666e-01   1.5445920340083708e-01   1.0092357162379401e-01   1.4645529451563066e-01   7.8597842233290915e-02   1.2125216611289294e-01   1.3677724960198390e-01   0.0000000000000000e+00   0.0000000000000000e+00   0.0000000000000000e+00   0.0000000000000000e+00   0.0000000000000000e+00   0.0000000000000000e+00   0.0000000000000000e+00   0.0000000000000000e+00   0.0000000000000000e+00   0.0000000000000000e+00   0.0000000000000000e+00   0.0000000000000000e+00   0.0000000000000000e+00   0.0000000000000000e+00   0.0000000000000000e+00   0.0000000000000000e+00   0.0000000000000000e+00   0.0000000000000000e+00   2.6514794849029254e-02   0.0000000000000000e+00   5.9170390128164205e-02   1.6058457480777277e-02   8.6282940221771603e-02   5.3263068477639827e-02   1.2683561168098520e-01   9.6218041895945017e-02   1.5468775481145874e-01   1.2211338050266897e-01   1.9279357537510800e-01   1.5576826461417850e-01   2.2749744466096281e-01   1.8698348348907831e-01   2.6020858086911824e-01   2.2340293730047650e-01   2.7737003334700983e-01   2.4721555371291917e-01   2.7012232612663450e-01   2.4926330747162131e-01   2.4947930575392913e-01   2.3511072706549352e-01   2.0939739168833876e-01   2.0646970823594718e-01   1.6698376144306773e-01   1.6626365831764722e-01   1.3123353394926257e-01   1.2941020293446512e-01   1.0515937578836276e-01   1.0088263139751572e-01   8.7643011888547673e-02   8.1344637851181414e-02   7.6300636913143455e-02   7.2589351323962520e-02   6.5924327389149814