<?xml version="1.0"?>
<VTKFile type="UnstructuredGrid"  version="0.1"  >
<UnstructuredGrid>
<Piece  NumberOfPoints="611" NumberOfCells="1123">
<Points>
<DataArray  type="Float64"  NumberOfComponents="3"  format="ascii">1.883478260869565 0.01666666666666667 0  1.9 0.01666666666666667 0  1.9 0.03333333333333333 0  1.883478260869565 0.03333333333333333 0  1.916521739130435 0.03333333333333333 0  1.9 0.05 0  1.883478260869565 0.05 0  1.916521739130435 0.05 0  1.933043478260869 0.05 0  1.9 0.06666666666666667 0  1.883478260869565 0.06666666666666667 0  1.916521739130435 0.06666666666666667 0  1.933043478260869 0.06666666666666667 0  1.949565217391304 0.06666666666666667 0  1.9 0.08333333333333333 0  1.883478260869565 0.08333333333333333 0  1.916521739130435 0.08333333333333333 0  1.933043478260869 0.08333333333333333 0  1.949565217391304 0.08333333333333333 0  1.966086956521739 0.08333333333333333 0  1.9 0.1 0  1.883478260869565 0.1 0  1.916521739130435 0.1 0  1.933043478260869 0.1 0  1.949565217391304 0.1 0  1.966086956521739 0.1 0  1.982608695652174 0.1 0  1.9 0.1166666666666667 0  1.883478260869565 0.1166666666666667 0  1.916521739130435 0.1166666666666667 0  1.933043478260869 0.1166666666666667 0  1.949565217391304 0.1166666666666667 0  1.966086956521739 0.1166666666666667 0  1.982608695652174 0.1166666666666667 0  1.999130434782608 0.1166666666666667 0  1.9 0.1333333333333333 0  1.883478260869565 0.1333333333333333 0  1.916521739130435 0.1333333333333333 0  1.933043478260869 0.1333333333333333 0  1.949565217391304 0.1333333333333333 0  1.966086956521739 0.1333333333333333 0  1.982608695652174 0.1333333333333333 0  1.999130434782608 0.1333333333333333 0  2.015652173913043 0.1166666666666667 0  2.015652173913043 0.1333333333333333 0  2.032173913043478 0.1166666666666667 0  2.032173913043478 0.1333333333333333 0  2.048695652173913 0.1166666666666667 0  2.048695652173913 0.1333333333333333 0  2.065217391304348 0.1166666666666667 0  2.065217391304348 0.1333333333333333 0  2.081739130434782 0.1166666666666667 0  2.081739130434782 0.1333333333333333 0  2.098260869565217 0.1333333333333333 0  1.9 0.15 0  1.883478260869565 0.15 0  1.916521739130435 0.15 0  1.933043478260869 0.15 0  1.949565217391304 0.15 0  1.966086956521739 0.15 0  1.982608695652174 0.15 0  1.999130434782608 0.15 0  2.015652173913043 0.15 0  2.032173913043478 0.15 0  2.048695652173913 0.15 0  2.065217391304348 0.15 0  2.081739130434782 0.15 0  2.098260869565217 0.15 0  2.114782608695652 0.15 0  1.9 0.1666666666666667 0  1.883478260869565 0.1666666666666667 0  1.916521739130435 0.1666666666666667 0  1.933043478260869 0.1666666666666667 0  1.949565217391304 0.1666666666666667 0  1.966086956521739 0.1666666666666667 0  1.982608695652174 0.1666666666666667 0  1.999130434782608 0.1666666666666667 0  2.015652173913043 0.1666666666666667 0  2.032173913043478 0.1666666666666667 0  2.048695652173913 0.1666666666666667 0  2.065217391304348 0.1666666666666667 0  2.081739130434782 0.1666666666666667 0  2.098260869565217 0.1666666666666667 0  2.114782608695652 0.1666666666666667 0  2.131304347826087 0.1666666666666667 0  1.9 0.1833333333333333 0  1.883478260869565 0.1833333333333333 0  1.916521739130435 0.1833333333333333 0  1.933043478260869 0.1833333333333333 0  1.949565217391304 0.1833333333333333 0  1.966086956521739 0.1833333333333333 0  1.982608695652174 0.1833333333333333 0  1.999130434782608 0.1833333333333333 0  2.015652173913043 0.1833333333333333 0  2.032173913043478 0.1833333333333333 0  2.048695652173913 0.1833333333333333 0  2.065217391304348 0.1833333333333333 0  2.081739130434782 0.1833333333333333 0  2.098260869565217 0.1833333333333333 0  2.114782608695652 0.1833333333333333 0  2.131304347826087 0.1833333333333333 0  2.147826086956522 0.1833333333333333 0  1.9 0.2 0  1.883478260869565 0.2 0  1.916521739130435 0.2 0  1.933043478260869 0.2 0  1.949565217391304 0.2 0  1.966086956521739 0.2 0  1.982608695652174 0.2 0  1.999130434782608 0.2 0  2.015652173913043 0.2 0  2.032173913043478 0.2 0  2.048695652173913 0.2 0  2.065217391304348 0.2 0  2.081739130434782 0.2 0  2.098260869565217 0.2 0  2.114782608695652 0.2 0  2.131304347826087 0.2 0  2.147826086956522 0.2 0  2.164347826086956 0.2 0  1.9 0.2166666666666667 0  1.883478260869565 0.2166666666666667 0  1.916521739130435 0.2166666666666667 0  1.933043478260869 0.2166666666666667 0  1.949565217391304 0.2166666666666667 0  1.966086956521739 0.2166666666666667 0  1.982608695652174 0.2166666666666667 0  1.999130434782608 0.2166666666666667 0  2.015652173913043 0.2166666666666667 0  2.032173913043478 0.2166666666666667 0  2.048695652173913 0.2166666666666667 0  2.065217391304348 0.2166666666666667 0  2.081739130434782 0.2166666666666667 0  2.098260869565217 0.2166666666666667 0  2.114782608695652 0.2166666666666667 0  2.131304347826087 0.2166666666666667 0  2.147826086956522 0.2166666666666667 0  2.164347826086956 0.2166666666666667 0  2.180869565217391 0.2166666666666667 0  1.9 0.2333333333333333 0  1.883478260869565 0.2333333333333333 0  1.916521739130435 0.2333333333333333 0  1.933043478260869 0.2333333333333333 0  1.949565217391304 0.2333333333333333 0  1.966086956521739 0.2333333333333333 0  1.982608695652174 0.2333333333333333 0  1.999130434782608 0.2333333333333333 0  2.015652173913043 0.2333333333333333 0  2.032173913043478 0.2333333333333333 0  2.048695652173913 0.2333333333333333 0  2.065217391304348 0.2333333333333333 0  2.081739130434782 0.2333333333333333 0  2.098260869565217 0.2333333333333333 0  2.114782608695652 0.2333333333333333 0  2.131304347826087 0.2333333333333333 0  2.147826086956522 0.2333333333333333 0  2.164347826086956 0.2333333333333333 0  2.180869565217391 0.2333333333333333 0  2.197391304347826 0.2333333333333333 0  1.9 0.25 0  1.916521739130435 0.25 0  1.933043478260869 0.25 0  1.949565217391304 0.25 0  1.966086956521739 0.25 0  1.982608695652174 0.25 0  1.999130434782608 0.25 0  2.015652173913043 0.25 0  2.032173913043478 0.25 0  2.048695652173913 0.25 0  2.065217391304348 0.25 0  2.081739130434782 0.25 0  2.098260869565217 0.25 0  2.114782608695652 0.25 0  2.131304347826087 0.25 0  2.147826086956522 0.25 0  2.164347826086956 0.25 0  2.180869565217391 0.25 0  2.197391304347826 0.25 0  2.213913043478261 0.25 0  1.916521739130435 0.2666666666666667 0  1.9 0.2666666666666667 0  1.933043478260869 0.2666666666666667 0  1.949565217391304 0.2666666666666667 0  1.966086956521739 0.2666666666666667 0  1.982608695652174 0.2666666666666667 0  1.999130434782608 0.2666666666666667 0  2.015652173913043 0.2666666666666667 0  2.032173913043478 0.2666666666666667 0  2.048695652173913 0.2666666666666667 0  2.065217391304348 0.2666666666666667 0  2.081739130434782 0.2666666666666667 0  2.098260869565217 0.2666666666666667 0  2.114782608695652 0.2666666666666667 0  2.131304347826087 0.2666666666666667 0  2.147826086956522 0.2666666666666667 0  2.164347826086956 0.2666666666666667 0  2.180869565217391 0.2666666666666667 0  2.197391304347826 0.2666666666666667 0  2.213913043478261 0.2666666666666667 0  2.230434782608695 0.25 0  2.230434782608695 0.2666666666666667 0  2.24695652173913 0.2666666666666667 0  1.916521739130435 0.2833333333333333 0  1.9 0.2833333333333333 0  1.933043478260869 0.2833333333333333 0  1.949565217391304 0.2833333333333333 0  1.966086956521739 0.2833333333333333 0  1.982608695652174 0.2833333333333333 0  1.999130434782608 0.2833333333333333 0  2.015652173913043 0.2833333333333333 0  2.032173913043478 0.2833333333333333 0  2.048695652173913 0.2833333333333333 0  2.065217391304348 0.2833333333333333 0  2.081739130434782 0.2833333333333333 0  2.098260869565217 0.2833333333333333 0  2.114782608695652 0.2833333333333333 0  2.131304347826087 0.2833333333333333 0  2.147826086956522 0.2833333333333333 0  2.164347826086956 0.2833333333333333 0  2.180869565217391 0.2833333333333333 0  2.197391304347826 0.2833333333333333 0  2.213913043478261 0.2833333333333333 0  2.230434782608695 0.2833333333333333 0  2.24695652173913 0.2833333333333333 0  2.263478260869565 0.2833333333333333 0  1.916521739130435 0.3 0  1.9 0.3 0  1.933043478260869 0.3 0  1.949565217391304 0.3 0  1.966086956521739 0.3 0  1.982608695652174 0.3 0  1.999130434782608 0.3 0  2.015652173913043 0.3 0  2.032173913043478 0.3 0  2.048695652173913 0.3 0  2.065217391304348 0.3 0  2.081739130434782 0.3 0  2.098260869565217 0.3 0  2.114782608695652 0.3 0  2.131304347826087 0.3 0  2.147826086956522 0.3 0  2.164347826086956 0.3 0  2.180869565217391 0.3 0  2.197391304347826 0.3 0  2.213913043478261 0.3 0  2.230434782608695 0.3 0  2.24695652173913 0.3 0  2.263478260869565 0.3 0  2.28 0.3 0  1.916521739130435 0.3166666666666667 0  1.9 0.3166666666666667 0  1.933043478260869 0.3166666666666667 0  1.949565217391304 0.3166666666666667 0  1.966086956521739 0.3166666666666667 0  1.982608695652174 0.3166666666666667 0  1.999130434782608 0.3166666666666667 0  2.015652173913043 0.3166666666666667 0  2.032173913043478 0.3166666666666667 0  2.048695652173913 0.3166666666666667 0  2.065217391304348 0.3166666666666667 0  2.081739130434782 0.3166666666666667 0  2.098260869565217 0.3166666666666667 0  2.114782608695652 0.3166666666666667 0  2.131304347826087 0.3166666666666667 0  2.147826086956522 0.3166666666666667 0  2.164347826086956 0.3166666666666667 0  2.180869565217391 0.3166666666666667 0  2.197391304347826 0.3166666666666667 0  2.213913043478261 0.3166666666666667 0  2.230434782608695 0.3166666666666667 0  2.24695652173913 0.3166666666666667 0  2.263478260869565 0.3166666666666667 0  2.28 0.3166666666666667 0  2.296521739130434 0.3166666666666667 0  1.916521739130435 0.3333333333333333 0  1.9 0.3333333333333333 0  1.933043478260869 0.3333333333333333 0  1.949565217391304 0.3333333333333333 0  1.966086956521739 0.3333333333333333 0  1.982608695652174 0.3333333333333333 0  1.999130434782608 0.3333333333333333 0  2.015652173913043 0.3333333333333333 0  2.032173913043478 0.3333333333333333 0  2.048695652173913 0.3333333333333333 0  2.06521739
[...]
<PointData  Vectors="Displacement"> 
<DataArray  type="Float64"  Name="Displacement"  NumberOfComponents="3" format="ascii">1.9907665854143551e-04 1.8810233340479305e-03 0.0000000000000000e+00  1.9906095354744734e-04 1.9019085765901035e-03 0.0000000000000000e+00  1.7820935839258671e-04 1.9019148365002488e-03 0.0000000000000000e+00  1.7755610769035202e-04 1.8809625289683866e-03 0.0000000000000000e+00  1.7868519751262433e-04 1.9220438402948632e-03 0.0000000000000000e+00  1.5770614117824146e-04 1.9018374291721893e-03 0.0000000000000000e+00  1.5644870083253391e-04 1.8807161639624911e-03 0.0000000000000000e+00  1.5859923755379634e-04 1.9220896718994043e-03 0.0000000000000000e+00  1.5920216434923872e-04 1.9415300865150533e-03 0.0000000000000000e+00  1.3788909991854575e-04 1.9017221068482063e-03 0.0000000000000000e+00  1.3603339104398921e-04 1.8802821964487508e-03 0.0000000000000000e+00  1.3917428195396058e-04 1.9222254517035182e-03 0.0000000000000000e+00  1.3991688987373193e-04 1.9417627897970352e-03 0.0000000000000000e+00  1.4036158325599199e-04 1.9604406604328975e-03 0.0000000000000000e+00  1.1855216260436915e-04 1.9012776350095626e-03 0.0000000000000000e+00  1.1797462462617188e-04 1.8781124637112226e-03 0.0000000000000000e+00  1.2100120190349548e-04 1.9226039734106454e-03 0.0000000000000000e+00  1.2160982902466624e-04 1.9422860048399532e-03 0.0000000000000000e+00  1.2192224475525070e-04 1.9607937966201901e-03 0.0000000000000000e+00  1.2207085326669122e-04 1.9787020688917167e-03 0.0000000000000000e+00  1.0292025110216448e-04 1.8996555004801934e-03 0.0000000000000000e+00  1.0156655060807146e-04 1.8757806755578634e-03 0.0000000000000000e+00  1.0377100431450692e-04 1.9232401980927281e-03 0.0000000000000000e+00  1.0446278114018378e-04 1.9433164362917560e-03 0.0000000000000000e+00  1.0459089637210448e-04 1.9614195568535588e-03 0.0000000000000000e+00  1.0466831600633759e-04 1.9788882690591077e-03 0.0000000000000000e+00  1.0470253202554780e-04 1.9960341060353717e-03 0.0000000000000000e+00  8.7294323401704947e-05 1.8977053759983195e-03 0.0000000000000000e+00  8.5568263678849376e-05 1.8733473765178102e-03 0.0000000000000000e+00  8.8641645171347127e-05 1.9221003356485239e-03 0.0000000000000000e+00  8.8712354303521635e-05 1.9451776081796206e-03 0.0000000000000000e+00  8.8452443101802753e-05 1.9623620682189796e-03 0.0000000000000000e+00  8.8414597204468303e-05 1.9791978437878983e-03 0.0000000000000000e+00  8.8480333718029861e-05 1.9957669249463148e-03 0.0000000000000000e+00  8.8624356995782637e-05 2.0118223600262036e-03 0.0000000000000000e+00  7.1171833745794084e-05 1.8954951089001529e-03 0.0000000000000000e+00  6.9425060758306311e-05 1.8708360143685242e-03 0.0000000000000000e+00  7.2884812042194096e-05 1.9210518923815647e-03 0.0000000000000000e+00  7.3525638655467566e-05 1.9478187131614340e-03 0.0000000000000000e+00  7.3064570979737968e-05 1.9634712308334891e-03 0.0000000000000000e+00  7.3018674277648498e-05 1.9796342532404695e-03 0.0000000000000000e+00  7.3092592177329617e-05 1.9956652820129674e-03 0.0000000000000000e+00  7.3233612679180456e-05 2.0112265384799235e-03 0.0000000000000000e+00  8.8826317031940474e-05 2.0267260365771896e-03 0.0000000000000000e+00  7.3373397597029495e-05 2.0259196577370481e-03 0.0000000000000000e+00  8.9796044662865331e-05 2.0452371425337223e-03 0.0000000000000000e+00  7.3439728882888168e-05 2.0397998315843774e-03 0.0000000000000000e+00  9.1051996880954161e-05 2.0653587685188859e-03 0.0000000000000000e+00  7.4902857835007979e-05 2.0608895761059366e-03 0.0000000000000000e+00  9.2104101721086521e-05 2.0857761068904302e-03 0.0000000000000000e+00  7.6166976941703982e-05 2.0812055693042852e-03 0.0000000000000000e+00  9.3102393305717548e-05 2.1072417484004559e-03 0.0000000000000000e+00  7.7368885377035259e-05 2.1025553373780373e-03 0.0000000000000000e+00  7.8565918294958958e-05 2.1248948125083744e-03 0.0000000000000000e+00  5.4594579934630245e-05 1.8930362891552675e-03 0.0000000000000000e+00  5.3151384522149500e-05 1.8683443891317154e-03 0.0000000000000000e+00  5.6115499329048575e-05 1.9188487065479644e-03 0.0000000000000000e+00  5.8603550680485527e-05 1.9487177269132904e-03 0.0000000000000000e+00  5.8543835986030392e-05 1.9646106269496674e-03 0.0000000000000000e+00  5.8368531631203728e-05 1.9801320660377437e-03 0.0000000000000000e+00  5.8401587075519924e-05 1.9957274885418243e-03 0.0000000000000000e+00  5.8523387121572966e-05 2.0109273438458997e-03 0.0000000000000000e+00  5.8664158341485668e-05 2.0254387169608514e-03 0.0000000000000000e+00  5.8749628355432603e-05 2.0392579391657032e-03 0.0000000000000000e+00  5.9094521016635624e-05 2.0565338118802858e-03 0.0000000000000000e+00  6.0599699723026218e-05 2.0761450837491306e-03 0.0000000000000000e+00  6.1999624332113745e-05 2.0974155498628354e-03 0.0000000000000000e+00  6.3338826489131022e-05 2.1195218958611857e-03 0.0000000000000000e+00  6.4772432717201300e-05 2.1425777991387774e-03 0.0000000000000000e+00  3.8370176948960394e-05 1.8903762415266195e-03 0.0000000000000000e+00  3.7170017549015136e-05 1.8658898585863035e-03 0.0000000000000000e+00  3.9655762667265224e-05 1.9155676340950698e-03 0.0000000000000000e+00  4.1426492400614294e-05 1.9419376468968238e-03 0.0000000000000000e+00  4.3961099171239120e-05 1.9651822553612137e-03 0.0000000000000000e+00  4.4017075734398213e-05 1.9806187049066682e-03 0.0000000000000000e+00  4.4137658867506209e-05 1.9959252521121471e-03 0.0000000000000000e+00  4.4298213518712498e-05 2.0108649250259419e-03 0.0000000000000000e+00  4.4452033196694533e-05 2.0251956932434067e-03 0.0000000000000000e+00  4.4530672713189369e-05 2.0388679450695645e-03 0.0000000000000000e+00  4.4544967990749432e-05 2.0518185987630413e-03 0.0000000000000000e+00  4.5866433323751478e-05 2.0704663298929437e-03 0.0000000000000000e+00  4.7182249552751202e-05 2.0919278730177652e-03 0.0000000000000000e+00  4.8511069010322153e-05 2.1137465461637805e-03 0.0000000000000000e+00  5.0037217512536305e-05 2.1363503277516019e-03 0.0000000000000000e+00  5.1809563418854396e-05 2.1600348715700960e-03 0.0000000000000000e+00  2.2843952652772076e-05 1.8875603994599065e-03 0.0000000000000000e+00  2.1720910768242943e-05 1.8634343990783452e-03 0.0000000000000000e+00  2.4120513450002661e-05 1.9120008227713589e-03 0.0000000000000000e+00  2.5780570596445517e-05 1.9365966426948267e-03 0.0000000000000000e+00  2.7918612198697880e-05 1.9594934973234624e-03 0.0000000000000000e+00  2.9862617864006757e-05 1.9809801603368846e-03 0.0000000000000000e+00  3.0192921525317326e-05 1.9961656558016351e-03 0.0000000000000000e+00  3.0511697804119639e-05 2.0109541400482223e-03 0.0000000000000000e+00  3.0793551181874137e-05 2.0251274109232393e-03 0.0000000000000000e+00  3.1007461633317276e-05 2.0386554014049500e-03 0.0000000000000000e+00  3.1085843690057926e-05 2.0515198965047050e-03 0.0000000000000000e+00  3.1050294437407868e-05 2.0638072613553037e-03 0.0000000000000000e+00  3.2612664730345792e-05 2.0863322535786344e-03 0.0000000000000000e+00  3.3984437514410164e-05 2.1076729170679915e-03 0.0000000000000000e+00  3.5612298699729871e-05 2.1296649428995335e-03 0.0000000000000000e+00  3.7558870263642442e-05 2.1527447590398343e-03 0.0000000000000000e+00  3.9694104095723852e-05 2.1774051004862429e-03 0.0000000000000000e+00  7.9121635272004967e-06 1.8846491673273624e-03 0.0000000000000000e+00  6.7923190879800083e-06 1.8609619372732045e-03 0.0000000000000000e+00  9.2306687371859949e-06 1.9083905153434646e-03 0.0000000000000000e+00  1.0871490245986293e-05 1.9319292119829303e-03 0.0000000000000000e+00  1.2838789752148951e-05 1.9544141760681542e-03 0.0000000000000000e+00  1.4795663857547191e-05 1.9758758099859990e-03 0.0000000000000000e+00  1.6500796865212191e-05 1.9963076460861426e-03 0.0000000000000000e+00  1.7103217269614767e-05 2.0111111780275475e-03 0.0000000000000000e+00  1.7649920150989877e-05 2.0251700924080610e-03 0.0000000000000000e+00  1.8060808175204571e-05 2.0385475008956049e-03 0.0000000000000000e+00  1.8366287668037235e-05 2.0513915956088453e-03 0.0000000000000000e+00  1.8509199516248149e-05 2.0637683760786930e-03 0.0000000000000000e+00  1.8603554726794235e-05 2.0810581266477316e-03 0.0000000000000000e+00  1.9973986887356426e-05 2.1013538163469864e-03 0.0000000000000000e+00  2.1628719148044500e-05 2.1225313654457327e-03 0.0000000000000000e+00  2.3704221471082886e-05 2.1448152107387407e-03 0.0000000000000000e+00  2.5965244551183089e-05 2.1691123449238347e-03 0.0000000000000000e+00  2.8247346217503284e-05 2.1951595191122305e-03 0.0000000000000000e+00  -6.5660719090776257e-06 1.8817064946009408e-03 0.0000000000000000e+00  -7.7009244695809782e-06 1.8584848500445891e-03 0.0000000000000000e+00  -5.2056364739291124e-06 1.9048309056560204e-03 0.0000000000000000e+00  -3.5519418402437697e-06 1.9276378258989515e-03 0.0000000000000000e+00  -1.6155654157566205e-06 1.9497043665209529e-03 0.0000000000000000e+00  4.5046942540394876e-07 1.9709848303105701e-03 0.0000000000000000e+00  2.5532397035652692e-06 1.9914845899821061e-03 0.0000000000000000e+00  4.7179413618248506e-06 2.0114579687491641e-03 0.0000000000000000e+00  5.2388587627414046e-06 2.0253487458471277e-03 0.0000000000000000e+00  5.6721681270802985e-06 2.0385208999795313e-03 0.0000000000000000e+00  6.0803231842604079e-06 2.0512780554616792e-03 0.0000000000000000e+00  6.4270885267950293e-06 2.0637354143689928e-03 0.0000000000000000e+00  6.6523714781405466e-06 2.0760140143176132e-03 0.0000000000000000e+00  7.1885622846813906e-06 2.0949012239895584e-03 0.0000000000000000e+00  8.3463389638112712e-06 2.1150377043979581e-03 0.0000000000000000e+00  1.0344119832818510e-05 2.1361591235916962e-03 0.0000000000000000e+00  1.2596071084123250e-05 2.1601954442888927e-03 0.0000000000000000e+00  1.4834523837929106e-05 2.1861826361419903e-03 0.0000000000000000e+00  1.7039401243387346e-05 2.2137257867702676e-03 0.0000000000000000e+00  -2.0718223155029558e-05 1.8787871567901787e-03 0.0000000000000000e+00  -2.1855102426611097e-05 1.8560297198560293e-03 0.0000000000000000e+00  -1.9343541857385110e-05 1.9013670782208779e-03 0.0000000000000000e+00  -1.7694655535168205e-05 1.9236031870391479e-03 0.0000000000000000e+00  -1.5784120023981591e-05 1.9452635059468825e-03 0.0000000000000000e+00  -1.3690063108479066e-05 1.9662835769313257e-03 0.0000000000000000e+00  -1.1468623335606250e-05 1.9866486474090280e-03 0.0000000000000000e+00  -9.1281489121479100e-06 2.0064404225292047e-03 0.0000000000000000e+00  -6.5986357803016500e-06 2.0256596367935111e-03 0.0000000000000000e+00  -6.2461947678494595e-06 2.0386501205598884e-03 0.0000000000000000e+00  -5.9032353830722703e-06 2.0512191531052949e-03 0.0000000000000000e+00  -5.5173406299248655e-06 2.0636476712752433e-03 0.0000000000000000e+00  -5.1504974948783025e-06 2.0760775275140983e-03 0.0000000000000000e+00  -4.8537378563238570e-06 2.0885900051575701e-03 0.0000000000000000e+00  -4.4410129905642978e-06 2.1074555534646754e-03 0.0000000000000000e+00  -2.6835048783629925e-06 2.1265751388948387e-03 0.0000000000000000e+00  -5.5000915806061940e-07 2.1506706941187242e-03 0.0000000000000000e+00  1.5269567079530685e-06 2.1767368364681450e-03 0.0000000000000000e+00  3.5920864616185642e-06 2.2043367092014960e-03 0.0000000000000000e+00  5.6645964466862601e-06 2.2332877007803552e-03 0.0000000000000000e+00  -3.4640516668960037e-05 1.8759350764809574e-03 0.0000000000000000e+00  -3.3287962273691524e-05 1.8980281656439120e-03 0.0000000000000000e+00  -3.1676302536732191e-05 1.9197836087010622e-03 0.0000000000000000e+00  -2.9816925017791819e-05 1.9410600548070251e-03 0.0000000000000000e+00  -2.7754111458906627e-05 1.9617939808365759e-03 0.0000000000000000e+00  -2.5526007548099758e-05 1.9819565880275390e-03 0.0000000000000000e+00  -2.3150498573955968e-05 2.0015573900984021e-03 0.0000000000000000e+00  -2.0615867055416727e-05 2.0205607238020494e-03 0.0000000000000000e+00  -1.7914261690364208e-05 2.0388542869871919e-03 0.0000000000000000e+00  -1.7675712544376807e-05 2.0512777957155236e-03 0.0000000000000000e+00  -1.7432254015488719e-05 2.0635533559917908e-03 0.0000000000000000e+00  -1.7086306140374883e-05 2.0760403745768660e-03 0.0000000000000000e+00  -1.6713564160409761e-05 2.0887475879836160e-03 0.0000000000000000e+00  -1.6356112585889041e-05 2.1017488348099279e-03 0.0000000000000000e+00  -1.5957072227095249e-05 2.1153732312292708e-03 0.0000000000000000e+00  -1.3817042621996297e-05 2.1405755483279139e-03 0.0000000000000000e+00  -1.1923882243748076e-05 2.1668747650754492e-03 0.0000000000000000e+00  -1.0015024184449516e-05 2.1945746907444373e-03 0.0000000000000000e+00  -8.0641117575184695e-06 2.2236061666903004e-03 0.0000000000000000e+00  -6.0875995354848523e-06 2.2538936297650642e-03 0.0000000000000000e+00  -4.7107902063943475e-05 1.8948362454839825e-03 0.0000000000000000e+00  -4.8400960645684186e-05 1.8731845615732141e-03 0.0000000000000000e+00  -4.5569184811078066e-05 1.9161680949808548e-03 0.0000000000000000e+00  -4.3794140362612959e-05 1.9370850012747369e-03 0.0000000000000000e+00  -4.1809711873811945e-05 1.9575300748009236e-03 0.0000000000000000e+00  -3.9642565660171689e-05 1.9774689150174984e-03 0.0000000000000000e+00  -3.7312077109276264e-05 1.9968840684653480e-03 0.0000000000000000e+00  -3.4830463913241329e-05 2.0157346691632000e-03 0.0000000000000000e+00  -3.2226087667007042e-05 2.0339346512738333e-03 0.0000000000000000e+00  -2.9569254068843842e-05 2.0513409728207819e-03 0.0000000000000000e+00  -2.9490217033720040e-05 2.0634773052578426e-03 0.0000000000000000e+00  -2.9271203314582494e-05 2.0759492111849156e-03 0.0000000000000000e+00  -2.8940337594685538e-05 2.0887667506982155e-03 0.0000000000000000e+00  -2.8544488187797225e-05 2.1019861264060988e-03 0.0000000000000000e+00  -2.8115560689289073e-05 2.1156882570651232e-03 0.0000000000000000e+00  -2.7657730107862805e-05 2.1301080847553194e-03 0.0000000000000000e+00  -2.5775929154212266e-05 2.1566224577171909e-03 0.0000000000000000e+00  -2.3943449058785532e-05 2.1844423933488175e-03 0.0000000000000000e+00  -2.2085657749575769e-05 2.2135671426704961e-03 0.0000000000000000e+00  -2.0198270393130136e-05 2.2439889281602537e-03 0.0000000000000000e+00  -4.1153948666416387e-06 2.2853323788004426e-03 0.0000000000000000e+00  -1.8315481604283058e-05 2.2756173068532505e-03 0.0000000000000000e+00  -1.6506016458439677e-05 2.3083570121900394e-03 0.0000000000000000e+00  -6.0848844975943901e-05 1.8918100233443649e-03 0.0000000000000000e+00  -6.2046044617401755e-05 1.8705627445194677e-03 0.0000000000000000e+00  -5.9419572586306807e-05 1.9127590753727577e-03 0.0000000000000000e+00  -5.7765489977029510e-05 1.9333401403094570e-03 0.0000000000000000e+00  -5.5903466430432970e-05 1.9535036448507289e-03 0.0000000000000000e+00  -5.3851424776395146e-05 1.9732150969117251e-03 0.0000000000000000e+00  -5.1624933150095408e-05 1.9924506392731446e-03 0.0000000000000000e+00  -4.9239719848544970e-05 2.0111794810345213e-03 0.0000000000000000e+00  -4.6728617060241612e-05 2.0293541625315179e-03 0.0000000000000000e+00  -4.4179033531124964e-05 2.0468853812825281e-03 0.0000000000000000e+00  -4.1873948250261634e-05 2.0633953923583784e-03 0.0000000000000000e+00  -4.1822748510608164e-05 2.0758247977092008e-03 0.0000000000000000e+00  -4.1617104954823483e-05 2.0886842945933453e-03 0.0000000000000000e+00  -4.1284825248936786e-05 2.1020456250787677e-03 0.0000000000000000e+00  -4.0854821778591125e-05 2.1159805359983186e-03 0.0000000000000000e+00  -4.0337918030400603e-05 2.1305853697136056e-03 0.0000000000000000e+00  -3.9831370814564471e-05 2.1459823860565000e-03 0.0000000000000000e+00  -3.8158381151136311e-05 2.1739399421378284e-03 0.0000000000000000e+00  -3.6446803819590021e-05 2.2031540411001109e-03 0.0000000000000000e+00  -3.4669284457991358e-05 2.2337319399648413e-03 0.0000000000000000e+00  -3.2873404441739839e-05 2.2655998434154699e-03 0.0000000000000000e+00  -3.1202487827571697e-05 2.2987297673177261e-03 0.0000000000000000e+00  -2.9654213387263972e-05 2.3326231358078544e-03 0.0000000000000000e+00  -7.4539593612806722e-05 1.8889667065929115e-03 0.0000000000000000e+00  -7.5605835062549713e-05 1.8680918360597311e-03 0.0000000000000000e+00  -7.3256665475303882e-05 1.9095659461489652e-03 0.0000000000000000e+00  -7.1762780214285928e-05 1.9298344783363500e-03 0.0000000000000000e+00  -7.0068544383255401e-05 1.9497288605110766e-03 0.0000000000000000e+00  -6.8184899011426565e-05 1.9692166203137637e-03 0.0000000000000000e+00  -6.6120875429858105e-05 1.9882747472829876e-03 0.0000000000000000e+00  -6.3884489439790441e-05 2.0068845131570334e-03 0.0000000000000000e+00  -6.1489574198871373e-05 2.0250342385009557e-03 0.0000000000000000e+00  -5.8969568443034936e-05 2.0427321178423776e-03 0.0000000000000000e+00  -5.6420672754718855e-05 2.0600395459882976e-03 0.0000000000000000e+00  -5.4785757327826385e-05 2.0756838924210425e-03 0.0000000000000000e+00  -5.4800127605112644e-05 2.0885272931038799e-03 0.0000000000000000e+00  -5.4630420559262332e-05 2.1019680911357648e-03 0.0000000000000000e+00  -5.4311265250094461e-05 2.1160690694715188e-03 0.0000000000000000e+00  -5.3868876405046076e-05 2.1308937672348941e-03 0.0000000000000000e+00  -5.3318253346607710e-05 2.1465023878510224e-03 0.0000000000000000e+00  -5.2624490620035886e-05 2.1631703640292220e-03 0.0000000000000000e+00  -5.1234115435706564e-05 2.1923806367495934e-03 0.0000000000000000e+00  -4.9622294615105322e-05 2.2230947605609923e-03 0.0000000000000000e+00  -4.7894162066557534e-05 2.2552322435759106e-03 0.0000000000000000e+00  -4.6375114673036274e-05 2.2889640290910144e-03 0.0000000000000000e+00  -4.5051324266958607e-05 2.3233148271521254e-03 0.0000000000000000e+00  -4.3724784728893347e-05 2.3578511794090824e-03 0.0000000000000000e+00  -8.8195535352071395e-05 1.8863227658061283e-03 0.0000000000000000e+00  -8.9097109744963040e-05 1.8657905998703591e-03 0.0000000000000000e+00  -8.7095922451630088e-05 1.9066022441355014e-03 0.0000000000000000e+00  -8.5803582884613018e-05 1.9265827272631252e-03 0.0000000000000000e+00  -8.4325881280840218e-05 1.9462252568648087e-03 0.0000000000000000e+00  -8.2669663852657366e-05 1.9654996336631531e-03 0.0000000000000000e+00  -8.0839808475886678e-05 1.9843853060101599e-03 0.0000000000000000e+00  -7.8839274207405583e-05 2.0028722706311405e-03 0.0000000000000000e+00  -7.6670874269136249e-05 2.0209697399468460e-03 0.0000000000000000e+00  -7.4336961210848262e-05 2.0387328840269863e-03 0.0000000000000000e+00  -7.1820868825078871e-05 2.0563621436630120e-03 0.0000000000000000e+00  -6.8894257704404116e-05 2.0747885786976689e-03 0.0000000000000000e+00  -6.8545648903711081e-05 2.0883235848312932e-03 0.0000000000000000e+00  -6.8623797496604545e-05 2.1017836527559043e-03 0.0000000000000000e+00  -6.8494326887590250e-05 2.1159987293076330e-03 0.0000000000000000e+00  -6.8202986424002222e-05 2.1310091968983805e-03 0.0000000000000000e+00  -6.7799285781648989e-05 2.1468717355649812e-03 0.0000000000000000e+00  -6.7301084279246273e-05 2.1635886607779763e-03 0.0000000000000000e+00  -6.6735644960796593e-05 2.1812611565974953e-03 0.0000000000000000e+00  -6.5299292309523726e-05 2.2120205932969145e-03 0.0000000000000000e+00  -6.3549280906432552e-05 2.2443920613247439e-03 0.0000000000000000e+00  -6.2173924691710059e-05 2.2791221840291775e-03 0.0000000000000000e+00  -6.1100500236262753e-05 2.3140889160631595e-03 0.0000000000000000e+00  -5.9983723252540768e-05 2.3488107532269745e-03 0.0000000000000000e+00  -5.8589889325082513e-05 2.3833876531996669e-03 0.0000000000000000e+00  -1.0181977790699785e-04 1.8838936527312399e-03 0.0000000000000000e+00  -1.0252509093346642e-04 1.8636748924880343e-03 0.0000000000000000e+00  -1.0093915734753972e-04 1.9038833467163953e-03 0.0000000000000000e+00  -9.9889468979303951e-05 1.9236028505108123e-03 0.0000000000000000e+00  -9.8677297339117091e-05 1.9430160866088064e-03 0.0000000000000000e+00  -9.7308184956644222e-05 1.9620946790161404e-03 0.0000000000000000e+00  -9.5786121019967275e-05 1.9808204993625486e-03 0.0000000000000000e+00  -9.4114044068763206e-05 1.9991891928629268e-03 0.0000000000000