<?xml version="1.0"?>
<VTKFile type="UnstructuredGrid"  version="0.1"  >
<UnstructuredGrid>
<Piece  NumberOfPoints="614" NumberOfCells="1122">
<Points>
<DataArray  type="Float64"  NumberOfComponents="3"  format="ascii">2.792173913043478 0.2166666666666667 0  2.792173913043478 0.2333333333333333 0  2.808695652173913 0.2333333333333333 0  2.445217391304348 0.2333333333333333 0  2.461739130434782 0.2333333333333333 0  2.461739130434782 0.25 0  2.445217391304348 0.25 0  2.478260869565217 0.2333333333333333 0  2.478260869565217 0.25 0  2.494782608695652 0.2333333333333333 0  2.494782608695652 0.25 0  2.511304347826087 0.2333333333333333 0  2.511304347826087 0.25 0  2.527826086956522 0.2333333333333333 0  2.527826086956522 0.25 0  2.544347826086956 0.2333333333333333 0  2.544347826086956 0.25 0  2.560869565217391 0.2333333333333333 0  2.560869565217391 0.25 0  2.577391304347826 0.2333333333333333 0  2.577391304347826 0.25 0  2.593913043478261 0.2333333333333333 0  2.593913043478261 0.25 0  2.610434782608696 0.2333333333333333 0  2.610434782608696 0.25 0  2.62695652173913 0.2333333333333333 0  2.62695652173913 0.25 0  2.643478260869565 0.2333333333333333 0  2.643478260869565 0.25 0  2.66 0.2333333333333333 0  2.66 0.25 0  2.676521739130435 0.2333333333333333 0  2.676521739130435 0.25 0  2.693043478260869 0.2333333333333333 0  2.693043478260869 0.25 0  2.709565217391304 0.2333333333333333 0  2.709565217391304 0.25 0  2.726086956521739 0.2333333333333333 0  2.726086956521739 0.25 0  2.742608695652174 0.2333333333333333 0  2.742608695652174 0.25 0  2.759130434782609 0.2333333333333333 0  2.759130434782609 0.25 0  2.775652173913044 0.2333333333333333 0  2.775652173913044 0.25 0  2.792173913043478 0.25 0  2.808695652173913 0.25 0  2.825217391304347 0.25 0  2.28 0.25 0  2.296521739130434 0.25 0  2.296521739130434 0.2666666666666667 0  2.28 0.2666666666666667 0  2.31304347826087 0.25 0  2.31304347826087 0.2666666666666667 0  2.329565217391304 0.25 0  2.329565217391304 0.2666666666666667 0  2.346086956521739 0.25 0  2.346086956521739 0.2666666666666667 0  2.362608695652174 0.25 0  2.362608695652174 0.2666666666666667 0  2.379130434782609 0.25 0  2.379130434782609 0.2666666666666667 0  2.395652173913044 0.25 0  2.395652173913044 0.2666666666666667 0  2.412173913043478 0.25 0  2.412173913043478 0.2666666666666667 0  2.428695652173913 0.25 0  2.428695652173913 0.2666666666666667 0  2.445217391304348 0.2666666666666667 0  2.461739130434782 0.2666666666666667 0  2.478260869565217 0.2666666666666667 0  2.494782608695652 0.2666666666666667 0  2.511304347826087 0.2666666666666667 0  2.527826086956522 0.2666666666666667 0  2.544347826086956 0.2666666666666667 0  2.560869565217391 0.2666666666666667 0  2.577391304347826 0.2666666666666667 0  2.593913043478261 0.2666666666666667 0  2.610434782608696 0.2666666666666667 0  2.62695652173913 0.2666666666666667 0  2.643478260869565 0.2666666666666667 0  2.66 0.2666666666666667 0  2.676521739130435 0.2666666666666667 0  2.693043478260869 0.2666666666666667 0  2.709565217391304 0.2666666666666667 0  2.726086956521739 0.2666666666666667 0  2.742608695652174 0.2666666666666667 0  2.759130434782609 0.2666666666666667 0  2.775652173913044 0.2666666666666667 0  2.792173913043478 0.2666666666666667 0  2.808695652173913 0.2666666666666667 0  2.825217391304347 0.2666666666666667 0  2.841739130434783 0.2666666666666667 0  2.24695652173913 0.2666666666666667 0  2.263478260869565 0.2666666666666667 0  2.263478260869565 0.2833333333333333 0  2.28 0.2833333333333333 0  2.296521739130434 0.2833333333333333 0  2.31304347826087 0.2833333333333333 0  2.329565217391304 0.2833333333333333 0  2.346086956521739 0.2833333333333333 0  2.362608695652174 0.2833333333333333 0  2.379130434782609 0.2833333333333333 0  2.395652173913044 0.2833333333333333 0  2.412173913043478 0.2833333333333333 0  2.428695652173913 0.2833333333333333 0  2.445217391304348 0.2833333333333333 0  2.461739130434782 0.2833333333333333 0  2.478260869565217 0.2833333333333333 0  2.494782608695652 0.2833333333333333 0  2.511304347826087 0.2833333333333333 0  2.527826086956522 0.2833333333333333 0  2.544347826086956 0.2833333333333333 0  2.560869565217391 0.2833333333333333 0  2.577391304347826 0.2833333333333333 0  2.593913043478261 0.2833333333333333 0  2.610434782608696 0.2833333333333333 0  2.62695652173913 0.2833333333333333 0  2.643478260869565 0.2833333333333333 0  2.66 0.2833333333333333 0  2.676521739130435 0.2833333333333333 0  2.693043478260869 0.2833333333333333 0  2.709565217391304 0.2833333333333333 0  2.726086956521739 0.2833333333333333 0  2.742608695652174 0.2833333333333333 0  2.759130434782609 0.2833333333333333 0  2.775652173913044 0.2833333333333333 0  2.792173913043478 0.2833333333333333 0  2.808695652173913 0.2833333333333333 0  2.825217391304347 0.2833333333333333 0  2.841739130434783 0.2833333333333333 0  2.858260869565217 0.2833333333333333 0  2.28 0.3 0  2.296521739130434 0.3 0  2.31304347826087 0.3 0  2.329565217391304 0.3 0  2.346086956521739 0.3 0  2.362608695652174 0.3 0  2.379130434782609 0.3 0  2.395652173913044 0.3 0  2.412173913043478 0.3 0  2.428695652173913 0.3 0  2.445217391304348 0.3 0  2.461739130434782 0.3 0  2.478260869565217 0.3 0  2.494782608695652 0.3 0  2.511304347826087 0.3 0  2.527826086956522 0.3 0  2.544347826086956 0.3 0  2.560869565217391 0.3 0  2.577391304347826 0.3 0  2.593913043478261 0.3 0  2.610434782608696 0.3 0  2.62695652173913 0.3 0  2.643478260869565 0.3 0  2.66 0.3 0  2.676521739130435 0.3 0  2.693043478260869 0.3 0  2.709565217391304 0.3 0  2.726086956521739 0.3 0  2.742608695652174 0.3 0  2.759130434782609 0.3 0  2.775652173913044 0.3 0  2.792173913043478 0.3 0  2.808695652173913 0.3 0  2.825217391304347 0.3 0  2.841739130434783 0.3 0  2.858260869565217 0.3 0  2.874782608695652 0.3 0  2.296521739130434 0.3166666666666667 0  2.31304347826087 0.3166666666666667 0  2.329565217391304 0.3166666666666667 0  2.346086956521739 0.3166666666666667 0  2.362608695652174 0.3166666666666667 0  2.379130434782609 0.3166666666666667 0  2.395652173913044 0.3166666666666667 0  2.412173913043478 0.3166666666666667 0  2.428695652173913 0.3166666666666667 0  2.445217391304348 0.3166666666666667 0  2.461739130434782 0.3166666666666667 0  2.478260869565217 0.3166666666666667 0  2.494782608695652 0.3166666666666667 0  2.511304347826087 0.3166666666666667 0  2.527826086956522 0.3166666666666667 0  2.544347826086956 0.3166666666666667 0  2.560869565217391 0.3166666666666667 0  2.577391304347826 0.3166666666666667 0  2.593913043478261 0.3166666666666667 0  2.610434782608696 0.3166666666666667 0  2.62695652173913 0.3166666666666667 0  2.643478260869565 0.3166666666666667 0  2.66 0.3166666666666667 0  2.676521739130435 0.3166666666666667 0  2.693043478260869 0.3166666666666667 0  2.709565217391304 0.3166666666666667 0  2.726086956521739 0.3166666666666667 0  2.742608695652174 0.3166666666666667 0  2.759130434782609 0.3166666666666667 0  2.775652173913044 0.3166666666666667 0  2.792173913043478 0.3166666666666667 0  2.808695652173913 0.3166666666666667 0  2.825217391304347 0.3166666666666667 0  2.841739130434783 0.3166666666666667 0  2.858260869565217 0.3166666666666667 0  2.874782608695652 0.3166666666666667 0  2.891304347826087 0.3166666666666667 0  2.31304347826087 0.3333333333333333 0  2.329565217391304 0.3333333333333333 0  2.346086956521739 0.3333333333333333 0  2.362608695652174 0.3333333333333333 0  2.379130434782609 0.3333333333333333 0  2.395652173913044 0.3333333333333333 0  2.412173913043478 0.3333333333333333 0  2.428695652173913 0.3333333333333333 0  2.445217391304348 0.3333333333333333 0  2.461739130434782 0.3333333333333333 0  2.478260869565217 0.3333333333333333 0  2.494782608695652 0.3333333333333333 0  2.511304347826087 0.3333333333333333 0  2.527826086956522 0.3333333333333333 0  2.544347826086956 0.3333333333333333 0  2.560869565217391 0.3333333333333333 0  2.577391304347826 0.3333333333333333 0  2.593913043478261 0.3333333333333333 0  2.610434782608696 0.3333333333333333 0  2.62695652173913 0.3333333333333333 0  2.643478260869565 0.3333333333333333 0  2.66 0.3333333333333333 0  2.676521739130435 0.3333333333333333 0  2.693043478260869 0.3333333333333333 0  2.709565217391304 0.3333333333333333 0  2.726086956521739 0.3333333333333333 0  2.742608695652174 0.3333333333333333 0  2.759130434782609 0.3333333333333333 0  2.775652173913044 0.3333333333333333 0  2.792173913043478 0.3333333333333333 0  2.808695652173913 0.3333333333333333 0  2.825217391304347 0.3333333333333333 0  2.841739130434783 0.3333333333333333 0  2.858260869565217 0.3333333333333333 0  2.874782608695652 0.3333333333333333 0  2.891304347826087 0.3333333333333333 0  2.907826086956522 0.3333333333333333 0  2.329565217391304 0.35 0  2.346086956521739 0.35 0  2.362608695652174 0.35 0  2.379130434782609 0.35 0  2.395652173913044 0.35 0  2.412173913043478 0.35 0  2.428695652173913 0.35 0  2.445217391304348 0.35 0  2.461739130434782 0.35 0  2.478260869565217 0.35 0  2.494782608695652 0.35 0  2.511304347826087 0.35 0  2.527826086956522 0.35 0  2.544347826086956 0.35 0  2.560869565217391 0.35 0  2.577391304347826 0.35 0  2.593913043478261 0.35 0  2.610434782608696 0.35 0  2.62695652173913 0.35 0  2.643478260869565 0.35 0  2.66 0.35 0  2.676521739130435 0.35 0  2.693043478260869 0.35 0  2.709565217391304 0.35 0  2.726086956521739 0.35 0  2.742608695652174 0.35 0  2.759130434782609 0.35 0  2.775652173913044 0.35 0  2.792173913043478 0.35 0  2.808695652173913 0.35 0  2.825217391304347 0.35 0  2.841739130434783 0.35 0  2.858260869565217 0.35 0  2.874782608695652 0.35 0  2.891304347826087 0.35 0  2.907826086956522 0.35 0  2.924347826086957 0.35 0  2.346086956521739 0.3666666666666666 0  2.362608695652174 0.3666666666666666 0  2.379130434782609 0.3666666666666666 0  2.395652173913044 0.3666666666666666 0  2.412173913043478 0.3666666666666666 0  2.428695652173913 0.3666666666666666 0  2.445217391304348 0.3666666666666666 0  2.461739130434782 0.3
[...]
<PointData  Vectors="Displacement"> 
<DataArray  type="Float64"  Name="Displacement"  NumberOfComponents="3" format="ascii">1.3616336261317898e-04 4.6888609297589257e-03 0.0000000000000000e+00  1.1998955610910121e-04 4.6919742387612233e-03 0.0000000000000000e+00  1.2218418701055882e-04 4.7353838238575066e-03 0.0000000000000000e+00  6.4615249026104144e-05 3.5480055836486809e-03 0.0000000000000000e+00  6.8222400611387581e-05 3.6034527317506258e-03 0.0000000000000000e+00  5.1815134392312408e-05 3.5929054976971348e-03 0.0000000000000000e+00  4.8175219193496075e-05 3.5370290839576504e-03 0.0000000000000000e+00  7.1790812767150391e-05 3.6595279153711262e-03 0.0000000000000000e+00  5.5395764012324028e-05 3.6494842674622747e-03 0.0000000000000000e+00  7.5284592573692934e-05 3.7161378081693730e-03 0.0000000000000000e+00  5.8877986879201039e-05 3.7066646048980975e-03 0.0000000000000000e+00  7.8673717096612380e-05 3.7731792896163962e-03 0.0000000000000000e+00  6.2229847897632222e-05 3.7643355566790585e-03 0.0000000000000000e+00  8.1934321701501652e-05 3.8305413428884943e-03 0.0000000000000000e+00  6.5426297792520034e-05 3.8223779769081334e-03 0.0000000000000000e+00  8.5049099364253823e-05 3.8881063216930469e-03 0.0000000000000000e+00  6.8449413750543668e-05 3.8806654191872779e-03 0.0000000000000000e+00  8.8008109640279523e-05 3.9457507619060266e-03 0.0000000000000000e+00  7.1289695160830919e-05 3.9390640539609285e-03 0.0000000000000000e+00  9.0809714313904295e-05 4.0033469104870057e-03 0.0000000000000000e+00  7.3947818664457773e-05 3.9974341764887683e-03 0.0000000000000000e+00  9.3461020312000784e-05 4.0607654118238945e-03 0.0000000000000000e+00  7.6435710569412699e-05 4.0556339897125883e-03 0.0000000000000000e+00  9.5977361921874732e-05 4.1178786127067058e-03 0.0000000000000000e+00  7.8776240494246567e-05 4.1135245440530729e-03 0.0000000000000000e+00  9.8380653186994893e-05 4.1745636013560154e-03 0.0000000000000000e+00  8.1001382420680781e-05 4.1709744259194092e-03 0.0000000000000000e+00  1.0069665236609298e-04 4.2307041678714408e-03 0.0000000000000000e+00  8.3148922103402624e-05 4.2278631436856130e-03 0.0000000000000000e+00  1.0295132628586420e-04 4.2861909819315444e-03 0.0000000000000000e+00  8.5257838079809910e-05 4.2840823320312634e-03 0.0000000000000000e+00  1.0516667806602369e-04 4.3409194297263738e-03 0.0000000000000000e+00  8.7362487287373641e-05 4.3395339588919732e-03 0.0000000000000000e+00  1.0735680288436512e-04 4.3947846953735423e-03 0.0000000000000000e+00  8.9486138096465880e-05 4.3941243982652820e-03 0.0000000000000000e+00  1.0952556147860102e-04 4.4476741194739971e-03 0.0000000000000000e+00  9.1635648301276350e-05 4.4477534287447789e-03 0.0000000000000000e+00  1.1166767989511005e-04 4.4994579071317249e-03 0.0000000000000000e+00  9.3800574264194943e-05 4.5002989025102720e-03 0.0000000000000000e+00  1.1377452614314176e-04 4.5499805520103380e-03 0.0000000000000000e+00  9.5960348148567032e-05 4.5516010521648069e-03 0.0000000000000000e+00  1.1584459673021511e-04 4.5990562369409736e-03 0.0000000000000000e+00  9.8100267919983358e-05 4.6014510916901090e-03 0.0000000000000000e+00  1.1789655876150475e-04 4.6464692569612130e-03 0.0000000000000000e+00  1.0023885183908648e-04 4.6495886699846230e-03 0.0000000000000000e+00  1.0247090426439366e-04 4.6956751138079412e-03 0.0000000000000000e+00  1.0493107589296929e-04 4.7395470470985093e-03 0.0000000000000000e+00  1.0763008902114736e-04 4.7811076972026495e-03 0.0000000000000000e+00  1.8737689684480059e-05 3.0264818450651317e-03 0.0000000000000000e+00  2.0679132076185420e-05 3.0735373107869204e-03 0.0000000000000000e+00  3.6440970257942138e-06 3.0614174143711319e-03 0.0000000000000000e+00  1.9332961293822147e-06 3.0143199659338330e-03 0.0000000000000000e+00  2.2839982941550690e-05 3.1214673460787791e-03 0.0000000000000000e+00  5.6321006046129240e-06 3.1093292888128895e-03 0.0000000000000000e+00  2.5252163892144845e-05 3.1702629171082917e-03 0.0000000000000000e+00  7.9284101352610896e-06 3.1580781733738994e-03 0.0000000000000000e+00  2.7927743872275737e-05 3.2199344300412355e-03 0.0000000000000000e+00  1.0539864013359960e-05 3.2077033158133079e-03 0.0000000000000000e+00  3.0860482120126651e-05 3.2705007230140097e-03 0.0000000000000000e+00  1.3452565921063923e-05 3.2582499020635419e-03 0.0000000000000000e+00  3.4027829965559249e-05 3.3219805201613515e-03 0.0000000000000000e+00  1.6634548765107303e-05 3.3097602846826491e-03 0.0000000000000000e+00  3.7393358643792181e-05 3.3743851832063083e-03 0.0000000000000000e+00  2.0038414911223079e-05 3.3622660236398813e-03 0.0000000000000000e+00  4.0909746732180224e-05 3.4277125777424757e-03 0.0000000000000000e+00  2.3604483130789186e-05 3.4157808380227720e-03 0.0000000000000000e+00  4.4522464346038323e-05 3.4819420665897212e-03 0.0000000000000000e+00  2.7264852085837881e-05 3.4702945332730070e-03 0.0000000000000000e+00  3.0951373985782883e-05 3.5257634667264694e-03 0.0000000000000000e+00  3.4602884165554429e-05 3.5821129491477202e-03 0.0000000000000000e+00  3.8168278343008403e-05 3.6392463038524697e-03 0.0000000000000000e+00  4.1606202737749861e-05 3.6970530142765739e-03 0.0000000000000000e+00  4.4883564932747281e-05 3.7554131299935871e-03 0.0000000000000000e+00  4.7974348794301572e-05 3.8141988745355100e-03 0.0000000000000000e+00  5.0859505616790212e-05 3.8732745802939547e-03 0.0000000000000000e+00  5.3529179522129701e-05 3.9324944458562277e-03 0.0000000000000000e+00  5.5985892966424918e-05 3.9917038294185825e-03 0.0000000000000000e+00  5.8246598770417408e-05 4.0507447979864480e-03 0.0000000000000000e+00  6.0342682574840954e-05 4.1094634783707552e-03 0.0000000000000000e+00  6.2317967368367546e-05 4.1677169880049358e-03 0.0000000000000000e+00  6.4224968150311453e-05 4.2253787742742663e-03 0.0000000000000000e+00  6.6119505740611155e-05 4.2823415059483685e-03 0.0000000000000000e+00  6.8053411542764040e-05 4.3385167527715471e-03 0.0000000000000000e+00  7.0065106514499289e-05 4.3938293796534607e-03 0.0000000000000000e+00  7.2169196023421121e-05 4.4482032224447453e-03 0.0000000000000000e+00  7.4350100630489813e-05 4.5015369006212039e-03 0.0000000000000000e+00  7.6567117104761205e-05 4.5536743961478729e-03 0.0000000000000000e+00  7.8779877669438969e-05 4.6043822577939405e-03 0.0000000000000000e+00  8.0990143132553399e-05 4.6533236379368579e-03 0.0000000000000000e+00  8.3385063074975990e-05 4.6999909747187625e-03 0.0000000000000000e+00  8.6123413972954036e-05 4.7441545975374982e-03 0.0000000000000000e+00  8.9581272277458631e-05 4.7860808977759567e-03 0.0000000000000000e+00  9.3112792296057550e-05 4.8253196362995927e-03 0.0000000000000000e+00  -9.1903861267558448e-07 2.9227211851971719e-03 0.0000000000000000e+00  4.4026099774562083e-07 2.9680535266980832e-03 0.0000000000000000e+00  -1.6849811435707144e-05 2.9556515180859315e-03 0.0000000000000000e+00  -1.5671243004110123e-05 3.0020519383060322e-03 0.0000000000000000e+00  -1.4207985160639062e-05 3.0491563661919669e-03 0.0000000000000000e+00  -1.2396262264428310e-05 3.0970012847207963e-03 0.0000000000000000e+00  -1.0211505177405825e-05 3.1456524218395443e-03 0.0000000000000000e+00  -7.6562378571883023e-06 3.1951832818317822e-03 0.0000000000000000e+00  -4.7545497580172543e-06 3.2456695000247417e-03 0.0000000000000000e+00  -1.5494894501477708e-06 3.2971808244736302e-03 0.0000000000000000e+00  1.8990851953838518e-06 3.3497725807968941e-03 0.0000000000000000e+00  5.5171110035263466e-06 3.4034776258998894e-03 0.0000000000000000e+00  9.2200759477237940e-06 3.4582989392135020e-03 0.0000000000000000e+00  1.2925780400970812e-05 3.5141905068648963e-03 0.0000000000000000e+00  1.6564872711600732e-05 3.5710650476937665e-03 0.0000000000000000e+00  2.0083278660538343e-05 3.6288113365396035e-03 0.0000000000000000e+00  2.3439409146380435e-05 3.6873066414451622e-03 0.0000000000000000e+00  2.6600447806582237e-05 3.7464214115554713e-03 0.0000000000000000e+00  2.9539723898921410e-05 3.8060197226602154e-03 0.0000000000000000e+00  3.2235990320647297e-05 3.8659574112726034e-03 0.0000000000000000e+00  3.4677468696375893e-05 3.9260750902727895e-03 0.0000000000000000e+00  3.6867485268897377e-05 3.9861991835695408e-03 0.0000000000000000e+00  3.8827872786463632e-05 4.0461506041647071e-03 0.0000000000000000e+00  4.0599205582639734e-05 4.1057556626924131e-03 0.0000000000000000e+00  4.2238548182638393e-05 4.1648558303113972e-03 0.0000000000000000e+00  4.3815351533462814e-05 4.2233154256793417e-03 0.0000000000000000e+00  4.5405699492023030e-05 4.2810267180542604e-03 0.0000000000000000e+00  4.7084173203268295e-05 4.3379124991086973e-03 0.0000000000000000e+00  4.8912178514590590e-05 4.3939236017055804e-03 0.0000000000000000e+00  5.0921894283372069e-05 4.4490246861457394e-03 0.0000000000000000e+00  5.3097313367024194e-05 4.5031591398694351e-03 0.0000000000000000e+00  5.5368535786000015e-05 4.5561989459025447e-03 0.0000000000000000e+00  5.7631861953120700e-05 4.6078874812867012e-03 0.0000000000000000e+00  5.9853186455609366e-05 4.6578039643224199e-03 0.0000000000000000e+00  6.2265477383752714e-05 4.7049931782520427e-03 0.0000000000000000e+00  6.5339388304430391e-05 4.7495651908615166e-03 0.0000000000000000e+00  6.8398819968865882e-05 4.7909907963002776e-03 0.0000000000000000e+00  7.4091742721756282e-05 4.8327701452252781e-03 0.0000000000000000e+00  7.2753783526658484e-05 4.8638666259168545e-03 0.0000000000000000e+00  -3.4218638291833888e-05 2.9897279316056522e-03 0.0000000000000000e+00  -3.2989542513664498e-05 3.0367763440509350e-03 0.0000000000000000e+00  -3.1328174197279393e-05 3.0844853953582176e-03 0.0000000000000000e+00  -2.9226387234320799e-05 3.1329741663992574e-03 0.0000000000000000e+00  -2.6700873014469403e-05 3.1823525624659239e-03 0.0000000000000000e+00  -2.3787716063298501e-05 3.2327295361255460e-03 0.0000000000000000e+00  -2.0541529868285193e-05 3.2842058520000219e-03 0.0000000000000000e+00  -1.7034969840630537e-05 3.3368648666862091e-03 0.0000000000000000e+00  -1.3358056558573026e-05 3.3907635345330361e-03 0.0000000000000000e+00  -9.6165942598695818e-06 3.4459237370427025e-03 0.0000000000000000e+00  -5.9094950517274284e-06 3.5022902855828745e-03 0.0000000000000000e+00  -2.3129504282939046e-06 3.5597529628812255e-03 0.0000000000000000e+00  1.1194938729246805e-06 3.6181791121790634e-03 0.0000000000000000e+00  4.3494406565393901e-06 3.6774315040054104e-03 0.0000000000000000e+00  7.3465701105277383e-06 3.7373715969269434e-03 0.0000000000000000e+00  1.0083925650866021e-05 3.7978576138691009e-03 0.0000000000000000e+00  1.2535959564925903e-05 3.8587399079041164e-03 0.0000000000000000e+00  1.4686254073605162e-05 3.9198437838142003e-03 0.0000000000000000e+00  1.6537303608969055e-05 3.9809710620381357e-03 0.0000000000000000e+00  1.8115464726340657e-05 4.0419147132660527e-03 0.0000000000000000e+00  1.9470910893038330e-05 4.1024749680056184e-03 0.0000000000000000e+00  2.0674749551229822e-05 4.1624723000357362e-03 0.0000000000000000e+00  2.1814562618856934e-05 4.2217575107768275e-03 0.0000000000000000e+00  2.2988767696925701e-05 4.2802190967466030e-03 0.0000000000000000e+00  2.4298395535586973e-05 4.3377899621940864e-03 0.0000000000000000e+00  2.5834644075769589e-05 4.3944511493149594e-03 0.0000000000000000e+00  2.7661050256041375e-05 4.4502246822084503e-03 0.0000000000000000e+00  2.9784740979651025e-05 4.5051402078991843e-03 0.0000000000000000e+00  3.2104201321926892e-05 4.5591458069788281e-03 0.0000000000000000e+00  3.4427629686721101e-05 4.6120191752916512e-03 0.0000000000000000e+00  3.6531687657516324e-05 4.6631360757061341e-03 0.0000000000000000e+00  3.9165314499335125e-05 4.7109526420051123e-03 0.0000000000000000e+00  4.2027920969587250e-05 4.7549736050625522e-03 0.0000000000000000e+00  4.7956161325172350e-05 4.7985590513211435e-03 0.0000000000000000e+00  4.5762446265945645e-05 4.8321104703417644e-03 0.0000000000000000e+00  4.5094472275161611e-05 4.8633745498812926e-03 0.0000000000000000e+00  4.4497045807688105e-05 4.8932312157890234e-03 0.0000000000000000e+00  -5.2803638954027907e-05 3.0242775207936362e-03 0.0000000000000000e+00  -5.1225363630173957e-05 3.0717623720841799e-03 0.0000000000000000e+00  -4.9148153351973357e-05 3.1200149023742968e-03 0.0000000000000000e+00  -4.6606055777373084e-05 3.1691758756615084e-03 0.0000000000000000e+00  -4.3646601016676960e-05 3.2193887223568884e-03 0.0000000000000000e+00  -4.0334127122466529e-05 3.2707885980723453e-03 0.0000000000000000e+00  -3.6752133728184393e-05 3.3234922353767805e-03 0.0000000000000000e+00  -3.3007047057579456e-05 3.3775889460755304e-03 0.0000000000000000e+00  -2.9233730835056582e-05 3.4331325522110336e-03 0.0000000000000000e+00  -2.5551010076441438e-05 3.4900439625983430e-03 0.0000000000000000e+00  -2.2038061987228608e-05 3.5481723086544315e-03 0.0000000000000000e+00  -1.8741597358882912e-05 3.6073544214259468e-03 0.0000000000000000e+00  -1.5691633194241898e-05 3.6674375019062713e-03 0.0000000000000000e+00  -1.2912890532054915e-05 3.7282767763928784e-03 0.0000000000000000e+00  -1.0432300214042817e-05 3.7897299325160916e-03 0.0000000000000000e+00  -8.2837454281605585e-06 3.8516492684654360e-03 0.0000000000000000e+00  -6.4926524962285525e-06 3.9138422696357563e-03 0.0000000000000000e+00  -5.0592991885731711e-06 3.9760774469895163e-03 0.0000000000000000e+00  -3.9528269180878425e-06 4.0381106775528343e-03 0.0000000000000000e+00  -3.1130053339905757e-06 4.0997085959258222e-03 0.0000000000000000e+00  -2.4545339595199529e-06 4.1606645071580435e-03 0.0000000000000000e+00  -1.8719318880225934e-06 4.2208103409394687e-03 0.0000000000000000e+00  -1.2444948402958979e-06 4.2800255811450789e-03 0.0000000000000000e+00  -4.4430852219421849e-07 4.3382493682417424e-03 0.0000000000000000e+00  6.5035830640760973e-07 4.3954924217262997e-03 0.0000000000000000e+00  2.1390926683514548e-06 4.4518396949227539e-03 0.0000000000000000e+00  4.0808176082412946e-06 4.5074391451469815e-03 0.0000000000000000e+00  6.4291316758814392e-06 4.5624581070693310e-03 0.0000000000000000e+00  8.7655648018479012e-06 4.6167613842298411e-03 0.0000000000000000e+00  1.0774549713650246e-05 4.6698137790829068e-03 0.0000000000000000e+00  1.2868056879123352e-05 4.7172558822260050e-03 0.0000000000000000e+00  1.8342090518556678e-05 4.7631479146850878e-03 0.0000000000000000e+00  1.6678127892332004e-05 4.7983574802618646e-03 0.0000000000000000e+00  1.5945710406486405e-05 4.8316683138869311e-03 0.0000000000000000e+00  1.5482155751601793e-05 4.8631546269484703e-03 0.0000000000000000e+00  1.5406648775022716e-05 4.8932552421400649e-03 0.0000000000000000e+00  1.5602513043581279e-05 4.9216227166978327e-03 0.0000000000000000e+00  -7.2104235552943578e-05 3.0587837450502578e-03 0.0000000000000000e+00  -6.9962119485766298e-05 3.1067272193378037e-03 0.0000000000000000e+00  -6.7339609910296069e-05 3.1556051032491064e-03 0.0000000000000000e+00  -6.4290903456629451e-05 3.2055964948685882e-03 0.0000000000000000e+00  -6.0885342524097787e-05 3.2568739144208728e-03 0.0000000000000000e+00  -5.7211703336089468e-05 3.3095939722919548e-03 0.0000000000000000e+00  -5.3390808538514727e-05 3.3638927350704358e-03 0.0000000000000000e+00  -4.9601079580689588e-05 3.4198865109241277e-03 0.0000000000000000e+00  -4.5984295956173867e-05 3.4774386555424079e-03 0.0000000000000000e+00  -4.2613547044942135e-05 3.5363280004336141e-03 0.0000000000000000e+00  -3.9518439549266061e-05 3.5963505508705791e-03 0.0000000000000000e+00  -3.6713999609463325e-05 3.6573401391471181e-03 0.0000000000000000e+00  -3.4215681153843755e-05 3.7191516576101911e-03 0.0000000000000000e+00  -3.2050296564627788e-05 3.7816522306436924e-03 0.0000000000000000e+00  -3.0267788684503776e-05 3.8447121920191676e-03 0.0000000000000000e+00  -2.8909185655142559e-05 3.9081155468675072e-03 0.0000000000000000e+00  -2.7978750710314352e-05 3.9715830345653401e-03 0.0000000000000000e+00  -2.7439501557541894e-05 4.0348212959881516e-03 0.0000000000000000e+00  -2.7219931290264542e-05 4.0975552477159564e-03 0.0000000000000000e+00  -2.7220975891082890e-05 4.1595448116055122e-03 0.0000000000000000e+00  -2.7321149192667458e-05 4.2205973707877984e-03 0.0000000000000000e+00  -2.7379604468149942e-05 4.2805764961744482e-03 0.0000000000000000e+00  -2.7244400642825558e-05 4.3394220094781178e-03 0.0000000000000000e+00  -2.6769932604026628e-05 4.3971735490347065e-03 0.0000000000000000e+00  -2.5836826178969342e-05 4.4539766216598851e-03 0.0000000000000000e+00  -2.4353391509056988e-05 4.5100789160822819e-03 0.0000000000000000e+00  -2.2249278617988798e-05 4.5659072965831366e-03 0.0000000000000000e+00  -1.9622425763400982e-05 4.6222328662861882e-03 0.0000000000000000e+00  -1.8529333436613334e-05 4.6775713370429076e-03 0.0000000000000000e+00  -1.3858137985084044e-05 4.7263638529480290e-03 0.0000000000000000e+00  -1.4636634277332251e-05 4.7628002366952816e-03 0.0000000000000000e+00  -1.5253696311568147e-05 4.7979585470532826e-03 0.0000000000000000e+00  -1.5656666658326931e-05 4.8314226331257802e-03 0.0000000000000000e+00  -1.5660591254871020e-05 4.8632459541100960e-03 0.0000000000000000e+00  -1.5458318778653255e-05 4.8934715987078324e-03 0.0000000000000000e+00  -1.4556427547723754e-05 4.9219369351911719e-03 0.0000000000000000e+00  -1.7183980003287374e-05 4.9560125014222163e-03 0.0000000000000000e+00  -9.1582608125658180e-05 3.0930480286965869e-03 0.0000000000000000e+00  -8.8807470161814163e-05 3.1415830231006320e-03 0.0000000000000000e+00  -8.5625382960473508e-05 3.1912978590938361e-03 0.0000000000000000e+00  -8.2106348122486773e-05 3.2424033924266732e-03 0.0000000000000000e+00  -7.8334873274652107e-05 3.2951015418558995e-03 0.0000000000000000e+00  -7.4438720938686904e-05 3.3495999011766528e-03 0.0000000000000000e+00  -7.0668786502143356e-05 3.4061495048957249e-03 0.0000000000000000e+00  -6.7188528305405168e-05 3.4644756669017424e-03 0.0000000000000000e+00  -6.4044534811594816e-05 3.5242407111836928e-03 0.0000000000000000e+00  -6.1234553675014748e-05 3.5851929713979231e-03 0.0000000000000000e+00  -5.8753349361196674e-05 3.6471620836019095e-03 0.0000000000000000e+00  -5.6604306151397970e-05 3.7100115564083669e-03 0.0000000000000000e+00  -5.4814154490064981e-05 3.7736344592159297e-03 0.0000000000000000e+00  -5.3463653577444050e-05 3.8379530516802268e-03 0.0000000000000000e+00  -5.2618506635076797e-05 3.9027121825265247e-03 0.0000000000000000e+00  -5.2284813607246248e-05 3.9675595178029861e-03 0.0000000000000000e+00  -5.2413582967660434e-05 4.0321371765443901e-03 0.0000000000000000e+00  -5.2918739241370589e-05 4.0961215304166874e-03 0.0000000000000000e+00  -5.3688452432757137e-05 4.1592342890207305e-03 0.0000000000000000e+00  -5.4589219910599315e-05 4.2212528636881843e-03 0.0000000000000000e+00  -5.5463114817847200e-05 4.2820152893000710e-03 0.0000000000000000e+00  -5.6136954431317859e-05 4.3414553553203020e-03 0.0000000000000000e+00  -5.6451712216282118e-05 4.3996457371257387e-03 0.0000000000000000e+00  -5.6292868383646765e-05 4.4568075398298572e-03 0.0000000000000000e+00  -5.5610607949557088e-05 4.5132614361226104e-03 0.0000000000000000e+00  -5.4387944522015071e-05 4.5695233969162601e-03 0.0000000000000000e+00  -5.2519834376778223e-05 4.6269095641387611e-03 0.0000000000000000e+00  -4.8344374201750691e-05 4.6893828355343038e-03 0.0000000000000000e+00  -4.8211566129173126e-05 4.7255255194186153e-03 0.0000000000000000e+00  -4.8563858144765828e-05 4.7623587666589503e-03 0.0000000000000000e+00  -4.8866963092219259e-05 4.7977562855699481e-03 0.0000000000000000e+00  -4.8837162455187954e-05 4.8315337792672183e-03 0.0000000000000000e+00  -4.8557730061478728e-05 4.8635173393857716e-03 0.0000000000000000e+00  -4.7872145760852585e-05 4.8939981829479165e-03 0.0000000000000000e+00  -5.0152660722500241e-05 4.9297422469785053e-03 0.0000000000000000e+00  -5.4279269395537209e-05 4.9653804049352252e-03 0.0000000000000000e+00  -5.8870223099887465e-05 5.0003999232757701e-03 0.0000000000000000e+00  -1.1084344326917311e-04 3.1270486398423058e-03 0.0000000000000000e+00  -1.0748576102922256e-04 3.1764391289566245e-03 0.0000000000000000e+00  -1.038437049250