<?xml version="1.0"?>
<VTKFile type="UnstructuredGrid"  version="0.1"  >
<UnstructuredGrid>
<Piece  NumberOfPoints="5151" NumberOfCells="10000">
<Points>
<DataArray  type="Float64"  NumberOfComponents="3"  format="ascii">0 0 0  0.01 0 0  0.02 0 0  0.03 0 0  0.04 0 0  0.05 0 0  0.06 0 0  0.07000000000000001 0 0  0.08 0 0  0.09 0 0  0.1 0 0  0.11 0 0  0.12 0 0  0.13 0 0  0.14 0 0  0.15 0 0  0.16 0 0  0.17 0 0  0.18 0 0  0.19 0 0  0.2 0 0  0.21 0 0  0.22 0 0  0.23 0 0  0.24 0 0  0.25 0 0  0.26 0 0  0.27 0 0  0.28 0 0  0.29 0 0  0.3 0 0  0.31 0 0  0.32 0 0  0.33 0 0  0.34 0 0  0.35 0 0  0.36 0 0  0.37 0 0  0.38 0 0  0.39 0 0  0.4 0 0  0.41 0 0  0.42 0 0  0.43 0 0  0.44 0 0  0.45 0 0  0.46 0 0  0.47 0 0  0.48 0 0  0.49 0 0  0.5 0 0  0.51 0 0  0.52 0 0  0.53 0 0  0.54 0 0  0.55 0 0  0.5600000000000001 0 0  0.57 0 0  0.58 0 0  0.59 0 0  0.6 0 0  0.61 0 0  0.62 0 0  0.63 0 0  0.64 0 0  0.65 0 0  0.66 0 0  0.67 0 0  0.68 0 0  0.6899999999999999 0 0  0.7 0 0  0.71 0 0  0.72 0 0  0.73 0 0  0.74 0 0  0.75 0 0  0.76 0 0  0.77 0 0  0.78 0 0  0.79 0 0  0.8 0 0  0.8100000000000001 0 0  0.82 0 0  0.83 0 0  0.84 0 0  0.85 0 0  0.86 0 0  0.87 0 0  0.88 0 0  0.89 0 0  0.9 0 0  0.91 0 0  0.92 0 0  0.93 0 0  0.9399999999999999 0 0  0.95 0 0  0.96 0 0  0.97 0 0  0.98 0 0  0.99 0 0  1 0 0  0 0.01 0  0.01 0.01 0  0.02 0.01 0  0.03 0.01 0  0.04 0.01 0  0.05 0.01 0  0.06 0.01 0  0.07000000000000001 0.01 0  0.08 0.01 0  0.09 0.01 0  0.1 0.01 0  0.11 0.01 0  0.12 0.01 0  0.13 0.01 0  0.14 0.01 0  0.15 0.01 0  0.16 0.01 0  0.17 0.01 0  0.18 0.01 0  0.19 0.01 0  0.2 0.01 0  0.21 0.01 0  0.22 0.01 0  0.23 0.01 0  0.24 0.01 0  0.25 0.01 0  0.26 0.01 0  0.27 0.01 0  0.28 0.01 0  0.29 0.01 0  0.3 0.01 0  0.31 0.01 0  0.32 0.01 0  0.33 0.01 0  0.34 0.01 0  0.35 0.01 0  0.36 0.01 0  0.37 0.01 0  0.38 0.01 0  0.39 0.01 0  0.4 0.01 0  0.41 0.01 0  0.42 0.01 0  0.43 0.01 0  0.44 0.01 0  0.45 0.01 0  0.46 0.01 0  0.47 0.01 0  0.48 0.01 0  0.49 0.01 0  0.5 0.01 0  0.51 0.01 0  0.52 0.01 0  0.53 0.01 0  0.54 0.01 0  0.55 0.01 0  0.5600000000000001 0.01 0  0.57 0.01 0  0.58 0.01 0  0.59 0.01 0  0.6 0.01 0  0.61 0.01 0  0.62 0.01 0  0.63 0.01 0  0.64 0.01 0  0.65 0.01 0  0.66 0.01 0  0.67 0.01 0  0.68 0.01 0  0.6899999999999999 0.01 0  0.7 0.01 0  0.71 0.01 0  0.72 0.01 0  0.73 0.01 0  0.74 0.01 0  0.75 0.01 0  0.76 0.01 0  0.77 0.01 0  0.78 0.01 0  0.79 0.01 0  0.8 0.01 0  0.8100000000000001 0.01 0  0.82 0.01 0  0.83 0.01 0  0.84 0.01 0  0.85 0.01 0  0.86 0.01 0  0.87 0.01 0  0.88 0.01 0  0.89 0.01 0  0.9 0.01 0  0.91 0.01 0  0.92 0.01 0  0.93 0.01 0  0.9399999999999999 0.01 0  0.95 0.01 0  0.96 0.01 0  0.97 0.01 0  0.98 0.01 0  0.99 0.01 0  1 0.01 0  0 0.02 0  0.01 0.02 0  0.02 0.02 0  0.03 0.02 0  0.04 0.02 0  0.05 0.02 0  0.06 0.02 0  0.07000000000000001 0.02 0  0.08 0.02 0  0.09 0.02 0  0.1 0.02 0  0.11 0.02 0  0.12 0.02 0  0.13 0.02 0  0.14 0.02 0  0.15 0.02 0  0.16 0.02 0  0.17 0.02 0  0.18 0.02 0  0.19 0.02 0  0.2 0.02 0  0.21 0.02 0  0.22 0.02 0  0.23 0.02 0  0.24 0.02 0  0.25 0.02 0  0.26 0.02 0  0.27 0.02 0  0.28 0.02 0  0.29 0.02 0  0.3 0.02 0  0.31 0.02 0  0.32 0.02 0  0.33 0.02 0  0.34 0.02 0  0.35 0.02 0  0.36 0.02 0  0.37 0.02 0  0.38 0.02 0  0.39 0.02 0  0.4 0.02 0  0.41 0.02 0  0.42 0.02 0  0.43 0.02 0  0.44 0.02 0  0.45 0.02 0  0.46 0.02 0  0.47 0.02 0  0.48 0.02 0  0.49 0.02 0  0.5 0.02 0  0.51 0.02 0  0.52 0.02 0  0.53 0.02 0  0.54 0.02 0  0.55 0.02 0  0.5600000000000001 0.02 0  0.57 0.02 0  0.58 0.02 0  0.59 0.02 0  0.6 0.02 0  0.61 0.02 0  0.62 0.02 0  0.63 0.02 0  0.64 0.02 0  0.65 0.02 0  0.66 0.02 0  0.67 0.02 0  0.68 0.02 0  0.6899999999999999 0.02 0  0.7 0.02 0  0.71 0.02 0  0.72 0.02 0  0.73 0.02 0  0.74 0.02 0  0.75 0.02 0  0.76 0.02 0  0.77 0.02 0  0.78 0.02 0  0.79 0.02 0  0.8 0.02 0  0.8100000000000001 0.02 0  0.82 0.02 0  0.83 0.02 0  0.84 0.02 0  0.85 0.02 0  0.86 0.02 0  0.87 0.02 0  0.88 0.02 0  0.89 0.02 0  0.9 0.02 0  0.91 0.02 0  0.92 0.02 0  0.93 0.02 0  0.9399999999999999 0.02 0  0.95 0.02 0  0.96 0.02 0  0.97 0.02 0  0.98 0.02 0  0.99 0.02 0  1 0.02 0  0 0.03 0  0.01 0.03 0  0.02 0.03 0  0.03 0.03 0  0.04 0.03 0  0.05 0.03 0  0.06 0.03 0  0.07000000000000001 0.03 0  0.08 0.03 0  0.09 0.03 0  0.1 0.03 0  0.11 0.03 0  0.12 0.03 0  0.13 0.03 0  0.14 0.03 0  0.15 0.03 0  0.16 0.03 0  0.17 0.03 0  0.18 0.03 0  0.19 0.03 0  0.2 0.03 0  0.21 0.03 0  0.22 0.03 0  0.23 0.03 0  0.24 0.03 0  0.25 0.03 0  0.26 0.03 0  0.27 0.03 0  0.28 0.03 0  0.29 0.03 0  0.3 0.03 0  0.31 0.03 0  0.32 0.03 0  0.33 0.03 0  0.34 0.03 0  0.35 0.03 0  0.36 0.03 0  0.37 0.03 0  0.38 0.03 0  0.39 0.03 0  0.4 0.03 0  0.41 0.03 0  0.42 0.03 0  0.43 0.03 0  0.44 0.03 0  0.45 0.03 0  0.46 0.03 0  0.47 0.03 0  0.48 0.03 0  0.49 0.03 0  0.5 0.03 0  0.51 0.03 0  0.52 0.03 0  0.53 0.03 0  0.54 0.03 0  0.55 0.03 0  0.5600000000000001 0.03 0  0.57 0.03 0  0.58 0.03 0  0.59 0.03 0  0.6 0.03 0  0.61 0.03 0  0.62 0.03 0  0.63 0.03 0  0.64 0.03 0  0.65 0.03 0  0.66 0.03 0  0.67 0.03 0  0.68 0.03 0  0.6899999999999999 0.03 0  0.7 0.03 0  0.71 0.03 0  0.72 0.03 0  0.73 0.03 0  0.74 0.03 0  0.75 0.03 0  0.76 0.03 0  0.77 0.03 0  0.78 0.03 0  0.79 0.03 0  0.8 0.03 0  0.8100000000000001 0.03 0  0.82 0.03 0  0.83 0.03 0  0.84 0.03 0  0.85 0.03 0  0.86 0.03 0  0.87 0.03 0  0.88 0.03 0  0.89 0.03 0  0.9 0.03 0  0.91 0.03 0  0.92 0.03 0  0.93 0.03 0  0.9399999999999999 0.03 0  0.95 0.03 0  0.96 0.03 0  0.97 0.03 0  0.98 0.03 0  0.99 0.03 0  1 0.03 0  0 0.04 0  0.01 0.04 0  0.02 0.04 0  0.03 0.04 0  0.04 0.04 0  0.05 0.04 0  0.06 0.04 0  0.07000000000000001 0.04 0  0.08 0.04 0  0.09 0.04 0  0.1 0.04 0  0.11 0.04 0  0.12 0.04 0  0.13 0.04 0  0.14 0.04 0  0.15 0.04 0  0.16 0.04 0  0.17 0.04 0  0.18 0.04 0  0.19 0.04 0  0.2 0.04 0  0.21 0.04 0  0.22 0.04 0  0.23 0.04 0  0.24 0.04 0  0.25 0.04 0  0.26 0.04 0  0.27 0.04 0  0.28 0.04 0  0.29 0.04 0  0.3 0.04 0  0.31 0.04 0  0.32 0.04 0  0.33 0.04 0  0.34 0.04 0  0.35 0.04 0  0.36 0.04 0  0.37 0.04 0  0.38 0.04 0  0.39 0.04 0  0.4 0.04 0  0.41 0.04 0  0.42 0.04 0  0.43 0.04 0  0.44 0.04 0  0.45 0.04 0  0.46 0.04 0  0.47 0.04 0  0.48 0.04 0  0.49 0.04 0  0.5 0.04 0  0.51 0.04 0  0.52 0.04 0  0.53 0.04 0  0.54 0.04 0  0.55 0.04 0  0.5600000000000001 0.04 0  0.57 0.04 0  0.58 0.04 0  0.59 0.04 0  0.6 0.04 0  0.61 0.04 0  0.62 0.04 0  0.63 0.04 0  0.64 0.04 0  0.65 0.04 0  0.66 0.04 0  0.67 0.04 0  0.68 0.04 0  0.6899999999999999 0.04 0  0.7 0.04 0  0.71 0.04 0  0.72 0.04 0  0.73 0.04 0  0.74 0.04 0  0.75 0.04 0  0.76 0.04 0  0.77 0.04 0  0.78 0.04 0  0.79 0.04 0  0.8 0.04 0  0.8100000000000001 0.04 0  0.82 0.04 0  0.83 0.04 0  0.84 0.04 0  0.85 0.04 0  0.86 0.04 0  0.87 0.04 0  0.88 0.04 0  0.89 0.04 0  0.9 0.04 0  0.91 0.04 0  0.92 0.04 0  0.93 0.04 0  0.9399999999999999 0.04 0  0.95 0.04 0  0.96 0.04 0  0.97 0.04 0  0.98 0.04 0  0.99 0.04 0  1 0.04 0  0 0.05 0  0.01 0.05 0  0.02 0.05 0  0.03 0.05 0  0.04 0.05 0  0.05 0.05 0  0.06 0.05 0  0.07000000000000001 0.05 0  0.08 0.05 0  0.09 0.05 0  0.1 0.05 0  0.11 0.05 0  0.12 0.05 0  0.13 0.05 0  0.14 0.05 0  0.15 0.05 0  0.16 0.05 0  0.17 0.05 0  0.18 0.05 0  0.19 0.05 0  0.2 0.05 0  0.21 0.05 0  0.22 0.05 0  0.23 0.05 0  0.24 0.05 0  0.25 0.05 0  0.26 0.05 0  0.27 0.05 0  0.28 0.05 0  0.29 0.05 0  0.3 0.05 0  0.31 0.05 0  0.32 0.05 0  0.33 0.05 0  0.34 0.05 0  0.35 0.05 0  0.36 0.05 0  0.37 0.05 0  0.38 0.05 0  0.39 0.05 0  0.4 0.05 0  0.41 0.05 0  0.42 0.05 0  0.43 0.05 0  0.44 0.05 0  0.45 0.05 0  0.46 0.05 0  0.47 0.05 0  0.48 0.05 0  0.49 0.05 0  0.5 0.05 0  0.51 0.05 0  0.52 0.05 0  0.53 0.05 0  0.54 0.05 0  0.55 0.05 0  0.5600000000000001 0.05 0  0.57 0.05 0  0.58 0.05 0  0.59 0.05 0  0.6 0.05 0  0.61 0.05 0  0.62 0.05 0  0.63 0.05 0  0.64 0.05 0  0.65 0.05 0  0.66 0.05 0  0.67 0.05 0  0.68 0.05 0  0.6899999999999999 0.05 0  0.7 0.05 0  0.71 0.05 0  0.72 0.05 0  0.73 0.05 0  0.74 0.05 0  0.75 0.05 0  0.76 0.05 0  0.77 0.05 0  0.78 0.05 0  0.79 0.05 0  0.8 0.05 0  0.8100000000000001 0.05 0  0.82 0.05 0  0.83 0.05 0  0.84 0.05 0  0.85 0.05 0  0.86 0.05 0  0.87 0.05 0  0.88 0.05 0  0.89 0.05 0  0.9 0.05 0  0.91 0.05 0  0.92 0.05 0  0.93 0.05 0  0.9399999999999999 0.05 0  0.95 0.05 0  0.96 0.05 0  0.97 0.05 0  0.98 0.05 0  0.99 0.05 0  1 0.05 0  0 0.06 0  0.01 0.06 0  0.02 0.06 0  0.03 0.06 0  0.04 0.06 0  0.05 0.06 0  0.06 0.06 0  0.07000000000000001 0.06 0  0.08 0.06 0  0.09 0.06 0  0.1 0.06 0  0.11 0.06 0  0.12 0.06 0  0.13 0.06 0  0.14 0.06 0  0.15 0.06 0  0.16 0.06 0  0.17 0.06 0  0.18 0.06 0  0.19 0.06 0  0.2 0.06 0  0.21 0.06 0  0.22 0.06 0  0.23 0.06 0  0.24 0.06 0  0.25 0.06 0  0.26 0.06 0  0.27 0.06 0  0.28 0.06 0  0.29 0.06 0  0.3 0.06 0  0.31 0.06 0  0.32 0.06 0  0.33 0.06 0  0.34 0.06 0  0.35 0.06 0  0.36 0.06 0  0.37 0.06 0  0.38 0.06 0  0.39 0.06 0  0.4 0.06 0  0.41 0.06 0  0.42 0.06 0  0.43 0.06 0  0.44 0.06 0  0.45 0.06 0  0.46 0.06 0  0.47 0.06 0  0.48 0.06 0  0.49 0.06 0  0.5 0.06 0  0.51 0.06 0  0.52 0.06 0  0.53 0.06 0  0.54 0.06 0  0.55 0.06 0  0.5600000000000001 0.06 0  0.57 0.06 0  0.58 0.06 0  0.59 0.06 0  0.6 0.06 0  0.61 0.06 0  0.62 0.06 0  0.63 0.06 0  0.64 0.06 0  0.65 0.06 0  0.66 0.06 0  0.67 0.06 0  0.68 0.06 0  0.6899999999999999 0.06 0  0.7 0.06 0  0.71 0.06 0  0.72 0.06 0  0.73 0.06 0  0.74 0.06 0  0.75 0.06 0  0.76 0.06 0  0.77 0.06 0  0.78 0.06 0  0.79 0.06 0  0.8 0.06 0  0.8100000000000001 0.06 0  0.82 0.06 0  0.83 0.06 0  0.84 0.06 0  0.85 0.06 0  0.86 0.06 0  0.87 0.06 0  0.88 0.06 0  0.89 0.06 0  0.9 0.06 0  0.91 0.06 0  0.92 0.06 0  0.93 0.06 0  0.9399999999999999 0.06 0  0.95 0.06 0  0.96 0.06 0  0.97 0.06 0  0.98 0.06 0  0.99 0.06 0  1 0.06 0  0 0.07000000000000001 0  0.01 0.07000000000000001 0  0.02 0.07000000000000001 0  0.03 0.07000000000000001 0  0.04 0.07000000000000001 0  0.05 0.07000000000000001 0  0.06 0.07000000000000001 0  0.07000000000000001 0.07000000000000001 0  0.08 0.07000000000000001 0  0.09 0.07000000000000001 0  0.1 0.07000000000000001 0  0.11 0.07000000000000001 0  0.12 0.07000000000000001 0  0.13 0.07000000000000001 0  0.14 0.07000000000000001 0  0.15 0.07000000000000001 0  0.16 0.07000000000000001 0  0.17 0.07000
[...]
<PointData  Vectors="Displacement"> 
<DataArray  type="Float64"  Name="Displacement"  NumberOfComponents="3" format="ascii">0.0000000000000000e+00 0.0000000000000000e+00 0.0000000000000000e+00  1.2575482990672121e-06 7.7581859382269986e-07 0.0000000000000000e+00  2.3973593710946752e-06 1.7060506940200564e-06 0.0000000000000000e+00  3.4937884825184340e-06 3.0366852689993206e-06 0.0000000000000000e+00  4.5436659711645011e-06 4.7820500354446682e-06 0.0000000000000000e+00  5.5398637792499841e-06 6.9212986846208006e-06 0.0000000000000000e+00  6.4759216228471354e-06 9.4223628355424532e-06 0.0000000000000000e+00  7.3465007223246751e-06 1.2246927727933689e-05 0.0000000000000000e+00  8.1470881591248995e-06 1.5351364941788119e-05 0.0000000000000000e+00  8.8742379325589634e-06 1.8687439888749096e-05 0.0000000000000000e+00  9.5260401722232461e-06 2.2203864109086291e-05 0.0000000000000000e+00  1.0102481711317054e-05 2.5848710475128484e-05 0.0000000000000000e+00  1.0605482970080122e-05 2.9572154382543727e-05 0.0000000000000000e+00  1.1038565996904740e-05 3.3328855030738875e-05 0.0000000000000000e+00  1.1406248986819664e-05 3.7079431262110437e-05 0.0000000000000000e+00  1.1713313035264589e-05 4.0790738980687489e-05 0.0000000000000000e+00  1.1964171071241614e-05 4.4434933938073072e-05 0.0000000000000000e+00  1.2162629864168963e-05 4.7987817415105546e-05 0.0000000000000000e+00  1.2312096831163579e-05 5.1427451934264603e-05 0.0000000000000000e+00  1.2415915400590292e-05 5.4733750843895677e-05 0.0000000000000000e+00  1.2477484230441698e-05 5.7888808457720622e-05 0.0000000000000000e+00  1.2500105699875988e-05 6.0877256811880857e-05 0.0000000000000000e+00  1.2486744883365091e-05 6.3686202062050075e-05 0.0000000000000000e+00  1.2439846181761368e-05 6.6304824372027558e-05 0.0000000000000000e+00  1.2361249920469266e-05 6.8723832278225625e-05 0.0000000000000000e+00  1.2252243020353958e-05 7.0934850760219606e-05 0.0000000000000000e+00  1.2113736797136199e-05 7.2929910419201093e-05 0.0000000000000000e+00  1.1946506218611455e-05 7.4701166671315193e-05 0.0000000000000000e+00  1.1751496971294744e-05 7.6240775563693415e-05 0.0000000000000000e+00  1.1530331301893471e-05 7.7540898896541694e-05 0.0000000000000000e+00  1.1286154751082722e-05 7.8594107492348600e-05 0.0000000000000000e+00  1.1024824443015760e-05 7.9394608697991810e-05 0.0000000000000000e+00  1.0755894164960478e-05 7.9940796703844780e-05 0.0000000000000000e+00  1.0492164269624811e-05 8.0239187501276023e-05 0.0000000000000000e+00  1.0247398635265135e-05 8.0307271712734996e-05 0.0000000000000000e+00  1.0033384250745858e-05 8.0172473059815107e-05 0.0000000000000000e+00  9.8580698351058356e-06 7.9867699522109061e-05 0.0000000000000000e+00  9.7248536664107984e-06 7.9427417010963775e-05 0.0000000000000000e+00  9.6324147823316133e-06 7.8885399240092715e-05 0.0000000000000000e+00  9.5808124692035717e-06 7.8278165650156635e-05 0.0000000000000000e+00  9.5608355168921939e-06 7.7637153309108087e-05 0.0000000000000000e+00  9.5498322521883006e-06 7.6963361862010600e-05 0.0000000000000000e+00  1.0471440614891573e-05 7.6907556352404441e-05 0.0000000000000000e+00  1.1928546695744245e-05 7.7059005699056511e-05 0.0000000000000000e+00  1.3341155369191303e-05 7.7256899673034429e-05 0.0000000000000000e+00  1.4741439631631490e-05 7.7455946615613989e-05 0.0000000000000000e+00  1.6189403702671485e-05 7.7633805369108528e-05 0.0000000000000000e+00  1.7685818366454753e-05 7.7927478062447797e-05 0.0000000000000000e+00  1.9218408276167118e-05 7.8343911235782054e-05 0.0000000000000000e+00  2.0785862520369863e-05 7.8885547086355183e-05 0.0000000000000000e+00  2.2386009809211822e-05 7.9571775498163828e-05 0.0000000000000000e+00  2.4017724593280824e-05 8.0411611163227936e-05 0.0000000000000000e+00  2.5678235723528801e-05 8.1419844752692359e-05 0.0000000000000000e+00  2.7357077391397851e-05 8.2614254619649331e-05 0.0000000000000000e+00  2.9029464643895444e-05 8.4013227616471498e-05 0.0000000000000000e+00  3.0656269022134118e-05 8.5620652444114303e-05 0.0000000000000000e+00  3.2198457578014866e-05 8.7403789913622932e-05 0.0000000000000000e+00  3.3634021752832781e-05 8.9299312739615698e-05 0.0000000000000000e+00  3.4965499353467242e-05 9.1235701060958814e-05 0.0000000000000000e+00  3.6212109662564679e-05 9.3162128890056072e-05 0.0000000000000000e+00  3.7415824916885438e-05 9.5023594818454299e-05 0.0000000000000000e+00  3.8625337412967666e-05 9.6813684048166943e-05 0.0000000000000000e+00  3.9874933820672947e-05 9.8566617721917350e-05 0.0000000000000000e+00  4.1178338272541351e-05 1.0032818649633082e-04 0.0000000000000000e+00  4.2533370431233858e-05 1.0213777502608093e-04 0.0000000000000000e+00  4.3929111795481576e-05 1.0402280388127398e-04 0.0000000000000000e+00  4.5351473582339265e-05 1.0599960214877401e-04 0.0000000000000000e+00  4.6786417254016300e-05 1.0807623951839229e-04 0.0000000000000000e+00  4.8221396820947918e-05 1.1025527323992879e-04 0.0000000000000000e+00  4.9645752121682206e-05 1.1253583628287931e-04 0.0000000000000000e+00  5.1050583231130987e-05 1.1491505361948352e-04 0.0000000000000000e+00  5.2428423671469733e-05 1.1738892501563059e-04 0.0000000000000000e+00  5.3772884157119622e-05 1.1995282333663416e-04 0.0000000000000000e+00  5.5078346330217960e-05 1.2260174268379509e-04 0.0000000000000000e+00  5.6339731307009738e-05 1.2533039903314731e-04 0.0000000000000000e+00  5.7552341395138796e-05 1.2813324972979983e-04 0.0000000000000000e+00  5.8711764575643209e-05 1.3100447062612300e-04 0.0000000000000000e+00  5.9813830524450744e-05 1.3393791393765563e-04 0.0000000000000000e+00  6.0854608310209459e-05 1.3692706189197940e-04 0.0000000000000000e+00  6.1830437351367872e-05 1.3996498673546568e-04 0.0000000000000000e+00  6.2737984393527554e-05 1.4304432459144001e-04 0.0000000000000000e+00  6.3574320249334523e-05 1.4615726840477687e-04 0.0000000000000000e+00  6.4337010864551532e-05 1.4929558361978797e-04 0.0000000000000000e+00  6.5024217899822243e-05 1.5245064922762109e-04 0.0000000000000000e+00  6.5634804409725491e-05 1.5561352622646833e-04 0.0000000000000000e+00  6.6168441363527561e-05 1.5877505518142131e-04 0.0000000000000000e+00  6.6625710727465006e-05 1.6192598431845519e-04 0.0000000000000000e+00  6.7008200661270443e-05 1.6505712938799471e-04 0.0000000000000000e+00  6.7318588085640997e-05 1.6815956640408691e-04 0.0000000000000000e+00  6.7560703416714846e-05 1.7122485834971402e-04 0.0000000000000000e+00  6.7739571540362898e-05 1.7424531708580570e-04 0.0000000000000000e+00  6.7861421919890199e-05 1.7721430206139367e-04 0.0000000000000000e+00  6.7933658731303474e-05 1.8012655803208863e-04 0.0000000000000000e+00  6.7964778423373749e-05 1.8297859479630307e-04 0.0000000000000000e+00  6.7964215863477892e-05 1.8576911254829356e-04 0.0000000000000000e+00  6.7942088998489914e-05 1.8849947535103060e-04 0.0000000000000000e+00  6.7908791620195205e-05 1.9117422780442109e-04 0.0000000000000000e+00  6.7874346602357771e-05 1.9380162174367104e-04 0.0000000000000000e+00  6.7847360976540979e-05 1.9639402236073210e-04 0.0000000000000000e+00  6.7833265808426199e-05 1.9896770790413763e-04 0.0000000000000000e+00  6.7830980489577109e-05 2.0154002288342901e-04 0.0000000000000000e+00  0.0000000000000000e+00 0.0000000000000000e+00 0.0000000000000000e+00  6.0904450173967012e-07 3.9035112065987798e-07 0.0000000000000000e+00  1.3293370262885985e-06 1.3157146280047475e-06 0.0000000000000000e+00  2.0174658688366996e-06 2.6579985523907414e-06 0.0000000000000000e+00  2.6744488930193056e-06 4.4186163333689720e-06 0.0000000000000000e+00  3.3029562414274200e-06 6.5747873135805726e-06 0.0000000000000000e+00  3.9045848258500579e-06 9.0940738019938534e-06 0.0000000000000000e+00  4.4800499856585798e-06 1.1938117831466259e-05 0.0000000000000000e+00  5.0295424640518111e-06 1.5063296406647356e-05 0.0000000000000000e+00  5.5528975670192725e-06 1.8421232074172534e-05 0.0000000000000000e+00  6.0496693195364684e-06 2.1960283522923837e-05 0.0000000000000000e+00  6.5191999749457202e-06 2.5628013390751611e-05 0.0000000000000000e+00  6.9607154897601069e-06 2.9374037207712257e-05 0.0000000000000000e+00  7.3734649918516641e-06 3.3152513287488682e-05 0.0000000000000000e+00  7.7569055797775714e-06 3.6923716135818390e-05 0.0000000000000000e+00  8.1108545888771489e-06 4.0654394475901130e-05 0.0000000000000000e+00  8.4355322169944996e-06 4.4316818323758576e-05 0.0000000000000000e+00  8.7315221335097917e-06 4.7886964195544663e-05 0.0000000000000000e+00  8.9997098083473915e-06 5.1342959574710148e-05 0.0000000000000000e+00  9.2411971849883440e-06 5.4664665167925518e-05 0.0000000000000000e+00  9.4571694454098122e-06 5.7834123792742844e-05 0.0000000000000000e+00  9.6487405912375902e-06 6.0836004924239115e-05 0.0000000000000000e+00  9.8168618108466299e-06 6.3657534207210386e-05 0.0000000000000000e+00  9.9622954747083692e-06 6.6288063445427148e-05 0.0000000000000000e+00  1.0085605671832813e-05 6.8718499193280355e-05 0.0000000000000000e+00  1.0187183830296638e-05 7.0940640052710155e-05 0.0000000000000000e+00  1.0267318674754847e-05 7.2946632296198421e-05 0.0000000000000000e+00  1.0326257057211460e-05 7.4728699605879217e-05 0.0000000000000000e+00  1.0364253946925731e-05 7.6279006676364193e-05 0.0000000000000000e+00  1.0381700121712125e-05 7.7589565025529760e-05 0.0000000000000000e+00  1.0379425881995736e-05 7.8652446573142498e-05 0.0000000000000000e+00  1.0359301679864245e-05 7.9460778019853635e-05 0.0000000000000000e+00  1.0325063239215878e-05 8.0011337024779588e-05 0.0000000000000000e+00  1.0282548674655024e-05 8.0309280512527872e-05 0.0000000000000000e+00  1.0238733871856282e-05 8.0371896252484900e-05 0.0000000000000000e+00  1.0200187200027439e-05 8.0227649235976384e-05 0.0000000000000000e+00  1.0171961198638562e-05 7.9911126454686391e-05 0.0000000000000000e+00  1.0156498648507970e-05 7.9458784893432960e-05 0.0000000000000000e+00  1.0152194618807503e-05 7.8906887569405538e-05 0.0000000000000000e+00  1.0153511622554881e-05 7.8288481214451174e-05 0.0000000000000000e+00  1.0157711992961731e-05 7.7633736711708518e-05 0.0000000000000000e+00  1.0168391117439158e-05 7.6952281998967815e-05 0.0000000000000000e+00  1.0546369275428738e-05 7.6455436374244979e-05 0.0000000000000000e+00  1.1807947696620280e-05 7.6457685356878945e-05 0.0000000000000000e+00  1.3163846876357729e-05 7.6674437699581621e-05 0.0000000000000000e+00  1.4506826438179450e-05 7.6873903268643808e-05 0.0000000000000000e+00  1.5884038817182008e-05 7.7021916656225012e-05 0.0000000000000000e+00  1.7280789022212455e-05 7.7303438878403049e-05 0.0000000000000000e+00  1.8694181711162790e-05 7.7709208016891876e-05 0.0000000000000000e+00  2.0128697405302102e-05 7.8238187441002653e-05 0.0000000000000000e+00  2.1583053756788165e-05 7.8913231976424108e-05 0.0000000000000000e+00  2.3058130256676886e-05 7.9740812359056860e-05 0.0000000000000000e+00  2.4554183320253525e-05 8.0737178831350725e-05 0.0000000000000000e+00  2.6066407378011811e-05 8.1924110485693616e-05 0.0000000000000000e+00  2.7578635601419396e-05 8.3327302529232890e-05 0.0000000000000000e+00  2.9063134513156211e-05 8.4956647485033001e-05 0.0000000000000000e+00  3.0492856137246524e-05 8.6776529794164523e-05 0.0000000000000000e+00  3.1853142865535206e-05 8.8714343788059345e-05 0.0000000000000000e+00  3.3145962267115872e-05 9.0688391964163014e-05 0.0000000000000000e+00  3.4382169498300775e-05 9.2644137210317031e-05 0.0000000000000000e+00  3.5592050878119542e-05 9.4514450843815592e-05 0.0000000000000000e+00  3.6807780532422693e-05 9.6294821102830622e-05 0.0000000000000000e+00  3.8049590067182108e-05 9.8028473643359468e-05 0.0000000000000000e+00  3.9324543383003196e-05 9.9769185179471746e-05 0.0000000000000000e+00  4.0630509360429915e-05 1.0156106790963322e-04 0.0000000000000000e+00  4.1960390406789882e-05 1.0343354577971485e-04 0.0000000000000000e+00  4.3305105222427091e-05 1.0540332171743699e-04 0.0000000000000000e+00  4.4655315185879612e-05 1.0747806488139064e-04 0.0000000000000000e+00  4.6002271252483282e-05 1.0965966156761818e-04 0.0000000000000000e+00  4.7338126586522040e-05 1.1194656033222187e-04 0.0000000000000000e+00  4.8655956794240165e-05 1.1433529981293204e-04 0.0000000000000000e+00  4.9949643339233292e-05 1.1682142380224528e-04 0.0000000000000000e+00  5.1213715896826248e-05 1.1939997043874214e-04 0.0000000000000000e+00  5.2443204178310387e-05 1.2206569496444412e-04 0.0000000000000000e+00  5.3633519678474217e-05 1.2481314283154638e-04 0.0000000000000000e+00  5.4780372353213191e-05 1.2763664485675324e-04 0.0000000000000000e+00  5.5879721137199758e-05 1.3053027402010111e-04 0.0000000000000000e+00  5.6927755139197496e-05 1.3348778652362182e-04 0.0000000000000000e+00  5.7920901586394769e-05 1.3650256170807398e-04 0.0000000000000000e+00  5.8855856290673098e-05 1.3956755105392840e-04 0.0000000000000000e+00  5.9729632386150875e-05 1.4267524347727262e-04 0.0000000000000000e+00  6.0539623239901613e-05 1.4581765188968014e-04 0.0000000000000000e+00  6.1283675654105380e-05 1.4898632443772439e-04 0.0000000000000000e+00  6.1960169651732600e-05 1.5217238289670152e-04 0.0000000000000000e+00  6.2568101204700600e-05 1.5536659018686275e-04 0.0000000000000000e+00  6.3107164208732892e-05 1.5855944870285722e-04 0.0000000000000000e+00  6.3577827849173698e-05 1.6174133095274264e-04 0.0000000000000000e+00  6.3981405255326228e-05 1.6490264384447058e-04 0.0000000000000000e+00  6.4320109008037630e-05 1.6803402786427427e-04 0.0000000000000000e+00  6.4597088625506258e-05 1.7112659241791172e-04 0.0000000000000000e+00  6.4816444569181799e-05 1.7417218880467895e-04 0.0000000000000000e+00  6.4983212538160260e-05 1.7716372271430909e-04 0.0000000000000000e+00  6.5103310808803163e-05 1.8009550880723448e-04 0.0000000000000000e+00  6.5183442110966776e-05 1.8296367078256560e-04 0.0000000000000000e+00  6.5230940115120785e-05 1.8576659093075235e-04 0.0000000000000000e+00  6.5253549413879863e-05 1.8850541213741287e-04 0.0000000000000000e+00  6.5259127719422881e-05 1.9118458887466982e-04 0.0000000000000000e+00  6.5255260548224459e-05 1.9381246207284133e-04 0.0000000000000000e+00  6.5248777715798956e-05 1.9640177056185577e-04 0.0000000000000000e+00  6.5245122090359134e-05 1.9896984160888551e-04 0.0000000000000000e+00  6.5247238916040117e-05 2.0153773756457989e-04 0.0000000000000000e+00  0.0000000000000000e+00 0.0000000000000000e+00 0.0000000000000000e+00  1.7190127691505016e-07 2.6242377971607518e-07 0.0000000000000000e+00  3.8967657346155761e-07 1.1136797039228161e-06 0.0000000000000000e+00  6.3334338591616225e-07 2.4512443468405947e-06 0.0000000000000000e+00  8.8044598231384573e-07 4.2170206599045059e-06 0.0000000000000000e+00  1.1324356851594670e-06 6.3779680307793559e-06 0.0000000000000000e+00  1.3942278333043328e-06 8.9003320303948551e-06 0.0000000000000000e+00  1.6710227423723810e-06 1.1746209967974174e-05 0.0000000000000000e+00  1.9673872113442180e-06 1.4872684906319636e-05 0.0000000000000000e+00  2.2865083506356335e-06 1.8232040370280043e-05 0.0000000000000000e+00  2.6294621201668555e-06 2.1773183203715300e-05 0.0000000000000000e+00  2.9947697114375645e-06 2.5444081221897466e-05 0.0000000000000000e+00  3.3784657652659100e-06 2.9194559471541529e-05 0.0000000000000000e+00  3.7747782034349202e-06 3.2978768020295576e-05 0.0000000000000000e+00  4.1771764013103866e-06 3.6756724401448804e-05 0.0000000000000000e+00  4.5796450638470141e-06 4.0494775516428272e-05 0.0000000000000000e+00  4.9778526648805979e-06 4.4164910430281728e-05 0.0000000000000000e+00  5.3694583587855459e-06 4.7742968378510123e-05 0.0000000000000000e+00  5.7535042559195796e-06 5.1206896130586217e-05 0.0000000000000000e+00  6.1295354138435287e-06 5.4536327314917568e-05 0.0000000000000000e+00  6.4970081458425945e-06 5.7713196313480840e-05 0.0000000000000000e+00  6.8550878843356634e-06 6.0722244440054975e-05 0.0000000000000000e+00  7.2027421819217176e-06 6.3550812365966149e-05 0.0000000000000000e+00  7.5389751801417860e-06 6.6188355719692821e-05 0.0000000000000000e+00  7.8629420002819421e-06 6.8625914245777704e-05 0.0000000000000000e+00  8.1739437157258853e-06 7.0855407025970001e-05 0.0000000000000000e+00  8.4713859230503296e-06 7.2869067619974232e-05 0.0000000000000000e+00  8.7546576829688251e-06 7.4659292781676498e-05 0.0000000000000000e+00  9.0228751468363899e-06 7.6218586332849387e-05 0.0000000000000000e+00  9.2746195088026638e-06 7.7539358304641156e-05 0.0000000000000000e+00  9.5078302577176866e-06 7.8613845746465185e-05 0.0000000000000000e+00  9.7200784122827959e-06 7.9434445132078223e-05 0.0000000000000000e+00  9.9094573690288072e-06 7.9995680254017689e-05 0.0000000000000000e+00  1.0075683077957286e-05 8.0300204065221915e-05 0.0000000000000000e+00  1.0220670033169136e-05 8.0364658574347378e-05 0.0000000000000000e+00  1.0347897049973753e-05 8.0218633713961742e-05 0.0000000000000000e+00  1.0461763612700216e-05 7.9897934630997363e-05 0.0000000000000000e+00  1.0566337746805172e-05 7.9440892978160680e-05 0.0000000000000000e+00  1.0662093714357628e-05 7.8887151843259353e-05 0.0000000000000000e+00  1.0743399085716251e-05 7.8271107043470303e-05 0.0000000000000000e+00  1.0798026147859247e-05 7.7606642938318635e-05 0.0000000000000000e+00  1.0834931383840895e-05 7.6885901433296206e-05 0.0000000000000000e+00  1.0878781329093099e-05 7.6163143652817881e-05 0.0000000000000000e+00  1.2084908008867983e-05 7.6026877115349488e-05 0.0000000000000000e+00  1.2984725671540863e-05 7.6147662127531787e-05 0.0000000000000000e+00  1.4242698385547008e-05 7.6356769019880245e-05 0.0000000000000000e+00  1.5536535362472115e-05 7.6433027245776400e-05 0.0000000000000000e+00  1.6832831666104593e-05 7.6723445194581101e-05 0.0000000000000000e+00  1.8123163484579636e-05 7.7129107310287961e-05 0.0000000000000000e+00  1.9425421301744286e-05 7.7647035139305525e-05 0.0000000000000000e+00  2.0738483557637237e-05 7.8316070988842910e-05 0.0000000000000000e+00  2.2065451218982215e-05 7.9130110247234678e-05 0.0000000000000000e+00  2.3414842956395729e-05 8.0106465384666278e-05 0.0000000000000000e+00  2.4793606006145443e-05 8.1272215740039539e-05 0.0000000000000000e+00  2.6192345241062341e-05 8.2668579419163299e-05 0.0000000000000000e+00  2.7579915316007628e-05 8.4319716455235203e-05 0.0000000000000000e+00  2.8923705521940864e-05 8.6183122792156161e-05 0.0000000000000000e+00  3.0207325105349177e-05 8.8169448994302461e-05 0.0000000000000000e+00  3.1434226965853241e-05 9.0182065615597413e-05 0.0000000000000000e+00  3.2608983045007000e-05 9.2172423656028063e-05 0.0000000000000000e+00  3.3768034041602442e-05 9.4041729287518982e-05 0.0000000000000000e+00  3.4947569498636559e-05 9.5797070911078351e-05 0.0000000000000000e+00  3.6161420339928779e-05 9.7501542079620084e-05 0.0000000000000000e+00  3.7407118290737336e-05 9.9218992940991254e-05 0.0000000000000000e+00  3.8675933029512102e-05 1.0099580161914027e-04 0.0000000000000000e+00  3.9958369832528696e-05 1.0286039530388847e-04 0.0000000000000000e+00  4.1246005159889691e-05 1.0482782702120134e-04 0.0000000000000000e+00  4.2531688255293764e-05 1.0690439146315023e-04 0.0000000000000000e+00  4.3809291799771568e-05 1.0909101315617853e-04 0.0000000000000000e+00  4.5073431840998772e-05 1.1138551411467059e-04 0.0000000000000000e+00  4.6319246189829849e-05 1.1378404359571597e-04 0.0000000000000000e+00  4.7542232779532175e-05 1.1628191503056885e-04 0.0000000000000000e+00  4.8738142277939125e-05 1.1887403242059177e-04 0.0000000000000000e+00  4.9902914512839707e-05 1.2155506889078027e-04 0.0000000000000000e+00  5.1032644623573787e-05 1.2431951337788877e-04 0.0000000000000000e+00  5.2123568554215659e-05 1.2716165053762706e-04 0.0000000000000000e+00  5.3172063490102497e-05 1.3007550707218470e-04 0.0000000000000000e+00  5.4174662173784778e-05 1.3305478406517253e-04 0.0000000000000000e+00  5.5128080547410028e-05 1.3609278927520551e-04 0.0000000000000000e+00  5.6029257558224621e-05 1.3918237972324055e-04 0.0000000000000000e+00  5.6875405346212420e-05 1.4231592188626116e-04 0.0000000000000000e+00  5.7664067690557792e-05 1.4548527443418395e-04 0.0000000000000000e+