<?xml version="1.0"?>
<VTKFile type="UnstructuredGrid"  version="0.1"  >
<UnstructuredGrid>
<Piece  NumberOfPoints="5151" NumberOfCells="10000">
<Points>
<DataArray  type="Float64"  NumberOfComponents="3"  format="ascii">0 0 0  0.01 0 0  0.02 0 0  0.03 0 0  0.04 0 0  0.05 0 0  0.06 0 0  0.07000000000000001 0 0  0.08 0 0  0.09 0 0  0.1 0 0  0.11 0 0  0.12 0 0  0.13 0 0  0.14 0 0  0.15 0 0  0.16 0 0  0.17 0 0  0.18 0 0  0.19 0 0  0.2 0 0  0.21 0 0  0.22 0 0  0.23 0 0  0.24 0 0  0.25 0 0  0.26 0 0  0.27 0 0  0.28 0 0  0.29 0 0  0.3 0 0  0.31 0 0  0.32 0 0  0.33 0 0  0.34 0 0  0.35 0 0  0.36 0 0  0.37 0 0  0.38 0 0  0.39 0 0  0.4 0 0  0.41 0 0  0.42 0 0  0.43 0 0  0.44 0 0  0.45 0 0  0.46 0 0  0.47 0 0  0.48 0 0  0.49 0 0  0.5 0 0  0.51 0 0  0.52 0 0  0.53 0 0  0.54 0 0  0.55 0 0  0.5600000000000001 0 0  0.57 0 0  0.58 0 0  0.59 0 0  0.6 0 0  0.61 0 0  0.62 0 0  0.63 0 0  0.64 0 0  0.65 0 0  0.66 0 0  0.67 0 0  0.68 0 0  0.6899999999999999 0 0  0.7 0 0  0.71 0 0  0.72 0 0  0.73 0 0  0.74 0 0  0.75 0 0  0.76 0 0  0.77 0 0  0.78 0 0  0.79 0 0  0.8 0 0  0.8100000000000001 0 0  0.82 0 0  0.83 0 0  0.84 0 0  0.85 0 0  0.86 0 0  0.87 0 0  0.88 0 0  0.89 0 0  0.9 0 0  0.91 0 0  0.92 0 0  0.93 0 0  0.9399999999999999 0 0  0.95 0 0  0.96 0 0  0.97 0 0  0.98 0 0  0.99 0 0  1 0 0  0 0.01 0  0.01 0.01 0  0.02 0.01 0  0.03 0.01 0  0.04 0.01 0  0.05 0.01 0  0.06 0.01 0  0.07000000000000001 0.01 0  0.08 0.01 0  0.09 0.01 0  0.1 0.01 0  0.11 0.01 0  0.12 0.01 0  0.13 0.01 0  0.14 0.01 0  0.15 0.01 0  0.16 0.01 0  0.17 0.01 0  0.18 0.01 0  0.19 0.01 0  0.2 0.01 0  0.21 0.01 0  0.22 0.01 0  0.23 0.01 0  0.24 0.01 0  0.25 0.01 0  0.26 0.01 0  0.27 0.01 0  0.28 0.01 0  0.29 0.01 0  0.3 0.01 0  0.31 0.01 0  0.32 0.01 0  0.33 0.01 0  0.34 0.01 0  0.35 0.01 0  0.36 0.01 0  0.37 0.01 0  0.38 0.01 0  0.39 0.01 0  0.4 0.01 0  0.41 0.01 0  0.42 0.01 0  0.43 0.01 0  0.44 0.01 0  0.45 0.01 0  0.46 0.01 0  0.47 0.01 0  0.48 0.01 0  0.49 0.01 0  0.5 0.01 0  0.51 0.01 0  0.52 0.01 0  0.53 0.01 0  0.54 0.01 0  0.55 0.01 0  0.5600000000000001 0.01 0  0.57 0.01 0  0.58 0.01 0  0.59 0.01 0  0.6 0.01 0  0.61 0.01 0  0.62 0.01 0  0.63 0.01 0  0.64 0.01 0  0.65 0.01 0  0.66 0.01 0  0.67 0.01 0  0.68 0.01 0  0.6899999999999999 0.01 0  0.7 0.01 0  0.71 0.01 0  0.72 0.01 0  0.73 0.01 0  0.74 0.01 0  0.75 0.01 0  0.76 0.01 0  0.77 0.01 0  0.78 0.01 0  0.79 0.01 0  0.8 0.01 0  0.8100000000000001 0.01 0  0.82 0.01 0  0.83 0.01 0  0.84 0.01 0  0.85 0.01 0  0.86 0.01 0  0.87 0.01 0  0.88 0.01 0  0.89 0.01 0  0.9 0.01 0  0.91 0.01 0  0.92 0.01 0  0.93 0.01 0  0.9399999999999999 0.01 0  0.95 0.01 0  0.96 0.01 0  0.97 0.01 0  0.98 0.01 0  0.99 0.01 0  1 0.01 0  0 0.02 0  0.01 0.02 0  0.02 0.02 0  0.03 0.02 0  0.04 0.02 0  0.05 0.02 0  0.06 0.02 0  0.07000000000000001 0.02 0  0.08 0.02 0  0.09 0.02 0  0.1 0.02 0  0.11 0.02 0  0.12 0.02 0  0.13 0.02 0  0.14 0.02 0  0.15 0.02 0  0.16 0.02 0  0.17 0.02 0  0.18 0.02 0  0.19 0.02 0  0.2 0.02 0  0.21 0.02 0  0.22 0.02 0  0.23 0.02 0  0.24 0.02 0  0.25 0.02 0  0.26 0.02 0  0.27 0.02 0  0.28 0.02 0  0.29 0.02 0  0.3 0.02 0  0.31 0.02 0  0.32 0.02 0  0.33 0.02 0  0.34 0.02 0  0.35 0.02 0  0.36 0.02 0  0.37 0.02 0  0.38 0.02 0  0.39 0.02 0  0.4 0.02 0  0.41 0.02 0  0.42 0.02 0  0.43 0.02 0  0.44 0.02 0  0.45 0.02 0  0.46 0.02 0  0.47 0.02 0  0.48 0.02 0  0.49 0.02 0  0.5 0.02 0  0.51 0.02 0  0.52 0.02 0  0.53 0.02 0  0.54 0.02 0  0.55 0.02 0  0.5600000000000001 0.02 0  0.57 0.02 0  0.58 0.02 0  0.59 0.02 0  0.6 0.02 0  0.61 0.02 0  0.62 0.02 0  0.63 0.02 0  0.64 0.02 0  0.65 0.02 0  0.66 0.02 0  0.67 0.02 0  0.68 0.02 0  0.6899999999999999 0.02 0  0.7 0.02 0  0.71 0.02 0  0.72 0.02 0  0.73 0.02 0  0.74 0.02 0  0.75 0.02 0  0.76 0.02 0  0.77 0.02 0  0.78 0.02 0  0.79 0.02 0  0.8 0.02 0  0.8100000000000001 0.02 0  0.82 0.02 0  0.83 0.02 0  0.84 0.02 0  0.85 0.02 0  0.86 0.02 0  0.87 0.02 0  0.88 0.02 0  0.89 0.02 0  0.9 0.02 0  0.91 0.02 0  0.92 0.02 0  0.93 0.02 0  0.9399999999999999 0.02 0  0.95 0.02 0  0.96 0.02 0  0.97 0.02 0  0.98 0.02 0  0.99 0.02 0  1 0.02 0  0 0.03 0  0.01 0.03 0  0.02 0.03 0  0.03 0.03 0  0.04 0.03 0  0.05 0.03 0  0.06 0.03 0  0.07000000000000001 0.03 0  0.08 0.03 0  0.09 0.03 0  0.1 0.03 0  0.11 0.03 0  0.12 0.03 0  0.13 0.03 0  0.14 0.03 0  0.15 0.03 0  0.16 0.03 0  0.17 0.03 0  0.18 0.03 0  0.19 0.03 0  0.2 0.03 0  0.21 0.03 0  0.22 0.03 0  0.23 0.03 0  0.24 0.03 0  0.25 0.03 0  0.26 0.03 0  0.27 0.03 0  0.28 0.03 0  0.29 0.03 0  0.3 0.03 0  0.31 0.03 0  0.32 0.03 0  0.33 0.03 0  0.34 0.03 0  0.35 0.03 0  0.36 0.03 0  0.37 0.03 0  0.38 0.03 0  0.39 0.03 0  0.4 0.03 0  0.41 0.03 0  0.42 0.03 0  0.43 0.03 0  0.44 0.03 0  0.45 0.03 0  0.46 0.03 0  0.47 0.03 0  0.48 0.03 0  0.49 0.03 0  0.5 0.03 0  0.51 0.03 0  0.52 0.03 0  0.53 0.03 0  0.54 0.03 0  0.55 0.03 0  0.5600000000000001 0.03 0  0.57 0.03 0  0.58 0.03 0  0.59 0.03 0  0.6 0.03 0  0.61 0.03 0  0.62 0.03 0  0.63 0.03 0  0.64 0.03 0  0.65 0.03 0  0.66 0.03 0  0.67 0.03 0  0.68 0.03 0  0.6899999999999999 0.03 0  0.7 0.03 0  0.71 0.03 0  0.72 0.03 0  0.73 0.03 0  0.74 0.03 0  0.75 0.03 0  0.76 0.03 0  0.77 0.03 0  0.78 0.03 0  0.79 0.03 0  0.8 0.03 0  0.8100000000000001 0.03 0  0.82 0.03 0  0.83 0.03 0  0.84 0.03 0  0.85 0.03 0  0.86 0.03 0  0.87 0.03 0  0.88 0.03 0  0.89 0.03 0  0.9 0.03 0  0.91 0.03 0  0.92 0.03 0  0.93 0.03 0  0.9399999999999999 0.03 0  0.95 0.03 0  0.96 0.03 0  0.97 0.03 0  0.98 0.03 0  0.99 0.03 0  1 0.03 0  0 0.04 0  0.01 0.04 0  0.02 0.04 0  0.03 0.04 0  0.04 0.04 0  0.05 0.04 0  0.06 0.04 0  0.07000000000000001 0.04 0  0.08 0.04 0  0.09 0.04 0  0.1 0.04 0  0.11 0.04 0  0.12 0.04 0  0.13 0.04 0  0.14 0.04 0  0.15 0.04 0  0.16 0.04 0  0.17 0.04 0  0.18 0.04 0  0.19 0.04 0  0.2 0.04 0  0.21 0.04 0  0.22 0.04 0  0.23 0.04 0  0.24 0.04 0  0.25 0.04 0  0.26 0.04 0  0.27 0.04 0  0.28 0.04 0  0.29 0.04 0  0.3 0.04 0  0.31 0.04 0  0.32 0.04 0  0.33 0.04 0  0.34 0.04 0  0.35 0.04 0  0.36 0.04 0  0.37 0.04 0  0.38 0.04 0  0.39 0.04 0  0.4 0.04 0  0.41 0.04 0  0.42 0.04 0  0.43 0.04 0  0.44 0.04 0  0.45 0.04 0  0.46 0.04 0  0.47 0.04 0  0.48 0.04 0  0.49 0.04 0  0.5 0.04 0  0.51 0.04 0  0.52 0.04 0  0.53 0.04 0  0.54 0.04 0  0.55 0.04 0  0.5600000000000001 0.04 0  0.57 0.04 0  0.58 0.04 0  0.59 0.04 0  0.6 0.04 0  0.61 0.04 0  0.62 0.04 0  0.63 0.04 0  0.64 0.04 0  0.65 0.04 0  0.66 0.04 0  0.67 0.04 0  0.68 0.04 0  0.6899999999999999 0.04 0  0.7 0.04 0  0.71 0.04 0  0.72 0.04 0  0.73 0.04 0  0.74 0.04 0  0.75 0.04 0  0.76 0.04 0  0.77 0.04 0  0.78 0.04 0  0.79 0.04 0  0.8 0.04 0  0.8100000000000001 0.04 0  0.82 0.04 0  0.83 0.04 0  0.84 0.04 0  0.85 0.04 0  0.86 0.04 0  0.87 0.04 0  0.88 0.04 0  0.89 0.04 0  0.9 0.04 0  0.91 0.04 0  0.92 0.04 0  0.93 0.04 0  0.9399999999999999 0.04 0  0.95 0.04 0  0.96 0.04 0  0.97 0.04 0  0.98 0.04 0  0.99 0.04 0  1 0.04 0  0 0.05 0  0.01 0.05 0  0.02 0.05 0  0.03 0.05 0  0.04 0.05 0  0.05 0.05 0  0.06 0.05 0  0.07000000000000001 0.05 0  0.08 0.05 0  0.09 0.05 0  0.1 0.05 0  0.11 0.05 0  0.12 0.05 0  0.13 0.05 0  0.14 0.05 0  0.15 0.05 0  0.16 0.05 0  0.17 0.05 0  0.18 0.05 0  0.19 0.05 0  0.2 0.05 0  0.21 0.05 0  0.22 0.05 0  0.23 0.05 0  0.24 0.05 0  0.25 0.05 0  0.26 0.05 0  0.27 0.05 0  0.28 0.05 0  0.29 0.05 0  0.3 0.05 0  0.31 0.05 0  0.32 0.05 0  0.33 0.05 0  0.34 0.05 0  0.35 0.05 0  0.36 0.05 0  0.37 0.05 0  0.38 0.05 0  0.39 0.05 0  0.4 0.05 0  0.41 0.05 0  0.42 0.05 0  0.43 0.05 0  0.44 0.05 0  0.45 0.05 0  0.46 0.05 0  0.47 0.05 0  0.48 0.05 0  0.49 0.05 0  0.5 0.05 0  0.51 0.05 0  0.52 0.05 0  0.53 0.05 0  0.54 0.05 0  0.55 0.05 0  0.5600000000000001 0.05 0  0.57 0.05 0  0.58 0.05 0  0.59 0.05 0  0.6 0.05 0  0.61 0.05 0  0.62 0.05 0  0.63 0.05 0  0.64 0.05 0  0.65 0.05 0  0.66 0.05 0  0.67 0.05 0  0.68 0.05 0  0.6899999999999999 0.05 0  0.7 0.05 0  0.71 0.05 0  0.72 0.05 0  0.73 0.05 0  0.74 0.05 0  0.75 0.05 0  0.76 0.05 0  0.77 0.05 0  0.78 0.05 0  0.79 0.05 0  0.8 0.05 0  0.8100000000000001 0.05 0  0.82 0.05 0  0.83 0.05 0  0.84 0.05 0  0.85 0.05 0  0.86 0.05 0  0.87 0.05 0  0.88 0.05 0  0.89 0.05 0  0.9 0.05 0  0.91 0.05 0  0.92 0.05 0  0.93 0.05 0  0.9399999999999999 0.05 0  0.95 0.05 0  0.96 0.05 0  0.97 0.05 0  0.98 0.05 0  0.99 0.05 0  1 0.05 0  0 0.06 0  0.01 0.06 0  0.02 0.06 0  0.03 0.06 0  0.04 0.06 0  0.05 0.06 0  0.06 0.06 0  0.07000000000000001 0.06 0  0.08 0.06 0  0.09 0.06 0  0.1 0.06 0  0.11 0.06 0  0.12 0.06 0  0.13 0.06 0  0.14 0.06 0  0.15 0.06 0  0.16 0.06 0  0.17 0.06 0  0.18 0.06 0  0.19 0.06 0  0.2 0.06 0  0.21 0.06 0  0.22 0.06 0  0.23 0.06 0  0.24 0.06 0  0.25 0.06 0  0.26 0.06 0  0.27 0.06 0  0.28 0.06 0  0.29 0.06 0  0.3 0.06 0  0.31 0.06 0  0.32 0.06 0  0.33 0.06 0  0.34 0.06 0  0.35 0.06 0  0.36 0.06 0  0.37 0.06 0  0.38 0.06 0  0.39 0.06 0  0.4 0.06 0  0.41 0.06 0  0.42 0.06 0  0.43 0.06 0  0.44 0.06 0  0.45 0.06 0  0.46 0.06 0  0.47 0.06 0  0.48 0.06 0  0.49 0.06 0  0.5 0.06 0  0.51 0.06 0  0.52 0.06 0  0.53 0.06 0  0.54 0.06 0  0.55 0.06 0  0.5600000000000001 0.06 0  0.57 0.06 0  0.58 0.06 0  0.59 0.06 0  0.6 0.06 0  0.61 0.06 0  0.62 0.06 0  0.63 0.06 0  0.64 0.06 0  0.65 0.06 0  0.66 0.06 0  0.67 0.06 0  0.68 0.06 0  0.6899999999999999 0.06 0  0.7 0.06 0  0.71 0.06 0  0.72 0.06 0  0.73 0.06 0  0.74 0.06 0  0.75 0.06 0  0.76 0.06 0  0.77 0.06 0  0.78 0.06 0  0.79 0.06 0  0.8 0.06 0  0.8100000000000001 0.06 0  0.82 0.06 0  0.83 0.06 0  0.84 0.06 0  0.85 0.06 0  0.86 0.06 0  0.87 0.06 0  0.88 0.06 0  0.89 0.06 0  0.9 0.06 0  0.91 0.06 0  0.92 0.06 0  0.93 0.06 0  0.9399999999999999 0.06 0  0.95 0.06 0  0.96 0.06 0  0.97 0.06 0  0.98 0.06 0  0.99 0.06 0  1 0.06 0  0 0.07000000000000001 0  0.01 0.07000000000000001 0  0.02 0.07000000000000001 0  0.03 0.07000000000000001 0  0.04 0.07000000000000001 0  0.05 0.07000000000000001 0  0.06 0.07000000000000001 0  0.07000000000000001 0.07000000000000001 0  0.08 0.07000000000000001 0  0.09 0.07000000000000001 0  0.1 0.07000000000000001 0  0.11 0.07000000000000001 0  0.12 0.07000000000000001 0  0.13 0.07000000000000001 0  0.14 0.07000000000000001 0  0.15 0.07000000000000001 0  0.16 0.07000000000000001 0  0.17 0.07000
[...]
<PointData  Scalars="rho"> 
<DataArray  type="Float64"  Name="rho"  format="ascii">9.8506397595930006e-01  9.7950605524231493e-01  9.7908619408923148e-01  9.5845043332214230e-01  9.5657852880779959e-01  9.5244915375471118e-01  9.5249686970217751e-01  9.6151214877007374e-01  9.6640283712731700e-01  9.7329100404530566e-01  9.8008843309269311e-01  9.9331639572788000e-01  9.9979013392689220e-01  9.9992610970783791e-01  9.9993084286511302e-01  9.9993144715671944e-01  9.9992880072712875e-01  9.9994649427695681e-01  9.9995138801827521e-01  9.9993763326475793e-01  9.9994520248077046e-01  9.9994366907574861e-01  9.9994348359721286e-01  9.9994444983109798e-01  9.9994621929082161e-01  9.9994839170671934e-01  9.9995060340934250e-01  9.9994311665679381e-01  9.9988525981227405e-01  9.9990640469103498e-01  9.9863916192632363e-01  9.4837605699634764e-01  8.9646400058527653e-01  8.4965177806158998e-01  6.3052090541672401e-01  7.1177114700095667e-01  6.5830096397087434e-01  5.7028794903379421e-01  4.8345945848055577e-01  3.9322847742935418e-01  1.2692294693422826e-01  5.5177580560497999e-02  2.8533223593232935e-04  2.9544330985554909e-04  2.4326026734224366e-04  2.3137907339026119e-04  1.7860479367399497e-04  1.3595062490779700e-04  1.0338885475471635e-04  4.6782044209105385e-05  3.6815843492064233e-05  2.9812183018333041e-05  2.4847237874967348e-05  2.1208360504295267e-05  8.6827489776935806e-05  3.8990260333352850e-04  6.5821012795043616e-04  1.0429123370739835e-03  1.2459358803640676e-03  1.5573532105801935e-03  1.5958442027357324e-03  1.5570414187294904e-03  1.5613446077225547e-03  1.8982775496522986e-03  1.2607876896481673e-03  1.2243364097073506e-03  1.0489533876163765e-03  7.7581317357181641e-04  5.8532598297275553e-04  7.6883717553167500e-04  4.4574227536935758e-04  3.9079605244375469e-04  2.8810166500687902e-04  2.3092839771522597e-04  1.8207264818989569e-04  1.5825390826058704e-04  1.2155628723814923e-04  9.1082564998726251e-05  6.5999651323021398e-05  4.5551459021112995e-05  2.0027550907318635e-05  0.0000000000000000e+00  0.0000000000000000e+00  0.0000000000000000e+00  0.0000000000000000e+00  0.0000000000000000e+00  0.0000000000000000e+00  0.0000000000000000e+00  0.0000000000000000e+00  0.0000000000000000e+00  0.0000000000000000e+00  0.0000000000000000e+00  0.0000000000000000e+00  0.0000000000000000e+00  0.0000000000000000e+00  0.0000000000000000e+00  0.0000000000000000e+00  0.0000000000000000e+00  0.0000000000000000e+00  0.0000000000000000e+00  0.0000000000000000e+00  9.7955520569345023e-01  9.6672246160922304e-01  9.6056044164717602e-01  9.3064610569930328e-01  9.2736396502756591e-01  9.1971314810592475e-01  9.1930092456647805e-01  9.3193328462752367e-01  9.3871134306479476e-01  9.4870525223266200e-01  9.5918459119546629e-01  9.7800596841833987e-01  9.9954897804832288e-01  9.9905718888183126e-01  9.9984352190374060e-01  9.9984639048399881e-01  9.9986725865961557e-01  9.9985849132151361e-01  9.9989329614335420e-01  9.9986332816566925e-01  9.9987989908964281e-01  9.9987635595859370e-01  9.9987561380059464e-01  9.9987724341167927e-01  9.9988047402498847e-01  9.9988440691260771e-01  9.9988820386249921e-01  9.9986950194847501e-01  9.9977508815864491e-01  9.9660352592711365e-01  9.9383252096052743e-01  9.9187227622383389e-01  9.8963267809089894e-01  9.8816628597833800e-01  6.1540206008010268e-01  8.1397616649720728e-01  7.6327164427357996e-01  6.8841565673357896e-01  5.3804805771596342e-01  4.4818307758809200e-01  1.1419961216953757e-01  1.5724971902523958e-03  5.5760234639558749e-04  5.7762971024481464e-04  5.7227274127424454e-04  4.5468546258622131e-04  3.5162258791645939e-04  2.6809319068151508e-04  2.0430302978436776e-04  9.2720702432078981e-05  7.3277524541346770e-05  5.9664589931986938e-05  5.0044518493775987e-05  4.2994198136856858e-05  4.1012880714380074e-04  8.6870704973139742e-04  1.5121866740499879e-03  2.1714015357520446e-03  2.4798395972657795e-03  3.0360477049138973e-03  3.0900736276717909e-03  3.2678669212514938e-03  3.5787114265690037e-03  2.8518255620674777e-03  3.0498398876921138e-03  2.8751047978701713e-03  2.4670490411741169e-03  1.6739633555885051e-03  1.1944984675736196e-03  1.6963099545242758e-03  9.1940156637875209e-04  8.0880327850601857e-04  6.0165694503137922e-04  4.8445511989502783e-04  3.8372366991124137e-04  3.3390818762292875e-04  2.5761506377341086e-04  1.9398027888352129e-04  1.4139498416857870e-04  9.8371417115319021e-05  4.4991919866744648e-05  0.0000000000000000e+00  0.0000000000000000e+00  0.0000000000000000e+00  0.0000000000000000e+00  0.0000000000000000e+00  0.0000000000000000e+00  0.0000000000000000e+00  0.0000000000000000e+00  0.0000000000000000e+00  0.0000000000000000e+00  0.0000000000000000e+00  0.0000000000000000e+00  0.0000000000000000e+00  0.0000000000000000e+00  0.0000000000000000e+00  0.0000000000000000e+00  0.0000000000000000e+00  0.0000000000000000e+00  0.0000000000000000e+00  0.0000000000000000e+00  9.5591829658447625e-01  9.2938790140651006e-01  9.2586382814840051e-01  9.2087298663212613e-01  9.1521713944414096e-01  9.0526231232280718e-01  9.0523613419797699e-01  9.1116330409352486e-01  9.2737457157750613e-01  9.1674349236824937e-01  8.9974760829120692e-01  9.1372468287788722e-01  9.3426566204714812e-01  9.5061173700189194e-01  9.6826035267468968e-01  9.9986710094724141e-01  9.9983235424781736e-01  9.9987145360626684e-01  9.9988106929345488e-01  9.9984556021754911e-01  9.9986350762702469e-01  9.9985956567399048e-01  9.9985941127406874e-01  9.9986225174016663e-01  9.9986693935147841e-01  9.9987222716582735e-01  9.9987697821039767e-01  9.9975003927178574e-01  9.9894451251235139e-01  9.6812310454240491e-01  8.9090525543366395e-01  7.7408275931451564e-01  6.8485400398351703e-01  6.6187865005716751e-01  6.0742638313113739e-01  7.9478637353245440e-01  7.7913008631217084e-01  5.9190038793623467e-01  5.4582219723149150e-01  3.8479046125519889e-01  2.8244659613650797e-01  1.0600911839443247e-01  4.4809090291293228e-02  6.4069344345689622e-04  6.0670345865062106e-04  4.6372614028186444e-04  3.4718973062391627e-04  2.5848976727197142e-04  1.9457641921720347e-04  8.8363003034614939e-05  7.0724624216349680e-05  7.0583767078850063e-05  6.0658443223900840e-05  2.8547648183020643e-04  7.3506764417008809e-04  1.2360038668567457e-03  2.2978613227941768e-03  2.7524212668972579e-03  3.4227792660537575e-03  3.5647166835101303e-03  3.6419176566744810e-03  4.0611474749397431e-03  3.6990962609839504e-03  4.0659528430183065e-03  3.9415719788609260e-03  3.5019431321191476e-03  2.8810527507994294e-03  1.9082834402322948e-03  1.2759045495270389e-03  1.4999624514971679e-03  1.0245887799468813e-03  8.4672361705265503e-04  6.2722340382084807e-04  5.0238388986974464e-04  4.3741598305226267e-04  3.4235833465565092e-04  2.6203153692869093e-04  1.9523117545550600e-04  1.4020502683616685e-04  9.5344669852204169e-05  3.9492014472437768e-05  0.0000000000000000e+00  0.0000000000000000e+00  0.0000000000000000e+00  0.0000000000000000e+00  0.0000000000000000e+00  0.0000000000000000e+00  0.0000000000000000e+00  0.0000000000000000e+00  0.0000000000000000e+00  0.0000000000000000e+00  0.0000000000000000e+00  0.0000000000000000e+00  0.0000000000000000e+00  0.0000000000000000e+00  0.0000000000000000e+00  0.0000000000000000e+00  0.0000000000000000e+00  0.0000000000000000e+00  0.0000000000000000e+00  0.0000000000000000e+00  9.1345742839644162e-01  9.1349879387103206e-01  8.6088198900294155e-01  8.4272516326676883e-01  8.3033776879982402e-01  8.1813695446194934e-01  8.0812072979676541e-01  8.0342407849187880e-01  8.1763621051094859e-01  8.2007888110537464e-01  8.5344076520865575e-01  8.0983173549104137e-01  8.1194390221717683e-01  8.0939721350060267e-01  7.9329197476054880e-01  8.0448457406728446e-01  8.2027686080106410e-01  8.4948885221377513e-01  9.1559145644517714e-01  9.5095668175549597e-01  9.9975772866340429e-01  9.9979443080125840e-01  9.9982992141817228e-01  9.9983522540320757e-01  9.9984275456222760e-01  9.9982077069905839e-01  9.5119937263750975e-01  8.9880310381995332e-01  9.1000512408885070e-01  8.8811868059291721e-01  8.0403174497569574e-01  7.0770172272690490e-01  6.3528798023007449e-01  6.0057726498039044e-01  5.6509725168750224e-01  7.4831719010212128e-01  6.3142186388738064e-01  6.9747422956559646e-01  5.9440345983892051e-01  4.8426947825503591e-01  3.4768918864207232e-01  2.8566823080754250e-01  2.4618757495295135e-01  9.6476089067246237e-02  6.5669024649507471e-04  4.6876527313676034e-04  3.3161474776569782e-04  2.3708131743626230e-04  1.7550847646901192e-04  9.6555664505552525e-05  7.9745688918251184e-05  6.5987044288155585e-05  5.9280454764380635e-05  7.7972744766680025e-04  1.3903376282231529e-03  2.4739462442637415e-03  3.3930092786000057e-03  3.6324956862421277e-03  4.4486167410215756e-03  4.7935979502230471e-03  5.7213493878977327e-03  5.9319795212407012e-03  6.2900809074893545e-03  6.0300023882022364e-03  5.3787738152318203e-03  4.5076122038980046e-03  3.2324318579745092e-03  2.2751390492639061e-03  1.4142468858992544e-03  1.2090114573991167e-03  1.1095657008080961e-03  8.3091781029736439e-04  7.3334793947269687e-04  5.8495939318838302e-04  4.6103294725101341e-04  3.5663102202412113e-04  2.6939038201798240e-04  1.9715616883979916e-04  1.3793776483004406e-04  8.9921483168975554e-05  0.0000000000000000e+00  0.0000000000000000e+00  0.0000000000000000e+00  0.0000000000000000e+00  0.0000000000000000e+00  0.0000000000000000e+00  0.0000000000000000e+00  0.0000000000000000e+00  0.0000000000000000e+00  0.0000000000000000e+00  0.0000000000000000e+00  0.0000000000000000e+00  0.0000000000000000e+00  0.0000000000000000e+00  0.0000000000000000e+00  0.0000000000000000e+00  0.0000000000000000e+00  0.0000000000000000e+00  0.0000000000000000e+00  0.0000000000000000e+00  0.0000000000000000e+00  8.1826271697139363e-01  7.4412156541288887e-01  7.3226927136195552e-01  7.1316883839752498e-01  6.2547315298813400e-01  5.7616771947700263e-01  5.8766783400921374e-01  5.1864279846942762e-01  4.0005422389832329e-01  3.1324580677147407e-01  2.9971701775003651e-01  2.7794064825360859e-01  3.0279468471864773e-01  3.2151751198114076e-01  3.2309172482556470e-01  3.8290593221292629e-01  5.2034986879938838e-01  5.3437233748333912e-01  6.6361621901221313e-01  6.0234504575229764e-01  6.5693793920576526e-01  7.2151567146806894e-01  5.5330056604296207e-01  6.7244592006175175e-01  7.5336352454766842e-01  6.6817804858338903e-01  6.8774506988520068e-01  7.0148618968896470e-01  6.8419111600500349e-01  6.6527001879963299e-01  6.4673261335312404e-01  6.3006526700276910e-01  5.6198485290835687e-01  5.4511462915213660e-01  5.5921215238725197e-01  5.7955069937958881e-01  7.2251997019284164e-01  5.8276894497196963e-01  7.9233023045501627e-01  7.6258633800484898e-01  6.5121031455037315e-01  4.4342508047417822e-01  3.7851722719001230e-01  3.1400930124727189e-01  1.6623243259516923e-01  4.6787075118239244e-04  2.9671236022550126e-04  3.3790523654586297e-04  1.7266406318686923e-04  8.0237766117795720e-05  7.1295604542159159e-05  6.6681237006366783e-05  1.0822973249712694e-03  1.6713786640811352e-03  3.3899700307676787e-03  4.4904571406208828e-03  4.8137343551697218e-03  5.8716936591189936e-03  6.9682950700180853e-03  8.5063937153349589e-03  1.0234938516033000e-02  1.0376906749908222e-02  9.7366475149721007e-03  8.6211760233257540e-03  7.2580039718835674e-03  5.8078723906576394e-03  4.0431172793093358e-03  2.5676024639535592e-03  1.6107126324819588e-03  1.4909745612058439e-03  1.1262753872407693e-03  9.9429046029639399e-04  7.9766607158662317e-04  7.1585681366331789e-04  4.9290985363308211e-04  3.7608707671602285e-04  2.7893104937689369e-04  1.9889991235986680e-04  1.3366924536977449e-04  3.4633699052996281e-05  0.0000000000000000e+00  0.0000000000000000e+00  0.0000000000000000e+00  0.0000000000000000e+00  0.0000000000000000e+00  0.0000000000000000e+00  0.0000000000000000e+00  0.0000000000000000e+00  0.0000000000000000e+00  0.0000000000000000e+00  0.0000000000000000e+00  0.0000000000000000e+00  0.0000000000000000e+00  0.0000000000000000e+00  0.0000000000000000e+00  0.0000000000000000e+00  0.0000000000000000e+00  0.0000000000000000e+00  0.0000000000000000e+00  0.0000000000000000e+00  0.0000000000000000e+00  4.1418142043195327e-01  2.8888035936621398e-01  2.5636833851583124e-01  1.9540710299719893e-01  7.4744478556982283e-02  1.9049983508762588e-03  2.7244529791792645e-04  2.5285933153166971e-04  2.5474355191214786e-04  2.7879760038059659e-04  2.7031530600828650e-04  3.1867931381039958e-04  3.1734661394068062e-03  7.6375156292993497e-03  6.5023921816814200e-03  7.9005458341236071e-03  9.4671515567380741e-03  1.5548371823332867e-02  2.1568519064264876e-02  2.9319319985044699e-02  2.9117022320831989e-02  3.5847648796950397e-02  3.2142630757009190e-02  2.9817005207495514e-02  4.5343081145403481e-02  1.4059458027980448e-01  1.1205569358379469e-01  1.4746306933748096e-01  3.1582503483303409e-01  2.0294062418134384e-01  1.9995260611744628e-01  3.3436389107480957e-01  4.0750974179134636e-01  4.4697494247427783e-01  4.7198190014497049e-01  6.1608640645813373e-01  5.3368977844684806e-01  5.3913409242514121e-01  6.7036731906880720e-01  8.3500781326290918e-01  8.4620492641778211e-01  7.8016168214426773e-01  5.5928201015158741e-01  5.1705138814376128e-01  4.6005695590130186e-01  3.1356848661049702e-01  3.4556326600348753e-04  2.7313506709415308e-04  2.0543052494155763e-04  5.0495191736051135e-04  5.8424594021326787e-04  1.8439589844842447e-03  2.0256000398184426e-03  4.7406153771852935e-03  6.1273069848949684e-03  6.5594875341931968e-03  7.9613792568424355e-03  1.0274673368995155e-02  1.3313566190992073e-02  1.5443377190906602e-02  1.4986864083604464e-02  1.3471404289432522e-02  1.3847667978345638e-02  1.1673114188728725e-02  9.4408821101508462e-03  6.9033681895580004e-03  4.9374623640307579e-03  2.1922082424338392e-03  1.9073996210411004e-03  1.6908564308893781e-03  1.3725744330126697e-03  1.1069321032150462e-03  9.8203519018609325e-04  6.9250208104518142e-04  5.3303779982051579e-04  3.9982931118946930e-04  2.8957134406504937e-04  1.4443068085681892e-04  7.3055284366808514e-05  1.4903557967699521e-05  0.0000000000000000e+00  0.0000000000000000e+00  0.0000000000000000e+00  0.0000000000000000e+00  0.0000000000000000e+00  0.0000000000000000e+00  0.0000000000000000e+00  0.0000000000000000e+00  0.0000000000000000e+00  0.0000000000000000e+00  0.0000000000000000e+00  0.0000000000000000e+00  0.0000000000000000e+00  0.0000000000000000e+00  0.0000000000000000e+00  0.0000000000000000e+00  0.0000000000000000e+00  0.0000000000000000e+00  0.0000000000000000e+00  0.0000000000000000e+00  0.0000000000000000e+00  1.8361722340706099e-04  3.4777792409401768e-04  3.3309320898919251e-04  3.0881522429415567e-04  2.8018254661111550e-04  2.5239969334952368e-04  2.3034296370373511e-04  2.1885160397208591e-04  2.2112260959357747e-04  2.3736065543812437e-04  2.6713061058081494e-04  2.5321134897706365e-04  2.3820916639846492e-03  6.0022961604253222e-03  5.9172822770933694e-03  6.2291637171546345e-03  8.8482481935488327e-03  8.7006870502068599e-03  1.2631703864711269e-02  1.6315461428247902e-02  1.8523137401279310e-02  2.0602234772646628e-02  1.8273307198492392e-02  1.6141483166258401e-02  1.7466116476413766e-02  1.8828499686844379e-02  1.9757733088217322e-02  2.0018695584366402e-02  1.9443589157805231e-02  1.7940390870163660e-02  1.5509718474900092e-02  1.1741120101782396e-02  9.5860373643791852e-03  4.9097582302563775e-03  2.7669622922923359e-01  4.1922969617295219e-01  4.7199094998135432e-01  5.0099474393929366e-01  5.3694908588258639e-01  6.3002645648794564e-01  7.9348933787764653e-01  9.0997444417588758e-01  7.3158142754427857e-01  7.0778665336146429e-01  7.5445237133145726e-01  9.1722904696527285e-01  8.8504232378107395e-01  6.2669282604116749e-01  1.8190885010644348e-01  1.3927448168899550e-03  1.3810470097530437e-03  2.6975670043500417e-03  6.7705286598180817e-03  8.2163602892769451e-03  8.9849072460131858e-03  7.1727047464233426e-03  2.0007759868393607e-02  2.3324673194722364e-02  2.6886776193194937e-02  2.3919143263141481e-02  1.9391044539832581e-02  1.4093313280886796e-02  1.8378938042029402e-02  1.4978348297677876e-02  1.1314834673621913e-02  8.3961337982933759e-03  5.6323428152085424e-03  2.6324522711773475e-03  2.4113893421958319e-03  1.9175880555796646e-03  1.5551296010001138e-03  1.2444159577708563e-03  9.8561354368014147e-04  7.6541440405622420e-04  5.8053663205279973e-04  4.2667607465166161e-04  2.3913981773875223e-04  1.3751665337897366e-04  5.3823026886434867e-05  0.0000000000000000e+00  0.0000000000000000e+00  0.0000000000000000e+00  0.0000000000000000e+00  0.0000000000000000e+00  0.0000000000000000e+00  0.0000000000000000e+00  0.0000000000000000e+00  0.0000000000000000e+00  0.0000000000000000e+00  0.0000000000000000e+00  0.0000000000000000e+00  0.0000000000000000e+00  0.0000000000000000e+00  0.0000000000000000e+00  0.0000000000000000e+00  0.0000000000000000e+00  0.0000000000000000e+00  0.0000000000000000e+00  0.0000000000000000e+00  0.0000000000000000e+00  0.0000000000000000e+00  1.4054160654994836e-04  2.7090016870895487e-04  2.6100493385093100e-04  2.4572236504060113e-04  2.2780969037339188e-04  2.1052605504176444e-04  1.9707737486142002e-04  1.9030444022975976e-04  1.9195621575937379e-04  1.4145353520689688e-04  2.2069800171237364e-04  2.0260761483452893e-04  1.9988149157255520e-03  4.8760097337902436e-03  4.8142884834359466e-03  5.1849406711057056e-03  7.3392341994189762e-03  8.4841773182078584e-03  8.3035723833030997e-03  1.0982128108820766e-02  1.2643378993510035e-02  1.2678188193594415e-02  1.1717343965931857e-02  1.3749912206109407e-02  1.4808707990804479e-02  1.5646741570469806e-02  1.6084550446178975e-02  1.5950263873191740e-02  1.5107776706628967e-02  1.3538756557884378e-02  1.2029971643804668e-02  9.3039815612634569e-03  5.6205997488938944e-03  2.8079606257158983e-03  6.7258064806667225e-04  8.2715104223174282e-02  2.3477085150702848e-01  4.0361132518834508e-01  4.8114965974455781e-01  5.3452704727160860e-01  5.9944341998397910e-01  7.1205966925615860e-01  8.0208961766471087e-01  9.7972683866407184e-01  9.7039170044703782e-01  9.5269862282783180e-01  9.3734103909264566e-01  9.1638084422397903e-01  9.0616567015085692e-01  8.8507795561222435e-01  8.8196407594514259e-01  8.0682960577006357e-01  3.9326810269072304e-01  2.0819981612929836e-01  1.1548637702883151e-02  4.4468897275451405e-02  4.3960152897190637e-02  5.0876233001438453e-02  4.4625466444286881e-02  3.7444047790317896e-02  2.8726913925197783e-02  2.0306949899865676e-02  2.1168154149526955e-02  1.8291836597155112e-02  1.3526790728124755e-02  9.7862394687233366e-03  4.7349645980159037e-03  3.1465969657674783e-03  2.6917316364187360e-03  2.1970527665669736e-03  1.7709552529498929e-03  1.4130340987569209e-03  1.1079288030183838e-03  8.5018492892503903e-04  5.6208227051214403e-04  3.9006883304729595e-04  2.4487394008272358e-04  1.2389942887432881e-04  2.4701407892431111e-05  0.0000000000000000e+00  0.0000000000000000e+00  0.0000000000000000e+00  0.0000000000000000e+00  0.0000000000000000e+00  0.0000000000000000e+00  0.0000000000000000e+00  0.0000000000000000e+00  0.0000000000000000e+00  0.0000000000000000e+00  0.0000000000000000e+00  0.0000000000000000e+00  0.0000000000000000e+00  0.0000000000000000e+00  0.0000000000000000e+00  0.0000000000000000e+00  0.0000000000000000e+00  0.0000000000000000e+00  0.0000000000000000e+00  0.0000000000000000e+00  0.0000000000000000e+00  0.0000000000000000e+00  1.0779893041021324e-04  2.1117818000370144e-04  2.0478512000545262e-04  1.9512401180506758e-04  1.8388115245310640e-04  1.7309817716728256e-04  1.6480171587869797e-04  1.6068318447072605e-04  1.6170870798302896e-04  1.1747102913795699e-04  1.5058641982204242e-04  1.6060630566048630e-04  1.7144642415631423e-03  4.0290595000906960e-03  4.0274470313719129e-03  4.2980934834574930e-03  6.1410043641682470e-03  7.2570459548736898e-03  8.1366938662194802e-03  8.9205399827250766e-03  8.5116048221673766e-03  1.0159555432462960e-0