<?xml version="1.0"?>
<VTKFile type="UnstructuredGrid"  version="0.1"  >
<UnstructuredGrid>
<Piece  NumberOfPoints="5151" NumberOfCells="10000">
<Points>
<DataArray  type="Float64"  NumberOfComponents="3"  format="ascii">0 0 0  0.01 0 0  0.02 0 0  0.03 0 0  0.04 0 0  0.05 0 0  0.06 0 0  0.07000000000000001 0 0  0.08 0 0  0.09 0 0  0.1 0 0  0.11 0 0  0.12 0 0  0.13 0 0  0.14 0 0  0.15 0 0  0.16 0 0  0.17 0 0  0.18 0 0  0.19 0 0  0.2 0 0  0.21 0 0  0.22 0 0  0.23 0 0  0.24 0 0  0.25 0 0  0.26 0 0  0.27 0 0  0.28 0 0  0.29 0 0  0.3 0 0  0.31 0 0  0.32 0 0  0.33 0 0  0.34 0 0  0.35 0 0  0.36 0 0  0.37 0 0  0.38 0 0  0.39 0 0  0.4 0 0  0.41 0 0  0.42 0 0  0.43 0 0  0.44 0 0  0.45 0 0  0.46 0 0  0.47 0 0  0.48 0 0  0.49 0 0  0.5 0 0  0.51 0 0  0.52 0 0  0.53 0 0  0.54 0 0  0.55 0 0  0.5600000000000001 0 0  0.57 0 0  0.58 0 0  0.59 0 0  0.6 0 0  0.61 0 0  0.62 0 0  0.63 0 0  0.64 0 0  0.65 0 0  0.66 0 0  0.67 0 0  0.68 0 0  0.6899999999999999 0 0  0.7 0 0  0.71 0 0  0.72 0 0  0.73 0 0  0.74 0 0  0.75 0 0  0.76 0 0  0.77 0 0  0.78 0 0  0.79 0 0  0.8 0 0  0.8100000000000001 0 0  0.82 0 0  0.83 0 0  0.84 0 0  0.85 0 0  0.86 0 0  0.87 0 0  0.88 0 0  0.89 0 0  0.9 0 0  0.91 0 0  0.92 0 0  0.93 0 0  0.9399999999999999 0 0  0.95 0 0  0.96 0 0  0.97 0 0  0.98 0 0  0.99 0 0  1 0 0  0 0.01 0  0.01 0.01 0  0.02 0.01 0  0.03 0.01 0  0.04 0.01 0  0.05 0.01 0  0.06 0.01 0  0.07000000000000001 0.01 0  0.08 0.01 0  0.09 0.01 0  0.1 0.01 0  0.11 0.01 0  0.12 0.01 0  0.13 0.01 0  0.14 0.01 0  0.15 0.01 0  0.16 0.01 0  0.17 0.01 0  0.18 0.01 0  0.19 0.01 0  0.2 0.01 0  0.21 0.01 0  0.22 0.01 0  0.23 0.01 0  0.24 0.01 0  0.25 0.01 0  0.26 0.01 0  0.27 0.01 0  0.28 0.01 0  0.29 0.01 0  0.3 0.01 0  0.31 0.01 0  0.32 0.01 0  0.33 0.01 0  0.34 0.01 0  0.35 0.01 0  0.36 0.01 0  0.37 0.01 0  0.38 0.01 0  0.39 0.01 0  0.4 0.01 0  0.41 0.01 0  0.42 0.01 0  0.43 0.01 0  0.44 0.01 0  0.45 0.01 0  0.46 0.01 0  0.47 0.01 0  0.48 0.01 0  0.49 0.01 0  0.5 0.01 0  0.51 0.01 0  0.52 0.01 0  0.53 0.01 0  0.54 0.01 0  0.55 0.01 0  0.5600000000000001 0.01 0  0.57 0.01 0  0.58 0.01 0  0.59 0.01 0  0.6 0.01 0  0.61 0.01 0  0.62 0.01 0  0.63 0.01 0  0.64 0.01 0  0.65 0.01 0  0.66 0.01 0  0.67 0.01 0  0.68 0.01 0  0.6899999999999999 0.01 0  0.7 0.01 0  0.71 0.01 0  0.72 0.01 0  0.73 0.01 0  0.74 0.01 0  0.75 0.01 0  0.76 0.01 0  0.77 0.01 0  0.78 0.01 0  0.79 0.01 0  0.8 0.01 0  0.8100000000000001 0.01 0  0.82 0.01 0  0.83 0.01 0  0.84 0.01 0  0.85 0.01 0  0.86 0.01 0  0.87 0.01 0  0.88 0.01 0  0.89 0.01 0  0.9 0.01 0  0.91 0.01 0  0.92 0.01 0  0.93 0.01 0  0.9399999999999999 0.01 0  0.95 0.01 0  0.96 0.01 0  0.97 0.01 0  0.98 0.01 0  0.99 0.01 0  1 0.01 0  0 0.02 0  0.01 0.02 0  0.02 0.02 0  0.03 0.02 0  0.04 0.02 0  0.05 0.02 0  0.06 0.02 0  0.07000000000000001 0.02 0  0.08 0.02 0  0.09 0.02 0  0.1 0.02 0  0.11 0.02 0  0.12 0.02 0  0.13 0.02 0  0.14 0.02 0  0.15 0.02 0  0.16 0.02 0  0.17 0.02 0  0.18 0.02 0  0.19 0.02 0  0.2 0.02 0  0.21 0.02 0  0.22 0.02 0  0.23 0.02 0  0.24 0.02 0  0.25 0.02 0  0.26 0.02 0  0.27 0.02 0  0.28 0.02 0  0.29 0.02 0  0.3 0.02 0  0.31 0.02 0  0.32 0.02 0  0.33 0.02 0  0.34 0.02 0  0.35 0.02 0  0.36 0.02 0  0.37 0.02 0  0.38 0.02 0  0.39 0.02 0  0.4 0.02 0  0.41 0.02 0  0.42 0.02 0  0.43 0.02 0  0.44 0.02 0  0.45 0.02 0  0.46 0.02 0  0.47 0.02 0  0.48 0.02 0  0.49 0.02 0  0.5 0.02 0  0.51 0.02 0  0.52 0.02 0  0.53 0.02 0  0.54 0.02 0  0.55 0.02 0  0.5600000000000001 0.02 0  0.57 0.02 0  0.58 0.02 0  0.59 0.02 0  0.6 0.02 0  0.61 0.02 0  0.62 0.02 0  0.63 0.02 0  0.64 0.02 0  0.65 0.02 0  0.66 0.02 0  0.67 0.02 0  0.68 0.02 0  0.6899999999999999 0.02 0  0.7 0.02 0  0.71 0.02 0  0.72 0.02 0  0.73 0.02 0  0.74 0.02 0  0.75 0.02 0  0.76 0.02 0  0.77 0.02 0  0.78 0.02 0  0.79 0.02 0  0.8 0.02 0  0.8100000000000001 0.02 0  0.82 0.02 0  0.83 0.02 0  0.84 0.02 0  0.85 0.02 0  0.86 0.02 0  0.87 0.02 0  0.88 0.02 0  0.89 0.02 0  0.9 0.02 0  0.91 0.02 0  0.92 0.02 0  0.93 0.02 0  0.9399999999999999 0.02 0  0.95 0.02 0  0.96 0.02 0  0.97 0.02 0  0.98 0.02 0  0.99 0.02 0  1 0.02 0  0 0.03 0  0.01 0.03 0  0.02 0.03 0  0.03 0.03 0  0.04 0.03 0  0.05 0.03 0  0.06 0.03 0  0.07000000000000001 0.03 0  0.08 0.03 0  0.09 0.03 0  0.1 0.03 0  0.11 0.03 0  0.12 0.03 0  0.13 0.03 0  0.14 0.03 0  0.15 0.03 0  0.16 0.03 0  0.17 0.03 0  0.18 0.03 0  0.19 0.03 0  0.2 0.03 0  0.21 0.03 0  0.22 0.03 0  0.23 0.03 0  0.24 0.03 0  0.25 0.03 0  0.26 0.03 0  0.27 0.03 0  0.28 0.03 0  0.29 0.03 0  0.3 0.03 0  0.31 0.03 0  0.32 0.03 0  0.33 0.03 0  0.34 0.03 0  0.35 0.03 0  0.36 0.03 0  0.37 0.03 0  0.38 0.03 0  0.39 0.03 0  0.4 0.03 0  0.41 0.03 0  0.42 0.03 0  0.43 0.03 0  0.44 0.03 0  0.45 0.03 0  0.46 0.03 0  0.47 0.03 0  0.48 0.03 0  0.49 0.03 0  0.5 0.03 0  0.51 0.03 0  0.52 0.03 0  0.53 0.03 0  0.54 0.03 0  0.55 0.03 0  0.5600000000000001 0.03 0  0.57 0.03 0  0.58 0.03 0  0.59 0.03 0  0.6 0.03 0  0.61 0.03 0  0.62 0.03 0  0.63 0.03 0  0.64 0.03 0  0.65 0.03 0  0.66 0.03 0  0.67 0.03 0  0.68 0.03 0  0.6899999999999999 0.03 0  0.7 0.03 0  0.71 0.03 0  0.72 0.03 0  0.73 0.03 0  0.74 0.03 0  0.75 0.03 0  0.76 0.03 0  0.77 0.03 0  0.78 0.03 0  0.79 0.03 0  0.8 0.03 0  0.8100000000000001 0.03 0  0.82 0.03 0  0.83 0.03 0  0.84 0.03 0  0.85 0.03 0  0.86 0.03 0  0.87 0.03 0  0.88 0.03 0  0.89 0.03 0  0.9 0.03 0  0.91 0.03 0  0.92 0.03 0  0.93 0.03 0  0.9399999999999999 0.03 0  0.95 0.03 0  0.96 0.03 0  0.97 0.03 0  0.98 0.03 0  0.99 0.03 0  1 0.03 0  0 0.04 0  0.01 0.04 0  0.02 0.04 0  0.03 0.04 0  0.04 0.04 0  0.05 0.04 0  0.06 0.04 0  0.07000000000000001 0.04 0  0.08 0.04 0  0.09 0.04 0  0.1 0.04 0  0.11 0.04 0  0.12 0.04 0  0.13 0.04 0  0.14 0.04 0  0.15 0.04 0  0.16 0.04 0  0.17 0.04 0  0.18 0.04 0  0.19 0.04 0  0.2 0.04 0  0.21 0.04 0  0.22 0.04 0  0.23 0.04 0  0.24 0.04 0  0.25 0.04 0  0.26 0.04 0  0.27 0.04 0  0.28 0.04 0  0.29 0.04 0  0.3 0.04 0  0.31 0.04 0  0.32 0.04 0  0.33 0.04 0  0.34 0.04 0  0.35 0.04 0  0.36 0.04 0  0.37 0.04 0  0.38 0.04 0  0.39 0.04 0  0.4 0.04 0  0.41 0.04 0  0.42 0.04 0  0.43 0.04 0  0.44 0.04 0  0.45 0.04 0  0.46 0.04 0  0.47 0.04 0  0.48 0.04 0  0.49 0.04 0  0.5 0.04 0  0.51 0.04 0  0.52 0.04 0  0.53 0.04 0  0.54 0.04 0  0.55 0.04 0  0.5600000000000001 0.04 0  0.57 0.04 0  0.58 0.04 0  0.59 0.04 0  0.6 0.04 0  0.61 0.04 0  0.62 0.04 0  0.63 0.04 0  0.64 0.04 0  0.65 0.04 0  0.66 0.04 0  0.67 0.04 0  0.68 0.04 0  0.6899999999999999 0.04 0  0.7 0.04 0  0.71 0.04 0  0.72 0.04 0  0.73 0.04 0  0.74 0.04 0  0.75 0.04 0  0.76 0.04 0  0.77 0.04 0  0.78 0.04 0  0.79 0.04 0  0.8 0.04 0  0.8100000000000001 0.04 0  0.82 0.04 0  0.83 0.04 0  0.84 0.04 0  0.85 0.04 0  0.86 0.04 0  0.87 0.04 0  0.88 0.04 0  0.89 0.04 0  0.9 0.04 0  0.91 0.04 0  0.92 0.04 0  0.93 0.04 0  0.9399999999999999 0.04 0  0.95 0.04 0  0.96 0.04 0  0.97 0.04 0  0.98 0.04 0  0.99 0.04 0  1 0.04 0  0 0.05 0  0.01 0.05 0  0.02 0.05 0  0.03 0.05 0  0.04 0.05 0  0.05 0.05 0  0.06 0.05 0  0.07000000000000001 0.05 0  0.08 0.05 0  0.09 0.05 0  0.1 0.05 0  0.11 0.05 0  0.12 0.05 0  0.13 0.05 0  0.14 0.05 0  0.15 0.05 0  0.16 0.05 0  0.17 0.05 0  0.18 0.05 0  0.19 0.05 0  0.2 0.05 0  0.21 0.05 0  0.22 0.05 0  0.23 0.05 0  0.24 0.05 0  0.25 0.05 0  0.26 0.05 0  0.27 0.05 0  0.28 0.05 0  0.29 0.05 0  0.3 0.05 0  0.31 0.05 0  0.32 0.05 0  0.33 0.05 0  0.34 0.05 0  0.35 0.05 0  0.36 0.05 0  0.37 0.05 0  0.38 0.05 0  0.39 0.05 0  0.4 0.05 0  0.41 0.05 0  0.42 0.05 0  0.43 0.05 0  0.44 0.05 0  0.45 0.05 0  0.46 0.05 0  0.47 0.05 0  0.48 0.05 0  0.49 0.05 0  0.5 0.05 0  0.51 0.05 0  0.52 0.05 0  0.53 0.05 0  0.54 0.05 0  0.55 0.05 0  0.5600000000000001 0.05 0  0.57 0.05 0  0.58 0.05 0  0.59 0.05 0  0.6 0.05 0  0.61 0.05 0  0.62 0.05 0  0.63 0.05 0  0.64 0.05 0  0.65 0.05 0  0.66 0.05 0  0.67 0.05 0  0.68 0.05 0  0.6899999999999999 0.05 0  0.7 0.05 0  0.71 0.05 0  0.72 0.05 0  0.73 0.05 0  0.74 0.05 0  0.75 0.05 0  0.76 0.05 0  0.77 0.05 0  0.78 0.05 0  0.79 0.05 0  0.8 0.05 0  0.8100000000000001 0.05 0  0.82 0.05 0  0.83 0.05 0  0.84 0.05 0  0.85 0.05 0  0.86 0.05 0  0.87 0.05 0  0.88 0.05 0  0.89 0.05 0  0.9 0.05 0  0.91 0.05 0  0.92 0.05 0  0.93 0.05 0  0.9399999999999999 0.05 0  0.95 0.05 0  0.96 0.05 0  0.97 0.05 0  0.98 0.05 0  0.99 0.05 0  1 0.05 0  0 0.06 0  0.01 0.06 0  0.02 0.06 0  0.03 0.06 0  0.04 0.06 0  0.05 0.06 0  0.06 0.06 0  0.07000000000000001 0.06 0  0.08 0.06 0  0.09 0.06 0  0.1 0.06 0  0.11 0.06 0  0.12 0.06 0  0.13 0.06 0  0.14 0.06 0  0.15 0.06 0  0.16 0.06 0  0.17 0.06 0  0.18 0.06 0  0.19 0.06 0  0.2 0.06 0  0.21 0.06 0  0.22 0.06 0  0.23 0.06 0  0.24 0.06 0  0.25 0.06 0  0.26 0.06 0  0.27 0.06 0  0.28 0.06 0  0.29 0.06 0  0.3 0.06 0  0.31 0.06 0  0.32 0.06 0  0.33 0.06 0  0.34 0.06 0  0.35 0.06 0  0.36 0.06 0  0.37 0.06 0  0.38 0.06 0  0.39 0.06 0  0.4 0.06 0  0.41 0.06 0  0.42 0.06 0  0.43 0.06 0  0.44 0.06 0  0.45 0.06 0  0.46 0.06 0  0.47 0.06 0  0.48 0.06 0  0.49 0.06 0  0.5 0.06 0  0.51 0.06 0  0.52 0.06 0  0.53 0.06 0  0.54 0.06 0  0.55 0.06 0  0.5600000000000001 0.06 0  0.57 0.06 0  0.58 0.06 0  0.59 0.06 0  0.6 0.06 0  0.61 0.06 0  0.62 0.06 0  0.63 0.06 0  0.64 0.06 0  0.65 0.06 0  0.66 0.06 0  0.67 0.06 0  0.68 0.06 0  0.6899999999999999 0.06 0  0.7 0.06 0  0.71 0.06 0  0.72 0.06 0  0.73 0.06 0  0.74 0.06 0  0.75 0.06 0  0.76 0.06 0  0.77 0.06 0  0.78 0.06 0  0.79 0.06 0  0.8 0.06 0  0.8100000000000001 0.06 0  0.82 0.06 0  0.83 0.06 0  0.84 0.06 0  0.85 0.06 0  0.86 0.06 0  0.87 0.06 0  0.88 0.06 0  0.89 0.06 0  0.9 0.06 0  0.91 0.06 0  0.92 0.06 0  0.93 0.06 0  0.9399999999999999 0.06 0  0.95 0.06 0  0.96 0.06 0  0.97 0.06 0  0.98 0.06 0  0.99 0.06 0  1 0.06 0  0 0.07000000000000001 0  0.01 0.07000000000000001 0  0.02 0.07000000000000001 0  0.03 0.07000000000000001 0  0.04 0.07000000000000001 0  0.05 0.07000000000000001 0  0.06 0.07000000000000001 0  0.07000000000000001 0.07000000000000001 0  0.08 0.07000000000000001 0  0.09 0.07000000000000001 0  0.1 0.07000000000000001 0  0.11 0.07000000000000001 0  0.12 0.07000000000000001 0  0.13 0.07000000000000001 0  0.14 0.07000000000000001 0  0.15 0.07000000000000001 0  0.16 0.07000000000000001 0  0.17 0.07000
[...]
<PointData  Scalars="rho_bar"> 
<DataArray  type="Float64"  Name="rho_bar"  format="ascii">8.7944454064551569e-01  8.7797957190013243e-01  8.7631517913727608e-01  8.7408546593794390e-01  8.7120694453031611e-01  8.6768787609572162e-01  8.6358036990202558e-01  8.5896490759147948e-01  8.5394534863873750e-01  8.4864517577429399e-01  8.4320731648067548e-01  8.3779154102042752e-01  8.3256973652957278e-01  8.2771686904468877e-01  8.2340106525977774e-01  8.1977002004752397e-01  8.1693455162221595e-01  8.1494175067591335e-01  8.1374297109375981e-01  8.1316876704588370e-01  8.1293461284795354e-01  8.1267048889429327e-01  8.1195623126815786e-01  8.1033971488393308e-01  8.0733787406908541e-01  8.0242552913388820e-01  7.9502890707058971e-01  7.8453712672051257e-01  7.7037847225216693e-01  7.5220731994935697e-01  7.3011387355008905e-01  7.0467254880141250e-01  6.7670386074342770e-01  6.4692592169533336e-01  6.1567421485881157e-01  5.8273955181426873e-01  5.4750567169905640e-01  5.0943454212666484e-01  4.6842533623124716e-01  4.2509433203642361e-01  3.8090972961666014e-01  3.3773174469490647e-01  2.9689147369903213e-01  2.5918090176271624e-01  2.2507808335559451e-01  1.9480451666892865e-01  1.6829481350408290e-01  1.4523116770715472e-01  1.2520831972890087e-01  1.0783794922200086e-01  9.2780924544904983e-02  7.9747344891372418e-02  6.8487671589251606e-02  5.8783235830013998e-02  5.0439386404561790e-02  4.3281310427936516e-02  3.7151821693960731e-02  3.1910155355078851e-02  2.7431273030535504e-02  2.3605110009183038e-02  2.0335741473845866e-02  1.7540238784093647e-02  1.5147497402860999e-02  1.3096873581653144e-02  1.1336935804068882e-02  9.8241487221709563e-03  8.5217789991792678e-03  7.3988143609960543e-03  6.4291113582688603e-03  5.5905686299975279e-03  4.8645076904979007e-03  4.2350896500571748e-03  3.6888737117017731e-03  3.2144116028650260e-03  2.8019397596518204e-03  2.4431035026443370e-03  2.1307458960427724e-03  1.8587128130224638e-03  1.6217093898662036e-03  1.4151687242856166e-03  1.2351465968199790e-03  1.0782323250280415e-03  9.4147166128677950e-04  8.2230697407319794e-04  7.1851950642533812e-04  6.2818644943561566e-04  5.4963954191741273e-04  4.8143531708447776e-04  4.2232271260698849e-04  3.7122281838032129e-04  3.2720425652352708e-04  2.8946939123199194e-04  2.5733494426143961e-04  2.3022297659870724e-04  2.0764631531538805e-04  1.8920494238118215e-04  1.7457413055219732e-04  1.6350528431081793e-04  1.5582497226915331e-04  1.5147192363883675e-04  1.5061374597827795e-04  8.7233210762865587e-01  8.7158296562939930e-01  8.7002225476423234e-01  8.6771478099425448e-01  8.6467566315360667e-01  8.6094136849841685e-01  8.5657591253512644e-01  8.5166973324200312e-01  8.4633507529186847e-01  8.4070453059173866e-01  8.3492995994379304e-01  8.2918180993541113e-01  8.2364303545826145e-01  8.1850041366233173e-01  8.1393289853398176e-01  8.1010000833419615e-01  8.0712504742931224e-01  8.0506953177363394e-01  8.0389187539292717e-01  8.0341589580735262e-01  8.0333503711659726e-01  8.0325237321848908e-01  8.0272373926198937e-01  8.0128032771625268e-01  7.9842697642921967e-01  7.9363244834204472e-01  7.8632324445837043e-01  7.7590134955718015e-01  7.6181497470116333e-01  7.4373269567333233e-01  7.2175815339455873e-01  6.9649332665177921e-01  6.6880917103660042e-01  6.3947296381690522e-01  6.0884920840047407e-01  5.7675456354896948e-01  5.4258124114725936e-01  5.0579029292143063e-01  4.6627968053026814e-01  4.2461802488073058e-01  3.8209390493376466e-01  3.4037081003617486e-01  3.0068637742996462e-01  2.6377071395667756e-01  2.3009123774792251e-01  1.9990805741158346e-01  1.7323143364285409e-01  1.4983310401449415e-01  1.2937935434637951e-01  1.1153596852851964e-01  9.6002151441162809e-02  8.2513673502433202e-02  7.0836479600628152e-02  6.0759856684017288e-02  5.2091646941512755e-02  4.4655862039021714e-02  3.8291863490408751e-02  3.2854265870739141e-02  2.8212929106736801e-02  2.4252795310003281e-02  2.0873280146827131e-02  1.7987376882888904e-02  1.5520422246948750e-02  1.3408827006561307e-02  1.1598677989367361e-02  1.0044458119437293e-02  8.7077754926673089e-03  7.5563196468199740e-03  6.5628615868867628e-03  5.7044601448892366e-03  4.9617291051177598e-03  4.3182783252027068e-03  3.7602060752649565e-03  3.2757010382262431e-03  2.8546932198013236e-03  2.4885859062390020e-03  2.1700152819830350e-03  1.8926643289389261e-03  1.6510978250270361e-03  1.4406347168640962e-03  1.2572356217382377e-03  1.0974087262653766e-03  9.5813432787667896e-04  8.3679660898772917e-04  7.3113058902789490e-04  6.3917176432548507e-04  5.5921940021765157e-04  4.8979934849802868e-04  4.2963777931374756e-04  3.7763298738618354e-04  3.3283787768544922e-04  2.9443812984044227e-04  2.6173953537403453e-04  2.3415145327795520e-04  2.1118022163129981e-04  1.9241594439463609e-04  1.7752842820981937e-04  1.6625850110738049e-04  1.5841672648111979e-04  1.5387047797984422e-04  1.5250405808463232e-04  8.5206594599114771e-01  8.5140671874227847e-01  8.4972649787112631e-01  8.4706447952356423e-01  8.4348016063000197e-01  8.3903866961046725e-01  8.3383303587612434e-01  8.2798328251459752e-01  8.2163160635420684e-01  8.1493844861557940e-01  8.0808572492656106e-01  8.0127747377148517e-01  7.9473348121455945e-01  7.8867617543729496e-01  7.8331899798337523e-01  7.7885494634927555e-01  7.7544855842480165e-01  7.7320950153221180e-01  7.7212744251022580e-01  7.7200253398179441e-01  7.7245369702947864e-01  7.7299150484361989e-01  7.7309718970223107e-01  7.7225043452472020e-01  7.6992208589823885e-01  7.6555763480180639e-01  7.5858015184885130e-01  7.4841686797684637e-01  7.3457821536206258e-01  7.1681555005641695e-01  6.9532227902237009e-01  6.7078608182400912e-01  6.4419305253441328e-01  6.1640886638497894e-01  5.8784829582293419e-01  5.5834756198706625e-01  5.2731936447766459e-01  4.9423952970717844e-01  4.5901083802974851e-01  4.2209346000199505e-01  3.8444080300085165e-01  3.4716976095642360e-01  3.1114357546779464e-01  2.7688076076947560e-01  2.4479103280897083e-01  2.1520346046489158e-01  1.8829081194885144e-01  1.6405528057998262e-01  1.4238971754808699e-01  1.2314539509418881e-01  1.0615882809294858e-01  9.1259609238103404e-02  7.8272967081898445e-02  6.7020658288889173e-02  5.7323386464641954e-02  4.9004499263369465e-02  4.1894177188303544e-02  3.5833126979853545e-02  3.0675375435627490e-02  2.6289934213294688e-02  2.2561385168265106e-02  1.9389488993655290e-02  1.6688232521333793e-02  1.4384459439642264e-02  1.2416372802964702e-02  1.0731993383451122e-02  9.2877246358048417e-03  8.0470274832179344e-03  6.9792950276767549e-03  6.0588421571472050e-03  5.2640960399816987e-03  4.5768878565814889e-03  3.9818855479596361e-03  3.4661099078763503e-03  3.0185471948157364e-03  2.6298241052054956e-03  2.2919452323190014e-03  1.9980677227295252e-03  1.7423264237249826e-03  1.5196814436165349e-03  1.3257949657830290e-03  1.1569265155211849e-03  1.0098458020385216e-03  8.8176275366660571e-04  7.7026289584604228e-04  6.7325762586010465e-04  5.8893875305761649e-04  5.1574341694837788e-04  4.5232010693082957e-04  3.9750386499283913e-04  3.5029105155896323e-04  3.0982204326832020e-04  2.7536228516248377e-04  2.4628955584605176e-04  2.2208080133838518e-04  2.0230388390843080e-04  1.8660774444208121e-04  1.7471482102025525e-04  1.6641319549160573e-04  1.6154729406234994e-04  1.5999303196933819e-04  8.1334729648524817e-01  8.1260140377437384e-01  8.1054377368238062e-01  8.0714857120352668e-01  8.0249973034692856e-01  7.9669865396945194e-01  7.8989241844724323e-01  7.8226488735070421e-01  7.7402013232404876e-01  7.6537284712964537e-01  7.5655815212427380e-01  7.4784288255580833e-01  7.3951223109326147e-01  7.3185118897445489e-01  7.2512606939014757e-01  7.1957912453556505e-01  7.1543789562853077e-01  7.1291569861139248e-01  7.1208763166934363e-01  7.1271883784682488e-01  7.1427518609727370e-01  7.1608306082531381e-01  7.1749185877486166e-01  7.1790520958816040e-01  7.1674595820613296e-01  7.1342647268394332e-01  7.0736552896224003e-01  6.9803970791691472e-01  6.8507138679973834e-01  6.6837410807561115e-01  6.4830061220113644e-01  6.2566032737016897e-01  6.0154034687438984e-01  5.7689119745649842e-01  5.5215640310470282e-01  5.2718324794078342e-01  5.0142658241776172e-01  4.7441426247030555e-01  4.4604456310593771e-01  4.1661739626726108e-01  3.8664392676593728e-01  3.5662861769927506e-01  3.2687939863295123e-01  2.9753000644090916e-01  2.6878210305973449e-01  2.4094019737371683e-01  2.1430735095603565e-01  1.8915441021364124e-01  1.6572255317638582e-01  1.4420748693138974e-01  1.2472885734949368e-01  1.0732412670335353e-01  9.1959397473597965e-02  7.8541762035888141e-02  6.6933547892053302e-02  5.6968294402872981e-02  4.8465562082195830e-02  4.1243204145623151e-02  3.5126580559111296e-02  2.9954821770633567e-02  2.5584125360522156e-02  2.1888857387204336e-02  1.8761109843581061e-02  1.6109384540652250e-02  1.3856795565834266e-02  1.1939113358296234e-02  1.0302874850292191e-02  8.9036413576162078e-03  7.7044693946587391e-03  6.6746241448324443e-03  5.7884781112239681e-03  5.0246192276057807e-03  4.3650995785046295e-03  3.7948329254400138e-03  3.3010972012985974e-03  2.8731313539330067e-03  2.5018033144847936e-03  2.1793433292980613e-03  1.8991190383445507e-03  1.6554589086635128e-03  1.4434991875613978e-03  1.2590620031021058e-03  1.0985522301636046e-03  9.5887142323200340e-04  8.3734788383973133e-04  7.3167457843169195e-04  6.3985994376289618e-04  5.6018427764652635e-04  4.9116494769319095e-04  4.3152423685290418e-04  3.8016456879084461e-04  3.3614526464562647e-04  2.9866474705769487e-04  2.6704378613475859e-04  2.4071213508452654e-04  2.1919824999828047e-04  2.0211756900182385e-04  1.8916662227058244e-04  1.8011201828445719e-04  1.7478411686074809e-04  1.7307295989134688e-04  7.4737414969785720e-01  7.4651235247606840e-01  7.4383818128202073e-01  7.3926143899468566e-01  7.3291470307922735e-01  7.2496472268286560e-01  7.1566371528562833e-01  7.0532489124790976e-01  6.9427430371920751e-01  6.8281324625055129e-01  6.7124933777457207e-01  6.5993519345320506e-01  6.4924412988627000e-01  6.3953199257727800e-01  6.3111639594778957e-01  6.2427060661999834e-01  6.1926668643898075e-01  6.1646587111520212e-01  6.1613549387629130e-01  6.1802121302892532e-01  6.2136648572913677e-01  6.2521694795654825e-01  6.2876366972646236e-01  6.3134061230336225e-01  6.3233712117675545e-01  6.3113289205855305e-01  6.2715364791029271e-01  6.1994776495032955e-01  6.0928980646588771e-01  5.9528696640290502e-01  5.7846295086339450e-01  5.5972096625796175e-01  5.4016517344763271e-01  5.2074954775527804e-01  5.0189726521975986e-01  4.8345427043453104e-01  4.6497529687298583e-01  4.4607938813683823e-01  4.2667609439421833e-01  4.0685259607346141e-01  3.8673299968538177e-01  3.6630571987830357e-01  3.4534532090423736e-01  3.2350114829830362e-01  3.0055000765924023e-01  2.7653750080826134e-01  2.5170592020326144e-01  2.2646161917173416e-01  2.0137458137149694e-01  1.7708528688441233e-01  1.5417233185453688e-01  1.3306190546408689e-01  1.1401835571568367e-01  9.7152203686973276e-02  8.2444779656472386e-02  6.9781776712793800e-02  5.8987449097564974e-02  4.9853804669761033e-02  4.2163873234561507e-02  3.5708539123633372e-02  3.0296459110236908e-02  2.5758632245746867e-02  2.1949573669511897e-02  1.8746312567904991e-02  1.6046197520020705e-02  1.3764237939615735e-02  1.1830368034567594e-02  1.0186956764977767e-02  8.7866045419017786e-03  7.5902775243837269e-03  6.5657717592751390e-03  5.6864360135992055e-03  4.9301484125668961e-03  4.2784766358109887e-03  3.7160098496033323e-03  3.2298144725717856e-03  2.8089987253011499e-03  2.4443558795284527e-03  2.1280819552015480e-03  1.8535382750971357e-03  1.6150653731319428e-03  1.4078241065005955e-03  1.2276692517659068e-03  1.0710432511669898e-03  9.3488809960174356e-04  8.1657327824315943e-04  7.1383374407368448e-04  6.2471970355015794e-04  5.4755314716618201e-04  4.8089194098861120e-04  4.2349889550188176e-04  3.7431612654663355e-04  3.3244282047824000e-04  2.9711703879669628e-04  2.6769966519248745e-04  2.4366171886805292e-04  2.2457350765588753e-04  2.1009382263712751e-04  1.9996364338345659e-04  1.9399894537907930e-04  1.9208938987363560e-04  6.4375252466273936e-01  6.4300680537236166e-01  6.3962251133018533e-01  6.3361141583085623e-01  6.2521250891354618e-01  6.1471326261390180e-01  6.0255165969085211e-01  5.8926851055348040e-01  5.7539533990452163e-01  5.6134879733088516e-01  5.4747747565769378e-01  5.3417826713862593e-01  5.2186104062009253e-01  5.1089500947765942e-01  5.0158601492932142e-01  4.9418247270486171e-01  4.8892430741961934e-01  4.8619001618177471e-01  4.8644381605574272e-01  4.8951413661897109e-01  4.9458474051961288e-01  5.0052859541857964e-01  5.0646935044734820e-01  5.1172377459185092e-01  5.1567384159984164e-01  5.1769557842019620e-01  5.1724361943987940e-01  5.1393248646947098e-01  5.0764260106770642e-01  4.9860184123273249e-01  4.8740479644228574e-01  4.7494744503832104e-01  4.6224523018132269e-01  4.5015040580760124e-01  4.3902947192808656e-01  4.2875448963291374e-01  4.1901436976783130e-01  4.0958134851555889e-01  4.0036088446820528e-01  3.9129799152382433e-01  3.8228446068994704e-01  3.7299540593481562e-01  3.6279292295020737e-01  3.5084317638261414e-01  3.3639368021288618e-01  3.1900938780961979e-01  2.9859953092305502e-01  2.7541925647344401e-01  2.5012738099710358e-01  2.2368220822731694e-01  1.9713635555037906e-01  1.7145437886194570e-01  1.4742499875333195e-01  1.2559199421197992e-01  1.0623935019148566e-01  8.9430581569542950e-02  7.5064568312343025e-02  6.2933722375097895e-02  5.2775292708593033e-02  4.4313051983917572e-02  3.7282838437828800e-02  3.1446206938293628e-02  2.6596239328033809e-02  2.2558196387571582e-02  1.9187130733380426e-02  1.6364104982186812e-02  1.3992151501813672e-02  1.1992428264606414e-02  1.0300883674327726e-02  8.8654192506425651e-03  7.6435611808359973e-03  6.6005801351174580e-03  5.7079668310645220e-03  4.9422289195160951e-03  4.2839210865779440e-03  3.7168837637795221e-03  3.2276286929850853e-03  2.8048541225209542e-03  2.4390512905810343e-03  2.1221940644188158e-03  1.8474816518043223e-03  1.6091369985934785e-03  1.4022370051418502e-03  1.2225780458388160e-03  1.0665631274528508e-03  9.3110974657145402e-04  8.1357434191763110e-04  7.1168822839330766e-04  6.2350482958877158e-04  5.4735570654620991e-04  4.8181284091318238e-04  4.2565771639152864e-04  3.7785483825269279e-04  3.3752936018732857e-04  3.0394911101136354e-04  2.7650807849989746e-04  2.5471482214158746e-04  2.3818009392939117e-04  2.2661013385546721e-04  2.1979880790007672e-04  2.1762701876544471e-04  5.0237697098584511e-01  5.0212035245375752e-01  4.9839144456829021e-01  4.9167019019251096e-01  4.8228166047550108e-01  4.7067219510571212e-01  4.5745511809518996e-01  4.4335889544994933e-01  4.2907245252402593e-01  4.1508248006199799e-01  4.0170174612506754e-01  3.8922548030700627e-01  3.7795597541974818e-01  3.6815654512447876e-01  3.6003887768686677e-01  3.5377607741100198e-01  3.4954388786342233e-01  3.4759474972764648e-01  3.4823881116843031e-01  3.5142616070930877e-01  3.5661668803305979e-01  3.6300232783781311e-01  3.6988379299958235e-01  3.7670680423701125e-01  3.8288743887375754e-01  3.8787063361260743e-01  3.9118827004150353e-01  3.9249182726857518e-01  3.9166697049265431e-01  3.8890751471410562e-01  3.8471522364463978e-01  3.7983376136984204e-01  3.7510104080119949e-01  3.7121588651955612e-01  3.6850180939844629e-01  3.6688544572992288e-01  3.6621249568549069e-01  3.6637123520535075e-01  3.6730157184422962e-01  3.6892078433493314e-01  3.7105398073890072e-01  3.7327002753528665e-01  3.7468650504836842e-01  3.7404553239959837e-01  3.7006948015024693e-01  3.6183595256668083e-01  3.4882051113316564e-01  3.3091499982038203e-01  3.0851772031778846e-01  2.8249949837971994e-01  2.5403141034014254e-01  2.2442902114776325e-01  1.9504617044426673e-01  1.6709895050808651e-01  1.4149150797013829e-01  1.1876449132366854e-01  9.9108788298053641e-02  8.2443870791715390e-02  6.8511456645518720e-02  5.6972193790569316e-02  4.7467573782900896e-02  3.9657107604707961e-02  3.3238445308299301e-02  2.7954491707573591e-02  2.3592376844405457e-02  1.9978639219295765e-02  1.6973210957265627e-02  1.4463548884307263e-02  1.2359349913981545e-02  1.0588135166376644e-02  9.0915970773536164e-03  7.8226734300646718e-03  6.7432310780370184e-03  5.8222209866182449e-03  5.0342507041065236e-03  4.3584465072949346e-03  3.7775706052394394e-03  3.2773181434425508e-03  2.8457666913831565e-03  2.4729341502031940e-03  2.1504323526266625e-03  1.8711824622209764e-03  1.6291941183739064e-03  1.4193801823347762e-03  1.2374118446757596e-03  1.0795969887917639e-03  9.4278234791812343e-04  8.2427290036487860e-04  7.2176439505869860e-04  6.3328765536855983e-04  5.5716274578424929e-04  4.9195916266220525e-04  4.3646419984994422e-04  3.8965567537828046e-04  3.5067875682721417e-04  3.1882823056661957e-04  2.9353172962804145e-04  2.7433835316745270e-04  2.6090767114039418e-04  2.5300394565513213e-04  2.5049232506948614e-04  3.5114942088122753e-01  3.5088526138875281e-01  3.4763120067887598e-01  3.4190844340180154e-01  3.3397583101786898e-01  3.2432721680292304e-01  3.1353597950797091e-01  3.0223705764798930e-01  2.9100364555110919e-01  2.8024030760985652e-01  2.7018953303370735e-01  2.6102961446321310e-01  2.5292282882097816e-01  2.4601069448826582e-01  2.4041027877458793e-01  2.3622472152594942e-01  2.3356334401654733e-01  2.3256107361185824e-01  2.3334782293149953e-01  2.3589659083694714e-01  2.3995275549097667e-01  2.4511682210109415e-01  2.5099767699610503e-01  2.5725520279789110e-01  2.6352896952891069e-01  2.6946400660638842e-01  2.7475073529696242e-01  2.7911511218396357e-01  2.8242894063728707e-01  2.8478636140801439e-01  2.8650875662505304e-01  2.8811306435100936e-01  2.9020653875840108e-01  2.9332710821676911e-01  2.9779030110437166e-01  3.0361577248139254e-01  3.1076047594894229e-01  3.1919807670721395e-01  3.2890271982910085e-01  3.3981653430769887e-01  3.5178465571062262e-01  3.6439164725841000e-01  3.7669862481260524e-01  3.8716743585169744e-01  3.9405827480938610e-01  3.9605264684281771e-01  3.9234684663207403e-01  3.8256654142528890e-01  3.6675132167734092e-01  3.4533048328590615e-01  3.1905327779342907e-01  2.8898707424177800e-01  2.5653819625925572e-01  2.2335389036508338e-01  1.9105421090873118e-01  1.6104633775759258e-01  1.3427011034846734e-01  1.1115157432875329e-01  9.1662429508299309e-02  7.5509997671679790e-02  6.2269516885964847e-02  5.1479418452603273e-02  4.2704026181749080e-02  3.5562904583924485e-02  2.9737932778184820e-02  2.4969709778352670e-02  2.1049886357668992e-02  1.7812526333222126e-02  1.5126036886249677e-02  1.2886122550795067e-02  1.1010022746223553e-02  9.4318549347944848e-03  8.0989481651750142e-03  6.9689984776762541e-03  6.0078385066429183e-03  5.1877333542138734e-03  4.4860402768820687e-03  3.8841788442803586e-03  3.3668195718710736e-03  2.9212539546256619e-03  2.5368929235587432e-03  2.2048776769271784e-03  1.9177620523699018e-03  1.6692689592578182e-03  1.4540867893910500e-03  1.2677117492469849e-03  1.1063159545676422e-03  9.6664230840683998e-04  8.4591764258700223e-04  7.4178112448890178e-04  6.5222453066565917e-04  5.7554391264759658e-04  5.1029793622231641e-04  4.5527439429995307e-04  4.0946248125408073e-04  3.7202860749079790e-04  3.4229863827983458e-04  3.1974151901514153e-04  3.0395827766814825e-04  2.9467294465823071e-04  2.9172862580740210e-04  2.2791446838483123e-01  2.2737066802516964e-01  2.2511040119802789e-01  2.2125024116286063e-01  2.1598187170837652e-01  2.0965494410670552e-01  2.0264883247123822e-01  1.9536539391191124e-01  1.8815898953263346e-01  1.8129099006836358e-01  1.7493117271453495e-01  1.6919620726409743e-01  1.6417953887662842e-01  1.5996021255552231e-01  1.5660657923537136e-01  1.5418174843191507e-01  1.5275049843968916e-01  1.5238071639140327e-01  1.5312398311677466e-01  1.5496683878654863e-01  1.5780577575978666e-01  1.61473083404