<?xml version="1.0"?>
<VTKFile type="UnstructuredGrid"  version="0.1"  >
<UnstructuredGrid>
<Piece  NumberOfPoints="5151" NumberOfCells="10000">
<Points>
<DataArray  type="Float64"  NumberOfComponents="3"  format="ascii">0 0 0  0.01 0 0  0.02 0 0  0.03 0 0  0.04 0 0  0.05 0 0  0.06 0 0  0.07000000000000001 0 0  0.08 0 0  0.09 0 0  0.1 0 0  0.11 0 0  0.12 0 0  0.13 0 0  0.14 0 0  0.15 0 0  0.16 0 0  0.17 0 0  0.18 0 0  0.19 0 0  0.2 0 0  0.21 0 0  0.22 0 0  0.23 0 0  0.24 0 0  0.25 0 0  0.26 0 0  0.27 0 0  0.28 0 0  0.29 0 0  0.3 0 0  0.31 0 0  0.32 0 0  0.33 0 0  0.34 0 0  0.35 0 0  0.36 0 0  0.37 0 0  0.38 0 0  0.39 0 0  0.4 0 0  0.41 0 0  0.42 0 0  0.43 0 0  0.44 0 0  0.45 0 0  0.46 0 0  0.47 0 0  0.48 0 0  0.49 0 0  0.5 0 0  0.51 0 0  0.52 0 0  0.53 0 0  0.54 0 0  0.55 0 0  0.5600000000000001 0 0  0.57 0 0  0.58 0 0  0.59 0 0  0.6 0 0  0.61 0 0  0.62 0 0  0.63 0 0  0.64 0 0  0.65 0 0  0.66 0 0  0.67 0 0  0.68 0 0  0.6899999999999999 0 0  0.7 0 0  0.71 0 0  0.72 0 0  0.73 0 0  0.74 0 0  0.75 0 0  0.76 0 0  0.77 0 0  0.78 0 0  0.79 0 0  0.8 0 0  0.8100000000000001 0 0  0.82 0 0  0.83 0 0  0.84 0 0  0.85 0 0  0.86 0 0  0.87 0 0  0.88 0 0  0.89 0 0  0.9 0 0  0.91 0 0  0.92 0 0  0.93 0 0  0.9399999999999999 0 0  0.95 0 0  0.96 0 0  0.97 0 0  0.98 0 0  0.99 0 0  1 0 0  0 0.01 0  0.01 0.01 0  0.02 0.01 0  0.03 0.01 0  0.04 0.01 0  0.05 0.01 0  0.06 0.01 0  0.07000000000000001 0.01 0  0.08 0.01 0  0.09 0.01 0  0.1 0.01 0  0.11 0.01 0  0.12 0.01 0  0.13 0.01 0  0.14 0.01 0  0.15 0.01 0  0.16 0.01 0  0.17 0.01 0  0.18 0.01 0  0.19 0.01 0  0.2 0.01 0  0.21 0.01 0  0.22 0.01 0  0.23 0.01 0  0.24 0.01 0  0.25 0.01 0  0.26 0.01 0  0.27 0.01 0  0.28 0.01 0  0.29 0.01 0  0.3 0.01 0  0.31 0.01 0  0.32 0.01 0  0.33 0.01 0  0.34 0.01 0  0.35 0.01 0  0.36 0.01 0  0.37 0.01 0  0.38 0.01 0  0.39 0.01 0  0.4 0.01 0  0.41 0.01 0  0.42 0.01 0  0.43 0.01 0  0.44 0.01 0  0.45 0.01 0  0.46 0.01 0  0.47 0.01 0  0.48 0.01 0  0.49 0.01 0  0.5 0.01 0  0.51 0.01 0  0.52 0.01 0  0.53 0.01 0  0.54 0.01 0  0.55 0.01 0  0.5600000000000001 0.01 0  0.57 0.01 0  0.58 0.01 0  0.59 0.01 0  0.6 0.01 0  0.61 0.01 0  0.62 0.01 0  0.63 0.01 0  0.64 0.01 0  0.65 0.01 0  0.66 0.01 0  0.67 0.01 0  0.68 0.01 0  0.6899999999999999 0.01 0  0.7 0.01 0  0.71 0.01 0  0.72 0.01 0  0.73 0.01 0  0.74 0.01 0  0.75 0.01 0  0.76 0.01 0  0.77 0.01 0  0.78 0.01 0  0.79 0.01 0  0.8 0.01 0  0.8100000000000001 0.01 0  0.82 0.01 0  0.83 0.01 0  0.84 0.01 0  0.85 0.01 0  0.86 0.01 0  0.87 0.01 0  0.88 0.01 0  0.89 0.01 0  0.9 0.01 0  0.91 0.01 0  0.92 0.01 0  0.93 0.01 0  0.9399999999999999 0.01 0  0.95 0.01 0  0.96 0.01 0  0.97 0.01 0  0.98 0.01 0  0.99 0.01 0  1 0.01 0  0 0.02 0  0.01 0.02 0  0.02 0.02 0  0.03 0.02 0  0.04 0.02 0  0.05 0.02 0  0.06 0.02 0  0.07000000000000001 0.02 0  0.08 0.02 0  0.09 0.02 0  0.1 0.02 0  0.11 0.02 0  0.12 0.02 0  0.13 0.02 0  0.14 0.02 0  0.15 0.02 0  0.16 0.02 0  0.17 0.02 0  0.18 0.02 0  0.19 0.02 0  0.2 0.02 0  0.21 0.02 0  0.22 0.02 0  0.23 0.02 0  0.24 0.02 0  0.25 0.02 0  0.26 0.02 0  0.27 0.02 0  0.28 0.02 0  0.29 0.02 0  0.3 0.02 0  0.31 0.02 0  0.32 0.02 0  0.33 0.02 0  0.34 0.02 0  0.35 0.02 0  0.36 0.02 0  0.37 0.02 0  0.38 0.02 0  0.39 0.02 0  0.4 0.02 0  0.41 0.02 0  0.42 0.02 0  0.43 0.02 0  0.44 0.02 0  0.45 0.02 0  0.46 0.02 0  0.47 0.02 0  0.48 0.02 0  0.49 0.02 0  0.5 0.02 0  0.51 0.02 0  0.52 0.02 0  0.53 0.02 0  0.54 0.02 0  0.55 0.02 0  0.5600000000000001 0.02 0  0.57 0.02 0  0.58 0.02 0  0.59 0.02 0  0.6 0.02 0  0.61 0.02 0  0.62 0.02 0  0.63 0.02 0  0.64 0.02 0  0.65 0.02 0  0.66 0.02 0  0.67 0.02 0  0.68 0.02 0  0.6899999999999999 0.02 0  0.7 0.02 0  0.71 0.02 0  0.72 0.02 0  0.73 0.02 0  0.74 0.02 0  0.75 0.02 0  0.76 0.02 0  0.77 0.02 0  0.78 0.02 0  0.79 0.02 0  0.8 0.02 0  0.8100000000000001 0.02 0  0.82 0.02 0  0.83 0.02 0  0.84 0.02 0  0.85 0.02 0  0.86 0.02 0  0.87 0.02 0  0.88 0.02 0  0.89 0.02 0  0.9 0.02 0  0.91 0.02 0  0.92 0.02 0  0.93 0.02 0  0.9399999999999999 0.02 0  0.95 0.02 0  0.96 0.02 0  0.97 0.02 0  0.98 0.02 0  0.99 0.02 0  1 0.02 0  0 0.03 0  0.01 0.03 0  0.02 0.03 0  0.03 0.03 0  0.04 0.03 0  0.05 0.03 0  0.06 0.03 0  0.07000000000000001 0.03 0  0.08 0.03 0  0.09 0.03 0  0.1 0.03 0  0.11 0.03 0  0.12 0.03 0  0.13 0.03 0  0.14 0.03 0  0.15 0.03 0  0.16 0.03 0  0.17 0.03 0  0.18 0.03 0  0.19 0.03 0  0.2 0.03 0  0.21 0.03 0  0.22 0.03 0  0.23 0.03 0  0.24 0.03 0  0.25 0.03 0  0.26 0.03 0  0.27 0.03 0  0.28 0.03 0  0.29 0.03 0  0.3 0.03 0  0.31 0.03 0  0.32 0.03 0  0.33 0.03 0  0.34 0.03 0  0.35 0.03 0  0.36 0.03 0  0.37 0.03 0  0.38 0.03 0  0.39 0.03 0  0.4 0.03 0  0.41 0.03 0  0.42 0.03 0  0.43 0.03 0  0.44 0.03 0  0.45 0.03 0  0.46 0.03 0  0.47 0.03 0  0.48 0.03 0  0.49 0.03 0  0.5 0.03 0  0.51 0.03 0  0.52 0.03 0  0.53 0.03 0  0.54 0.03 0  0.55 0.03 0  0.5600000000000001 0.03 0  0.57 0.03 0  0.58 0.03 0  0.59 0.03 0  0.6 0.03 0  0.61 0.03 0  0.62 0.03 0  0.63 0.03 0  0.64 0.03 0  0.65 0.03 0  0.66 0.03 0  0.67 0.03 0  0.68 0.03 0  0.6899999999999999 0.03 0  0.7 0.03 0  0.71 0.03 0  0.72 0.03 0  0.73 0.03 0  0.74 0.03 0  0.75 0.03 0  0.76 0.03 0  0.77 0.03 0  0.78 0.03 0  0.79 0.03 0  0.8 0.03 0  0.8100000000000001 0.03 0  0.82 0.03 0  0.83 0.03 0  0.84 0.03 0  0.85 0.03 0  0.86 0.03 0  0.87 0.03 0  0.88 0.03 0  0.89 0.03 0  0.9 0.03 0  0.91 0.03 0  0.92 0.03 0  0.93 0.03 0  0.9399999999999999 0.03 0  0.95 0.03 0  0.96 0.03 0  0.97 0.03 0  0.98 0.03 0  0.99 0.03 0  1 0.03 0  0 0.04 0  0.01 0.04 0  0.02 0.04 0  0.03 0.04 0  0.04 0.04 0  0.05 0.04 0  0.06 0.04 0  0.07000000000000001 0.04 0  0.08 0.04 0  0.09 0.04 0  0.1 0.04 0  0.11 0.04 0  0.12 0.04 0  0.13 0.04 0  0.14 0.04 0  0.15 0.04 0  0.16 0.04 0  0.17 0.04 0  0.18 0.04 0  0.19 0.04 0  0.2 0.04 0  0.21 0.04 0  0.22 0.04 0  0.23 0.04 0  0.24 0.04 0  0.25 0.04 0  0.26 0.04 0  0.27 0.04 0  0.28 0.04 0  0.29 0.04 0  0.3 0.04 0  0.31 0.04 0  0.32 0.04 0  0.33 0.04 0  0.34 0.04 0  0.35 0.04 0  0.36 0.04 0  0.37 0.04 0  0.38 0.04 0  0.39 0.04 0  0.4 0.04 0  0.41 0.04 0  0.42 0.04 0  0.43 0.04 0  0.44 0.04 0  0.45 0.04 0  0.46 0.04 0  0.47 0.04 0  0.48 0.04 0  0.49 0.04 0  0.5 0.04 0  0.51 0.04 0  0.52 0.04 0  0.53 0.04 0  0.54 0.04 0  0.55 0.04 0  0.5600000000000001 0.04 0  0.57 0.04 0  0.58 0.04 0  0.59 0.04 0  0.6 0.04 0  0.61 0.04 0  0.62 0.04 0  0.63 0.04 0  0.64 0.04 0  0.65 0.04 0  0.66 0.04 0  0.67 0.04 0  0.68 0.04 0  0.6899999999999999 0.04 0  0.7 0.04 0  0.71 0.04 0  0.72 0.04 0  0.73 0.04 0  0.74 0.04 0  0.75 0.04 0  0.76 0.04 0  0.77 0.04 0  0.78 0.04 0  0.79 0.04 0  0.8 0.04 0  0.8100000000000001 0.04 0  0.82 0.04 0  0.83 0.04 0  0.84 0.04 0  0.85 0.04 0  0.86 0.04 0  0.87 0.04 0  0.88 0.04 0  0.89 0.04 0  0.9 0.04 0  0.91 0.04 0  0.92 0.04 0  0.93 0.04 0  0.9399999999999999 0.04 0  0.95 0.04 0  0.96 0.04 0  0.97 0.04 0  0.98 0.04 0  0.99 0.04 0  1 0.04 0  0 0.05 0  0.01 0.05 0  0.02 0.05 0  0.03 0.05 0  0.04 0.05 0  0.05 0.05 0  0.06 0.05 0  0.07000000000000001 0.05 0  0.08 0.05 0  0.09 0.05 0  0.1 0.05 0  0.11 0.05 0  0.12 0.05 0  0.13 0.05 0  0.14 0.05 0  0.15 0.05 0  0.16 0.05 0  0.17 0.05 0  0.18 0.05 0  0.19 0.05 0  0.2 0.05 0  0.21 0.05 0  0.22 0.05 0  0.23 0.05 0  0.24 0.05 0  0.25 0.05 0  0.26 0.05 0  0.27 0.05 0  0.28 0.05 0  0.29 0.05 0  0.3 0.05 0  0.31 0.05 0  0.32 0.05 0  0.33 0.05 0  0.34 0.05 0  0.35 0.05 0  0.36 0.05 0  0.37 0.05 0  0.38 0.05 0  0.39 0.05 0  0.4 0.05 0  0.41 0.05 0  0.42 0.05 0  0.43 0.05 0  0.44 0.05 0  0.45 0.05 0  0.46 0.05 0  0.47 0.05 0  0.48 0.05 0  0.49 0.05 0  0.5 0.05 0  0.51 0.05 0  0.52 0.05 0  0.53 0.05 0  0.54 0.05 0  0.55 0.05 0  0.5600000000000001 0.05 0  0.57 0.05 0  0.58 0.05 0  0.59 0.05 0  0.6 0.05 0  0.61 0.05 0  0.62 0.05 0  0.63 0.05 0  0.64 0.05 0  0.65 0.05 0  0.66 0.05 0  0.67 0.05 0  0.68 0.05 0  0.6899999999999999 0.05 0  0.7 0.05 0  0.71 0.05 0  0.72 0.05 0  0.73 0.05 0  0.74 0.05 0  0.75 0.05 0  0.76 0.05 0  0.77 0.05 0  0.78 0.05 0  0.79 0.05 0  0.8 0.05 0  0.8100000000000001 0.05 0  0.82 0.05 0  0.83 0.05 0  0.84 0.05 0  0.85 0.05 0  0.86 0.05 0  0.87 0.05 0  0.88 0.05 0  0.89 0.05 0  0.9 0.05 0  0.91 0.05 0  0.92 0.05 0  0.93 0.05 0  0.9399999999999999 0.05 0  0.95 0.05 0  0.96 0.05 0  0.97 0.05 0  0.98 0.05 0  0.99 0.05 0  1 0.05 0  0 0.06 0  0.01 0.06 0  0.02 0.06 0  0.03 0.06 0  0.04 0.06 0  0.05 0.06 0  0.06 0.06 0  0.07000000000000001 0.06 0  0.08 0.06 0  0.09 0.06 0  0.1 0.06 0  0.11 0.06 0  0.12 0.06 0  0.13 0.06 0  0.14 0.06 0  0.15 0.06 0  0.16 0.06 0  0.17 0.06 0  0.18 0.06 0  0.19 0.06 0  0.2 0.06 0  0.21 0.06 0  0.22 0.06 0  0.23 0.06 0  0.24 0.06 0  0.25 0.06 0  0.26 0.06 0  0.27 0.06 0  0.28 0.06 0  0.29 0.06 0  0.3 0.06 0  0.31 0.06 0  0.32 0.06 0  0.33 0.06 0  0.34 0.06 0  0.35 0.06 0  0.36 0.06 0  0.37 0.06 0  0.38 0.06 0  0.39 0.06 0  0.4 0.06 0  0.41 0.06 0  0.42 0.06 0  0.43 0.06 0  0.44 0.06 0  0.45 0.06 0  0.46 0.06 0  0.47 0.06 0  0.48 0.06 0  0.49 0.06 0  0.5 0.06 0  0.51 0.06 0  0.52 0.06 0  0.53 0.06 0  0.54 0.06 0  0.55 0.06 0  0.5600000000000001 0.06 0  0.57 0.06 0  0.58 0.06 0  0.59 0.06 0  0.6 0.06 0  0.61 0.06 0  0.62 0.06 0  0.63 0.06 0  0.64 0.06 0  0.65 0.06 0  0.66 0.06 0  0.67 0.06 0  0.68 0.06 0  0.6899999999999999 0.06 0  0.7 0.06 0  0.71 0.06 0  0.72 0.06 0  0.73 0.06 0  0.74 0.06 0  0.75 0.06 0  0.76 0.06 0  0.77 0.06 0  0.78 0.06 0  0.79 0.06 0  0.8 0.06 0  0.8100000000000001 0.06 0  0.82 0.06 0  0.83 0.06 0  0.84 0.06 0  0.85 0.06 0  0.86 0.06 0  0.87 0.06 0  0.88 0.06 0  0.89 0.06 0  0.9 0.06 0  0.91 0.06 0  0.92 0.06 0  0.93 0.06 0  0.9399999999999999 0.06 0  0.95 0.06 0  0.96 0.06 0  0.97 0.06 0  0.98 0.06 0  0.99 0.06 0  1 0.06 0  0 0.07000000000000001 0  0.01 0.07000000000000001 0  0.02 0.07000000000000001 0  0.03 0.07000000000000001 0  0.04 0.07000000000000001 0  0.05 0.07000000000000001 0  0.06 0.07000000000000001 0  0.07000000000000001 0.07000000000000001 0  0.08 0.07000000000000001 0  0.09 0.07000000000000001 0  0.1 0.07000000000000001 0  0.11 0.07000000000000001 0  0.12 0.07000000000000001 0  0.13 0.07000000000000001 0  0.14 0.07000000000000001 0  0.15 0.07000000000000001 0  0.16 0.07000000000000001 0  0.17 0.07000
[...]
<PointData  Scalars="rho_bar"> 
<DataArray  type="Float64"  Name="rho_bar"  format="ascii">9.9733032780307218e-01  9.9750234907473767e-01  9.9703047594823890e-01  9.9671801950316208e-01  9.9634581402940681e-01  9.9600667935872034e-01  9.9570756954268125e-01  9.9543802348467836e-01  9.9515668614948793e-01  9.9481159601315139e-01  9.9436601494304655e-01  9.9382050004525324e-01  9.9322174459031798e-01  9.9265084811549176e-01  9.9219710467480404e-01  9.9192680634815711e-01  9.9186303875410287e-01  9.9198729283856035e-01  9.9226074866402925e-01  9.9264757959814853e-01  9.9312342291465905e-01  9.9367446408706750e-01  9.9429704198620084e-01  9.9498608744962669e-01  9.9572260399404011e-01  9.9647371573128429e-01  9.9719999535550397e-01  9.9786096291162052e-01  9.9841153101503599e-01  9.9880192118799060e-01  9.9901441080322906e-01  9.9910578014437623e-01  9.9916460094219772e-01  9.9921466875682330e-01  9.9920651586383558e-01  9.9906870594276098e-01  9.9863328898886550e-01  9.9756359923343529e-01  9.9204470474824391e-01  9.7430899370174173e-01  8.3227010707649240e-01  3.7132754952182456e-01  9.0877980543753442e-02  2.3071560334643339e-02  7.1394146878332948e-03  2.5371740919868770e-03  1.0604597822715957e-03  4.6410003589336245e-04  2.1713002128242708e-04  1.1440956238203342e-04  6.3136423623359969e-05  3.4891224560991196e-05  2.0398079794558399e-05  1.2589860318352395e-05  7.8956156091127905e-06  5.0988604487316367e-06  3.4117681617731599e-06  2.3355643678992332e-06  1.6378999898266771e-06  1.1768051192848529e-06  8.6271971354831656e-07  6.4468275358481617e-07  4.9017288352030839e-07  3.7842021452871771e-07  2.9617611361731245e-07  2.3461265348964947e-07  1.8781839209519347e-07  1.5175135564220803e-07  1.2359848656310746e-07  1.0137227235900328e-07  8.3646102643553312e-08  6.9380599058725700e-08  5.7808126952577082e-08  4.8353922023801135e-08  4.0582260599144443e-08  3.4159000687330789e-08  2.8825020936286925e-08  2.4377249598450235e-08  2.0655078062354404e-08  1.7530462389820835e-08  1.4900392833398801e-08  1.2681543916461464e-08  1.0805935241273871e-08  9.2180067327314763e-09  7.8719177434487382e-09  6.7298545620046552e-09  5.7603791039951261e-09  4.9374174001848274e-09  4.2391729917354521e-09  3.6474979558869830e-09  3.1471944637072930e-09  2.7256367723183929e-09  2.3722626165286000e-09  2.0783550730562396e-09  1.8367007145420055e-09  1.6414814840197869e-09  1.4880274031248142e-09  1.3727774576810973e-09  1.2931881975185030e-09  1.2480998871876595e-09  1.2387131686529986e-09  9.9962881244767532e-01  9.9851037608210069e-01  9.9894506287117590e-01  9.9898535151574541e-01  9.9888620295051822e-01  9.9847821405890647e-01  9.9766191912963709e-01  9.9639708481018519e-01  9.9473042703795289e-01  9.9279671733133601e-01  9.9079029860001366e-01  9.8892910482034002e-01  9.8741501770997897e-01  9.8640100808922315e-01  9.8596699612609595e-01  9.8610980987502783e-01  9.8675845170608134e-01  9.8780686548518182e-01  9.8914244187964273e-01  9.9065127914590922e-01  9.9221468284779801e-01  9.9372002811739868e-01  9.9506355314796802e-01  9.9615748260416548e-01  9.9695551766509483e-01  9.9746446087547680e-01  9.9773464238902176e-01  9.9784276047188214e-01  9.9788181918945951e-01  9.9796710178891501e-01  9.9820102451343518e-01  9.9856574711852630e-01  9.9889705072112622e-01  9.9905591475317757e-01  9.9905138413489836e-01  9.9890721802966020e-01  9.9849226832778037e-01  9.9720658329990208e-01  9.9284258141487147e-01  9.7312537118542219e-01  8.5328478236081839e-01  4.4073440260341479e-01  1.1001802269598598e-01  3.0437984800126029e-02  9.2558042687711228e-03  3.3367222314491215e-03  1.2605584105775205e-03  5.4808486781620584e-04  2.8502040445159876e-04  1.4389781412914323e-04  7.0945482075954492e-05  4.0293922876412513e-05  2.4342526121949689e-05  1.4272029667713459e-05  8.7801029611770130e-06  5.7081468799448965e-06  3.7512180116300506e-06  2.5357677983613974e-06  1.7692215147894924e-06  1.2590914090675359e-06  9.1652783546826141e-07  6.8105673883886036e-07  5.1494776196791447e-07  3.9578146643721409e-07  3.0856116832357162e-07  2.4360576393859597e-07  1.9446741318984254e-07  1.5674312380898787e-07  1.2740146062986769e-07  1.0430852073838197e-07  8.5940643604053715e-08  7.1193533108915555e-08  5.9254765175015038e-08  4.9518583647784359e-08  4.1527416593236285e-08  3.4931471804900924e-08  2.9460328548229799e-08  2.4902659227052113e-08  2.1091761335177612e-08  1.7894942582620966e-08  1.5205795992649443e-08  1.2938244688664156e-08  1.1022378337583807e-08  9.4009286872229312e-09  8.0268973355839319e-09  6.8613953648800673e-09  5.8722748842370514e-09  5.0327655766063389e-09  4.3206103448418904e-09  3.7171991222014284e-09  3.2070507580207347e-09  2.7772185802562133e-09  2.4169574845735108e-09  2.1173227072348797e-09  1.8709971925960542e-09  1.6720023578517842e-09  1.5155854507864775e-09  1.3980465642045058e-09  1.3166863593336461e-09  1.2696158988978271e-09  1.2554086677745179e-09  9.8749493189859250e-01  9.9093362644447414e-01  9.8881659349318185e-01  9.8709152878858153e-01  9.8505416361279752e-01  9.8312685905175567e-01  9.8158360253351284e-01  9.8058674467131246e-01  9.8008642412575409e-01  9.7981979949790521e-01  9.7943937758856237e-01  9.7867153648836136e-01  9.7745233749397653e-01  9.7596296019332018e-01  9.7453120148650996e-01  9.7347745034190392e-01  9.7297712339018705e-01  9.7301512288053982e-01  9.7346479060079816e-01  9.7418411734477051e-01  9.7511796929529804e-01  9.7628417134610390e-01  9.7775159208804197e-01  9.7963974982574853e-01  9.8201942135535070e-01  9.8483539164405909e-01  9.8792479318659243e-01  9.9105552556918519e-01  9.9396990696442267e-01  9.9636879079166785e-01  9.9789865702452529e-01  9.9840221068537183e-01  9.9826833694045336e-01  9.9815652993479209e-01  9.9825139168883026e-01  9.9823630901108640e-01  9.9780313029814960e-01  9.9649042385190856e-01  9.9229510404130983e-01  9.7590161609419757e-01  8.9884379014576166e-01  6.0420493437755929e-01  2.1615310771752164e-01  6.3379864160479985e-02  1.9054837944684242e-02  6.1464732414005371e-03  2.6215775016957344e-03  1.2727559538728446e-03  4.9923461336473160e-04  2.0434072673166905e-04  1.2760737139881466e-04  7.3290444464618211e-05  3.5143924034147611e-05  2.0426953746682149e-05  1.3124578839967100e-05  7.8125845115904681e-06  4.9394926874387768e-06  3.3123775783308159e-06  2.2220039469180255e-06  1.5442684326599465e-06  1.1037411032187952e-06  8.0316381204981878e-07  5.9801919018032175e-07  4.5328964523296682e-07  3.4915473937133603e-07  2.7290373915988729e-07  2.1596751714394879e-07  1.7279865654064674e-07  1.3957603001588407e-07  1.1367050251643431e-07  9.3232679702211475e-08  7.6938950444215843e-08  6.3828839242504640e-08  5.3194077825328543e-08  4.4505372817759747e-08  3.7362101226142646e-08  3.1457186289265194e-08  2.6552616794383169e-08  2.2461975485217995e-08  1.9037915085669105e-08  1.6162892187010640e-08  1.3742450753904005e-08  1.1700077405830045e-08  9.9735371613020609e-09  8.5117916730123426e-09  7.2728962835246534e-09  6.2221468892692158e-09  5.3308282825268590e-09  4.5750337763703240e-09  3.9348979512916573e-09  3.3938429420665923e-09  2.9380881504907873e-09  2.5561569764710744e-09  2.2385605013286120e-09  1.9774779556100140e-09  1.7665682081291215e-09  1.6007461727775190e-09  1.4760499201467385e-09  1.3894787474266867e-09  1.3389088617282425e-09  1.3227635270994264e-09  9.9867963686577566e-01  9.8914645855990579e-01  9.9185350546405671e-01  9.9308446462975086e-01  9.9305606606263741e-01  9.9016984053484991e-01  9.8268947178531252e-01  9.6917887856211238e-01  9.4902474085967270e-01  9.2300142256389017e-01  8.9330884987873083e-01  8.6319089568751728e-01  8.3647163677983227e-01  8.1669477380886102e-01  8.0625377428894551e-01  8.0579050092050086e-01  8.1405437439955186e-01  8.2875410671833238e-01  8.4765895203672870e-01  8.6908323073742044e-01  8.9173993416891950e-01  9.1411720675032460e-01  9.3495456218897610e-01  9.5311139944875023e-01  9.6741841702249987e-01  9.7728408303707559e-01  9.8291206416289556e-01  9.8513088443165897e-01  9.8512414519233893e-01  9.8423579195383049e-01  9.8404687018238890e-01  9.8599547239560748e-01  9.8996625953652373e-01  9.9377315792801313e-01  9.9558990615016973e-01  9.9591447139593792e-01  9.9568018747271103e-01  9.9450396492207160e-01  9.9077755579438243e-01  9.7922594205009839e-01  9.3929432936939272e-01  8.0564755604776117e-01  4.9394012890762129e-01  1.9078726668035778e-01  6.1511188462707950e-02  2.4600432331713006e-02  9.2483161037247592e-03  2.6531925365906950e-03  1.1683853496533985e-03  8.1671076510131889e-04  3.5085847936650987e-04  1.1231450030747805e-04  7.4627399053002111e-05  4.8184435489777396e-05  2.2072219642582830e-05  1.2926826164945164e-05  8.5188347911840079e-06  5.0117389301510626e-06  3.2537290015627555e-06  2.2044567243967748e-06  1.4933369710379110e-06  1.0593056003970449e-06  7.6659065631440707e-07  5.6654641728315149e-07  4.2802833482011423e-07  3.2861343628668116e-07  2.5628229337990436e-07  2.0250562402561265e-07  1.6184621060553094e-07  1.3063477420568711e-07  1.0633758438554434e-07  8.7193550879724159e-08  7.1945052218455359e-08  5.9683662489458808e-08  4.9741575316051805e-08  4.1620948019078751e-08  3.4945673681174386e-08  2.9427893300652498e-08  2.4844785648042924e-08  2.1022017125702187e-08  1.7821877816467369e-08  1.5134594679596049e-08  1.2872011256035780e-08  1.0962775848804018e-08  9.3488619197241355e-09  7.9827256279888534e-09  6.8253172987710248e-09  5.8443594647067234e-09  5.0131728073959092e-09  4.3095810744475975e-09  3.7151854593122389e-09  3.2146799887994537e-09  2.7953774236785280e-09  2.4467741178051010e-09  2.1602498076262125e-09  1.9287901302329654e-09  1.7467804405869468e-09  1.6098298600232428e-09  1.5146333653691380e-09  1.4588171123711317e-09  1.4409356158618260e-09  7.8244781667589391e-01  7.8917368758933049e-01  7.6907375562640079e-01  7.3275138906460902e-01  6.8148946588866355e-01  6.1730699153795143e-01  5.4426060155402145e-01  4.6716769522672041e-01  3.9140379718314161e-01  3.2224793473445135e-01  2.6347669736400198e-01  2.1691349287535053e-01  1.8308780413203904e-01  1.6160561673852072e-01  1.5148734804495997e-01  1.5155656060921727e-01  1.6040907742279326e-01  1.7654317409488246e-01  1.9910173851144444e-01  2.2786802296905276e-01  2.6378504703626621e-01  3.0730085592384149e-01  3.5915158865210473e-01  4.2103273078085984e-01  4.9232899763192994e-01  5.6981615855917089e-01  6.4946408178526727e-01  7.2746430764026970e-01  7.9998967105956509e-01  8.6392742343401097e-01  9.1625669300309487e-01  9.5256760329362844e-01  9.7058771418037781e-01  9.7605440347284311e-01  9.7960291970967550e-01  9.8489587833544057e-01  9.8839409839745274e-01  9.8891218596832531e-01  9.8702358312182492e-01  9.8092923304492619e-01  9.6505697142150892e-01  9.2504649993788790e-01  8.2626673324508992e-01  6.0721236300217085e-01  3.1967108120802967e-01  1.1604267038307557e-01  3.7133469824894634e-02  1.7973270034259966e-02  8.7624479327187768e-03  2.3390252552446217e-03  6.3472023169327261e-04  5.9589949998252966e-04  3.0226866842185775e-04  8.2641473735699049e-05  5.2987931010448442e-05  3.5255692432167662e-05  1.5199873754428908e-05  9.3500955198028509e-06  5.9963266395641539e-06  3.4836926079030207e-06  2.3394052797418045e-06  1.5694242463670556e-06  1.0801541632618589e-06  7.7649613617119199e-07  5.6666409190477856e-07  4.2454763464555051e-07  3.2394432628762449e-07  2.5128302412154681e-07  1.9779079856192998e-07  1.5758123276211062e-07  1.2688675882949901e-07  1.0309315679410541e-07  8.4410709830892024e-08  6.9571362853154267e-08  5.7665565325354314e-08  4.8029100810223481e-08  4.0169333636785087e-08  3.3715774647995752e-08  2.8385984054044856e-08  2.3962079116232804e-08  2.0274086425967831e-08  1.7188070957118538e-08  1.4597525476400261e-08  1.2417086895885523e-08  1.0577801777625241e-08  9.0236774048634812e-09  7.7089196517795134e-09  6.5959859374288751e-09  5.6539028319790119e-09  4.8571076950977427e-09  4.1844147580093296e-09  3.6182897753548847e-09  3.1442095902117871e-09  2.7502008672820787e-09  2.4264237124415561e-09  2.1649057547491115e-09  1.9592501364291891e-09  1.8044750834033713e-09  1.6968211747006825e-09  1.6336824583387212e-09  1.6135195238924739e-09  1.0231855212207805e-01  1.0194606117960070e-01  8.6743710722693934e-02  6.5035800399501367e-02  3.9536022261328616e-02  1.5881896160716114e-02  -2.3167554143901973e-03  -1.3756806302892798e-02  -1.8931127817335910e-02  -1.9375085438188874e-02  -1.6997301809002510e-02  -1.3469550089749895e-02  -9.9468276937131495e-03  -7.1034600707981935e-03  -5.2297968929747888e-03  -4.3612027773282051e-03  -4.3824249935698924e-03  -5.0696610123530765e-03  -6.1670086503385034e-03  -7.4334929655013194e-03  -8.6320756451062682e-03  -9.4155720963198901e-03  -9.1439020263515813e-03  -6.7738166244376815e-03  -6.5406944210898567e-04  1.1513263552719295e-02  3.2410569775012284e-02  6.5229757195014809e-02  1.1347644250831350e-01  1.8130405297269594e-01  2.7562348112112539e-01  4.0352144722761213e-01  5.6265129478532216e-01  7.2924401501496017e-01  8.5897977853550833e-01  9.2674412938091444e-01  9.5494841062756464e-01  9.7013600892402096e-01  9.7758059981246770e-01  9.7953053722509187e-01  9.7744430510308533e-01  9.6997469357364796e-01  9.5270897872345361e-01  9.1738232598435643e-01  8.2978270103076435e-01  6.3875107130942332e-01  3.7119144937358972e-01  1.4545496916163417e-01  3.9302035245749899e-02  1.5638542624662265e-02  9.2402140977373218e-03  2.8585394271321792e-03  5.2689442308690565e-04  4.6940587401696866e-04  2.5596990536560555e-04  6.3875962950525505e-05  4.3218181230761123e-05  2.5740704170381013e-05  1.0673952933426662e-05  7.1960086995013975e-06  4.2269911858694472e-06  2.5481685547822799e-06  1.7361741724690145e-06  1.1534810229296263e-06  8.1490403954548886e-07  5.8835258138418809e-07  4.3507277234516210e-07  3.2950708256703715e-07  2.5380016731433237e-07  1.9874244544031787e-07  1.5768668835237940e-07  1.2655992556838755e-07  1.0256726573856387e-07  8.3812756621130437e-08  6.8971242427938456e-08  5.7099064004122689e-08  4.7512986043339968e-08  3.9709465141121599e-08  3.3312052291331527e-08  2.8035186399237934e-08  2.3659535923168939e-08  2.0014657133614945e-08  1.6966694792864493e-08  1.4409537776655603e-08  1.2258361384779092e-08  1.0444817950513369e-08  8.9135414097807182e-09  7.6193543345509759e-09  6.5252934252642538e-09  5.6009435641867507e-09  4.8212598107915371e-09  4.1655565031814557e-09  3.6167848597723927e-09  3.1608976728845892e-09  2.7864163906049865e-09  2.4840008899843077e-09  2.2462281703769403e-09  2.0672695642095628e-09  1.9428079106201839e-09  1.8698235444361371e-09  1.8466119518109156e-09  1.3845225107718530e-03  -3.5569098963196565e-03  -2.2385084530584941e-03  -4.3426968951819795e-05  2.9457483061517018e-03  6.2892047427647426e-03  9.0294308708384775e-03  1.0658674636378863e-02  1.1057818896976976e-02  1.0430743458890751e-02  9.1609813481354670e-03  7.6556887875037505e-03  6.2293575898444932e-03  5.0769459671670290e-03  4.2920714485304122e-03  3.8937928919324490e-03  3.8564093375507875e-03  4.1251063557792679e-03  4.6326762947155086e-03  5.3210690658266812e-03  6.1528024687340904e-03  7.0977773372581949e-03  8.0947319916436673e-03  9.0369753370529906e-03  9.7484688586551901e-03  9.9484331966771759e-03  9.3299529103248527e-03  7.6924853418928220e-03  5.1407892371632463e-03  2.4852662928586742e-03  1.8824149047664219e-03  8.8807393828506664e-03  3.7513795871056681e-02  1.1730641678699628e-01  2.8780852702620352e-01  5.4285501931830993e-01  7.7629607234508113e-01  9.0022057214478168e-01  9.5064537301687901e-01  9.7298055925101667e-01  9.8169211763552633e-01  9.8457377619677411e-01  9.8383629858371791e-01  9.7880672814788605e-01  9.6783694218778238e-01  9.4829126655509377e-01  8.9448895351104951e-01  7.4716254922864711e-01  4.8563194194584564e-01  2.1145492054701925e-01  5.6410481469359695e-02  1.5821757519468255e-02  9.1077627979757932e-03  3.1161637793796233e-03  5.2610000368413226e-04  4.0988075085248744e-04  1.9330077667229382e-04  4.6417985602815806e-05  3.6808822465308380e-05  1.6902540879019641e-05  7.9257030337695765e-06  5.4086072311091900e-06  2.9311212674927719e-06  1.9356409657192855e-06  1.2788664185257314e-06  8.7257456499967948e-07  6.2514994528619980e-07  4.5549635005249287e-07  3.4197526277677211e-07  2.6146861569488654e-07  2.0355786171022720e-07  1.6079304073728489e-07  1.2859583350661940e-07  1.0393166328446613e-07  8.4744204734915888e-08  6.9620373469426679e-08  5.7560815108622512e-08  4.7848530796754775e-08  3.9958631438724764e-08  3.3501125455544629e-08  2.8181750099849525e-08  2.3775534171071146e-08  2.0108383846775479e-08  1.7044059919568722e-08  1.4474924873902710e-08  1.2315184174084794e-08  1.0495900517955234e-08  8.9613693038413592e-09  7.6662522065703518e-09  6.5735432788034073e-09  5.6528809170481638e-09  4.8793443748038535e-09  4.2324336706385810e-09  3.6953588478166977e-09  3.2543858128318062e-09  2.8984275324114547e-09  2.6186129749878806e-09  2.4080757512425784e-09  2.2616552749948098e-09  2.1758527358559181e-09  2.1486508977845277e-09  4.5621784869140890e-04  2.0809200100271037e-03  2.4744151462308453e-03  1.7331815466870889e-03  8.6101793643850969e-04  -2.0495391227991569e-04  -1.2199926488585153e-03  -1.9622039345774472e-03  -2.3505922530698449e-03  -2.4019850977298326e-03  -2.2041004351297058e-03  -1.8714402663533676e-03  -1.5063367527374211e-03  -1.1794980219746603e-03  -9.3056595306620360e-04  -7.7488683344699211e-04  -7.1159505997877095e-04  -7.2979090492652685e-04  -8.1230159138692909e-04  -9.4080236972223365e-04  -1.1004586284487595e-03  -1.2797439678567640e-03  -1.4618729251034985e-03  -1.6161532728616716e-03  -1.6925496546748510e-03  -1.6090573524839033e-03  -1.2516361264188396e-03  -4.9357948627467717e-04  7.8534306547057219e-04  2.6669660963967233e-03  5.1963112680700786e-03  8.3924834219507635e-03  1.2202627663121810e-02  1.7231141210481981e-02  3.1059588714510315e-02  9.5204372427486236e-02  3.0644784511055956e-01  6.4734643948575010e-01  8.7680640562288847e-01  9.5529450391444304e-01  9.8102515751010644e-01  9.8925816979707226e-01  9.9191721167554514e-01  9.9215602353850785e-01  9.9066046541523534e-01  9.8582069710236164e-01  9.7551013458997604e-01  9.5960430914584971e-01  9.2378158525853560e-01  8.1072329076957206e-01  5.6908593808207175e-01  2.7333432362536214e-01  7.7896959348657493e-02  1.7940181272791709e-02  8.5705538591058904e-03  2.6789440092537366e-03  4.5812458920167917e-04  3.6095467104127265e-04  1.1518339668249261e-04  3.6855692133670342e-05  2.8010486476811069e-05  9.8813448490731922e-06  6.3885734808330692e-06  3.6458315260804128e-06  2.1435598915710887e-06  1.4436958758874220e-06  9.4860200742051224e-07  6.7190662715503009e-07  4.8356354650363607e-07  3.5935952373643429e-07  2.7287791156002259e-07  2.1116971822786331e-07  1.6608000763564625e-07  1.3235605892630324e-07  1.0668099940430958e-07  8.6800474640747664e-08  7.1191159592476809e-08  5.8783132245891540e-08  4.8815220483350320e-08  4.0733921624136536e-08  3.4130384064107581e-08  2.8697740650650393e-08  2.4202426195369331e-08  2.0464441901426762e-08  1.7343434316766044e-08  1.4728876943161531e-08  1.2532929330036603e-08  1.0685209351236647e-08  9.1289847942816131e-09  7.8182074076088416e-09  6.7153982412935953e-09  5.7899045166047519e-09  5.0166827172600401e-09  4.3752408131733039e-09  3.8489341003157935e-09  3.4242992831261798e-09  3.0906549848111498e-09  2.8396690052805999e-09  2.6651973894113365e-09  2.5629824732814878e-09  2.5306596029462650e-09  1.4131108163323796e-04  -1.4450910733060184e-04  -4.7656988489716681e-04  -4.1407588954631396e-04  -1.9754804134435657e-04  4.5309274535498477e-05  3.1684023615682390e-04  5.4255353255956631e-04  6.8222916647420401e-04  7.2880645172778140e-04  6.9730909505430158e-04  6.1612858002159333e-04  5.1512151469454816e-04  4.1757797657810260e-04  3.3797779829992090e-04  2.8332321353038021e-04  2.5524640588293771e-04  2.5200130869101358e-04  2.6974054223263474e-04  3.0368751121