<?xml version="1.0"?>
<VTKFile type="UnstructuredGrid"  version="0.1"  >
<UnstructuredGrid>
<Piece  NumberOfPoints="5151" NumberOfCells="10000">
<Points>
<DataArray  type="Float64"  NumberOfComponents="3"  format="ascii">0 0 0  0.01 0 0  0.02 0 0  0.03 0 0  0.04 0 0  0.05 0 0  0.06 0 0  0.07000000000000001 0 0  0.08 0 0  0.09 0 0  0.1 0 0  0.11 0 0  0.12 0 0  0.13 0 0  0.14 0 0  0.15 0 0  0.16 0 0  0.17 0 0  0.18 0 0  0.19 0 0  0.2 0 0  0.21 0 0  0.22 0 0  0.23 0 0  0.24 0 0  0.25 0 0  0.26 0 0  0.27 0 0  0.28 0 0  0.29 0 0  0.3 0 0  0.31 0 0  0.32 0 0  0.33 0 0  0.34 0 0  0.35 0 0  0.36 0 0  0.37 0 0  0.38 0 0  0.39 0 0  0.4 0 0  0.41 0 0  0.42 0 0  0.43 0 0  0.44 0 0  0.45 0 0  0.46 0 0  0.47 0 0  0.48 0 0  0.49 0 0  0.5 0 0  0.51 0 0  0.52 0 0  0.53 0 0  0.54 0 0  0.55 0 0  0.5600000000000001 0 0  0.57 0 0  0.58 0 0  0.59 0 0  0.6 0 0  0.61 0 0  0.62 0 0  0.63 0 0  0.64 0 0  0.65 0 0  0.66 0 0  0.67 0 0  0.68 0 0  0.6899999999999999 0 0  0.7 0 0  0.71 0 0  0.72 0 0  0.73 0 0  0.74 0 0  0.75 0 0  0.76 0 0  0.77 0 0  0.78 0 0  0.79 0 0  0.8 0 0  0.8100000000000001 0 0  0.82 0 0  0.83 0 0  0.84 0 0  0.85 0 0  0.86 0 0  0.87 0 0  0.88 0 0  0.89 0 0  0.9 0 0  0.91 0 0  0.92 0 0  0.93 0 0  0.9399999999999999 0 0  0.95 0 0  0.96 0 0  0.97 0 0  0.98 0 0  0.99 0 0  1 0 0  0 0.01 0  0.01 0.01 0  0.02 0.01 0  0.03 0.01 0  0.04 0.01 0  0.05 0.01 0  0.06 0.01 0  0.07000000000000001 0.01 0  0.08 0.01 0  0.09 0.01 0  0.1 0.01 0  0.11 0.01 0  0.12 0.01 0  0.13 0.01 0  0.14 0.01 0  0.15 0.01 0  0.16 0.01 0  0.17 0.01 0  0.18 0.01 0  0.19 0.01 0  0.2 0.01 0  0.21 0.01 0  0.22 0.01 0  0.23 0.01 0  0.24 0.01 0  0.25 0.01 0  0.26 0.01 0  0.27 0.01 0  0.28 0.01 0  0.29 0.01 0  0.3 0.01 0  0.31 0.01 0  0.32 0.01 0  0.33 0.01 0  0.34 0.01 0  0.35 0.01 0  0.36 0.01 0  0.37 0.01 0  0.38 0.01 0  0.39 0.01 0  0.4 0.01 0  0.41 0.01 0  0.42 0.01 0  0.43 0.01 0  0.44 0.01 0  0.45 0.01 0  0.46 0.01 0  0.47 0.01 0  0.48 0.01 0  0.49 0.01 0  0.5 0.01 0  0.51 0.01 0  0.52 0.01 0  0.53 0.01 0  0.54 0.01 0  0.55 0.01 0  0.5600000000000001 0.01 0  0.57 0.01 0  0.58 0.01 0  0.59 0.01 0  0.6 0.01 0  0.61 0.01 0  0.62 0.01 0  0.63 0.01 0  0.64 0.01 0  0.65 0.01 0  0.66 0.01 0  0.67 0.01 0  0.68 0.01 0  0.6899999999999999 0.01 0  0.7 0.01 0  0.71 0.01 0  0.72 0.01 0  0.73 0.01 0  0.74 0.01 0  0.75 0.01 0  0.76 0.01 0  0.77 0.01 0  0.78 0.01 0  0.79 0.01 0  0.8 0.01 0  0.8100000000000001 0.01 0  0.82 0.01 0  0.83 0.01 0  0.84 0.01 0  0.85 0.01 0  0.86 0.01 0  0.87 0.01 0  0.88 0.01 0  0.89 0.01 0  0.9 0.01 0  0.91 0.01 0  0.92 0.01 0  0.93 0.01 0  0.9399999999999999 0.01 0  0.95 0.01 0  0.96 0.01 0  0.97 0.01 0  0.98 0.01 0  0.99 0.01 0  1 0.01 0  0 0.02 0  0.01 0.02 0  0.02 0.02 0  0.03 0.02 0  0.04 0.02 0  0.05 0.02 0  0.06 0.02 0  0.07000000000000001 0.02 0  0.08 0.02 0  0.09 0.02 0  0.1 0.02 0  0.11 0.02 0  0.12 0.02 0  0.13 0.02 0  0.14 0.02 0  0.15 0.02 0  0.16 0.02 0  0.17 0.02 0  0.18 0.02 0  0.19 0.02 0  0.2 0.02 0  0.21 0.02 0  0.22 0.02 0  0.23 0.02 0  0.24 0.02 0  0.25 0.02 0  0.26 0.02 0  0.27 0.02 0  0.28 0.02 0  0.29 0.02 0  0.3 0.02 0  0.31 0.02 0  0.32 0.02 0  0.33 0.02 0  0.34 0.02 0  0.35 0.02 0  0.36 0.02 0  0.37 0.02 0  0.38 0.02 0  0.39 0.02 0  0.4 0.02 0  0.41 0.02 0  0.42 0.02 0  0.43 0.02 0  0.44 0.02 0  0.45 0.02 0  0.46 0.02 0  0.47 0.02 0  0.48 0.02 0  0.49 0.02 0  0.5 0.02 0  0.51 0.02 0  0.52 0.02 0  0.53 0.02 0  0.54 0.02 0  0.55 0.02 0  0.5600000000000001 0.02 0  0.57 0.02 0  0.58 0.02 0  0.59 0.02 0  0.6 0.02 0  0.61 0.02 0  0.62 0.02 0  0.63 0.02 0  0.64 0.02 0  0.65 0.02 0  0.66 0.02 0  0.67 0.02 0  0.68 0.02 0  0.6899999999999999 0.02 0  0.7 0.02 0  0.71 0.02 0  0.72 0.02 0  0.73 0.02 0  0.74 0.02 0  0.75 0.02 0  0.76 0.02 0  0.77 0.02 0  0.78 0.02 0  0.79 0.02 0  0.8 0.02 0  0.8100000000000001 0.02 0  0.82 0.02 0  0.83 0.02 0  0.84 0.02 0  0.85 0.02 0  0.86 0.02 0  0.87 0.02 0  0.88 0.02 0  0.89 0.02 0  0.9 0.02 0  0.91 0.02 0  0.92 0.02 0  0.93 0.02 0  0.9399999999999999 0.02 0  0.95 0.02 0  0.96 0.02 0  0.97 0.02 0  0.98 0.02 0  0.99 0.02 0  1 0.02 0  0 0.03 0  0.01 0.03 0  0.02 0.03 0  0.03 0.03 0  0.04 0.03 0  0.05 0.03 0  0.06 0.03 0  0.07000000000000001 0.03 0  0.08 0.03 0  0.09 0.03 0  0.1 0.03 0  0.11 0.03 0  0.12 0.03 0  0.13 0.03 0  0.14 0.03 0  0.15 0.03 0  0.16 0.03 0  0.17 0.03 0  0.18 0.03 0  0.19 0.03 0  0.2 0.03 0  0.21 0.03 0  0.22 0.03 0  0.23 0.03 0  0.24 0.03 0  0.25 0.03 0  0.26 0.03 0  0.27 0.03 0  0.28 0.03 0  0.29 0.03 0  0.3 0.03 0  0.31 0.03 0  0.32 0.03 0  0.33 0.03 0  0.34 0.03 0  0.35 0.03 0  0.36 0.03 0  0.37 0.03 0  0.38 0.03 0  0.39 0.03 0  0.4 0.03 0  0.41 0.03 0  0.42 0.03 0  0.43 0.03 0  0.44 0.03 0  0.45 0.03 0  0.46 0.03 0  0.47 0.03 0  0.48 0.03 0  0.49 0.03 0  0.5 0.03 0  0.51 0.03 0  0.52 0.03 0  0.53 0.03 0  0.54 0.03 0  0.55 0.03 0  0.5600000000000001 0.03 0  0.57 0.03 0  0.58 0.03 0  0.59 0.03 0  0.6 0.03 0  0.61 0.03 0  0.62 0.03 0  0.63 0.03 0  0.64 0.03 0  0.65 0.03 0  0.66 0.03 0  0.67 0.03 0  0.68 0.03 0  0.6899999999999999 0.03 0  0.7 0.03 0  0.71 0.03 0  0.72 0.03 0  0.73 0.03 0  0.74 0.03 0  0.75 0.03 0  0.76 0.03 0  0.77 0.03 0  0.78 0.03 0  0.79 0.03 0  0.8 0.03 0  0.8100000000000001 0.03 0  0.82 0.03 0  0.83 0.03 0  0.84 0.03 0  0.85 0.03 0  0.86 0.03 0  0.87 0.03 0  0.88 0.03 0  0.89 0.03 0  0.9 0.03 0  0.91 0.03 0  0.92 0.03 0  0.93 0.03 0  0.9399999999999999 0.03 0  0.95 0.03 0  0.96 0.03 0  0.97 0.03 0  0.98 0.03 0  0.99 0.03 0  1 0.03 0  0 0.04 0  0.01 0.04 0  0.02 0.04 0  0.03 0.04 0  0.04 0.04 0  0.05 0.04 0  0.06 0.04 0  0.07000000000000001 0.04 0  0.08 0.04 0  0.09 0.04 0  0.1 0.04 0  0.11 0.04 0  0.12 0.04 0  0.13 0.04 0  0.14 0.04 0  0.15 0.04 0  0.16 0.04 0  0.17 0.04 0  0.18 0.04 0  0.19 0.04 0  0.2 0.04 0  0.21 0.04 0  0.22 0.04 0  0.23 0.04 0  0.24 0.04 0  0.25 0.04 0  0.26 0.04 0  0.27 0.04 0  0.28 0.04 0  0.29 0.04 0  0.3 0.04 0  0.31 0.04 0  0.32 0.04 0  0.33 0.04 0  0.34 0.04 0  0.35 0.04 0  0.36 0.04 0  0.37 0.04 0  0.38 0.04 0  0.39 0.04 0  0.4 0.04 0  0.41 0.04 0  0.42 0.04 0  0.43 0.04 0  0.44 0.04 0  0.45 0.04 0  0.46 0.04 0  0.47 0.04 0  0.48 0.04 0  0.49 0.04 0  0.5 0.04 0  0.51 0.04 0  0.52 0.04 0  0.53 0.04 0  0.54 0.04 0  0.55 0.04 0  0.5600000000000001 0.04 0  0.57 0.04 0  0.58 0.04 0  0.59 0.04 0  0.6 0.04 0  0.61 0.04 0  0.62 0.04 0  0.63 0.04 0  0.64 0.04 0  0.65 0.04 0  0.66 0.04 0  0.67 0.04 0  0.68 0.04 0  0.6899999999999999 0.04 0  0.7 0.04 0  0.71 0.04 0  0.72 0.04 0  0.73 0.04 0  0.74 0.04 0  0.75 0.04 0  0.76 0.04 0  0.77 0.04 0  0.78 0.04 0  0.79 0.04 0  0.8 0.04 0  0.8100000000000001 0.04 0  0.82 0.04 0  0.83 0.04 0  0.84 0.04 0  0.85 0.04 0  0.86 0.04 0  0.87 0.04 0  0.88 0.04 0  0.89 0.04 0  0.9 0.04 0  0.91 0.04 0  0.92 0.04 0  0.93 0.04 0  0.9399999999999999 0.04 0  0.95 0.04 0  0.96 0.04 0  0.97 0.04 0  0.98 0.04 0  0.99 0.04 0  1 0.04 0  0 0.05 0  0.01 0.05 0  0.02 0.05 0  0.03 0.05 0  0.04 0.05 0  0.05 0.05 0  0.06 0.05 0  0.07000000000000001 0.05 0  0.08 0.05 0  0.09 0.05 0  0.1 0.05 0  0.11 0.05 0  0.12 0.05 0  0.13 0.05 0  0.14 0.05 0  0.15 0.05 0  0.16 0.05 0  0.17 0.05 0  0.18 0.05 0  0.19 0.05 0  0.2 0.05 0  0.21 0.05 0  0.22 0.05 0  0.23 0.05 0  0.24 0.05 0  0.25 0.05 0  0.26 0.05 0  0.27 0.05 0  0.28 0.05 0  0.29 0.05 0  0.3 0.05 0  0.31 0.05 0  0.32 0.05 0  0.33 0.05 0  0.34 0.05 0  0.35 0.05 0  0.36 0.05 0  0.37 0.05 0  0.38 0.05 0  0.39 0.05 0  0.4 0.05 0  0.41 0.05 0  0.42 0.05 0  0.43 0.05 0  0.44 0.05 0  0.45 0.05 0  0.46 0.05 0  0.47 0.05 0  0.48 0.05 0  0.49 0.05 0  0.5 0.05 0  0.51 0.05 0  0.52 0.05 0  0.53 0.05 0  0.54 0.05 0  0.55 0.05 0  0.5600000000000001 0.05 0  0.57 0.05 0  0.58 0.05 0  0.59 0.05 0  0.6 0.05 0  0.61 0.05 0  0.62 0.05 0  0.63 0.05 0  0.64 0.05 0  0.65 0.05 0  0.66 0.05 0  0.67 0.05 0  0.68 0.05 0  0.6899999999999999 0.05 0  0.7 0.05 0  0.71 0.05 0  0.72 0.05 0  0.73 0.05 0  0.74 0.05 0  0.75 0.05 0  0.76 0.05 0  0.77 0.05 0  0.78 0.05 0  0.79 0.05 0  0.8 0.05 0  0.8100000000000001 0.05 0  0.82 0.05 0  0.83 0.05 0  0.84 0.05 0  0.85 0.05 0  0.86 0.05 0  0.87 0.05 0  0.88 0.05 0  0.89 0.05 0  0.9 0.05 0  0.91 0.05 0  0.92 0.05 0  0.93 0.05 0  0.9399999999999999 0.05 0  0.95 0.05 0  0.96 0.05 0  0.97 0.05 0  0.98 0.05 0  0.99 0.05 0  1 0.05 0  0 0.06 0  0.01 0.06 0  0.02 0.06 0  0.03 0.06 0  0.04 0.06 0  0.05 0.06 0  0.06 0.06 0  0.07000000000000001 0.06 0  0.08 0.06 0  0.09 0.06 0  0.1 0.06 0  0.11 0.06 0  0.12 0.06 0  0.13 0.06 0  0.14 0.06 0  0.15 0.06 0  0.16 0.06 0  0.17 0.06 0  0.18 0.06 0  0.19 0.06 0  0.2 0.06 0  0.21 0.06 0  0.22 0.06 0  0.23 0.06 0  0.24 0.06 0  0.25 0.06 0  0.26 0.06 0  0.27 0.06 0  0.28 0.06 0  0.29 0.06 0  0.3 0.06 0  0.31 0.06 0  0.32 0.06 0  0.33 0.06 0  0.34 0.06 0  0.35 0.06 0  0.36 0.06 0  0.37 0.06 0  0.38 0.06 0  0.39 0.06 0  0.4 0.06 0  0.41 0.06 0  0.42 0.06 0  0.43 0.06 0  0.44 0.06 0  0.45 0.06 0  0.46 0.06 0  0.47 0.06 0  0.48 0.06 0  0.49 0.06 0  0.5 0.06 0  0.51 0.06 0  0.52 0.06 0  0.53 0.06 0  0.54 0.06 0  0.55 0.06 0  0.5600000000000001 0.06 0  0.57 0.06 0  0.58 0.06 0  0.59 0.06 0  0.6 0.06 0  0.61 0.06 0  0.62 0.06 0  0.63 0.06 0  0.64 0.06 0  0.65 0.06 0  0.66 0.06 0  0.67 0.06 0  0.68 0.06 0  0.6899999999999999 0.06 0  0.7 0.06 0  0.71 0.06 0  0.72 0.06 0  0.73 0.06 0  0.74 0.06 0  0.75 0.06 0  0.76 0.06 0  0.77 0.06 0  0.78 0.06 0  0.79 0.06 0  0.8 0.06 0  0.8100000000000001 0.06 0  0.82 0.06 0  0.83 0.06 0  0.84 0.06 0  0.85 0.06 0  0.86 0.06 0  0.87 0.06 0  0.88 0.06 0  0.89 0.06 0  0.9 0.06 0  0.91 0.06 0  0.92 0.06 0  0.93 0.06 0  0.9399999999999999 0.06 0  0.95 0.06 0  0.96 0.06 0  0.97 0.06 0  0.98 0.06 0  0.99 0.06 0  1 0.06 0  0 0.07000000000000001 0  0.01 0.07000000000000001 0  0.02 0.07000000000000001 0  0.03 0.07000000000000001 0  0.04 0.07000000000000001 0  0.05 0.07000000000000001 0  0.06 0.07000000000000001 0  0.07000000000000001 0.07000000000000001 0  0.08 0.07000000000000001 0  0.09 0.07000000000000001 0  0.1 0.07000000000000001 0  0.11 0.07000000000000001 0  0.12 0.07000000000000001 0  0.13 0.07000000000000001 0  0.14 0.07000000000000001 0  0.15 0.07000000000000001 0  0.16 0.07000000000000001 0  0.17 0.07000
[...]
<PointData  Scalars="rho_bar"> 
<DataArray  type="Float64"  Name="rho_bar"  format="ascii">9.6668156520936765e-01  9.6884842514251623e-01  9.6185771385127072e-01  9.5611461972935052e-01  9.4937780811201100e-01  9.4241633704569694e-01  9.3542309865901341e-01  9.2864607770371921e-01  9.2257147039132958e-01  9.1803837870455340e-01  9.1605847565534715e-01  9.1740629047769473e-01  9.2232206274108253e-01  9.3047563267255917e-01  9.4109414011744585e-01  9.5308168230618662e-01  9.6518222933514064e-01  9.7624154594397761e-01  9.8547753870479593e-01  9.9258474273397490e-01  9.9764906179367219e-01  1.0009696685095726e+00  1.0029101779792324e+00  1.0038160927939870e+00  1.0039758147703697e+00  1.0036045766875699e+00  1.0028505793690110e+00  1.0018001063731927e+00  1.0004989716627497e+00  9.9904805263542118e-01  9.9776739342641507e-01  9.9724270503760482e-01  9.9785914369240802e-01  9.9905958743259426e-01  9.9995618292478494e-01  9.9857206442564594e-01  1.0054056809844367e+00  9.6955199052495666e-01  1.0759122605270230e+00  3.0649031716968150e-01  -1.2345363214507112e-02  -6.2106253821960151e-04  5.1498636964116874e-04  -1.0113493293025797e-04  -1.7234603869749921e-05  8.0547859621289955e-06  4.2182982994858994e-06  -2.0127793904523789e-07  -1.0103673583605998e-06  -2.5090871156363839e-08  1.5702895614772683e-07  -2.2549046709908305e-09  -2.2837777421684653e-08  4.0559946782193229e-09  2.4653349111744732e-09  -1.2773514028605020e-09  5.2311467868182384e-11  1.6606858547253223e-10  -7.3823481230414762e-11  8.2752568580688413e-12  6.5314259276785189e-12  -4.2861796891962890e-12  1.2738362774710617e-12  -9.3741593703202056e-14  -1.1457590520512605e-13  7.5173657188549054e-14  -2.7468694062060420e-14  6.7390040638278396e-15  -4.3377152524951396e-16  -3.7773921427991721e-16  3.6571334992042303e-16  -7.7223642978249239e-17  1.0015611103108259e-16  4.3060599008762993e-17  5.8314928516850648e-17  5.5133771412182469e-17  5.5290502456347318e-17  5.5975866875966864e-17  5.6397937094286214e-17  4.4992702475779122e-17  -2.4044910235246857e-18  -4.5565376706030755e-19  1.7125905759343287e-19  -2.2948399310839337e-20  -1.7661904577655755e-21  1.8217450642436762e-21  -5.6654888171644298e-22  1.2110784187443806e-22  -2.0249535766926161e-23  3.0551865164279156e-24  -6.2181182943334663e-25  2.1933615666230609e-25  -8.8777564550182762e-26  3.2965110052896936e-26  -1.1231761437523765e-26  3.5236927829101080e-27  -1.0059925217911768e-27  2.8291963765265995e-28  -6.0966269403979578e-29  1.8388097775747976e-29  -1.4462103899851039e-29  9.9642202358324439e-01  9.8191824888185097e-01  9.8353638536806576e-01  9.8156542627882248e-01  9.7616976347531692e-01  9.6620628616582549e-01  9.5161111036808244e-01  9.3415825035264577e-01  9.1715926109063872e-01  9.0459990893121622e-01  8.9972310897436358e-01  9.0384048853813004e-01  9.1584406313144784e-01  9.3252065707808518e-01  9.4964560993276970e-01  9.6355233843205712e-01  9.7241647692394018e-01  9.7652496189949389e-01  9.7746814514371472e-01  9.7703156174128658e-01  9.7650848354914399e-01  9.7657389950206830e-01  9.7744749566487699e-01  9.7909080542799665e-01  9.8134581699241785e-01  9.8404443235562533e-01  9.8705908283467492e-01  9.9031553550802354e-01  9.9380204927193228e-01  9.9748116849968949e-01  1.0010232713717397e+00  1.0035280229798966e+00  1.0038287899969096e+00  1.0019434127064222e+00  9.9976718317526059e-01  9.9923329064275734e-01  9.9904549579751578e-01  9.9263436868752308e-01  1.0133635737830404e+00  4.6108917259633114e-01  -5.3270320174002204e-02  9.9286041333951722e-03  -1.1097195948125799e-03  -4.6757221036219038e-05  1.0273988067688711e-04  -4.3639871062231166e-06  -1.3274383455692807e-05  -3.3040264956441598e-06  2.3046303643619985e-06  8.3985437527380031e-07  -3.3785150394830238e-07  -1.1954159933442388e-07  5.9218480991541607e-08  8.3973887556391828e-09  -1.0377856029488009e-08  1.5931013948504421e-09  9.8039342267056594e-10  -5.8155930445568746e-10  9.4173522974812086e-11  4.0158573810238477e-11  -3.1319883499973274e-11  9.7417139655527217e-12  -7.7941128262935754e-13  -8.4811019143581544e-13  5.5238783906804030e-13  -1.9753344031498202e-13  4.4327149714383318e-14  -1.8929476841578174e-15  -3.6621222653007935e-15  2.4375416179355201e-15  -8.8929870763376863e-16  3.5270699389166750e-16  -2.0903888042587221e-17  7.0583984324167729e-17  5.4065606265661846e-17  5.4959330363398705e-17  5.5903547303540042e-17  5.5737033573428510e-17  5.3558053413439318e-17  5.9830758017914266e-17  -1.4422607557438073e-17  2.7211950912446346e-18  -2.3761780709808030e-19  -3.6858282496647059e-20  2.0957046861331434e-20  -5.0951483647368713e-21  7.9628284174685272e-22  -6.8062649656580453e-23  -1.8616672250492384e-24  5.2876033039474761e-25  7.4135391850125793e-25  -5.1317976674632826e-25  2.1046599375117429e-25  -7.0283933458227445e-26  2.1393266293390392e-26  -5.9423833987224233e-27  1.4901820296495668e-27  -3.7551067455741948e-28  6.0231157197017558e-29  -2.7986216699282741e-29  1.0536110023954101e-29  7.3896869817444077e-01  7.4767964198927772e-01  7.1545739458814916e-01  6.6819002176422304e-01  6.0895376624525011e-01  5.4334365449446820e-01  4.7832411499120758e-01  4.2050520382164941e-01  3.7538761251296293e-01  3.4676555888205174e-01  3.3666954580083569e-01  3.4604063242846650e-01  3.7542881726638921e-01  4.2483982200045056e-01  4.9298468316547617e-01  5.7593674906238335e-01  6.6648740352786262e-01  7.5567417514844359e-01  8.3554340274928085e-01  9.0113093720523718e-01  9.5097021524986236e-01  9.8614976444626079e-01  1.0090555836849688e+00  1.0223399435024461e+00  1.0284349310756726e+00  1.0293541691638513e+00  1.0265933962609781e+00  1.0211868527659402e+00  1.0137460697281380e+00  1.0045839200987914e+00  9.9438223931628944e-01  9.8531083324564317e-01  9.8140180946938305e-01  9.8566005938937562e-01  9.9447570422858145e-01  9.9945862261192753e-01  9.9880952108547638e-01  9.9348434178961353e-01  9.9144001914453639e-01  6.5639788171766666e-01  -3.9276813807283886e-02  1.8466255821522514e-02  -4.1955485099359818e-03  1.2288645406330703e-03  -3.4799319561350836e-04  -9.8354155118323541e-05  4.4328172486763452e-05  3.0726020149570418e-05  -3.9463362953999764e-06  -6.2049106278406846e-06  2.3467555492184629e-07  9.4025224703022300e-07  -9.9118732787452606e-08  -1.1994568437447051e-07  3.9506402641226539e-08  6.2505772923693566e-09  -7.5989625900133116e-09  1.9304475782177079e-09  2.6613107772432640e-10  -3.8192985676035363e-10  1.4371941517437135e-10  -2.0481033919334619e-11  -8.0999383805245848e-12  6.9046149616274800e-12  -2.7630088934901788e-12  7.0674034051004277e-13  -7.5977758268713421e-14  -3.6139629774127932e-14  2.9104391915946847e-14  -1.2649217166937843e-14  4.3860998939589261e-15  -1.1623965808438352e-15  3.3400132100818234e-16  1.1332375758843171e-17  5.4919104813400710e-17  5.9902230159618710e-17  5.3057748941924673e-17  5.6534144211648622e-17  5.4449499078657468e-17  6.2394399659281445e-17  8.3702367726116029e-18  2.5257478858149027e-18  -1.3325482781614780e-18  3.5831302146885720e-19  -6.8813224534819509e-20  9.7389639968196988e-21  -9.7695811795485229e-22  1.0727589933995318e-22  -4.7880136080268617e-23  2.5725722649237776e-23  -1.0583622074560040e-23  3.6865433129094992e-24  -1.1568089519129202e-24  3.4691809749830601e-25  -1.0126130229622107e-25  2.7394672777455039e-26  -6.9157520535467878e-27  1.7748536878102947e-27  -3.4912994317384427e-28  1.6928652299976055e-28  -2.9558318396804031e-29  3.5067086132932031e-02  1.8917793574904508e-02  3.9916835532488506e-03  -1.2588438548566097e-02  -2.8919281984764289e-02  -4.0487518103617920e-02  -4.6325380461077682e-02  -4.7517670626902236e-02  -4.5936369347350195e-02  -4.3424692379108322e-02  -4.1341415659330971e-02  -4.0349192935042570e-02  -4.0374642104514552e-02  -4.0608515715907942e-02  -3.9230028110350458e-02  -3.3129330311561268e-02  -1.8226743619403230e-02  9.4090660523344898e-03  5.2003994655456375e-02  1.0899280770355094e-01  1.7759809435867902e-01  2.5392984586702333e-01  3.3455559194131218e-01  4.1705230895522277e-01  4.9887131205670165e-01  5.7784809386937985e-01  6.5315981889408448e-01  7.2494716928976366e-01  7.9372105642618695e-01  8.6059099098944714e-01  9.2602488065827759e-01  9.8619102216771948e-01  1.0297127888140478e+00  1.0414400671028758e+00  1.0203430345518061e+00  9.9407232729673600e-01  9.8753108614709140e-01  9.8886120555252299e-01  9.6933447813424733e-01  8.3602789786886467e-01  1.6218449930787324e-01  2.1445757369754014e-03  -9.2535107101186418e-04  -1.7462502950453215e-03  1.0608007201134818e-04  7.9811157364754245e-04  -2.3675067006253339e-06  -1.7828185427264955e-04  -2.9867032836045298e-05  3.0025873905821370e-05  7.7714571845704739e-06  -4.4166452451779090e-06  -9.0296265899643880e-07  7.3771612690551813e-07  -2.6036377631526729e-08  -9.5322846806767962e-08  3.4698191348016015e-08  1.4171095525709974e-10  -4.7901054550723029e-09  2.1323271503382277e-09  -3.8486020176358413e-10  -8.3846688735174232e-11  9.2712455208574184e-11  -3.9486424372570479e-11  1.0556855019769777e-11  -1.2894537687452456e-12  -4.6344089030358167e-13  4.0429719536810296e-13  -1.8118742118102557e-13  6.2243961483064789e-14  -1.7378160559232366e-14  4.0138590739789271e-15  -5.5685527536075231e-16  3.8242263327740155e-17  1.2129677479620780e-16  1.9438214595267236e-17  7.0280428842805173e-17  5.0207640247611377e-17  5.7573480365116979e-17  5.3639709085310984e-17  5.5211882821364610e-17  -1.3658717603425730e-17  3.1679542602796592e-18  -5.4030278274107332e-19  6.6262246218955254e-20  -5.5336488403995307e-21  1.0281490156610996e-21  -7.1377468110161637e-22  3.6673734700674519e-22  -1.4253383563269466e-22  4.7976164786751067e-23  -1.5156812550434110e-23  4.5498095476951387e-24  -1.3397034736302673e-24  3.7608308255663134e-25  -9.3937371890226920e-26  2.2295506680596519e-26  -5.5183194555082636e-27  1.0194079702749773e-27  -5.5348900468156418e-28  -1.1578681224408552e-28  -2.9499814090534976e-03  -2.6398936331426572e-03  1.5059194773588938e-03  4.6339559372857156e-03  8.2170195084542239e-03  1.1287261120030815e-02  1.3069932319757113e-02  1.3603250875512651e-02  1.3265797258560461e-02  1.2538028101868083e-02  1.1834081585260788e-02  1.1415723384102490e-02  1.1363501265835558e-02  1.1581829028729182e-02  1.1771922673965469e-02  1.1358374265347292e-02  9.4954100672984838e-03  5.2702630009998927e-03  -1.9090532457673713e-03  -1.1953666829694847e-02  -2.4037869390522364e-02  -3.6901332900553682e-02  -4.9198470238674318e-02  -5.9635174995910090e-02  -6.7072113043648157e-02  -7.0537102492210374e-02  -6.9104833942959729e-02  -6.1696828518093029e-02  -4.6946068832699750e-02  -2.2271855224166505e-02  1.8293064750702796e-02  8.5488757689600570e-02  1.9620079931086648e-01  3.7071633368685597e-01  6.0581123642769241e-01  8.3499458029192042e-01  9.5266217488247029e-01  9.5747325628181490e-01  9.3927595403981645e-01  8.8532442567031377e-01  6.1170227362659535e-01  9.6984389459235987e-02  -1.0825170991809690e-02  1.2123361742072241e-02  2.7139712357060050e-03  -3.2376005432086389e-03  -1.2034514354941188e-03  6.5255489790252291e-04  3.7443793018152917e-04  -7.3734626474533500e-05  -7.4167976387367845e-05  7.9017611212810246e-06  1.0555121275092897e-05  -2.2994176880564325e-06  -9.7877303458460273e-07  5.7305176178747499e-07  -5.5528310779885508e-08  -5.6129372806144085e-08  3.1040309576356304e-08  -6.7699668708931527e-09  -7.3308463886379402e-10  1.2320463654284563e-09  -5.6002073409873550e-10  1.5567977049403399e-10  -2.0823823011379578e-11  -5.8759897595999627e-12  5.5800850288322541e-12  -2.5419304527562770e-12  8.7506499471832241e-13  -2.4584414511826423e-13  5.5823050840683534e-14  -8.5164110267141234e-15  -1.8929708090123872e-16  9.7285647037490796e-16  -4.4595143176365891e-16  2.6037263927133140e-16  -1.7266650674796676e-17  7.9112058453714609e-17  4.8330112479292480e-17  5.7531827486947543e-17  5.7134470856936581e-17  3.7944853796785277e-17  -7.1644791611043019e-18  1.1625743779396633e-18  -1.8073893129921629e-19  3.9502088632919947e-20  -1.4516330287139309e-20  5.8328538358090069e-21  -2.0754098932522538e-21  6.7189856468640969e-22  -2.0925464925270687e-22  6.3946208140651536e-23  -1.8634228410842522e-23  5.3021527877394837e-24  -1.3799337217950572e-24  3.1141927677367074e-25  -7.2307005150770928e-26  1.7510735689018717e-26  -2.5748352411041398e-27  1.1044721350076525e-27  1.4926841552249239e-27  2.4308406813908481e-04  9.4190790531029588e-04  2.0855636245648221e-04  -8.2833516758003159e-04  -1.7068644826896441e-03  -2.6402105186668404e-03  -3.3041851201505937e-03  -3.6070955044238870e-03  -3.6189576927174037e-03  -3.4611703300799668e-03  -3.2580026644723945e-03  -3.1018874570335623e-03  -3.0389041194912435e-03  -3.0671528322351147e-03  -3.1355767088765388e-03  -3.1284267271896576e-03  -2.8514890156685919e-03  -2.0579107746151949e-03  -5.3112563152768141e-04  1.8058958853338972e-03  4.8284016838714902e-03  8.2477429299244454e-03  1.1710223862765120e-02  1.4864945940041459e-02  1.7393381559242124e-02  1.9024894267902707e-02  1.9525403853871335e-02  1.8657794919161801e-02  1.6154863580613531e-02  1.1628446388748812e-02  4.2218688004658630e-03  -7.6588746044759116e-03  -2.6031970615728997e-02  -5.1202200382008685e-02  -7.0125278320925549e-02  -2.2469436376675801e-02  2.0534217186151757e-01  5.8682009655456935e-01  8.2809949034131336e-01  8.6508774963932955e-01  8.4647625778335767e-01  6.8194818003728708e-01  2.8551437753623732e-01  -1.1209348187553219e-03  -2.8172328092267260e-02  7.7367412438968134e-03  9.5894023044662130e-03  -5.4289930181562296e-04  -2.3578008505568179e-03  -2.5869971646864839e-04  4.0082723201985974e-04  7.2247143475292575e-05  -5.9392633403687068e-05  -4.2191254505937783e-06  8.6049661565285564e-06  -1.7175241145959297e-06  -5.6509235818749478e-07  4.4197464876328564e-07  -1.1554701510366906e-07  -3.1459535017785572e-09  1.6116746261745522e-08  -7.9276043229923945e-09  2.2972192225480173e-09  -3.3364752039072336e-10  -7.2792087817114352e-11  7.6872376262263652e-11  -3.5633090302025443e-11  1.2327805653648144e-11  -3.4692316635590682e-12  7.8565707605025284e-13  -1.2103426401209068e-13  -3.0803718201219197e-15  1.2812225749588224e-14  -6.9237586916795801e-15  2.9066152089082117e-15  -9.5754095131627438e-16  3.8392202351543656e-16  -4.3391645849604219e-17  8.3301579012574908e-17  4.8426554338450308e-17  5.5838522733377849e-17  6.3160193714764901e-17  1.7161102854428798e-17  -2.7908927193816990e-18  5.3301306660865766e-19  -1.7661540886382450e-19  7.4129541274104666e-20  -2.7861002195259302e-20  9.1412450262373293e-21  -2.8465007331243459e-21  8.7557037613679842e-22  -2.6132958260167433e-22  7.2721859184997388e-23  -1.9557846645594288e-23  4.5489859777301797e-24  -9.1933532039932718e-25  2.2091467603672638e-25  -4.4360792385159770e-26  -2.5989685821657684e-27  3.9316836899975252e-27  -9.9422843797576344e-27  1.4534158737625404e-05  -1.8196930636490670e-04  -1.8837996791562189e-04  8.4470548067374358e-05  3.4141275510399255e-04  5.8513903661740392e-04  8.0796803487331382e-04  9.3725391827917772e-04  9.7591732748278587e-04  9.5210283264142198e-04  9.0001783441819082e-04  8.4953652365363024e-04  8.1944430231501797e-04  8.1564669371198928e-04  8.3132546071522460e-04  8.4473982829972542e-04  8.1428395177166133e-04  6.7902609520253553e-04  3.7344875441494590e-04  -1.4492569964048849e-04  -8.7014292711727072e-04  -1.7442271752983783e-03  -2.6781107408246838e-03  -3.5758156959241091e-03  -4.3469063068962742e-03  -4.9123029953946360e-03  -5.2053023559679419e-03  -5.1638222441913210e-03  -4.7213864917929772e-03  -3.7977357804493956e-03  -2.2364997535231548e-03  2.8807406163168460e-04  4.3050964545346786e-03  1.0296033949494413e-02  1.7557915822375945e-02  1.8552735549367361e-02  -8.3260997113502287e-03  -8.0362571551307709e-03  3.1717965254603814e-01  7.7378871957229134e-01  8.9023458204448680e-01  9.1765457167939934e-01  9.0144891584398779e-01  7.3746207484264992e-01  3.8198759977630509e-01  6.1287230167584410e-02  -4.1769674168556571e-02  -1.2233681267712180e-02  9.6039129237502074e-03  4.4198966419604470e-03  -1.1970248068278655e-03  -8.7135648480359787e-04  1.6307439265202014e-04  1.0686106104003816e-04  -3.9002506664562705e-05  -3.4101676796461372e-06  6.0816275152504400e-06  -1.9329440755522922e-06  7.3418175069471289e-08  2.0613094336267771e-07  -1.1209331441588760e-07  3.3970104983168856e-08  -5.3171619736523099e-09  -8.7682648939880827e-10  1.0586712151530133e-09  -4.9997657754457208e-10  1.7387971580889485e-10  -4.8978140622883526e-11  1.1079969205646025e-11  -1.7081091821058310e-12  -4.2640992749775877e-14  1.7779349405938692e-13  -9.7081700951317176e-14  3.9754578448041481e-14  -1.4048292831153908e-14  4.6291299968694035e-15  -1.3227089141229026e-15  4.4313719637979538e-16  -4.5722516808928465e-17  7.9569778091796235e-17  5.1002668945479507e-17  5.3846963037324422e-17  6.5246739212728152e-17  7.2572065461289982e-18  -2.2040613677116092e-18  9.9165564966473652e-19  -3.9786896169825469e-19  1.3258236676692950e-19  -4.0003663444385245e-20  1.2106252272788125e-20  -3.6405519478503227e-21  1.0323160913218463e-21  -2.6732238992153997e-22  6.6566684329014710e-23  -1.3158373995073832e-23  2.4194210287418504e-24  -6.0479531509140425e-25  3.8911000326320685e-27  9.8754216285518215e-26  -5.7667196545275855e-26  4.8088710473310553e-26  -9.8669400980892187e-06  2.1812863089645767e-05  5.9162137860678284e-05  1.8430555181287066e-05  -5.8283419035141300e-05  -1.2443556437122922e-04  -1.8858323177950722e-04  -2.3713385695580484e-04  -2.5892764558736454e-04  -2.5982683069197799e-04  -2.4855221372064402e-04  -2.3397963119347809e-04  -2.2276982666329163e-04  -2.1824191378108757e-04  -2.2029651349836693e-04  -2.2524281340963434e-04  -2.2470456444760887e-04  -2.0470591211440455e-04  -1.4756362478429000e-04  -3.7847536481023402e-05  1.2987066578367911e-04  3.4669450864853029e-04  5.9208813254971366e-04  8.4063030295773147e-04  1.0670598127209153e-03  1.2485444250964861e-03  1.3656718995623089e-03  1.4014904114276921e-03  1.3390364788702822e-03  1.1594929759329402e-03  8.3495296298866811e-04  3.0014880958072703e-04  -5.4976133853754810e-04  -1.9114768612727008e-03  -3.6773613442445813e-03  -5.6892197183421129e-03  -1.5768622601780530e-03  9.7454283587636876e-03  -3.6812484222950924e-03  4.1657918166532903e-01  8.9235401783697632e-01  9.6216321393858006e-01  9.7407518843343566e-01  9.7751728716495156e-01  9.8366993555541160e-01  8.9591892682380414e-01  6.0625480694800415e-01  2.2921173058056521e-01  3.5628483153406481e-03  -2.7422143258626019e-02  -1.3103850697583474e-03  5.3308442303167530e-03  5.3077531131240656e-04  -7.4844762107174943e-04  4.7914640163300850e-05  7.8395885604550940e-05  -3.1884462933836876e-05  3.0228170452844489e-06  2.5432992143898687e-06  -1.5833533331624893e-06  5.0395053960055907e-07  -8.4458839469394346e-08  -1.0139405811356640e-08  1.4579831644004691e-08  -7.0238226700858133e-09  2.4550936704480846e-09  -6.9183906336962539e-10  1.5628990425773509e-10  -2.4067620352128887e-11  -5.7973881406892295e-13  2.4778001000687738e-12  -1.3541026674738927e-12  5.5268155984049429e-13  -1.9615711683068094e-13  6.3737480251417721e-14  -1.9148154411853636e-14  5.4614357331022671e-15  -1.3576966990330452e-15  3.9290838880044312e-16  -1.5056380801264187e-17  6.6763241543081210e-17  5.5672741363263527e-17  5.2131170586610251e-17  6.6346490826938949e-17  1.2870951559127154e-17  -5.6375658958781971e-18  1.9331646695548115e-18  -5.6770304820723084e-19  1.6381293366944864e-19  -4.9759814873832870e-20  1.4471772336226735e-20  -3.7960986562472271e-21  8.9583565255288926e-22  -2.0217636525783423e-22  3.0093010660957832e-23  -5.1200113804070465e-24  7.3700386079033198e-25  1.1668765453462095e-24  -8.6073593038768276e-25  3.6894649015454327e-25  -1.7111895274954875e-25  2.0122451038516821e-06  -4.8477198972567412e-07  -1.2250387994476552e-05  -1.2614675385124803e-05  5.0636997879036856e-06  2.4759892440291241e-05  4.2169467462443079e-05  5.7793180866314601e-05  6.7299640