<?xml version="1.0"?>
<VTKFile type="UnstructuredGrid"  version="0.1"  >
<UnstructuredGrid>
<Piece  NumberOfPoints="5151" NumberOfCells="10000">
<Points>
<DataArray  type="Float64"  NumberOfComponents="3"  format="ascii">0 0 0  0.01 0 0  0.02 0 0  0.03 0 0  0.04 0 0  0.05 0 0  0.06 0 0  0.07000000000000001 0 0  0.08 0 0  0.09 0 0  0.1 0 0  0.11 0 0  0.12 0 0  0.13 0 0  0.14 0 0  0.15 0 0  0.16 0 0  0.17 0 0  0.18 0 0  0.19 0 0  0.2 0 0  0.21 0 0  0.22 0 0  0.23 0 0  0.24 0 0  0.25 0 0  0.26 0 0  0.27 0 0  0.28 0 0  0.29 0 0  0.3 0 0  0.31 0 0  0.32 0 0  0.33 0 0  0.34 0 0  0.35 0 0  0.36 0 0  0.37 0 0  0.38 0 0  0.39 0 0  0.4 0 0  0.41 0 0  0.42 0 0  0.43 0 0  0.44 0 0  0.45 0 0  0.46 0 0  0.47 0 0  0.48 0 0  0.49 0 0  0.5 0 0  0.51 0 0  0.52 0 0  0.53 0 0  0.54 0 0  0.55 0 0  0.5600000000000001 0 0  0.57 0 0  0.58 0 0  0.59 0 0  0.6 0 0  0.61 0 0  0.62 0 0  0.63 0 0  0.64 0 0  0.65 0 0  0.66 0 0  0.67 0 0  0.68 0 0  0.6899999999999999 0 0  0.7 0 0  0.71 0 0  0.72 0 0  0.73 0 0  0.74 0 0  0.75 0 0  0.76 0 0  0.77 0 0  0.78 0 0  0.79 0 0  0.8 0 0  0.8100000000000001 0 0  0.82 0 0  0.83 0 0  0.84 0 0  0.85 0 0  0.86 0 0  0.87 0 0  0.88 0 0  0.89 0 0  0.9 0 0  0.91 0 0  0.92 0 0  0.93 0 0  0.9399999999999999 0 0  0.95 0 0  0.96 0 0  0.97 0 0  0.98 0 0  0.99 0 0  1 0 0  0 0.01 0  0.01 0.01 0  0.02 0.01 0  0.03 0.01 0  0.04 0.01 0  0.05 0.01 0  0.06 0.01 0  0.07000000000000001 0.01 0  0.08 0.01 0  0.09 0.01 0  0.1 0.01 0  0.11 0.01 0  0.12 0.01 0  0.13 0.01 0  0.14 0.01 0  0.15 0.01 0  0.16 0.01 0  0.17 0.01 0  0.18 0.01 0  0.19 0.01 0  0.2 0.01 0  0.21 0.01 0  0.22 0.01 0  0.23 0.01 0  0.24 0.01 0  0.25 0.01 0  0.26 0.01 0  0.27 0.01 0  0.28 0.01 0  0.29 0.01 0  0.3 0.01 0  0.31 0.01 0  0.32 0.01 0  0.33 0.01 0  0.34 0.01 0  0.35 0.01 0  0.36 0.01 0  0.37 0.01 0  0.38 0.01 0  0.39 0.01 0  0.4 0.01 0  0.41 0.01 0  0.42 0.01 0  0.43 0.01 0  0.44 0.01 0  0.45 0.01 0  0.46 0.01 0  0.47 0.01 0  0.48 0.01 0  0.49 0.01 0  0.5 0.01 0  0.51 0.01 0  0.52 0.01 0  0.53 0.01 0  0.54 0.01 0  0.55 0.01 0  0.5600000000000001 0.01 0  0.57 0.01 0  0.58 0.01 0  0.59 0.01 0  0.6 0.01 0  0.61 0.01 0  0.62 0.01 0  0.63 0.01 0  0.64 0.01 0  0.65 0.01 0  0.66 0.01 0  0.67 0.01 0  0.68 0.01 0  0.6899999999999999 0.01 0  0.7 0.01 0  0.71 0.01 0  0.72 0.01 0  0.73 0.01 0  0.74 0.01 0  0.75 0.01 0  0.76 0.01 0  0.77 0.01 0  0.78 0.01 0  0.79 0.01 0  0.8 0.01 0  0.8100000000000001 0.01 0  0.82 0.01 0  0.83 0.01 0  0.84 0.01 0  0.85 0.01 0  0.86 0.01 0  0.87 0.01 0  0.88 0.01 0  0.89 0.01 0  0.9 0.01 0  0.91 0.01 0  0.92 0.01 0  0.93 0.01 0  0.9399999999999999 0.01 0  0.95 0.01 0  0.96 0.01 0  0.97 0.01 0  0.98 0.01 0  0.99 0.01 0  1 0.01 0  0 0.02 0  0.01 0.02 0  0.02 0.02 0  0.03 0.02 0  0.04 0.02 0  0.05 0.02 0  0.06 0.02 0  0.07000000000000001 0.02 0  0.08 0.02 0  0.09 0.02 0  0.1 0.02 0  0.11 0.02 0  0.12 0.02 0  0.13 0.02 0  0.14 0.02 0  0.15 0.02 0  0.16 0.02 0  0.17 0.02 0  0.18 0.02 0  0.19 0.02 0  0.2 0.02 0  0.21 0.02 0  0.22 0.02 0  0.23 0.02 0  0.24 0.02 0  0.25 0.02 0  0.26 0.02 0  0.27 0.02 0  0.28 0.02 0  0.29 0.02 0  0.3 0.02 0  0.31 0.02 0  0.32 0.02 0  0.33 0.02 0  0.34 0.02 0  0.35 0.02 0  0.36 0.02 0  0.37 0.02 0  0.38 0.02 0  0.39 0.02 0  0.4 0.02 0  0.41 0.02 0  0.42 0.02 0  0.43 0.02 0  0.44 0.02 0  0.45 0.02 0  0.46 0.02 0  0.47 0.02 0  0.48 0.02 0  0.49 0.02 0  0.5 0.02 0  0.51 0.02 0  0.52 0.02 0  0.53 0.02 0  0.54 0.02 0  0.55 0.02 0  0.5600000000000001 0.02 0  0.57 0.02 0  0.58 0.02 0  0.59 0.02 0  0.6 0.02 0  0.61 0.02 0  0.62 0.02 0  0.63 0.02 0  0.64 0.02 0  0.65 0.02 0  0.66 0.02 0  0.67 0.02 0  0.68 0.02 0  0.6899999999999999 0.02 0  0.7 0.02 0  0.71 0.02 0  0.72 0.02 0  0.73 0.02 0  0.74 0.02 0  0.75 0.02 0  0.76 0.02 0  0.77 0.02 0  0.78 0.02 0  0.79 0.02 0  0.8 0.02 0  0.8100000000000001 0.02 0  0.82 0.02 0  0.83 0.02 0  0.84 0.02 0  0.85 0.02 0  0.86 0.02 0  0.87 0.02 0  0.88 0.02 0  0.89 0.02 0  0.9 0.02 0  0.91 0.02 0  0.92 0.02 0  0.93 0.02 0  0.9399999999999999 0.02 0  0.95 0.02 0  0.96 0.02 0  0.97 0.02 0  0.98 0.02 0  0.99 0.02 0  1 0.02 0  0 0.03 0  0.01 0.03 0  0.02 0.03 0  0.03 0.03 0  0.04 0.03 0  0.05 0.03 0  0.06 0.03 0  0.07000000000000001 0.03 0  0.08 0.03 0  0.09 0.03 0  0.1 0.03 0  0.11 0.03 0  0.12 0.03 0  0.13 0.03 0  0.14 0.03 0  0.15 0.03 0  0.16 0.03 0  0.17 0.03 0  0.18 0.03 0  0.19 0.03 0  0.2 0.03 0  0.21 0.03 0  0.22 0.03 0  0.23 0.03 0  0.24 0.03 0  0.25 0.03 0  0.26 0.03 0  0.27 0.03 0  0.28 0.03 0  0.29 0.03 0  0.3 0.03 0  0.31 0.03 0  0.32 0.03 0  0.33 0.03 0  0.34 0.03 0  0.35 0.03 0  0.36 0.03 0  0.37 0.03 0  0.38 0.03 0  0.39 0.03 0  0.4 0.03 0  0.41 0.03 0  0.42 0.03 0  0.43 0.03 0  0.44 0.03 0  0.45 0.03 0  0.46 0.03 0  0.47 0.03 0  0.48 0.03 0  0.49 0.03 0  0.5 0.03 0  0.51 0.03 0  0.52 0.03 0  0.53 0.03 0  0.54 0.03 0  0.55 0.03 0  0.5600000000000001 0.03 0  0.57 0.03 0  0.58 0.03 0  0.59 0.03 0  0.6 0.03 0  0.61 0.03 0  0.62 0.03 0  0.63 0.03 0  0.64 0.03 0  0.65 0.03 0  0.66 0.03 0  0.67 0.03 0  0.68 0.03 0  0.6899999999999999 0.03 0  0.7 0.03 0  0.71 0.03 0  0.72 0.03 0  0.73 0.03 0  0.74 0.03 0  0.75 0.03 0  0.76 0.03 0  0.77 0.03 0  0.78 0.03 0  0.79 0.03 0  0.8 0.03 0  0.8100000000000001 0.03 0  0.82 0.03 0  0.83 0.03 0  0.84 0.03 0  0.85 0.03 0  0.86 0.03 0  0.87 0.03 0  0.88 0.03 0  0.89 0.03 0  0.9 0.03 0  0.91 0.03 0  0.92 0.03 0  0.93 0.03 0  0.9399999999999999 0.03 0  0.95 0.03 0  0.96 0.03 0  0.97 0.03 0  0.98 0.03 0  0.99 0.03 0  1 0.03 0  0 0.04 0  0.01 0.04 0  0.02 0.04 0  0.03 0.04 0  0.04 0.04 0  0.05 0.04 0  0.06 0.04 0  0.07000000000000001 0.04 0  0.08 0.04 0  0.09 0.04 0  0.1 0.04 0  0.11 0.04 0  0.12 0.04 0  0.13 0.04 0  0.14 0.04 0  0.15 0.04 0  0.16 0.04 0  0.17 0.04 0  0.18 0.04 0  0.19 0.04 0  0.2 0.04 0  0.21 0.04 0  0.22 0.04 0  0.23 0.04 0  0.24 0.04 0  0.25 0.04 0  0.26 0.04 0  0.27 0.04 0  0.28 0.04 0  0.29 0.04 0  0.3 0.04 0  0.31 0.04 0  0.32 0.04 0  0.33 0.04 0  0.34 0.04 0  0.35 0.04 0  0.36 0.04 0  0.37 0.04 0  0.38 0.04 0  0.39 0.04 0  0.4 0.04 0  0.41 0.04 0  0.42 0.04 0  0.43 0.04 0  0.44 0.04 0  0.45 0.04 0  0.46 0.04 0  0.47 0.04 0  0.48 0.04 0  0.49 0.04 0  0.5 0.04 0  0.51 0.04 0  0.52 0.04 0  0.53 0.04 0  0.54 0.04 0  0.55 0.04 0  0.5600000000000001 0.04 0  0.57 0.04 0  0.58 0.04 0  0.59 0.04 0  0.6 0.04 0  0.61 0.04 0  0.62 0.04 0  0.63 0.04 0  0.64 0.04 0  0.65 0.04 0  0.66 0.04 0  0.67 0.04 0  0.68 0.04 0  0.6899999999999999 0.04 0  0.7 0.04 0  0.71 0.04 0  0.72 0.04 0  0.73 0.04 0  0.74 0.04 0  0.75 0.04 0  0.76 0.04 0  0.77 0.04 0  0.78 0.04 0  0.79 0.04 0  0.8 0.04 0  0.8100000000000001 0.04 0  0.82 0.04 0  0.83 0.04 0  0.84 0.04 0  0.85 0.04 0  0.86 0.04 0  0.87 0.04 0  0.88 0.04 0  0.89 0.04 0  0.9 0.04 0  0.91 0.04 0  0.92 0.04 0  0.93 0.04 0  0.9399999999999999 0.04 0  0.95 0.04 0  0.96 0.04 0  0.97 0.04 0  0.98 0.04 0  0.99 0.04 0  1 0.04 0  0 0.05 0  0.01 0.05 0  0.02 0.05 0  0.03 0.05 0  0.04 0.05 0  0.05 0.05 0  0.06 0.05 0  0.07000000000000001 0.05 0  0.08 0.05 0  0.09 0.05 0  0.1 0.05 0  0.11 0.05 0  0.12 0.05 0  0.13 0.05 0  0.14 0.05 0  0.15 0.05 0  0.16 0.05 0  0.17 0.05 0  0.18 0.05 0  0.19 0.05 0  0.2 0.05 0  0.21 0.05 0  0.22 0.05 0  0.23 0.05 0  0.24 0.05 0  0.25 0.05 0  0.26 0.05 0  0.27 0.05 0  0.28 0.05 0  0.29 0.05 0  0.3 0.05 0  0.31 0.05 0  0.32 0.05 0  0.33 0.05 0  0.34 0.05 0  0.35 0.05 0  0.36 0.05 0  0.37 0.05 0  0.38 0.05 0  0.39 0.05 0  0.4 0.05 0  0.41 0.05 0  0.42 0.05 0  0.43 0.05 0  0.44 0.05 0  0.45 0.05 0  0.46 0.05 0  0.47 0.05 0  0.48 0.05 0  0.49 0.05 0  0.5 0.05 0  0.51 0.05 0  0.52 0.05 0  0.53 0.05 0  0.54 0.05 0  0.55 0.05 0  0.5600000000000001 0.05 0  0.57 0.05 0  0.58 0.05 0  0.59 0.05 0  0.6 0.05 0  0.61 0.05 0  0.62 0.05 0  0.63 0.05 0  0.64 0.05 0  0.65 0.05 0  0.66 0.05 0  0.67 0.05 0  0.68 0.05 0  0.6899999999999999 0.05 0  0.7 0.05 0  0.71 0.05 0  0.72 0.05 0  0.73 0.05 0  0.74 0.05 0  0.75 0.05 0  0.76 0.05 0  0.77 0.05 0  0.78 0.05 0  0.79 0.05 0  0.8 0.05 0  0.8100000000000001 0.05 0  0.82 0.05 0  0.83 0.05 0  0.84 0.05 0  0.85 0.05 0  0.86 0.05 0  0.87 0.05 0  0.88 0.05 0  0.89 0.05 0  0.9 0.05 0  0.91 0.05 0  0.92 0.05 0  0.93 0.05 0  0.9399999999999999 0.05 0  0.95 0.05 0  0.96 0.05 0  0.97 0.05 0  0.98 0.05 0  0.99 0.05 0  1 0.05 0  0 0.06 0  0.01 0.06 0  0.02 0.06 0  0.03 0.06 0  0.04 0.06 0  0.05 0.06 0  0.06 0.06 0  0.07000000000000001 0.06 0  0.08 0.06 0  0.09 0.06 0  0.1 0.06 0  0.11 0.06 0  0.12 0.06 0  0.13 0.06 0  0.14 0.06 0  0.15 0.06 0  0.16 0.06 0  0.17 0.06 0  0.18 0.06 0  0.19 0.06 0  0.2 0.06 0  0.21 0.06 0  0.22 0.06 0  0.23 0.06 0  0.24 0.06 0  0.25 0.06 0  0.26 0.06 0  0.27 0.06 0  0.28 0.06 0  0.29 0.06 0  0.3 0.06 0  0.31 0.06 0  0.32 0.06 0  0.33 0.06 0  0.34 0.06 0  0.35 0.06 0  0.36 0.06 0  0.37 0.06 0  0.38 0.06 0  0.39 0.06 0  0.4 0.06 0  0.41 0.06 0  0.42 0.06 0  0.43 0.06 0  0.44 0.06 0  0.45 0.06 0  0.46 0.06 0  0.47 0.06 0  0.48 0.06 0  0.49 0.06 0  0.5 0.06 0  0.51 0.06 0  0.52 0.06 0  0.53 0.06 0  0.54 0.06 0  0.55 0.06 0  0.5600000000000001 0.06 0  0.57 0.06 0  0.58 0.06 0  0.59 0.06 0  0.6 0.06 0  0.61 0.06 0  0.62 0.06 0  0.63 0.06 0  0.64 0.06 0  0.65 0.06 0  0.66 0.06 0  0.67 0.06 0  0.68 0.06 0  0.6899999999999999 0.06 0  0.7 0.06 0  0.71 0.06 0  0.72 0.06 0  0.73 0.06 0  0.74 0.06 0  0.75 0.06 0  0.76 0.06 0  0.77 0.06 0  0.78 0.06 0  0.79 0.06 0  0.8 0.06 0  0.8100000000000001 0.06 0  0.82 0.06 0  0.83 0.06 0  0.84 0.06 0  0.85 0.06 0  0.86 0.06 0  0.87 0.06 0  0.88 0.06 0  0.89 0.06 0  0.9 0.06 0  0.91 0.06 0  0.92 0.06 0  0.93 0.06 0  0.9399999999999999 0.06 0  0.95 0.06 0  0.96 0.06 0  0.97 0.06 0  0.98 0.06 0  0.99 0.06 0  1 0.06 0  0 0.07000000000000001 0  0.01 0.07000000000000001 0  0.02 0.07000000000000001 0  0.03 0.07000000000000001 0  0.04 0.07000000000000001 0  0.05 0.07000000000000001 0  0.06 0.07000000000000001 0  0.07000000000000001 0.07000000000000001 0  0.08 0.07000000000000001 0  0.09 0.07000000000000001 0  0.1 0.07000000000000001 0  0.11 0.07000000000000001 0  0.12 0.07000000000000001 0  0.13 0.07000000000000001 0  0.14 0.07000000000000001 0  0.15 0.07000000000000001 0  0.16 0.07000000000000001 0  0.17 0.07000
[...]
<PointData  Scalars="rho_bar"> 
<DataArray  type="Float64"  Name="rho_bar"  format="ascii">9.9414829921473724e-01  9.9733444080300671e-01  9.9665880162600629e-01  9.9775412643209760e-01  9.9877969815958734e-01  1.0000439857686534e+00  1.0012960026450073e+00  1.0023554444576648e+00  1.0030537885996869e+00  1.0032849555091130e+00  1.0030088586392096e+00  1.0022447417549192e+00  1.0010719695433545e+00  9.9965142196290169e-01  9.9824111027672957e-01  9.9712391779917697e-01  9.9647087014647895e-01  9.9627983360593697e-01  9.9643233710680024e-01  9.9678735310230726e-01  9.9724160687110985e-01  9.9773590005683943e-01  9.9823234533135519e-01  9.9870783090274184e-01  9.9915978964464569e-01  9.9959454763409916e-01  1.0000151377575750e+00  1.0004224524991823e+00  1.0007940297138576e+00  1.0010215562262499e+00  1.0009090840904100e+00  1.0004333564880743e+00  9.9997454440858946e-01  9.9987992070905807e-01  9.9999147652004694e-01  9.9997896099254491e-01  1.0001572800279537e+00  9.9966919524309927e-01  9.9867331432099815e-01  1.0154057981515703e+00  8.6990221352741737e-01  3.4132737890032842e-02  4.8741788173953357e-04  2.6436867287452526e-04  -1.1814450139450645e-04  2.4673376659544848e-04  -5.2969350577988698e-05  -5.3460301271414567e-05  -4.7450873361836396e-06  1.3507701886025815e-05  3.7405485653216691e-06  -2.5863323651892971e-06  -7.5825442764552928e-07  5.4905845486998756e-07  3.9421207370040686e-08  -1.0315547114873406e-07  2.4563584339127293e-08  8.0447997775044917e-09  -7.0378107061863745e-09  1.7940691942868432e-09  2.3714783494316677e-10  -3.8095080354256249e-10  1.6268574915621151e-10  -3.2639949181319347e-11  -3.9831584006119324e-12  6.8350062377862940e-12  -3.2174058699159025e-12  1.1352157358699066e-12  -1.8067380865025807e-13  4.3873842375059357e-14  4.8005141017309943e-14  8.7347826025146375e-15  2.2522373142366368e-14  1.1991193555695969e-14  1.1692065976862717e-14  8.9950855026231889e-15  7.5174071210128190e-15  6.1746941046642705e-15  5.1528581711506122e-15  4.2784838476026810e-15  3.5925927357523443e-15  3.0139408692023611e-15  2.5178628862714688e-15  2.1226779600533731e-15  1.8054863994558567e-15  1.5197354862094428e-15  1.2975338648784429e-15  1.0877773119838976e-15  9.3845213121372650e-16  8.0089711099052026e-16  6.7207480225305983e-16  5.9443841853026175e-16  5.0949237729100914e-16  4.5125480593680941e-16  3.9863967637922105e-16  3.3027241332236462e-16  3.3261851335910314e-16  2.6842268210008513e-16  2.7744635844236389e-16  2.7791627562593916e-16  2.7742938387833935e-16  1.0148778762331168e+00  1.0054631843473070e+00  1.0069147211491698e+00  1.0053183395998602e+00  1.0034108523028473e+00  1.0010030616135888e+00  9.9840285168207499e-01  9.9599251227257513e-01  9.9414657751503999e-01  9.9315175327233840e-01  9.9316175154222297e-01  9.9420510613756330e-01  9.9618795479299083e-01  9.9887589568925361e-01  1.0018395178954729e+00  1.0044928890889671e+00  1.0063398149459113e+00  1.0072098924223030e+00  1.0072477358883525e+00  1.0067354419810270e+00  1.0059276084958226e+00  1.0049832437240029e+00  1.0039949404687225e+00  1.0030276679880410e+00  1.0021080424022069e+00  1.0012269689366928e+00  1.0003753223790104e+00  9.9955020558121810e-01  9.9876202110662060e-01  9.9812177686126213e-01  9.9795281354660692e-01  9.9858554801677157e-01  9.9966730324084918e-01  1.0002482863036681e+00  1.0001254012018965e+00  9.9996714321726776e-01  1.0000166819608181e+00  9.9967621285759312e-01  1.0018431946742612e+00  9.9357981653952598e-01  9.6463217294588355e-01  7.6490860206236799e-02  4.6153429551614358e-03  -6.0682491377416837e-04  7.6913816891380920e-04  -5.7207137207362002e-04  -6.9860896640394594e-05  1.3436390096459343e-04  5.5367542539639842e-05  -2.1025805379471097e-05  -1.8955605293773170e-05  2.2865814554258081e-06  3.9861631755303349e-06  -6.9083296894239972e-07  -5.9611952738348125e-07  2.5525852753808141e-07  2.2378274322388788e-08  -4.8435532686870929e-08  1.5577421891549065e-08  6.3707882434513618e-10  -2.6077466265634648e-09  1.1961434726732262e-09  -2.4939445385612114e-10  -2.9499702523145574e-11  4.9596567580625341e-11  -2.3722054329568705e-11  7.5241882320790572e-12  -1.3540097880336138e-12  1.4826526257925431e-14  2.1206728037061206e-13  -6.8398308738654849e-14  5.9919475689740758e-14  5.7603271654812075e-15  1.7396230362456469e-14  1.0762198407670644e-14  9.4784445922935770e-15  7.6876276088925129e-15  6.3236690794041961e-15  5.2599071783518791e-15  4.3914939144548995e-15  3.6592796343427328e-15  3.0678551539416889e-15  2.5810610643322923e-15  2.1858395110338445e-15  1.8337392887355418e-15  1.5539703114087622e-15  1.3101043344387607e-15  1.1246646658020932e-15  9.5986431379464183e-16  8.1680695226539278e-16  7.0931095581330219e-16  6.0351377090380142e-16  5.1912881582460679e-16  4.5362134939119720e-16  3.9637618742856676e-16  3.4505588669950165e-16  3.4147485637900432e-16  2.7526156846372102e-16  2.8312612509063192e-16  2.7669985765703969e-16  2.7744798124256668e-16  9.4724940223029375e-01  9.7860289900845920e-01  9.7432735555811734e-01  9.7825430906057198e-01  9.8372599645560366e-01  9.9127375965419839e-01  9.9997714515549174e-01  1.0086608506115049e+00  1.0159847818297019e+00  1.0207916185771735e+00  1.0223736205403926e+00  1.0204653605309713e+00  1.0152008895178544e+00  1.0071171519519624e+00  9.9728769341714074e-01  9.8749541562640719e-01  9.7974252658944605e-01  9.7523069455641953e-01  9.7393394443733261e-01  9.7502343082381393e-01  9.7751554842829258e-01  9.8069258199338882e-01  9.8415356808755083e-01  9.8763235545837935e-01  9.9095792151753026e-01  9.9411878498736406e-01  9.9716477456664709e-01  1.0001068845884447e+00  1.0029486321349317e+00  1.0055390975107377e+00  1.0071611996311816e+00  1.0064554467195925e+00  1.0030477651676386e+00  9.9969102961411982e-01  9.9915964917998878e-01  9.9998977772105946e-01  1.0000814279046697e+00  1.0000140792063406e+00  1.0001476221482886e+00  9.9610398036315717e-01  1.0167356578485465e+00  4.0094503394705061e-01  -2.1765518113424778e-02  8.0192921222008735e-03  -4.8066061699668832e-03  1.6756211443150529e-03  9.8333194676029976e-04  -3.1124290772426146e-04  -3.7213671509190384e-04  -1.4728327998671567e-05  9.5845741864419100e-05  1.9423343972435564e-05  -1.9311838393750910e-05  -2.8502979563526057e-06  3.8168740000574597e-06  -3.9203048033473158e-07  -5.0158560076515764e-07  2.3929890491710060e-07  -1.9145582478218031e-08  -2.7474438720910958e-08  1.5954283922243791e-08  -4.1564976578808755e-09  -1.0241086638781231e-11  5.6381584890786325e-10  -3.1352244402018260e-10  1.0812224492649600e-10  -2.4170331962619563e-11  1.6038506215667124e-12  1.8735576106996517e-12  -1.1750061465008177e-12  5.4677141786471249e-13  -1.5091561450599457e-13  7.0441936087921545e-14  2.6573825050588559e-15  1.5049913753751672e-14  9.7453040985193689e-15  8.2017977780356548e-15  6.8615888363938965e-15  5.6030716078677250e-15  4.6777697710336195e-15  3.8997951436546262e-15  3.2667710057120931e-15  2.7405797602862347e-15  2.3100928459932267e-15  1.9342917665429380e-15  1.6325243263541282e-15  1.4000369368637901e-15  1.1808771800882216e-15  1.0118588116552793e-15  8.5885661163823655e-16  7.3077734494233446e-16  6.2411731185548581e-16  5.5414001235718488e-16  4.7173204617400469e-16  4.1822113613414356e-16  3.8010331006650714e-16  3.1966099262400876e-16  3.3033412397044213e-16  2.5886820511259454e-16  2.7521365155595603e-16  2.7931953597585575e-16  1.1588623660612518e+00  1.0834733312033984e+00  1.0893895801721447e+00  1.0795494559833192e+00  1.0608752238396282e+00  1.0327649786801050e+00  9.9723789527524354e-01  9.5811376998282261e-01  9.2061154932414169e-01  8.9074916783065727e-01  8.7378728698047703e-01  8.7303157621090521e-01  8.8929617980234210e-01  9.2052092933976071e-01  9.6217725434249812e-01  1.0072665453001097e+00  1.0471100071678154e+00  1.0749176201303958e+00  1.0887429760416820e+00  1.0908610276879251e+00  1.0852557486217256e+00  1.0754640860493745e+00  1.0636681301520399e+00  1.0511196269137026e+00  1.0387643026190838e+00  1.0269831073629396e+00  1.0156416855292847e+00  1.0046435654548611e+00  9.9401024577486718e-01  9.8385251979217614e-01  9.7557091057330847e-01  9.7315158292874082e-01  9.8120714491609973e-01  9.9600157233310005e-01  1.0036595266945560e+00  1.0012778908306774e+00  9.9940561851055032e-01  1.0000615863434186e+00  9.9979838620762362e-01  1.0008777344815856e+00  9.9432609340093170e-01  9.3182308545419090e-01  1.7107273344246782e-01  -2.0564047414064115e-02  2.1164759036727224e-02  -1.3182157111357569e-04  -6.0583478420592656e-03  -5.2720356484849628e-04  1.7261500200581700e-03  6.4458237906504377e-04  -3.1381532010395414e-04  -2.2583866998815191e-04  4.9477562397347036e-05  4.3563063919867245e-05  -1.4255913188036888e-05  -4.1138037629089623e-06  3.4924833642598882e-06  -6.0747631111981900e-07  -2.8134817082327626e-07  2.1734121398679271e-07  -6.5474754431285000e-08  3.3733541184343811e-09  7.0457967293438199e-09  -4.3310617909887158e-09  1.5553234790484784e-09  -3.6334949532079332e-10  2.8344648820649773e-11  2.4464309671112299e-11  -1.7026706956887143e-11  7.3773099112780480e-12  -2.4654326675604574e-12  7.5491255206962005e-13  -1.5753957939207882e-13  5.3874751117585144e-14  9.6844793286424154e-15  1.0738808060326251e-14  1.0053771343963783e-14  7.2153891331040857e-15  6.4114129607810930e-15  5.1312280459116873e-15  4.3276699856126629e-15  3.6013197215776413e-15  3.0119722837956487e-15  2.5353929167281661e-15  2.1295123314421475e-15  1.7975450908204125e-15  1.5213166232964778e-15  1.2911258294711959e-15  1.0903668788910353e-15  9.3337802836624949e-16  8.0715320660660677e-16  6.9562534110593356e-16  6.0395017719221058e-16  5.2076322929301676e-16  4.5979983614199432e-16  3.9618006916407649e-16  3.7778500569293072e-16  3.2218764085328352e-16  3.3512829564238896e-16  3.0789658235183211e-16  2.7347685835186085e-16  2.1976660055354483e-01  3.0309033568829169e-01  2.6781650095780257e-01  2.1239597934929472e-01  1.5017605684564747e-01  8.9601677500994764e-02  3.7099397498911175e-02  -5.3572317715647379e-03  -3.6742993045960924e-02  -5.6908368415680657e-02  -6.7175913786993655e-02  -6.9315931992985871e-02  -6.3831508124917419e-02  -4.9451710846541347e-02  -2.3027155603845384e-02  1.9640787142407804e-02  8.1091398951992633e-02  1.6033587925116702e-01  2.5354196112363969e-01  3.5369542821799516e-01  4.5365886480839029e-01  5.4729908688318152e-01  6.3208980623369893e-01  7.0894291184021607e-01  7.7758243780244907e-01  8.3794251293124866e-01  8.9193587499633831e-01  9.4169211298905808e-01  9.8803052285887827e-01  1.0314602117009655e+00  1.0705670464516603e+00  1.0957061823462768e+00  1.0888706641152546e+00  1.0420281333686738e+00  9.9281015054847521e-01  9.8836595020218554e-01  1.0013622269686857e+00  1.0005215668088712e+00  9.9949939861003523e-01  9.9985617567393970e-01  9.9944287863308834e-01  9.9526923782573551e-01  9.6697386786930151e-01  4.0275458595548691e-01  -4.4586682998337464e-02  -3.0671861809082549e-02  2.3087808552660308e-02  1.1751335438743597e-02  -4.8459645011433980e-03  -4.9285468816982125e-03  3.9357981834532272e-05  1.3446467303960131e-03  1.5972849621419025e-04  -2.7434674118493566e-04  -6.4526902829460171e-08  4.5193172150770865e-05  -1.3168559559419958e-05  -2.1702423399922232e-06  2.8667288517471036e-06  -1.0084570307138456e-06  9.7942827690250140e-08  8.5754352069156370e-08  -5.9341386608974820e-08  2.2202911707823743e-08  -5.3644378694524928e-09  4.8072543013634859e-10  3.2371217972121770e-10  -2.3711884545958654e-10  1.0277009899069555e-10  -3.5084233934559252e-11  1.0231167747098735e-11  -2.4806577415716503e-12  5.3094454608338044e-13  -4.0145345620896272e-14  7.4635319193606666e-15  2.4130172280076053e-14  5.5658704883280020e-15  1.0894258896269612e-14  6.4795330514505322e-15  6.1786372998809248e-15  4.8617499423017673e-15  4.1161736230476427e-15  3.4157126147735882e-15  2.8597109375351168e-15  2.3960337109887663e-15  2.0362443554528607e-15  1.7207978289315511e-15  1.4513159765447151e-15  1.2402693427528000e-15  1.0745344237701488e-15  9.0738361347549465e-16  7.6977273128048660e-16  6.6172549976558449e-16  5.7768782523917210e-16  5.0646795791486846e-16  4.5699200437611445e-16  3.9974721537206289e-16  3.7817387154686555e-16  3.4069864480938487e-16  3.3354301170236069e-16  3.4012646478695368e-16  -1.4029474905228732e-02  -5.9908244295626203e-02  -6.4945292595517193e-02  -5.3814405983040381e-02  -4.1028006116095091e-02  -2.6786115960849979e-02  -1.3207261865703512e-02  -1.5454596455718905e-03  7.6839908003203655e-03  1.4168356042950673e-02  1.7979684034126409e-02  1.9530296569021388e-02  1.9145236731505044e-02  1.6748566388203736e-02  1.1805077118626394e-02  3.4126630679554145e-03  -9.1497255947532927e-03  -2.5687791572264536e-02  -4.4995494163691897e-02  -6.5004778126082532e-02  -8.3313781487816790e-02  -9.7874261639638443e-02  -1.0743500195540893e-01  -1.1135647046452228e-01  -1.0902044733154455e-01  -1.0004668469524185e-01  -8.4264948616299393e-02  -6.0770998858848631e-02  -2.8140103443146641e-02  1.6275378467428572e-02  8.0973871482429363e-02  1.8326835398512148e-01  3.5398220830882010e-01  6.1945817721573082e-01  9.1549130110494137e-01  1.0525661809094942e+00  1.0062464196302767e+00  9.9244250231882380e-01  1.0025462646231018e+00  9.9895241557188641e-01  9.9984746739960706e-01  1.0005998522438573e+00  9.8984720706031348e-01  1.0362154582218743e+00  9.1159751039113224e-01  4.0566695681283088e-01  -1.1904280569539877e-02  -7.6232626061253805e-02  -2.5654264399803568e-03  2.4148209652819306e-02  7.9555502226025063e-03  -4.9186869268887847e-03  -2.8041574803467743e-03  9.5292271279717310e-04  4.4072692596065582e-04  -2.4041980057673369e-04  8.8446255718851298e-07  3.5731598175265885e-05  -1.5291276590052893e-05  2.1591410679680073e-06  9.9120644747743597e-07  -8.0791625740022150e-07  3.1693955631944361e-07  -7.9243797306948881e-08  8.0298103932674535e-09  4.2558133501323392e-09  -3.2873338217913735e-09  1.4390092501466661e-09  -4.9391575478341113e-10  1.4320237378835924e-10  -3.5241339320210000e-11  7.0957193474569665e-12  -8.2390359192451478e-13  -1.0316407614812923e-13  1.6945023980287975e-13  -5.6863788613969884e-14  4.2045295400040847e-14  4.0757418428313993e-16  1.1886298241622980e-14  6.0491265343091341e-15  6.0804498395370117e-15  4.7276896485617127e-15  4.0247839198623580e-15  3.3368589777081671e-15  2.7942810219083053e-15  2.3627931881047251e-15  1.9777250964397796e-15  1.6850019591058664e-15  1.4197806077752364e-15  1.2055316264236322e-15  1.0211834047184474e-15  8.7779143813889524e-16  7.7566181083116913e-16  6.6323441740333735e-16  5.7884409976974147e-16  5.1111162114948328e-16  4.6596746150201929e-16  4.2941486665740911e-16  4.0172981311113701e-16  3.8395127079596280e-16  3.8360210486397383e-16  -8.2096769288558509e-04  1.0384869544726054e-02  1.7894483881329845e-02  1.6157372150238342e-02  1.2755383718305799e-02  9.1182026291352584e-03  5.3202933832131958e-03  1.9091368293260417e-03  -9.0460975338579853e-04  -3.0154516023875098e-03  -4.3862339226670016e-03  -5.0908403635811332e-03  -5.2419406421437709e-03  -4.8789511549412936e-03  -3.9197417463025909e-03  -2.1610672171037135e-03  6.3909212091290551e-04  4.5668814453387347e-03  9.4343463675640483e-03  1.4793276177360795e-02  2.0025426643235273e-02  2.4516829215222077e-02  2.7824113275422061e-02  2.9716379523904397e-02  3.0042096350548980e-02  2.8673469998168263e-02  2.5576427305794690e-02  2.0658676515333832e-02  1.3678838718119306e-02  4.3394653961852337e-03  -8.3384856939836775e-03  -2.6522244743847366e-02  -5.2992040091715500e-02  -8.4635548560352131e-02  -6.9936626639605495e-02  1.8741018589059971e-01  7.5732780668778510e-01  1.0277904728439147e+00  9.8568817644011930e-01  1.0026760379819188e+00  9.9932078453134765e-01  9.9944279726454766e-01  1.0020987470768667e+00  9.9416535270353779e-01  9.9056060741468088e-01  1.0506488323566312e+00  1.0173715397809102e+00  6.6967034048088359e-01  1.9209970110315608e-01  -6.6229218780028229e-02  -6.4937108208922414e-02  4.2950541926425638e-03  1.8916970046711612e-02  4.1026054011631324e-04  -3.6422801461542509e-03  5.6126211636452032e-04  3.9480993909348633e-04  -2.2738852846980061e-04  4.2760108992550097e-05  1.0404466897290433e-05  -1.0916286184564753e-05  4.5287440131964174e-06  -1.1729392208648153e-06  1.3211068483727794e-07  5.5549126856187405e-08  -4.5564663080513559e-08  2.0178429412510811e-08  -6.9494186938974736e-09  2.0126343974746776e-09  -4.9531321771280589e-10  9.8712103000954612e-11  -1.1907401474394941e-11  -1.7712827239234396e-12  2.1039848148681414e-12  -9.9267868547475128e-13  4.2327848803159766e-13  -1.2497804825540061e-13  5.8888228529789574e-14  -3.3876090018800973e-15  1.2489455561572592e-14  5.9263955681350329e-15  6.0162226348927497e-15  4.7126066388092481e-15  3.9575376343911032e-15  3.3118755972236554e-15  2.7619835334737404e-15  2.3399377832560856e-15  1.9611465304667368e-15  1.6862758443662706e-15  1.4094797390806116e-15  1.1967672571754331e-15  1.0188287177393184e-15  8.9856212952347354e-16  7.7090231616673400e-16  6.6748161186395660e-16  6.0206430058452422e-16  5.4686203655791805e-16  4.9564454169488538e-16  4.6518777788116997e-16  4.5052699929067066e-16  4.2399245870532253e-16  5.2644920661589758e-04  -1.1249312592991004e-03  -4.0612887494173465e-03  -4.7572906194747562e-03  -3.8855464384233381e-03  -2.9371044576424169e-03  -1.9310547189230318e-03  -9.5090004313670273e-04  -1.1249621367395180e-04  5.4976655221902965e-04  1.0155654220395914e-03  1.2900891963846855e-03  1.4018606147779219e-03  1.3741002212108808e-03  1.2018899228068809e-03  8.4580509695213700e-04  2.4121817574362096e-04  -6.6162562139037047e-04  -1.8507748765788103e-03  -3.2391570212519380e-03  -4.6793176888628458e-03  -6.0000183887541263e-03  -7.0556978041442326e-03  -7.7579698359070094e-03  -8.0594766818479404e-03  -7.9217291993592051e-03  -7.3240338170929738e-03  -6.2546337337105792e-03  -4.6665575479204200e-03  -2.4937193070626064e-03  4.0895605309221723e-04  4.4835573818070027e-03  1.0446056587328533e-02  1.8919920975988457e-02  2.7289357480092518e-02  2.4533092842259665e-04  -4.8619430708041873e-02  4.6050752329924760e-01  1.0217357311601745e+00  9.9009642698984490e-01  1.0010136832640366e+00  1.0000050157232325e+00  9.9959243389499597e-01  1.0001044183386887e+00  1.0033599220321576e+00  9.9406736828629205e-01  9.8050564005732499e-01  1.0193829378941417e+00  1.0728898898655501e+00  9.4213491048679732e-01  5.6808641125923431e-01  1.3505979875465957e-01  -7.2882860335966429e-02  -3.1806330068009710e-02  1.6615946899158941e-02  2.9564237986451159e-03  -3.2660848876485916e-03  8.0439689248840791e-04  8.5987270584087893e-05  -1.4596062650773417e-04  6.4831360893964876e-05  -1.7414927428083400e-05  2.1490495563344436e-06  7.1892222301375640e-07  -6.3181152039944666e-07  2.8321872386629881e-07  -9.7827955127406808e-08  2.8311216895106339e-08  -6.9528379632831309e-09  1.3794310034701935e-09  -1.6642955695076777e-10  -2.5411339745084892e-11  2.8876106768934162e-11  -1.4129769856368604e-11  5.6314518854920684e-12  -1.9396737526975843e-12  6.5937953232475177e-13  -1.7723175908029164e-13  6.8501111093330847e-14  -4.2428172419873436e-15  1.2312888063172310e-14  6.1609495967685040e-15  5.9592774535170028e-15  4.7582225318871617e-15  3.9887015630708738e-15  3.3267993745921156e-15  2.8023049035101692e-15  2.3520750628077104e-15  1.9770246632602251e-15  1.6838997546990465e-15  1.4344729933232516e-15  1.2207008567151520e-15  1.0548240661591545e-15  9.0491825885531455e-16  7.9395492019145311e-16  7.0884224521937343e-16  6.2887922588445154e-16  5.7025443854458332e-16  5.5035777929871393e-16  5.1342274866258668e-16  5.0398249423969024e-16  -1.0153757377904851e-04  7.2007890213481649e-06  7.1494105589733220e-04  1.2571519016899317e-03  1.1828640545907801e-03  9.1312239081064203e-04  6.5338071108963581e-04  3.8314901261058841e-04  1.3693791569739476e-04  -6.4878149117211469e-05  -2.1631152246332777e-04  -3.1486563443522202e-04  -3.6564356747318056e-04  -3.76534724693406