<?xml version="1.0"?>
<VTKFile type="UnstructuredGrid"  version="0.1"  >
<UnstructuredGrid>
<Piece  NumberOfPoints="327" NumberOfCells="584">
<Points>
<DataArray  type="Float64"  NumberOfComponents="3"  format="ascii">0 0 0  0.03304347826086956 0 0  0.03304347826086956 0.03333333333333333 0  0 0.03333333333333333 0  0.06608695652173913 0 0  0.06608695652173913 0.03333333333333333 0  0.09913043478260869 0 0  0.09913043478260869 0.03333333333333333 0  0.1321739130434783 0 0  0.1321739130434783 0.03333333333333333 0  0.1652173913043478 0 0  0.1652173913043478 0.03333333333333333 0  0.1982608695652174 0 0  0.1982608695652174 0.03333333333333333 0  0.2313043478260869 0 0  0.2313043478260869 0.03333333333333333 0  0.2643478260869565 0 0  0.2643478260869565 0.03333333333333333 0  0.2973913043478261 0 0  0.2973913043478261 0.03333333333333333 0  0.3304347826086956 0 0  0.3304347826086956 0.03333333333333333 0  0.3634782608695652 0 0  0.3634782608695652 0.03333333333333333 0  0.3965217391304348 0 0  0.3965217391304348 0.03333333333333333 0  0.4295652173913043 0.03333333333333333 0  0.03304347826086956 0.06666666666666667 0  0 0.06666666666666667 0  0.06608695652173913 0.06666666666666667 0  0.09913043478260869 0.06666666666666667 0  0.1321739130434783 0.06666666666666667 0  0.1652173913043478 0.06666666666666667 0  0.1982608695652174 0.06666666666666667 0  0.2313043478260869 0.06666666666666667 0  0.2643478260869565 0.06666666666666667 0  0.2973913043478261 0.06666666666666667 0  0.3304347826086956 0.06666666666666667 0  0.3634782608695652 0.06666666666666667 0  0.3965217391304348 0.06666666666666667 0  0.4295652173913043 0.06666666666666667 0  0.4626086956521739 0.06666666666666667 0  0.03304347826086956 0.1 0  0 0.1 0  0.06608695652173913 0.1 0  0.09913043478260869 0.1 0  0.1321739130434783 0.1 0  0.1652173913043478 0.1 0  0.1982608695652174 0.1 0  0.2313043478260869 0.1 0  0.2643478260869565 0.1 0  0.2973913043478261 0.1 0  0.3304347826086956 0.1 0  0.3634782608695652 0.1 0  0.3965217391304348 0.1 0  0.4295652173913043 0.1 0  0.4626086956521739 0.1 0  0.4956521739130435 0.1 0  0.03304347826086956 0.1333333333333333 0  0 0.1333333333333333 0  0.06608695652173913 0.1333333333333333 0  0.09913043478260869 0.1333333333333333 0  0.1321739130434783 0.1333333333333333 0  0.1652173913043478 0.1333333333333333 0  0.1982608695652174 0.1333333333333333 0  0.2313043478260869 0.1333333333333333 0  0.2643478260869565 0.1333333333333333 0  0.2973913043478261 0.1333333333333333 0  0.3304347826086956 0.1333333333333333 0  0.3634782608695652 0.1333333333333333 0  0.3965217391304348 0.1333333333333333 0  0.4295652173913043 0.1333333333333333 0  0.4626086956521739 0.1333333333333333 0  0.4956521739130435 0.1333333333333333 0  0.528695652173913 0.1333333333333333 0  0.03304347826086956 0.1666666666666667 0  0 0.1666666666666667 0  0.06608695652173913 0.1666666666666667 0  0.09913043478260869 0.1666666666666667 0  0.1321739130434783 0.1666666666666667 0  0.1652173913043478 0.1666666666666667 0  0.1982608695652174 0.1666666666666667 0  0.2313043478260869 0.1666666666666667 0  0.2643478260869565 0.1666666666666667 0  0.2973913043478261 0.1666666666666667 0  0.3304347826086956 0.1666666666666667 0  0.3634782608695652 0.1666666666666667 0  0.3965217391304348 0.1666666666666667 0  0.4295652173913043 0.1666666666666667 0  0.4626086956521739 0.1666666666666667 0  0.4956521739130435 0.1666666666666667 0  0.528695652173913 0.1666666666666667 0  0.5617391304347825 0.1666666666666667 0  0.03304347826086956 0.2 0  0 0.2 0  0.06608695652173913 0.2 0  0.09913043478260869 0.2 0  0.1321739130434783 0.2 0  0.1652173913043478 0.2 0  0.1982608695652174 0.2 0  0.2313043478260869 0.2 0  0.2643478260869565 0.2 0  0.2973913043478261 0.2 0  0.3304347826086956 0.2 0  0.3634782608695652 0.2 0  0.3965217391304348 0.2 0  0.4295652173913043 0.2 0  0.4626086956521739 0.2 0  0.4956521739130435 0.2 0  0.528695652173913 0.2 0  0.5617391304347825 0.2 0  0.5947826086956521 0.2 0  0.03304347826086956 0.2333333333333333 0  0 0.2333333333333333 0  0.06608695652173913 0.2333333333333333 0  0.09913043478260869 0.2333333333333333 0  0.1321739130434783 0.2333333333333333 0  0.1652173913043478 0.2333333333333333 0  0.1982608695652174 0.2333333333333333 0  0.2313043478260869 0.2333333333333333 0  0.2643478260869565 0.2333333333333333 0  0.2973913043478261 0.2333333333333333 0  0.3304347826086956 0.2333333333333333 0  0.3634782608695652 0.2333333333333333 0  0.3965217391304348 0.2333333333333333 0  0.4295652173913043 0.2333333333333333 0  0.4626086956521739 0.2333333333333333 0  0.4956521739130435 0.2333333333333333 0  0.528695652173913 0.2333333333333333 0  0.5617391304347825 0.2333333333333333 0  0.5947826086956521 0.2333333333333333 0  0.6278260869565218 0.2333333333333333 0  0.03304347826086956 0.2666666666666667 0  0 0.2666666666666667 0  0.06608695652173913 0.2666666666666667 0  0.09913043478260869 0.2666666666666667 0  0.1321739130434783 0.2666666666666667 0  0.1652173913043478 0.2666666666666667 0  0.1982608695652174 0.2666666666666667 0  0.2313043478260869 0.2666666666666667 0  0.2643478260869565 0.2666666666666667 0  0.2973913043478261 0.2666666666666667 0  0.3304347826086956 0.2666666666666667 0  0.3634782608695652 0.2666666666666667 0  0.3965217391304348 0.2666666666666667 0  0.4295652173913043 0.2666666666666667 0  0.4626086956521739 0.2666666666666667 0  0.4956521739130435 0.2666666666666667 0  0.528695652173913 0.2666666666666667 0  0.5617391304347825 0.2666666666666667 0  0.5947826086956521 0.2666666666666667 0  0.6278260869565218 0.2666666666666667 0  0.6608695652173913 0.2666666666666667 0  0.03304347826086956 0.3 0  0 0.3 0  0.06608695652173913 0.3 0  0.09913043478260869 0.3 0  0.1321739130434783 0.3 0  0.1652173913043478 0.3 0  0.1982608695652174 0.3 0  0.2313043478260869 0.3 0  0.2643478260869565 0.3 0  0.2973913043478261 0.3 0  0.3304347826086956 0.3 0  0.3634782608695652 0.3 0  0.3965217391304348 0.3 0  0.4295652173913043 0.3 0  0.4626086956521739 0.3 0  0.4956521739130435 0.3 0  0.528695652173913 0.3 0  0.5617391304347825 0.3 0  0.5947826086956521 0.3 0  0.6278260869565218 0.3 0  0.6608695652173913 0.3 0  0.6939130434782609 0.3 0  0.03304347826086956 0.3333333333333333 0  0 0.3333333333333333 0  0.06608695652173913 0.3333333333333333 0  0.09913043478260869 0.3333333333333333 0  0.1321739130434783 0.3333333333333333 0  0.1652173913043478 0.3333333333333333 0  0.1982608695652174 0.3333333333333333 0  0.2313043478260869 0.3333333333333333 0  0.2643478260869565 0.3333333333333333 0  0.2973913043478261 0.3333333333333333 0  0.3304347826086956 0.3333333333333333 0  0.3634782608695652 0.3333333333333333 0  0.3965217391304348 0.3333333333333333 0  0.4295652173913043 0.3333333333333333 0  0.4626086956521739 0.3333333333333333 0  0.4956521739130435 0.3333333333333333 0  0.528695652173913 0.3333333333333333 0  0.5617391304347825 0.3333333333333333 0  0.5947826086956521 0.3333333333333333 0  0.6278260869565218 0.3333333333333333 0  0.6608695652173913 0.3333333333333333 0  0.6939130434782609 0.3333333333333333 0  0.7269565217391304 0.3333333333333333 0  0.03304347826086956 0.3666666666666666 0  0 0.3666666666666666 0  0.06608695652173913 0.3666666666666666 0  0.09913043478260869 0.3666666666666666 0  0.1321739130434783 0.3666666666666666 0  0.1652173913043478 0.3666666666666666 0  0.1982608695652174 0.3666666666666666 0  0.2313043478260869 0.3666666666666666 0  0.2643478260869565 0.3666666666666666 0  0.2973913043478261 0.3666666666666666 0  0.3304347826086956 0.3666666666666666 0  0.3634782608695652 0.3666666666666666 0  0.3965217391304348 0.3666666666666666 0  0.4295652173913043 0.3666666666666666 0  0.4626086956521739 0.3666666666666666 0  0.4956521739130435 0.3666666666666666 0  0.528695652173913 0.3666666666666666 0  0.5617391304347825 0.3666666666666666 0  0.5947826086956521 0.3666666666666666 0  0.6278260869565218 0.3666666666666666 0  0.6608695652173913 0.3666666666666666 0  0.6939130434782609 0.3666666666666666 0  0.7269565217391304 0.3666666666666666 0  0.7599999999999999 0.3666666666666666 0  0.03304347826086956 0.4 0  0 0.4 0  0.06608695652173913 0.4 0  0.09913043478260869 0.4 0  0.1321739130434783 0.4 0  0.1652173913043478 0.4 0  0.1982608695652174 0.4 0  0.2313043478260869 0.4 0  0.2643478260869565 0.4 0  0.2973913043478261 0.4 0  0.3304347826086956 0.4 0  0.3634782608695652 0.4 0  0.3965217391304348 0.4 0  0.4295652173913043 0.4 0  0.4626086956521739 0.4 0  0.4956521739130435 0.4 0  0.528695652173913 0.4 0  0.5617391304347825 0.4 0  0.5947826086956521 0.4 0  0.6278260869565218 0.4 0  0.6608695652173913 0.4 0  0.6939130434782609 0.4 0  0.7269565217391304 0.4 0  0.7599999999999999 0.4 0  0.7930434782608695 0.4 0  0.03304347826086956 0.4333333333333333 0  0 0.4333333333333333 0  0.06608695652173913 0.4333333333333333 0  0.09913043478260869 0.4333333333333333 0  0.1321739130434783 0.4333333333333333 0  0.1652173913043478 0.4333333333333333 0  0.1982608695652174 0.4333333333333333 0  0.2313043478260869 0.4333333333333333 0  0.2643478260869565 0.4333333333333333 0  0.2973913043478261 0.4333333333333333 0  0.3304347826086956 0.4333333333333333 0  0.3634782608695652 0.4333333333333333 0  0.3965217391304348 0.4333333333333333 0  0.4295652173913043 0.4333333333333333 0  0.4626086956521739 0.4333333333333333 0  0.4956521739130435 0.4333333333333333 0  0.528695652173913 0.4333333333333333 0  0.5617391304347825 0.4333333333333333 0  0.5947826086956521 0.4333333333333333 0  0.6278260869565218 0.4333333333333333 0  0.6608695652173913 0.4333333333333333 0  0.6939130434782609 0.4333333333333333 0  0.7269565217391304 0.4333333333333333 0  0.7599999999999999 0.4333333333333333 0  0.7930434782608695 0.4333333333333333 0  0.8260869565217391 0.4333333333333333 0  0.03304347826086956 0.4666666666666667 0  0 0.4666666666666667 0  0.06608695652173913 0.4666666666666667 0  0.09913043478260869 0.4666666666666667 0  0.1321739130434783 0.4666666666666667 0  0.1652173913043478 0.46666
[...]
<PointData  Vectors="Displacement"> 
<DataArray  type="Float64"  Name="Displacement"  NumberOfComponents="3" format="ascii">0.0000000000000000e+00 0.0000000000000000e+00 0.0000000000000000e+00  1.1432293540651553e-05 7.9996138228423599e-06 0.0000000000000000e+00  -1.8142562108933527e-07 6.4195793559088664e-06 0.0000000000000000e+00  0.0000000000000000e+00 0.0000000000000000e+00 0.0000000000000000e+00  2.2639623020325767e-05 2.4833179309139332e-05 0.0000000000000000e+00  1.2642580758995009e-08 2.2683748845233015e-05 0.0000000000000000e+00  3.3305132867711022e-05 5.4166665883302683e-05 0.0000000000000000e+00  -1.1998777963612076e-07 5.2180934870121283e-05 0.0000000000000000e+00  4.3027798893240596e-05 9.3718416415115930e-05 0.0000000000000000e+00  2.1272900600272154e-07 9.1844945741022182e-05 0.0000000000000000e+00  5.1905495824650257e-05 1.4177263103408195e-04 0.0000000000000000e+00  1.1249051755900695e-06 1.3981049161178243e-04 0.0000000000000000e+00  5.9818223962334750e-05 1.9733235795739069e-04 0.0000000000000000e+00  2.7412605521541557e-06 1.9535504051050457e-04 0.0000000000000000e+00  6.6702122242737199e-05 2.5800274795028809e-04 0.0000000000000000e+00  5.5804516767911667e-06 2.5604016079880279e-04 0.0000000000000000e+00  7.2548835402453700e-05 3.2168978577597012e-04 0.0000000000000000e+00  9.4279149756824034e-06 3.1970007686222071e-04 0.0000000000000000e+00  7.7361288022864951e-05 3.8625567030639438e-04 0.0000000000000000e+00  1.4436297317661687e-05 3.8426877752142002e-04 0.0000000000000000e+00  8.1128367464338241e-05 4.4958832164434739e-04 0.0000000000000000e+00  2.0496222513431317e-05 4.4760394150313075e-04 0.0000000000000000e+00  8.3822558585334588e-05 5.0956364131467204e-04 0.0000000000000000e+00  2.7606356475868500e-05 5.0764605561258880e-04 0.0000000000000000e+00  8.5203660261040195e-05 5.6381043057621984e-04 0.0000000000000000e+00  3.5593273175628348e-05 5.6249064369078038e-04 0.0000000000000000e+00  4.2825466074748325e-05 6.0991608952671846e-04 0.0000000000000000e+00  -7.4548869290859559e-06 6.9834257253861081e-06 0.0000000000000000e+00  0.0000000000000000e+00 0.0000000000000000e+00 0.0000000000000000e+00  -1.3637463349681575e-05 2.2259430214722972e-05 0.0000000000000000e+00  -2.9364898815184165e-05 5.2293652135368542e-05 0.0000000000000000e+00  -3.9273881097646431e-05 9.1868454318207101e-05 0.0000000000000000e+00  -4.5065218169460690e-05 1.3915968472075923e-04 0.0000000000000000e+00  -5.3289660767227430e-05 1.9481690880559905e-04 0.0000000000000000e+00  -5.5633462724674611e-05 2.5509458429596532e-04 0.0000000000000000e+00  -5.4786731447977830e-05 3.1841853610564008e-04 0.0000000000000000e+00  -5.0573354234149221e-05 3.8256976757317779e-04 0.0000000000000000e+00  -3.1285722734594254e-05 4.3304795336112446e-04 0.0000000000000000e+00  -2.1093330353439580e-05 4.9182893462573849e-04 0.0000000000000000e+00  -1.9724660384893877e-05 5.5982927899303264e-04 0.0000000000000000e+00  2.2522971395765646e-07 6.0719156103742006e-04 0.0000000000000000e+00  1.4388247022958443e-05 6.4782607536699856e-04 0.0000000000000000e+00  -6.9388008480312200e-06 1.3153248910564741e-05 0.0000000000000000e+00  0.0000000000000000e+00 0.0000000000000000e+00 0.0000000000000000e+00  -1.6460243531921834e-05 3.2020291048465244e-05 0.0000000000000000e+00  -2.7593266462910132e-05 6.1969013926811855e-05 0.0000000000000000e+00  -3.7722127461121487e-05 9.8261090587068513e-05 0.0000000000000000e+00  -4.5692729721266996e-05 1.4182608152446787e-04 0.0000000000000000e+00  -5.1581939346071040e-05 1.9275090256281084e-04 0.0000000000000000e+00  -5.4392519156217287e-05 2.4700905313357823e-04 0.0000000000000000e+00  -5.3649199360062313e-05 3.0407863741364530e-04 0.0000000000000000e+00  -4.9149156784345665e-05 3.6119996673975193e-04 0.0000000000000000e+00  -4.1327797334515984e-05 4.1226759829377093e-04 0.0000000000000000e+00  -3.4244594169338614e-05 4.6981158876845174e-04 0.0000000000000000e+00  -2.6843201517148983e-05 5.3033909872309297e-04 0.0000000000000000e+00  -1.6788805600497694e-05 5.7903124864558668e-04 0.0000000000000000e+00  -9.3043208249258038e-06 6.2812043083860917e-04 0.0000000000000000e+00  -6.8055877219011460e-06 6.8667252960980657e-04 0.0000000000000000e+00  -7.5296387537384443e-06 1.7151420376724156e-05 0.0000000000000000e+00  0.0000000000000000e+00 0.0000000000000000e+00 0.0000000000000000e+00  -1.6899929843072319e-05 3.8789666717927866e-05 0.0000000000000000e+00  -2.7038313236728291e-05 6.7656592624932069e-05 0.0000000000000000e+00  -3.6319654004062849e-05 1.0220280862001015e-04 0.0000000000000000e+00  -4.4155167141797717e-05 1.4265167746558110e-04 0.0000000000000000e+00  -4.9857222123094353e-05 1.8882561512885020e-04 0.0000000000000000e+00  -5.2847688064668675e-05 2.3845893739739889e-04 0.0000000000000000e+00  -5.3109912983981950e-05 2.9046235863640444e-04 0.0000000000000000e+00  -5.0716426494349196e-05 3.4303803476893414e-04 0.0000000000000000e+00  -4.6592848863785494e-05 3.9404677445529325e-04 0.0000000000000000e+00  -4.2256564865734079e-05 4.4846972303461987e-04 0.0000000000000000e+00  -3.6792156738658730e-05 5.0413595961801413e-04 0.0000000000000000e+00  -3.0541410543177224e-05 5.5507889396120538e-04 0.0000000000000000e+00  -2.6110421958727124e-05 6.0737768417144073e-04 0.0000000000000000e+00  -2.3458873278154764e-05 6.6572347767791177e-04 0.0000000000000000e+00  -2.6733105029373890e-05 7.1780096216251838e-04 0.0000000000000000e+00  -7.9570538303604913e-06 1.9703211119976570e-05 0.0000000000000000e+00  0.0000000000000000e+00 0.0000000000000000e+00 0.0000000000000000e+00  -1.6984531585136233e-05 4.2764422292096405e-05 0.0000000000000000e+00  -2.6289196726624935e-05 7.0835816183041368e-05 0.0000000000000000e+00  -3.4859035573383329e-05 1.0366972497465897e-04 0.0000000000000000e+00  -4.2162978885367967e-05 1.4141988451418517e-04 0.0000000000000000e+00  -4.7685004693601988e-05 1.8378318349006890e-04 0.0000000000000000e+00  -5.1047977672200007e-05 2.2949375337394262e-04 0.0000000000000000e+00  -5.2301711713616257e-05 2.7759022832155538e-04 0.0000000000000000e+00  -5.1702874859642779e-05 3.2690632237675210e-04 0.0000000000000000e+00  -4.9933003374374020e-05 3.7663169098102814e-04 0.0000000000000000e+00  -4.7771198873388285e-05 4.2854569562239650e-04 0.0000000000000000e+00  -4.5050591265965805e-05 4.8141612328884026e-04 0.0000000000000000e+00  -4.2447302821134408e-05 5.3314623884377350e-04 0.0000000000000000e+00  -4.1612162232123589e-05 5.8687078962186797e-04 0.0000000000000000e+00  -4.2756191154485790e-05 6.4610287826151361e-04 0.0000000000000000e+00  -4.3773004502109971e-05 7.1900564427555174e-04 0.0000000000000000e+00  -4.2618845635589362e-05 7.4056065036263627e-04 0.0000000000000000e+00  -8.1641304420844835e-06 2.1115836411044758e-05 0.0000000000000000e+00  0.0000000000000000e+00 0.0000000000000000e+00 0.0000000000000000e+00  -1.6780849237517184e-05 4.4652751810589077e-05 0.0000000000000000e+00  -2.5300059730873054e-05 7.1854213860275091e-05 0.0000000000000000e+00  -3.3101816861963522e-05 1.0301454245140213e-04 0.0000000000000000e+00  -3.9787171969900319e-05 1.3834017621362326e-04 0.0000000000000000e+00  -4.5020049848992758e-05 1.7761288190309597e-04 0.0000000000000000e+00  -4.8602479517337099e-05 2.2009161360790215e-04 0.0000000000000000e+00  -5.0605911878631775e-05 2.6506663424637211e-04 0.0000000000000000e+00  -5.1294248185942874e-05 3.1178266279381444e-04 0.0000000000000000e+00  -5.1151070822421053e-05 3.5982146884768845e-04 0.0000000000000000e+00  -5.0663308349663639e-05 4.0971030785324412e-04 0.0000000000000000e+00  -4.9985921895214718e-05 4.6077505967388277e-04 0.0000000000000000e+00  -4.9677452344923575e-05 5.1233794299791909e-04 0.0000000000000000e+00  -5.0574038590347959e-05 5.6596976292222967e-04 0.0000000000000000e+00  -5.2544790046826236e-05 6.2324895458433711e-04 0.0000000000000000e+00  -5.4020585573007362e-05 6.8538255915348264e-04 0.0000000000000000e+00  -5.2463515420799745e-05 7.4177454593256083e-04 0.0000000000000000e+00  -5.1300496406061297e-05 7.5623239290740466e-04 0.0000000000000000e+00  -8.1510025447914908e-06 2.1595997256619602e-05 0.0000000000000000e+00  0.0000000000000000e+00 0.0000000000000000e+00 0.0000000000000000e+00  -1.6241306311529217e-05 4.4873464452047265e-05 0.0000000000000000e+00  -2.3923985210883898e-05 7.0967948423643711e-05 0.0000000000000000e+00  -3.0856318724820717e-05 1.0043506985573018e-04 0.0000000000000000e+00  -3.6806177407714224e-05 1.3355955824918679e-04 0.0000000000000000e+00  -4.1598241392469331e-05 1.7024568240501460e-04 0.0000000000000000e+00  -4.5159893662888637e-05 2.1005179825594634e-04 0.0000000000000000e+00  -4.7579844666342031e-05 2.5247228720833817e-04 0.0000000000000000e+00  -4.9077027163677697e-05 2.9699128456425836e-04 0.0000000000000000e+00  -4.9981742877374126e-05 3.4330107870273141e-04 0.0000000000000000e+00  -5.0611675002799221e-05 3.9144661362488755e-04 0.0000000000000000e+00  -5.1159821313926350e-05 4.4102114478097436e-04 0.0000000000000000e+00  -5.1959325336862493e-05 4.9175220252067702e-04 0.0000000000000000e+00  -5.3327389335758070e-05 5.4426514450174981e-04 0.0000000000000000e+00  -5.4877643188493951e-05 5.9869516427375714e-04 0.0000000000000000e+00  -5.5392605805149420e-05 6.5383353480111825e-04 0.0000000000000000e+00  -5.3724557086714184e-05 7.0292873490583271e-04 0.0000000000000000e+00  -5.2257701845389062e-05 7.3554405533629141e-04 0.0000000000000000e+00  -5.4044411591346149e-05 7.6564336863508870e-04 0.0000000000000000e+00  -7.8925969180397213e-06 2.1257698514142683e-05 0.0000000000000000e+00  0.0000000000000000e+00 0.0000000000000000e+00 0.0000000000000000e+00  -1.5264873824197704e-05 4.3625877771803569e-05 0.0000000000000000e+00  -2.1959523223277724e-05 6.8306769800517675e-05 0.0000000000000000e+00  -2.7864524304405931e-05 9.6016739488560186e-05 0.0000000000000000e+00  -3.2918687067186916e-05 1.2710833491266370e-04 0.0000000000000000e+00  -3.7085452956376537e-05 1.6157760077977973e-04 0.0000000000000000e+00  -4.0380537183843479e-05 1.9914772667385821e-04 0.0000000000000000e+00  -4.2901736616938854e-05 2.3944191334884533e-04 0.0000000000000000e+00  -4.4815277767551436e-05 2.8206586590860471e-04 0.0000000000000000e+00  -4.6331611935199345e-05 3.2673321735623404e-04 0.0000000000000000e+00  -4.7637889345740760e-05 3.7329637686245049e-04 0.0000000000000000e+00  -4.8858969211904505e-05 4.2144755976838191e-04 0.0000000000000000e+00  -5.0146013446322917e-05 4.7096099741121702e-04 0.0000000000000000e+00  -5.1604568462655809e-05 5.2194062169888967e-04 0.0000000000000000e+00  -5.2783617249267709e-05 5.7357165415335945e-04 0.0000000000000000e+00  -5.2740470960109175e-05 6.2399684607754194e-04 0.0000000000000000e+00  -5.0996338527946788e-05 6.6944508482710439e-04 0.0000000000000000e+00  -4.8877592842421665e-05 7.0598328830902355e-04 0.0000000000000000e+00  -4.8534413941568190e-05 7.3925956244018246e-04 0.0000000000000000e+00  -4.8529386062351415e-05 7.7233033328681839e-04 0.0000000000000000e+00  -7.3243883066670396e-06 2.0114644489947824e-05 0.0000000000000000e+00  0.0000000000000000e+00 0.0000000000000000e+00 0.0000000000000000e+00  -1.3684444957447696e-05 4.0933105188442344e-05 0.0000000000000000e+00  -1.9139033514129095e-05 6.3864184621363889e-05 0.0000000000000000e+00  -2.3799661655291907e-05 8.9737067460324055e-05 0.0000000000000000e+00  -2.7768753162756262e-05 1.1893272056959406e-04 0.0000000000000000e+00  -3.1123091383426203e-05 1.5148173024031830e-04 0.0000000000000000e+00  -3.3938291531952705e-05 1.8717634653329403e-04 0.0000000000000000e+00  -3.6312638444294340e-05 2.2569781019694398e-04 0.0000000000000000e+00  -3.8364915714190822e-05 2.6669587401977887e-04 0.0000000000000000e+00  -4.0216277614329876e-05 3.0986728989938577e-04 0.0000000000000000e+00  -4.1949109453341330e-05 3.5497345977320715e-04 0.0000000000000000e+00  -4.3593018891975313e-05 4.0173691564741930e-04 0.0000000000000000e+00  -4.5183042845992356e-05 4.4991241600684893e-04 0.0000000000000000e+00  -4.6876893190033901e-05 4.9948426095512146e-04 0.0000000000000000e+00  -4.8234456786575049e-05 5.4879949534034111e-04 0.0000000000000000e+00  -4.8384458487515805e-05 5.9586357161377083e-04 0.0000000000000000e+00  -4.7218577491272075e-05 6.3916260517793292e-04 0.0000000000000000e+00  -4.5664003795915563e-05 6.7716299196459578e-04 0.0000000000000000e+00  -4.4865046108248043e-05 7.1206958917195467e-04 0.0000000000000000e+00  -4.4377562766355637e-05 7.4482765907344457e-04 0.0000000000000000e+00  -4.2999933180544448e-05 7.7286988837348732e-04 0.0000000000000000e+00  -6.3120023033445623e-06 1.8054547579946796e-05 0.0000000000000000e+00  0.0000000000000000e+00 0.0000000000000000e+00 0.0000000000000000e+00  -1.1221554969592362e-05 3.6646750351514973e-05 0.0000000000000000e+00  -1.5084485265725552e-05 5.7499083307104514e-05 0.0000000000000000e+00  -1.8243370672426355e-05 8.1480456260540497e-05 0.0000000000000000e+00  -2.0939974745325414e-05 1.0892556722416741e-04 0.0000000000000000e+00  -2.3327101615786903e-05 1.3982865988857915e-04 0.0000000000000000e+00  -2.5509204448448733e-05 1.7397649069360148e-04 0.0000000000000000e+00  -2.7573984405733573e-05 2.1105158578105677e-04 0.0000000000000000e+00  -2.9600669235810162e-05 2.5069835974264869e-04 0.0000000000000000e+00  -3.1651321698958798e-05 2.9257509707578290e-04 0.0000000000000000e+00  -3.3744672686588901e-05 3.3637101551475769e-04 0.0000000000000000e+00  -3.5813048469043894e-05 3.8180914746801039e-04 0.0000000000000000e+00  -3.7768057311829783e-05 4.2869799456157412e-04 0.0000000000000000e+00  -4.0083682152745934e-05 4.7747380678155152e-04 0.0000000000000000e+00  -4.2274553453873099e-05 5.2511359007932851e-04 0.0000000000000000e+00  -4.3196580664182716e-05 5.6942085133947164e-04 0.0000000000000000e+00  -4.3051086924034632e-05 6.1125791135010175e-04 0.0000000000000000e+00  -4.2621997635175768e-05 6.4983900293761145e-04 0.0000000000000000e+00  -4.2575514697781660e-05 6.8574725039393476e-04 0.0000000000000000e+00  -4.2946876429013888e-05 7.1919810174566516e-04 0.0000000000000000e+00  -4.2843174060905429e-05 7.4757017348431006e-04 0.0000000000000000e+00  -4.2368488755320197e-05 7.7091277059708268e-04 0.0000000000000000e+00  -4.5595266760292226e-06 1.4769448806375966e-05 0.0000000000000000e+00  0.0000000000000000e+00 0.0000000000000000e+00 0.0000000000000000e+00  -7.3757353227452217e-06 3.0427685517476110e-05 0.0000000000000000e+00  -9.2241512546956022e-06 4.8949716491311331e-05 0.0000000000000000e+00  -1.0642819724230730e-05 7.1070291200765848e-05 0.0000000000000000e+00  -1.1941026552916488e-05 9.6962675949325251e-05 0.0000000000000000e+00  -1.3284412196342036e-05 1.2650991379562778e-04 0.0000000000000000e+00  -1.4765547879625708e-05 1.5943773034723889e-04 0.0000000000000000e+00  -1.6446804774965759e-05 1.9539197074386756e-04 0.0000000000000000e+00  -1.8375510756817939e-05 2.3398397797494397e-04 0.0000000000000000e+00  -2.0580949138836661e-05 2.7482686561719027e-04 0.0000000000000000e+00  -2.3065963812113598e-05 3.1754470135321651e-04 0.0000000000000000e+00  -2.5775456902707363e-05 3.6174611397505241e-04 0.0000000000000000e+00  -2.8377167958044163e-05 4.0736152432491142e-04 0.0000000000000000e+00  -3.1881765350487056e-05 4.5654461360179559e-04 0.0000000000000000e+00  -3.5519886830710900e-05 5.0319498397611065e-04 0.0000000000000000e+00  -3.7490541731493982e-05 5.4453437354347160e-04 0.0000000000000000e+00  -3.8702146066031506e-05 5.8537197874749289e-04 0.0000000000000000e+00  -3.9962111267410949e-05 6.2437341831324722e-04 0.0000000000000000e+00  -4.1614165487440305e-05 6.6124339569535815e-04 0.0000000000000000e+00  -4.4157028961017454e-05 6.9628682824859878e-04 0.0000000000000000e+00  -4.6136830168438787e-05 7.2516237963325268e-04 0.0000000000000000e+00  -4.7898353893279550e-05 7.5049573796985146e-04 0.0000000000000000e+00  -5.0044389665260207e-05 7.6890613985088399e-04 0.0000000000000000e+00  -1.2878892634720259e-06 9.6052241978983381e-06 0.0000000000000000e+00  0.0000000000000000e+00 0.0000000000000000e+00 0.0000000000000000e+00  -1.1575363250084439e-06 2.1742231542859989e-05 0.0000000000000000e+00  -6.5672284883081372e-07 3.7892609440633270e-05 0.0000000000000000e+00  -2.7081702500795395e-07 5.8335943528547071e-05 0.0000000000000000e+00  -2.1350503744296502e-07 8.2955648929945418e-05 0.0000000000000000e+00  -5.7560454200220610e-07 1.1146749723080207e-04 0.0000000000000000e+00  -1.3974618734094604e-06 1.4350628223416966e-04 0.0000000000000000e+00  -2.7034994166914644e-06 1.7866651546109667e-04 0.0000000000000000e+00  -4.5189800465675545e-06 2.1651723741851359e-04 0.0000000000000000e+00  -6.8670373629202533e-06 2.5662636692392704e-04 0.0000000000000000e+00  -9.7545077750649745e-06 2.9858600369594437e-04 0.0000000000000000e+00  -1.3185496745964163e-05 3.4191706754322629e-04 0.0000000000000000e+00  -1.7280817707252659e-05 3.8589299930324994e-04 0.0000000000000000e+00  -2.3371043494092642e-05 4.3738545035824840e-04 0.0000000000000000e+00  -2.8523154528971326e-05 4.8372522103241552e-04 0.0000000000000000e+00  -3.0949607284597953e-05 5.2075333079019286e-04 0.0000000000000000e+00  -3.3898298998137203e-05 5.6142206538662711e-04 0.0000000000000000e+00  -3.7706949743158550e-05 6.0111534071004768e-04 0.0000000000000000e+00  -4.2085011034221308e-05 6.3915875127937912e-04 0.0000000000000000e+00  -4.8285468705406426e-05 6.7737349621614369e-04 0.0000000000000000e+00  -5.3744329526234085e-05 7.0586285349635749e-04 0.0000000000000000e+00  -5.9089103215680600e-05 7.3433898445326681e-04 0.0000000000000000e+00  -6.4664190159259368e-05 7.5757904844841984e-04 0.0000000000000000e+00  -6.3658535479302602e-05 7.7730264983479470e-04 0.0000000000000000e+00  6.4106066783308019e-06 1.4753025992699467e-06 0.0000000000000000e+00  0.0000000000000000e+00 0.0000000000000000e+00 0.0000000000000000e+00  9.5379570232822454e-06 1.0052369443131155e-05 0.0000000000000000e+00  1.1970434554135593e-05 2.4128303787099839e-05 0.0000000000000000e+00  1.3715087378085451e-05 4.3237223484209416e-05 0.0000000000000000e+00  1.4772202673062813e-05 6.6921678139699375e-05 0.0000000000000000e+00  1.5141841086305344e-05 9.4724519781736163e-05 0.0000000000000000e+00  1.4824067117175862e-05 1.2618865331458185e-04 0.0000000000000000e+00  1.3818959428589365e-05 1.6085697436171720e-04 0.0000000000000000e+00  1.2125820342785828e-05 1.9827160202234693e-04 0.0000000000000000e+00  9.6913610249975940e-06 2.3795299550849195e-04 0.0000000000000000e+00  6.4755409967643957e-06 2.7944196301213424e-04 0.0000000000000000e+00  2.6057241768876824e-06 3.2226523991903512e-04 0.0000000000000000e+00  -1.9518709247847170e-06 3.6592975359388269e-04 0.0000000000000000e+00  -1.8675740664356859e-05 4.2088668742006671e-04 0.0000000000000000e+00  -2.3936890413411486e-05 4.6588162883848169e-04 0.0000000000000000e+00  -2.0233595760123256e-05 4.9735843598463982e-04 0.0000000000000000e+00  -2.7577911537047053e-05 5.3975298080108250e-04 0.0000000000000000e+00  -3.5458046764619668e-05 5.8070950041070560e-04 0.0000000000000000e+00  -4.4114136078803450e-05 6.1979486095708081e-04 0.0000000000000000e+00  -5.5874288507804561e-05 6.6392148581674896e-04 0.0000000000000000e+00  -6.4073293551300504e-05 6.9044568107730613e-04 0.0000000000000000e+00  -7.7500284124070950e-05 7.2167996109487732e-04 0.0000000000000000e+00  -8.4598424841844625e-05 7.4968746208174881e-04 0.0000000000000000e+00  -8.5278009244476623e-05 7.7519453971174501e-04 0.0000000000000000e+00  -8.5293482316986573e-05 7.9833503232979526e-04 0.0000000000000000e+00  -2.3148002625676029e-06 2.2805582022249313e-06 0.0000000000000000e+00  0.0000000000000000e+00 0.0000000000000000e+00 0.0000000000000000e+00  -4.7357092006292902e-06 1.0931937029483933e-05 0.0000000000000000e+00  -7.3801194724617001e-06 2.5083121604637594e-05 0.0000000000000000e+00  -1.0250869108731521e-05 4.4267342451129474e-05 0.0000000000000000e+00  -1.3348018169377735e-05 6.8027112870371908e-05 0.0000000000000000e+00  -1.6671557863795821e-05 9.5905279507467367e-05 0.0000000000000000e+00  -2.0221484778164807e-05 1.2744473645592613e-04 0