<?xml version="1.0"?>
<VTKFile type="UnstructuredGrid"  version="0.1"  >
<UnstructuredGrid>
<Piece  NumberOfPoints="319" NumberOfCells="567">
<Points>
<DataArray  type="Float64"  NumberOfComponents="3"  format="ascii">1.850434782608696 0 0  1.883478260869565 0 0  1.883478260869565 0.03333333333333333 0  1.916521739130435 0 0  1.916521739130435 0.03333333333333333 0  1.949565217391304 0 0  1.949565217391304 0.03333333333333333 0  1.982608695652174 0 0  1.982608695652174 0.03333333333333333 0  2.015652173913043 0 0  2.015652173913043 0.03333333333333333 0  2.048695652173913 0 0  2.048695652173913 0.03333333333333333 0  2.081739130434782 0 0  2.081739130434782 0.03333333333333333 0  2.114782608695652 0 0  2.114782608695652 0.03333333333333333 0  2.147826086956522 0 0  2.147826086956522 0.03333333333333333 0  2.180869565217391 0 0  2.180869565217391 0.03333333333333333 0  2.213913043478261 0 0  2.213913043478261 0.03333333333333333 0  2.24695652173913 0 0  2.24695652173913 0.03333333333333333 0  2.28 0 0  2.28 0.03333333333333333 0  2.31304347826087 0 0  2.31304347826087 0.03333333333333333 0  2.346086956521739 0 0  2.346086956521739 0.03333333333333333 0  2.379130434782609 0 0  2.379130434782609 0.03333333333333333 0  2.412173913043478 0 0  2.412173913043478 0.03333333333333333 0  2.445217391304348 0 0  2.445217391304348 0.03333333333333333 0  2.478260869565217 0 0  2.478260869565217 0.03333333333333333 0  1.916521739130435 0.06666666666666667 0  1.883478260869565 0.06666666666666667 0  1.949565217391304 0.06666666666666667 0  1.982608695652174 0.06666666666666667 0  2.015652173913043 0.06666666666666667 0  2.048695652173913 0.06666666666666667 0  2.081739130434782 0.06666666666666667 0  2.114782608695652 0.06666666666666667 0  2.147826086956522 0.06666666666666667 0  2.180869565217391 0.06666666666666667 0  2.213913043478261 0.06666666666666667 0  2.24695652173913 0.06666666666666667 0  2.28 0.06666666666666667 0  2.31304347826087 0.06666666666666667 0  2.346086956521739 0.06666666666666667 0  2.379130434782609 0.06666666666666667 0  2.412173913043478 0.06666666666666667 0  2.445217391304348 0.06666666666666667 0  2.478260869565217 0.06666666666666667 0  1.916521739130435 0.1 0  1.883478260869565 0.1 0  1.949565217391304 0.1 0  1.982608695652174 0.1 0  2.015652173913043 0.1 0  2.048695652173913 0.1 0  2.081739130434782 0.1 0  2.114782608695652 0.1 0  2.147826086956522 0.1 0  2.180869565217391 0.1 0  2.213913043478261 0.1 0  2.24695652173913 0.1 0  2.28 0.1 0  2.31304347826087 0.1 0  2.346086956521739 0.1 0  2.379130434782609 0.1 0  2.412173913043478 0.1 0  2.445217391304348 0.1 0  2.478260869565217 0.1 0  1.916521739130435 0.1333333333333333 0  1.883478260869565 0.1333333333333333 0  1.949565217391304 0.1333333333333333 0  1.982608695652174 0.1333333333333333 0  2.015652173913043 0.1333333333333333 0  2.048695652173913 0.1333333333333333 0  2.081739130434782 0.1333333333333333 0  2.114782608695652 0.1333333333333333 0  2.147826086956522 0.1333333333333333 0  2.180869565217391 0.1333333333333333 0  2.213913043478261 0.1333333333333333 0  2.24695652173913 0.1333333333333333 0  2.28 0.1333333333333333 0  2.31304347826087 0.1333333333333333 0  2.346086956521739 0.1333333333333333 0  2.379130434782609 0.1333333333333333 0  2.412173913043478 0.1333333333333333 0  2.445217391304348 0.1333333333333333 0  2.478260869565217 0.1333333333333333 0  2.511304347826087 0.1333333333333333 0  1.916521739130435 0.1666666666666667 0  1.883478260869565 0.1666666666666667 0  1.949565217391304 0.1666666666666667 0  1.982608695652174 0.1666666666666667 0  2.015652173913043 0.1666666666666667 0  2.048695652173913 0.1666666666666667 0  2.081739130434782 0.1666666666666667 0  2.114782608695652 0.1666666666666667 0  2.147826086956522 0.1666666666666667 0  2.180869565217391 0.1666666666666667 0  2.213913043478261 0.1666666666666667 0  2.24695652173913 0.1666666666666667 0  2.28 0.1666666666666667 0  2.31304347826087 0.1666666666666667 0  2.346086956521739 0.1666666666666667 0  2.379130434782609 0.1666666666666667 0  2.412173913043478 0.1666666666666667 0  2.445217391304348 0.1666666666666667 0  2.478260869565217 0.1666666666666667 0  2.511304347826087 0.1666666666666667 0  1.916521739130435 0.2 0  1.883478260869565 0.2 0  1.949565217391304 0.2 0  1.982608695652174 0.2 0  2.015652173913043 0.2 0  2.048695652173913 0.2 0  2.081739130434782 0.2 0  2.114782608695652 0.2 0  2.147826086956522 0.2 0  2.180869565217391 0.2 0  2.213913043478261 0.2 0  2.24695652173913 0.2 0  2.28 0.2 0  2.31304347826087 0.2 0  2.346086956521739 0.2 0  2.379130434782609 0.2 0  2.412173913043478 0.2 0  2.445217391304348 0.2 0  2.478260869565217 0.2 0  2.511304347826087 0.2 0  1.916521739130435 0.2333333333333333 0  1.883478260869565 0.2333333333333333 0  1.949565217391304 0.2333333333333333 0  1.982608695652174 0.2333333333333333 0  2.015652173913043 0.2333333333333333 0  2.048695652173913 0.2333333333333333 0  2.081739130434782 0.2333333333333333 0  2.114782608695652 0.2333333333333333 0  2.147826086956522 0.2333333333333333 0  2.180869565217391 0.2333333333333333 0  2.213913043478261 0.2333333333333333 0  2.24695652173913 0.2333333333333333 0  2.28 0.2333333333333333 0  2.31304347826087 0.2333333333333333 0  2.346086956521739 0.2333333333333333 0  2.379130434782609 0.2333333333333333 0  2.412173913043478 0.2333333333333333 0  2.445217391304348 0.2333333333333333 0  2.478260869565217 0.2333333333333333 0  2.511304347826087 0.2333333333333333 0  1.916521739130435 0.2666666666666667 0  1.883478260869565 0.2666666666666667 0  1.949565217391304 0.2666666666666667 0  1.982608695652174 0.2666666666666667 0  2.015652173913043 0.2666666666666667 0  2.048695652173913 0.2666666666666667 0  2.081739130434782 0.2666666666666667 0  2.114782608695652 0.2666666666666667 0  2.147826086956522 0.2666666666666667 0  2.180869565217391 0.2666666666666667 0  2.213913043478261 0.2666666666666667 0  2.24695652173913 0.2666666666666667 0  2.28 0.2666666666666667 0  2.31304347826087 0.2666666666666667 0  2.346086956521739 0.2666666666666667 0  2.379130434782609 0.2666666666666667 0  2.412173913043478 0.2666666666666667 0  2.445217391304348 0.2666666666666667 0  2.478260869565217 0.2666666666666667 0  2.511304347826087 0.2666666666666667 0  1.916521739130435 0.3 0  1.883478260869565 0.3 0  1.949565217391304 0.3 0  1.982608695652174 0.3 0  2.015652173913043 0.3 0  2.048695652173913 0.3 0  2.081739130434782 0.3 0  2.114782608695652 0.3 0  2.147826086956522 0.3 0  2.180869565217391 0.3 0  2.213913043478261 0.3 0  2.24695652173913 0.3 0  2.28 0.3 0  2.31304347826087 0.3 0  2.346086956521739 0.3 0  2.379130434782609 0.3 0  2.412173913043478 0.3 0  2.445217391304348 0.3 0  2.478260869565217 0.3 0  2.511304347826087 0.3 0  2.544347826086956 0.3 0  1.916521739130435 0.3333333333333333 0  1.949565217391304 0.3333333333333333 0  1.982608695652174 0.3333333333333333 0  2.015652173913043 0.3333333333333333 0  2.048695652173913 0.3333333333333333 0  2.081739130434782 0.3333333333333333 0  2.114782608695652 0.3333333333333333 0  2.147826086956522 0.3333333333333333 0  2.180869565217391 0.3333333333333333 0  2.213913043478261 0.3333333333333333 0  2.24695652173913 0.3333333333333333 0  2.28 0.3333333333333333 0  2.31304347826087 0.3333333333333333 0  2.346086956521739 0.3333333333333333 0  2.379130434782609 0.3333333333333333 0  2.412173913043478 0.3333333333333333 0  2.445217391304348 0.3333333333333333 0  2.478260869565217 0.3333333333333333 0  2.511304347826087 0.3333333333333333 0  2.544347826086956 0.3333333333333333 0  1.949565217391304 0.3666666666666666 0  1.916521739130435 0.3666666666666666 0  1.982608695652174 0.3666666666666666 0  2.015652173913043 0.3666666666666666 0  2.048695652173913 0.3666666666666666 0  2.081739130434782 0.3666666666666666 0  2.114782608695652 0.3666666666666666 0  2.147826086956522 0.3666666666666666 0  2.180869565217391 0.3666666666666666 0  2.213913043478261 0.3666666666666666 0  2.24695652173913 0.3666666666666666 0  2.28 0.3666666666666666 0  2.31304347826087 0.3666666666666666 0  2.346086956521739 0.3666666666666666 0  2.379130434782609 0.3666666666666666 0  2.412173913043478 0.3666666666666666 0  2.445217391304348 0.3666666666666666 0  2.478260869565217 0.3666666666666666 0  2.511304347826087 0.3666666666666666 0  2.544347826086956 0.3666666666666666 0  1.949565217391304 0.4 0  1.916521739130435 0.4 0  1.982608695652174 0.4 0  2.015652173913043 0.4 0  2.048695652173913 0.4 0  2.081739130434782 0.4 0  2.114782608695652 0.4 0  2.147826086956522 0.4 0  2.180869565217391 0.4 0  2.213913043478261 0.4 0  2.24695652173913 0.4 0  2.28 0.4 0  2.31304347826087 0.4 0  2.346086956521739 0.4 0  2.379130434782609 0.4 0  2.412173913043478 0.4 0  2.445217391304348 0.4 0  2.478260869565217 0.4 0  2.511304347826087 0.4 0  2.544347826086956 0.4 0  1.949565217391304 0.4333333333333333 0  1.982608695652174 0.4333333333333333 0  2.015652173913043 0.4333333333333333 0  2.048695652173913 0.4333333333333333 0  2.081739130434782 0.4333333333333333 0  2.114782608695652 0.4333333333333333 0  2.147826086956522 0.4333333333333333 0  2.180869565217391 0.4333333333333333 0  2.213913043478261 0.4333333333333333 0  2.24695652173913 0.4333333333333333 0  2.28 0.4333333333333333 0  2.31304347826087 0.4333333333333333 0  2.346086956521739 0.4333333333333333 0  2.379130434782609 0.4333333333333333 0  2.412173913043478 0.4333333333333333 0  2.445217391304348 0.4333333333333333 0  2.478260869565217 0.4333333333333333 0  2.511304347826087 0.4333333333333333 0  2.544347826086956 0.4333333333333333 0  2.577391304347826 0.4333333333333333 0  1.982608695652174 0.4666666666666667 0  1.949565217391304 0.4666666666666667 0  2.015652173913043 0.4666666666666667 0  2.048695652173913 0.4666666666666667 0  2.081739130434782 0.4666666666666667 0  2.114782608695652 0.4666666666666667 0  2.147826086956522 0.4666666666666667 0  2.180869565217391 0.4666666666666667 0  2.213913043478261 0.4666666666666667 0  2.246956521739
[...]
<CellData  Scalars="sigma_m"> 
<DataArray  type="Float64"  Name="sigma_m"  format="ascii">6.0735491201499605e+05   1.1061639838894235e+06   2.2696099641098254e+06   2.5101153428288880e+06   2.0396893138480221e+06   3.8699165706850379e+06   1.9438273893335348e+06   4.0024321096441741e+06   2.2967179609446242e+06   3.9975236668271939e+06   2.3253669116313304e+06   3.9481613062834060e+06   2.5844763634599964e+06   3.8831891989500523e+06   2.6231975549641107e+06   3.8185957145739147e+06   2.6704225741255810e+06   3.7573299672054937e+06   2.7222850442146249e+06   3.6996656101892493e+06   2.7957671455265363e+06   3.6407421349445931e+06   2.8836556745595234e+06   3.5793547704098080e+06   2.9504420232878267e+06   3.5173562504947162e+06   3.0078524190789177e+06   3.4556743175736284e+06   3.0645174735676800e+06   3.3945206777944895e+06   3.1217733907832950e+06   3.3339620636572544e+06   3.1797905567476368e+06   3.2740426486221519e+06   3.2385723270895500e+06   3.2148036675245697e+06   3.2980901530676014e+06   1.8855012268937747e+06   1.7817146622609876e+06   1.6827617508624308e+06   1.2014615723933536e+06   2.5797121381820636e+06   1.2887386447067428e+06   1.9564288164901726e+06   2.7199736837874744e+06   1.8533363684999582e+06   2.3105435829291815e+04   1.7513463559242031e+06   2.3302961913642714e-05   1.7921167011669835e+06   7.2634702343458704e-09   1.8361681941759083e+06   0.0000000000000000e+00   1.8696465351746096e+06   0.0000000000000000e+00   1.8212175338336502e+06   0.0000000000000000e+00   1.5407297430497792e+06   0.0000000000000000e+00   1.1083628709603732e+06   0.0000000000000000e+00   7.7657866739645589e+05   0.0000000000000000e+00   5.9535858087822690e+05   0.0000000000000000e+00   5.2288842079528881e+05   0.0000000000000000e+00   5.1039427435409639e+05   0.0000000000000000e+00   5.1932450194450974e+05   0.0000000000000000e+00   5.3025374722495594e+05   0.0000000000000000e+00   2.9593218541560313e+06   2.9365562010099911e+06   1.5122614746385666e+06   1.2896224548114431e+06   2.2398077051532031e+06   3.5551251604141813e+05   0.0000000000000000e+00   1.9821833567480498e+03   0.0000000000000000e+00   0.0000000000000000e+00   0.0000000000000000e+00   0.0000000000000000e+00   0.0000000000000000e+00   0.0000000000000000e+00   0.0000000000000000e+00   0.0000000000000000e+00   0.0000000000000000e+00   0.0000000000000000e+00   0.0000000000000000e+00   0.0000000000000000e+00   0.0000000000000000e+00   0.0000000000000000e+00   0.0000000000000000e+00   0.0000000000000000e+00   0.0000000000000000e+00   0.0000000000000000e+00   0.0000000000000000e+00   0.0000000000000000e+00   0.0000000000000000e+00   0.0000000000000000e+00   0.0000000000000000e+00   0.0000000000000000e+00   0.0000000000000000e+00   0.0000000000000000e+00   0.0000000000000000e+00   0.0000000000000000e+00   3.5409697461441197e+06   2.8089530660529370e+01   2.4809917224223618e+06   2.3762286180134155e+06   1.8896554615310524e+06   1.2264158203835341e+06   2.1272363162809328e+05   7.0330996256844187e+05   0.0000000000000000e+00   0.0000000000000000e+00   0.0000000000000000e+00   0.0000000000000000e+00   0.0000000000000000e+00   0.0000000000000000e+00   0.0000000000000000e+00   0.0000000000000000e+00   0.0000000000000000e+00   0.0000000000000000e+00   0.0000000000000000e+00   0.0000000000000000e+00   0.0000000000000000e+00   0.0000000000000000e+00   0.0000000000000000e+00   0.0000000000000000e+00   0.0000000000000000e+00   0.0000000000000000e+00   0.0000000000000000e+00   0.0000000000000000e+00   0.0000000000000000e+00   0.0000000000000000e+00   0.0000000000000000e+00   0.0000000000000000e+00   0.0000000000000000e+00   0.0000000000000000e+00   0.0000000000000000e+00   0.0000000000000000e+00   0.0000000000000000e+00   2.5847865676222608e-06   0.0000000000000000e+00   2.4029938161772885e+06   1.8398409653942829e+06   2.0621382766588510e+06   1.7155597103829826e+06   1.0350017090442971e+06   1.1717915491219228e+06   3.9031661091571278e+05   7.3058225248123240e+05   0.0000000000000000e+00   8.0007283341837477e-04   0.0000000000000000e+00   0.0000000000000000e+00   0.0000000000000000e+00   0.0000000000000000e+00   0.0000000000000000e+00   0.0000000000000000e+00   0.0000000000000000e+00   0.0000000000000000e+00   0.0000000000000000e+00   0.0000000000000000e+00   0.0000000000000000e+00   0.0000000000000000e+00   0.0000000000000000e+00   0.0000000000000000e+00   0.0000000000000000e+00   0.0000000000000000e+00   0.0000000000000000e+00   0.0000000000000000e+00   0.0000000000000000e+00   0.0000000000000000e+00   0.0000000000000000e+00   0.0000000000000000e+00   0.0000000000000000e+00   0.0000000000000000e+00   0.0000000000000000e+00   0.0000000000000000e+00   0.0000000000000000e+00   0.0000000000000000e+00   6.1067064210817645e-01   0.0000000000000000e+00   2.0644630928934554e+06   9.2307590545872902e+05   1.7541033969335542e+06   1.8995314810365895e+06   1.3365989322848399e+06   1.4513579512564004e+06   1.1864491070629072e+06   1.3913349317140316e+06   0.0000000000000000e+00   1.2872398498801638e+06   0.0000000000000000e+00   0.0000000000000000e+00   0.0000000000000000e+00   0.0000000000000000e+00   0.0000000000000000e+00   0.0000000000000000e+00   0.0000000000000000e+00   0.0000000000000000e+00   0.0000000000000000e+00   0.0000000000000000e+00   0.0000000000000000e+00   0.0000000000000000e+00   0.0000000000000000e+00   0.0000000000000000e+00   0.0000000000000000e+00   0.0000000000000000e+00   0.0000000000000000e+00   0.0000000000000000e+00   0.0000000000000000e+00   0.0000000000000000e+00   0.0000000000000000e+00   0.0000000000000000e+00   0.0000000000000000e+00   0.0000000000000000e+00   0.0000000000000000e+00   0.0000000000000000e+00   0.0000000000000000e+00   0.0000000000000000e+00   0.0000000000000000e+00   0.0000000000000000e+00   2.1658213795232284e+06   0.0000000000000000e+00   1.9352013786731809e+06   1.6364583554494719e+06   1.5599952585817690e+06   1.5134308315100083e+06   1.5077548495770735e+06   1.4695787359741391e+06   1.1289168182679722e+06   1.4831366167896127e+06   0.0000000000000000e+00   1.2215745326013188e+06   0.0000000000000000e+00   0.0000000000000000e+00   0.0000000000000000e+00   0.0000000000000000e+00   0.0000000000000000e+00   0.0000000000000000e+00   0.0000000000000000e+00   0.0000000000000000e+00   0.0000000000000000e+00   0.0000000000000000e+00   0.0000000000000000e+00   0.0000000000000000e+00   0.0000000000000000e+00   0.0000000000000000e+00   0.0000000000000000e+00   0.0000000000000000e+00   0.0000000000000000e+00   0.0000000000000000e+00   0.0000000000000000e+00   0.0000000000000000e+00   0.0000000000000000e+00   0.0000000000000000e+00   0.0000000000000000e+00   0.0000000000000000e+00   0.0000000000000000e+00   0.0000000000000000e+00   0.0000000000000000e+00   0.0000000000000000e+00   3.3720230087577674e+00   0.0000000000000000e+00   1.3650816468729062e+06   4.6493826371373824e+05   1.3636179567404508e+06   1.3196843178002159e+06   1.4146019380736044e+06   1.4141550500588228e+06   1.4346406402838107e+06   1.4232782001597923e+06   6.0319700460773753e+05   1.3298953825996961e+06   0.0000000000000000e+00   3.0613544088409693e+04   0.0000000000000000e+00   0.0000000000000000e+00   0.0000000000000000e+00   0.0000000000000000e+00   0.0000000000000000e+00   0.0000000000000000e+00   0.0000000000000000e+00   0.0000000000000000e+00   0.0000000000000000e+00   0.0000000000000000e+00   0.0000000000000000e+00   0.0000000000000000e+00   0.0000000000000000e+00   0.0000000000000000e+00   0.0000000000000000e+00   0.0000000000000000e+00   0.0000000000000000e+00   0.0000000000000000e+00   0.0000000000000000e+00   0.0000000000000000e+00   0.0000000000000000e+00   0.0000000000000000e+00   0.0000000000000000e+00   0.0000000000000000e+00   0.0000000000000000e+00   0.0000000000000000e+00   0.0000000000000000e+00   0.0000000000000000e+00   8.7671327821526234e+05   0.0000000000000000e+00   1.3752461714867239e+06   9.7829507592547173e+05   1.4468723982307774e+06   1.4713096035235464e+06   1.4536729947056612e+06   1.5239262856794128e+06   1.8419192477319709e+06   2.0629080181558137e+06   0.0000000000000000e+00   2.4037179837033758e+06   0.0000000000000000e+00   0.0000000000000000e+00   0.0000000000000000e+00   0.0000000000000000e+00   0.0000000000000000e+00   0.0000000000000000e+00   0.0000000000000000e+00   0.0000000000000000e+00   0.0000000000000000e+00   0.0000000000000000e+00   0.0000000000000000e+00   0.0000000000000000e+00   0.0000000000000000e+00   0.0000000000000000e+00   0.0000000000000000e+00   0.0000000000000000e+00   0.0000000000000000e+00   0.0000000000000000e+00   0.0000000000000000e+00   0.0000000000000000e+00   0.0000000000000000e+00   0.0000000000000000e+00   0.0000000000000000e+00   0.0000000000000000e+00   0.0000000000000000e+00   0.0000000000000000e+00   0.0000000000000000e+00   0.0000000000000000e+00   0.0000000000000000e+00   0.0000000000000000e+00   1.1031513357084168e+06   0.0000000000000000e+00   1.2693182977056627e+06   1.0109471283586551e+06   1.4428621435329537e+06   1.3081042104861331e+06   1.9129734221578173e+06   1.8981442767910585e+06   5.6278415321926623e+03   1.9591296747476191e+06   0.0000000000000000e+00   0.0000000000000000e+00   0.0000000000000000e+00   0.0000000000000000e+00   0.0000000000000000e+00   0.0000000000000000e+00   0.0000000000000000e+00   0.0000000000000000e+00   0.0000000000000000e+00   0.0000000000000000e+00   0.0000000000000000e+00   0.0000000000000000e+00   0.0000000000000000e+00   0.0000000000000000e+00   0.0000000000000000e+00   0.0000000000000000e+00   0.0000000000000000e+00   0.0000000000000000e+00   0.0000000000000000e+00   0.0000000000000000e+00   0.0000000000000000e+00   0.0000000000000000e+00   0.0000000000000000e+00   0.0000000000000000e+00   0.0000000000000000e+00   0.0000000000000000e+00   0.0000000000000000e+00   0.0000000000000000e+00   0.0000000000000000e+00   0.0000000000000000e+00   1.8903146832007861e-02   0.0000000000000000e+00   6.3539832701539679e+05   2.8452836252291553e+05   1.2767806208722610e+06   1.3527907514687602e+06   2.1686876493699416e+06   2.4963271883169427e+06   2.2643599172274839e-01   4.0057771552240015e+06   0.0000000000000000e+00   0.0000000000000000e+00   0.0000000000000000e+00   0.0000000000000000e+00   0.0000000000000000e+00   0.0000000000000000e+00   0.0000000000000000e+00   0.0000000000000000e+00   0.0000000000000000e+00   0.0000000000000000e+00   0.0000000000000000e+00   0.0000000000000000e+00   0.0000000000000000e+00   0.0000000000000000e+00   0.0000000000000000e+00   0.0000000000000000e+00   0.0000000000000000e+00   0.0000000000000000e+00   0.0000000000000000e+00   0.0000000000000000e+00   0.0000000000000000e+00   0.0000000000000000e+00   0.0000000000000000e+00   0.0000000000000000e+00   0.0000000000000000e+00   0.0000000000000000e+00   0.0000000000000000e+00   0.0000000000000000e+00   0.0000000000000000e+00   0.0000000000000000e+00   4.2256945771637300e-01   0.0000000000000000e+00   7.9907456541729160e+05   1.4957823399500663e+06   1.3729319316543508e+06   1.9699329521716610e+06   3.7288619490065589e+06   3.9288084027973288e+06   0.0000000000000000e+00   6.0620142835316490e+06   0.0000000000000000e+00   0.0000000000000000e+00   0.0000000000000000e+00   0.0000000000000000e+00   0.0000000000000000e+00   0.0000000000000000e+00   0.0000000000000000e+00   0.0000000000000000e+00   0.0000000000000000e+00   0.0000000000000000e+00   0.0000000000000000e+00   0.0000000000000000e+00   0.0000000000000000e+00   0.0000000000000000e+00   0.0000000000000000e+00   0.0000000000000000e+00   0.0000000000000000e+00   0.0000000000000000e+00   0.0000000000000000e+00   0.0000000000000000e+00   0.0000000000000000e+00   0.0000000000000000e+00   0.0000000000000000e+00   0.0000000000000000e+00   0.0000000000000000e+00   0.0000000000000000e+00   0.0000000000000000e+00   0.0000000000000000e+00   0.0000000000000000e+00   2.1487183613927863e+06   3.1832271591555811e+06   1.0336077079767437e+06   1.2973029220381572e+06   1.6794855366510665e+06   1.7985647676445383e+06   4.6527636548630297e+06   5.3564949837190574e+06   0.0000000000000000e+00   8.2441121635927577e+06   0.0000000000000000e+00   0.0000000000000000e+00   0.0000000000000000e+00   0.0000000000000000e+00   0.0000000000000000e+00   0.0000000000000000e+00   0.0000000000000000e+00   0.0000000000000000e+00   0.0000000000000000e+00   7.5442203981390526e+05   4.9889107642800948e+06   1.2609796003733173e+06   4.9753435631658575e+06   2.0620509710028092e+06   4.9572852445622934e+06   2.5449570805878909e+06   4.9295808875793796e+06   2.4730226035898011e+06   4.9110790382203404e+06   1.3038042271932830e+05   4.9176841986534959e+06   1.8983923351429985e+03   4.9120485049259085e+06   3.0107342891886272e+06   4.8708178572622528e+06   2.7921600632225694e+06   4.8013270241245329e+06   5.9969437465266953e+05   3.3382011557187559e+06   1.9937902034552498e+06   2.9184434182230625e+06   2.4662080784364268e+06   2.9761629375739312e+06   2.6019790899622086e+06   3.1933473491575890e+06   3.8119727804733873e+06   4.1991304525846317e+06   8.6367574258521348e+06   4.8632983245942593e+06   8.2845615644099899e+06   4.5234429357513031e+06   3.5035743572005369e+06   2.1211144438934168e+06   1.0786920101753522e+06   2.2684583100173497e+06   1.9978928158034937e+05   3.1410812791622570e+06   5.4958050850909622e+06   5.6776711415343909e+06   5.4821100058102272e+06   5.6951253265610803e+06   5.4639528274196982e+06   5.7139543213401940e+06   5.4357578722202592e+06   5.7375610586839980e+06   5.4175544157287115e+06   5.7632032823035987e+06   5.4220825717806201e+06   5.7710984140572790e+06   5.4182297961446373e+06   5.7772072402054146e+06   5.3752235058164652e+06   5.8059817644969560e+06   5.2912715212744754e+06   5.8624115541758565e+06   3.5324705789582939e+06   5.8872863233256480e+06   3.7784518589172959e+06   6.1480009411774091e+06   4.3832966686336119e+06   7.1473934957640404e+06   4.4396264162307708e+06   8.3174810960565591e+06   3.5004089895581892e+06   9.0704991138025057e+06   3.3561283041281616e+06   9.0353218379110601e+06   1.3901146197226918e+06   9.0042883523901068e+06   1.3250589323159477e+06   7.4686299180390723e+06   2.5044090442430084e+06   5.7243008479927639e+06   4.0254543765564170e+06   3.9269105445650406e+06   2.0593990277326819e+06   </DataArray> 
</CellData> 
</Piece>
</UnstructuredGrid>
</VTKFile>