<?xml version="1.0"?>
<VTKFile type="UnstructuredGrid"  version="0.1"  >
<UnstructuredGrid>
<Piece  NumberOfPoints="323" NumberOfCells="575">
<Points>
<DataArray  type="Float64"  NumberOfComponents="3"  format="ascii">0.3965217391304348 0 0  0.4295652173913043 0 0  0.4295652173913043 0.03333333333333333 0  0.4626086956521739 0 0  0.4626086956521739 0.03333333333333333 0  0.4956521739130435 0 0  0.4956521739130435 0.03333333333333333 0  0.528695652173913 0 0  0.528695652173913 0.03333333333333333 0  0.5617391304347825 0 0  0.5617391304347825 0.03333333333333333 0  0.5947826086956521 0 0  0.5947826086956521 0.03333333333333333 0  0.6278260869565218 0 0  0.6278260869565218 0.03333333333333333 0  0.6608695652173913 0 0  0.6608695652173913 0.03333333333333333 0  0.6939130434782609 0 0  0.6939130434782609 0.03333333333333333 0  0.7269565217391304 0 0  0.7269565217391304 0.03333333333333333 0  0.7599999999999999 0 0  0.7599999999999999 0.03333333333333333 0  0.7930434782608695 0 0  0.7930434782608695 0.03333333333333333 0  0.8260869565217391 0 0  0.8260869565217391 0.03333333333333333 0  0.8591304347826086 0 0  0.8591304347826086 0.03333333333333333 0  0.8921739130434783 0 0  0.8921739130434783 0.03333333333333333 0  0.9252173913043478 0 0  0.9252173913043478 0.03333333333333333 0  0.9582608695652173 0 0  0.9582608695652173 0.03333333333333333 0  0.991304347826087 0 0  0.991304347826087 0.03333333333333333 0  1.024347826086957 0 0  1.024347826086957 0.03333333333333333 0  1.057391304347826 0 0  1.057391304347826 0.03333333333333333 0  1.090434782608696 0.03333333333333333 0  0.4626086956521739 0.06666666666666667 0  0.4956521739130435 0.06666666666666667 0  0.528695652173913 0.06666666666666667 0  0.5617391304347825 0.06666666666666667 0  0.5947826086956521 0.06666666666666667 0  0.6278260869565218 0.06666666666666667 0  0.6608695652173913 0.06666666666666667 0  0.6939130434782609 0.06666666666666667 0  0.7269565217391304 0.06666666666666667 0  0.7599999999999999 0.06666666666666667 0  0.7930434782608695 0.06666666666666667 0  0.8260869565217391 0.06666666666666667 0  0.8591304347826086 0.06666666666666667 0  0.8921739130434783 0.06666666666666667 0  0.9252173913043478 0.06666666666666667 0  0.9582608695652173 0.06666666666666667 0  0.991304347826087 0.06666666666666667 0  1.024347826086957 0.06666666666666667 0  1.057391304347826 0.06666666666666667 0  1.090434782608696 0.06666666666666667 0  1.123478260869565 0.06666666666666667 0  0.4956521739130435 0.1 0  0.528695652173913 0.1 0  0.5617391304347825 0.1 0  0.5947826086956521 0.1 0  0.6278260869565218 0.1 0  0.6608695652173913 0.1 0  0.6939130434782609 0.1 0  0.7269565217391304 0.1 0  0.7599999999999999 0.1 0  0.7930434782608695 0.1 0  0.8260869565217391 0.1 0  0.8591304347826086 0.1 0  0.8921739130434783 0.1 0  0.9252173913043478 0.1 0  0.9582608695652173 0.1 0  0.991304347826087 0.1 0  1.024347826086957 0.1 0  1.057391304347826 0.1 0  1.090434782608696 0.1 0  1.123478260869565 0.1 0  0.528695652173913 0.1333333333333333 0  0.5617391304347825 0.1333333333333333 0  0.5947826086956521 0.1333333333333333 0  0.6278260869565218 0.1333333333333333 0  0.6608695652173913 0.1333333333333333 0  0.6939130434782609 0.1333333333333333 0  0.7269565217391304 0.1333333333333333 0  0.7599999999999999 0.1333333333333333 0  0.7930434782608695 0.1333333333333333 0  0.8260869565217391 0.1333333333333333 0  0.8591304347826086 0.1333333333333333 0  0.8921739130434783 0.1333333333333333 0  0.9252173913043478 0.1333333333333333 0  0.9582608695652173 0.1333333333333333 0  0.991304347826087 0.1333333333333333 0  1.024347826086957 0.1333333333333333 0  1.057391304347826 0.1333333333333333 0  1.090434782608696 0.1333333333333333 0  1.123478260869565 0.1333333333333333 0  1.156521739130435 0.1333333333333333 0  0.5617391304347825 0.1666666666666667 0  0.5947826086956521 0.1666666666666667 0  0.6278260869565218 0.1666666666666667 0  0.6608695652173913 0.1666666666666667 0  0.6939130434782609 0.1666666666666667 0  0.7269565217391304 0.1666666666666667 0  0.7599999999999999 0.1666666666666667 0  0.7930434782608695 0.1666666666666667 0  0.8260869565217391 0.1666666666666667 0  0.8591304347826086 0.1666666666666667 0  0.8921739130434783 0.1666666666666667 0  0.9252173913043478 0.1666666666666667 0  0.9582608695652173 0.1666666666666667 0  0.991304347826087 0.1666666666666667 0  1.024347826086957 0.1666666666666667 0  1.057391304347826 0.1666666666666667 0  1.090434782608696 0.1666666666666667 0  1.123478260869565 0.1666666666666667 0  1.156521739130435 0.1666666666666667 0  1.189565217391304 0.1666666666666667 0  0.5947826086956521 0.2 0  0.6278260869565218 0.2 0  0.6608695652173913 0.2 0  0.6939130434782609 0.2 0  0.7269565217391304 0.2 0  0.7599999999999999 0.2 0  0.7930434782608695 0.2 0  0.8260869565217391 0.2 0  0.8591304347826086 0.2 0  0.8921739130434783 0.2 0  0.9252173913043478 0.2 0  0.9582608695652173 0.2 0  0.991304347826087 0.2 0  1.024347826086957 0.2 0  1.057391304347826 0.2 0  1.090434782608696 0.2 0  1.123478260869565 0.2 0  1.156521739130435 0.2 0  1.189565217391304 0.2 0  1.222608695652174 0.2 0  0.6278260869565218 0.2333333333333333 0  0.6608695652173913 0.2333333333333333 0  0.6939130434782609 0.2333333333333333 0  0.7269565217391304 0.2333333333333333 0  0.7599999999999999 0.2333333333333333 0  0.7930434782608695 0.2333333333333333 0  0.8260869565217391 0.2333333333333333 0  0.8591304347826086 0.2333333333333333 0  0.8921739130434783 0.2333333333333333 0  0.9252173913043478 0.2333333333333333 0  0.9582608695652173 0.2333333333333333 0  0.991304347826087 0.2333333333333333 0  1.024347826086957 0.2333333333333333 0  1.057391304347826 0.2333333333333333 0  1.090434782608696 0.2333333333333333 0  1.123478260869565 0.2333333333333333 0  1.156521739130435 0.2333333333333333 0  1.189565217391304 0.2333333333333333 0  1.222608695652174 0.2333333333333333 0  1.255652173913044 0.2333333333333333 0  0.6608695652173913 0.2666666666666667 0  0.6939130434782609 0.2666666666666667 0  0.7269565217391304 0.2666666666666667 0  0.7599999999999999 0.2666666666666667 0  0.7930434782608695 0.2666666666666667 0  0.8260869565217391 0.2666666666666667 0  0.8591304347826086 0.2666666666666667 0  0.8921739130434783 0.2666666666666667 0  0.9252173913043478 0.2666666666666667 0  0.9582608695652173 0.2666666666666667 0  0.991304347826087 0.2666666666666667 0  1.024347826086957 0.2666666666666667 0  1.057391304347826 0.2666666666666667 0  1.090434782608696 0.2666666666666667 0  1.123478260869565 0.2666666666666667 0  1.156521739130435 0.2666666666666667 0  1.189565217391304 0.2666666666666667 0  1.222608695652174 0.2666666666666667 0  1.255652173913044 0.2666666666666667 0  1.288695652173913 0.2666666666666667 0  0.6939130434782609 0.3 0  0.7269565217391304 0.3 0  0.7599999999999999 0.3 0  0.7930434782608695 0.3 0  0.8260869565217391 0.3 0  0.8591304347826086 0.3 0  0.8921739130434783 0.3 0  0.9252173913043478 0.3 0  0.9582608695652173 0.3 0  0.991304347826087 0.3 0  1.024347826086957 0.3 0  1.057391304347826 0.3 0  1.090434782608696 0.3 0  1.123478260869565 0.3 0  1.156521739130435 0.3 0  1.189565217391304 0.3 0  1.222608695652174 0.3 0  1.255652173913044 0.3 0  1.288695652173913 0.3 0  1.321739130434783 0.3 0  0.7269565217391304 0.3333333333333333 0  0.7599999999999999 0.3333333333333333 0  0.7930434782608695 0.3333333333333333 0  0.8260869565217391 0.3333333333333333 0  0.8591304347826086 0.3333333333333333 0  0.8921739130434783 0.3333333333333333 0  0.9252173913043478 0.3333333333333333 0  0.9582608695652173 0.3333333333333333 0  0.991304347826087 0.3333333333333333 0  1.024347826086957 0.3333333333333333 0  1.057391304347826 0.3333333333333333 0  1.090434782608696 0.3333333333333333 0  1.123478260869565 0.3333333333333333 0  1.156521739130435 0.3333333333333333 0  1.189565217391304 0.3333333333333333 0  1.222608695652174 0.3333333333333333 0  1.255652173913044 0.3333333333333333 0  1.288695652173913 0.3333333333333333 0  1.321739130434783 0.3333333333333333 0  1.354782608695652 0.3333333333333333 0  0.7599999999999999 0.3666666666666666 0  0.7930434782608695 0.3666666666666666 0  0.8260869565217391 0.3666666666666666 0  0.8591304347826086 0.3666666666666666 0  0.8921739130434783 0.3666666666666666 0  0.9252173913043478 0.3666666666666666 0  0.9582608695652173 0.3666666666666666 0  0.991304347826087 0.3666666666666666 0  1.024347826086957 0.3666666666666666 0  1.057391304347826 0.3666666666666666 0  1.090434782608696 0.3666666666666666 0  1.123478260869565 0.3666666666666666 0  1.156521739130435 0.3666666666666666 0  1.189565217391304 0.3666666666666666 0  1.222608695652174 0.3666666666666666 0  1.255652173913044 0.3666666666666666 0  1.288695652173913 0.3666666666666666 0  1.321739130434783 0.3666666666666666 0  1.354782608695652 0.3666666666666666 0  1.387826086956522 0.3666666666666666 0  0.7930434782608695 0.4 0  0.8260869565217391 0.4 0  0.8591304347826086 0.4 0  0.8921739130434783 0.4 0  0.9252173913043478 0.4 0  0.9582608695652173 0.4 0  0.991304347826087 0.4 0  1.024347826086957 0.4 0  1.057391304347826 0.4 0  1.090434782608696 0.4 0  1.123478260869565 0.4 0  1.156521739130435 0.4 0  1.189565217391304 0.4 0  1.222608695652174 0.4 0  1.255652173913044 0.4 0  1.288695652173913 0.4 0  1.321739130434783 0.4 0  1.354782608695652 0.4 0  1.387826086956522 0.4 0  1.420869565217391 0.4 0  0.8260869565217391 0.4333333333333333 0  0.8591304347826086 0.4333333333333333 0  0.8921739130434783 0.4333333333333333 0  0.9252173913043478 0.4333333333333333 0  0.9582608695652173 0.4333333333333333 0  0.991304347826087 0.4333333333333333 0  1.024347826086957 0.4333333333333333 0  1.057391304347826 0.4333333333333333 0  1.090434782608696 0.4333333333333333 0  1.123478260869565 0.4333333333333333 0  1.156521739130435 0.4333333333333333 0  1.189565217391304 0.4333333333333333 0  1.222608695652174 0.4333333333333333 0  1.255652173913044 0.4333333333333333 0  1.288695652173913 0.4333333333333333 0  1.321739130434783 0.4
[...]
<CellData  Scalars="sigma_m"> 
<DataArray  type="Float64"  Name="sigma_m"  format="ascii">5.0616562033061441e+06   1.4910890012185974e+06   8.6562812635287084e+06   1.0408607611592547e+06   5.8779158165842062e+06   3.5831156460310314e+06   4.6824774324658653e+06   6.1407617782680457e+06   4.5432609372299826e+06   7.0256251853044322e+06   5.0154946795701617e+06   7.2822840771015985e+06   6.0234885462525859e+06   7.3318330968151148e+06   7.0417388129688706e+06   7.3093584121957514e+06   7.0420677005854007e+06   7.2845164329413008e+06   7.0648302590332739e+06   7.2596089622634919e+06   7.0883769375575380e+06   7.2347083606674559e+06   7.1120368298906386e+06   7.2098176531846114e+06   7.1357968400954138e+06   7.1849369239309514e+06   7.1596581729732789e+06   7.1600657691592537e+06   7.1836125964896167e+06   7.1352047217768654e+06   7.2076486364485053e+06   7.1103558426608155e+06   7.2317585034261905e+06   7.0855223285490079e+06   7.2559390730428835e+06   7.0607079244695138e+06   7.2801893309089486e+06   7.0359165341476575e+06   7.3045084814302251e+06   7.3288947856714604e+06   1.0905557934056126e+07   5.0814707698058197e+06   4.4781521578878444e+06   3.7634125034539602e+06   2.1830936709879930e+06   5.2506663537650295e+06   2.9708347910221410e+06   5.3174859232999189e+06   3.2399758423415851e+06   5.3521515201976821e+06   3.3386451770118899e+06   5.0147039464118285e+06   5.2693844915262587e-06   5.0214738566859597e+06   0.0000000000000000e+00   5.0393200381745500e+06   0.0000000000000000e+00   5.0575183554340405e+06   0.0000000000000000e+00   5.0757327331871148e+06   0.0000000000000000e+00   5.0939356375208460e+06   0.0000000000000000e+00   5.1121223955645757e+06   0.0000000000000000e+00   5.1303133981038751e+06   0.0000000000000000e+00   5.1485363918010872e+06   0.0000000000000000e+00   5.1668074161563152e+06   0.0000000000000000e+00   5.1851279845601926e+06   0.0000000000000000e+00   5.2034922534466283e+06   0.0000000000000000e+00   5.2218926625869293e+06   0.0000000000000000e+00   5.2403234046197785e+06   0.0000000000000000e+00   0.0000000000000000e+00   7.2162937987585394e+06   3.7065989951907336e+06   3.6010555626352136e+06   3.8032589228858990e+06   1.3504666338572744e+06   1.4711353116573362e+07   5.6601887043305365e+06   0.0000000000000000e+00   0.0000000000000000e+00   0.0000000000000000e+00   0.0000000000000000e+00   0.0000000000000000e+00   0.0000000000000000e+00   0.0000000000000000e+00   0.0000000000000000e+00   0.0000000000000000e+00   0.0000000000000000e+00   0.0000000000000000e+00   0.0000000000000000e+00   0.0000000000000000e+00   0.0000000000000000e+00   0.0000000000000000e+00   0.0000000000000000e+00   0.0000000000000000e+00   0.0000000000000000e+00   0.0000000000000000e+00   0.0000000000000000e+00   0.0000000000000000e+00   0.0000000000000000e+00   0.0000000000000000e+00   0.0000000000000000e+00   0.0000000000000000e+00   0.0000000000000000e+00   0.0000000000000000e+00   0.0000000000000000e+00   0.0000000000000000e+00   0.0000000000000000e+00   0.0000000000000000e+00   0.0000000000000000e+00   7.6621539497950273e+06   4.4788513299692208e+06   3.3071852500159568e+06   6.3144004418212445e+06   3.2929099194082702e+06   0.0000000000000000e+00   9.9519468245266122e-06   0.0000000000000000e+00   0.0000000000000000e+00   0.0000000000000000e+00   0.0000000000000000e+00   0.0000000000000000e+00   0.0000000000000000e+00   0.0000000000000000e+00   0.0000000000000000e+00   0.0000000000000000e+00   0.0000000000000000e+00   0.0000000000000000e+00   0.0000000000000000e+00   0.0000000000000000e+00   0.0000000000000000e+00   0.0000000000000000e+00   0.0000000000000000e+00   0.0000000000000000e+00   0.0000000000000000e+00   0.0000000000000000e+00   0.0000000000000000e+00   0.0000000000000000e+00   0.0000000000000000e+00   0.0000000000000000e+00   0.0000000000000000e+00   0.0000000000000000e+00   0.0000000000000000e+00   0.0000000000000000e+00   0.0000000000000000e+00   0.0000000000000000e+00   0.0000000000000000e+00   0.0000000000000000e+00   7.7496177797062984e+06   3.2080701748242760e+06   2.3878884316532458e+06   2.9806618008929090e+03   3.0951412312336597e+06   0.0000000000000000e+00   0.0000000000000000e+00   0.0000000000000000e+00   0.0000000000000000e+00   0.0000000000000000e+00   0.0000000000000000e+00   0.0000000000000000e+00   0.0000000000000000e+00   0.0000000000000000e+00   0.0000000000000000e+00   0.0000000000000000e+00   0.0000000000000000e+00   0.0000000000000000e+00   0.0000000000000000e+00   0.0000000000000000e+00   0.0000000000000000e+00   0.0000000000000000e+00   0.0000000000000000e+00   0.0000000000000000e+00   0.0000000000000000e+00   0.0000000000000000e+00   0.0000000000000000e+00   0.0000000000000000e+00   0.0000000000000000e+00   0.0000000000000000e+00   0.0000000000000000e+00   0.0000000000000000e+00   0.0000000000000000e+00   0.0000000000000000e+00   0.0000000000000000e+00   0.0000000000000000e+00   0.0000000000000000e+00   0.0000000000000000e+00   6.4742652053886577e+06   2.4562152535535842e+06   2.1850189460198148e+06   5.5977216406448663e+05   1.4194129583150595e+06   0.0000000000000000e+00   4.3639604923343039e-06   0.0000000000000000e+00   0.0000000000000000e+00   0.0000000000000000e+00   0.0000000000000000e+00   0.0000000000000000e+00   0.0000000000000000e+00   0.0000000000000000e+00   0.0000000000000000e+00   0.0000000000000000e+00   0.0000000000000000e+00   0.0000000000000000e+00   0.0000000000000000e+00   0.0000000000000000e+00   0.0000000000000000e+00   0.0000000000000000e+00   0.0000000000000000e+00   0.0000000000000000e+00   0.0000000000000000e+00   0.0000000000000000e+00   0.0000000000000000e+00   0.0000000000000000e+00   0.0000000000000000e+00   0.0000000000000000e+00   0.0000000000000000e+00   0.0000000000000000e+00   0.0000000000000000e+00   0.0000000000000000e+00   0.0000000000000000e+00   0.0000000000000000e+00   0.0000000000000000e+00   0.0000000000000000e+00   4.9563958795360709e+06   2.4732899974316708e+06   2.3628100070142490e+06   9.1826876366450882e+05   1.3939887815085743e+06   0.0000000000000000e+00   6.1983909741129063e+05   0.0000000000000000e+00   0.0000000000000000e+00   0.0000000000000000e+00   0.0000000000000000e+00   0.0000000000000000e+00   0.0000000000000000e+00   0.0000000000000000e+00   0.0000000000000000e+00   0.0000000000000000e+00   0.0000000000000000e+00   0.0000000000000000e+00   0.0000000000000000e+00   0.0000000000000000e+00   0.0000000000000000e+00   0.0000000000000000e+00   0.0000000000000000e+00   0.0000000000000000e+00   0.0000000000000000e+00   0.0000000000000000e+00   0.0000000000000000e+00   0.0000000000000000e+00   0.0000000000000000e+00   0.0000000000000000e+00   0.0000000000000000e+00   0.0000000000000000e+00   0.0000000000000000e+00   0.0000000000000000e+00   0.0000000000000000e+00   0.0000000000000000e+00   0.0000000000000000e+00   0.0000000000000000e+00   3.6863706203463110e+06   2.9854277575618196e+06   3.2510674559284747e+06   2.2217474749539127e+06   2.7080011813466228e+06   0.0000000000000000e+00   2.2162619597217520e+06   0.0000000000000000e+00   0.0000000000000000e+00   0.0000000000000000e+00   0.0000000000000000e+00   0.0000000000000000e+00   0.0000000000000000e+00   0.0000000000000000e+00   0.0000000000000000e+00   0.0000000000000000e+00   0.0000000000000000e+00   0.0000000000000000e+00   0.0000000000000000e+00   0.0000000000000000e+00   0.0000000000000000e+00   0.0000000000000000e+00   0.0000000000000000e+00   0.0000000000000000e+00   0.0000000000000000e+00   0.0000000000000000e+00   0.0000000000000000e+00   0.0000000000000000e+00   0.0000000000000000e+00   0.0000000000000000e+00   0.0000000000000000e+00   0.0000000000000000e+00   0.0000000000000000e+00   0.0000000000000000e+00   0.0000000000000000e+00   0.0000000000000000e+00   0.0000000000000000e+00   0.0000000000000000e+00   3.7921674350238922e+06   3.3636824753063465e+06   2.8540408298518909e+06   2.8725537391612525e+06   2.8205009426048966e+06   4.4487180785756026e-03   3.8160110056797792e+06   0.0000000000000000e+00   0.0000000000000000e+00   0.0000000000000000e+00   0.0000000000000000e+00   0.0000000000000000e+00   0.0000000000000000e+00   0.0000000000000000e+00   0.0000000000000000e+00   0.0000000000000000e+00   0.0000000000000000e+00   0.0000000000000000e+00   0.0000000000000000e+00   0.0000000000000000e+00   0.0000000000000000e+00   0.0000000000000000e+00   0.0000000000000000e+00   0.0000000000000000e+00   0.0000000000000000e+00   0.0000000000000000e+00   0.0000000000000000e+00   0.0000000000000000e+00   0.0000000000000000e+00   0.0000000000000000e+00   0.0000000000000000e+00   0.0000000000000000e+00   0.0000000000000000e+00   0.0000000000000000e+00   0.0000000000000000e+00   0.0000000000000000e+00   0.0000000000000000e+00   0.0000000000000000e+00   1.2575958118236565e+06   1.7677605256346215e+06   1.5247086265292519e+06   3.3754407875834620e+06   4.1113259953654977e+06   1.1640555455026660e-05   6.8735568860418685e+06   0.0000000000000000e+00   0.0000000000000000e+00   0.0000000000000000e+00   0.0000000000000000e+00   0.0000000000000000e+00   0.0000000000000000e+00   0.0000000000000000e+00   0.0000000000000000e+00   0.0000000000000000e+00   0.0000000000000000e+00   0.0000000000000000e+00   0.0000000000000000e+00   0.0000000000000000e+00   0.0000000000000000e+00   0.0000000000000000e+00   0.0000000000000000e+00   0.0000000000000000e+00   0.0000000000000000e+00   0.0000000000000000e+00   0.0000000000000000e+00   0.0000000000000000e+00   0.0000000000000000e+00   0.0000000000000000e+00   0.0000000000000000e+00   0.0000000000000000e+00   0.0000000000000000e+00   0.0000000000000000e+00   0.0000000000000000e+00   3.5913408878803491e+06   5.0199852516474333e+06   3.5741731770576444e+06   2.7561228609925648e+06   1.5245336573864557e+06   2.8469892105892296e+06   6.5528520414829431e+06   7.0016975934171844e+06   0.0000000000000000e+00   6.3659404985037055e+06   0.0000000000000000e+00   0.0000000000000000e+00   0.0000000000000000e+00   0.0000000000000000e+00   0.0000000000000000e+00   0.0000000000000000e+00   0.0000000000000000e+00   0.0000000000000000e+00   0.0000000000000000e+00   0.0000000000000000e+00   0.0000000000000000e+00   0.0000000000000000e+00   0.0000000000000000e+00   0.0000000000000000e+00   0.0000000000000000e+00   0.0000000000000000e+00   0.0000000000000000e+00   0.0000000000000000e+00   0.0000000000000000e+00   0.0000000000000000e+00   0.0000000000000000e+00   0.0000000000000000e+00   0.0000000000000000e+00   0.0000000000000000e+00   7.8605259705344324e-06   0.0000000000000000e+00   4.6057886862582937e+06   4.7936337551046945e+06   1.8395694052114785e+06   3.4631941586475526e+06   1.5170309038728515e+06   3.0562138205228788e+06   3.7794377172820563e+06   4.7716388655466996e+06   5.8695519418107662e+06   1.0206934581085982e+07   0.0000000000000000e+00   0.0000000000000000e+00   0.0000000000000000e+00   0.0000000000000000e+00   0.0000000000000000e+00   0.0000000000000000e+00   0.0000000000000000e+00   0.0000000000000000e+00   0.0000000000000000e+00   0.0000000000000000e+00   0.0000000000000000e+00   0.0000000000000000e+00   0.0000000000000000e+00   0.0000000000000000e+00   0.0000000000000000e+00   0.0000000000000000e+00   0.0000000000000000e+00   0.0000000000000000e+00   0.0000000000000000e+00   0.0000000000000000e+00   0.0000000000000000e+00   0.0000000000000000e+00   0.0000000000000000e+00   0.0000000000000000e+00   1.8965019595682689e+06   6.7517642380691394e+06   2.2181192697801115e+06   3.5400820982553172e+06   2.3408485361707844e+06   2.2078427427541567e+06   2.2671965499929714e+05   1.8884632011470182e+06   0.0000000000000000e+00   2.5623300298176496e+06   3.7010295516346507e+06   4.2631401563208662e+06   2.7427153074178272e-07   1.0005801628851732e+07   0.0000000000000000e+00   0.0000000000000000e+00   0.0000000000000000e+00   0.0000000000000000e+00   0.0000000000000000e+00   0.0000000000000000e+00   0.0000000000000000e+00   0.0000000000000000e+00   0.0000000000000000e+00   0.0000000000000000e+00   0.0000000000000000e+00   0.0000000000000000e+00   0.0000000000000000e+00   0.0000000000000000e+00   0.0000000000000000e+00   0.0000000000000000e+00   0.0000000000000000e+00   0.0000000000000000e+00   0.0000000000000000e+00   0.0000000000000000e+00   4.7926889201438646e-07   4.0625448073898355e-04   5.2282633354840884e+06   6.1544099695031997e+06   4.8493769351349719e+05   3.4745546451013233e+06   2.8586254439676329e+06   1.7987327745247248e+06   5.2289442291235012e-09   4.3452564173784535e+06   0.0000000000000000e+00   0.0000000000000000e+00   0.0000000000000000e+00   3.7765550304683144e+06   2.9292701128115570e+06   5.5002043924501482e+06   1.0613378293610044e+07   7.0543153617689088e+06   1.0975787586128570e+07   7.0256312858556928e+06   2.7077395978828728e-01   4.3727838402352165e+06   1.2851375502778856e-08   3.2620150158803025e+06   0.0000000000000000e+00   4.2562735817604633e+06   0.0000000000000000e+00   5.4173657137971893e+06   6.3781077211975032e-10   6.5801005410741000e+06   1.7205077159338874e-05   7.7742809640309764e+06   1.7832919024382734e+06   9.4078174888583366e+06   1.8607882531784508e+07   1.0782271882777911e+07   1.1070674573764523e+07   9.3256561467686668e+06   3.8879892443831558e+06   5.2418232870653020e+06   2.3074209374323389e+06   3.3240964488149588e+06   3.5138511311723981e+06   3.3965361644809786e+06   1.8243154179569776e+06   3.8415843846864300e+06   4.2183069672747337e+02   4.9493783398420839e+06   2.6793449651873393e-07   4.9037376839065971e+06   4.7378961059576748e+06   7.0488152764381003e+06   1.3461858440427491e+07   6.1423488203001674e+06   1.4637251931042114e+07   3.8932153921197266e+06   1.5077383900554404e+07   3.4842677806889364e+06   1.3699004015387544e+07   4.3859551742027625e+06   1.2197875724118415e+07   6.0483706155083552e+06   1.0233722905750131e+07   7.7748330617056908e+06   8.3624865917960368e+06   9.5826593545209300e+06   6.5457151469502347e+06   1.1454218565162715e+07   4.8560634673091723e+06   1.1326118860653726e+07   3.3166881464045020e+06   1.1300131508003471e+07   2.6358894675125526e+06   7.9137713968863301e+06   3.4058635577150122e+06   4.6577160297048902e+06   3.4037360365552199e+06   3.9410524598410386e+06   3.5479140941952122e+06   4.0878281522547975e+06   4.4499826385155041e+06   3.8065465222975495e+06   5.2943731352806063e+06   5.4387948438548706e+06   5.3672741402409868e+06   6.6129722014204673e+06   5.6079771175266216e+06   6.6137269936146932e+06   5.8377732100671176e+06   </DataArray> 
</CellData> 
</Piece>
</UnstructuredGrid>
</VTKFile>