<?xml version="1.0"?>
<VTKFile type="UnstructuredGrid"  version="0.1"  >
<UnstructuredGrid>
<Piece  NumberOfPoints="319" NumberOfCells="567">
<Points>
<DataArray  type="Float64"  NumberOfComponents="3"  format="ascii">1.850434782608696 0 0  1.883478260869565 0 0  1.883478260869565 0.03333333333333333 0  1.916521739130435 0 0  1.916521739130435 0.03333333333333333 0  1.949565217391304 0 0  1.949565217391304 0.03333333333333333 0  1.982608695652174 0 0  1.982608695652174 0.03333333333333333 0  2.015652173913043 0 0  2.015652173913043 0.03333333333333333 0  2.048695652173913 0 0  2.048695652173913 0.03333333333333333 0  2.081739130434782 0 0  2.081739130434782 0.03333333333333333 0  2.114782608695652 0 0  2.114782608695652 0.03333333333333333 0  2.147826086956522 0 0  2.147826086956522 0.03333333333333333 0  2.180869565217391 0 0  2.180869565217391 0.03333333333333333 0  2.213913043478261 0 0  2.213913043478261 0.03333333333333333 0  2.24695652173913 0 0  2.24695652173913 0.03333333333333333 0  2.28 0 0  2.28 0.03333333333333333 0  2.31304347826087 0 0  2.31304347826087 0.03333333333333333 0  2.346086956521739 0 0  2.346086956521739 0.03333333333333333 0  2.379130434782609 0 0  2.379130434782609 0.03333333333333333 0  2.412173913043478 0 0  2.412173913043478 0.03333333333333333 0  2.445217391304348 0 0  2.445217391304348 0.03333333333333333 0  2.478260869565217 0 0  2.478260869565217 0.03333333333333333 0  1.916521739130435 0.06666666666666667 0  1.883478260869565 0.06666666666666667 0  1.949565217391304 0.06666666666666667 0  1.982608695652174 0.06666666666666667 0  2.015652173913043 0.06666666666666667 0  2.048695652173913 0.06666666666666667 0  2.081739130434782 0.06666666666666667 0  2.114782608695652 0.06666666666666667 0  2.147826086956522 0.06666666666666667 0  2.180869565217391 0.06666666666666667 0  2.213913043478261 0.06666666666666667 0  2.24695652173913 0.06666666666666667 0  2.28 0.06666666666666667 0  2.31304347826087 0.06666666666666667 0  2.346086956521739 0.06666666666666667 0  2.379130434782609 0.06666666666666667 0  2.412173913043478 0.06666666666666667 0  2.445217391304348 0.06666666666666667 0  2.478260869565217 0.06666666666666667 0  1.916521739130435 0.1 0  1.883478260869565 0.1 0  1.949565217391304 0.1 0  1.982608695652174 0.1 0  2.015652173913043 0.1 0  2.048695652173913 0.1 0  2.081739130434782 0.1 0  2.114782608695652 0.1 0  2.147826086956522 0.1 0  2.180869565217391 0.1 0  2.213913043478261 0.1 0  2.24695652173913 0.1 0  2.28 0.1 0  2.31304347826087 0.1 0  2.346086956521739 0.1 0  2.379130434782609 0.1 0  2.412173913043478 0.1 0  2.445217391304348 0.1 0  2.478260869565217 0.1 0  1.916521739130435 0.1333333333333333 0  1.883478260869565 0.1333333333333333 0  1.949565217391304 0.1333333333333333 0  1.982608695652174 0.1333333333333333 0  2.015652173913043 0.1333333333333333 0  2.048695652173913 0.1333333333333333 0  2.081739130434782 0.1333333333333333 0  2.114782608695652 0.1333333333333333 0  2.147826086956522 0.1333333333333333 0  2.180869565217391 0.1333333333333333 0  2.213913043478261 0.1333333333333333 0  2.24695652173913 0.1333333333333333 0  2.28 0.1333333333333333 0  2.31304347826087 0.1333333333333333 0  2.346086956521739 0.1333333333333333 0  2.379130434782609 0.1333333333333333 0  2.412173913043478 0.1333333333333333 0  2.445217391304348 0.1333333333333333 0  2.478260869565217 0.1333333333333333 0  2.511304347826087 0.1333333333333333 0  1.916521739130435 0.1666666666666667 0  1.883478260869565 0.1666666666666667 0  1.949565217391304 0.1666666666666667 0  1.982608695652174 0.1666666666666667 0  2.015652173913043 0.1666666666666667 0  2.048695652173913 0.1666666666666667 0  2.081739130434782 0.1666666666666667 0  2.114782608695652 0.1666666666666667 0  2.147826086956522 0.1666666666666667 0  2.180869565217391 0.1666666666666667 0  2.213913043478261 0.1666666666666667 0  2.24695652173913 0.1666666666666667 0  2.28 0.1666666666666667 0  2.31304347826087 0.1666666666666667 0  2.346086956521739 0.1666666666666667 0  2.379130434782609 0.1666666666666667 0  2.412173913043478 0.1666666666666667 0  2.445217391304348 0.1666666666666667 0  2.478260869565217 0.1666666666666667 0  2.511304347826087 0.1666666666666667 0  1.916521739130435 0.2 0  1.883478260869565 0.2 0  1.949565217391304 0.2 0  1.982608695652174 0.2 0  2.015652173913043 0.2 0  2.048695652173913 0.2 0  2.081739130434782 0.2 0  2.114782608695652 0.2 0  2.147826086956522 0.2 0  2.180869565217391 0.2 0  2.213913043478261 0.2 0  2.24695652173913 0.2 0  2.28 0.2 0  2.31304347826087 0.2 0  2.346086956521739 0.2 0  2.379130434782609 0.2 0  2.412173913043478 0.2 0  2.445217391304348 0.2 0  2.478260869565217 0.2 0  2.511304347826087 0.2 0  1.916521739130435 0.2333333333333333 0  1.883478260869565 0.2333333333333333 0  1.949565217391304 0.2333333333333333 0  1.982608695652174 0.2333333333333333 0  2.015652173913043 0.2333333333333333 0  2.048695652173913 0.2333333333333333 0  2.081739130434782 0.2333333333333333 0  2.114782608695652 0.2333333333333333 0  2.147826086956522 0.2333333333333333 0  2.180869565217391 0.2333333333333333 0  2.213913043478261 0.2333333333333333 0  2.24695652173913 0.2333333333333333 0  2.28 0.2333333333333333 0  2.31304347826087 0.2333333333333333 0  2.346086956521739 0.2333333333333333 0  2.379130434782609 0.2333333333333333 0  2.412173913043478 0.2333333333333333 0  2.445217391304348 0.2333333333333333 0  2.478260869565217 0.2333333333333333 0  2.511304347826087 0.2333333333333333 0  1.916521739130435 0.2666666666666667 0  1.883478260869565 0.2666666666666667 0  1.949565217391304 0.2666666666666667 0  1.982608695652174 0.2666666666666667 0  2.015652173913043 0.2666666666666667 0  2.048695652173913 0.2666666666666667 0  2.081739130434782 0.2666666666666667 0  2.114782608695652 0.2666666666666667 0  2.147826086956522 0.2666666666666667 0  2.180869565217391 0.2666666666666667 0  2.213913043478261 0.2666666666666667 0  2.24695652173913 0.2666666666666667 0  2.28 0.2666666666666667 0  2.31304347826087 0.2666666666666667 0  2.346086956521739 0.2666666666666667 0  2.379130434782609 0.2666666666666667 0  2.412173913043478 0.2666666666666667 0  2.445217391304348 0.2666666666666667 0  2.478260869565217 0.2666666666666667 0  2.511304347826087 0.2666666666666667 0  1.916521739130435 0.3 0  1.883478260869565 0.3 0  1.949565217391304 0.3 0  1.982608695652174 0.3 0  2.015652173913043 0.3 0  2.048695652173913 0.3 0  2.081739130434782 0.3 0  2.114782608695652 0.3 0  2.147826086956522 0.3 0  2.180869565217391 0.3 0  2.213913043478261 0.3 0  2.24695652173913 0.3 0  2.28 0.3 0  2.31304347826087 0.3 0  2.346086956521739 0.3 0  2.379130434782609 0.3 0  2.412173913043478 0.3 0  2.445217391304348 0.3 0  2.478260869565217 0.3 0  2.511304347826087 0.3 0  2.544347826086956 0.3 0  1.916521739130435 0.3333333333333333 0  1.949565217391304 0.3333333333333333 0  1.982608695652174 0.3333333333333333 0  2.015652173913043 0.3333333333333333 0  2.048695652173913 0.3333333333333333 0  2.081739130434782 0.3333333333333333 0  2.114782608695652 0.3333333333333333 0  2.147826086956522 0.3333333333333333 0  2.180869565217391 0.3333333333333333 0  2.213913043478261 0.3333333333333333 0  2.24695652173913 0.3333333333333333 0  2.28 0.3333333333333333 0  2.31304347826087 0.3333333333333333 0  2.346086956521739 0.3333333333333333 0  2.379130434782609 0.3333333333333333 0  2.412173913043478 0.3333333333333333 0  2.445217391304348 0.3333333333333333 0  2.478260869565217 0.3333333333333333 0  2.511304347826087 0.3333333333333333 0  2.544347826086956 0.3333333333333333 0  1.949565217391304 0.3666666666666666 0  1.916521739130435 0.3666666666666666 0  1.982608695652174 0.3666666666666666 0  2.015652173913043 0.3666666666666666 0  2.048695652173913 0.3666666666666666 0  2.081739130434782 0.3666666666666666 0  2.114782608695652 0.3666666666666666 0  2.147826086956522 0.3666666666666666 0  2.180869565217391 0.3666666666666666 0  2.213913043478261 0.3666666666666666 0  2.24695652173913 0.3666666666666666 0  2.28 0.3666666666666666 0  2.31304347826087 0.3666666666666666 0  2.346086956521739 0.3666666666666666 0  2.379130434782609 0.3666666666666666 0  2.412173913043478 0.3666666666666666 0  2.445217391304348 0.3666666666666666 0  2.478260869565217 0.3666666666666666 0  2.511304347826087 0.3666666666666666 0  2.544347826086956 0.3666666666666666 0  1.949565217391304 0.4 0  1.916521739130435 0.4 0  1.982608695652174 0.4 0  2.015652173913043 0.4 0  2.048695652173913 0.4 0  2.081739130434782 0.4 0  2.114782608695652 0.4 0  2.147826086956522 0.4 0  2.180869565217391 0.4 0  2.213913043478261 0.4 0  2.24695652173913 0.4 0  2.28 0.4 0  2.31304347826087 0.4 0  2.346086956521739 0.4 0  2.379130434782609 0.4 0  2.412173913043478 0.4 0  2.445217391304348 0.4 0  2.478260869565217 0.4 0  2.511304347826087 0.4 0  2.544347826086956 0.4 0  1.949565217391304 0.4333333333333333 0  1.982608695652174 0.4333333333333333 0  2.015652173913043 0.4333333333333333 0  2.048695652173913 0.4333333333333333 0  2.081739130434782 0.4333333333333333 0  2.114782608695652 0.4333333333333333 0  2.147826086956522 0.4333333333333333 0  2.180869565217391 0.4333333333333333 0  2.213913043478261 0.4333333333333333 0  2.24695652173913 0.4333333333333333 0  2.28 0.4333333333333333 0  2.31304347826087 0.4333333333333333 0  2.346086956521739 0.4333333333333333 0  2.379130434782609 0.4333333333333333 0  2.412173913043478 0.4333333333333333 0  2.445217391304348 0.4333333333333333 0  2.478260869565217 0.4333333333333333 0  2.511304347826087 0.4333333333333333 0  2.544347826086956 0.4333333333333333 0  2.577391304347826 0.4333333333333333 0  1.982608695652174 0.4666666666666667 0  1.949565217391304 0.4666666666666667 0  2.015652173913043 0.4666666666666667 0  2.048695652173913 0.4666666666666667 0  2.081739130434782 0.4666666666666667 0  2.114782608695652 0.4666666666666667 0  2.147826086956522 0.4666666666666667 0  2.180869565217391 0.4666666666666667 0  2.213913043478261 0.4666666666666667 0  2.246956521739
[...]
<PointData  Vectors="Displacement"> 
<DataArray  type="Float64"  Name="Displacement"  NumberOfComponents="3" format="ascii">2.0870084207963262e-04 1.7288843584560805e-03 0.0000000000000000e+00  2.0877949393446535e-04 1.7678509323554249e-03 0.0000000000000000e+00  1.6996923207333235e-04 1.7678994271058499e-03 0.0000000000000000e+00  2.0921008422518150e-04 1.8049847720865188e-03 0.0000000000000000e+00  1.7093389092140611e-04 1.8049251454913915e-03 0.0000000000000000e+00  2.1054945945828146e-04 1.8417008072599112e-03 0.0000000000000000e+00  1.7178502535596392e-04 1.8412886757773412e-03 0.0000000000000000e+00  2.1260674037284433e-04 1.8799788818781630e-03 0.0000000000000000e+00  1.7259166794677828e-04 1.8794150150643599e-03 0.0000000000000000e+00  2.1484756320039092e-04 1.9203836468240096e-03 0.0000000000000000e+00  1.7329995283276215e-04 1.9198695003864478e-03 0.0000000000000000e+00  2.1708121361908145e-04 1.9623561298461310e-03 0.0000000000000000e+00  1.7404936652862851e-04 1.9618505491407795e-03 0.0000000000000000e+00  2.1928937726788464e-04 2.0057813206901332e-03 0.0000000000000000e+00  1.7482240015905402e-04 2.0052729212864159e-03 0.0000000000000000e+00  2.2149610148661393e-04 2.0506470403516058e-03 0.0000000000000000e+00  1.7562054184336217e-04 2.0500766127065661e-03 0.0000000000000000e+00  2.2378510796152047e-04 2.0970149763579909e-03 0.0000000000000000e+00  1.7654908126296570e-04 2.0962375726120384e-03 0.0000000000000000e+00  2.2615061462400398e-04 2.1444554925987448e-03 0.0000000000000000e+00  1.7816226707953424e-04 2.1436645616625910e-03 0.0000000000000000e+00  2.2851770391944909e-04 2.1923888750130611e-03 0.0000000000000000e+00  1.8015825324329982e-04 2.1916084809135705e-03 0.0000000000000000e+00  2.3086148428906416e-04 2.2405764174718004e-03 0.0000000000000000e+00  1.8228676833775245e-04 2.2397970646571147e-03 0.0000000000000000e+00  2.3317860614046734e-04 2.2888802569103173e-03 0.0000000000000000e+00  1.8451658158252912e-04 2.2881009083605530e-03 0.0000000000000000e+00  2.3546848521734348e-04 2.3371769356860628e-03 0.0000000000000000e+00  1.8684194015346266e-04 2.3363975216117872e-03 0.0000000000000000e+00  2.3773095711666128e-04 2.3853456558883762e-03 0.0000000000000000e+00  1.8926135460826951e-04 2.3845661893307046e-03 0.0000000000000000e+00  2.3996594788620087e-04 2.4332663014121547e-03 0.0000000000000000e+00  1.9177434026050252e-04 2.4324867985936593e-03 0.0000000000000000e+00  2.4217341078853534e-04 2.4808189766098651e-03 0.0000000000000000e+00  1.9438070348364302e-04 2.4800394483313428e-03 0.0000000000000000e+00  2.4435331074921612e-04 2.5278838531437786e-03 0.0000000000000000e+00  1.9708037028541071e-04 2.5271043062094680e-03 0.0000000000000000e+00  2.4650561870659708e-04 2.5743411017506825e-03 0.0000000000000000e+00  1.9987332588871826e-04 2.5735615410663066e-03 0.0000000000000000e+00  1.3408878555446036e-04 1.8051226012880579e-03 0.0000000000000000e+00  1.3337253411836451e-04 1.7682000704969975e-03 0.0000000000000000e+00  1.3431241391062581e-04 1.8405093645112824e-03 0.0000000000000000e+00  1.3463525946607122e-04 1.8782427214082745e-03 0.0000000000000000e+00  1.3301226295758185e-04 1.9195268717567492e-03 0.0000000000000000e+00  1.3443694612515306e-04 1.9552137394341067e-03 0.0000000000000000e+00  1.3661571164327112e-04 1.9956500139074805e-03 0.0000000000000000e+00  1.3887221935102563e-04 2.0385728575570516e-03 0.0000000000000000e+00  1.4137567070500025e-04 2.0829917845636967e-03 0.0000000000000000e+00  1.4420625112485769e-04 2.1289482328933672e-03 0.0000000000000000e+00  1.4734260709528497e-04 2.1759136392151468e-03 0.0000000000000000e+00  1.5070102452039561e-04 2.2234665082106644e-03 0.0000000000000000e+00  1.5418365266195924e-04 2.2714609120407531e-03 0.0000000000000000e+00  1.5770392753381392e-04 2.3197263931415781e-03 0.0000000000000000e+00  1.6120900927579527e-04 2.3680749366570808e-03 0.0000000000000000e+00  1.6467734674078513e-04 2.4163299782008329e-03 0.0000000000000000e+00  1.6810668571912686e-04 2.4643324317777091e-03 0.0000000000000000e+00  1.7150308826072372e-04 2.5119388406566337e-03 0.0000000000000000e+00  1.7487158900954052e-04 2.5590195452298778e-03 0.0000000000000000e+00  1.0011822581752462e-04 1.8058821805522934e-03 0.0000000000000000e+00  9.9290523463925804e-05 1.7690236793047875e-03 0.0000000000000000e+00  1.0047525316158958e-04 1.8399957260327518e-03 0.0000000000000000e+00  1.0073751569477648e-04 1.8724462328281704e-03 0.0000000000000000e+00  1.0075326735165534e-04 1.9106989455065927e-03 0.0000000000000000e+00  1.0154395081201906e-04 1.9469997704144825e-03 0.0000000000000000e+00  1.0292244540672663e-04 1.9847313371352607e-03 0.0000000000000000e+00  1.0510914343990553e-04 2.0258966008424237e-03 0.0000000000000000e+00  1.0812933129496113e-04 2.0684656349574579e-03 0.0000000000000000e+00  1.1163955671625374e-04 2.1132469618653288e-03 0.0000000000000000e+00  1.1546953070218828e-04 2.1593676206189479e-03 0.0000000000000000e+00  1.1962817696147755e-04 2.2062838913153907e-03 0.0000000000000000e+00  1.2397245033698913e-04 2.2540249078134523e-03 0.0000000000000000e+00  1.2833759039385307e-04 2.3023640369698008e-03 0.0000000000000000e+00  1.3262413788022237e-04 2.3510178479680182e-03 0.0000000000000000e+00  1.3678880392980656e-04 2.3997363567370565e-03 0.0000000000000000e+00  1.4082177462557244e-04 2.4483132615630847e-03 0.0000000000000000e+00  1.4472836854190170e-04 2.4965794300369957e-03 0.0000000000000000e+00  1.4851265795147049e-04 2.5443991850675404e-03 0.0000000000000000e+00  6.8535712483977436e-05 1.8070216113286975e-03 0.0000000000000000e+00  6.6723921050607167e-05 1.7647130892167525e-03 0.0000000000000000e+00  6.8660048632672837e-05 1.8400026444700254e-03 0.0000000000000000e+00  6.8927181802219789e-05 1.8719944315763882e-03 0.0000000000000000e+00  6.9114812585242599e-05 1.9021250957153744e-03 0.0000000000000000e+00  6.9493067023867637e-05 1.9384865222942952e-03 0.0000000000000000e+00  7.0943677997699001e-05 1.9729797058424398e-03 0.0000000000000000e+00  7.2924128751150930e-05 2.0126852994378163e-03 0.0000000000000000e+00  7.6182559141011862e-05 2.0529070873760275e-03 0.0000000000000000e+00  8.0005526196730655e-05 2.0967536290514496e-03 0.0000000000000000e+00  8.4156042753745014e-05 2.1421478185832746e-03 0.0000000000000000e+00  8.8821240831313559e-05 2.1883527845562621e-03 0.0000000000000000e+00  9.3758572042363666e-05 2.2359016440411028e-03 0.0000000000000000e+00  9.8703143625600311e-05 2.2844335257391087e-03 0.0000000000000000e+00  1.0351887537104863e-04 2.3335199072967868e-03 0.0000000000000000e+00  1.0815066097790822e-04 2.3828226694051027e-03 0.0000000000000000e+00  1.1258545684689344e-04 2.4320843265716401e-03 0.0000000000000000e+00  1.1682962368338304e-04 2.4811096831893436e-03 0.0000000000000000e+00  1.2088638973343649e-04 2.5297633671692837e-03 0.0000000000000000e+00  1.2474039630411510e-04 2.5779459801208082e-03 0.0000000000000000e+00  3.7101226146121539e-05 1.8018273537880288e-03 0.0000000000000000e+00  3.6410622034198596e-05 1.7614826316018548e-03 0.0000000000000000e+00  3.7820094043089709e-05 1.8401469084667445e-03 0.0000000000000000e+00  3.8745305236068689e-05 1.8720355629055216e-03 0.0000000000000000e+00  3.9497555239708884e-05 1.9022033017163482e-03 0.0000000000000000e+00  4.0041557811297971e-05 1.9310606023969369e-03 0.0000000000000000e+00  4.0561675199107529e-05 1.9596436156630887e-03 0.0000000000000000e+00  4.1896194377850052e-05 1.9993853301852440e-03 0.0000000000000000e+00  4.5100585826283844e-05 2.0360338821765740e-03 0.0000000000000000e+00  4.8920743797024961e-05 2.0796511973780103e-03 0.0000000000000000e+00  5.3001503391139140e-05 2.1244378537091410e-03 0.0000000000000000e+00  5.7983475891050217e-05 2.1696490452261822e-03 0.0000000000000000e+00  6.3351880966910855e-05 2.2171143750870739e-03 0.0000000000000000e+00  6.8683936298193524e-05 2.2660090204910553e-03 0.0000000000000000e+00  7.3829444074802010e-05 2.3156778193563518e-03 0.0000000000000000e+00  7.8738154729841750e-05 2.3656895283061139e-03 0.0000000000000000e+00  8.3401880424232539e-05 2.4157379807598339e-03 0.0000000000000000e+00  8.7834432410892791e-05 2.4656030164869856e-03 0.0000000000000000e+00  9.2041449125907982e-05 2.5151611520391904e-03 0.0000000000000000e+00  9.6001573077187069e-05 2.5643421466462033e-03 0.0000000000000000e+00  8.2577620214225053e-06 1.7976602031048745e-03 0.0000000000000000e+00  7.9287567397532030e-06 1.7589207930081225e-03 0.0000000000000000e+00  9.0939278310982975e-06 1.8352700046446054e-03 0.0000000000000000e+00  1.0212511827407166e-05 1.8721274116808768e-03 0.0000000000000000e+00  1.1302584412525249e-05 1.9022462462044813e-03 0.0000000000000000e+00  1.1972996586573399e-05 1.9310475564496253e-03 0.0000000000000000e+00  1.2525680271387565e-05 1.9595703507438874e-03 0.0000000000000000e+00  1.3410883309340160e-05 1.9883141787467675e-03 0.0000000000000000e+00  1.3760040061083627e-05 2.0167141385545049e-03 0.0000000000000000e+00  1.7845515520492400e-05 2.0622947665602303e-03 0.0000000000000000e+00  2.1497881059562751e-05 2.1065104677045572e-03 0.0000000000000000e+00  2.6766343415715042e-05 2.1499436514255269e-03 0.0000000000000000e+00  3.2513264545875615e-05 2.1976092540122532e-03 0.0000000000000000e+00  3.8101731846513783e-05 2.2471290993422758e-03 0.0000000000000000e+00  4.3430701524012596e-05 2.2975633989775770e-03 0.0000000000000000e+00  4.8473039990031992e-05 2.3484195396574641e-03 0.0000000000000000e+00  5.3230488825148359e-05 2.3993538546251032e-03 0.0000000000000000e+00  5.7733164789485799e-05 2.4501200411788078e-03 0.0000000000000000e+00  6.1993083669595613e-05 2.5006274515452153e-03 0.0000000000000000e+00  6.5981999437182256e-05 2.5508549725804719e-03 0.0000000000000000e+00  -1.9462976823511297e-05 1.7940837424234336e-03 0.0000000000000000e+00  -1.9476180536706930e-05 1.7567999146314850e-03 0.0000000000000000e+00  -1.8878190338683685e-05 1.8306388508624075e-03 0.0000000000000000e+00  -1.7844874001145630e-05 1.8665960710119299e-03 0.0000000000000000e+00  -1.6100134680044886e-05 1.9025541784608835e-03 0.0000000000000000e+00  -1.5742289477634445e-05 1.9310298389609280e-03 0.0000000000000000e+00  -1.5018954019732639e-05 1.9596132633553777e-03 0.0000000000000000e+00  -1.4272523342384882e-05 1.9882604832294230e-03 0.0000000000000000e+00  -1.3498580676591028e-05 2.0170510228210937e-03 0.0000000000000000e+00  -1.2893747450909223e-05 2.0457398892650531e-03 0.0000000000000000e+00  -1.0509171653494071e-05 2.0889707420697185e-03 0.0000000000000000e+00  -5.1727560550190246e-06 2.1285746089722418e-03 0.0000000000000000e+00  9.4597432070437740e-07 2.1772876931638011e-03 0.0000000000000000e+00  6.7054597237760331e-06 2.2278157675463595e-03 0.0000000000000000e+00  1.2140761655739361e-05 2.2792252136416757e-03 0.0000000000000000e+00  1.7238022594828047e-05 2.3310755543791526e-03 0.0000000000000000e+00  2.2003001729109907e-05 2.3829984622293163e-03 0.0000000000000000e+00  2.6497167183968679e-05 2.4347065253966281e-03 0.0000000000000000e+00  3.0742886692182722e-05 2.4861826061672553e-03 0.0000000000000000e+00  3.4698458023722776e-05 2.5374833874406487e-03 0.0000000000000000e+00  -4.6342330362435160e-05 1.7909747308184204e-03 0.0000000000000000e+00  -4.6047808808902741e-05 1.7550289796827065e-03 0.0000000000000000e+00  -4.6094740524078604e-05 1.8264109561753436e-03 0.0000000000000000e+00  -4.5404640244887713e-05 1.8613074450722915e-03 0.0000000000000000e+00  -4.4299156630943042e-05 1.8955103514095716e-03 0.0000000000000000e+00  -4.3139790981647458e-05 1.9268002183097399e-03 0.0000000000000000e+00  -4.2604577250688405e-05 1.9596985979284803e-03 0.0000000000000000e+00  -4.2068130130074066e-05 1.9882220044320251e-03 0.0000000000000000e+00  -4.1330331896463477e-05 2.0170087941658844e-03 0.0000000000000000e+00  -4.0577973445922721e-05 2.0458160905233681e-03 0.0000000000000000e+00  -3.9803076445176278e-05 2.0747410339616561e-03 0.0000000000000000e+00  -3.9380934985983384e-05 2.1036643832836894e-03 0.0000000000000000e+00  -3.2030806779561137e-05 2.1560995797958878e-03 0.0000000000000000e+00  -2.5904297411912827e-05 2.2080778260451829e-03 0.0000000000000000e+00  -2.0269884477550962e-05 2.2606745610744420e-03 0.0000000000000000e+00  -1.5093619330924855e-05 2.3136946521863304e-03 0.0000000000000000e+00  -1.0347253888815683e-05 2.3667267321902680e-03 0.0000000000000000e+00  -5.8916880486108511e-06 2.4193891980218993e-03 0.0000000000000000e+00  -1.6884540639196369e-06 2.4718285879766003e-03 0.0000000000000000e+00  2.1886943248833119e-06 2.5242206560752421e-03 0.0000000000000000e+00  -7.2433824730581180e-05 1.7882633403262123e-03 0.0000000000000000e+00  -7.1824896371063118e-05 1.7535624898605371e-03 0.0000000000000000e+00  -7.2546103945351465e-05 1.8226060498305978e-03 0.0000000000000000e+00  -7.2231325519117067e-05 1.8565146529222710e-03 0.0000000000000000e+00  -7.1555960808285555e-05 1.8897858884782432e-03 0.0000000000000000e+00  -7.0730160292752171e-05 1.9217264364372007e-03 0.0000000000000000e+00  -7.0114535705104015e-05 1.9538968527181696e-03 0.0000000000000000e+00  -6.9453793832361689e-05 1.9845083534290701e-03 0.0000000000000000e+00  -6.9214161657855550e-05 2.0169650528247215e-03 0.0000000000000000e+00  -6.8402200661078045e-05 2.0458631689644637e-03 0.0000000000000000e+00  -6.7877187935899591e-05 2.0747058149975387e-03 0.0000000000000000e+00  -6.7226574050362702e-05 2.1039340449321162e-03 0.0000000000000000e+00  -6.6439778607859385e-05 2.1344972162919179e-03 0.0000000000000000e+00  -5.9845211156705220e-05 2.1878960996864123e-03 0.0000000000000000e+00  -5.3883342100945505e-05 2.2418651374824269e-03 0.0000000000000000e+00  -4.8564977485813169e-05 2.2962892317957037e-03 0.0000000000000000e+00  -4.3836703509191872e-05 2.3505941348038423e-03 0.0000000000000000e+00  -3.9401669567312759e-05 2.4041674644058107e-03 0.0000000000000000e+00  -3.5218111335798525e-05 2.4575377350317643e-03 0.0000000000000000e+00  -3.1438700284200134e-05 2.5110527573594900e-03 0.0000000000000000e+00  -2.8271845616835002e-05 2.5648858234872916e-03 0.0000000000000000e+00  -9.7751779985749647e-05 1.7859273929716952e-03 0.0000000000000000e+00  -9.8304987013938218e-05 1.8192356408424455e-03 0.0000000000000000e+00  -9.8484528427412343e-05 1.8522504892500042e-03 0.0000000000000000e+00  -9.8362084323529121e-05 1.8848428577219174e-03 0.0000000000000000e+00  -9.8083447352125859e-05 1.9168085483825940e-03 0.0000000000000000e+00  -9.7832662435629362e-05 1.9487291487264359e-03 0.0000000000000000e+00  -9.7558226387631870e-05 1.9801396411014394e-03 0.0000000000000000e+00  -9.7365291114214156e-05 2.0125037272033831e-03 0.0000000000000000e+00  -9.6523384612109790e-05 2.0460555367893428e-03 0.0000000000000000e+00  -9.6334735508207321e-05 2.0746914042476519e-03 0.0000000000000000e+00  -9.5888170150431478e-05 2.1040038006982266e-03 0.0000000000000000e+00  -9.5219959059376184e-05 2.1348515390493808e-03 0.0000000000000000e+00  -9.4740597665983291e-05 2.1673154620428909e-03 0.0000000000000000e+00  -8.8636966204292691e-05 2.2227366937817078e-03 0.0000000000000000e+00  -8.3157441590153797e-05 2.2788795639227515e-03 0.0000000000000000e+00  -7.8437462901382788e-05 2.3346904533080724e-03 0.0000000000000000e+00  -7.3923280133365252e-05 2.3889905502686173e-03 0.0000000000000000e+00  -6.9646432947698854e-05 2.4432232817832205e-03 0.0000000000000000e+00  -6.5924104348218218e-05 2.4979311137742180e-03 0.0000000000000000e+00  -6.3120661779365308e-05 2.5533566044230282e-03 0.0000000000000000e+00  -1.2335334706249404e-04 1.8163291217020839e-03 0.0000000000000000e+00  -1.2223723620164459e-04 1.7839829178656857e-03 0.0000000000000000e+00  -1.2417678779104473e-04 1.8485351270499685e-03 0.0000000000000000e+00  -1.2476681184450314e-04 1.8805448094611806e-03 0.0000000000000000e+00  -1.2522125526514687e-04 1.9123145962149707e-03 0.0000000000000000e+00  -1.2564138719423792e-04 1.9440793427511446e-03 0.0000000000000000e+00  -1.2602770360856848e-04 1.9757583813665748e-03 0.0000000000000000e+00  -1.2638024544682787e-04 2.0079353322425210e-03 0.0000000000000000e+00  -1.2637957980429380e-04 2.0404735927623710e-03 0.0000000000000000e+00  -1.2617871387818561e-04 2.0715514601554351e-03 0.0000000000000000e+00  -1.2614753079577537e-04 2.1038420360512426e-03 0.0000000000000000e+00  -1.2593021787168156e-04 2.1349109129162052e-03 0.0000000000000000e+00  -1.2557720084889322e-04 2.1678511101167050e-03 0.0000000000000000e+00  -1.2515648610754567e-04 2.2031102570353170e-03 0.0000000000000000e+00  -1.1906746614734775e-04 2.2614581134764054e-03 0.0000000000000000e+00  -1.1413610842936483e-04 2.3191705375595114e-03 0.0000000000000000e+00  -1.0922227272578592e-04 2.3736855348002288e-03 0.0000000000000000e+00  -1.0457419003294066e-04 2.4286879678423199e-03 0.0000000000000000e+00  -1.0076955527059010e-04 2.4847145082398004e-03 0.0000000000000000e+00  -9.8355311051173916e-05 2.5420945976457943e-03 0.0000000000000000e+00  -1.4759066473449522e-04 1.8139344395347097e-03 0.0000000000000000e+00  -1.4575792186438392e-04 1.7824730448077644e-03 0.0000000000000000e+00  -1.4923468354395480e-04 1.8454045219737846e-03 0.0000000000000000e+00  -1.5072464943006032e-04 1.8768813088864780e-03 0.0000000000000000e+00  -1.5211462432733260e-04 1.9083761087531086e-03 0.0000000000000000e+00  -1.5345259704879251e-04 1.9399885263433007e-03 0.0000000000000000e+00  -1.5474743954732684e-04 1.9717233078667493e-03 0.0000000000000000e+00  -1.5597739340580553e-04 2.0037791916350887e-03 0.0000000000000000e+00  -1.5702755142430066e-04 2.0360144614184022e-03 0.0000000000000000e+00  -1.5784868040061553e-04 2.0682892829835871e-03 0.0000000000000000e+00  -1.5869783692562631e-04 2.1004763796600924e-03 0.0000000000000000e+00  -1.5830440505297367e-04 2.1345323183121919e-03 0.0000000000000000e+00  -1.5809667423227319e-04 2.1685015251496601e-03 0.0000000000000000e+00  -1.5751042476638109e-04 2.2045247875172773e-03 0.0000000000000000e+00  -1.5651680285110292e-04 2.2437485227170227e-03 0.0000000000000000e+00  -1.5069006269175533e-04 2.3043055925603948e-03 0.0000000000000000e+00  -1.4469058770798568e-04 2.3578264613913907e-03 0.0000000000000000e+00  -1.3928571682373251e-04 2.4135893744077087e-03 0.0000000000000000e+00  -1.3521383333150682e-04 2.4711891887247974e-03 0.0000000000000000e+00  -1.3333719434572799e-04 2.5310682018344025e-03 0.0000000000000000e+00  -1.7084754868459262e-04 1.8121248791852554e-03 0.0000000000000000e+00  -1.7352822786179906e-04 1.8429279849122909e-03 0.0000000000000000e+00  -1.7615444624486705e-04 1.8739099115561361e-03 0.0000000000000000e+00  -1.7872620029491193e-04 1.9051068593867032e-03 0.0000000000000000e+00  -1.8124342711021513e-04 1.9365550513936608e-03 0.0000000000000000e+00  -1.8370456999349899e-04 1.9682909545798125e-03 0.0000000000000000e+00  -1.8614928200695748e-04 2.0003313293673816e-03 0.0000000000000000e+00  -1.8861598546619988e-04 2.0327162102407818e-03 0.0000000000000000e+00  -1.9188749869084279e-04 2.0655384653531610e-03 0.0000000000000000e+00  -1.9315005072231825e-04 2.0989795497474845e-03 0.0000000000000000e+00  -1.9338882342363287e-04 2.1337147604314848e-03 0.0000000000000000e+00  -1.9329978304909331e-04 2.1686129076691585e-03 0.0000000000000000e+00  -1.9304884698641915e-04 2.2051390742022750e-03 0.0000000000000000e+00  -1.9204661912463445e-04 2.2447508657442504e-03 0.0000000000000000e+00  -1.8806026665007435e-04 2.2901034628743737e-03 0.0000000000000000e+00  -1.7778097954203195e-04 2.3410708613890202e-03 0.0000000000000000e+00  -1.7306759020909227e-04 2.3972569033078039e-03 0.0000000000000000e+00  -1.6794080033138932e-04 2.4572118902637715e-03 0.0000000000000000e+00  -1.6730037412586367e-04 2.5204626051937543e-03 0.0000000000000000e+00  -1.6978753315047989e-04 2.5851731389712443e-03 0.0000000000000000e+00  -2.0477547462705617e-04 1.8438743038573188e-03 0.0000000000000000e+00  -2.0191434347398103e-04 1.8130772024858317e-03 0.0000000000000000e+00  -2.0761866887324235e-04 1.8748502349678667e-03 0.0000000000000000e+00  -2.1044392667677117e-04 1.9060411967128901e-03 0.0000000000000000e+00  