<?xml version="1.0"?>
<VTKFile type="UnstructuredGrid"  version="0.1"  >
<UnstructuredGrid>
<Piece  NumberOfPoints="330" NumberOfCells="589">
<Points>
<DataArray  type="Float64"  NumberOfComponents="3"  format="ascii">2.973913043478261 0 0  3.006956521739131 0 0  3.006956521739131 0.03333333333333333 0  2.973913043478261 0.03333333333333333 0  3.04 0 0  3.04 0.03333333333333333 0  3.073043478260869 0 0  3.073043478260869 0.03333333333333333 0  3.106086956521739 0 0  3.106086956521739 0.03333333333333333 0  3.139130434782609 0 0  3.139130434782609 0.03333333333333333 0  3.172173913043478 0 0  3.172173913043478 0.03333333333333333 0  3.205217391304347 0 0  3.205217391304347 0.03333333333333333 0  3.238260869565217 0 0  3.238260869565217 0.03333333333333333 0  3.271304347826087 0 0  3.271304347826087 0.03333333333333333 0  3.304347826086957 0 0  3.304347826086957 0.03333333333333333 0  3.337391304347826 0 0  3.337391304347826 0.03333333333333333 0  3.370434782608696 0 0  3.370434782608696 0.03333333333333333 0  3.403478260869565 0 0  3.403478260869565 0.03333333333333333 0  3.436521739130435 0 0  3.436521739130435 0.03333333333333333 0  3.469565217391304 0 0  3.469565217391304 0.03333333333333333 0  3.502608695652174 0 0  3.502608695652174 0.03333333333333333 0  3.535652173913043 0 0  3.535652173913043 0.03333333333333333 0  3.568695652173913 0 0  3.568695652173913 0.03333333333333333 0  3.601739130434782 0 0  3.601739130434782 0.03333333333333333 0  3.634782608695652 0 0  3.634782608695652 0.03333333333333333 0  3.667826086956521 0 0  3.667826086956521 0.03333333333333333 0  3.700869565217391 0 0  3.700869565217391 0.03333333333333333 0  3.733913043478261 0 0  3.733913043478261 0.03333333333333333 0  3.766956521739131 0 0  3.766956521739131 0.03333333333333333 0  3.8 0 0  3.8 0.03333333333333333 0  3.006956521739131 0.06666666666666667 0  3.04 0.06666666666666667 0  3.073043478260869 0.06666666666666667 0  3.106086956521739 0.06666666666666667 0  3.139130434782609 0.06666666666666667 0  3.172173913043478 0.06666666666666667 0  3.205217391304347 0.06666666666666667 0  3.238260869565217 0.06666666666666667 0  3.271304347826087 0.06666666666666667 0  3.304347826086957 0.06666666666666667 0  3.337391304347826 0.06666666666666667 0  3.370434782608696 0.06666666666666667 0  3.403478260869565 0.06666666666666667 0  3.436521739130435 0.06666666666666667 0  3.469565217391304 0.06666666666666667 0  3.502608695652174 0.06666666666666667 0  3.535652173913043 0.06666666666666667 0  3.568695652173913 0.06666666666666667 0  3.601739130434782 0.06666666666666667 0  3.634782608695652 0.06666666666666667 0  3.667826086956521 0.06666666666666667 0  3.700869565217391 0.06666666666666667 0  3.733913043478261 0.06666666666666667 0  3.766956521739131 0.06666666666666667 0  3.8 0.06666666666666667 0  3.04 0.1 0  3.073043478260869 0.1 0  3.106086956521739 0.1 0  3.139130434782609 0.1 0  3.172173913043478 0.1 0  3.205217391304347 0.1 0  3.238260869565217 0.1 0  3.271304347826087 0.1 0  3.304347826086957 0.1 0  3.337391304347826 0.1 0  3.370434782608696 0.1 0  3.403478260869565 0.1 0  3.436521739130435 0.1 0  3.469565217391304 0.1 0  3.502608695652174 0.1 0  3.535652173913043 0.1 0  3.568695652173913 0.1 0  3.601739130434782 0.1 0  3.634782608695652 0.1 0  3.667826086956521 0.1 0  3.700869565217391 0.1 0  3.733913043478261 0.1 0  3.766956521739131 0.1 0  3.8 0.1 0  3.073043478260869 0.1333333333333333 0  3.106086956521739 0.1333333333333333 0  3.139130434782609 0.1333333333333333 0  3.172173913043478 0.1333333333333333 0  3.205217391304347 0.1333333333333333 0  3.238260869565217 0.1333333333333333 0  3.271304347826087 0.1333333333333333 0  3.304347826086957 0.1333333333333333 0  3.337391304347826 0.1333333333333333 0  3.370434782608696 0.1333333333333333 0  3.403478260869565 0.1333333333333333 0  3.436521739130435 0.1333333333333333 0  3.469565217391304 0.1333333333333333 0  3.502608695652174 0.1333333333333333 0  3.535652173913043 0.1333333333333333 0  3.568695652173913 0.1333333333333333 0  3.601739130434782 0.1333333333333333 0  3.634782608695652 0.1333333333333333 0  3.667826086956521 0.1333333333333333 0  3.700869565217391 0.1333333333333333 0  3.733913043478261 0.1333333333333333 0  3.766956521739131 0.1333333333333333 0  3.8 0.1333333333333333 0  3.106086956521739 0.1666666666666667 0  3.139130434782609 0.1666666666666667 0  3.172173913043478 0.1666666666666667 0  3.205217391304347 0.1666666666666667 0  3.238260869565217 0.1666666666666667 0  3.271304347826087 0.1666666666666667 0  3.304347826086957 0.1666666666666667 0  3.337391304347826 0.1666666666666667 0  3.370434782608696 0.1666666666666667 0  3.403478260869565 0.1666666666666667 0  3.436521739130435 0.1666666666666667 0  3.469565217391304 0.1666666666666667 0  3.502608695652174 0.1666666666666667 0  3.535652173913043 0.1666666666666667 0  3.568695652173913 0.1666666666666667 0  3.601739130434782 0.1666666666666667 0  3.634782608695652 0.1666666666666667 0  3.667826086956521 0.1666666666666667 0  3.700869565217391 0.1666666666666667 0  3.733913043478261 0.1666666666666667 0  3.766956521739131 0.1666666666666667 0  3.8 0.1666666666666667 0  3.139130434782609 0.2 0  3.106086956521739 0.2 0  3.172173913043478 0.2 0  3.205217391304347 0.2 0  3.238260869565217 0.2 0  3.271304347826087 0.2 0  3.304347826086957 0.2 0  3.337391304347826 0.2 0  3.370434782608696 0.2 0  3.403478260869565 0.2 0  3.436521739130435 0.2 0  3.469565217391304 0.2 0  3.502608695652174 0.2 0  3.535652173913043 0.2 0  3.568695652173913 0.2 0  3.601739130434782 0.2 0  3.634782608695652 0.2 0  3.667826086956521 0.2 0  3.700869565217391 0.2 0  3.733913043478261 0.2 0  3.766956521739131 0.2 0  3.8 0.2 0  3.139130434782609 0.2333333333333333 0  3.172173913043478 0.2333333333333333 0  3.205217391304347 0.2333333333333333 0  3.238260869565217 0.2333333333333333 0  3.271304347826087 0.2333333333333333 0  3.304347826086957 0.2333333333333333 0  3.337391304347826 0.2333333333333333 0  3.370434782608696 0.2333333333333333 0  3.403478260869565 0.2333333333333333 0  3.436521739130435 0.2333333333333333 0  3.469565217391304 0.2333333333333333 0  3.502608695652174 0.2333333333333333 0  3.535652173913043 0.2333333333333333 0  3.568695652173913 0.2333333333333333 0  3.601739130434782 0.2333333333333333 0  3.634782608695652 0.2333333333333333 0  3.667826086956521 0.2333333333333333 0  3.700869565217391 0.2333333333333333 0  3.733913043478261 0.2333333333333333 0  3.766956521739131 0.2333333333333333 0  3.8 0.2333333333333333 0  3.172173913043478 0.2666666666666667 0  3.205217391304347 0.2666666666666667 0  3.238260869565217 0.2666666666666667 0  3.271304347826087 0.2666666666666667 0  3.304347826086957 0.2666666666666667 0  3.337391304347826 0.2666666666666667 0  3.370434782608696 0.2666666666666667 0  3.403478260869565 0.2666666666666667 0  3.436521739130435 0.2666666666666667 0  3.469565217391304 0.2666666666666667 0  3.502608695652174 0.2666666666666667 0  3.535652173913043 0.2666666666666667 0  3.568695652173913 0.2666666666666667 0  3.601739130434782 0.2666666666666667 0  3.634782608695652 0.2666666666666667 0  3.667826086956521 0.2666666666666667 0  3.700869565217391 0.2666666666666667 0  3.733913043478261 0.2666666666666667 0  3.766956521739131 0.2666666666666667 0  3.8 0.2666666666666667 0  3.205217391304347 0.3 0  3.238260869565217 0.3 0  3.271304347826087 0.3 0  3.304347826086957 0.3 0  3.337391304347826 0.3 0  3.370434782608696 0.3 0  3.403478260869565 0.3 0  3.436521739130435 0.3 0  3.469565217391304 0.3 0  3.502608695652174 0.3 0  3.535652173913043 0.3 0  3.568695652173913 0.3 0  3.601739130434782 0.3 0  3.634782608695652 0.3 0  3.667826086956521 0.3 0  3.700869565217391 0.3 0  3.733913043478261 0.3 0  3.766956521739131 0.3 0  3.8 0.3 0  3.238260869565217 0.3333333333333333 0  3.271304347826087 0.3333333333333333 0  3.304347826086957 0.3333333333333333 0  3.337391304347826 0.3333333333333333 0  3.370434782608696 0.3333333333333333 0  3.403478260869565 0.3333333333333333 0  3.436521739130435 0.3333333333333333 0  3.469565217391304 0.3333333333333333 0  3.502608695652174 0.3333333333333333 0  3.535652173913043 0.3333333333333333 0  3.568695652173913 0.3333333333333333 0  3.601739130434782 0.3333333333333333 0  3.634782608695652 0.3333333333333333 0  3.667826086956521 0.3333333333333333 0  3.700869565217391 0.3333333333333333 0  3.733913043478261 0.3333333333333333 0  3.766956521739131 0.3333333333333333 0  3.8 0.3333333333333333 0  3.271304347826087 0.3666666666666666 0  3.238260869565217 0.3666666666666666 0  3.304347826086957 0.3666666666666666 0  3.337391304347826 0.3666666666666666 0  3.370434782608696 0.3666666666666666 0  3.403478260869565 0.3666666666666666 0  3.436521739130435 0.3666666666666666 0  3.469565217391304 0.3666666666666666 0  3.502608695652174 0.3666666666666666 0  3.535652173913043 0.3666666666666666 0  3.568695652173913 0.3666666666666666 0  3.601739130434782 0.3666666666666666 0  3.634782608695652 0.3666666666666666 0  3.667826086956521 0.3666666666666666 0  3.700869565217391 0.3666666666666666 0  3.733913043478261 0.3666666666666666 0  3.766956521739131 0.3666666666666666 0  3.8 0.3666666666666666 0  3.271304347826087 0.4 0  3.238260869565217 0.4 0  3.304347826086957 0.4 0  3.337391304347826 0.4 0  3.370434782608696 0.4 0  3.403478260869565 0.4 0  3.436521739130435 0.4 0  3.469565217391304 0.4 0  3.502608695652174 0.4 0  3.535652173913043 0.4 0  3.568695652173913 0.4 0  3.601739130434782 0.4 0  3.634782608695652 0.4 0  3.667826086956521 0.4 0  3.700869565217391 0.4 0  3.733913043478261 0.4 0  3.766956521739131 0.4 0  3.8 0.4 0  3.271304347826087 0.4333333333333333 0  3.304347826086957 0.4333333333333333 0  3.337391304347826 0.4333333333333333 0  3.370434782608696 0.4333333333333333 0  3.403478260869565 0.4333333333333333 0  3.436521739130435 0.4333333333333333 0  3.469565217391304 0.4333333333333333 0  3.502608695652174 0.4333333333333333 0  3.535652173913043 0.4333333333333333 0  3.5686956521
[...]
<CellData  Scalars="rho"> 
<DataArray  type="Float64"  Name="rho"  format="ascii">7.4363623855593042e-01   5.2889071198001825e-01   6.5332352207506417e-01   4.8619391340169388e-01   6.9333469838411410e-01   5.1692025204675252e-01   5.8699418806743220e-01   5.2341908143050908e-01   4.7363506250474630e-01   4.9794300358824994e-01   4.5077529794226656e-01   4.4528280646407287e-01   3.4478454374648104e-01   4.6709564434146467e-01   1.4620301349419754e-01   3.4351218452800991e-01   7.8910544238715880e-02   1.3613552595779685e-01   3.3708459911849009e-02   4.7787899431671527e-02   1.0711954094516724e-02   1.3482075344948332e-02   6.1293830322575026e-03   7.6144688317347220e-03   3.9320922092490763e-03   4.9421135853088809e-03   2.5189082347634797e-03   3.2613601436793697e-03   9.7487439371123866e-04   1.6761698754976762e-03   3.3903610421697953e-04   4.2754413739982906e-04   1.6267682003008892e-04   2.1049261591226661e-04   7.6759838781477219e-05   9.9578073311770731e-05   3.3199025430321428e-05   4.2890965641293575e-05   1.0843645087775123e-05   1.4384455030627952e-05   1.1668684980210592e-07   5.8725576473613698e-07   1.9971010093544466e-08   2.4655288142971876e-08   1.3579159867460276e-08   7.1633523721174611e-07   5.4782509050473509e-08   1.1844137743510608e-08   2.6024999634615463e-07   2.7429520249686442e-07   3.6234425234702927e-01   4.1691297508855241e-01   3.8034301280687760e-01   4.3164351039930426e-01   4.2694541691400889e-01   4.2110853128314329e-01   4.2504813793769963e-01   4.1258743916880380e-01   4.0580065376879654e-01   4.9157702445653112e-01   4.6068622150185451e-01   5.8385082167893509e-01   6.2056116606117828e-01   5.7623916421691812e-01   7.1427262894712074e-01   1.6599596733103225e-01   6.5635309371003614e-01   5.0077330349177801e-02   1.2650523777565562e-01   1.2870074609528447e-02   3.2542612568339208e-02   8.6095384387941433e-03   1.0314065513647988e-02   5.9944400026664367e-03   8.4642332064757530e-03   3.1746041469809397e-03   4.0012133142560864e-03   8.7049994456647772e-04   1.3668169101743997e-03   3.8488064398916710e-04   5.5546599354848957e-04   1.7920573226614105e-04   2.5124817138240922e-04   7.6873777298578470e-05   1.0378121892360474e-04   2.5249618039912310e-05   1.0479818213947365e-05   8.1549928868059460e-07   9.1943304173591193e-08   4.2792933960541351e-08   5.9087765660228858e-08   1.1704850498554706e-06   3.8922920507550081e-08   1.9333280282141465e-08   2.6355124764122196e-08   3.6334806953364581e-07   3.9270959723385160e-07   1.8082700577220217e-06   2.1401865120124383e-06   4.0823607380053800e-01   4.4059520341936032e-01   4.5680759311243285e-01   4.3905160765077961e-01   4.7160078750026557e-01   3.7966675435709429e-01   4.3062377723915418e-01   5.5225185538963373e-01   4.8295984228710526e-01   7.8412353693550829e-01   7.6357838957961088e-01   9.0674019973414155e-01   9.4003583486833886e-01   9.3143557943550070e-01   1.0000000000000000e+00   2.6844096853215366e-01   8.0709007997328497e-01   3.4299184975001451e-02   1.0620843952056190e-01   1.3758269337925245e-02   1.4788928107749962e-02   7.8236782980999169e-03   1.2734637355420561e-02   3.4282332076373510e-03   5.9855740495202989e-03   1.1902104216913662e-03   1.8470371091088935e-03   5.1095702301354217e-04   7.7459235831507482e-04   1.5644517916247049e-04   2.1530566497251436e-04   2.9518992286363015e-07   4.2369857579054001e-07   1.8362299245159511e-07   2.6267671406560340e-07   1.1819817714966091e-07   1.6906822947207240e-07   7.7890461085682395e-08   1.1166871209128885e-07   2.4876845856648234e-07   6.5157704462831251e-06   1.4667513678721570e-06   5.0883903100712694e-08   3.4783542956255774e-06   6.7645625592934959e-06   3.5007028981467958e-06   4.3362134736784744e-06   5.6143935950436308e-01   4.9114384152193008e-01   5.6008151185512689e-01   4.0682382613452112e-01   4.3697042769700745e-01   1.8502625730175187e-01   2.3022835253138535e-01   5.5633210335958760e-01   9.8387253983328385e-02   9.6150289540120581e-01   6.6910689509445331e-01   1.0000000000000000e+00   9.9995069848410256e-01   9.9764667357483705e-01   9.9999408169876025e-01   4.7771381069953223e-01   9.2818962854342169e-01   2.2609090961813665e-02   2.5383185051720997e-01   1.6419317720079912e-02   2.9331296841044786e-02   4.3098471637301461e-03   8.0910610272900609e-03   1.7060431588902737e-03   2.5826818887212284e-03   4.0126466570700940e-04   5.6362893141952196e-04   8.8501594886980197e-07   1.2856767108476708e-06   5.4585456256233317e-07   7.8829427317919936e-07   3.5126005275097482e-07   5.0592928032059553e-07   2.3296462702517143e-07   3.3610273531069970e-07   1.6655051185223803e-05   2.2694858453185448e-07   2.1090778562859969e-06   4.3004825224161148e-06   9.0471000340870590e-06   1.4635229828672777e-05   1.2676910042799619e-05   1.6662855771242997e-05   7.1947484347859535e-06   9.0652503184564422e-06   4.8470293249456625e-01   2.9740759821896506e-01   3.9238015379244118e-01   1.5454025204772497e-02   1.2346947484430583e-01   2.1632689259583272e-03   4.7293253211912988e-03   1.6817529946130169e-01   6.5857796078298081e-03   7.2219909377871383e-01   3.3488443628954939e-01   9.9998443382022639e-01   8.5335066738543652e-01   1.0000000000000000e+00   1.0000000000000000e+00   8.5004657475023648e-01   1.0000000000000000e+00   3.1030839644475654e-02   6.6572247779910132e-01   5.8102673481107304e-03   1.0922998497885139e-02   4.0695802248763118e-04   1.5096782342007040e-05   2.7216950929091002e-06   3.9542382318668413e-06   1.6544853236235596e-06   2.3913787447116365e-06   1.0575432018911358e-06   1.5230738498361568e-06   7.0430948494170843e-07   1.0134837591028361e-06   4.7934336171394276e-07   6.9288088533796305e-07   2.7893792694999056e-05   4.2813306429314064e-05   3.4732484538440836e-05   3.7225955961357766e-05   3.7707336461170790e-05   5.5881723631362489e-05   3.1765646625260422e-05   4.5728484708967753e-05   1.5524039964732010e-05   1.9672929129015788e-05   2.9952650229189853e-01   3.1047582970812465e-01   1.0207856113093244e-02   9.3955390220803597e-03   1.9417485581783029e-03   5.8707936464640967e-03   4.8285488915470061e-04   1.4141626683463447e-03   1.5660385482796175e-05   1.2307915881154847e-05   5.1711205620942191e-01   1.1498271469388049e-01   1.0000000000000000e+00   6.4448992920207959e-01   1.0000000000000000e+00   1.0000000000000000e+00   9.6392040375085697e-01   1.0000000000000000e+00   1.4200332703817324e-05   8.3955012148742092e-01   8.3220960826751643e-06   1.1595337648370872e-05   5.0147123255457401e-06   7.1792309106040526e-06   3.1793339369706299e-06   4.5701277649374232e-06   2.1128034327210314e-06   3.0321707153763026e-06   1.4541800957684369e-06   2.0879690449369985e-06   7.9129718200802752e-05   1.4752506993300396e-04   6.4263320823588878e-06   1.0129597695303537e-06   6.8609171849343898e-05   9.7301168116986853e-05   9.5609116042787588e-05   1.3901327010208361e-04   1.2173674797054073e-04   1.6490678877746290e-04   3.6995976461077815e-05   4.9850594688318377e-05   8.0598081569068902e-03   5.2506203245972945e-03   4.8329211978571070e-03   4.2505488938047791e-03   3.3181257225627083e-03   1.4281760305572412e-03   1.1139317374273803e-03   3.3660246044689957e-03   2.8716732553489151e-03   2.2271310971586879e-02   1.4562074901534139e-02   4.3360579152720929e-01   4.9585342216330666e-02   1.0000000000000000e+00   5.1220945294809739e-01   1.0000000000000000e+00   1.0000000000000000e+00   8.3551388777027413e-01   1.0000000000000000e+00   4.7906674723046389e-01   7.8556636197488205e-01   9.4258715669994280e-06   1.2792523409063545e-05   6.2874421492034951e-06   8.9786712340049489e-06   4.3350258257877931e-06   6.1995027789996999e-06   3.0739904100286609e-06   3.1008071706062573e-04   9.7063262083795437e-05   1.6421166674734881e-04   1.9292600334365351e-04   2.5876045385897283e-04   2.5997827321460579e-04   3.7339520251726175e-04   1.9017866065403627e-04   2.7353032173279244e-04   9.4791986245449953e-05   3.3720773560075572e-04   1.9160595154769220e-04   2.4675079228056955e-04   2.6232128744756861e-03   1.0992026645443133e-03   1.6688988297255750e-03   1.7876054967357598e-03   7.3510211964210412e-04   5.3491069526916367e-03   3.0908370205575495e-03   1.1754602968023487e-02   7.2710524968828205e-03   3.3288156816140772e-02   1.2637251829597936e-02   3.2927836920986508e-01   4.3170123864946557e-02   7.8114048617923426e-01   3.6609046005337925e-01   1.0000000000000000e+00   9.5597832289923157e-01   9.6175643245490838e-01   1.0000000000000000e+00   9.5789721682427698e-01   8.1196344868098169e-01   1.2558433416328632e-05   7.9523022316427294e-01   9.0757231944485322e-06   1.2743410075532296e-05   5.2807547523150805e-05   1.5101860338770942e-03   4.7258091817267787e-06   6.8775200936554203e-06   3.6647100051733286e-04   4.2823658038828422e-04   5.7655100216614510e-04   8.3624146028907448e-04   6.7701298212941409e-04   9.4073936483601557e-04   4.4376883441853561e-04   3.0005221935682874e-04   3.9215637794649328e-04   5.0150842862956371e-04   3.1964009382230002e-04   5.1981759991181814e-04   2.1499925571236307e-04   2.1171537539278625e-03   7.1532806633150430e-04   5.4240849743303499e-03   2.7282759361202018e-03   9.2540863177323299e-03   6.1707272227048745e-03   1.4697389297943956e-02   8.7975103991680490e-03   1.8402454039238286e-01   2.9465998641563212e-02   6.3314566951790996e-01   2.5903434257459262e-01   1.0000000000000000e+00   9.5292579116130849e-01   9.2556791059949273e-01   1.0000000000000000e+00   7.3431426635871577e-01   9.0803362905843410e-01   7.8893165785177510e-04   5.6577390986454790e-01   1.4417194443616906e-05   1.9738753626343574e-05   1.0400553486598353e-05   1.5130631158310467e-05   1.6913584971402524e-03   1.7688276867056805e-03   1.1871048169496076e-03   1.7155406260797397e-03   1.2792266099955075e-03   1.8732833949712429e-03   8.8824425763896285e-04   1.1802383311941677e-03   7.9738890482280577e-04   1.0104959762338354e-03   1.8396638366836423e-04   4.8523992155754782e-04   2.7972178743308361e-04   1.1140201167818913e-03   6.2643731076658269e-04   3.1091024718570390e-03   1.1110406487898298e-03   4.8743760835402456e-03   3.2214814156213750e-03   1.4036555328162666e-02   8.0013437830003774e-03   9.6784630083897094e-02   3.2735619944339954e-02   4.9416925249771221e-01   2.2197377229503185e-01   8.8654463371537084e-01   5.1119822607116949e-01   1.0000000000000000e+00   9.5892476767838952e-01   8.2460816693018291e-01   1.0000000000000000e+00   7.7394976168757279e-01   8.3872966483937283e-01   6.8854264232754958e-01   6.5609655252233312e-01   4.0555881269074409e-03   6.4445959224377780e-01   4.0118890374762645e-03   6.3367692241820643e-03   2.2399878521435343e-03   3.5041001817391949e-03   1.7489166291198871e-03   2.2710539264535414e-03   2.0187345119711277e-03   2.5434163798105733e-03   2.4025017047633946e-04   1.3551680130994382e-04   5.3395615017097302e-04   3.2835111740846826e-04   8.3187435932297255e-04   5.9084474830137094e-04   1.4220331480290077e-03   9.4056158403664188e-04   6.9343089338732011e-03   2.7577292410177544e-03   1.6063239974003905e-02   8.9410949785593326e-03   1.3713076834661198e-01   2.1332582190830656e-02   3.2154192189071984e-01   1.8019495489233014e-01   7.0912949063294806e-01   3.2873291718251929e-01   1.0000000000000000e+00   7.9559684710033896e-01   1.0000000000000000e+00   1.0000000000000000e+00   8.0497312087981121e-01   9.4121465451563358e-01   5.4016265419018361e-01   6.8176441642437235e-01   7.5789509328970245e-03   1.6796639700412655e-01   3.9426129371648655e-03   5.5295997906164079e-03   4.3180490632738549e-03   4.1970545022275325e-03   4.2313553579978423e-03   5.2885887427476380e-03   1.9819319879109506e-06   2.3543442480830525e-06   3.6788090383886980e-04   5.6631098510442208e-05   4.9752504370803965e-04   4.9455897421762430e-04   6.7285536369264022e-04   6.1797180652992806e-04   1.2729918967713599e-03   7.0671469107333592e-04   3.5642890424948111e-03   1.8176031555167060e-03   1.4649181091315603e-02   5.5375818661338224e-03   9.6367148367962938e-02   1.4382833269928568e-02   2.0059544590208106e-01   1.0638882181229670e-01   3.6615323906565139e-01   2.1383262318966581e-01   8.1683768618018826e-01   4.4680552428379250e-01   7.8709592524159810e-01   6.4769612598519655e-01   6.5919688697239553e-01   6.8416585867086099e-01   2.9486062661612794e-01   4.7484450928825844e-01   6.8035013846748449e-03   3.0051168076578105e-02   8.7220621872521713e-03   1.0692662494330428e-02   9.5104839729720902e-03   2.0647141278181503e-02   3.9849797499029008e-06   4.3488726277481765e-06   5.3589149895940857e-06   7.8651033403212296e-04   6.4974081475715042e-04   5.5512362119335167e-04   6.7242197872709100e-04   1.8552048748552403e-04   7.5817517871487294e-06   1.0725640259419073e-03   1.1042764115232484e-04   3.4114634332354883e-03   2.0176848158416139e-03   8.9173216199575460e-03   4.4612263597374356e-03   3.6015822240029347e-02   5.4842823177148111e-03   1.2116632130753149e-01   3.2309125506784629e-02   3.1035130853137816e-01   1.1592729710419941e-01   5.0301655186296190e-01   3.8100792637360836e-01   4.5251835673032953e-01   4.5760259448774782e-01   4.0453057686674082e-01   3.8693186294279502e-01   1.2688723954486875e-01   2.6571681147436627e-01   3.7385668607048811e-02   1.3412761887922423e-01   4.4882482215200567e-02   5.8592005552903573e-02   8.3906881954970419e-06   1.4111926238310744e-03   4.2284962327980358e-01   3.2648475832398774e-04   3.9006224763570990e-01   6.8266693012041774e-02   4.0312854391422775e-01   1.7687046193563191e-01   3.9037656918679420e-01   2.6078136460519780e-01   4.0941411543917322e-01   2.5235857687374885e-01   4.1061300485371710e-01   1.7834114371022436e-01   3.8235686090352849e-01   3.2553098110322878e-02   3.1268583431396602e-01   2.4350040437727719e-01   3.0961771475295480e-01   3.7016835399601411e-01   3.8924959507351764e-01   4.6058037016286590e-01   4.8571626583217936e-01   4.1093369214030823e-01   4.9789118720913039e-01   3.9259105329550503e-01   4.4863331373992005e-01   3.6972840033981169e-01   4.7504432122566170e-01   1.2384641159665905e-01   4.2946795734776022e-01   9.8996475856510802e-01   9.8520045799791711e-01   1.0000000000000000e+00   9.7960783670316487e-01   9.9110881400356177e-01   7.9667581078650884e-01   9.8564869200992777e-01   7.9790640371912713e-01   9.9383839820717701e-01   7.1340500839558985e-01   1.0000000000000000e+00   6.4911982757749387e-01   1.0000000000000000e+00   5.6312117921282479e-01   8.2950865654342398e-01   4.8936872255154196e-01   6.9513763994954669e-01   5.9355680867691252e-01   6.9556271800376335e-01   6.5136651350379815e-01   7.5289237616959137e-01   7.2917731443667688e-01   9.4554855874641874e-01   7.5643898440380897e-01   9.9717011753047502e-01   6.4008084964798417e-01   7.0188205418572880e-01   6.4267814949911783e-01   7.4789277709461888e-01   </DataArray> 
</CellData> 
</Piece>
</UnstructuredGrid>
</VTKFile>