<?xml version="1.0"?>
<VTKFile type="UnstructuredGrid"  version="0.1"  >
<UnstructuredGrid>
<Piece  NumberOfPoints="319" NumberOfCells="567">
<Points>
<DataArray  type="Float64"  NumberOfComponents="3"  format="ascii">1.850434782608696 0 0  1.883478260869565 0 0  1.883478260869565 0.03333333333333333 0  1.916521739130435 0 0  1.916521739130435 0.03333333333333333 0  1.949565217391304 0 0  1.949565217391304 0.03333333333333333 0  1.982608695652174 0 0  1.982608695652174 0.03333333333333333 0  2.015652173913043 0 0  2.015652173913043 0.03333333333333333 0  2.048695652173913 0 0  2.048695652173913 0.03333333333333333 0  2.081739130434782 0 0  2.081739130434782 0.03333333333333333 0  2.114782608695652 0 0  2.114782608695652 0.03333333333333333 0  2.147826086956522 0 0  2.147826086956522 0.03333333333333333 0  2.180869565217391 0 0  2.180869565217391 0.03333333333333333 0  2.213913043478261 0 0  2.213913043478261 0.03333333333333333 0  2.24695652173913 0 0  2.24695652173913 0.03333333333333333 0  2.28 0 0  2.28 0.03333333333333333 0  2.31304347826087 0 0  2.31304347826087 0.03333333333333333 0  2.346086956521739 0 0  2.346086956521739 0.03333333333333333 0  2.379130434782609 0 0  2.379130434782609 0.03333333333333333 0  2.412173913043478 0 0  2.412173913043478 0.03333333333333333 0  2.445217391304348 0 0  2.445217391304348 0.03333333333333333 0  2.478260869565217 0 0  2.478260869565217 0.03333333333333333 0  1.916521739130435 0.06666666666666667 0  1.883478260869565 0.06666666666666667 0  1.949565217391304 0.06666666666666667 0  1.982608695652174 0.06666666666666667 0  2.015652173913043 0.06666666666666667 0  2.048695652173913 0.06666666666666667 0  2.081739130434782 0.06666666666666667 0  2.114782608695652 0.06666666666666667 0  2.147826086956522 0.06666666666666667 0  2.180869565217391 0.06666666666666667 0  2.213913043478261 0.06666666666666667 0  2.24695652173913 0.06666666666666667 0  2.28 0.06666666666666667 0  2.31304347826087 0.06666666666666667 0  2.346086956521739 0.06666666666666667 0  2.379130434782609 0.06666666666666667 0  2.412173913043478 0.06666666666666667 0  2.445217391304348 0.06666666666666667 0  2.478260869565217 0.06666666666666667 0  1.916521739130435 0.1 0  1.883478260869565 0.1 0  1.949565217391304 0.1 0  1.982608695652174 0.1 0  2.015652173913043 0.1 0  2.048695652173913 0.1 0  2.081739130434782 0.1 0  2.114782608695652 0.1 0  2.147826086956522 0.1 0  2.180869565217391 0.1 0  2.213913043478261 0.1 0  2.24695652173913 0.1 0  2.28 0.1 0  2.31304347826087 0.1 0  2.346086956521739 0.1 0  2.379130434782609 0.1 0  2.412173913043478 0.1 0  2.445217391304348 0.1 0  2.478260869565217 0.1 0  1.916521739130435 0.1333333333333333 0  1.883478260869565 0.1333333333333333 0  1.949565217391304 0.1333333333333333 0  1.982608695652174 0.1333333333333333 0  2.015652173913043 0.1333333333333333 0  2.048695652173913 0.1333333333333333 0  2.081739130434782 0.1333333333333333 0  2.114782608695652 0.1333333333333333 0  2.147826086956522 0.1333333333333333 0  2.180869565217391 0.1333333333333333 0  2.213913043478261 0.1333333333333333 0  2.24695652173913 0.1333333333333333 0  2.28 0.1333333333333333 0  2.31304347826087 0.1333333333333333 0  2.346086956521739 0.1333333333333333 0  2.379130434782609 0.1333333333333333 0  2.412173913043478 0.1333333333333333 0  2.445217391304348 0.1333333333333333 0  2.478260869565217 0.1333333333333333 0  2.511304347826087 0.1333333333333333 0  1.916521739130435 0.1666666666666667 0  1.883478260869565 0.1666666666666667 0  1.949565217391304 0.1666666666666667 0  1.982608695652174 0.1666666666666667 0  2.015652173913043 0.1666666666666667 0  2.048695652173913 0.1666666666666667 0  2.081739130434782 0.1666666666666667 0  2.114782608695652 0.1666666666666667 0  2.147826086956522 0.1666666666666667 0  2.180869565217391 0.1666666666666667 0  2.213913043478261 0.1666666666666667 0  2.24695652173913 0.1666666666666667 0  2.28 0.1666666666666667 0  2.31304347826087 0.1666666666666667 0  2.346086956521739 0.1666666666666667 0  2.379130434782609 0.1666666666666667 0  2.412173913043478 0.1666666666666667 0  2.445217391304348 0.1666666666666667 0  2.478260869565217 0.1666666666666667 0  2.511304347826087 0.1666666666666667 0  1.916521739130435 0.2 0  1.883478260869565 0.2 0  1.949565217391304 0.2 0  1.982608695652174 0.2 0  2.015652173913043 0.2 0  2.048695652173913 0.2 0  2.081739130434782 0.2 0  2.114782608695652 0.2 0  2.147826086956522 0.2 0  2.180869565217391 0.2 0  2.213913043478261 0.2 0  2.24695652173913 0.2 0  2.28 0.2 0  2.31304347826087 0.2 0  2.346086956521739 0.2 0  2.379130434782609 0.2 0  2.412173913043478 0.2 0  2.445217391304348 0.2 0  2.478260869565217 0.2 0  2.511304347826087 0.2 0  1.916521739130435 0.2333333333333333 0  1.883478260869565 0.2333333333333333 0  1.949565217391304 0.2333333333333333 0  1.982608695652174 0.2333333333333333 0  2.015652173913043 0.2333333333333333 0  2.048695652173913 0.2333333333333333 0  2.081739130434782 0.2333333333333333 0  2.114782608695652 0.2333333333333333 0  2.147826086956522 0.2333333333333333 0  2.180869565217391 0.2333333333333333 0  2.213913043478261 0.2333333333333333 0  2.24695652173913 0.2333333333333333 0  2.28 0.2333333333333333 0  2.31304347826087 0.2333333333333333 0  2.346086956521739 0.2333333333333333 0  2.379130434782609 0.2333333333333333 0  2.412173913043478 0.2333333333333333 0  2.445217391304348 0.2333333333333333 0  2.478260869565217 0.2333333333333333 0  2.511304347826087 0.2333333333333333 0  1.916521739130435 0.2666666666666667 0  1.883478260869565 0.2666666666666667 0  1.949565217391304 0.2666666666666667 0  1.982608695652174 0.2666666666666667 0  2.015652173913043 0.2666666666666667 0  2.048695652173913 0.2666666666666667 0  2.081739130434782 0.2666666666666667 0  2.114782608695652 0.2666666666666667 0  2.147826086956522 0.2666666666666667 0  2.180869565217391 0.2666666666666667 0  2.213913043478261 0.2666666666666667 0  2.24695652173913 0.2666666666666667 0  2.28 0.2666666666666667 0  2.31304347826087 0.2666666666666667 0  2.346086956521739 0.2666666666666667 0  2.379130434782609 0.2666666666666667 0  2.412173913043478 0.2666666666666667 0  2.445217391304348 0.2666666666666667 0  2.478260869565217 0.2666666666666667 0  2.511304347826087 0.2666666666666667 0  1.916521739130435 0.3 0  1.883478260869565 0.3 0  1.949565217391304 0.3 0  1.982608695652174 0.3 0  2.015652173913043 0.3 0  2.048695652173913 0.3 0  2.081739130434782 0.3 0  2.114782608695652 0.3 0  2.147826086956522 0.3 0  2.180869565217391 0.3 0  2.213913043478261 0.3 0  2.24695652173913 0.3 0  2.28 0.3 0  2.31304347826087 0.3 0  2.346086956521739 0.3 0  2.379130434782609 0.3 0  2.412173913043478 0.3 0  2.445217391304348 0.3 0  2.478260869565217 0.3 0  2.511304347826087 0.3 0  2.544347826086956 0.3 0  1.916521739130435 0.3333333333333333 0  1.949565217391304 0.3333333333333333 0  1.982608695652174 0.3333333333333333 0  2.015652173913043 0.3333333333333333 0  2.048695652173913 0.3333333333333333 0  2.081739130434782 0.3333333333333333 0  2.114782608695652 0.3333333333333333 0  2.147826086956522 0.3333333333333333 0  2.180869565217391 0.3333333333333333 0  2.213913043478261 0.3333333333333333 0  2.24695652173913 0.3333333333333333 0  2.28 0.3333333333333333 0  2.31304347826087 0.3333333333333333 0  2.346086956521739 0.3333333333333333 0  2.379130434782609 0.3333333333333333 0  2.412173913043478 0.3333333333333333 0  2.445217391304348 0.3333333333333333 0  2.478260869565217 0.3333333333333333 0  2.511304347826087 0.3333333333333333 0  2.544347826086956 0.3333333333333333 0  1.949565217391304 0.3666666666666666 0  1.916521739130435 0.3666666666666666 0  1.982608695652174 0.3666666666666666 0  2.015652173913043 0.3666666666666666 0  2.048695652173913 0.3666666666666666 0  2.081739130434782 0.3666666666666666 0  2.114782608695652 0.3666666666666666 0  2.147826086956522 0.3666666666666666 0  2.180869565217391 0.3666666666666666 0  2.213913043478261 0.3666666666666666 0  2.24695652173913 0.3666666666666666 0  2.28 0.3666666666666666 0  2.31304347826087 0.3666666666666666 0  2.346086956521739 0.3666666666666666 0  2.379130434782609 0.3666666666666666 0  2.412173913043478 0.3666666666666666 0  2.445217391304348 0.3666666666666666 0  2.478260869565217 0.3666666666666666 0  2.511304347826087 0.3666666666666666 0  2.544347826086956 0.3666666666666666 0  1.949565217391304 0.4 0  1.916521739130435 0.4 0  1.982608695652174 0.4 0  2.015652173913043 0.4 0  2.048695652173913 0.4 0  2.081739130434782 0.4 0  2.114782608695652 0.4 0  2.147826086956522 0.4 0  2.180869565217391 0.4 0  2.213913043478261 0.4 0  2.24695652173913 0.4 0  2.28 0.4 0  2.31304347826087 0.4 0  2.346086956521739 0.4 0  2.379130434782609 0.4 0  2.412173913043478 0.4 0  2.445217391304348 0.4 0  2.478260869565217 0.4 0  2.511304347826087 0.4 0  2.544347826086956 0.4 0  1.949565217391304 0.4333333333333333 0  1.982608695652174 0.4333333333333333 0  2.015652173913043 0.4333333333333333 0  2.048695652173913 0.4333333333333333 0  2.081739130434782 0.4333333333333333 0  2.114782608695652 0.4333333333333333 0  2.147826086956522 0.4333333333333333 0  2.180869565217391 0.4333333333333333 0  2.213913043478261 0.4333333333333333 0  2.24695652173913 0.4333333333333333 0  2.28 0.4333333333333333 0  2.31304347826087 0.4333333333333333 0  2.346086956521739 0.4333333333333333 0  2.379130434782609 0.4333333333333333 0  2.412173913043478 0.4333333333333333 0  2.445217391304348 0.4333333333333333 0  2.478260869565217 0.4333333333333333 0  2.511304347826087 0.4333333333333333 0  2.544347826086956 0.4333333333333333 0  2.577391304347826 0.4333333333333333 0  1.982608695652174 0.4666666666666667 0  1.949565217391304 0.4666666666666667 0  2.015652173913043 0.4666666666666667 0  2.048695652173913 0.4666666666666667 0  2.081739130434782 0.4666666666666667 0  2.114782608695652 0.4666666666666667 0  2.147826086956522 0.4666666666666667 0  2.180869565217391 0.4666666666666667 0  2.213913043478261 0.4666666666666667 0  2.246956521739
[...]
<PointData  Vectors="Displacement"> 
<DataArray  type="Float64"  Name="Displacement"  NumberOfComponents="3" format="ascii">2.2292873048682983e-04 2.1258671776675452e-03 0.0000000000000000e+00  2.2274645040789242e-04 2.1708582264323441e-03 0.0000000000000000e+00  1.7796745128914002e-04 2.1709808388962705e-03 0.0000000000000000e+00  2.2298798487540666e-04 2.2136107087866006e-03 0.0000000000000000e+00  1.7895161959955190e-04 2.2136121602341005e-03 0.0000000000000000e+00  2.2431511182632313e-04 2.2557900967765106e-03 0.0000000000000000e+00  1.7978721991081267e-04 2.2553411922115233e-03 0.0000000000000000e+00  2.2642658467364324e-04 2.2998328180120695e-03 0.0000000000000000e+00  1.8058376334281385e-04 2.2992314796109990e-03 0.0000000000000000e+00  2.2891890478362231e-04 2.3465087376325433e-03 0.0000000000000000e+00  1.8117237797755987e-04 2.3454636506060581e-03 0.0000000000000000e+00  2.3196699718921061e-04 2.3942897964588155e-03 0.0000000000000000e+00  1.8377595327270923e-04 2.3932695468035885e-03 0.0000000000000000e+00  2.4065391181736140e-04 2.4458383885347032e-03 0.0000000000000000e+00  1.8852251639554153e-04 2.4430726116810571e-03 0.0000000000000000e+00  2.4937681374752492e-04 2.5001752612814170e-03 0.0000000000000000e+00  1.9435860327204844e-04 2.4973597744514875e-03 0.0000000000000000e+00  2.5806875897207098e-04 2.5571036065385288e-03 0.0000000000000000e+00  2.0046453691419667e-04 2.5542872767644678e-03 0.0000000000000000e+00  2.6672985123540763e-04 2.6163507875700850e-03 0.0000000000000000e+00  2.0681755126667351e-04 2.6135343895507977e-03 0.0000000000000000e+00  2.7536000201123948e-04 2.6776411032866489e-03 0.0000000000000000e+00  2.1341790700104418e-04 2.6748246496210320e-03 0.0000000000000000e+00  2.8395911242715902e-04 2.7406980087578436e-03 0.0000000000000000e+00  2.2026631377761264e-04 2.7378814999521372e-03 0.0000000000000000e+00  2.9252707610454145e-04 2.8052440769091263e-03 0.0000000000000000e+00  2.2736355438782898e-04 2.8024275137066303e-03 0.0000000000000000e+00  3.0106378087052212e-04 2.8710009449785297e-03 0.0000000000000000e+00  2.3471046046209183e-04 2.8681843289307630e-03 0.0000000000000000e+00  3.0956911055434415e-04 2.9376892727323023e-03 0.0000000000000000e+00  2.4230790028999409e-04 2.9348726059552446e-03 0.0000000000000000e+00  3.1804294682367999e-04 3.0050287147729243e-03 0.0000000000000000e+00  2.5015676694259295e-04 3.0022119996482104e-03 0.0000000000000000e+00  3.2648517080483691e-04 3.0727379063146239e-03 0.0000000000000000e+00  2.5825796689354344e-04 3.0699211452789943e-03 0.0000000000000000e+00  3.3489566432635969e-04 3.1405344604113297e-03 0.0000000000000000e+00  2.6661241004300812e-04 3.1377176558902067e-03 0.0000000000000000e+00  3.4327431079894877e-04 3.2081349738361260e-03 0.0000000000000000e+00  2.7522100183668827e-04 3.2053181282628495e-03 0.0000000000000000e+00  1.3679360653999921e-04 2.2138400263116507e-03 0.0000000000000000e+00  1.3591404036562805e-04 2.1713062182400680e-03 0.0000000000000000e+00  1.3712859584416568e-04 2.2542649409789629e-03 0.0000000000000000e+00  1.3759093454494324e-04 2.2973107792874214e-03 0.0000000000000000e+00  1.3970794096893022e-04 2.3373203518253010e-03 0.0000000000000000e+00  1.4330390083958826e-04 2.3820053867120035e-03 0.0000000000000000e+00  1.4781671760138255e-04 2.4293454448392681e-03 0.0000000000000000e+00  1.5339869744673698e-04 2.4801493854183570e-03 0.0000000000000000e+00  1.6008450408444000e-04 2.5343335055686032e-03 0.0000000000000000e+00  1.6761100963393595e-04 2.5912396251294694e-03 0.0000000000000000e+00  1.7572857156452411e-04 2.6507887775213518e-03 0.0000000000000000e+00  1.8423761060749893e-04 2.7126019815079728e-03 0.0000000000000000e+00  1.9304561874796742e-04 2.7762756184651557e-03 0.0000000000000000e+00  2.0207004347979585e-04 2.8415324197484369e-03 0.0000000000000000e+00  2.1123066784893376e-04 2.9080528595755192e-03 0.0000000000000000e+00  2.2047883107808070e-04 2.9754840301653880e-03 0.0000000000000000e+00  2.2980608236508699e-04 3.0434689750452695e-03 0.0000000000000000e+00  2.3922939396647813e-04 3.1116750490266850e-03 0.0000000000000000e+00  2.4876822629820008e-04 3.1797991558792688e-03 0.0000000000000000e+00  9.8197787415979610e-05 2.2148056474441068e-03 0.0000000000000000e+00  9.7192788876626472e-05 2.1723573620412678e-03 0.0000000000000000e+00  9.8581248581391958e-05 2.2534224985888032e-03 0.0000000000000000e+00  9.9185775610424593e-05 2.2883788019733005e-03 0.0000000000000000e+00  1.0220413870346276e-04 2.3271310789573342e-03 0.0000000000000000e+00  1.0561956790993583e-04 2.3695959999395022e-03 0.0000000000000000e+00  1.0985588990215474e-04 2.4144910102618412e-03 0.0000000000000000e+00  1.1551187425388084e-04 2.4617726619407410e-03 0.0000000000000000e+00  1.2249359022551350e-04 2.5130218384415409e-03 0.0000000000000000e+00  1.3072208587724775e-04 2.5673350890552142e-03 0.0000000000000000e+00  1.3977921174813704e-04 2.6251172895506753e-03 0.0000000000000000e+00  1.4934633092867573e-04 2.6857460844329217e-03 0.0000000000000000e+00  1.5930260570102514e-04 2.7486203146851584e-03 0.0000000000000000e+00  1.6948941505423977e-04 2.8135186979488178e-03 0.0000000000000000e+00  1.7974827575072282e-04 2.8800662212782190e-03 0.0000000000000000e+00  1.8998655956819216e-04 2.9478043012239889e-03 0.0000000000000000e+00  2.0018922580655751e-04 3.0162708479537560e-03 0.0000000000000000e+00  2.1038571078829359e-04 3.0850732101061562e-03 0.0000000000000000e+00  2.2060625820502798e-04 3.1538961277906715e-03 0.0000000000000000e+00  6.4225186755220449e-05 2.2162708508364952e-03 0.0000000000000000e+00  6.1552046310456510e-05 2.1645679937319648e-03 0.0000000000000000e+00  6.4915634658763746e-05 2.2538247417497092e-03 0.0000000000000000e+00  6.5575367927217022e-05 2.2865573234759607e-03 0.0000000000000000e+00  6.5793573696893483e-05 2.3150563273924736e-03 0.0000000000000000e+00  7.0155578649242029e-05 2.3564820056320023e-03 0.0000000000000000e+00  7.4203287040949692e-05 2.3988890373141747e-03 0.0000000000000000e+00  7.9938773098253634e-05 2.4420032649197262e-03 0.0000000000000000e+00  8.6966134394545616e-05 2.4904417445937277e-03 0.0000000000000000e+00  9.5566173397848502e-05 2.5418464385850372e-03 0.0000000000000000e+00  1.0511844430568933e-04 2.5979766678894053e-03 0.0000000000000000e+00  1.1523287023215737e-04 2.6575381540520412e-03 0.0000000000000000e+00  1.2587980837679974e-04 2.7196392813006501e-03 0.0000000000000000e+00  1.3681357543867691e-04 2.7843178343404809e-03 0.0000000000000000e+00  1.4777324176108402e-04 2.8511002719954345e-03 0.0000000000000000e+00  1.5862294400549975e-04 2.9193657265571753e-03 0.0000000000000000e+00  1.6935750476639318e-04 2.9885036857613804e-03 0.0000000000000000e+00  1.8003376871239226e-04 3.0580565547149354e-03 0.0000000000000000e+00  1.9069697090900520e-04 3.1277165664780910e-03 0.0000000000000000e+00  2.0134541852417527e-04 3.1972466824125574e-03 0.0000000000000000e+00  3.1875452012445542e-05 2.2061334850014373e-03 0.0000000000000000e+00  2.9195703243596549e-05 2.1571624285488264e-03 0.0000000000000000e+00  3.5877748474957538e-05 2.2545934552139144e-03 0.0000000000000000e+00  3.6988375602179457e-05 2.2866480628337092e-03 0.0000000000000000e+00  3.7921757304940042e-05 2.3152752733153134e-03 0.0000000000000000e+00  3.8935147176715211e-05 2.3431457506262032e-03 0.0000000000000000e+00  4.1701515285722355e-05 2.3833072832685136e-03 0.0000000000000000e+00  4.6846571685625825e-05 2.4206420229117170e-03 0.0000000000000000e+00  5.3128965367458901e-05 2.4668506877928587e-03 0.0000000000000000e+00  6.1682678347071735e-05 2.5146065437963989e-03 0.0000000000000000e+00  7.1281677589449296e-05 2.5694855160471089e-03 0.0000000000000000e+00  8.1440003030657166e-05 2.6281704738629762e-03 0.0000000000000000e+00  9.2416092423524879e-05 2.6894031254822543e-03 0.0000000000000000e+00  1.0378159211709269e-04 2.7540254389170440e-03 0.0000000000000000e+00  1.1511025988899166e-04 2.8213048323067758e-03 0.0000000000000000e+00  1.2622489724063065e-04 2.8903560859074645e-03 0.0000000000000000e+00  1.3716382061949606e-04 2.9603491444993029e-03 0.0000000000000000e+00  1.4804141271270387e-04 3.0307677389437523e-03 0.0000000000000000e+00  1.5892735046312893e-04 3.1013552480967958e-03 0.0000000000000000e+00  1.6980704822022817e-04 3.1719510560622357e-03 0.0000000000000000e+00  1.0357275559440608e-06 2.1962331430241244e-03 0.0000000000000000e+00  -1.4899187639476936e-06 2.1498665321510939e-03 0.0000000000000000e+00  4.8442066295802848e-06 2.2419043012283511e-03 0.0000000000000000e+00  1.0312646099536970e-05 2.2866891511254014e-03 0.0000000000000000e+00  1.1853842456488042e-05 2.3153004825211703e-03 0.0000000000000000e+00  1.3400942131093735e-05 2.3433766551208767e-03 0.0000000000000000e+00  1.4883551939091180e-05 2.3704113666406655e-03 0.0000000000000000e+00  1.6175512979161590e-05 2.3970981538544924e-03 0.0000000000000000e+00  2.0536474192955469e-05 2.4432176034277641e-03 0.0000000000000000e+00  2.8387956323084109e-05 2.4850691857093302e-03 0.0000000000000000e+00  3.7643234820714623e-05 2.5398376597581662e-03 0.0000000000000000e+00  4.7335152910705494e-05 2.5978788569882096e-03 0.0000000000000000e+00  5.8432571015713872e-05 2.6578186178210792e-03 0.0000000000000000e+00  7.0043744987766647e-05 2.7226471344967773e-03 0.0000000000000000e+00  8.1477631824702440e-05 2.7907994988369128e-03 0.0000000000000000e+00  9.2538879272510975e-05 2.8609715853733677e-03 0.0000000000000000e+00  1.0337325243539798e-04 2.9319983148823102e-03 0.0000000000000000e+00  1.1419919322150132e-04 3.0033427832901758e-03 0.0000000000000000e+00  1.2511800811126976e-04 3.0748868125828246e-03 0.0000000000000000e+00  1.3608589118774047e-04 3.1466112427674525e-03 0.0000000000000000e+00  -2.8538534302692446e-05 2.1866971523824717e-03 0.0000000000000000e+00  -3.0913556587340433e-05 2.1427348705878391e-03 0.0000000000000000e+00  -2.4955389665370016e-05 2.2298168785862670e-03 0.0000000000000000e+00  -2.0186309082108495e-05 2.2711219730486096e-03 0.0000000000000000e+00  -1.5130819579535343e-05 2.3060656410827758e-03 0.0000000000000000e+00  -1.1169648679744728e-05 2.3435343100294448e-03 0.0000000000000000e+00  -9.8862960828109075e-06 2.3704058041467096e-03 0.0000000000000000e+00  -8.8179292855170307e-06 2.3970480458904218e-03 0.0000000000000000e+00  -7.7365008027666340e-06 2.4240324542975336e-03 0.0000000000000000e+00  -6.8868356921216375e-06 2.4510692082709614e-03 0.0000000000000000e+00  3.2472080633467911e-06 2.5094605877601420e-03 0.0000000000000000e+00  1.2130652084107960e-05 2.5670442049871628e-03 0.0000000000000000e+00  2.3383846449851328e-05 2.6244618638310889e-03 0.0000000000000000e+00  3.5188687809193934e-05 2.6900884670146329e-03 0.0000000000000000e+00  4.6517780429545067e-05 2.7596883218596502e-03 0.0000000000000000e+00  5.7227292176710363e-05 2.8314435628961363e-03 0.0000000000000000e+00  6.7674324655805660e-05 2.9036613232721869e-03 0.0000000000000000e+00  7.8240623435545860e-05 2.9759036927178885e-03 0.0000000000000000e+00  8.9050405966424739e-05 3.0483537985419593e-03 0.0000000000000000e+00  9.9994592505791573e-05 3.1212282950901266e-03 0.0000000000000000e+00  -5.7239253013773437e-05 2.1776028128692626e-03 0.0000000000000000e+00  -5.9388247976640701e-05 2.1358387476971274e-03 0.0000000000000000e+00  -5.3965871198389291e-05 2.2185890870915076e-03 0.0000000000000000e+00  -4.9690018554793885e-05 2.2580594673513679e-03 0.0000000000000000e+00  -4.4937038138188083e-05 2.2946199452661613e-03 0.0000000000000000e+00  -4.0465094841068910e-05 2.3318943828587201e-03 0.0000000000000000e+00  -3.4737895873058405e-05 2.3707687244944957e-03 0.0000000000000000e+00  -3.4290252242828518e-05 2.3970185283609044e-03 0.0000000000000000e+00  -3.3300325199908190e-05 2.4239978136282427e-03 0.0000000000000000e+00  -3.2283042550789439e-05 2.4512142816898856e-03 0.0000000000000000e+00  -3.0138892979729534e-05 2.4799577160363592e-03 0.0000000000000000e+00  -2.3919551021481081e-05 2.5367039518863332e-03 0.0000000000000000e+00  -1.3163193973837253e-05 2.5882342555971754e-03 0.0000000000000000e+00  -1.2982757468943758e-06 2.6562057732533303e-03 0.0000000000000000e+00  9.7463161543805305e-06 2.7280807951116487e-03 0.0000000000000000e+00  1.9849781520627905e-05 2.8020776548187223e-03 0.0000000000000000e+00  2.9695142645185817e-05 2.8755719538837068e-03 0.0000000000000000e+00  3.9885517930090785e-05 2.9485388719853460e-03 0.0000000000000000e+00  5.0522382602070274e-05 3.0217459299438157e-03 0.0000000000000000e+00  6.1367438018883531e-05 3.0957639463621545e-03 0.0000000000000000e+00  -8.5362332279276048e-05 2.1690229582257137e-03 0.0000000000000000e+00  -8.7129724743695937e-05 2.1292536885397723e-03 0.0000000000000000e+00  -8.2606278048021322e-05 2.2082192493094598e-03 0.0000000000000000e+00  -7.9037848048855785e-05 2.2464120697997156e-03 0.0000000000000000e+00  -7.5053096964610807e-05 2.2832040173695143e-03 0.0000000000000000e+00  -7.1093031348277508e-05 2.3200237391232774e-03 0.0000000000000000e+00  -6.6814827313431481e-05 2.3566148263327439e-03 0.0000000000000000e+00  -6.2644575884007248e-05 2.3889144676094878e-03 0.0000000000000000e+00  -5.9081211792189152e-05 2.4240341721805765e-03 0.0000000000000000e+00  -5.8209378867544479e-05 2.4512850995096996e-03 0.0000000000000000e+00  -5.6846445089107475e-05 2.4797920931865589e-03 0.0000000000000000e+00  -5.5297431657089883e-05 2.5122092763731610e-03 0.0000000000000000e+00  -5.4003534025761056e-05 2.5461455905849118e-03 0.0000000000000000e+00  -4.0877958023745765e-05 2.6209291653495120e-03 0.0000000000000000e+00  -2.9705026693832262e-05 2.6960369380524670e-03 0.0000000000000000e+00  -2.0172744127384080e-05 2.7732904645811868e-03 0.0000000000000000e+00  -1.0935925713034835e-05 2.8479679368330567e-03 0.0000000000000000e+00  -1.0548850890857124e-06 2.9212601696769367e-03 0.0000000000000000e+00  9.4570847485534452e-06 2.9949701605505676e-03 0.0000000000000000e+00  2.0151408774491918e-05 3.0701337174165507e-03 0.0000000000000000e+00  3.0382899745929625e-05 3.1471719083510210e-03 0.0000000000000000e+00  -1.1293655855118423e-04 2.1609906695485076e-03 0.0000000000000000e+00  -1.1084904599746329e-04 2.1986340834607211e-03 0.0000000000000000e+00  -1.0808279895588596e-04 2.2357550748690353e-03 0.0000000000000000e+00  -1.0491959183071890e-04 2.2722590031029194e-03 0.0000000000000000e+00  -1.0162349146148000e-04 2.3086728945131527e-03 0.0000000000000000e+00  -9.8150747177174123e-05 2.3446561419361127e-03 0.0000000000000000e+00  -9.4714597759999148e-05 2.3788264640417856e-03 0.0000000000000000e+00  -9.1825171067627860e-05 2.4134486494849293e-03 0.0000000000000000e+00  -8.9119176340145528e-05 2.4455172634908150e-03 0.0000000000000000e+00  -8.6884814603105202e-05 2.4801997169593606e-03 0.0000000000000000e+00  -8.6368757569564383e-05 2.5122339148608763e-03 0.0000000000000000e+00  -8.5504778366970527e-05 2.5465048544104541e-03 0.0000000000000000e+00  -8.4763343307740297e-05 2.5847707904766274e-03 0.0000000000000000e+00  -7.2551700026801747e-05 2.6632909901056273e-03 0.0000000000000000e+00  -6.3235417901901710e-05 2.7456804436434101e-03 0.0000000000000000e+00  -5.4318799780007497e-05 2.8210340294694651e-03 0.0000000000000000e+00  -4.4419161663784298e-05 2.8939369703329114e-03 0.0000000000000000e+00  -3.3889786360303154e-05 2.9678283325141378e-03 0.0000000000000000e+00  -2.3456554046845766e-05 3.0442144509973050e-03 0.0000000000000000e+00  -1.4117901915316080e-05 3.1239002531693824e-03 0.0000000000000000e+00  -1.3861385622005904e-04 2.1897661341803358e-03 0.0000000000000000e+00  -1.3987590061839182e-04 2.1535183669410458e-03 0.0000000000000000e+00  -1.3678638531988786e-04 2.2259034258398599e-03 0.0000000000000000e+00  -1.3459487021624163e-04 2.2619339052557018e-03 0.0000000000000000e+00  -1.3223391438116328e-04 2.2980416521722036e-03 0.0000000000000000e+00  -1.2980491502567976e-04 2.3339746733430423e-03 0.0000000000000000e+00  -1.2752857545770768e-04 2.3691817130680540e-03 0.0000000000000000e+00  -1.2568579949190728e-04 2.4043349517057278e-03 0.0000000000000000e+00  -1.2409857741419207e-04 2.4385728811592376e-03 0.0000000000000000e+00  -1.2284725496653005e-04 2.4739330837290408e-03 0.0000000000000000e+00  -1.2052052763017465e-04 2.5117590400220379e-03 0.0000000000000000e+00  -1.2011575246929028e-04 2.5467243921426940e-03 0.0000000000000000e+00  -1.1973027009617512e-04 2.5859653328408299e-03 0.0000000000000000e+00  -1.1941844934840756e-04 2.6286039095423908e-03 0.0000000000000000e+00  -1.0928619355968412e-04 2.7203802560367401e-03 0.0000000000000000e+00  -9.9889083460243943e-05 2.7947948456440671e-03 0.0000000000000000e+00  -8.9249741126117465e-05 2.8662239803751359e-03 0.0000000000000000e+00  -7.8581443262941812e-05 2.9400585559371628e-03 0.0000000000000000e+00  -6.8829033933555863e-05 3.0178981066345898e-03 0.0000000000000000e+00  -6.1399110790023002e-05 3.1014445197141173e-03 0.0000000000000000e+00  -1.6577030112747900e-04 2.1815971480111424e-03 0.0000000000000000e+00  -1.6600864889922576e-04 2.1466306830805319e-03 0.0000000000000000e+00  -1.6508894465454323e-04 2.2168070289919992e-03 0.0000000000000000e+00  -1.6410177759393102e-04 2.2523162053917005e-03 0.0000000000000000e+00  -1.6295667369863924e-04 2.2882151729482132e-03 0.0000000000000000e+00  -1.6181423989485629e-04 2.3243600981889003e-03 0.0000000000000000e+00  -1.6093709962000717e-04 2.3604352346097523e-03 0.0000000000000000e+00  -1.6055791225954864e-04 2.3964609523727514e-03 0.0000000000000000e+00  -1.6068975421822321e-04 2.4319533815520761e-03 0.0000000000000000e+00  -1.6042888335852942e-04 2.4677731282676464e-03 0.0000000000000000e+00  -1.5994324752576460e-04 2.5032758406008473e-03 0.0000000000000000e+00  -1.5942270126802314e-04 2.5457283197974113e-03 0.0000000000000000e+00  -1.5907092831200480e-04 2.5869735268513158e-03 0.0000000000000000e+00  -1.5872208150485360e-04 2.6306506805662188e-03 0.0000000000000000e+00  -1.5672692894404369e-04 2.7001232436111053e-03 0.0000000000000000e+00  -1.4553560823410481e-04 2.7687695322347020e-03 0.0000000000000000e+00  -1.3298009695275753e-04 2.8374450005200441e-03 0.0000000000000000e+00  -1.2231818264103918e-04 2.9115666771209513e-03 0.0000000000000000e+00  -1.1462232771167945e-04 2.9912879978639889e-03 0.0000000000000000e+00  -1.1143596994197946e-04 3.0808474619658131e-03 0.0000000000000000e+00  -1.9211342659338407e-04 2.1741702348348560e-03 0.0000000000000000e+00  -1.9286816255447987e-04 2.2085050646794601e-03 0.0000000000000000e+00  -1.9340756648046753e-04 2.2434911615293522e-03 0.0000000000000000e+00  -1.9381747940598419e-04 2.2792313987993374e-03 0.0000000000000000e+00  -1.9422158704431833e-04 2.3157310790957570e-03 0.0000000000000000e+00  -1.9492525466880388e-04 2.3527967134703413e-03 0.0000000000000000e+00  -1.9639986782138020e-04 2.3900439850019048e-03 0.0000000000000000e+00  -1.9887005598219802e-04 2.4271829852041326e-03 0.0000000000000000e+00  -2.0273564688836902e-04 2.4621439314535219e-03 0.0000000000000000e+00  -2.0251972548408821e-04 2.5012244504723463e-03 0.0000000000000000e+00  -2.0228248200499595e-04 2.5441442710270189e-03 0.0000000000000000e+00  -2.0179001905220719e-04 2.5870455788929020e-03 0.0000000000000000e+00  -2.0103914556717168e-04 2.6320087534958052e-03 0.0000000000000000e+00  -1.9892612938572112e-04 2.6826905667646731e-03 0.0000000000000000e+00  -1.8717829528587355e-04 2.7405053555974159e-03 0.0000000000000000e+00  -1.6977177982377853e-04 2.8068114423434646e-03 0.0000000000000000e+00  -1.6103214706344641e-04 2.8825017167742515e-03 0.0000000000000000e+00  -1.5731257826506298e-04 2.9659181301589757e-03 0.0000000000000000e+00  -1.6576634194320717e-04 3.0641780015740719e-03 0.0000000000000000e+00  -1.6994216291734102e-04 3.1550746971214919e-03 0.0000000000000000e+00  -2.1991492646275816e-04 2.2011187962119000e-03 0.0000000000000000e+00  -2.1733855385776645e-04 2.1675969365475001e-03 0.0000000000000000e+00  -2.2241018240621102e-04 2.2355951041093496e-03 0.0000000000000000e+00  -2.2482964902029127e-04 2.2711627617643644e-03 0.0000000000000000e+00  -2.271789