<?xml version="1.0"?>
<VTKFile type="UnstructuredGrid"  version="0.1"  >
<UnstructuredGrid>
<Piece  NumberOfPoints="330" NumberOfCells="589">
<Points>
<DataArray  type="Float64"  NumberOfComponents="3"  format="ascii">2.973913043478261 0 0  3.006956521739131 0 0  3.006956521739131 0.03333333333333333 0  2.973913043478261 0.03333333333333333 0  3.04 0 0  3.04 0.03333333333333333 0  3.073043478260869 0 0  3.073043478260869 0.03333333333333333 0  3.106086956521739 0 0  3.106086956521739 0.03333333333333333 0  3.139130434782609 0 0  3.139130434782609 0.03333333333333333 0  3.172173913043478 0 0  3.172173913043478 0.03333333333333333 0  3.205217391304347 0 0  3.205217391304347 0.03333333333333333 0  3.238260869565217 0 0  3.238260869565217 0.03333333333333333 0  3.271304347826087 0 0  3.271304347826087 0.03333333333333333 0  3.304347826086957 0 0  3.304347826086957 0.03333333333333333 0  3.337391304347826 0 0  3.337391304347826 0.03333333333333333 0  3.370434782608696 0 0  3.370434782608696 0.03333333333333333 0  3.403478260869565 0 0  3.403478260869565 0.03333333333333333 0  3.436521739130435 0 0  3.436521739130435 0.03333333333333333 0  3.469565217391304 0 0  3.469565217391304 0.03333333333333333 0  3.502608695652174 0 0  3.502608695652174 0.03333333333333333 0  3.535652173913043 0 0  3.535652173913043 0.03333333333333333 0  3.568695652173913 0 0  3.568695652173913 0.03333333333333333 0  3.601739130434782 0 0  3.601739130434782 0.03333333333333333 0  3.634782608695652 0 0  3.634782608695652 0.03333333333333333 0  3.667826086956521 0 0  3.667826086956521 0.03333333333333333 0  3.700869565217391 0 0  3.700869565217391 0.03333333333333333 0  3.733913043478261 0 0  3.733913043478261 0.03333333333333333 0  3.766956521739131 0 0  3.766956521739131 0.03333333333333333 0  3.8 0 0  3.8 0.03333333333333333 0  3.006956521739131 0.06666666666666667 0  3.04 0.06666666666666667 0  3.073043478260869 0.06666666666666667 0  3.106086956521739 0.06666666666666667 0  3.139130434782609 0.06666666666666667 0  3.172173913043478 0.06666666666666667 0  3.205217391304347 0.06666666666666667 0  3.238260869565217 0.06666666666666667 0  3.271304347826087 0.06666666666666667 0  3.304347826086957 0.06666666666666667 0  3.337391304347826 0.06666666666666667 0  3.370434782608696 0.06666666666666667 0  3.403478260869565 0.06666666666666667 0  3.436521739130435 0.06666666666666667 0  3.469565217391304 0.06666666666666667 0  3.502608695652174 0.06666666666666667 0  3.535652173913043 0.06666666666666667 0  3.568695652173913 0.06666666666666667 0  3.601739130434782 0.06666666666666667 0  3.634782608695652 0.06666666666666667 0  3.667826086956521 0.06666666666666667 0  3.700869565217391 0.06666666666666667 0  3.733913043478261 0.06666666666666667 0  3.766956521739131 0.06666666666666667 0  3.8 0.06666666666666667 0  3.04 0.1 0  3.073043478260869 0.1 0  3.106086956521739 0.1 0  3.139130434782609 0.1 0  3.172173913043478 0.1 0  3.205217391304347 0.1 0  3.238260869565217 0.1 0  3.271304347826087 0.1 0  3.304347826086957 0.1 0  3.337391304347826 0.1 0  3.370434782608696 0.1 0  3.403478260869565 0.1 0  3.436521739130435 0.1 0  3.469565217391304 0.1 0  3.502608695652174 0.1 0  3.535652173913043 0.1 0  3.568695652173913 0.1 0  3.601739130434782 0.1 0  3.634782608695652 0.1 0  3.667826086956521 0.1 0  3.700869565217391 0.1 0  3.733913043478261 0.1 0  3.766956521739131 0.1 0  3.8 0.1 0  3.073043478260869 0.1333333333333333 0  3.106086956521739 0.1333333333333333 0  3.139130434782609 0.1333333333333333 0  3.172173913043478 0.1333333333333333 0  3.205217391304347 0.1333333333333333 0  3.238260869565217 0.1333333333333333 0  3.271304347826087 0.1333333333333333 0  3.304347826086957 0.1333333333333333 0  3.337391304347826 0.1333333333333333 0  3.370434782608696 0.1333333333333333 0  3.403478260869565 0.1333333333333333 0  3.436521739130435 0.1333333333333333 0  3.469565217391304 0.1333333333333333 0  3.502608695652174 0.1333333333333333 0  3.535652173913043 0.1333333333333333 0  3.568695652173913 0.1333333333333333 0  3.601739130434782 0.1333333333333333 0  3.634782608695652 0.1333333333333333 0  3.667826086956521 0.1333333333333333 0  3.700869565217391 0.1333333333333333 0  3.733913043478261 0.1333333333333333 0  3.766956521739131 0.1333333333333333 0  3.8 0.1333333333333333 0  3.106086956521739 0.1666666666666667 0  3.139130434782609 0.1666666666666667 0  3.172173913043478 0.1666666666666667 0  3.205217391304347 0.1666666666666667 0  3.238260869565217 0.1666666666666667 0  3.271304347826087 0.1666666666666667 0  3.304347826086957 0.1666666666666667 0  3.337391304347826 0.1666666666666667 0  3.370434782608696 0.1666666666666667 0  3.403478260869565 0.1666666666666667 0  3.436521739130435 0.1666666666666667 0  3.469565217391304 0.1666666666666667 0  3.502608695652174 0.1666666666666667 0  3.535652173913043 0.1666666666666667 0  3.568695652173913 0.1666666666666667 0  3.601739130434782 0.1666666666666667 0  3.634782608695652 0.1666666666666667 0  3.667826086956521 0.1666666666666667 0  3.700869565217391 0.1666666666666667 0  3.733913043478261 0.1666666666666667 0  3.766956521739131 0.1666666666666667 0  3.8 0.1666666666666667 0  3.139130434782609 0.2 0  3.106086956521739 0.2 0  3.172173913043478 0.2 0  3.205217391304347 0.2 0  3.238260869565217 0.2 0  3.271304347826087 0.2 0  3.304347826086957 0.2 0  3.337391304347826 0.2 0  3.370434782608696 0.2 0  3.403478260869565 0.2 0  3.436521739130435 0.2 0  3.469565217391304 0.2 0  3.502608695652174 0.2 0  3.535652173913043 0.2 0  3.568695652173913 0.2 0  3.601739130434782 0.2 0  3.634782608695652 0.2 0  3.667826086956521 0.2 0  3.700869565217391 0.2 0  3.733913043478261 0.2 0  3.766956521739131 0.2 0  3.8 0.2 0  3.139130434782609 0.2333333333333333 0  3.172173913043478 0.2333333333333333 0  3.205217391304347 0.2333333333333333 0  3.238260869565217 0.2333333333333333 0  3.271304347826087 0.2333333333333333 0  3.304347826086957 0.2333333333333333 0  3.337391304347826 0.2333333333333333 0  3.370434782608696 0.2333333333333333 0  3.403478260869565 0.2333333333333333 0  3.436521739130435 0.2333333333333333 0  3.469565217391304 0.2333333333333333 0  3.502608695652174 0.2333333333333333 0  3.535652173913043 0.2333333333333333 0  3.568695652173913 0.2333333333333333 0  3.601739130434782 0.2333333333333333 0  3.634782608695652 0.2333333333333333 0  3.667826086956521 0.2333333333333333 0  3.700869565217391 0.2333333333333333 0  3.733913043478261 0.2333333333333333 0  3.766956521739131 0.2333333333333333 0  3.8 0.2333333333333333 0  3.172173913043478 0.2666666666666667 0  3.205217391304347 0.2666666666666667 0  3.238260869565217 0.2666666666666667 0  3.271304347826087 0.2666666666666667 0  3.304347826086957 0.2666666666666667 0  3.337391304347826 0.2666666666666667 0  3.370434782608696 0.2666666666666667 0  3.403478260869565 0.2666666666666667 0  3.436521739130435 0.2666666666666667 0  3.469565217391304 0.2666666666666667 0  3.502608695652174 0.2666666666666667 0  3.535652173913043 0.2666666666666667 0  3.568695652173913 0.2666666666666667 0  3.601739130434782 0.2666666666666667 0  3.634782608695652 0.2666666666666667 0  3.667826086956521 0.2666666666666667 0  3.700869565217391 0.2666666666666667 0  3.733913043478261 0.2666666666666667 0  3.766956521739131 0.2666666666666667 0  3.8 0.2666666666666667 0  3.205217391304347 0.3 0  3.238260869565217 0.3 0  3.271304347826087 0.3 0  3.304347826086957 0.3 0  3.337391304347826 0.3 0  3.370434782608696 0.3 0  3.403478260869565 0.3 0  3.436521739130435 0.3 0  3.469565217391304 0.3 0  3.502608695652174 0.3 0  3.535652173913043 0.3 0  3.568695652173913 0.3 0  3.601739130434782 0.3 0  3.634782608695652 0.3 0  3.667826086956521 0.3 0  3.700869565217391 0.3 0  3.733913043478261 0.3 0  3.766956521739131 0.3 0  3.8 0.3 0  3.238260869565217 0.3333333333333333 0  3.271304347826087 0.3333333333333333 0  3.304347826086957 0.3333333333333333 0  3.337391304347826 0.3333333333333333 0  3.370434782608696 0.3333333333333333 0  3.403478260869565 0.3333333333333333 0  3.436521739130435 0.3333333333333333 0  3.469565217391304 0.3333333333333333 0  3.502608695652174 0.3333333333333333 0  3.535652173913043 0.3333333333333333 0  3.568695652173913 0.3333333333333333 0  3.601739130434782 0.3333333333333333 0  3.634782608695652 0.3333333333333333 0  3.667826086956521 0.3333333333333333 0  3.700869565217391 0.3333333333333333 0  3.733913043478261 0.3333333333333333 0  3.766956521739131 0.3333333333333333 0  3.8 0.3333333333333333 0  3.271304347826087 0.3666666666666666 0  3.238260869565217 0.3666666666666666 0  3.304347826086957 0.3666666666666666 0  3.337391304347826 0.3666666666666666 0  3.370434782608696 0.3666666666666666 0  3.403478260869565 0.3666666666666666 0  3.436521739130435 0.3666666666666666 0  3.469565217391304 0.3666666666666666 0  3.502608695652174 0.3666666666666666 0  3.535652173913043 0.3666666666666666 0  3.568695652173913 0.3666666666666666 0  3.601739130434782 0.3666666666666666 0  3.634782608695652 0.3666666666666666 0  3.667826086956521 0.3666666666666666 0  3.700869565217391 0.3666666666666666 0  3.733913043478261 0.3666666666666666 0  3.766956521739131 0.3666666666666666 0  3.8 0.3666666666666666 0  3.271304347826087 0.4 0  3.238260869565217 0.4 0  3.304347826086957 0.4 0  3.337391304347826 0.4 0  3.370434782608696 0.4 0  3.403478260869565 0.4 0  3.436521739130435 0.4 0  3.469565217391304 0.4 0  3.502608695652174 0.4 0  3.535652173913043 0.4 0  3.568695652173913 0.4 0  3.601739130434782 0.4 0  3.634782608695652 0.4 0  3.667826086956521 0.4 0  3.700869565217391 0.4 0  3.733913043478261 0.4 0  3.766956521739131 0.4 0  3.8 0.4 0  3.271304347826087 0.4333333333333333 0  3.304347826086957 0.4333333333333333 0  3.337391304347826 0.4333333333333333 0  3.370434782608696 0.4333333333333333 0  3.403478260869565 0.4333333333333333 0  3.436521739130435 0.4333333333333333 0  3.469565217391304 0.4333333333333333 0  3.502608695652174 0.4333333333333333 0  3.535652173913043 0.4333333333333333 0  3.5686956521
[...]
<PointData  Vectors="Displacement"> 
<DataArray  type="Float64"  Name="Displacement"  NumberOfComponents="3" format="ascii">4.4727042573809511e-04 3.9966050540199182e-03 0.0000000000000000e+00  4.4909541370096205e-04 4.0301704635117563e-03 0.0000000000000000e+00  4.1485334888994565e-04 4.0297880116937843e-03 0.0000000000000000e+00  4.1426079594327321e-04 3.9961531979512133e-03 0.0000000000000000e+00  4.5081474834961856e-04 4.0647865864909642e-03 0.0000000000000000e+00  4.1542012594001206e-04 4.0644168457949293e-03 0.0000000000000000e+00  4.5257865030307737e-04 4.1003764588051061e-03 0.0000000000000000e+00  4.1606299865559808e-04 4.0999228356987548e-03 0.0000000000000000e+00  4.5425209311759549e-04 4.1374302508894881e-03 0.0000000000000000e+00  4.1663917582987362e-04 4.1369892117059824e-03 0.0000000000000000e+00  4.5561227856299953e-04 4.1757741621366151e-03 0.0000000000000000e+00  4.1715324057662619e-04 4.1753922102924848e-03 0.0000000000000000e+00  4.5641373183451169e-04 4.2148495719177750e-03 0.0000000000000000e+00  4.1764900765713792e-04 4.2147257411866267e-03 0.0000000000000000e+00  4.5671280859635677e-04 4.2543339244728732e-03 0.0000000000000000e+00  4.1810029621486679e-04 4.2546460148383484e-03 0.0000000000000000e+00  4.7481831937005677e-04 4.3010801589433234e-03 0.0000000000000000e+00  4.2680703017945108e-04 4.2965114489580984e-03 0.0000000000000000e+00  4.9294694618789525e-04 4.3512683719180391e-03 0.0000000000000000e+00  4.3882666655296914e-04 4.3457846049424417e-03 0.0000000000000000e+00  5.1173780760848503e-04 4.4068856451894654e-03 0.0000000000000000e+00  4.5288676700383127e-04 4.4011498426190787e-03 0.0000000000000000e+00  5.3024219955162424e-04 4.4683996561938211e-03 0.0000000000000000e+00  4.6698767499090972e-04 4.4628703619847745e-03 0.0000000000000000e+00  5.4716816500472375e-04 4.5357479699587909e-03 0.0000000000000000e+00  4.7985164458309534e-04 4.5308734105375843e-03 0.0000000000000000e+00  5.6144021370442912e-04 4.6079782875844862e-03 0.0000000000000000e+00  4.9069389131704507e-04 4.6040484379225978e-03 0.0000000000000000e+00  5.7255579550449982e-04 4.6835316023146403e-03 0.0000000000000000e+00  4.9923874690616782e-04 4.6806010009836198e-03 0.0000000000000000e+00  5.8055031410469559e-04 4.7609179798888904e-03 0.0000000000000000e+00  5.0555573146947373e-04 4.7589030403407577e-03 0.0000000000000000e+00  5.8581508357509525e-04 4.8389385850081462e-03 0.0000000000000000e+00  5.0992567633781122e-04 4.8376782326798266e-03 0.0000000000000000e+00  5.8891400439909920e-04 4.9167694550671954e-03 0.0000000000000000e+00  5.1272818586634678e-04 4.9160780767198327e-03 0.0000000000000000e+00  5.9043972383500778e-04 4.9939389112412663e-03 0.0000000000000000e+00  5.1435633946419123e-04 4.9936423078194604e-03 0.0000000000000000e+00  5.9092974950225021e-04 5.0702432005012288e-03 0.0000000000000000e+00  5.1517001314929352e-04 5.0701927221869112e-03 0.0000000000000000e+00  5.9082636315033817e-04 5.1456710805567870e-03 0.0000000000000000e+00  5.1547062719939211e-04 5.1457498972977021e-03 0.0000000000000000e+00  5.9046382498836750e-04 5.2203366216874063e-03 0.0000000000000000e+00  5.1549172224046804e-04 5.2204597136027457e-03 0.0000000000000000e+00  5.9007185129279565e-04 5.2944251651027251e-03 0.0000000000000000e+00  5.1540040359656356e-04 5.2945356108050068e-03 0.0000000000000000e+00  5.8978526350097766e-04 5.3681543898431161e-03 0.0000000000000000e+00  5.1530386442097886e-04 5.3682190685308993e-03 0.0000000000000000e+00  5.8965176124562465e-04 5.4417437942276296e-03 0.0000000000000000e+00  5.1525705070934653e-04 5.4417519813771036e-03 0.0000000000000000e+00  5.8963033785534988e-04 5.5153731572144017e-03 0.0000000000000000e+00  5.1526779272561846e-04 5.5153507833476632e-03 0.0000000000000000e+00  3.8007465088783722e-04 4.0297958147902024e-03 0.0000000000000000e+00  3.8000289502095925e-04 4.0644215934613724e-03 0.0000000000000000e+00  3.7979033513124656e-04 4.0997065859868266e-03 0.0000000000000000e+00  3.7919393562545228e-04 4.1368165057686966e-03 0.0000000000000000e+00  3.7864678098351056e-04 4.1752278945710181e-03 0.0000000000000000e+00  3.7839406299823889e-04 4.2146052141232033e-03 0.0000000000000000e+00  3.7854484838102187e-04 4.2548919215882495e-03 0.0000000000000000e+00  3.7902577571084794e-04 4.2963848706663007e-03 0.0000000000000000e+00  3.7967167884407345e-04 4.3402580616265949e-03 0.0000000000000000e+00  3.9377657375510135e-04 4.3953762450040408e-03 0.0000000000000000e+00  4.0626169058494111e-04 4.4574838246736539e-03 0.0000000000000000e+00  4.1671824299182670e-04 4.5265077138192849e-03 0.0000000000000000e+00  4.2484880415068329e-04 4.6009837900800035e-03 0.0000000000000000e+00  4.3081119707048408e-04 4.6786665528884214e-03 0.0000000000000000e+00  4.3495091807669320e-04 4.7578450581736657e-03 0.0000000000000000e+00  4.3766446414837727e-04 4.8372273974004731e-03 0.0000000000000000e+00  4.3932981905220786e-04 4.9160044091725447e-03 0.0000000000000000e+00  4.4026204247925478e-04 4.9937785563387901e-03 0.0000000000000000e+00  4.4071319115237065e-04 5.0704186303585719e-03 0.0000000000000000e+00  4.4087563313993639e-04 5.1459849564371059e-03 0.0000000000000000e+00  4.4088813071615048e-04 5.2206537136890553e-03 0.0000000000000000e+00  4.4084606354199025e-04 5.2946583342108880e-03 0.0000000000000000e+00  4.4081112346478732e-04 5.3682533145573965e-03 0.0000000000000000e+00  4.4081799934684961e-04 5.4416924600930285e-03 0.0000000000000000e+00  4.4087694962046802e-04 5.5152174209923289e-03 0.0000000000000000e+00  3.4539190369247292e-04 4.0644232447255126e-03 0.0000000000000000e+00  3.4515708302077094e-04 4.0993332797683987e-03 0.0000000000000000e+00  3.4409629548035037e-04 4.1363280400498531e-03 0.0000000000000000e+00  3.4099390789623280e-04 4.1752543123946446e-03 0.0000000000000000e+00  3.3796746760822709e-04 4.2147340039424301e-03 0.0000000000000000e+00  3.3743026384340161e-04 4.2549723588585038e-03 0.0000000000000000e+00  3.3747934061474188e-04 4.2966542988496425e-03 0.0000000000000000e+00  3.3801719821373311e-04 4.3409221888333401e-03 0.0000000000000000e+00  3.3867070117999569e-04 4.3878079666242586e-03 0.0000000000000000e+00  3.4935790496849203e-04 4.4510774998273673e-03 0.0000000000000000e+00  3.5744117154086849e-04 4.5220513406524932e-03 0.0000000000000000e+00  3.6270812280579168e-04 4.5987118627576528e-03 0.0000000000000000e+00  3.6575967363257952e-04 4.6779717794083308e-03 0.0000000000000000e+00  3.6726572513013023e-04 4.7581780576744070e-03 0.0000000000000000e+00  3.6780234068012254e-04 4.8380948102897531e-03 0.0000000000000000e+00  3.6780914210810531e-04 4.9170486744383882e-03 0.0000000000000000e+00  3.6756482090913821e-04 4.9947945445204421e-03 0.0000000000000000e+00  3.6724169624996190e-04 5.0712888955123207e-03 0.0000000000000000e+00  3.6693690984906929e-04 5.1466573662222580e-03 0.0000000000000000e+00  3.6669592701520499e-04 5.2211164334117601e-03 0.0000000000000000e+00  3.6653630539778572e-04 5.2949167802297612e-03 0.0000000000000000e+00  3.6646381553372809e-04 5.3683171362714777e-03 0.0000000000000000e+00  3.6647930010562764e-04 5.4415726413620750e-03 0.0000000000000000e+00  3.6657711055306912e-04 5.5149331535869900e-03 0.0000000000000000e+00  3.1108199380469782e-04 4.0990935341252335e-03 0.0000000000000000e+00  3.1110457328739887e-04 4.1332650731552125e-03 0.0000000000000000e+00  3.0608891955725276e-04 4.1839288411290769e-03 0.0000000000000000e+00  3.0041761555141857e-04 4.2263947019154082e-03 0.0000000000000000e+00  2.9651670711053064e-04 4.2656714602327386e-03 0.0000000000000000e+00  2.9350214866381261e-04 4.2968409371523407e-03 0.0000000000000000e+00  2.9336311527058246e-04 4.3411389181353321e-03 0.0000000000000000e+00  2.9403659648741530e-04 4.3884902801220602e-03 0.0000000000000000e+00  2.9611374612477202e-04 4.4435905909855520e-03 0.0000000000000000e+00  3.0138621809409568e-04 4.5176474841529301e-03 0.0000000000000000e+00  3.0309018725059947e-04 4.5976843597398858e-03 0.0000000000000000e+00  3.0265335107472724e-04 4.6789615231895339e-03 0.0000000000000000e+00  3.0108624045119053e-04 4.7603367543827260e-03 0.0000000000000000e+00  2.9910771441923125e-04 4.8406630684402615e-03 0.0000000000000000e+00  2.9719924148043011e-04 4.9195238756513868e-03 0.0000000000000000e+00  2.9557508215898498e-04 4.9969451295133185e-03 0.0000000000000000e+00  2.9431784303656595e-04 5.0730002354906177e-03 0.0000000000000000e+00  2.9342407364277545e-04 5.1479118313879574e-03 0.0000000000000000e+00  2.9283927715202565e-04 5.2219498222372471e-03 0.0000000000000000e+00  2.9249753036463244e-04 5.2953778802784183e-03 0.0000000000000000e+00  2.9234494231442266e-04 5.3684475144642587e-03 0.0000000000000000e+00  2.9234676765185817e-04 5.4414025872288954e-03 0.0000000000000000e+00  2.9247901485020706e-04 5.5144910607008652e-03 0.0000000000000000e+00  2.6833449446797005e-04 4.1471641584966794e-03 0.0000000000000000e+00  2.5976731089647506e-04 4.1961788099512997e-03 0.0000000000000000e+00  2.5368157362223913e-04 4.2402987910193108e-03 0.0000000000000000e+00  2.4897842342695622e-04 4.2803929544925085e-03 0.0000000000000000e+00  2.4557523203468768e-04 4.3164514277604111e-03 0.0000000000000000e+00  2.4345219786529388e-04 4.3557671320996489e-03 0.0000000000000000e+00  2.4473347666982158e-04 4.3891150356729263e-03 0.0000000000000000e+00  2.4601370866019444e-04 4.4445933762191593e-03 0.0000000000000000e+00  2.4820146999549590e-04 4.5139539531174611e-03 0.0000000000000000e+00  2.4452069815553335e-04 4.5988676191002246e-03 0.0000000000000000e+00  2.3979517642797000e-04 4.6822162754816153e-03 0.0000000000000000e+00  2.3486396059565061e-04 4.7647555604810711e-03 0.0000000000000000e+00  2.3028645629308972e-04 4.8452038570564980e-03 0.0000000000000000e+00  2.2650176643977310e-04 4.9235690432668060e-03 0.0000000000000000e+00  2.2357533597455574e-04 5.0003082404536806e-03 0.0000000000000000e+00  2.2147144431336379e-04 5.0755847582635129e-03 0.0000000000000000e+00  2.2007072559562953e-04 5.1497555098957400e-03 0.0000000000000000e+00  2.1920614552941935e-04 5.2231536924627784e-03 0.0000000000000000e+00  2.1872358086349355e-04 5.2960421976395418e-03 0.0000000000000000e+00  2.1851153918392294e-04 5.3686457352509712e-03 0.0000000000000000e+00  2.1850763433928200e-04 5.4411779395436184e-03 0.0000000000000000e+00  2.1868072145705278e-04 5.5138781237169809e-03 0.0000000000000000e+00  2.0728522853023519e-04 4.2116761918077200e-03 0.0000000000000000e+00  2.1665232806698741e-04 4.1633349544879230e-03 0.0000000000000000e+00  2.0004402374621213e-04 4.2560696490747891e-03 0.0000000000000000e+00  1.9428145108891262e-04 4.2972079952247862e-03 0.0000000000000000e+00  1.8954057291954672e-04 4.3356549134948357e-03 0.0000000000000000e+00  1.8570909381340097e-04 4.3742954225511757e-03 0.0000000000000000e+00  1.8341230461097917e-04 4.4101196710158519e-03 0.0000000000000000e+00  1.8142116232137991e-04 4.4458233950806269e-03 0.0000000000000000e+00  1.8237410091966465e-04 4.5149965332134580e-03 0.0000000000000000e+00  1.8335884165058625e-04 4.6038322895088331e-03 0.0000000000000000e+00  1.7433489681455849e-04 4.6880629698211312e-03 0.0000000000000000e+00  1.6678744745998061e-04 4.7717536898826372e-03 0.0000000000000000e+00  1.6000933043647069e-04 4.8518167369351259e-03 0.0000000000000000e+00  1.5476313859999867e-04 4.9291086796403420e-03 0.0000000000000000e+00  1.5090995082635839e-04 5.0047794836479160e-03 0.0000000000000000e+00  1.4829118593168169e-04 5.0789073692934930e-03 0.0000000000000000e+00  1.4666046102123923e-04 5.1520567972457212e-03 0.0000000000000000e+00  1.4572373635627327e-04 5.2246260785565411e-03 0.0000000000000000e+00  1.4523842508322918e-04 5.2968448600694256e-03 0.0000000000000000e+00  1.4504437262326852e-04 5.3688787757397455e-03 0.0000000000000000e+00  1.4506861121125163e-04 5.4408798285331596e-03 0.0000000000000000e+00  1.4529572213073765e-04 5.5130662920147688e-03 0.0000000000000000e+00  1.4872693066267340e-04 4.2290592018374039e-03 0.0000000000000000e+00  1.4067624588520562e-04 4.2737449874067825e-03 0.0000000000000000e+00  1.3369954105006739e-04 4.3158469442381173e-03 0.0000000000000000e+00  1.2731579707584399e-04 4.3560275875910506e-03 0.0000000000000000e+00  1.2113946849091167e-04 4.3957030524780756e-03 0.0000000000000000e+00  1.1482908335575772e-04 4.4343644408166866e-03 0.0000000000000000e+00  1.0687847665468926e-04 4.4739175456731993e-03 0.0000000000000000e+00  9.5044172930320474e-05 4.5155188721055948e-03 0.0000000000000000e+00  9.5542132400322491e-05 4.6041065795440136e-03 0.0000000000000000e+00  9.6068680174700257e-05 4.6928770522870243e-03 0.0000000000000000e+00  9.6554692711584448e-05 4.7816727285463594e-03 0.0000000000000000e+00  8.7371518004370112e-05 4.8604038258132139e-03 0.0000000000000000e+00  8.1256528811144121e-05 4.9357910634334800e-03 0.0000000000000000e+00  7.7105549338491553e-05 5.0100746608647594e-03 0.0000000000000000e+00  7.4525247878002543e-05 5.0826634248620816e-03 0.0000000000000000e+00  7.3111601205407451e-05 5.1545488220556502e-03 0.0000000000000000e+00  7.2425860382517116e-05 5.2261723223998241e-03 0.0000000000000000e+00  7.2148729502401223e-05 5.2976661578694401e-03 0.0000000000000000e+00  7.2089754416308850e-05 5.3690911779885756e-03 0.0000000000000000e+00  7.2190934345532935e-05 5.4404876677470234e-03 0.0000000000000000e+00  7.2481855287410380e-05 5.5120291393138338e-03 0.0000000000000000e+00  7.6753278824985576e-05 4.2928894782400190e-03 0.0000000000000000e+00  6.8832063592924554e-05 4.3359902890202648e-03 0.0000000000000000e+00  6.1130036499798049e-05 4.3776885811473076e-03 0.0000000000000000e+00  5.3269062801287609e-05 4.4189571075441188e-03 0.0000000000000000e+00  4.4829320640081578e-05 4.4602869343111128e-03 0.0000000000000000e+00  3.4984098682462852e-05 4.5033939501712174e-03 0.0000000000000000e+00  2.2906530253994532e-05 4.5502836284400296e-03 0.0000000000000000e+00  7.7579082088493030e-06 4.6045384559246436e-03 0.0000000000000000e+00  8.1535671507924601e-06 4.6931808967769131e-03 0.0000000000000000e+00  8.9298519725646564e-06 4.7821625438852098e-03 0.0000000000000000e+00  9.8387923006887913e-06 4.8705018234557898e-03 0.0000000000000000e+00  5.0228421698931060e-06 4.9428012738054238e-03 0.0000000000000000e+00  1.8849809670638574e-06 5.0157546553475096e-03 0.0000000000000000e+00  1.7774520001498885e-07 5.0863797527206005e-03 0.0000000000000000e+00  -4.4105049413907592e-07 5.1568455991542620e-03 0.0000000000000000e+00  -4.9558396437114520e-07 5.2275285234793037e-03 0.0000000000000000e+00  -3.2532580311011035e-07 5.2983524939792586e-03 0.0000000000000000e+00  -1.2017008442870353e-07 5.3692257216554065e-03 0.0000000000000000e+00  1.0705445860169682e-07 5.4400014439565840e-03 0.0000000000000000e+00  4.5411711576608075e-07 5.5107790123018717e-03 0.0000000000000000e+00  9.4247752223843582e-07 4.3572258633505509e-03 0.0000000000000000e+00  -7.6459165113401509e-06 4.4002786609567794e-03 0.0000000000000000e+00  -1.6521758413132893e-05 4.4430987415762591e-03 0.0000000000000000e+00  -2.5985356661344162e-05 4.4865094627009024e-03 0.0000000000000000e+00  -3.6401993575165006e-05 4.5320260283165737e-03 0.0000000000000000e+00  -4.7912234690004997e-05 4.5816268584432428e-03 0.0000000000000000e+00  -6.0102386799765132e-05 4.6385933659450831e-03 0.0000000000000000e+00  -7.0243620875512324e-05 4.7105329539838875e-03 0.0000000000000000e+00  -7.6550170683550102e-05 4.7826685721517213e-03 0.0000000000000000e+00  -7.4197787110014544e-05 4.8716844234430595e-03 0.0000000000000000e+00  -7.3506825936258931e-05 4.9481832271790916e-03 0.0000000000000000e+00  -7.3753922735687972e-05 5.0214263703997116e-03 0.0000000000000000e+00  -7.4083225585191466e-05 5.0894591240387690e-03 0.0000000000000000e+00  -7.3514230350882521e-05 5.1584999937711058e-03 0.0000000000000000e+00  -7.2669065779405094e-05 5.2284116771641239e-03 0.0000000000000000e+00  -7.1863040556779749e-05 5.2987471948449990e-03 0.0000000000000000e+00  -7.1285865204458499e-05 5.3692492343766045e-03 0.0000000000000000e+00  -7.0892647289606597e-05 5.4394668623012872e-03 0.0000000000000000e+00  -7.0529332969172161e-05 5.5094187898509809e-03 0.0000000000000000e+00  -7.8188688009875191e-05 4.4234054628851079e-03 0.0000000000000000e+00  -8.7541804830203101e-05 4.4675077499500594e-03 0.0000000000000000e+00  -9.7387977193117841e-05 4.5123778093641292e-03 0.0000000000000000e+00  -1.0786510161772327e-04 4.5592921180112609e-03 0.0000000000000000e+00  -1.1888248514875857e-04 4.6098782048724345e-03 0.0000000000000000e+00  -1.2990808199914139e-04 4.6663476401856063e-03 0.0000000000000000e+00  -1.3944127226324564e-04 4.7313023182202468e-03 0.0000000000000000e+00  -1.4559841014461655e-04 4.7993186298851027e-03 0.0000000000000000e+00  -1.4899079301035115e-04 4.8719443939418614e-03 0.0000000000000000e+00  -1.4773472179633286e-04 4.9484257008594228e-03 0.0000000000000000e+00  -1.4724799286739345e-04 5.0215859388647276e-03 0.0000000000000000e+00  -1.4720232265921698e-04 5.0913679357180840e-03 0.0000000000000000e+00  -1.4554599862300193e-04 5.1591353469076376e-03 0.0000000000000000e+00  -1.4373554617171439e-04 5.2285940187949487e-03 0.0000000000000000e+00  -1.4217060824869829e-04 5.2987138960338262e-03 0.0000000000000000e+00  -1.4112242167180062e-04 5.3691700772010376e-03 0.0000000000000000e+00  -1.4050606316705949e-04 5.4389895142905216e-03 0.0000000000000000e+00  -1.4020933033531487e-04 5.5082056969714783e-03 0.0000000000000000e+00  -1.5925215976799620e-04 4.4917638323492617e-03 0.0000000000000000e+00  -1.4990921245628712e-04 4.4467176672672295e-03 0.0000000000000000e+00  -1.6894545939756008e-04 4.5375370177897839e-03 0.0000000000000000e+00  -1.7900349511674676e-04 4.5850609032466070e-03 0.0000000000000000e+00  -1.8922821416171253e-04 4.6355640283000741e-03 0.0000000000000000e+00  -1.9907748487455766e-04 4.6904493796299900e-03 0.0000000000000000e+00  -2.0750971879557694e-04 4.7507378148053427e-03 0.0000000000000000e+00  -2.1340986400692280e-04 4.8143686272080766e-03 0.0000000000000000e+00  -2.1686614009343327e-04 4.8814904568114902e-03 0.0000000000000000e+00  -2.1822591339806891e-04 4.9491705561432583e-03 0.0000000000000000e+00  -2.1751294372998877e-04 5.0219293355809949e-03 0.0000000000000000e+00  -2.1703758414820165e-04 5.0914892981032854e-03 0.0000000000000000e+00  -2.1685134641011435e-04 5.1583701458548792e-03 0.0000000000000000e+00  -2.1367158158568108e-04 5.2279091479038179e-03 0.0000000000000000e+00  -2.1115847369285426e-04 5.2980978626096407e-03 0.0000000000000000e+00  -2.0947365913071209e-04 5.3690193935412274e-03 0.0000000000000000e+00  -2.0846790609184949e-04 5.4387113385251156e-03 0.0000000000000000e+00  -2.0837499765344650e-04 5.5076459032341978e-03 0.0000000000000000e+00  -2.3127448663889304e-04 4.5155517200142839e-03 0.0000000000000000e+00  -2.2240320987252103e-04 4.4699087114566990e-03 0.0000000000000000e+00  -2.4032100769873102e-04 4.5617555459146761e-03 0.0000000000000000e+00  -2.4950673911163537e-04 4.6093011704661912e-03 0.0000000000000000e+00  -2.5862144458577006e-04 4.6590660588436538e-03 0.0000000000000000e+00  -2.6720659787986799e-04 4.7119439837225710e-03 0.0000000000000000e+00  -2.7453379241012551e-04 4.7684783566075408e-03 0.0000000000000000e+00  -2.7987866005029768e-04 4.8280502310037374e-03 0.0000000000000000e+00  -2.8306036489693701e-04 4.8908021140887077e-03 0.0000000000000000e+00  -2.8422479717793794e-04 4.9559465330211308e-03 0.0000000000000000e+00  -2.8457939208815928e-04 5.0229794248909830e-03 0.0000000000000000e+00  -2.8395194215058553e-04 5.0918857732019799e-03 0.0000000000000000e+00  -2.8358123553686999e-04 5.1584536239337626e-03 0.0000000000000000e+00  -2.8166684035912433e-04 5.2264621270203346e-03 0.0000000000000000e+00  -2.7891113621471584e-04 5.2966547166520116e-03 0.0000000000000000e+00  -2.7645336872397303e-04 5.3687867011918541e-03 0.0000000000000000e+00  -2.7459004782087027e-04 5.4387036774297733e-03 0.0000000000000000e+00  -2.7492326877826884e-04 5.5086977981188105e-03 0.0000000000000000e+00  -3.0339535445879042e-04 4.5386084031860960e-03 0.00000000000