<?xml version="1.0"?>
<VTKFile type="UnstructuredGrid"  version="0.1"  >
<UnstructuredGrid>
<Piece  NumberOfPoints="323" NumberOfCells="575">
<Points>
<DataArray  type="Float64"  NumberOfComponents="3"  format="ascii">0.3965217391304348 0 0  0.4295652173913043 0 0  0.4295652173913043 0.03333333333333333 0  0.4626086956521739 0 0  0.4626086956521739 0.03333333333333333 0  0.4956521739130435 0 0  0.4956521739130435 0.03333333333333333 0  0.528695652173913 0 0  0.528695652173913 0.03333333333333333 0  0.5617391304347825 0 0  0.5617391304347825 0.03333333333333333 0  0.5947826086956521 0 0  0.5947826086956521 0.03333333333333333 0  0.6278260869565218 0 0  0.6278260869565218 0.03333333333333333 0  0.6608695652173913 0 0  0.6608695652173913 0.03333333333333333 0  0.6939130434782609 0 0  0.6939130434782609 0.03333333333333333 0  0.7269565217391304 0 0  0.7269565217391304 0.03333333333333333 0  0.7599999999999999 0 0  0.7599999999999999 0.03333333333333333 0  0.7930434782608695 0 0  0.7930434782608695 0.03333333333333333 0  0.8260869565217391 0 0  0.8260869565217391 0.03333333333333333 0  0.8591304347826086 0 0  0.8591304347826086 0.03333333333333333 0  0.8921739130434783 0 0  0.8921739130434783 0.03333333333333333 0  0.9252173913043478 0 0  0.9252173913043478 0.03333333333333333 0  0.9582608695652173 0 0  0.9582608695652173 0.03333333333333333 0  0.991304347826087 0 0  0.991304347826087 0.03333333333333333 0  1.024347826086957 0 0  1.024347826086957 0.03333333333333333 0  1.057391304347826 0 0  1.057391304347826 0.03333333333333333 0  1.090434782608696 0.03333333333333333 0  0.4626086956521739 0.06666666666666667 0  0.4956521739130435 0.06666666666666667 0  0.528695652173913 0.06666666666666667 0  0.5617391304347825 0.06666666666666667 0  0.5947826086956521 0.06666666666666667 0  0.6278260869565218 0.06666666666666667 0  0.6608695652173913 0.06666666666666667 0  0.6939130434782609 0.06666666666666667 0  0.7269565217391304 0.06666666666666667 0  0.7599999999999999 0.06666666666666667 0  0.7930434782608695 0.06666666666666667 0  0.8260869565217391 0.06666666666666667 0  0.8591304347826086 0.06666666666666667 0  0.8921739130434783 0.06666666666666667 0  0.9252173913043478 0.06666666666666667 0  0.9582608695652173 0.06666666666666667 0  0.991304347826087 0.06666666666666667 0  1.024347826086957 0.06666666666666667 0  1.057391304347826 0.06666666666666667 0  1.090434782608696 0.06666666666666667 0  1.123478260869565 0.06666666666666667 0  0.4956521739130435 0.1 0  0.528695652173913 0.1 0  0.5617391304347825 0.1 0  0.5947826086956521 0.1 0  0.6278260869565218 0.1 0  0.6608695652173913 0.1 0  0.6939130434782609 0.1 0  0.7269565217391304 0.1 0  0.7599999999999999 0.1 0  0.7930434782608695 0.1 0  0.8260869565217391 0.1 0  0.8591304347826086 0.1 0  0.8921739130434783 0.1 0  0.9252173913043478 0.1 0  0.9582608695652173 0.1 0  0.991304347826087 0.1 0  1.024347826086957 0.1 0  1.057391304347826 0.1 0  1.090434782608696 0.1 0  1.123478260869565 0.1 0  0.528695652173913 0.1333333333333333 0  0.5617391304347825 0.1333333333333333 0  0.5947826086956521 0.1333333333333333 0  0.6278260869565218 0.1333333333333333 0  0.6608695652173913 0.1333333333333333 0  0.6939130434782609 0.1333333333333333 0  0.7269565217391304 0.1333333333333333 0  0.7599999999999999 0.1333333333333333 0  0.7930434782608695 0.1333333333333333 0  0.8260869565217391 0.1333333333333333 0  0.8591304347826086 0.1333333333333333 0  0.8921739130434783 0.1333333333333333 0  0.9252173913043478 0.1333333333333333 0  0.9582608695652173 0.1333333333333333 0  0.991304347826087 0.1333333333333333 0  1.024347826086957 0.1333333333333333 0  1.057391304347826 0.1333333333333333 0  1.090434782608696 0.1333333333333333 0  1.123478260869565 0.1333333333333333 0  1.156521739130435 0.1333333333333333 0  0.5617391304347825 0.1666666666666667 0  0.5947826086956521 0.1666666666666667 0  0.6278260869565218 0.1666666666666667 0  0.6608695652173913 0.1666666666666667 0  0.6939130434782609 0.1666666666666667 0  0.7269565217391304 0.1666666666666667 0  0.7599999999999999 0.1666666666666667 0  0.7930434782608695 0.1666666666666667 0  0.8260869565217391 0.1666666666666667 0  0.8591304347826086 0.1666666666666667 0  0.8921739130434783 0.1666666666666667 0  0.9252173913043478 0.1666666666666667 0  0.9582608695652173 0.1666666666666667 0  0.991304347826087 0.1666666666666667 0  1.024347826086957 0.1666666666666667 0  1.057391304347826 0.1666666666666667 0  1.090434782608696 0.1666666666666667 0  1.123478260869565 0.1666666666666667 0  1.156521739130435 0.1666666666666667 0  1.189565217391304 0.1666666666666667 0  0.5947826086956521 0.2 0  0.6278260869565218 0.2 0  0.6608695652173913 0.2 0  0.6939130434782609 0.2 0  0.7269565217391304 0.2 0  0.7599999999999999 0.2 0  0.7930434782608695 0.2 0  0.8260869565217391 0.2 0  0.8591304347826086 0.2 0  0.8921739130434783 0.2 0  0.9252173913043478 0.2 0  0.9582608695652173 0.2 0  0.991304347826087 0.2 0  1.024347826086957 0.2 0  1.057391304347826 0.2 0  1.090434782608696 0.2 0  1.123478260869565 0.2 0  1.156521739130435 0.2 0  1.189565217391304 0.2 0  1.222608695652174 0.2 0  0.6278260869565218 0.2333333333333333 0  0.6608695652173913 0.2333333333333333 0  0.6939130434782609 0.2333333333333333 0  0.7269565217391304 0.2333333333333333 0  0.7599999999999999 0.2333333333333333 0  0.7930434782608695 0.2333333333333333 0  0.8260869565217391 0.2333333333333333 0  0.8591304347826086 0.2333333333333333 0  0.8921739130434783 0.2333333333333333 0  0.9252173913043478 0.2333333333333333 0  0.9582608695652173 0.2333333333333333 0  0.991304347826087 0.2333333333333333 0  1.024347826086957 0.2333333333333333 0  1.057391304347826 0.2333333333333333 0  1.090434782608696 0.2333333333333333 0  1.123478260869565 0.2333333333333333 0  1.156521739130435 0.2333333333333333 0  1.189565217391304 0.2333333333333333 0  1.222608695652174 0.2333333333333333 0  1.255652173913044 0.2333333333333333 0  0.6608695652173913 0.2666666666666667 0  0.6939130434782609 0.2666666666666667 0  0.7269565217391304 0.2666666666666667 0  0.7599999999999999 0.2666666666666667 0  0.7930434782608695 0.2666666666666667 0  0.8260869565217391 0.2666666666666667 0  0.8591304347826086 0.2666666666666667 0  0.8921739130434783 0.2666666666666667 0  0.9252173913043478 0.2666666666666667 0  0.9582608695652173 0.2666666666666667 0  0.991304347826087 0.2666666666666667 0  1.024347826086957 0.2666666666666667 0  1.057391304347826 0.2666666666666667 0  1.090434782608696 0.2666666666666667 0  1.123478260869565 0.2666666666666667 0  1.156521739130435 0.2666666666666667 0  1.189565217391304 0.2666666666666667 0  1.222608695652174 0.2666666666666667 0  1.255652173913044 0.2666666666666667 0  1.288695652173913 0.2666666666666667 0  0.6939130434782609 0.3 0  0.7269565217391304 0.3 0  0.7599999999999999 0.3 0  0.7930434782608695 0.3 0  0.8260869565217391 0.3 0  0.8591304347826086 0.3 0  0.8921739130434783 0.3 0  0.9252173913043478 0.3 0  0.9582608695652173 0.3 0  0.991304347826087 0.3 0  1.024347826086957 0.3 0  1.057391304347826 0.3 0  1.090434782608696 0.3 0  1.123478260869565 0.3 0  1.156521739130435 0.3 0  1.189565217391304 0.3 0  1.222608695652174 0.3 0  1.255652173913044 0.3 0  1.288695652173913 0.3 0  1.321739130434783 0.3 0  0.7269565217391304 0.3333333333333333 0  0.7599999999999999 0.3333333333333333 0  0.7930434782608695 0.3333333333333333 0  0.8260869565217391 0.3333333333333333 0  0.8591304347826086 0.3333333333333333 0  0.8921739130434783 0.3333333333333333 0  0.9252173913043478 0.3333333333333333 0  0.9582608695652173 0.3333333333333333 0  0.991304347826087 0.3333333333333333 0  1.024347826086957 0.3333333333333333 0  1.057391304347826 0.3333333333333333 0  1.090434782608696 0.3333333333333333 0  1.123478260869565 0.3333333333333333 0  1.156521739130435 0.3333333333333333 0  1.189565217391304 0.3333333333333333 0  1.222608695652174 0.3333333333333333 0  1.255652173913044 0.3333333333333333 0  1.288695652173913 0.3333333333333333 0  1.321739130434783 0.3333333333333333 0  1.354782608695652 0.3333333333333333 0  0.7599999999999999 0.3666666666666666 0  0.7930434782608695 0.3666666666666666 0  0.8260869565217391 0.3666666666666666 0  0.8591304347826086 0.3666666666666666 0  0.8921739130434783 0.3666666666666666 0  0.9252173913043478 0.3666666666666666 0  0.9582608695652173 0.3666666666666666 0  0.991304347826087 0.3666666666666666 0  1.024347826086957 0.3666666666666666 0  1.057391304347826 0.3666666666666666 0  1.090434782608696 0.3666666666666666 0  1.123478260869565 0.3666666666666666 0  1.156521739130435 0.3666666666666666 0  1.189565217391304 0.3666666666666666 0  1.222608695652174 0.3666666666666666 0  1.255652173913044 0.3666666666666666 0  1.288695652173913 0.3666666666666666 0  1.321739130434783 0.3666666666666666 0  1.354782608695652 0.3666666666666666 0  1.387826086956522 0.3666666666666666 0  0.7930434782608695 0.4 0  0.8260869565217391 0.4 0  0.8591304347826086 0.4 0  0.8921739130434783 0.4 0  0.9252173913043478 0.4 0  0.9582608695652173 0.4 0  0.991304347826087 0.4 0  1.024347826086957 0.4 0  1.057391304347826 0.4 0  1.090434782608696 0.4 0  1.123478260869565 0.4 0  1.156521739130435 0.4 0  1.189565217391304 0.4 0  1.222608695652174 0.4 0  1.255652173913044 0.4 0  1.288695652173913 0.4 0  1.321739130434783 0.4 0  1.354782608695652 0.4 0  1.387826086956522 0.4 0  1.420869565217391 0.4 0  0.8260869565217391 0.4333333333333333 0  0.8591304347826086 0.4333333333333333 0  0.8921739130434783 0.4333333333333333 0  0.9252173913043478 0.4333333333333333 0  0.9582608695652173 0.4333333333333333 0  0.991304347826087 0.4333333333333333 0  1.024347826086957 0.4333333333333333 0  1.057391304347826 0.4333333333333333 0  1.090434782608696 0.4333333333333333 0  1.123478260869565 0.4333333333333333 0  1.156521739130435 0.4333333333333333 0  1.189565217391304 0.4333333333333333 0  1.222608695652174 0.4333333333333333 0  1.255652173913044 0.4333333333333333 0  1.288695652173913 0.4333333333333333 0  1.321739130434783 0.4
[...]
<PointData  Vectors="Displacement"> 
<DataArray  type="Float64"  Name="Displacement"  NumberOfComponents="3" format="ascii">7.0034106369051737e-05 3.4976460276569063e-04 0.0000000000000000e+00  7.0213161461926294e-05 3.7628216611213389e-04 0.0000000000000000e+00  4.5052488580083829e-05 3.7590990462108275e-04 0.0000000000000000e+00  7.0412525019832001e-05 3.9922128004079080e-04 0.0000000000000000e+00  4.7992403849746739e-05 3.9903336301007109e-04 0.0000000000000000e+00  7.0955358120969282e-05 4.1973725089352508e-04 0.0000000000000000e+00  4.9958567194277540e-05 4.1952967036313119e-04 0.0000000000000000e+00  7.2206800517393712e-05 4.3909388230467593e-04 0.0000000000000000e+00  5.1527642063118482e-05 4.3869588653584074e-04 0.0000000000000000e+00  7.4432538396242609e-05 4.5853198666449114e-04 0.0000000000000000e+00  5.3173030359052722e-05 4.5776629040200748e-04 0.0000000000000000e+00  7.7460983295591835e-05 4.7953565239242265e-04 0.0000000000000000e+00  5.5081373213230181e-05 4.7841246643503784e-04 0.0000000000000000e+00  8.0738617498028471e-05 5.0194733876315618e-04 0.0000000000000000e+00  5.7862778276564928e-05 5.0092706269083838e-04 0.0000000000000000e+00  8.4003640549466308e-05 5.2491173352104054e-04 0.0000000000000000e+00  6.0642011587464861e-05 5.2389938263205514e-04 0.0000000000000000e+00  8.7248299835761568e-05 5.4833257411702574e-04 0.0000000000000000e+00  6.3442535292105096e-05 5.4731672409101377e-04 0.0000000000000000e+00  9.0472506417684111e-05 5.7218758391524953e-04 0.0000000000000000e+00  6.6264613795371450e-05 5.7116329783202279e-04 0.0000000000000000e+00  9.3661023127310583e-05 5.9642983299217469e-04 0.0000000000000000e+00  6.9127862401056713e-05 5.9540806117612728e-04 0.0000000000000000e+00  9.6811055348869306e-05 6.2093285560757474e-04 0.0000000000000000e+00  7.2046206046047867e-05 6.1991625884904309e-04 0.0000000000000000e+00  9.9935781520182551e-05 6.4560659100627263e-04 0.0000000000000000e+00  7.5001237278110187e-05 6.4458921374519428e-04 0.0000000000000000e+00  1.0304074571823380e-04 6.7042680001950573e-04 0.0000000000000000e+00  7.7973515904677357e-05 6.6940993067590205e-04 0.0000000000000000e+00  1.0612654332123178e-04 6.9536140700837028e-04 0.0000000000000000e+00  8.0960731729176624e-05 6.9434524665244659e-04 0.0000000000000000e+00  1.0919320714932055e-04 7.2037693645775661e-04 0.0000000000000000e+00  8.3962717757023677e-05 7.1936150011421768e-04 0.0000000000000000e+00  1.1224072806599894e-04 7.4543979774332645e-04 0.0000000000000000e+00  8.6979466800798314e-05 7.4442508741957597e-04 0.0000000000000000e+00  1.1526909361089507e-04 7.7051637136732259e-04 0.0000000000000000e+00  9.0010985805414771e-05 7.6950238803541687e-04 0.0000000000000000e+00  1.1827829158045137e-04 7.9557301561958250e-04 0.0000000000000000e+00  9.3057283196365610e-05 7.9455976013829239e-04 0.0000000000000000e+00  1.2126831061761403e-04 8.2057606822359252e-04 0.0000000000000000e+00  9.6118367199390337e-05 8.1956354139065240e-04 0.0000000000000000e+00  9.9194245426612165e-05 8.4448005067293329e-04 0.0000000000000000e+00  2.8221926021605574e-05 3.9880348694366343e-04 0.0000000000000000e+00  3.0242755423882715e-05 4.1942336446914848e-04 0.0000000000000000e+00  3.1438410302846630e-05 4.3853458320484133e-04 0.0000000000000000e+00  3.2157878708847375e-05 4.5697468109590674e-04 0.0000000000000000e+00  3.3122280855241887e-05 4.7694672680744101e-04 0.0000000000000000e+00  3.4794056489788005e-05 4.9990177267122753e-04 0.0000000000000000e+00  3.7344947537658016e-05 5.2299011791745475e-04 0.0000000000000000e+00  3.9755932389832166e-05 5.4640374638397220e-04 0.0000000000000000e+00  4.2057020162184382e-05 5.7023464329761947e-04 0.0000000000000000e+00  4.4320218529671934e-05 5.9444753590881462e-04 0.0000000000000000e+00  4.7093340901936926e-05 6.1894562159682054e-04 0.0000000000000000e+00  5.0091923501190584e-05 6.4360551181874353e-04 0.0000000000000000e+00  5.2933907134478356e-05 6.6842039920920516e-04 0.0000000000000000e+00  5.5806628305194745e-05 6.9335075138564947e-04 0.0000000000000000e+00  5.8727097310105180e-05 7.1836209250911783e-04 0.0000000000000000e+00  6.1696125145185366e-05 7.4342076971818064e-04 0.0000000000000000e+00  6.4713820281928755e-05 7.6849315810353306e-04 0.0000000000000000e+00  6.7780225158545554e-05 7.9354561541355507e-04 0.0000000000000000e+00  7.0895372141895768e-05 8.1854447942584412e-04 0.0000000000000000e+00  7.4059288265494039e-05 8.4345606925203512e-04 0.0000000000000000e+00  7.7271998598320638e-05 8.6824668685311066e-04 0.0000000000000000e+00  1.3179909464617521e-05 4.2001054702715357e-04 0.0000000000000000e+00  1.3786690515561258e-05 4.3885202282155074e-04 0.0000000000000000e+00  1.4134368898671048e-05 4.5635733653968719e-04 0.0000000000000000e+00  1.4491658910050100e-05 4.7280849711670632e-04 0.0000000000000000e+00  1.6125093162072206e-05 4.9200821725095306e-04 0.0000000000000000e+00  1.9033659576403212e-05 5.1357654450278451e-04 0.0000000000000000e+00  2.2315031609398237e-05 5.3613916344218973e-04 0.0000000000000000e+00  2.5773145852275775e-05 5.5929718596071823e-04 0.0000000000000000e+00  2.9442601262584209e-05 5.8293377658855659e-04 0.0000000000000000e+00  3.3399871185464321e-05 6.0695363691345180e-04 0.0000000000000000e+00  3.7492162611842854e-05 6.3160930283864781e-04 0.0000000000000000e+00  4.1474483864918981e-05 6.5682890358574446e-04 0.0000000000000000e+00  4.5257156830014853e-05 6.8233632816434072e-04 0.0000000000000000e+00  4.8857272134885241e-05 7.0800440192871712e-04 0.0000000000000000e+00  5.2315416663639094e-05 7.3375676171687167e-04 0.0000000000000000e+00  5.5668523871726099e-05 7.5955104154364886e-04 0.0000000000000000e+00  5.8939321566598964e-05 7.8536065781754016e-04 0.0000000000000000e+00  6.2135827552847145e-05 8.1116190866705384e-04 0.0000000000000000e+00  6.5254784142775637e-05 8.3692749692802727e-04 0.0000000000000000e+00  6.8285333920962334e-05 8.6262392088645484e-04 0.0000000000000000e+00  -1.7606179181487870e-06 4.3985538019220883e-04 0.0000000000000000e+00  -1.5110206393611590e-06 4.5631473139773094e-04 0.0000000000000000e+00  -1.3980348792169133e-06 4.7128052378935599e-04 0.0000000000000000e+00  -1.4564592789015264e-06 4.8312184285945555e-04 0.0000000000000000e+00  2.0430560302002478e-06 5.0349081161820851e-04 0.0000000000000000e+00  5.9601513961288917e-06 5.2512334957062771e-04 0.0000000000000000e+00  1.0182430750026660e-05 5.4751149185682706e-04 0.0000000000000000e+00  1.4737368441439794e-05 5.7048747065729661e-04 0.0000000000000000e+00  1.9679105792283011e-05 5.9403826205642600e-04 0.0000000000000000e+00  2.4694008891143129e-05 6.1878977330128077e-04 0.0000000000000000e+00  2.9464082688076690e-05 6.4454538329399090e-04 0.0000000000000000e+00  3.3877065494520703e-05 6.7080410102750765e-04 0.0000000000000000e+00  3.7947715358125242e-05 6.9727855220822269e-04 0.0000000000000000e+00  4.1738166235604742e-05 7.2384334457939903e-04 0.0000000000000000e+00  4.5303131071970792e-05 7.5045767017003964e-04 0.0000000000000000e+00  4.8673875423505720e-05 7.7711357039742261e-04 0.0000000000000000e+00  5.1859722620177684e-05 8.0380582887111291e-04 0.0000000000000000e+00  5.4854586849217286e-05 8.3051898386802441e-04 0.0000000000000000e+00  5.7642451099192297e-05 8.5722333780892477e-04 0.0000000000000000e+00  6.0200557088291892e-05 8.8387354456392778e-04 0.0000000000000000e+00  -1.4898993753267289e-05 4.5669387526813969e-04 0.0000000000000000e+00  -1.4427326769413366e-05 4.7086548375255342e-04 0.0000000000000000e+00  -1.4208788383654037e-05 4.8270169102923794e-04 0.0000000000000000e+00  -1.4318422453525159e-05 4.9251848744817758e-04 0.0000000000000000e+00  -9.6332594526256884e-06 5.1345514399276943e-04 0.0000000000000000e+00  -4.8696481929333645e-06 5.3508694595996535e-04 0.0000000000000000e+00  2.2832412697692951e-07 5.5728558563661833e-04 0.0000000000000000e+00  5.9530227264315481e-06 5.8012753237292965e-04 0.0000000000000000e+00  1.1730616254972578e-05 6.0513144600793747e-04 0.0000000000000000e+00  1.7058319404558414e-05 6.3169903208225092e-04 0.0000000000000000e+00  2.1850217980714746e-05 6.5889999009294882e-04 0.0000000000000000e+00  2.6180017753975614e-05 6.8630770497365426e-04 0.0000000000000000e+00  3.0138542571361620e-05 7.1377329059797538e-04 0.0000000000000000e+00  3.3787849473358192e-05 7.4128038903502076e-04 0.0000000000000000e+00  3.7154647285095773e-05 7.6885394949807555e-04 0.0000000000000000e+00  4.0240961773151044e-05 7.9651310809856449e-04 0.0000000000000000e+00  4.3036350003519263e-05 8.2425566681889912e-04 0.0000000000000000e+00  4.5524369109560875e-05 8.5205674938461970e-04 0.0000000000000000e+00  4.7682569670168360e-05 8.7986945649139116e-04 0.0000000000000000e+00  4.9481305560406041e-05 9.0761881571161307e-04 0.0000000000000000e+00  -2.5734333923014346e-05 4.7090021617256315e-04 0.0000000000000000e+00  -2.4841812657466316e-05 4.8257842909466605e-04 0.0000000000000000e+00  -2.4427274636879419e-05 4.9248129628558365e-04 0.0000000000000000e+00  -2.4219198696101669e-05 5.0120167007404925e-04 0.0000000000000000e+00  -1.9185271364707089e-05 5.2228512914653769e-04 0.0000000000000000e+00  -1.4079957386897723e-05 5.4349015002147028e-04 0.0000000000000000e+00  -7.7825310096295214e-06 5.6500749727733440e-04 0.0000000000000000e+00  -1.3798456365950646e-06 5.9056923652659962e-04 0.0000000000000000e+00  4.2907221911913388e-06 6.1839622943545415e-04 0.0000000000000000e+00  9.2421086144060779e-06 6.4677217359636015e-04 0.0000000000000000e+00  1.3649802151209684e-05 6.7522014979599335e-04 0.0000000000000000e+00  1.7638308889129274e-05 7.0364045378103646e-04 0.0000000000000000e+00  2.1264528666698731e-05 7.3208438661345060e-04 0.0000000000000000e+00  2.4535250304430372e-05 7.6062906569725414e-04 0.0000000000000000e+00  2.7434949072956189e-05 7.8932032474236932e-04 0.0000000000000000e+00  2.9947155681746862e-05 8.1816440167258844e-04 0.0000000000000000e+00  3.2062219912827002e-05 8.4713798651432474e-04 0.0000000000000000e+00  3.3769592142842661e-05 8.7619699921804163e-04 0.0000000000000000e+00  3.5043904567628331e-05 9.0526769534657228e-04 0.0000000000000000e+00  3.5846351736242266e-05 9.3420481904439015e-04 0.0000000000000000e+00  -3.3660881003451445e-05 4.8271907819408895e-04 0.0000000000000000e+00  -3.2902756872440540e-05 4.9241839079855541e-04 0.0000000000000000e+00  -3.2287132489862910e-05 5.0129026779495000e-04 0.0000000000000000e+00  -3.1765222660797174e-05 5.0980542504633504e-04 0.0000000000000000e+00  -2.8014110944208223e-05 5.2960869306925736e-04 0.0000000000000000e+00  -2.1785000099668275e-05 5.4812924547206017e-04 0.0000000000000000e+00  -1.4823699001241200e-05 5.7496282265970006e-04 0.0000000000000000e+00  -8.9673727773239670e-06 6.0478613909295380e-04 0.0000000000000000e+00  -4.0006440755447364e-06 6.3457448971276692e-04 0.0000000000000000e+00  3.8265165461855276e-07 6.6413084485116101e-04 0.0000000000000000e+00  4.3266061663349337e-06 6.9351867801987035e-04 0.0000000000000000e+00  7.8658516257879902e-06 7.2291749610098983e-04 0.0000000000000000e+00  1.0970472992850834e-05 7.5247815562334321e-04 0.0000000000000000e+00  1.3596727624073074e-05 7.8226814847666176e-04 0.0000000000000000e+00  1.5721031210299167e-05 8.1228666413703644e-04 0.0000000000000000e+00  1.7351046774897581e-05 8.4249913905749449e-04 0.0000000000000000e+00  1.8510018276356700e-05 8.7287001882637523e-04 0.0000000000000000e+00  1.9193291317239812e-05 9.0335319328393440e-04 0.0000000000000000e+00  1.9354200021238970e-05 9.3381202904377380e-04 0.0000000000000000e+00  1.8917808331786924e-05 9.6390711105493344e-04 0.0000000000000000e+00  -4.0570679282186767e-05 4.9253691704730584e-04 0.0000000000000000e+00  -3.9998585793288381e-05 5.0123812204808397e-04 0.0000000000000000e+00  -3.9391034329299863e-05 5.0982753421234376e-04 0.0000000000000000e+00  -3.8762395647734504e-05 5.1857297607673346e-04 0.0000000000000000e+00  -3.8359579620053264e-05 5.2779536718436696e-04 0.0000000000000000e+00  -2.9476472378070860e-05 5.5797326207992235e-04 0.0000000000000000e+00  -2.3093736118280745e-05 5.9108454269236877e-04 0.0000000000000000e+00  -1.8004414982102578e-05 6.2244270996950448e-04 0.0000000000000000e+00  -1.3597155766492036e-05 6.5311680910947541e-04 0.0000000000000000e+00  -9.6819300960253131e-06 6.8344095253609146e-04 0.0000000000000000e+00  -6.2406270190284085e-06 7.1379605635392407e-04 0.0000000000000000e+00  -3.3490253514499221e-06 7.4442735924378487e-04 0.0000000000000000e+00  -1.0882305231939698e-06 7.7540647224819939e-04 0.0000000000000000e+00  5.0930609698183033e-07 8.0669480849880583e-04 0.0000000000000000e+00  1.4777741941965045e-06 8.3821684167849418e-04 0.0000000000000000e+00  1.8977920928938387e-06 8.6993858804754415e-04 0.0000000000000000e+00  1.8360560564095363e-06 9.0190408926029092e-04 0.0000000000000000e+00  1.2252188385163774e-06 9.3403999856558602e-04 0.0000000000000000e+00  -5.0642453210404996e-08 9.6606031464063996e-04 0.0000000000000000e+00  -1.3905647440438529e-06 9.9530712000405852e-04 0.0000000000000000e+00  -4.7624935835583468e-05 5.0126053484658782e-04 0.0000000000000000e+00  -4.7083246214197444e-05 5.0982720277525158e-04 0.0000000000000000e+00  -4.6526203986288664e-05 5.1865132661093325e-04 0.0000000000000000e+00  -4.6021976046960654e-05 5.2821538088282448e-04 0.0000000000000000e+00  -4.5516401028075699e-05 5.3895734425735749e-04 0.0000000000000000e+00  -3.7995523564803441e-05 5.7769561613594980e-04 0.0000000000000000e+00  -3.2583007399628642e-05 6.1046437292273882e-04 0.0000000000000000e+00  -2.8060552305641023e-05 6.4221207088205410e-04 0.0000000000000000e+00  -2.4139466236385878e-05 6.7339423953202400e-04 0.0000000000000000e+00  -2.0793360685445512e-05 7.0469930921876445e-04 0.0000000000000000e+00  -1.8158151132539837e-05 7.3648776644277586e-04 0.0000000000000000e+00  -1.6369374357785069e-05 7.6879906049460880e-04 0.0000000000000000e+00  -1.5478714624143335e-05 8.0150598111430654e-04 0.0000000000000000e+00  -1.5422573914078654e-05 8.3444205630122900e-04 0.0000000000000000e+00  -1.6057067642156425e-05 8.6754398742230009e-04 0.0000000000000000e+00  -1.7228079354261960e-05 9.0096118124319128e-04 0.0000000000000000e+00  -1.8776258694083483e-05 9.3498546194152718e-04 0.0000000000000000e+00  -2.1302002223751616e-05 9.6921649163584657e-04 0.0000000000000000e+00  -2.1973810053206764e-05 9.9901249070896746e-04 0.0000000000000000e+00  -2.2120212601137905e-05 1.0222772095388299e-03 0.0000000000000000e+00  -5.5006941973992590e-05 5.0985556498441659e-04 0.0000000000000000e+00  -5.4766916618761894e-05 5.1855118662689039e-04 0.0000000000000000e+00  -5.4410979823773992e-05 5.2867310409240289e-04 0.0000000000000000e+00  -5.4301593506861354e-05 5.3947490289262218e-04 0.0000000000000000e+00  -5.2105389757662007e-05 5.6601533252600891e-04 0.0000000000000000e+00  -4.6857949021140511e-05 5.9876271902865169e-04 0.0000000000000000e+00  -4.2445822866310319e-05 6.3149691065350014e-04 0.0000000000000000e+00  -3.8630354670784774e-05 6.6335194536592276e-04 0.0000000000000000e+00  -3.5428194983781285e-05 6.9557673439740600e-04 0.0000000000000000e+00  -3.3112080260559772e-05 7.2865401214897369e-04 0.0000000000000000e+00  -3.1913843449778578e-05 7.6252076819705646e-04 0.0000000000000000e+00  -3.1934489075578555e-05 7.9688330369137453e-04 0.0000000000000000e+00  -3.3092274760938456e-05 8.3139981489594112e-04 0.0000000000000000e+00  -3.5166991916907080e-05 8.6595141722606891e-04 0.0000000000000000e+00  -3.7995057974182697e-05 9.0076979817376162e-04 0.0000000000000000e+00  -4.1291549714884644e-05 9.3618740320973285e-04 0.0000000000000000e+00  -4.3854736431648861e-05 9.7400658477380558e-04 0.0000000000000000e+00  -4.3640391805926972e-05 9.9726697152727650e-04 0.0000000000000000e+00  -4.3931379841468253e-05 1.0217862535459952e-03 0.0000000000000000e+00  -4.4261900113791806e-05 1.0452380438337600e-03 0.0000000000000000e+00  -6.3874496777713548e-05 5.1812310174294946e-04 0.0000000000000000e+00  -6.3673577828228880e-05 5.2888752660933569e-04 0.0000000000000000e+00  -6.3381533779160868e-05 5.4075198086197488e-04 0.0000000000000000e+00  -6.3495769703755350e-05 5.5447262711821931e-04 0.0000000000000000e+00  -5.9642308374474220e-05 5.8744459831706344e-04 0.0000000000000000e+00  -5.6195149055245163e-05 6.2124569097402450e-04 0.0000000000000000e+00  -5.2758991711098582e-05 6.5328927854761015e-04 0.0000000000000000e+00  -4.9766278080941233e-05 6.8634011713998599e-04 0.0000000000000000e+00  -4.7832647806219880e-05 7.2088946527548172e-04 0.0000000000000000e+00  -4.7324040388730056e-05 7.5662585950694275e-04 0.0000000000000000e+00  -4.8401041831516691e-05 7.9299679573322087e-04 0.0000000000000000e+00  -5.0998807350175797e-05 8.2931842682016548e-04 0.0000000000000000e+00  -5.4759919099861562e-05 8.6530800955868508e-04 0.0000000000000000e+00  -5.9248705287846374e-05 9.0144470784101849e-04 0.0000000000000000e+00  -6.4079904198397356e-05 9.3736834682083101e-04 0.0000000000000000e+00  -6.7273035153345679e-05 9.7184215379199498e-04 0.0000000000000000e+00  -6.7089600628683624e-05 9.9660625395047320e-04 0.0000000000000000e+00  -6.7057646242269840e-05 1.0213609056712821e-03 0.0000000000000000e+00  -6.7136983185164565e-05 1.0455251478312677e-03 0.0000000000000000e+00  -6.7217848621244894e-05 1.0678962655429917e-03 0.0000000000000000e+00  -7.4932859659969221e-05 5.2879455833747648e-04 0.0000000000000000e+00  -7.4687375393903433e-05 5.4173424417503879e-04 0.0000000000000000e+00  -7.4067042069150824e-05 5.5719882233947100e-04 0.0000000000000000e+00  -7.2975819932544087e-05 5.7649935786397409e-04 0.0000000000000000e+00  -7.0089057035683047e-05 6.1185701574085344e-04 0.0000000000000000e+00  -6.6473241904394979e-05 6.4301148336727218e-04 0.0000000000000000e+00  -6.3483567242373355e-05 6.7680526114143492e-04 0.0000000000000000e+00  -6.1974352116993291e-05 7.1312169051773744e-04 0.0000000000000000e+00  -6.2280098975657849e-05 7.5113124783239126e-04 0.0000000000000000e+00  -6.4505824117157552e-05 7.8998955124901947e-04 0.0000000000000000e+00  -6.8618528841467755e-05 8.2855530749027480e-04 0.0000000000000000e+00  -7.4532423424216842e-05 8.6598279229502836e-04 0.0000000000000000e+00  -8.1414345541419930e-05 9.0306855610507684e-04 0.0000000000000000e+00  -8.7197413780408455e-05 9.3962358392385306e-04 0.0000000000000000e+00  -9.0585153701552802e-05 9.6895036790494154e-04 0.0000000000000000e+00  -9.0955586415345901e-05 9.9559664733244032e-04 0.0000000000000000e+00  -9.1146275222038069e-05 1.0210603690452011e-03 0.0000000000000000e+00  -9.1320595961168679e-05 1.0462880554268164e-03 0.0000000000000000e+00  -9.1659883789127640e-05 1.0706646619375645e-03 0.0000000000000000e+00  -9.3534098623392970e-05 1.0981445347017027e-03 0.0000000000000000e+00  -8.8587931484319376e-05 5.4215310249973534e-04 0.0000000000000000e+00  -8.8807512826726185e-05 5.5799668554524400e-04 0.0000000000000000e+00  -8.8001006741100489e-05 5.7763060604710094e-04 0.0000000000000000e+00  -8.5431625299471899e-05 6.0298691392275075e-04 0.0000000000000000e+00  -7.8529530639044078e-05 6.3181980506629254e-04 0.0000000000000000e+00  -7.5677373782619657e-05 6.6674644881676702e-04 0.0000000000000000e+00  -7.5166927682226601e-05 7.0528991590397962e-04 0.0000000000000000e+00  -7.6578274259640617e-05 7.4609085641917758e-04 0.0000000000000000e+00  -8.0206470948787330e-05 7.8784395384667448e-04 0.0000000000000000e+00  -8.5442005408016956e-05 8.2924361785200417e-04 0.0000000000000000e+00  -9.3011314806736676e-05 8.6909635258748230e-04 0.0000000000000000e+00  -1.0466403328308989e-04 9.0638910762237440e-04 0.0000000000000000e+00  -1.1257304269333594e-04 9.3974395738328554e-04 0.0000000000000000e+00  -1.1465276039753530e-04 9.6824458914761431e-04 0.0000000000000000e+00  -1.1615740401992008e-04 9.9512980568729681e-04 0.0000000000000000e+00  -1.1695991513981961e-04 1.0210441306026563e-03 0.0000000000000000e+00  -1.1751929366896878e-04 1.0472359559705747e-03 0.0000000000000000e+00  -1.1811416319113007e-04 1.0753112897971249e-03 0.0000000000000000e+00  -1.2056740893510892e-04 1.1038105318945317e-03 0.0000000000000000e