<?xml version="1.0"?>
<VTKFile type="UnstructuredGrid"  version="0.1"  >
<UnstructuredGrid>
<Piece  NumberOfPoints="319" NumberOfCells="567">
<Points>
<DataArray  type="Float64"  NumberOfComponents="3"  format="ascii">1.850434782608696 0 0  1.883478260869565 0 0  1.883478260869565 0.03333333333333333 0  1.916521739130435 0 0  1.916521739130435 0.03333333333333333 0  1.949565217391304 0 0  1.949565217391304 0.03333333333333333 0  1.982608695652174 0 0  1.982608695652174 0.03333333333333333 0  2.015652173913043 0 0  2.015652173913043 0.03333333333333333 0  2.048695652173913 0 0  2.048695652173913 0.03333333333333333 0  2.081739130434782 0 0  2.081739130434782 0.03333333333333333 0  2.114782608695652 0 0  2.114782608695652 0.03333333333333333 0  2.147826086956522 0 0  2.147826086956522 0.03333333333333333 0  2.180869565217391 0 0  2.180869565217391 0.03333333333333333 0  2.213913043478261 0 0  2.213913043478261 0.03333333333333333 0  2.24695652173913 0 0  2.24695652173913 0.03333333333333333 0  2.28 0 0  2.28 0.03333333333333333 0  2.31304347826087 0 0  2.31304347826087 0.03333333333333333 0  2.346086956521739 0 0  2.346086956521739 0.03333333333333333 0  2.379130434782609 0 0  2.379130434782609 0.03333333333333333 0  2.412173913043478 0 0  2.412173913043478 0.03333333333333333 0  2.445217391304348 0 0  2.445217391304348 0.03333333333333333 0  2.478260869565217 0 0  2.478260869565217 0.03333333333333333 0  1.916521739130435 0.06666666666666667 0  1.883478260869565 0.06666666666666667 0  1.949565217391304 0.06666666666666667 0  1.982608695652174 0.06666666666666667 0  2.015652173913043 0.06666666666666667 0  2.048695652173913 0.06666666666666667 0  2.081739130434782 0.06666666666666667 0  2.114782608695652 0.06666666666666667 0  2.147826086956522 0.06666666666666667 0  2.180869565217391 0.06666666666666667 0  2.213913043478261 0.06666666666666667 0  2.24695652173913 0.06666666666666667 0  2.28 0.06666666666666667 0  2.31304347826087 0.06666666666666667 0  2.346086956521739 0.06666666666666667 0  2.379130434782609 0.06666666666666667 0  2.412173913043478 0.06666666666666667 0  2.445217391304348 0.06666666666666667 0  2.478260869565217 0.06666666666666667 0  1.916521739130435 0.1 0  1.883478260869565 0.1 0  1.949565217391304 0.1 0  1.982608695652174 0.1 0  2.015652173913043 0.1 0  2.048695652173913 0.1 0  2.081739130434782 0.1 0  2.114782608695652 0.1 0  2.147826086956522 0.1 0  2.180869565217391 0.1 0  2.213913043478261 0.1 0  2.24695652173913 0.1 0  2.28 0.1 0  2.31304347826087 0.1 0  2.346086956521739 0.1 0  2.379130434782609 0.1 0  2.412173913043478 0.1 0  2.445217391304348 0.1 0  2.478260869565217 0.1 0  1.916521739130435 0.1333333333333333 0  1.883478260869565 0.1333333333333333 0  1.949565217391304 0.1333333333333333 0  1.982608695652174 0.1333333333333333 0  2.015652173913043 0.1333333333333333 0  2.048695652173913 0.1333333333333333 0  2.081739130434782 0.1333333333333333 0  2.114782608695652 0.1333333333333333 0  2.147826086956522 0.1333333333333333 0  2.180869565217391 0.1333333333333333 0  2.213913043478261 0.1333333333333333 0  2.24695652173913 0.1333333333333333 0  2.28 0.1333333333333333 0  2.31304347826087 0.1333333333333333 0  2.346086956521739 0.1333333333333333 0  2.379130434782609 0.1333333333333333 0  2.412173913043478 0.1333333333333333 0  2.445217391304348 0.1333333333333333 0  2.478260869565217 0.1333333333333333 0  2.511304347826087 0.1333333333333333 0  1.916521739130435 0.1666666666666667 0  1.883478260869565 0.1666666666666667 0  1.949565217391304 0.1666666666666667 0  1.982608695652174 0.1666666666666667 0  2.015652173913043 0.1666666666666667 0  2.048695652173913 0.1666666666666667 0  2.081739130434782 0.1666666666666667 0  2.114782608695652 0.1666666666666667 0  2.147826086956522 0.1666666666666667 0  2.180869565217391 0.1666666666666667 0  2.213913043478261 0.1666666666666667 0  2.24695652173913 0.1666666666666667 0  2.28 0.1666666666666667 0  2.31304347826087 0.1666666666666667 0  2.346086956521739 0.1666666666666667 0  2.379130434782609 0.1666666666666667 0  2.412173913043478 0.1666666666666667 0  2.445217391304348 0.1666666666666667 0  2.478260869565217 0.1666666666666667 0  2.511304347826087 0.1666666666666667 0  1.916521739130435 0.2 0  1.883478260869565 0.2 0  1.949565217391304 0.2 0  1.982608695652174 0.2 0  2.015652173913043 0.2 0  2.048695652173913 0.2 0  2.081739130434782 0.2 0  2.114782608695652 0.2 0  2.147826086956522 0.2 0  2.180869565217391 0.2 0  2.213913043478261 0.2 0  2.24695652173913 0.2 0  2.28 0.2 0  2.31304347826087 0.2 0  2.346086956521739 0.2 0  2.379130434782609 0.2 0  2.412173913043478 0.2 0  2.445217391304348 0.2 0  2.478260869565217 0.2 0  2.511304347826087 0.2 0  1.916521739130435 0.2333333333333333 0  1.883478260869565 0.2333333333333333 0  1.949565217391304 0.2333333333333333 0  1.982608695652174 0.2333333333333333 0  2.015652173913043 0.2333333333333333 0  2.048695652173913 0.2333333333333333 0  2.081739130434782 0.2333333333333333 0  2.114782608695652 0.2333333333333333 0  2.147826086956522 0.2333333333333333 0  2.180869565217391 0.2333333333333333 0  2.213913043478261 0.2333333333333333 0  2.24695652173913 0.2333333333333333 0  2.28 0.2333333333333333 0  2.31304347826087 0.2333333333333333 0  2.346086956521739 0.2333333333333333 0  2.379130434782609 0.2333333333333333 0  2.412173913043478 0.2333333333333333 0  2.445217391304348 0.2333333333333333 0  2.478260869565217 0.2333333333333333 0  2.511304347826087 0.2333333333333333 0  1.916521739130435 0.2666666666666667 0  1.883478260869565 0.2666666666666667 0  1.949565217391304 0.2666666666666667 0  1.982608695652174 0.2666666666666667 0  2.015652173913043 0.2666666666666667 0  2.048695652173913 0.2666666666666667 0  2.081739130434782 0.2666666666666667 0  2.114782608695652 0.2666666666666667 0  2.147826086956522 0.2666666666666667 0  2.180869565217391 0.2666666666666667 0  2.213913043478261 0.2666666666666667 0  2.24695652173913 0.2666666666666667 0  2.28 0.2666666666666667 0  2.31304347826087 0.2666666666666667 0  2.346086956521739 0.2666666666666667 0  2.379130434782609 0.2666666666666667 0  2.412173913043478 0.2666666666666667 0  2.445217391304348 0.2666666666666667 0  2.478260869565217 0.2666666666666667 0  2.511304347826087 0.2666666666666667 0  1.916521739130435 0.3 0  1.883478260869565 0.3 0  1.949565217391304 0.3 0  1.982608695652174 0.3 0  2.015652173913043 0.3 0  2.048695652173913 0.3 0  2.081739130434782 0.3 0  2.114782608695652 0.3 0  2.147826086956522 0.3 0  2.180869565217391 0.3 0  2.213913043478261 0.3 0  2.24695652173913 0.3 0  2.28 0.3 0  2.31304347826087 0.3 0  2.346086956521739 0.3 0  2.379130434782609 0.3 0  2.412173913043478 0.3 0  2.445217391304348 0.3 0  2.478260869565217 0.3 0  2.511304347826087 0.3 0  2.544347826086956 0.3 0  1.916521739130435 0.3333333333333333 0  1.949565217391304 0.3333333333333333 0  1.982608695652174 0.3333333333333333 0  2.015652173913043 0.3333333333333333 0  2.048695652173913 0.3333333333333333 0  2.081739130434782 0.3333333333333333 0  2.114782608695652 0.3333333333333333 0  2.147826086956522 0.3333333333333333 0  2.180869565217391 0.3333333333333333 0  2.213913043478261 0.3333333333333333 0  2.24695652173913 0.3333333333333333 0  2.28 0.3333333333333333 0  2.31304347826087 0.3333333333333333 0  2.346086956521739 0.3333333333333333 0  2.379130434782609 0.3333333333333333 0  2.412173913043478 0.3333333333333333 0  2.445217391304348 0.3333333333333333 0  2.478260869565217 0.3333333333333333 0  2.511304347826087 0.3333333333333333 0  2.544347826086956 0.3333333333333333 0  1.949565217391304 0.3666666666666666 0  1.916521739130435 0.3666666666666666 0  1.982608695652174 0.3666666666666666 0  2.015652173913043 0.3666666666666666 0  2.048695652173913 0.3666666666666666 0  2.081739130434782 0.3666666666666666 0  2.114782608695652 0.3666666666666666 0  2.147826086956522 0.3666666666666666 0  2.180869565217391 0.3666666666666666 0  2.213913043478261 0.3666666666666666 0  2.24695652173913 0.3666666666666666 0  2.28 0.3666666666666666 0  2.31304347826087 0.3666666666666666 0  2.346086956521739 0.3666666666666666 0  2.379130434782609 0.3666666666666666 0  2.412173913043478 0.3666666666666666 0  2.445217391304348 0.3666666666666666 0  2.478260869565217 0.3666666666666666 0  2.511304347826087 0.3666666666666666 0  2.544347826086956 0.3666666666666666 0  1.949565217391304 0.4 0  1.916521739130435 0.4 0  1.982608695652174 0.4 0  2.015652173913043 0.4 0  2.048695652173913 0.4 0  2.081739130434782 0.4 0  2.114782608695652 0.4 0  2.147826086956522 0.4 0  2.180869565217391 0.4 0  2.213913043478261 0.4 0  2.24695652173913 0.4 0  2.28 0.4 0  2.31304347826087 0.4 0  2.346086956521739 0.4 0  2.379130434782609 0.4 0  2.412173913043478 0.4 0  2.445217391304348 0.4 0  2.478260869565217 0.4 0  2.511304347826087 0.4 0  2.544347826086956 0.4 0  1.949565217391304 0.4333333333333333 0  1.982608695652174 0.4333333333333333 0  2.015652173913043 0.4333333333333333 0  2.048695652173913 0.4333333333333333 0  2.081739130434782 0.4333333333333333 0  2.114782608695652 0.4333333333333333 0  2.147826086956522 0.4333333333333333 0  2.180869565217391 0.4333333333333333 0  2.213913043478261 0.4333333333333333 0  2.24695652173913 0.4333333333333333 0  2.28 0.4333333333333333 0  2.31304347826087 0.4333333333333333 0  2.346086956521739 0.4333333333333333 0  2.379130434782609 0.4333333333333333 0  2.412173913043478 0.4333333333333333 0  2.445217391304348 0.4333333333333333 0  2.478260869565217 0.4333333333333333 0  2.511304347826087 0.4333333333333333 0  2.544347826086956 0.4333333333333333 0  2.577391304347826 0.4333333333333333 0  1.982608695652174 0.4666666666666667 0  1.949565217391304 0.4666666666666667 0  2.015652173913043 0.4666666666666667 0  2.048695652173913 0.4666666666666667 0  2.081739130434782 0.4666666666666667 0  2.114782608695652 0.4666666666666667 0  2.147826086956522 0.4666666666666667 0  2.180869565217391 0.4666666666666667 0  2.213913043478261 0.4666666666666667 0  2.246956521739
[...]
<CellData  Scalars="rho_bar"> 
<DataArray  type="Float64"  Name="rho_bar"  format="ascii">1.0000000000000000e+00   9.9999999999999989e-01   9.9999999999999989e-01   1.0000000000000000e+00   1.0000000000000000e+00   1.0000000000000000e+00   1.0000000000000000e+00   9.9999999999999989e-01   9.9999999999999989e-01   1.0000000000000000e+00   1.0000000000000000e+00   9.9999999999999989e-01   9.9999999999999989e-01   1.0000000000000000e+00   1.0000000000000000e+00   1.0000000000000000e+00   1.0000000000000000e+00   9.9999999999999989e-01   9.9999999999999989e-01   1.0000000000000000e+00   1.0000000000000000e+00   9.9999999999999989e-01   9.9999999999999989e-01   1.0000000000000000e+00   9.9999999999999967e-01   1.0000000000000000e+00   9.9999999999999967e-01   1.0000000000000000e+00   9.9999999999999967e-01   9.9999999999999989e-01   9.9999999999999978e-01   1.0000000000000000e+00   9.9999999999999967e-01   9.9999999999999989e-01   9.9999999999999978e-01   1.0000000000000000e+00   9.9999999999999967e-01   9.9999999999999989e-01   9.9999999999999989e-01   1.0000000000000000e+00   1.0000000000000000e+00   9.9999999999999900e-01   1.0000000000000000e+00   6.6666666665949925e-01   3.4837364366489793e-01   5.7197530526090223e-01   2.2297710451843842e-03   3.3369588105104292e-01   3.3330745570954905e-12   3.3333107060568012e-01   9.4368957093138306e-16   3.3308574932217394e-01   0.0000000000000000e+00   3.2745694202057701e-01   0.0000000000000000e+00   2.8705133741853561e-01   0.0000000000000000e+00   1.9307262938809547e-01   0.0000000000000000e+00   1.0948311394506391e-01   0.0000000000000000e+00   6.5191184294970450e-02   0.0000000000000000e+00   4.4118180443186425e-02   0.0000000000000000e+00   3.3697097868873253e-02   0.0000000000000000e+00   2.8314362208773099e-02   0.0000000000000000e+00   2.5385890960655827e-02   0.0000000000000000e+00   2.3674616751383180e-02   0.0000000000000000e+00   9.9999999999999989e-01   9.9912966924638968e-01   9.9999999999999989e-01   9.9999999999999989e-01   9.9842690273708345e-01   9.9999999999999989e-01   0.0000000000000000e+00   1.2630980971355582e-04   0.0000000000000000e+00   0.0000000000000000e+00   0.0000000000000000e+00   0.0000000000000000e+00   0.0000000000000000e+00   0.0000000000000000e+00   0.0000000000000000e+00   0.0000000000000000e+00   0.0000000000000000e+00   0.0000000000000000e+00   0.0000000000000000e+00   0.0000000000000000e+00   0.0000000000000000e+00   0.0000000000000000e+00   0.0000000000000000e+00   0.0000000000000000e+00   0.0000000000000000e+00   0.0000000000000000e+00   0.0000000000000000e+00   0.0000000000000000e+00   0.0000000000000000e+00   0.0000000000000000e+00   0.0000000000000000e+00   0.0000000000000000e+00   0.0000000000000000e+00   0.0000000000000000e+00   0.0000000000000000e+00   0.0000000000000000e+00   6.8772687557355405e-01   6.2151293805009123e-07   9.9999999999999989e-01   9.9999999999999989e-01   9.9999999999999989e-01   9.9999999999999989e-01   4.8176986462799823e-03   9.9999971471772819e-01   0.0000000000000000e+00   0.0000000000000000e+00   0.0000000000000000e+00   0.0000000000000000e+00   0.0000000000000000e+00   0.0000000000000000e+00   0.0000000000000000e+00   0.0000000000000000e+00   0.0000000000000000e+00   0.0000000000000000e+00   0.0000000000000000e+00   0.0000000000000000e+00   0.0000000000000000e+00   0.0000000000000000e+00   0.0000000000000000e+00   0.0000000000000000e+00   0.0000000000000000e+00   0.0000000000000000e+00   0.0000000000000000e+00   0.0000000000000000e+00   0.0000000000000000e+00   0.0000000000000000e+00   0.0000000000000000e+00   0.0000000000000000e+00   0.0000000000000000e+00   0.0000000000000000e+00   0.0000000000000000e+00   0.0000000000000000e+00   0.0000000000000000e+00   6.2283511681471282e-14   0.0000000000000000e+00   9.9999999999999989e-01   4.9526868844684901e-01   9.9999999999999989e-01   9.9999999999999989e-01   1.0000000000000000e+00   1.0000000000000000e+00   1.4902307500074015e-02   9.9999987989912831e-01   0.0000000000000000e+00   3.7018628903003524e-11   0.0000000000000000e+00   0.0000000000000000e+00   0.0000000000000000e+00   0.0000000000000000e+00   0.0000000000000000e+00   0.0000000000000000e+00   0.0000000000000000e+00   0.0000000000000000e+00   0.0000000000000000e+00   0.0000000000000000e+00   0.0000000000000000e+00   0.0000000000000000e+00   0.0000000000000000e+00   0.0000000000000000e+00   0.0000000000000000e+00   0.0000000000000000e+00   0.0000000000000000e+00   0.0000000000000000e+00   0.0000000000000000e+00   0.0000000000000000e+00   0.0000000000000000e+00   0.0000000000000000e+00   0.0000000000000000e+00   0.0000000000000000e+00   0.0000000000000000e+00   0.0000000000000000e+00   0.0000000000000000e+00   0.0000000000000000e+00   3.9458127635653525e-08   0.0000000000000000e+00   9.9999918004209420e-01   1.6678570058659328e-01   9.9999999999999989e-01   9.9999999995467248e-01   9.9999999999999978e-01   9.9999999999999978e-01   6.6239151863121704e-01   9.9999999999999989e-01   0.0000000000000000e+00   4.9999460032209603e-01   0.0000000000000000e+00   0.0000000000000000e+00   0.0000000000000000e+00   0.0000000000000000e+00   0.0000000000000000e+00   0.0000000000000000e+00   0.0000000000000000e+00   0.0000000000000000e+00   0.0000000000000000e+00   0.0000000000000000e+00   0.0000000000000000e+00   0.0000000000000000e+00   0.0000000000000000e+00   0.0000000000000000e+00   0.0000000000000000e+00   0.0000000000000000e+00   0.0000000000000000e+00   0.0000000000000000e+00   0.0000000000000000e+00   0.0000000000000000e+00   0.0000000000000000e+00   0.0000000000000000e+00   0.0000000000000000e+00   0.0000000000000000e+00   0.0000000000000000e+00   0.0000000000000000e+00   0.0000000000000000e+00   0.0000000000000000e+00   0.0000000000000000e+00   0.0000000000000000e+00   3.4747116247434368e-01   0.0000000000000000e+00   9.9999999999999989e-01   6.6666627070304640e-01   1.0000000000000000e+00   1.0000000000000000e+00   9.9999999999999967e-01   9.9999999999999989e-01   4.9992157241954732e-01   9.9999999999999967e-01   0.0000000000000000e+00   3.3838770886051656e-01   0.0000000000000000e+00   0.0000000000000000e+00   0.0000000000000000e+00   0.0000000000000000e+00   0.0000000000000000e+00   0.0000000000000000e+00   0.0000000000000000e+00   0.0000000000000000e+00   0.0000000000000000e+00   0.0000000000000000e+00   0.0000000000000000e+00   0.0000000000000000e+00   0.0000000000000000e+00   0.0000000000000000e+00   0.0000000000000000e+00   0.0000000000000000e+00   0.0000000000000000e+00   0.0000000000000000e+00   0.0000000000000000e+00   0.0000000000000000e+00   0.0000000000000000e+00   0.0000000000000000e+00   0.0000000000000000e+00   0.0000000000000000e+00   0.0000000000000000e+00   0.0000000000000000e+00   0.0000000000000000e+00   0.0000000000000000e+00   3.8414007215899676e-07   0.0000000000000000e+00   9.0648958763293874e-01   1.0382322617577186e-01   9.9999999999999989e-01   9.9976866427326916e-01   9.9999999999999989e-01   9.9999999999999989e-01   9.9999999993811639e-01   1.0000000000000000e+00   1.6993319098044238e-01   9.9999925647553345e-01   0.0000000000000000e+00   2.8033460083323838e-03   0.0000000000000000e+00   0.0000000000000000e+00   0.0000000000000000e+00   0.0000000000000000e+00   0.0000000000000000e+00   0.0000000000000000e+00   0.0000000000000000e+00   0.0000000000000000e+00   0.0000000000000000e+00   0.0000000000000000e+00   0.0000000000000000e+00   0.0000000000000000e+00   0.0000000000000000e+00   0.0000000000000000e+00   0.0000000000000000e+00   0.0000000000000000e+00   0.0000000000000000e+00   0.0000000000000000e+00   0.0000000000000000e+00   0.0000000000000000e+00   0.0000000000000000e+00   0.0000000000000000e+00   0.0000000000000000e+00   0.0000000000000000e+00   0.0000000000000000e+00   0.0000000000000000e+00   0.0000000000000000e+00   0.0000000000000000e+00   3.3332309116063874e-01   0.0000000000000000e+00   9.9999718147267991e-01   3.3332797518262042e-01   1.0000000000000000e+00   9.9999964597034741e-01   9.9999999999999989e-01   9.9999999999999989e-01   6.6666666659724383e-01   1.0000000000000000e+00   0.0000000000000000e+00   4.7798393987614662e-01   0.0000000000000000e+00   0.0000000000000000e+00   0.0000000000000000e+00   0.0000000000000000e+00   0.0000000000000000e+00   0.0000000000000000e+00   0.0000000000000000e+00   0.0000000000000000e+00   0.0000000000000000e+00   0.0000000000000000e+00   0.0000000000000000e+00   0.0000000000000000e+00   0.0000000000000000e+00   0.0000000000000000e+00   0.0000000000000000e+00   0.0000000000000000e+00   0.0000000000000000e+00   0.0000000000000000e+00   0.0000000000000000e+00   0.0000000000000000e+00   0.0000000000000000e+00   0.0000000000000000e+00   0.0000000000000000e+00   0.0000000000000000e+00   0.0000000000000000e+00   0.0000000000000000e+00   0.0000000000000000e+00   0.0000000000000000e+00   0.0000000000000000e+00   0.0000000000000000e+00   3.3333438230161921e-01   0.0000000000000000e+00   9.9999999999999989e-01   6.6582038725146164e-01   1.0000000000000000e+00   1.0000000000000000e+00   9.9999999999902411e-01   9.9999999999999989e-01   3.8798429343872565e-05   9.9996545024207828e-01   0.0000000000000000e+00   0.0000000000000000e+00   0.0000000000000000e+00   0.0000000000000000e+00   0.0000000000000000e+00   0.0000000000000000e+00   0.0000000000000000e+00   0.0000000000000000e+00   0.0000000000000000e+00   0.0000000000000000e+00   0.0000000000000000e+00   0.0000000000000000e+00   0.0000000000000000e+00   0.0000000000000000e+00   0.0000000000000000e+00   0.0000000000000000e+00   0.0000000000000000e+00   0.0000000000000000e+00   0.0000000000000000e+00   0.0000000000000000e+00   0.0000000000000000e+00   0.0000000000000000e+00   0.0000000000000000e+00   0.0000000000000000e+00   0.0000000000000000e+00   0.0000000000000000e+00   0.0000000000000000e+00   0.0000000000000000e+00   0.0000000000000000e+00   0.0000000000000000e+00   7.5281741396260315e-09   0.0000000000000000e+00   1.0000000000000000e+00   3.3381419654028999e-01   9.9999999999999989e-01   9.9999999999999989e-01   9.9999999999999989e-01   9.9999999999999989e-01   1.5139270947983618e-09   6.8362452428446141e-01   0.0000000000000000e+00   0.0000000000000000e+00   0.0000000000000000e+00   0.0000000000000000e+00   0.0000000000000000e+00   0.0000000000000000e+00   0.0000000000000000e+00   0.0000000000000000e+00   0.0000000000000000e+00   0.0000000000000000e+00   0.0000000000000000e+00   0.0000000000000000e+00   0.0000000000000000e+00   0.0000000000000000e+00   0.0000000000000000e+00   0.0000000000000000e+00   0.0000000000000000e+00   0.0000000000000000e+00   0.0000000000000000e+00   0.0000000000000000e+00   0.0000000000000000e+00   0.0000000000000000e+00   0.0000000000000000e+00   0.0000000000000000e+00   0.0000000000000000e+00   0.0000000000000000e+00   0.0000000000000000e+00   0.0000000000000000e+00   0.0000000000000000e+00   0.0000000000000000e+00   3.7386954051162512e-08   0.0000000000000000e+00   9.9999999999999989e-01   6.6664422667552936e-01   9.9999999999999989e-01   9.9999999999999989e-01   8.1118060765279421e-01   9.9999999999999989e-01   0.0000000000000000e+00   3.1111684264300588e-01   0.0000000000000000e+00   0.0000000000000000e+00   0.0000000000000000e+00   0.0000000000000000e+00   0.0000000000000000e+00   0.0000000000000000e+00   0.0000000000000000e+00   0.0000000000000000e+00   0.0000000000000000e+00   0.0000000000000000e+00   0.0000000000000000e+00   0.0000000000000000e+00   0.0000000000000000e+00   0.0000000000000000e+00   0.0000000000000000e+00   0.0000000000000000e+00   0.0000000000000000e+00   0.0000000000000000e+00   0.0000000000000000e+00   0.0000000000000000e+00   0.0000000000000000e+00   0.0000000000000000e+00   0.0000000000000000e+00   0.0000000000000000e+00   0.0000000000000000e+00   0.0000000000000000e+00   0.0000000000000000e+00   0.0000000000000000e+00   0.0000000000000000e+00   6.6666666994823487e-01   3.3350154968110574e-01   9.9999999999999989e-01   9.9999999999999989e-01   9.9999999999999989e-01   9.9999999999999989e-01   6.6666662192215476e-01   1.0000000000000000e+00   0.0000000000000000e+00   3.3333155926098329e-01   0.0000000000000000e+00   0.0000000000000000e+00   0.0000000000000000e+00   0.0000000000000000e+00   0.0000000000000000e+00   0.0000000000000000e+00   0.0000000000000000e+00   0.0000000000000000e+00   0.0000000000000000e+00   3.2141312902918752e-02   6.6666666663917029e-01   5.8824770690248634e-02   6.6666666665083862e-01   1.1275599240040812e-01   6.6666666665883345e-01   1.7953261993836067e-01   6.6666666666288377e-01   1.7005586579402465e-01   6.6666666666324226e-01   5.0350435735645738e-03   6.6666666653415307e-01   7.0324866977185721e-05   6.6666662219392880e-01   1.9362416374661648e-01   6.6666664792454489e-01   3.3336686867849269e-01   6.6666666666666385e-01   9.9999999999967504e-01   9.9999999999998135e-01   9.9999999999999989e-01   9.9999999999999989e-01   9.9999999999999989e-01   9.9999999999999989e-01   1.0000000000000000e+00   1.0000000000000000e+00   9.9999956564644898e-01   9.9999999999999989e-01   4.6829464458005921e-01   9.9999999999999500e-01   3.3333333333333343e-01   6.6720266012116414e-01   3.3333333333333331e-01   6.6666666666920449e-01   3.3333333299434104e-01   6.6666666666666674e-01   9.2061094638881784e-03   6.6666666666510477e-01   9.9999999999999989e-01   9.9999999999999989e-01   1.0000000000000000e+00   1.0000000000000000e+00   9.9999999999999989e-01   9.9999999999999989e-01   1.0000000000000000e+00   1.0000000000000000e+00   9.9999999999999989e-01   9.9999999999999989e-01   9.9999999999999989e-01   9.9999999999999989e-01   1.0000000000000000e+00   1.0000000000000000e+00   9.9999999999999989e-01   9.9999999999999989e-01   1.0000000000000000e+00   1.0000000000000000e+00   9.9999999999999989e-01   9.9999999999999989e-01   9.9999999999999989e-01   9.9999999999999989e-01   9.9999999999999989e-01   9.9999999999999989e-01   1.0000000000000000e+00   1.0000000000000000e+00   9.9999999999999989e-01   9.9999999999999989e-01   1.0000000000000000e+00   1.0000000000000000e+00   9.9999999999999989e-01   9.9999999999999989e-01   9.9999999999999989e-01   9.9999999999999989e-01   1.0000000000000000e+00   1.0000000000000000e+00   9.9999999999999989e-01   9.9999999999999989e-01   9.9999999999999989e-01   </DataArray> 
</CellData> 
</Piece>
</UnstructuredGrid>
</VTKFile>