<?xml version="1.0"?>
<VTKFile type="UnstructuredGrid"  version="0.1"  >
<UnstructuredGrid>
<Piece  NumberOfPoints="318" NumberOfCells="566">
<Points>
<DataArray  type="Float64"  NumberOfComponents="3"  format="ascii">1.057391304347826 0 0  1.090434782608696 0 0  1.090434782608696 0.03333333333333333 0  1.123478260869565 0 0  1.123478260869565 0.03333333333333333 0  1.156521739130435 0 0  1.156521739130435 0.03333333333333333 0  1.189565217391304 0 0  1.189565217391304 0.03333333333333333 0  1.222608695652174 0 0  1.222608695652174 0.03333333333333333 0  1.255652173913044 0 0  1.255652173913044 0.03333333333333333 0  1.288695652173913 0 0  1.288695652173913 0.03333333333333333 0  1.321739130434783 0 0  1.321739130434783 0.03333333333333333 0  1.354782608695652 0 0  1.354782608695652 0.03333333333333333 0  1.387826086956522 0 0  1.387826086956522 0.03333333333333333 0  1.420869565217391 0 0  1.420869565217391 0.03333333333333333 0  1.453913043478261 0 0  1.453913043478261 0.03333333333333333 0  1.486956521739131 0 0  1.486956521739131 0.03333333333333333 0  1.52 0 0  1.52 0.03333333333333333 0  1.55304347826087 0 0  1.55304347826087 0.03333333333333333 0  1.586086956521739 0 0  1.586086956521739 0.03333333333333333 0  1.619130434782609 0 0  1.619130434782609 0.03333333333333333 0  1.652173913043478 0 0  1.652173913043478 0.03333333333333333 0  1.685217391304348 0 0  1.685217391304348 0.03333333333333333 0  1.718260869565217 0 0  1.718260869565217 0.03333333333333333 0  1.751304347826087 0 0  1.751304347826087 0.03333333333333333 0  1.784347826086957 0 0  1.784347826086957 0.03333333333333333 0  1.817391304347826 0 0  1.817391304347826 0.03333333333333333 0  1.850434782608696 0 0  1.850434782608696 0.03333333333333333 0  1.883478260869565 0.03333333333333333 0  1.123478260869565 0.06666666666666667 0  1.156521739130435 0.06666666666666667 0  1.189565217391304 0.06666666666666667 0  1.222608695652174 0.06666666666666667 0  1.255652173913044 0.06666666666666667 0  1.288695652173913 0.06666666666666667 0  1.321739130434783 0.06666666666666667 0  1.354782608695652 0.06666666666666667 0  1.387826086956522 0.06666666666666667 0  1.420869565217391 0.06666666666666667 0  1.453913043478261 0.06666666666666667 0  1.486956521739131 0.06666666666666667 0  1.52 0.06666666666666667 0  1.55304347826087 0.06666666666666667 0  1.586086956521739 0.06666666666666667 0  1.619130434782609 0.06666666666666667 0  1.652173913043478 0.06666666666666667 0  1.685217391304348 0.06666666666666667 0  1.718260869565217 0.06666666666666667 0  1.751304347826087 0.06666666666666667 0  1.784347826086957 0.06666666666666667 0  1.817391304347826 0.06666666666666667 0  1.850434782608696 0.06666666666666667 0  1.883478260869565 0.06666666666666667 0  1.156521739130435 0.1 0  1.123478260869565 0.1 0  1.189565217391304 0.1 0  1.222608695652174 0.1 0  1.255652173913044 0.1 0  1.288695652173913 0.1 0  1.321739130434783 0.1 0  1.354782608695652 0.1 0  1.387826086956522 0.1 0  1.420869565217391 0.1 0  1.453913043478261 0.1 0  1.486956521739131 0.1 0  1.52 0.1 0  1.55304347826087 0.1 0  1.586086956521739 0.1 0  1.619130434782609 0.1 0  1.652173913043478 0.1 0  1.685217391304348 0.1 0  1.718260869565217 0.1 0  1.751304347826087 0.1 0  1.784347826086957 0.1 0  1.817391304347826 0.1 0  1.850434782608696 0.1 0  1.883478260869565 0.1 0  1.156521739130435 0.1333333333333333 0  1.189565217391304 0.1333333333333333 0  1.222608695652174 0.1333333333333333 0  1.255652173913044 0.1333333333333333 0  1.288695652173913 0.1333333333333333 0  1.321739130434783 0.1333333333333333 0  1.354782608695652 0.1333333333333333 0  1.387826086956522 0.1333333333333333 0  1.420869565217391 0.1333333333333333 0  1.453913043478261 0.1333333333333333 0  1.486956521739131 0.1333333333333333 0  1.52 0.1333333333333333 0  1.55304347826087 0.1333333333333333 0  1.586086956521739 0.1333333333333333 0  1.619130434782609 0.1333333333333333 0  1.652173913043478 0.1333333333333333 0  1.685217391304348 0.1333333333333333 0  1.718260869565217 0.1333333333333333 0  1.751304347826087 0.1333333333333333 0  1.784347826086957 0.1333333333333333 0  1.817391304347826 0.1333333333333333 0  1.850434782608696 0.1333333333333333 0  1.883478260869565 0.1333333333333333 0  1.189565217391304 0.1666666666666667 0  1.222608695652174 0.1666666666666667 0  1.255652173913044 0.1666666666666667 0  1.288695652173913 0.1666666666666667 0  1.321739130434783 0.1666666666666667 0  1.354782608695652 0.1666666666666667 0  1.387826086956522 0.1666666666666667 0  1.420869565217391 0.1666666666666667 0  1.453913043478261 0.1666666666666667 0  1.486956521739131 0.1666666666666667 0  1.52 0.1666666666666667 0  1.55304347826087 0.1666666666666667 0  1.586086956521739 0.1666666666666667 0  1.619130434782609 0.1666666666666667 0  1.652173913043478 0.1666666666666667 0  1.685217391304348 0.1666666666666667 0  1.718260869565217 0.1666666666666667 0  1.751304347826087 0.1666666666666667 0  1.784347826086957 0.1666666666666667 0  1.817391304347826 0.1666666666666667 0  1.850434782608696 0.1666666666666667 0  1.883478260869565 0.1666666666666667 0  1.222608695652174 0.2 0  1.255652173913044 0.2 0  1.288695652173913 0.2 0  1.321739130434783 0.2 0  1.354782608695652 0.2 0  1.387826086956522 0.2 0  1.420869565217391 0.2 0  1.453913043478261 0.2 0  1.486956521739131 0.2 0  1.52 0.2 0  1.55304347826087 0.2 0  1.586086956521739 0.2 0  1.619130434782609 0.2 0  1.652173913043478 0.2 0  1.685217391304348 0.2 0  1.718260869565217 0.2 0  1.751304347826087 0.2 0  1.784347826086957 0.2 0  1.817391304347826 0.2 0  1.850434782608696 0.2 0  1.883478260869565 0.2 0  1.255652173913044 0.2333333333333333 0  1.288695652173913 0.2333333333333333 0  1.321739130434783 0.2333333333333333 0  1.354782608695652 0.2333333333333333 0  1.387826086956522 0.2333333333333333 0  1.420869565217391 0.2333333333333333 0  1.453913043478261 0.2333333333333333 0  1.486956521739131 0.2333333333333333 0  1.52 0.2333333333333333 0  1.55304347826087 0.2333333333333333 0  1.586086956521739 0.2333333333333333 0  1.619130434782609 0.2333333333333333 0  1.652173913043478 0.2333333333333333 0  1.685217391304348 0.2333333333333333 0  1.718260869565217 0.2333333333333333 0  1.751304347826087 0.2333333333333333 0  1.784347826086957 0.2333333333333333 0  1.817391304347826 0.2333333333333333 0  1.850434782608696 0.2333333333333333 0  1.883478260869565 0.2333333333333333 0  1.288695652173913 0.2666666666666667 0  1.321739130434783 0.2666666666666667 0  1.354782608695652 0.2666666666666667 0  1.387826086956522 0.2666666666666667 0  1.420869565217391 0.2666666666666667 0  1.453913043478261 0.2666666666666667 0  1.486956521739131 0.2666666666666667 0  1.52 0.2666666666666667 0  1.55304347826087 0.2666666666666667 0  1.586086956521739 0.2666666666666667 0  1.619130434782609 0.2666666666666667 0  1.652173913043478 0.2666666666666667 0  1.685217391304348 0.2666666666666667 0  1.718260869565217 0.2666666666666667 0  1.751304347826087 0.2666666666666667 0  1.784347826086957 0.2666666666666667 0  1.817391304347826 0.2666666666666667 0  1.850434782608696 0.2666666666666667 0  1.883478260869565 0.2666666666666667 0  1.321739130434783 0.3 0  1.354782608695652 0.3 0  1.387826086956522 0.3 0  1.420869565217391 0.3 0  1.453913043478261 0.3 0  1.486956521739131 0.3 0  1.52 0.3 0  1.55304347826087 0.3 0  1.586086956521739 0.3 0  1.619130434782609 0.3 0  1.652173913043478 0.3 0  1.685217391304348 0.3 0  1.718260869565217 0.3 0  1.751304347826087 0.3 0  1.784347826086957 0.3 0  1.817391304347826 0.3 0  1.850434782608696 0.3 0  1.883478260869565 0.3 0  1.354782608695652 0.3333333333333333 0  1.387826086956522 0.3333333333333333 0  1.420869565217391 0.3333333333333333 0  1.453913043478261 0.3333333333333333 0  1.486956521739131 0.3333333333333333 0  1.52 0.3333333333333333 0  1.55304347826087 0.3333333333333333 0  1.586086956521739 0.3333333333333333 0  1.619130434782609 0.3333333333333333 0  1.652173913043478 0.3333333333333333 0  1.685217391304348 0.3333333333333333 0  1.718260869565217 0.3333333333333333 0  1.751304347826087 0.3333333333333333 0  1.784347826086957 0.3333333333333333 0  1.817391304347826 0.3333333333333333 0  1.850434782608696 0.3333333333333333 0  1.883478260869565 0.3333333333333333 0  1.916521739130435 0.3333333333333333 0  1.387826086956522 0.3666666666666666 0  1.420869565217391 0.3666666666666666 0  1.453913043478261 0.3666666666666666 0  1.486956521739131 0.3666666666666666 0  1.52 0.3666666666666666 0  1.55304347826087 0.3666666666666666 0  1.586086956521739 0.3666666666666666 0  1.619130434782609 0.3666666666666666 0  1.652173913043478 0.3666666666666666 0  1.685217391304348 0.3666666666666666 0  1.718260869565217 0.3666666666666666 0  1.751304347826087 0.3666666666666666 0  1.784347826086957 0.3666666666666666 0  1.817391304347826 0.3666666666666666 0  1.850434782608696 0.3666666666666666 0  1.883478260869565 0.3666666666666666 0  1.916521739130435 0.3666666666666666 0  1.420869565217391 0.4 0  1.453913043478261 0.4 0  1.486956521739131 0.4 0  1.52 0.4 0  1.55304347826087 0.4 0  1.586086956521739 0.4 0  1.619130434782609 0.4 0  1.652173913043478 0.4 0  1.685217391304348 0.4 0  1.718260869565217 0.4 0  1.751304347826087 0.4 0  1.784347826086957 0.4 0  1.817391304347826 0.4 0  1.850434782608696 0.4 0  1.883478260869565 0.4 0  1.916521739130435 0.4 0  1.453913043478261 0.4333333333333333 0  1.486956521739131 0.4333333333333333 0  1.52 0.4333333333333333 0  1.55304347826087 0.4333333333333333 0  1.586086956521739 0.4333333333333333 0  1.619130434782609 0.4333333333333333 0  1.652173913043478 0.4333333333333333 0  1.685217391304348 0.4333333333333333 0  1.718260869565217 0.4333333333333333 0  1.751304347826087 0.4333333333333333 0  1.784347826086957 0.4333333333333333 0  1.817391304347826 0.4333333333333333 0  1.850434782608696 0.4333333333333333 0  1.883478260869565 0.4333333333333333 0  1.916521739130435 0.4333333333333333 0  1.949565217391304 0.4333333333333333 0  1.486956521739131 0
[...]
<PointData  Vectors="Displacement"> 
<DataArray  type="Float64"  Name="Displacement"  NumberOfComponents="3" format="ascii">1.3795397124399830e-04 1.2302382760386265e-03 0.0000000000000000e+00  1.4141365464240461e-04 1.2608227721096342e-03 0.0000000000000000e+00  1.1061512960043870e-04 1.2596495802781858e-03 0.0000000000000000e+00  1.4488334542134881e-04 1.2912623955789525e-03 0.0000000000000000e+00  1.1421973663647404e-04 1.2900902957144304e-03 0.0000000000000000e+00  1.4836223911027062e-04 1.3215806771555640e-03 0.0000000000000000e+00  1.1780840064273899e-04 1.3204106824446660e-03 0.0000000000000000e+00  1.5184923345606686e-04 1.3518043034987338e-03 0.0000000000000000e+00  1.2137627146385817e-04 1.3506377798637261e-03 0.0000000000000000e+00  1.5534296564428235e-04 1.3819644711818865e-03 0.0000000000000000e+00  1.2491679218983267e-04 1.3808029425456405e-03 0.0000000000000000e+00  1.5884214751831540e-04 1.4120982819788609e-03 0.0000000000000000e+00  1.2842245377094256e-04 1.4109427883833049e-03 0.0000000000000000e+00  1.6234622196773866e-04 1.4422487244669035e-03 0.0000000000000000e+00  1.3188764401947037e-04 1.4410989695244219e-03 0.0000000000000000e+00  1.6585614086842720e-04 1.4724619325698278e-03 0.0000000000000000e+00  1.3531261766230486e-04 1.4713155069700896e-03 0.0000000000000000e+00  1.6937624700621613e-04 1.5027838540227463e-03 0.0000000000000000e+00  1.3870652675688913e-04 1.5016326405070974e-03 0.0000000000000000e+00  1.7294605319973544e-04 1.5333068109224827e-03 0.0000000000000000e+00  1.4208756524438163e-04 1.5320608098340434e-03 0.0000000000000000e+00  1.7654162206526069e-04 1.5637225289848440e-03 0.0000000000000000e+00  1.4590176713422158e-04 1.5625519802971834e-03 0.0000000000000000e+00  1.8010021827782766e-04 1.5940566637875689e-03 0.0000000000000000e+00  1.4944232207381609e-04 1.5929412492196135e-03 0.0000000000000000e+00  1.8348718151949337e-04 1.6242628800949080e-03 0.0000000000000000e+00  1.5277308170430842e-04 1.6235298652097312e-03 0.0000000000000000e+00  1.8661473107158796e-04 1.6553151898801256e-03 0.0000000000000000e+00  1.5442328512262697e-04 1.6547920800582636e-03 0.0000000000000000e+00  1.9014335052689279e-04 1.6870063356579882e-03 0.0000000000000000e+00  1.5588378272893998e-04 1.6864186738790754e-03 0.0000000000000000e+00  1.9472671509625233e-04 1.7205569520331338e-03 0.0000000000000000e+00  1.5724874390126776e-04 1.7197201528378432e-03 0.0000000000000000e+00  2.0040768881736610e-04 1.7589561737772572e-03 0.0000000000000000e+00  1.5786698503878689e-04 1.7576403636185682e-03 0.0000000000000000e+00  2.0603227969696400e-04 1.8049231109392662e-03 0.0000000000000000e+00  1.5795845895183580e-04 1.8036804434670936e-03 0.0000000000000000e+00  2.1108382304237052e-04 1.8567960769566797e-03 0.0000000000000000e+00  1.5841560220633446e-04 1.8551490250351917e-03 0.0000000000000000e+00  2.1563337806364366e-04 1.9131521534194781e-03 0.0000000000000000e+00  1.6012331380412930e-04 1.9112025172138959e-03 0.0000000000000000e+00  2.1923111123840257e-04 1.9695096816035192e-03 0.0000000000000000e+00  1.6522546067241102e-04 1.9684567362275385e-03 0.0000000000000000e+00  2.2153433011496139e-04 2.0244152905718395e-03 0.0000000000000000e+00  1.6848186065564135e-04 2.0232764837081049e-03 0.0000000000000000e+00  2.2272643218656575e-04 2.0771513248521059e-03 0.0000000000000000e+00  1.7243717400976851e-04 2.0764591032406037e-03 0.0000000000000000e+00  2.2292873048682983e-04 2.1258671776675452e-03 0.0000000000000000e+00  1.7605424967158075e-04 2.1257958845836192e-03 0.0000000000000000e+00  1.7796745128914002e-04 2.1709808388962705e-03 0.0000000000000000e+00  1.0910835320206085e-04 1.2843816254077551e-03 0.0000000000000000e+00  1.1206322432771550e-04 1.3165422781541828e-03 0.0000000000000000e+00  1.1466409216105185e-04 1.3486008532100444e-03 0.0000000000000000e+00  1.1688730818768076e-04 1.3805551845167156e-03 0.0000000000000000e+00  1.1871018265413733e-04 1.4123936280079489e-03 0.0000000000000000e+00  1.2012172110527320e-04 1.4440897081485246e-03 0.0000000000000000e+00  1.2113912682579361e-04 1.4755899539551536e-03 0.0000000000000000e+00  1.2181534150768018e-04 1.5068318041153656e-03 0.0000000000000000e+00  1.2225701129820013e-04 1.5377251632065459e-03 0.0000000000000000e+00  1.2264237079792392e-04 1.5681029730419695e-03 0.0000000000000000e+00  1.2296605069551773e-04 1.5975624952497157e-03 0.0000000000000000e+00  1.2213777950988253e-04 1.6231305255398291e-03 0.0000000000000000e+00  1.2288071034416607e-04 1.6551224388332802e-03 0.0000000000000000e+00  1.2290371243249123e-04 1.6864666110365065e-03 0.0000000000000000e+00  1.2273956140305457e-04 1.7188445819274476e-03 0.0000000000000000e+00  1.2199738728002626e-04 1.7563144336774730e-03 0.0000000000000000e+00  1.1456587107351826e-04 1.8031586562300575e-03 0.0000000000000000e+00  1.0654016031633584e-04 1.8549964875095623e-03 0.0000000000000000e+00  1.1545480024117086e-04 1.9110135381194757e-03 0.0000000000000000e+00  1.1981279077962510e-04 1.9658442220986394e-03 0.0000000000000000e+00  1.2128410602389134e-04 2.0205494081381599e-03 0.0000000000000000e+00  1.1881967274960436e-04 2.0751375232413291e-03 0.0000000000000000e+00  1.3221541063060759e-04 2.1250052912507107e-03 0.0000000000000000e+00  1.3591404036562805e-04 2.1713062182400680e-03 0.0000000000000000e+00  1.0351379753198245e-04 1.3132083763668352e-03 0.0000000000000000e+00  1.0115525896875850e-04 1.2790135748946331e-03 0.0000000000000000e+00  1.0525865775329484e-04 1.3473014631262628e-03 0.0000000000000000e+00  1.0635595880641939e-04 1.3812599842631806e-03 0.0000000000000000e+00  1.0677399752530664e-04 1.4150226130773859e-03 0.0000000000000000e+00  1.0650053172002156e-04 1.4484891995096597e-03 0.0000000000000000e+00  1.0557061861154508e-04 1.4814982676136089e-03 0.0000000000000000e+00  1.0404586805781395e-04 1.5138848335263901e-03 0.0000000000000000e+00  1.0203237016238536e-04 1.5454422590265456e-03 0.0000000000000000e+00  9.9761102806424570e-05 1.5759193165597648e-03 0.0000000000000000e+00  9.7693092045830554e-05 1.6053016705533409e-03 0.0000000000000000e+00  9.4741149952861522e-05 1.6340925346423612e-03 0.0000000000000000e+00  9.3026585655570196e-05 1.6611321004862045e-03 0.0000000000000000e+00  9.2640090078883501e-05 1.6865997498117548e-03 0.0000000000000000e+00  9.2608709118517559e-05 1.7171148727921309e-03 0.0000000000000000e+00  9.2374932605785424e-05 1.7514440508144930e-03 0.0000000000000000e+00  9.0505067759349782e-05 1.8073588007180353e-03 0.0000000000000000e+00  8.6819694413877756e-05 1.8589525922878881e-03 0.0000000000000000e+00  8.5837685194973390e-05 1.9099233210345360e-03 0.0000000000000000e+00  8.6881439774954419e-05 1.9635821664928856e-03 0.0000000000000000e+00  8.8179616732081539e-05 2.0170029591589553e-03 0.0000000000000000e+00  9.0062106425363279e-05 2.0695705470841369e-03 0.0000000000000000e+00  9.3684191196441593e-05 2.1181969541622151e-03 0.0000000000000000e+00  9.7192788876626472e-05 2.1723573620412678e-03 0.0000000000000000e+00  9.2590519304525589e-05 1.3103576803390701e-03 0.0000000000000000e+00  9.3594477071451285e-05 1.3466493599740997e-03 0.0000000000000000e+00  9.3754752858411569e-05 1.3827939398961275e-03 0.0000000000000000e+00  9.3025785472027777e-05 1.4186804785596440e-03 0.0000000000000000e+00  9.1390570513346490e-05 1.4541306115781402e-03 0.0000000000000000e+00  8.8908042728647738e-05 1.4888476916340013e-03 0.0000000000000000e+00  8.5666817167257637e-05 1.5226228214747009e-03 0.0000000000000000e+00  8.1673508036525001e-05 1.5551271622482239e-03 0.0000000000000000e+00  7.7088692581459838e-05 1.5858562545340803e-03 0.0000000000000000e+00  7.2467648745832007e-05 1.6143141022193573e-03 0.0000000000000000e+00  6.8712518214053079e-05 1.6458164379454837e-03 0.0000000000000000e+00  6.8630082680892499e-05 1.6645127903848656e-03 0.0000000000000000e+00  6.8094899891955917e-05 1.6862230965009255e-03 0.0000000000000000e+00  6.7718927876946167e-05 1.7134203644424552e-03 0.0000000000000000e+00  6.7513671159392293e-05 1.7587912984498571e-03 0.0000000000000000e+00  6.3303247756370107e-05 1.8109606869591084e-03 0.0000000000000000e+00  6.0231484993871818e-05 1.8621291381998293e-03 0.0000000000000000e+00  5.7866543083962219e-05 1.9120013809296298e-03 0.0000000000000000e+00  5.6629066704876339e-05 1.9629166541179108e-03 0.0000000000000000e+00  5.6723545726789447e-05 2.0140617431054818e-03 0.0000000000000000e+00  5.7841912900983070e-05 2.0644946071159444e-03 0.0000000000000000e+00  5.9658761365828711e-05 2.1133221087245558e-03 0.0000000000000000e+00  6.1552046310456510e-05 2.1645679937319648e-03 0.0000000000000000e+00  7.9949970210330874e-05 1.3465498345602760e-03 0.0000000000000000e+00  7.9353217492364271e-05 1.3850333349687597e-03 0.0000000000000000e+00  7.7720363844472639e-05 1.4232297831756810e-03 0.0000000000000000e+00  7.5017992049837573e-05 1.4608607464970250e-03 0.0000000000000000e+00  7.1396374904740477e-05 1.4974259915959587e-03 0.0000000000000000e+00  6.7001391898861390e-05 1.5326429602481859e-03 0.0000000000000000e+00  6.2193571268221129e-05 1.5663265024748354e-03 0.0000000000000000e+00  5.6877761017921373e-05 1.5970254173198045e-03 0.0000000000000000e+00  5.3204946182328736e-05 1.6228827226318688e-03 0.0000000000000000e+00  5.0231726950107695e-05 1.6467271362202939e-03 0.0000000000000000e+00  4.9122798468264768e-05 1.6648449918027063e-03 0.0000000000000000e+00  4.8621639004260720e-05 1.6854934856835157e-03 0.0000000000000000e+00  4.8520931035462250e-05 1.7071466789831445e-03 0.0000000000000000e+00  4.4169110855438913e-05 1.7644940769384837e-03 0.0000000000000000e+00  3.7923278160585632e-05 1.8162581697941948e-03 0.0000000000000000e+00  3.3154188420538559e-05 1.8658978120571160e-03 0.0000000000000000e+00  2.9727695711865523e-05 1.9145394505407608e-03 0.0000000000000000e+00  2.7441603510139429e-05 1.9633000883937284e-03 0.0000000000000000e+00  2.6456444305458414e-05 2.0120841424339916e-03 0.0000000000000000e+00  2.6629493449018197e-05 2.0604988427008922e-03 0.0000000000000000e+00  2.7621686071150285e-05 2.1083354232795991e-03 0.0000000000000000e+00  2.9195703243596549e-05 2.1571624285488264e-03 0.0000000000000000e+00  6.3250995547685149e-05 1.3878598386335296e-03 0.0000000000000000e+00  6.0916531962863663e-05 1.4285593674501426e-03 0.0000000000000000e+00  5.7366481168535611e-05 1.4686217817867662e-03 0.0000000000000000e+00  5.2821678906102155e-05 1.5070724392306407e-03 0.0000000000000000e+00  4.7751575389915107e-05 1.5438492655859134e-03 0.0000000000000000e+00  4.2119623186324560e-05 1.5779271425827718e-03 0.0000000000000000e+00  3.9455348409690856e-05 1.6095813193677721e-03 0.0000000000000000e+00  3.7299952641049667e-05 1.6276990624868645e-03 0.0000000000000000e+00  3.5476488659860572e-05 1.6462126806345084e-03 0.0000000000000000e+00  3.3924823309389389e-05 1.6645269084231194e-03 0.0000000000000000e+00  3.2476589872162609e-05 1.6841253261856107e-03 0.0000000000000000e+00  2.6380259316530029e-05 1.7237345477441001e-03 0.0000000000000000e+00  1.6822199463827104e-05 1.7735375610901847e-03 0.0000000000000000e+00  1.0437691857117373e-05 1.8230688148139860e-03 0.0000000000000000e+00  5.3519199772548937e-06 1.8707364625159544e-03 0.0000000000000000e+00  1.4470897025871984e-06 1.9175576754015785e-03 0.0000000000000000e+00  -1.3299162612741039e-06 1.9642306383254120e-03 0.0000000000000000e+00  -2.9214111076619684e-06 2.0108069996542565e-03 0.0000000000000000e+00  -3.3816502270975313e-06 2.0571807045795644e-03 0.0000000000000000e+00  -2.8768160709833957e-06 2.1033504655513734e-03 0.0000000000000000e+00  -1.4899187639476936e-06 2.1498665321510939e-03 0.0000000000000000e+00  4.2573177139236561e-05 1.4345765955879586e-03 0.0000000000000000e+00  3.8322153489877841e-05 1.4773615104983916e-03 0.0000000000000000e+00  3.3345306371252430e-05 1.5177897805342126e-03 0.0000000000000000e+00  2.7706870916205061e-05 1.5551754627435399e-03 0.0000000000000000e+00  2.5135692984873047e-05 1.5901919756002273e-03 0.0000000000000000e+00  2.3778691221516306e-05 1.6093620001154608e-03 0.0000000000000000e+00  2.3190133347604487e-05 1.6270159805521502e-03 0.0000000000000000e+00  2.1512522381664004e-05 1.6456440551709829e-03 0.0000000000000000e+00  1.9430505299301454e-05 1.6641291514350803e-03 0.0000000000000000e+00  1.1691386151087648e-05 1.6989663455505711e-03 0.0000000000000000e+00  7.5209692330796712e-07 1.7389356167833165e-03 0.0000000000000000e+00  -9.0363105557897613e-06 1.7847683026448514e-03 0.0000000000000000e+00  -1.6459389641813334e-05 1.8307291466762611e-03 0.0000000000000000e+00  -2.2045626031813425e-05 1.8761016247433988e-03 0.0000000000000000e+00  -2.6343219013415268e-05 1.9209077531418635e-03 0.0000000000000000e+00  -2.9480587616509676e-05 1.9654897466488889e-03 0.0000000000000000e+00  -3.1462539993601786e-05 2.0099369829105016e-03 0.0000000000000000e+00  -3.2324264190124703e-05 2.0542505760700680e-03 0.0000000000000000e+00  -3.2135660814021724e-05 2.0984661937038596e-03 0.0000000000000000e+00  -3.0913556587340433e-05 2.1427348705878391e-03 0.0000000000000000e+00  1.7884242797409351e-05 1.4872667474576961e-03 0.0000000000000000e+00  1.2528753099236733e-05 1.5285664449904467e-03 0.0000000000000000e+00  1.0237852908279988e-05 1.5673202237358776e-03 0.0000000000000000e+00  8.2024892543307460e-06 1.5898496396231903e-03 0.0000000000000000e+00  7.4653559589807306e-06 1.6091217158797993e-03 0.0000000000000000e+00  6.8820433760183994e-06 1.6268373671369473e-03 0.0000000000000000e+00  5.7647486177653448e-06 1.6454824904759298e-03 0.0000000000000000e+00  -2.7320437787538653e-06 1.6781005160512869e-03 0.0000000000000000e+00  -1.4233394885045496e-05 1.7141994747927277e-03 0.0000000000000000e+00  -2.5266842504636841e-05 1.7537721601545710e-03 0.0000000000000000e+00  -3.5084827343931298e-05 1.7961434271795090e-03 0.0000000000000000e+00  -4.2838271789646269e-05 1.8390881983397628e-03 0.0000000000000000e+00  -4.8871086801624753e-05 1.8819407324252206e-03 0.0000000000000000e+00  -5.3505607084823889e-05 1.9245610399504811e-03 0.0000000000000000e+00  -5.6926389333167543e-05 1.9670109719562858e-03 0.0000000000000000e+00  -5.9192484428669154e-05 2.0093397656976396e-03 0.0000000000000000e+00  -6.0341237406431770e-05 2.0515736462732360e-03 0.0000000000000000e+00  -6.0406449022585543e-05 2.0937382953996964e-03 0.0000000000000000e+00  -5.9388247976640701e-05 2.1358387476971274e-03 0.0000000000000000e+00  -5.9563146540183959e-06 1.5401453995791692e-03 0.0000000000000000e+00  -7.6729315880918434e-06 1.5664015018008620e-03 0.0000000000000000e+00  -9.2872450211403749e-06 1.5894905671550313e-03 0.0000000000000000e+00  -1.0182074049149623e-05 1.6089499668046152e-03 0.0000000000000000e+00  -1.0580413967309615e-05 1.6269778758334764e-03 0.0000000000000000e+00  -1.8989300037804119e-05 1.6585259709795534e-03 0.0000000000000000e+00  -3.0245879913742881e-05 1.6929299738414267e-03 0.0000000000000000e+00  -4.1428615593956883e-05 1.7293561750615029e-03 0.0000000000000000e+00  -5.2002513736912760e-05 1.7675163846428915e-03 0.0000000000000000e+00  -6.1314094474702031e-05 1.8073124858064998e-03 0.0000000000000000e+00  -6.9006488334235906e-05 1.8476355913947563e-03 0.0000000000000000e+00  -7.5176706926851516e-05 1.8880735758749550e-03 0.0000000000000000e+00  -8.0004357538514408e-05 1.9284523453682088e-03 0.0000000000000000e+00  -8.3624670885719548e-05 1.9687429245436880e-03 0.0000000000000000e+00  -8.6112487896286961e-05 2.0089539822411438e-03 0.0000000000000000e+00  -8.7510994035154029e-05 2.0491074656521016e-03 0.0000000000000000e+00  -8.7847133548015516e-05 2.0892183064949205e-03 0.0000000000000000e+00  -8.7129724743695937e-05 2.1292536885397723e-03 0.0000000000000000e+00  -2.8759449519500697e-05 1.5660414471833437e-03 0.0000000000000000e+00  -2.9634117871241743e-05 1.5893173062132221e-03 0.0000000000000000e+00  -2.9646749449800071e-05 1.6093068466582563e-03 0.0000000000000000e+00  -3.7822943843850818e-05 1.6394670227595821e-03 0.0000000000000000e+00  -4.8475956337177966e-05 1.6728392617154355e-03 0.0000000000000000e+00  -5.9129335425201228e-05 1.7077066411747548e-03 0.0000000000000000e+00  -6.9450170740693361e-05 1.7434907471489084e-03 0.0000000000000000e+00  -7.9057716615592630e-05 1.7803018696535178e-03 0.0000000000000000e+00  -8.7633142446967558e-05 1.8179998358520326e-03 0.0000000000000000e+00  -9.4931415067934399e-05 1.8560753246684818e-03 0.0000000000000000e+00  -1.0095846891515918e-04 1.8942738587676214e-03 0.0000000000000000e+00  -1.0578959409178910e-04 1.9324707527611556e-03 0.0000000000000000e+00  -1.0950608185771926e-04 1.9706273012413001e-03 0.0000000000000000e+00  -1.1216797771376120e-04 2.0087459746863838e-03 0.0000000000000000e+00  -1.1381626103758465e-04 2.0468488935783168e-03 0.0000000000000000e+00  -1.1447826449011320e-04 2.0849536011784443e-03 0.0000000000000000e+00  -1.1417432866346742e-04 2.1230378827709518e-03 0.0000000000000000e+00  -1.1293655855118423e-04 2.1609906695485076e-03 0.0000000000000000e+00  -5.5323694533493155e-05 1.5921632042972674e-03 0.0000000000000000e+00  -6.1641702284777710e-05 1.6206364826581445e-03 0.0000000000000000e+00  -7.0253189072393694e-05 1.6529980119497447e-03 0.0000000000000000e+00  -7.9499062214672290e-05 1.6869336745891602e-03 0.0000000000000000e+00  -8.8775355802869728e-05 1.7215125633956547e-03 0.0000000000000000e+00  -9.7736966105398983e-05 1.7565860056216948e-03 0.0000000000000000e+00  -1.0615165270576935e-04 1.7921400848796623e-03 0.0000000000000000e+00  -1.1377062195498968e-04 1.8280944736924173e-03 0.0000000000000000e+00  -1.2042165482876481e-04 1.8642119987448301e-03 0.0000000000000000e+00  -1.2606435728336227e-04 1.9003672513015614e-03 0.0000000000000000e+00  -1.3071830094272716e-04 1.9365002330101033e-03 0.0000000000000000e+00  -1.3442332095309396e-04 1.9726014922565372e-03 0.0000000000000000e+00  -1.3721831723963732e-04 2.0086916952836106e-03 0.0000000000000000e+00  -1.3913482942887198e-04 2.0448078971605356e-03 0.0000000000000000e+00  -1.4019754642520735e-04 2.0809854213461776e-03 0.0000000000000000e+00  -1.4043103768262365e-04 2.1172345562045672e-03 0.0000000000000000e+00  -1.3987590061839182e-04 2.1535183669410458e-03 0.0000000000000000e+00  -9.6132512348824140e-05 1.6322486595220646e-03 0.0000000000000000e+00  -1.0323283063074373e-04 1.6655773949718255e-03 0.0000000000000000e+00  -1.1080620561227758e-04 1.6997850833753642e-03 0.0000000000000000e+00  -1.1843753506822824e-04 1.7341765257840921e-03 0.0000000000000000e+00  -1.2587427279999133e-04 1.7685998796869169e-03 0.0000000000000000e+00  -1.3291267986926966e-04 1.8030560076073257e-03 0.0000000000000000e+00  -1.3938167376262059e-04 1.8375208169895091e-03 0.0000000000000000e+00  -1.4516253688914071e-04 1.8719195229817962e-03 0.0000000000000000e+00  -1.5021137075472071e-04 1.9062251382771667e-03 0.0000000000000000e+00  -1.5452490230867953e-04 1.9404439219366098e-03 0.0000000000000000e+00  -1.5811908712875302e-04 1.9746094419310091e-03 0.0000000000000000e+00  -1.6101496104281273e-04 2.0087740571618708e-03 0.0000000000000000e+00  -1.6323217463856546e-04 2.0430013577421636e-03 0.0000000000000000e+00  -1.6478799034192021e-04 2.0773555631111583e-03 0.0000000000000000e+00  -1.6570221070382228e-04 2.1118886572311308e-03 0.0000000000000000e+00  -1.6600864889922576e-04 2.1466306830805319e-03 0.0000000000000000e+00  -1.3615085189165965e-04 1.6768012903801105e-03 0.0000000000000000e+00  -1.4208751977768237e-04 1.7114154358518086e-03 0.0000000000000000e+00  -1.4793769067801283e-04 1.7456848834614923e-03 0.0000000000000000e+00  -1.5360654487618286e-04 1.7795434894408789e-03 0.0000000000000000e+00  -1.5901228448743986e-04 1.8130366786023584e-03 0.0000000000000000e+00  -1.6407805322658114e-04 1.8462112954772845e-03 0.0000000000000000e+00  -1.6874782442568846e-04 1.8790983244897615e-03 0.0000000000000000e+00  -1.7299589847607309e-04 1.9117476958719123e-03 0.0000000000000000e+00  -1.7681530693671620e-04 1.9442244894906945e-03 0.0000000000000000e+00  -1.8020944439177630e-04 1.9766074678255097e-03 0.0000000000000000e+00  -1.8318564750890266e-04 2.00898