<?xml version="1.0"?>
<VTKFile type="UnstructuredGrid"  version="0.1"  >
<UnstructuredGrid>
<Piece  NumberOfPoints="640" NumberOfCells="1181">
<Points>
<DataArray  type="Float64"  NumberOfComponents="3"  format="ascii">2.973913043478261 0 0  2.990434782608696 0 0  2.990434782608696 0.01666666666666667 0  2.973913043478261 0.01666666666666667 0  3.006956521739131 0 0  3.006956521739131 0.01666666666666667 0  3.023478260869565 0 0  3.023478260869565 0.01666666666666667 0  3.04 0 0  3.04 0.01666666666666667 0  3.056521739130435 0 0  3.056521739130435 0.01666666666666667 0  3.073043478260869 0 0  3.073043478260869 0.01666666666666667 0  3.089565217391304 0 0  3.089565217391304 0.01666666666666667 0  3.106086956521739 0 0  3.106086956521739 0.01666666666666667 0  3.122608695652174 0 0  3.122608695652174 0.01666666666666667 0  3.139130434782609 0 0  3.139130434782609 0.01666666666666667 0  3.155652173913043 0 0  3.155652173913043 0.01666666666666667 0  3.172173913043478 0 0  3.172173913043478 0.01666666666666667 0  3.188695652173913 0 0  3.188695652173913 0.01666666666666667 0  3.205217391304347 0 0  3.205217391304347 0.01666666666666667 0  3.221739130434782 0 0  3.221739130434782 0.01666666666666667 0  3.238260869565217 0 0  3.238260869565217 0.01666666666666667 0  2.990434782608696 0.03333333333333333 0  2.973913043478261 0.03333333333333333 0  3.006956521739131 0.03333333333333333 0  3.023478260869565 0.03333333333333333 0  3.04 0.03333333333333333 0  3.056521739130435 0.03333333333333333 0  3.073043478260869 0.03333333333333333 0  3.089565217391304 0.03333333333333333 0  3.106086956521739 0.03333333333333333 0  3.122608695652174 0.03333333333333333 0  3.139130434782609 0.03333333333333333 0  3.155652173913043 0.03333333333333333 0  3.172173913043478 0.03333333333333333 0  3.188695652173913 0.03333333333333333 0  3.205217391304347 0.03333333333333333 0  3.221739130434782 0.03333333333333333 0  3.238260869565217 0.03333333333333333 0  3.254782608695652 0.03333333333333333 0  2.990434782608696 0.05 0  3.006956521739131 0.05 0  3.023478260869565 0.05 0  3.04 0.05 0  3.056521739130435 0.05 0  3.073043478260869 0.05 0  3.089565217391304 0.05 0  3.106086956521739 0.05 0  3.122608695652174 0.05 0  3.139130434782609 0.05 0  3.155652173913043 0.05 0  3.172173913043478 0.05 0  3.188695652173913 0.05 0  3.205217391304347 0.05 0  3.221739130434782 0.05 0  3.238260869565217 0.05 0  3.254782608695652 0.05 0  3.271304347826087 0.05 0  3.006956521739131 0.06666666666666667 0  2.990434782608696 0.06666666666666667 0  3.023478260869565 0.06666666666666667 0  3.04 0.06666666666666667 0  3.056521739130435 0.06666666666666667 0  3.073043478260869 0.06666666666666667 0  3.089565217391304 0.06666666666666667 0  3.106086956521739 0.06666666666666667 0  3.122608695652174 0.06666666666666667 0  3.139130434782609 0.06666666666666667 0  3.155652173913043 0.06666666666666667 0  3.172173913043478 0.06666666666666667 0  3.188695652173913 0.06666666666666667 0  3.205217391304347 0.06666666666666667 0  3.221739130434782 0.06666666666666667 0  3.238260869565217 0.06666666666666667 0  3.254782608695652 0.06666666666666667 0  3.271304347826087 0.06666666666666667 0  3.287826086956521 0.06666666666666667 0  3.006956521739131 0.08333333333333333 0  3.023478260869565 0.08333333333333333 0  3.04 0.08333333333333333 0  3.056521739130435 0.08333333333333333 0  3.073043478260869 0.08333333333333333 0  3.089565217391304 0.08333333333333333 0  3.106086956521739 0.08333333333333333 0  3.122608695652174 0.08333333333333333 0  3.139130434782609 0.08333333333333333 0  3.155652173913043 0.08333333333333333 0  3.172173913043478 0.08333333333333333 0  3.188695652173913 0.08333333333333333 0  3.205217391304347 0.08333333333333333 0  3.221739130434782 0.08333333333333333 0  3.238260869565217 0.08333333333333333 0  3.254782608695652 0.08333333333333333 0  3.271304347826087 0.08333333333333333 0  3.287826086956521 0.08333333333333333 0  3.304347826086957 0.08333333333333333 0  3.023478260869565 0.1 0  3.006956521739131 0.1 0  3.04 0.1 0  3.056521739130435 0.1 0  3.073043478260869 0.1 0  3.089565217391304 0.1 0  3.106086956521739 0.1 0  3.122608695652174 0.1 0  3.139130434782609 0.1 0  3.155652173913043 0.1 0  3.172173913043478 0.1 0  3.188695652173913 0.1 0  3.205217391304347 0.1 0  3.221739130434782 0.1 0  3.238260869565217 0.1 0  3.254782608695652 0.1 0  3.271304347826087 0.1 0  3.287826086956521 0.1 0  3.304347826086957 0.1 0  3.320869565217391 0.1 0  3.023478260869565 0.1166666666666667 0  3.04 0.1166666666666667 0  3.056521739130435 0.1166666666666667 0  3.073043478260869 0.1166666666666667 0  3.089565217391304 0.1166666666666667 0  3.106086956521739 0.1166666666666667 0  3.122608695652174 0.1166666666666667 0  3.139130434782609 0.1166666666666667 0  3.155652173913043 0.1166666666666667 0  3.172173913043478 0.1166666666666667 0  3.188695652173913 0.1166666666666667 0  3.205217391304347 0.1166666666666667 0  3.221739130434782 0.1166666666666667 0  3.238260869565217 0.1166666666666667 0  3.254782608695652 0.1166666666666667 0  3.271304347826087 0.1166666666666667 0  3.287826086956521 0.1166666666666667 0  3.304347826086957 0.1166666666666667 0  3.320869565217391 0.1166666666666667 0  3.337391304347826 0.1166666666666667 0  3.04 0.1333333333333333 0  3.023478260869565 0.1333333333333333 0  3.056521739130435 0.1333333333333333 0  3.073043478260869 0.1333333333333333 0  3.089565217391304 0.1333333333333333 0  3.106086956521739 0.1333333333333333 0  3.122608695652174 0.1333333333333333 0  3.139130434782609 0.1333333333333333 0  3.155652173913043 0.1333333333333333 0  3.172173913043478 0.1333333333333333 0  3.188695652173913 0.1333333333333333 0  3.205217391304347 0.1333333333333333 0  3.221739130434782 0.1333333333333333 0  3.238260869565217 0.1333333333333333 0  3.254782608695652 0.1333333333333333 0  3.271304347826087 0.1333333333333333 0  3.287826086956521 0.1333333333333333 0  3.304347826086957 0.1333333333333333 0  3.320869565217391 0.1333333333333333 0  3.337391304347826 0.1333333333333333 0  3.353913043478261 0.1333333333333333 0  3.04 0.15 0  3.056521739130435 0.15 0  3.073043478260869 0.15 0  3.089565217391304 0.15 0  3.106086956521739 0.15 0  3.122608695652174 0.15 0  3.139130434782609 0.15 0  3.155652173913043 0.15 0  3.172173913043478 0.15 0  3.188695652173913 0.15 0  3.205217391304347 0.15 0  3.221739130434782 0.15 0  3.238260869565217 0.15 0  3.254782608695652 0.15 0  3.271304347826087 0.15 0  3.287826086956521 0.15 0  3.304347826086957 0.15 0  3.320869565217391 0.15 0  3.337391304347826 0.15 0  3.353913043478261 0.15 0  3.370434782608696 0.15 0  3.056521739130435 0.1666666666666667 0  3.073043478260869 0.1666666666666667 0  3.089565217391304 0.1666666666666667 0  3.106086956521739 0.1666666666666667 0  3.122608695652174 0.1666666666666667 0  3.139130434782609 0.1666666666666667 0  3.155652173913043 0.1666666666666667 0  3.172173913043478 0.1666666666666667 0  3.188695652173913 0.1666666666666667 0  3.205217391304347 0.1666666666666667 0  3.221739130434782 0.1666666666666667 0  3.238260869565217 0.1666666666666667 0  3.254782608695652 0.1666666666666667 0  3.271304347826087 0.1666666666666667 0  3.287826086956521 0.1666666666666667 0  3.304347826086957 0.1666666666666667 0  3.320869565217391 0.1666666666666667 0  3.337391304347826 0.1666666666666667 0  3.353913043478261 0.1666666666666667 0  3.370434782608696 0.1666666666666667 0  3.386956521739131 0.1666666666666667 0  3.073043478260869 0.1833333333333333 0  3.089565217391304 0.1833333333333333 0  3.106086956521739 0.1833333333333333 0  3.122608695652174 0.1833333333333333 0  3.139130434782609 0.1833333333333333 0  3.155652173913043 0.1833333333333333 0  3.172173913043478 0.1833333333333333 0  3.188695652173913 0.1833333333333333 0  3.205217391304347 0.1833333333333333 0  3.221739130434782 0.1833333333333333 0  3.238260869565217 0.1833333333333333 0  3.254782608695652 0.1833333333333333 0  3.271304347826087 0.1833333333333333 0  3.287826086956521 0.1833333333333333 0  3.304347826086957 0.1833333333333333 0  3.320869565217391 0.1833333333333333 0  3.337391304347826 0.1833333333333333 0  3.353913043478261 0.1833333333333333 0  3.370434782608696 0.1833333333333333 0  3.386956521739131 0.1833333333333333 0  3.403478260869565 0.1833333333333333 0  3.089565217391304 0.2 0  3.106086956521739 0.2 0  3.122608695652174 0.2 0  3.139130434782609 0.2 0  3.155652173913043 0.2 0  3.172173913043478 0.2 0  3.188695652173913 0.2 0  3.205217391304347 0.2 0  3.221739130434782 0.2 0  3.238260869565217 0.2 0  3.254782608695652 0.2 0  3.271304347826087 0.2 0  3.287826086956521 0.2 0  3.304347826086957 0.2 0  3.320869565217391 0.2 0  3.337391304347826 0.2 0  3.353913043478261 0.2 0  3.370434782608696 0.2 0  3.386956521739131 0.2 0  3.403478260869565 0.2 0  3.419999999999999 0.2 0  3.106086956521739 0.2166666666666667 0  3.122608695652174 0.2166666666666667 0  3.139130434782609 0.2166666666666667 0  3.155652173913043 0.2166666666666667 0  3.172173913043478 0.2166666666666667 0  3.188695652173913 0.2166666666666667 0  3.205217391304347 0.2166666666666667 0  3.221739130434782 0.2166666666666667 0  3.238260869565217 0.2166666666666667 0  3.254782608695652 0.2166666666666667 0  3.271304347826087 0.2166666666666667 0  3.287826086956521 0.2166666666666667 0  3.304347826086957 0.2166666666666667 0  3.320869565217391 0.2166666666666667 0  3.337391304347826 0.2166666666666667 0  3.353913043478261 0.2166666666666667 0  3.370434782608696 0.2166666666666667 0  3.386956521739131 0.2166666666666667 0  3.403478260869565 0.2166666666666667 0  3.419999999999999 0.2166666666666667 0  3.436521739130435 0.2166666666666667 0  3.122608695652174 0.2333333333333333 0  3.139130434782609 0.2333333333333333 0  3.155652173913043 0.2333333333333333 0  3.172173913043478 0.2333333333333333 0  3.188695652173913 0.2333333333333333 0  3.205217391304347 0.2333333333333333 0  3.221739130434782 0.2333333333333333 0  3.238260869565217 0.2333333333333333 0  3.254782
[...]
<PointData  Vectors="Displacement"> 
<DataArray  type="Float64"  Name="Displacement"  NumberOfComponents="3" format="ascii">3.1673700728136479e-04 3.0954564502133114e-03 0.0000000000000000e+00  3.1720389455378853e-04 3.1179841183196408e-03 0.0000000000000000e+00  2.9466453713332310e-04 3.1177814295573875e-03 0.0000000000000000e+00  2.9383017938923683e-04 3.0952411582627964e-03 0.0000000000000000e+00  3.1766344560162243e-04 3.1401469933787663e-03 0.0000000000000000e+00  2.9545402127476657e-04 3.1399535103795889e-03 0.0000000000000000e+00  3.1811871116664629e-04 3.1620022665681665e-03 0.0000000000000000e+00  2.9618847802553508e-04 3.1618225635285653e-03 0.0000000000000000e+00  3.1857181192587963e-04 3.1835951170819453e-03 0.0000000000000000e+00  2.9685992866842098e-04 3.1834342878980402e-03 0.0000000000000000e+00  3.1905569973465629e-04 3.2049829992784030e-03 0.0000000000000000e+00  2.9746249590060348e-04 3.2048084315882404e-03 0.0000000000000000e+00  3.1958166491324327e-04 3.2263392625399550e-03 0.0000000000000000e+00  2.9802384933956967e-04 3.2261344805454757e-03 0.0000000000000000e+00  3.2004416051585653e-04 3.2478514374450818e-03 0.0000000000000000e+00  2.9852712981912326e-04 3.2476785926942695e-03 0.0000000000000000e+00  3.2028146494226877e-04 3.2693644517534149e-03 0.0000000000000000e+00  2.9893205331683702e-04 3.2693491713930880e-03 0.0000000000000000e+00  3.2043531394473435e-04 3.2909765720708912e-03 0.0000000000000000e+00  2.9925992802785418e-04 3.2911369844285440e-03 0.0000000000000000e+00  3.2336552685680411e-04 3.3146313010938133e-03 0.0000000000000000e+00  3.0007847621510441e-04 3.3137815977314108e-03 0.0000000000000000e+00  3.2577155330648498e-04 3.3383336127952240e-03 0.0000000000000000e+00  3.0234554065284566e-04 3.3376806425073169e-03 0.0000000000000000e+00  3.2784208387063609e-04 3.3619571996220429e-03 0.0000000000000000e+00  3.0418137186342460e-04 3.3613692057493398e-03 0.0000000000000000e+00  3.2966218863665419e-04 3.3858596915236779e-03 0.0000000000000000e+00  3.0568207710540473e-04 3.3853411921184228e-03 0.0000000000000000e+00  3.3125085240758576e-04 3.4100690931148803e-03 0.0000000000000000e+00  3.0696904340658289e-04 3.4096151822360647e-03 0.0000000000000000e+00  3.3262265753024057e-04 3.4345335684015112e-03 0.0000000000000000e+00  3.0809539540724144e-04 3.4341403436324975e-03 0.0000000000000000e+00  3.3379530908229157e-04 3.4591845904515727e-03 0.0000000000000000e+00  3.0908293236128992e-04 3.4588478718245619e-03 0.0000000000000000e+00  2.7220665819216005e-04 3.1174674921213776e-03 0.0000000000000000e+00  2.7094956514370965e-04 3.0949147395668225e-03 0.0000000000000000e+00  2.7338538771001612e-04 3.1396678064687972e-03 0.0000000000000000e+00  2.7438872467923061e-04 3.1615548529404648e-03 0.0000000000000000e+00  2.7530625521217313e-04 3.1832141484656683e-03 0.0000000000000000e+00  2.7610877788480183e-04 3.2046203912216480e-03 0.0000000000000000e+00  2.7664050028688118e-04 3.2258460289090402e-03 0.0000000000000000e+00  2.7713621238861064e-04 3.2474222931527276e-03 0.0000000000000000e+00  2.7762062520257630e-04 3.2692333833087292e-03 0.0000000000000000e+00  2.7814063696629608e-04 3.2912669013165806e-03 0.0000000000000000e+00  2.7885897255724897e-04 3.3139214501942205e-03 0.0000000000000000e+00  2.7998614125215979e-04 3.3372662705553574e-03 0.0000000000000000e+00  2.8146350971178696e-04 3.3610011311764501e-03 0.0000000000000000e+00  2.8225519529424630e-04 3.3849832013741871e-03 0.0000000000000000e+00  2.8307608245342495e-04 3.4092836172342745e-03 0.0000000000000000e+00  2.8388409442227591e-04 3.4338431129106854e-03 0.0000000000000000e+00  2.8464554135452646e-04 3.4585955373982054e-03 0.0000000000000000e+00  2.8534682018840842e-04 3.4834284445662855e-03 0.0000000000000000e+00  2.5074173248316095e-04 3.1155423023095088e-03 0.0000000000000000e+00  2.5184902730225871e-04 3.1379430954074456e-03 0.0000000000000000e+00  2.5275569248880503e-04 3.1601891444136138e-03 0.0000000000000000e+00  2.5350393262890480e-04 3.1828979601353702e-03 0.0000000000000000e+00  2.5517856285610228e-04 3.2044219047783025e-03 0.0000000000000000e+00  2.5542878897206637e-04 3.2255433053358178e-03 0.0000000000000000e+00  2.5564030843996987e-04 3.2471577863941443e-03 0.0000000000000000e+00  2.5591809146846209e-04 3.2690758614705717e-03 0.0000000000000000e+00  2.5625697155118077e-04 3.2912514841618888e-03 0.0000000000000000e+00  2.5668886798400008e-04 3.3138893345205037e-03 0.0000000000000000e+00  2.5728575402275342e-04 3.3370779591714492e-03 0.0000000000000000e+00  2.5800512257121398e-04 3.3607714702758415e-03 0.0000000000000000e+00  2.5863251827704998e-04 3.3848173864669717e-03 0.0000000000000000e+00  2.5925498158564138e-04 3.4091341344433790e-03 0.0000000000000000e+00  2.5972290139775374e-04 3.4336344956060541e-03 0.0000000000000000e+00  2.6034241480578531e-04 3.4584438137887914e-03 0.0000000000000000e+00  2.6088802683624061e-04 3.4832802710177218e-03 0.0000000000000000e+00  2.6140105798131601e-04 3.5081752583717997e-03 0.0000000000000000e+00  2.3060162324610981e-04 3.1362433794350024e-03 0.0000000000000000e+00  2.2941911796964154e-04 3.1136853442257670e-03 0.0000000000000000e+00  2.3166241067412640e-04 3.1586090573515655e-03 0.0000000000000000e+00  2.3266071442603489e-04 3.1809026686287507e-03 0.0000000000000000e+00  2.3360669028643554e-04 3.2029744162631124e-03 0.0000000000000000e+00  2.3373686739743484e-04 3.2250859869528358e-03 0.0000000000000000e+00  2.3380135383116392e-04 3.2469630652027883e-03 0.0000000000000000e+00  2.3384671284430668e-04 3.2689845105995947e-03 0.0000000000000000e+00  2.3393318257122414e-04 3.2912361726822555e-03 0.0000000000000000e+00  2.3407610745102022e-04 3.3138892928299564e-03 0.0000000000000000e+00  2.3430399957626819e-04 3.3370361276314608e-03 0.0000000000000000e+00  2.3462436009439298e-04 3.3606786642168935e-03 0.0000000000000000e+00  2.3500685377770056e-04 3.3847361801413013e-03 0.0000000000000000e+00  2.3542911371957968e-04 3.4090729775535277e-03 0.0000000000000000e+00  2.3585512800482835e-04 3.4336722797757490e-03 0.0000000000000000e+00  2.3623296572936419e-04 3.4584077018515545e-03 0.0000000000000000e+00  2.3654824757135380e-04 3.4832180379354770e-03 0.0000000000000000e+00  2.3690123801230420e-04 3.5080894561507897e-03 0.0000000000000000e+00  2.3726883758876590e-04 3.5330468297615106e-03 0.0000000000000000e+00  2.0949514888119201e-04 3.1345401958861371e-03 0.0000000000000000e+00  2.1068656758746471e-04 3.1569771569143531e-03 0.0000000000000000e+00  2.1175846916719193e-04 3.1792234156984810e-03 0.0000000000000000e+00  2.1173764720000459e-04 3.2019280791261784e-03 0.0000000000000000e+00  2.1168311972432781e-04 3.2246157296902844e-03 0.0000000000000000e+00  2.1163391406932492e-04 3.2468270377320175e-03 0.0000000000000000e+00  2.1150458336716230e-04 3.2689719983394218e-03 0.0000000000000000e+00  2.1135444805267224e-04 3.2912659788014720e-03 0.0000000000000000e+00  2.1120724660570779e-04 3.3139264090750434e-03 0.0000000000000000e+00  2.1111153867398356e-04 3.3370559740908338e-03 0.0000000000000000e+00  2.1111319856704805e-04 3.3606702053271989e-03 0.0000000000000000e+00  2.1122146343398253e-04 3.3847204269874557e-03 0.0000000000000000e+00  2.1140962430304253e-04 3.4090844708471340e-03 0.0000000000000000e+00  2.1164871830969476e-04 3.4336802576467500e-03 0.0000000000000000e+00  2.1193335289123553e-04 3.4584270372930463e-03 0.0000000000000000e+00  2.1221408711346820e-04 3.4832762608962629e-03 0.0000000000000000e+00  2.1237624367406404e-04 3.5080538458973931e-03 0.0000000000000000e+00  2.1266688196545079e-04 3.5330156090794709e-03 0.0000000000000000e+00  2.1296229271824377e-04 3.5579961248556227e-03 0.0000000000000000e+00  1.8943337864051602e-04 3.1556561418366381e-03 0.0000000000000000e+00  1.8824457483557615e-04 3.1328886652407873e-03 0.0000000000000000e+00  1.8964160725829752e-04 3.1784707219152421e-03 0.0000000000000000e+00  1.8942471685522142e-04 3.2016773301206296e-03 0.0000000000000000e+00  1.8934596720908122e-04 3.2243638980968964e-03 0.0000000000000000e+00  1.8925093158213657e-04 3.2467690472646887e-03 0.0000000000000000e+00  1.8907006850983366e-04 3.2690381448707562e-03 0.0000000000000000e+00  1.8870865490219611e-04 3.2913639998625732e-03 0.0000000000000000e+00  1.8822211489391414e-04 3.3140403298161101e-03 0.0000000000000000e+00  1.8769822485283975e-04 3.3371447717002183e-03 0.0000000000000000e+00  1.8732330646067350e-04 3.3607082807358469e-03 0.0000000000000000e+00  1.8716841392618622e-04 3.3847417694829311e-03 0.0000000000000000e+00  1.8720125259792040e-04 3.4091380377513445e-03 0.0000000000000000e+00  1.8731347534058402e-04 3.4337406996820070e-03 0.0000000000000000e+00  1.8747515304056665e-04 3.4584815017632562e-03 0.0000000000000000e+00  1.8766404248133834e-04 3.4833055276485437e-03 0.0000000000000000e+00  1.8785273267625885e-04 3.5081341301800265e-03 0.0000000000000000e+00  1.8804017779174752e-04 3.5330144315856944e-03 0.0000000000000000e+00  1.8830392075151444e-04 3.5580007964240955e-03 0.0000000000000000e+00  1.8856088035879110e-04 3.5829453856289000e-03 0.0000000000000000e+00  1.6744409581600445e-04 3.1546062331702729e-03 0.0000000000000000e+00  1.6721303223314588e-04 3.1781535775256926e-03 0.0000000000000000e+00  1.6705372921599007e-04 3.2013801287490715e-03 0.0000000000000000e+00  1.6694817279569088e-04 3.2242036879393623e-03 0.0000000000000000e+00  1.6686531856296088e-04 3.2467433030565151e-03 0.0000000000000000e+00  1.6677242445914576e-04 3.2690815786845088e-03 0.0000000000000000e+00  1.6660496290898621e-04 3.2914137989607677e-03 0.0000000000000000e+00  1.6562684015745746e-04 3.3141745978256085e-03 0.0000000000000000e+00  1.6468797145684824e-04 3.3376374743024563e-03 0.0000000000000000e+00  1.6356615940681771e-04 3.3608406477310723e-03 0.0000000000000000e+00  1.6276080939320076e-04 3.3848035575245483e-03 0.0000000000000000e+00  1.6269598743591743e-04 3.4091742127733984e-03 0.0000000000000000e+00  1.6280570841939478e-04 3.4338004359178997e-03 0.0000000000000000e+00  1.6295596196498608e-04 3.4585566310830220e-03 0.0000000000000000e+00  1.6312161372869223e-04 3.4833649922776156e-03 0.0000000000000000e+00  1.6330757540496970e-04 3.5082117899250978e-03 0.0000000000000000e+00  1.6351615140465373e-04 3.5331197751712145e-03 0.0000000000000000e+00  1.6372499656563947e-04 3.5580643918151581e-03 0.0000000000000000e+00  1.6388040940196378e-04 3.5829443628865995e-03 0.0000000000000000e+00  1.6410021412055078e-04 3.6078803146459204e-03 0.0000000000000000e+00  1.4442350363239132e-04 3.1779197623081432e-03 0.0000000000000000e+00  1.4458834892586199e-04 3.1543344342431019e-03 0.0000000000000000e+00  1.4431068169114069e-04 3.2011919600021840e-03 0.0000000000000000e+00  1.4425723644552818e-04 3.2241285125032015e-03 0.0000000000000000e+00  1.4423625776172619e-04 3.2467550380239699e-03 0.0000000000000000e+00  1.4423371458122746e-04 3.2691321343184488e-03 0.0000000000000000e+00  1.4351674328337742e-04 3.2918187149573639e-03 0.0000000000000000e+00  1.4259819342210924e-04 3.3149160031130400e-03 0.0000000000000000e+00  1.4162648267622443e-04 3.3382962119852086e-03 0.0000000000000000e+00  1.4069475099541876e-04 3.3617490797536020e-03 0.0000000000000000e+00  1.3978109700105051e-04 3.3855450811687308e-03 0.0000000000000000e+00  1.3900745679004954e-04 3.4096172284431912e-03 0.0000000000000000e+00  1.3821878830072243e-04 3.4338452795326354e-03 0.0000000000000000e+00  1.3838034547547027e-04 3.4586252206296212e-03 0.0000000000000000e+00  1.3852389961462689e-04 3.4834278273954107e-03 0.0000000000000000e+00  1.3868398516023620e-04 3.5082838881628046e-03 0.0000000000000000e+00  1.3884968216570267e-04 3.5331834042361485e-03 0.0000000000000000e+00  1.3901766109056333e-04 3.5581023751403767e-03 0.0000000000000000e+00  1.3918410873896113e-04 3.5829976192751326e-03 0.0000000000000000e+00  1.3929396377580720e-04 3.6078283058914944e-03 0.0000000000000000e+00  1.3957638197451005e-04 3.6328620378852723e-03 0.0000000000000000e+00  1.2130559895018688e-04 3.1777479445960779e-03 0.0000000000000000e+00  1.2125363901861423e-04 3.2010846396703803e-03 0.0000000000000000e+00  1.2125380917663004e-04 3.2241090077861842e-03 0.0000000000000000e+00  1.2129252655942247e-04 3.2468062769987842e-03 0.0000000000000000e+00  1.2129854442370457e-04 3.2693913598487549e-03 0.0000000000000000e+00  1.2031813238508733e-04 3.2923246263839617e-03 0.0000000000000000e+00  1.1936621188141070e-04 3.3155272698632441e-03 0.0000000000000000e+00  1.1843537055480689e-04 3.3389353564966975e-03 0.0000000000000000e+00  1.1752104798829830e-04 3.3624790616806144e-03 0.0000000000000000e+00  1.1660059257979268e-04 3.3862724419277896e-03 0.0000000000000000e+00  1.1569681841111349e-04 3.4102872522855320e-03 0.0000000000000000e+00  1.1478171905553290e-04 3.4344819948995495e-03 0.0000000000000000e+00  1.1376772722732123e-04 3.4587129609398950e-03 0.0000000000000000e+00  1.1386518999184056e-04 3.4834784764730706e-03 0.0000000000000000e+00  1.1402931043535807e-04 3.5083509243656304e-03 0.0000000000000000e+00  1.1419180926198532e-04 3.5332551985738504e-03 0.0000000000000000e+00  1.1435855046344396e-04 3.5581671298778430e-03 0.0000000000000000e+00  1.1452876989406521e-04 3.5830617915933128e-03 0.0000000000000000e+00  1.1469165666047489e-04 3.6079422726495074e-03 0.0000000000000000e+00  1.1485104530939053e-04 3.6328375118467068e-03 0.0000000000000000e+00  1.1509920859736992e-04 3.6578652454888703e-03 0.0000000000000000e+00  9.7904996933840361e-05 3.2010422023071492e-03 0.0000000000000000e+00  9.7944712098810903e-05 3.2241307376083758e-03 0.0000000000000000e+00  9.8035654330243450e-05 3.2469228250267472e-03 0.0000000000000000e+00  9.7417940718888169e-05 3.2696099218291279e-03 0.0000000000000000e+00  9.6718423754738267e-05 3.2927739654347917e-03 0.0000000000000000e+00  9.5924823918608725e-05 3.3160440820085230e-03 0.0000000000000000e+00  9.5100153503146034e-05 3.3394920074815513e-03 0.0000000000000000e+00  9.4253068130948020e-05 3.3631016445469027e-03 0.0000000000000000e+00  9.3381640646914430e-05 3.3869169535473368e-03 0.0000000000000000e+00  9.2506619565834548e-05 3.4109221756012365e-03 0.0000000000000000e+00  9.1643426349938471e-05 3.4350883247033070e-03 0.0000000000000000e+00  9.0809639965470066e-05 3.4593542237566660e-03 0.0000000000000000e+00  9.0062682559463735e-05 3.4837702800355479e-03 0.0000000000000000e+00  8.9325666105365801e-05 3.5083947437981192e-03 0.0000000000000000e+00  8.9511453352807772e-05 3.5333176799006755e-03 0.0000000000000000e+00  8.9701375890813552e-05 3.5582344372026451e-03 0.0000000000000000e+00  8.9882774908252641e-05 3.5831236522675587e-03 0.0000000000000000e+00  9.0063318598388091e-05 3.6080177803133502e-03 0.0000000000000000e+00  9.0241803876593200e-05 3.6329336984205242e-03 0.0000000000000000e+00  9.0431732089290694e-05 3.6578907395882305e-03 0.0000000000000000e+00  9.0616790088433711e-05 3.6828601725178473e-03 0.0000000000000000e+00  7.4368227982247952e-05 3.2242050794740124e-03 0.0000000000000000e+00  7.4031194830161915e-05 3.2468378639046100e-03 0.0000000000000000e+00  7.3635535724190726e-05 3.2698287235296119e-03 0.0000000000000000e+00  7.3074287472089467e-05 3.2930408596950058e-03 0.0000000000000000e+00  7.2435919371173247e-05 3.3164100097371283e-03 0.0000000000000000e+00  7.1722052764539105e-05 3.3399321847209710e-03 0.0000000000000000e+00  7.0951690741984598e-05 3.3636128181113957e-03 0.0000000000000000e+00  7.0136141973950995e-05 3.3874694028206520e-03 0.0000000000000000e+00  6.9293545158903618e-05 3.4114901125000870e-03 0.0000000000000000e+00  6.8437750631291847e-05 3.4356528124842244e-03 0.0000000000000000e+00  6.7575422981187269e-05 3.4599253869552031e-03 0.0000000000000000e+00  6.6704639482680151e-05 3.4843188664405024e-03 0.0000000000000000e+00  6.5823280836682261e-05 3.5088561428369314e-03 0.0000000000000000e+00  6.4928029534338231e-05 3.5334248982499322e-03 0.0000000000000000e+00  6.5082784989481361e-05 3.5583111158259935e-03 0.0000000000000000e+00  6.5241056115675577e-05 3.5831828286421283e-03 0.0000000000000000e+00  6.5413429759072708e-05 3.6080807274352544e-03 0.0000000000000000e+00  6.5589559546527071e-05 3.6330107678565343e-03 0.0000000000000000e+00  6.5776657294355393e-05 3.6579683243388350e-03 0.0000000000000000e+00  6.5977800080353757e-05 3.6829405661929740e-03 0.0000000000000000e+00  6.6064568469003447e-05 3.7077649313037790e-03 0.0000000000000000e+00  5.0244666172933916e-05 3.2467424733555843e-03 0.0000000000000000e+00  4.9944144277802740e-05 3.2698528411602523e-03 0.0000000000000000e+00  4.9516370186157110e-05 3.2931726950150217e-03 0.0000000000000000e+00  4.8982811464927818e-05 3.3166416145560713e-03 0.0000000000000000e+00  4.8358651018797891e-05 3.3402580588555394e-03 0.0000000000000000e+00  4.7657214370230281e-05 3.3640211634748170e-03 0.0000000000000000e+00  4.6892681503872857e-05 3.3879369515060318e-03 0.0000000000000000e+00  4.6080516228114684e-05 3.4119964108901514e-03 0.0000000000000000e+00  4.5231751622336305e-05 3.4361836183763902e-03 0.0000000000000000e+00  4.4350771668583817e-05 3.4604797856978729e-03 0.0000000000000000e+00  4.3435627803060541e-05 3.4848826901797384e-03 0.0000000000000000e+00  4.2486518220835174e-05 3.5093857065162859e-03 0.0000000000000000e+00  4.1500391428536474e-05 3.5339183813226376e-03 0.0000000000000000e+00  4.0448056431316437e-05 3.5583973372313644e-03 0.0000000000000000e+00  4.0581048345590562e-05 3.5832483431908336e-03 0.0000000000000000e+00  4.0731033606276392e-05 3.6081392162698946e-03 0.0000000000000000e+00  4.0895957870073116e-05 3.6330865571080782e-03 0.0000000000000000e+00  4.1061261676052089e-05 3.6580380215468808e-03 0.0000000000000000e+00  4.1226175350505357e-05 3.6829750623546291e-03 0.0000000000000000e+00  4.1374489189364615e-05 3.7078547250508588e-03 0.0000000000000000e+00  4.1518211228365499e-05 3.7327107226733636e-03 0.0000000000000000e+00  2.6401363972292935e-05 3.2697451745974174e-03 0.0000000000000000e+00  2.6058437097507528e-05 3.2931831642495795e-03 0.0000000000000000e+00  2.5601737086144556e-05 3.3167654461528449e-03 0.0000000000000000e+00  2.5044140956282212e-05 3.3404850535307356e-03 0.0000000000000000e+00  2.4398734855030589e-05 3.3643395061985393e-03 0.0000000000000000e+00  2.3678426660121214e-05 3.3883282985102143e-03 0.0000000000000000e+00  2.2896409279755786e-05 3.4124438972189747e-03 0.0000000000000000e+00  2.2062715804382256e-05 3.4366745076731715e-03 0.0000000000000000e+00  2.1182969870920292e-05 3.4610069883801984e-03 0.0000000000000000e+00  2.0259076705123275e-05 3.4854331710275298e-03 0.0000000000000000e+00  1.9292358186585519e-05 3.5099374652499613e-03 0.0000000000000000e+00  1.8277667156042028e-05 3.5344742812143276e-03 0.0000000000000000e+00  1.7184717798648689e-05 3.5589855275564618e-03 0.0000000000000000e+00  1.5927050128448916e-05 3.5833591425202651e-03 0.0000000000000000e+00  1.5966794714622471e-05 3.6081698221009421e-03 0.0000000000000000e+00  1.6174599838560951e-05 3.6331539371079516e-03 0.0000000000000000e+00  1.6371989180030780e-05 3.6581146715117079e-03 0.0000000000000000e+00  1.6552627634248440e-05 3.6830328973120135e-03 0.0000000000000000e+00  1.6727579889969655e-05 3.7079224671692115e-03 0.0000000000000000e+00  1.6888015242744792e-05 3.7327920084405408e-03 0.0000000000000000e+00  1.7058614537039449e-05 3.7576904554592525e-03 0.0000000000000000e+00  2.7079376842386950e-06 3.2930982008072961e-03 0.0000000000000000e+00  2.3042578444479234e-06 3.3168002230763633e-03 0.0000000000000000e+00  1.7957359569988367e-06 3.3406290855883258e-03 0.0000000000000000e+00  1.1940565936814606e-06 3.3645807589522503e-03 0.0000000000000000e+00  5.1101430782322240e-07 3.3886517142978599e-03 0.0000000000000000e+00  -2.4158042233946859e-07 3.4128347439552659e-03 0.0000000000000000e+00  -1.0534513675243429e-06 3.4371199352596555e-03 0.0000000000000000e+00  -1.9162669251897845e-06 3.4614959286055130e-03 0.0000000000000000e+00  -2.8225542983478374e-06 3.4859512563517182e-03 0.0000000000000000e+00  -3.7633298103339702e-06 3.5104673980882201e-03 0.0000000000000