<?xml version="1.0"?>
<VTKFile type="UnstructuredGrid"  version="0.1"  >
<UnstructuredGrid>
<Piece  NumberOfPoints="640" NumberOfCells="1175">
<Points>
<DataArray  type="Float64"  NumberOfComponents="3"  format="ascii">2.577391304347826 0 0  2.593913043478261 0 0  2.593913043478261 0.01666666666666667 0  2.577391304347826 0.01666666666666667 0  2.610434782608696 0 0  2.610434782608696 0.01666666666666667 0  2.62695652173913 0 0  2.62695652173913 0.01666666666666667 0  2.643478260869565 0 0  2.643478260869565 0.01666666666666667 0  2.66 0 0  2.66 0.01666666666666667 0  2.676521739130435 0 0  2.676521739130435 0.01666666666666667 0  2.693043478260869 0 0  2.693043478260869 0.01666666666666667 0  2.709565217391304 0 0  2.709565217391304 0.01666666666666667 0  2.726086956521739 0 0  2.726086956521739 0.01666666666666667 0  2.742608695652174 0 0  2.742608695652174 0.01666666666666667 0  2.759130434782609 0 0  2.759130434782609 0.01666666666666667 0  2.775652173913044 0 0  2.775652173913044 0.01666666666666667 0  2.792173913043478 0 0  2.792173913043478 0.01666666666666667 0  2.808695652173913 0 0  2.808695652173913 0.01666666666666667 0  2.825217391304347 0 0  2.825217391304347 0.01666666666666667 0  2.841739130434783 0 0  2.841739130434783 0.01666666666666667 0  2.858260869565217 0 0  2.858260869565217 0.01666666666666667 0  2.874782608695652 0 0  2.874782608695652 0.01666666666666667 0  2.891304347826087 0 0  2.891304347826087 0.01666666666666667 0  2.907826086956522 0 0  2.907826086956522 0.01666666666666667 0  2.924347826086957 0 0  2.924347826086957 0.01666666666666667 0  2.940869565217391 0 0  2.940869565217391 0.01666666666666667 0  2.957391304347826 0 0  2.957391304347826 0.01666666666666667 0  2.973913043478261 0 0  2.973913043478261 0.01666666666666667 0  2.593913043478261 0.03333333333333333 0  2.610434782608696 0.03333333333333333 0  2.62695652173913 0.03333333333333333 0  2.643478260869565 0.03333333333333333 0  2.66 0.03333333333333333 0  2.676521739130435 0.03333333333333333 0  2.693043478260869 0.03333333333333333 0  2.709565217391304 0.03333333333333333 0  2.726086956521739 0.03333333333333333 0  2.742608695652174 0.03333333333333333 0  2.759130434782609 0.03333333333333333 0  2.775652173913044 0.03333333333333333 0  2.792173913043478 0.03333333333333333 0  2.808695652173913 0.03333333333333333 0  2.825217391304347 0.03333333333333333 0  2.841739130434783 0.03333333333333333 0  2.858260869565217 0.03333333333333333 0  2.874782608695652 0.03333333333333333 0  2.891304347826087 0.03333333333333333 0  2.907826086956522 0.03333333333333333 0  2.924347826086957 0.03333333333333333 0  2.940869565217391 0.03333333333333333 0  2.957391304347826 0.03333333333333333 0  2.973913043478261 0.03333333333333333 0  2.610434782608696 0.05 0  2.62695652173913 0.05 0  2.643478260869565 0.05 0  2.66 0.05 0  2.676521739130435 0.05 0  2.693043478260869 0.05 0  2.709565217391304 0.05 0  2.726086956521739 0.05 0  2.742608695652174 0.05 0  2.759130434782609 0.05 0  2.775652173913044 0.05 0  2.792173913043478 0.05 0  2.808695652173913 0.05 0  2.825217391304347 0.05 0  2.841739130434783 0.05 0  2.858260869565217 0.05 0  2.874782608695652 0.05 0  2.891304347826087 0.05 0  2.907826086956522 0.05 0  2.924347826086957 0.05 0  2.940869565217391 0.05 0  2.957391304347826 0.05 0  2.973913043478261 0.05 0  2.990434782608696 0.05 0  2.62695652173913 0.06666666666666667 0  2.643478260869565 0.06666666666666667 0  2.66 0.06666666666666667 0  2.676521739130435 0.06666666666666667 0  2.693043478260869 0.06666666666666667 0  2.709565217391304 0.06666666666666667 0  2.726086956521739 0.06666666666666667 0  2.742608695652174 0.06666666666666667 0  2.759130434782609 0.06666666666666667 0  2.775652173913044 0.06666666666666667 0  2.792173913043478 0.06666666666666667 0  2.808695652173913 0.06666666666666667 0  2.825217391304347 0.06666666666666667 0  2.841739130434783 0.06666666666666667 0  2.858260869565217 0.06666666666666667 0  2.874782608695652 0.06666666666666667 0  2.891304347826087 0.06666666666666667 0  2.907826086956522 0.06666666666666667 0  2.924347826086957 0.06666666666666667 0  2.940869565217391 0.06666666666666667 0  2.957391304347826 0.06666666666666667 0  2.973913043478261 0.06666666666666667 0  2.990434782608696 0.06666666666666667 0  2.643478260869565 0.08333333333333333 0  2.66 0.08333333333333333 0  2.676521739130435 0.08333333333333333 0  2.693043478260869 0.08333333333333333 0  2.709565217391304 0.08333333333333333 0  2.726086956521739 0.08333333333333333 0  2.742608695652174 0.08333333333333333 0  2.759130434782609 0.08333333333333333 0  2.775652173913044 0.08333333333333333 0  2.792173913043478 0.08333333333333333 0  2.808695652173913 0.08333333333333333 0  2.825217391304347 0.08333333333333333 0  2.841739130434783 0.08333333333333333 0  2.858260869565217 0.08333333333333333 0  2.874782608695652 0.08333333333333333 0  2.891304347826087 0.08333333333333333 0  2.907826086956522 0.08333333333333333 0  2.924347826086957 0.08333333333333333 0  2.940869565217391 0.08333333333333333 0  2.957391304347826 0.08333333333333333 0  2.973913043478261 0.08333333333333333 0  2.990434782608696 0.08333333333333333 0  3.006956521739131 0.08333333333333333 0  2.66 0.1 0  2.676521739130435 0.1 0  2.693043478260869 0.1 0  2.709565217391304 0.1 0  2.726086956521739 0.1 0  2.742608695652174 0.1 0  2.759130434782609 0.1 0  2.775652173913044 0.1 0  2.792173913043478 0.1 0  2.808695652173913 0.1 0  2.825217391304347 0.1 0  2.841739130434783 0.1 0  2.858260869565217 0.1 0  2.874782608695652 0.1 0  2.891304347826087 0.1 0  2.907826086956522 0.1 0  2.924347826086957 0.1 0  2.940869565217391 0.1 0  2.957391304347826 0.1 0  2.973913043478261 0.1 0  2.990434782608696 0.1 0  3.006956521739131 0.1 0  2.676521739130435 0.1166666666666667 0  2.693043478260869 0.1166666666666667 0  2.709565217391304 0.1166666666666667 0  2.726086956521739 0.1166666666666667 0  2.742608695652174 0.1166666666666667 0  2.759130434782609 0.1166666666666667 0  2.775652173913044 0.1166666666666667 0  2.792173913043478 0.1166666666666667 0  2.808695652173913 0.1166666666666667 0  2.825217391304347 0.1166666666666667 0  2.841739130434783 0.1166666666666667 0  2.858260869565217 0.1166666666666667 0  2.874782608695652 0.1166666666666667 0  2.891304347826087 0.1166666666666667 0  2.907826086956522 0.1166666666666667 0  2.924347826086957 0.1166666666666667 0  2.940869565217391 0.1166666666666667 0  2.957391304347826 0.1166666666666667 0  2.973913043478261 0.1166666666666667 0  2.990434782608696 0.1166666666666667 0  3.006956521739131 0.1166666666666667 0  3.023478260869565 0.1166666666666667 0  2.693043478260869 0.1333333333333333 0  2.709565217391304 0.1333333333333333 0  2.726086956521739 0.1333333333333333 0  2.742608695652174 0.1333333333333333 0  2.759130434782609 0.1333333333333333 0  2.775652173913044 0.1333333333333333 0  2.792173913043478 0.1333333333333333 0  2.808695652173913 0.1333333333333333 0  2.825217391304347 0.1333333333333333 0  2.841739130434783 0.1333333333333333 0  2.858260869565217 0.1333333333333333 0  2.874782608695652 0.1333333333333333 0  2.891304347826087 0.1333333333333333 0  2.907826086956522 0.1333333333333333 0  2.924347826086957 0.1333333333333333 0  2.940869565217391 0.1333333333333333 0  2.957391304347826 0.1333333333333333 0  2.973913043478261 0.1333333333333333 0  2.990434782608696 0.1333333333333333 0  3.006956521739131 0.1333333333333333 0  3.023478260869565 0.1333333333333333 0  2.726086956521739 0.15 0  2.742608695652174 0.15 0  2.759130434782609 0.15 0  2.775652173913044 0.15 0  2.792173913043478 0.15 0  2.808695652173913 0.15 0  2.825217391304347 0.15 0  2.841739130434783 0.15 0  2.858260869565217 0.15 0  2.874782608695652 0.15 0  2.891304347826087 0.15 0  2.907826086956522 0.15 0  2.924347826086957 0.15 0  2.940869565217391 0.15 0  2.957391304347826 0.15 0  2.973913043478261 0.15 0  2.990434782608696 0.15 0  3.006956521739131 0.15 0  3.023478260869565 0.15 0  3.04 0.15 0  2.742608695652174 0.1666666666666667 0  2.759130434782609 0.1666666666666667 0  2.775652173913044 0.1666666666666667 0  2.792173913043478 0.1666666666666667 0  2.808695652173913 0.1666666666666667 0  2.825217391304347 0.1666666666666667 0  2.841739130434783 0.1666666666666667 0  2.858260869565217 0.1666666666666667 0  2.874782608695652 0.1666666666666667 0  2.891304347826087 0.1666666666666667 0  2.907826086956522 0.1666666666666667 0  2.924347826086957 0.1666666666666667 0  2.940869565217391 0.1666666666666667 0  2.957391304347826 0.1666666666666667 0  2.973913043478261 0.1666666666666667 0  2.990434782608696 0.1666666666666667 0  3.006956521739131 0.1666666666666667 0  3.023478260869565 0.1666666666666667 0  3.04 0.1666666666666667 0  3.056521739130435 0.1666666666666667 0  2.759130434782609 0.1833333333333333 0  2.775652173913044 0.1833333333333333 0  2.792173913043478 0.1833333333333333 0  2.808695652173913 0.1833333333333333 0  2.825217391304347 0.1833333333333333 0  2.841739130434783 0.1833333333333333 0  2.858260869565217 0.1833333333333333 0  2.874782608695652 0.1833333333333333 0  2.891304347826087 0.1833333333333333 0  2.907826086956522 0.1833333333333333 0  2.924347826086957 0.1833333333333333 0  2.940869565217391 0.1833333333333333 0  2.957391304347826 0.1833333333333333 0  2.973913043478261 0.1833333333333333 0  2.990434782608696 0.1833333333333333 0  3.006956521739131 0.1833333333333333 0  3.023478260869565 0.1833333333333333 0  3.04 0.1833333333333333 0  3.056521739130435 0.1833333333333333 0  3.073043478260869 0.1833333333333333 0  2.775652173913044 0.2 0  2.792173913043478 0.2 0  2.808695652173913 0.2 0  2.825217391304347 0.2 0  2.841739130434783 0.2 0  2.858260869565217 0.2 0  2.874782608695652 0.2 0  2.891304347826087 0.2 0  2.907826086956522 0.2 0  2.924347826086957 0.2 0  2.940869565217391 0.2 0  2.957391304347826 0.2 0  2.973913043478261 0.2 0  2.990434782608696 0.2 0  3.006956521739131 0.2 0  3.023478260869565 0.2 0  3.04 0.2 0  3.056521739130435 0.
[...]
<PointData  Vectors="Displacement"> 
<DataArray  type="Float64"  Name="Displacement"  NumberOfComponents="3" format="ascii">2.9417562464478846e-04 2.5182417573606369e-03 0.0000000000000000e+00  2.9556610762740561e-04 2.5385470529121295e-03 0.0000000000000000e+00  2.7467131853051743e-04 2.5381958690315078e-03 0.0000000000000000e+00  2.7397293819168578e-04 2.5178969911460606e-03 0.0000000000000000e+00  2.9697485220596615e-04 2.5596215289970946e-03 0.0000000000000000e+00  2.7534709969610728e-04 2.5592660271512154e-03 0.0000000000000000e+00  2.9837687220008943e-04 2.5814581000204949e-03 0.0000000000000000e+00  2.7602690532644951e-04 2.5810968414911955e-03 0.0000000000000000e+00  2.9974051547990523e-04 2.6040286905242025e-03 0.0000000000000000e+00  2.7672214546069267e-04 2.6036773255218642e-03 0.0000000000000000e+00  3.0105075744408019e-04 2.6272373601852550e-03 0.0000000000000000e+00  2.7742878682875230e-04 2.6268950455296597e-03 0.0000000000000000e+00  3.0230950688733252e-04 2.6510065849512533e-03 0.0000000000000000e+00  2.7814840190051594e-04 2.6506694526024564e-03 0.0000000000000000e+00  3.0352042699464022e-04 2.6752792413559860e-03 0.0000000000000000e+00  2.7888305372691913e-04 2.6749442057618909e-03 0.0000000000000000e+00  3.0468234251394469e-04 2.6999984576110744e-03 0.0000000000000000e+00  2.7963940370689716e-04 2.6996644110727792e-03 0.0000000000000000e+00  3.0578954966530692e-04 2.7250891663650749e-03 0.0000000000000000e+00  2.8042771076287426e-04 2.7247577214048963e-03 0.0000000000000000e+00  3.0683727800358902e-04 2.7504509794585570e-03 0.0000000000000000e+00  2.8125646215170017e-04 2.7501241623539502e-03 0.0000000000000000e+00  3.0782457082706758e-04 2.7759749502441612e-03 0.0000000000000000e+00  2.8212585137700621e-04 2.7756546573720342e-03 0.0000000000000000e+00  3.0875282707898036e-04 2.8015618939171210e-03 0.0000000000000000e+00  2.8302644337235112e-04 2.8012503486389232e-03 0.0000000000000000e+00  3.0962564682055280e-04 2.8271284611971182e-03 0.0000000000000000e+00  2.8394468156419918e-04 2.8268263739056397e-03 0.0000000000000000e+00  3.1044879540684738e-04 2.8526098705454125e-03 0.0000000000000000e+00  2.8487013014245297e-04 2.8523162973618072e-03 0.0000000000000000e+00  3.1122791996381869e-04 2.8779573327481992e-03 0.0000000000000000e+00  2.8579745999221436e-04 2.8776719105939024e-03 0.0000000000000000e+00  3.1196763004732211e-04 2.9031303677148545e-03 0.0000000000000000e+00  2.8672305084120973e-04 2.9028534294290313e-03 0.0000000000000000e+00  3.1267270308459608e-04 2.9280959571229693e-03 0.0000000000000000e+00  2.8764223769002761e-04 2.9278269777377182e-03 0.0000000000000000e+00  3.1334769383310193e-04 2.9528338898230275e-03 0.0000000000000000e+00  2.8855000108100670e-04 2.9525712990222364e-03 0.0000000000000000e+00  3.1399475851359747e-04 2.9773347871957030e-03 0.0000000000000000e+00  2.8944434380561243e-04 2.9770769235960598e-03 0.0000000000000000e+00  3.1461198585154462e-04 3.0015885094607786e-03 0.0000000000000000e+00  2.9032857303500548e-04 3.0013352270617634e-03 0.0000000000000000e+00  3.1519466254780777e-04 3.0255697837665886e-03 0.0000000000000000e+00  2.9120938843266278e-04 3.0253233272001336e-03 0.0000000000000000e+00  3.1574024819756722e-04 3.0492349287669358e-03 0.0000000000000000e+00  2.9209051190402216e-04 3.0489978846869096e-03 0.0000000000000000e+00  3.1625195475658334e-04 3.0725391601315469e-03 0.0000000000000000e+00  2.9296767090354348e-04 3.0723126019011737e-03 0.0000000000000000e+00  3.1673700728136479e-04 3.0954564502133114e-03 0.0000000000000000e+00  2.9383017938923683e-04 3.0952411582627964e-03 0.0000000000000000e+00  2.5389227859742283e-04 2.5380367549752191e-03 0.0000000000000000e+00  2.5390306423639017e-04 2.5590668465918977e-03 0.0000000000000000e+00  2.5392085348871821e-04 2.5808581656332971e-03 0.0000000000000000e+00  2.5389726741409342e-04 2.6034689918738472e-03 0.0000000000000000e+00  2.5396172840965624e-04 2.6266960326991337e-03 0.0000000000000000e+00  2.5411968164322691e-04 2.6504623108932045e-03 0.0000000000000000e+00  2.5435057950909889e-04 2.6747202499895471e-03 0.0000000000000000e+00  2.5465982730750041e-04 2.6994191815371636e-03 0.0000000000000000e+00  2.5507833663466703e-04 2.7244939584149391e-03 0.0000000000000000e+00  2.5564851170760915e-04 2.7498462531528275e-03 0.0000000000000000e+00  2.5637551253017958e-04 2.7753632743103720e-03 0.0000000000000000e+00  2.5723488412939183e-04 2.8009476320083591e-03 0.0000000000000000e+00  2.5820090354530958e-04 2.8265163623039970e-03 0.0000000000000000e+00  2.5924139783760109e-04 2.8520020410582234e-03 0.0000000000000000e+00  2.6032659993111760e-04 2.8773542942715133e-03 0.0000000000000000e+00  2.6144847644455363e-04 2.9025333095683017e-03 0.0000000000000000e+00  2.6260006244040206e-04 2.9275066965938788e-03 0.0000000000000000e+00  2.6375517192781851e-04 2.9522528106543447e-03 0.0000000000000000e+00  2.6489215571551440e-04 2.9767594625117089e-03 0.0000000000000000e+00  2.6601701165493148e-04 3.0010149983651564e-03 0.0000000000000000e+00  2.6716694257259191e-04 3.0249971698886923e-03 0.0000000000000000e+00  2.6838289312582504e-04 3.0486671693264822e-03 0.0000000000000000e+00  2.6965975849094285e-04 3.0719815698072753e-03 0.0000000000000000e+00  2.7094956514370965e-04 3.0949147395668225e-03 0.0000000000000000e+00  2.3270360180963629e-04 2.5590619831131062e-03 0.0000000000000000e+00  2.3362011623749056e-04 2.5819390609980826e-03 0.0000000000000000e+00  2.3381522902995216e-04 2.6046650102204295e-03 0.0000000000000000e+00  2.3384189636283255e-04 2.6278311834681783e-03 0.0000000000000000e+00  2.3385386742939167e-04 2.6514751574595072e-03 0.0000000000000000e+00  2.3391212884554908e-04 2.6755683749807072e-03 0.0000000000000000e+00  2.3405282828600478e-04 2.7000583491144400e-03 0.0000000000000000e+00  2.3430660748304815e-04 2.7248777406074574e-03 0.0000000000000000e+00  2.3469854256437633e-04 2.7499431044071014e-03 0.0000000000000000e+00  2.3523850566089694e-04 2.7751688716609081e-03 0.0000000000000000e+00  2.3591961071645228e-04 2.8004751781235473e-03 0.0000000000000000e+00  2.3672586258853960e-04 2.8257884428671272e-03 0.0000000000000000e+00  2.3763703577442800e-04 2.8510469529723064e-03 0.0000000000000000e+00  2.3863267523345090e-04 2.8761998653913370e-03 0.0000000000000000e+00  2.3969595037272803e-04 2.9012038913857272e-03 0.0000000000000000e+00  2.4081236764819349e-04 2.9260268022084572e-03 0.0000000000000000e+00  2.4196742797646443e-04 2.9506467469171860e-03 0.0000000000000000e+00  2.4315043796616667e-04 2.9750439236749010e-03 0.0000000000000000e+00  2.4436003274128977e-04 2.9991957752408889e-03 0.0000000000000000e+00  2.4560332216515154e-04 3.0230758786006719e-03 0.0000000000000000e+00  2.4688575621476731e-04 3.0466582791953902e-03 0.0000000000000000e+00  2.4819640290121685e-04 3.0699275181703617e-03 0.0000000000000000e+00  2.4950068993665354e-04 3.0928831480035832e-03 0.0000000000000000e+00  2.5074173248316095e-04 3.1155423023095088e-03 0.0000000000000000e+00  2.1433275113484350e-04 2.5829035646355598e-03 0.0000000000000000e+00  2.1412975304780521e-04 2.6057203062976862e-03 0.0000000000000000e+00  2.1390984153815557e-04 2.6288863335567495e-03 0.0000000000000000e+00  2.1371250163496985e-04 2.6524482181774964e-03 0.0000000000000000e+00  2.1357876974914780e-04 2.6763990057600568e-03 0.0000000000000000e+00  2.1354101606241830e-04 2.7006986316848529e-03 0.0000000000000000e+00  2.1362521388047852e-04 2.7252888393040735e-03 0.0000000000000000e+00  2.1385044298560652e-04 2.7501002139454856e-03 0.0000000000000000e+00  2.1422596692425989e-04 2.7750620668437671e-03 0.0000000000000000e+00  2.1475109190364776e-04 2.8001071030304475e-03 0.0000000000000000e+00  2.1541734679535909e-04 2.8251721637187364e-03 0.0000000000000000e+00  2.1621109715602615e-04 2.8502015002452555e-03 0.0000000000000000e+00  2.1711651945357670e-04 2.8751471172408461e-03 0.0000000000000000e+00  2.1811753142268706e-04 2.8999677360157581e-03 0.0000000000000000e+00  2.1919857706565534e-04 2.9246305173455250e-03 0.0000000000000000e+00  2.2034582145424763e-04 2.9491100108987242e-03 0.0000000000000000e+00  2.2154860096307066e-04 2.9733826294681444e-03 0.0000000000000000e+00  2.2279978431190845e-04 2.9974235935585347e-03 0.0000000000000000e+00  2.2409428021916551e-04 3.0212085446762751e-03 0.0000000000000000e+00  2.2542506125579912e-04 3.0447197418867773e-03 0.0000000000000000e+00  2.2677776076076425e-04 3.0679545887101344e-03 0.0000000000000000e+00  2.2812515019462012e-04 3.0909300167312730e-03 0.0000000000000000e+00  2.2941911796964154e-04 3.1136853442257670e-03 0.0000000000000000e+00  1.9448727710096511e-04 2.6068767567799318e-03 0.0000000000000000e+00  1.9400889937045074e-04 2.6299603586221083e-03 0.0000000000000000e+00  1.9359953281272951e-04 2.6534228352147783e-03 0.0000000000000000e+00  1.9327520781493965e-04 2.6772343700732014e-03 0.0000000000000000e+00  1.9306079085150800e-04 2.7013554774794201e-03 0.0000000000000000e+00  1.9297872610924208e-04 2.7257344967970888e-03 0.0000000000000000e+00  1.9304571957621774e-04 2.7503123179441384e-03 0.0000000000000000e+00  1.9327105127003009e-04 2.7750288581379953e-03 0.0000000000000000e+00  1.9365665453836031e-04 2.7998263825008722e-03 0.0000000000000000e+00  1.9419810150445680e-04 2.8246505499269214e-03 0.0000000000000000e+00  1.9488592521701555e-04 2.8494521223292684e-03 0.0000000000000000e+00  1.9570742502506288e-04 2.8741874698504227e-03 0.0000000000000000e+00  1.9664812944894541e-04 2.8988184461366351e-03 0.0000000000000000e+00  1.9769287954307695e-04 2.9233129389279943e-03 0.0000000000000000e+00  1.9882712856397031e-04 2.9476437627811384e-03 0.0000000000000000e+00  2.0003783252091659e-04 2.9717855586858695e-03 0.0000000000000000e+00  2.0131321636443828e-04 2.9957132730958594e-03 0.0000000000000000e+00  2.0264189322769408e-04 3.0194041167414215e-03 0.0000000000000000e+00  2.0401215358622541e-04 3.0428437961446384e-03 0.0000000000000000e+00  2.0541076826955044e-04 3.0660356199729835e-03 0.0000000000000000e+00  2.0681889022782955e-04 3.0890099648851650e-03 0.0000000000000000e+00  2.0819483435343593e-04 3.1118383764779595e-03 0.0000000000000000e+00  2.0949514888119201e-04 3.1345401958861371e-03 0.0000000000000000e+00  1.7409331802346791e-04 2.6310647520493093e-03 0.0000000000000000e+00  1.7346680658719289e-04 2.6544149020183675e-03 0.0000000000000000e+00  1.7294771639542086e-04 2.6780875701301367e-03 0.0000000000000000e+00  1.7255608152838561e-04 2.7020383799748540e-03 0.0000000000000000e+00  1.7231086499445801e-04 2.7262188280328908e-03 0.0000000000000000e+00  1.7222676685462560e-04 2.7505769564926696e-03 0.0000000000000000e+00  1.7231272141158413e-04 2.7750608793848950e-03 0.0000000000000000e+00  1.7257173373045245e-04 2.7996208783985532e-03 0.0000000000000000e+00  1.7300137581890772e-04 2.8242102386338975e-03 0.0000000000000000e+00  1.7359457951739941e-04 2.8487861201775388e-03 0.0000000000000000e+00  1.7434074036691810e-04 2.8733098876252455e-03 0.0000000000000000e+00  1.7522677935108950e-04 2.8977471213500207e-03 0.0000000000000000e+00  1.7623811039049801e-04 2.9220676002307271e-03 0.0000000000000000e+00  1.7735962790004783e-04 2.9462443166750276e-03 0.0000000000000000e+00  1.7857628576654910e-04 2.9702516969744466e-03 0.0000000000000000e+00  1.7987287891565819e-04 2.9940648411634308e-03 0.0000000000000000e+00  1.8123358807991445e-04 3.0176610756984992e-03 0.0000000000000000e+00  1.8264192311756602e-04 3.0410246753014522e-03 0.0000000000000000e+00  1.8408355230067593e-04 3.0641593685499973e-03 0.0000000000000000e+00  1.8553943926235628e-04 3.0871081652200567e-03 0.0000000000000000e+00  1.8694855472745428e-04 3.1100085085675471e-03 0.0000000000000000e+00  1.8824457483557615e-04 3.1328886652407873e-03 0.0000000000000000e+00  1.5325964307790030e-04 2.6554376899925636e-03 0.0000000000000000e+00  1.5253831322788790e-04 2.6789711241712298e-03 0.0000000000000000e+00  1.5196825599594839e-04 2.7027559239782405e-03 0.0000000000000000e+00  1.5156358400334773e-04 2.7267454638971408e-03 0.0000000000000000e+00  1.5133592539140790e-04 2.7508926676516618e-03 0.0000000000000000e+00  1.5129285337546548e-04 2.7751521597012378e-03 0.0000000000000000e+00  1.5143724935481824e-04 2.7994811977118056e-03 0.0000000000000000e+00  1.5176739719546082e-04 2.8238399115442093e-03 0.0000000000000000e+00  1.5227745637343845e-04 2.8481915772823625e-03 0.0000000000000000e+00  1.5295815751588943e-04 2.8725027242282267e-03 0.0000000000000000e+00  1.5379754025364440e-04 2.8967430401216519e-03 0.0000000000000000e+00  1.5478172360942270e-04 2.9208850171292384e-03 0.0000000000000000e+00  1.5589567665802605e-04 2.9449030683118575e-03 0.0000000000000000e+00  1.5712366315925603e-04 2.9687723646270293e-03 0.0000000000000000e+00  1.5844914355046751e-04 2.9924684956630109e-03 0.0000000000000000e+00  1.5985381224370535e-04 3.0159681973461728e-03 0.0000000000000000e+00  1.6131700168462047e-04 3.0392534200251340e-03 0.0000000000000000e+00  1.6281050189564556e-04 3.0623179291968334e-03 0.0000000000000000e+00  1.6430852404974021e-04 3.0852265014871473e-03 0.0000000000000000e+00  1.6565908777665692e-04 3.1082458176855377e-03 0.0000000000000000e+00  1.6674217406719739e-04 3.1314402963447405e-03 0.0000000000000000e+00  1.6744409581600445e-04 3.1546062331702729e-03 0.0000000000000000e+00  1.3197435109084865e-04 2.6798946879412170e-03 0.0000000000000000e+00  1.3123177271757484e-04 2.7035141425743327e-03 0.0000000000000000e+00  1.3067616824280099e-04 2.7273164032417933e-03 0.0000000000000000e+00  1.3031563748630020e-04 2.7512574348331075e-03 0.0000000000000000e+00  1.3015574700358772e-04 2.7752971198533711e-03 0.0000000000000000e+00  1.3019844679175546e-04 2.7993989221523495e-03 0.0000000000000000e+00  1.3044190403100462e-04 2.8235292329150366e-03 0.0000000000000000e+00  1.3088078691492175e-04 2.8476571128108383e-03 0.0000000000000000e+00  1.3150669832592141e-04 2.8717542123131452e-03 0.0000000000000000e+00  1.3230866882306554e-04 2.8957945153088686e-03 0.0000000000000000e+00  1.3327382177486029e-04 2.9197536577301730e-03 0.0000000000000000e+00  1.3438815871891343e-04 2.9436079535043007e-03 0.0000000000000000e+00  1.3563735664910950e-04 2.9673334615045290e-03 0.0000000000000000e+00  1.3700697175889686e-04 2.9909055318187096e-03 0.0000000000000000e+00  1.3848287254523099e-04 3.0143004107465146e-03 0.0000000000000000e+00  1.4004528191622533e-04 3.0374957949881893e-03 0.0000000000000000e+00  1.4166761463320780e-04 3.0604935856465248e-03 0.0000000000000000e+00  1.4322128439738972e-04 3.0833286214389140e-03 0.0000000000000000e+00  1.4446550439962030e-04 3.1066920391377051e-03 0.0000000000000000e+00  1.4480627066488228e-04 3.1304832804211562e-03 0.0000000000000000e+00  1.4458834892586199e-04 3.1543344342431019e-03 0.0000000000000000e+00  1.0958785319269041e-04 2.7279299485668596e-03 0.0000000000000000e+00  1.0911019012175690e-04 2.7516670748754728e-03 0.0000000000000000e+00  1.0884912226948855e-04 2.7754891388714689e-03 0.0000000000000000e+00  1.0880520748856845e-04 2.7993654172477735e-03 0.0000000000000000e+00  1.0897598295676842e-04 2.8232681304758808e-03 0.0000000000000000e+00  1.0935622227975880e-04 2.8471717649375208e-03 0.0000000000000000e+00  1.0993815926488577e-04 2.8710529606333639e-03 0.0000000000000000e+00  1.1071174492201714e-04 2.8948900997462059e-03 0.0000000000000000e+00  1.1166529236761473e-04 2.9186620939715903e-03 0.0000000000000000e+00  1.1278657591823159e-04 2.9423471175066924e-03 0.0000000000000000e+00  1.1406408657318463e-04 2.9659211741074267e-03 0.0000000000000000e+00  1.1548908644035520e-04 2.9893585545267692e-03 0.0000000000000000e+00  1.1705328038649352e-04 3.0126306534777156e-03 0.0000000000000000e+00  1.1875309070837680e-04 3.0357269816330221e-03 0.0000000000000000e+00  1.2051038553055835e-04 3.0586532552659379e-03 0.0000000000000000e+00  1.2214830238377246e-04 3.0817776501655902e-03 0.0000000000000000e+00  1.2176558810906015e-04 3.1061392042350672e-03 0.0000000000000000e+00  1.2157085969218454e-04 3.1302381846801753e-03 0.0000000000000000e+00  1.2141587847621869e-04 3.1541246975117765e-03 0.0000000000000000e+00  1.2130559895018688e-04 3.1777479445960779e-03 0.0000000000000000e+00  8.7667885410130738e-05 2.7521142191129543e-03 0.0000000000000000e+00  8.7325809136817249e-05 2.7757196231549580e-03 0.0000000000000000e+00  8.7213291525707850e-05 2.7993711209553613e-03 0.0000000000000000e+00  8.7326919083517880e-05 2.8230464390995970e-03 0.0000000000000000e+00  8.7661405054719542e-05 2.8467250938859151e-03 0.0000000000000000e+00  8.8209481611285217e-05 2.8703886454656559e-03 0.0000000000000000e+00  8.8961697618546010e-05 2.8940201850379552e-03 0.0000000000000000e+00  8.9906980655587919e-05 2.9176022901658805e-03 0.0000000000000000e+00  9.1033574896283499e-05 2.9411151634769748e-03 0.0000000000000000e+00  9.2330813199446792e-05 2.9645357449444945e-03 0.0000000000000000e+00  9.3786337853451080e-05 2.9878369136985702e-03 0.0000000000000000e+00  9.5387594683684891e-05 3.0110060351774470e-03 0.0000000000000000e+00  9.7043181861465719e-05 3.0340494969740583e-03 0.0000000000000000e+00  9.8563627471088541e-05 3.0573176231719632e-03 0.0000000000000000e+00  9.8360529802034031e-05 3.0816642641571545e-03 0.0000000000000000e+00  9.8198630847187284e-05 3.1059212918925641e-03 0.0000000000000000e+00  9.8058291683403019e-05 3.1300452463201068e-03 0.0000000000000000e+00  9.7956158984585027e-05 3.1539612088074525e-03 0.0000000000000000e+00  9.7905097693926101e-05 3.1776381166240485e-03 0.0000000000000000e+00  9.7904996933840361e-05 3.2010422023071492e-03 0.0000000000000000e+00  6.5546123251440208e-05 2.7759773747520933e-03 0.0000000000000000e+00  6.5386472507716222e-05 2.7994051286343155e-03 0.0000000000000000e+00  6.5460108419203072e-05 2.8228537366542556e-03 0.0000000000000000e+00  6.5761924455908996e-05 2.8463072003627661e-03 0.0000000000000000e+00  6.6285308251045491e-05 2.8697521281589307e-03 0.0000000000000000e+00  6.7021044694124860e-05 2.8931772259122909e-03 0.0000000000000000e+00  6.7957575939047390e-05 2.9165695532584707e-03 0.0000000000000000e+00  6.9082102465125848e-05 2.9399130911301010e-03 0.0000000000000000e+00  7.0378743263065457e-05 2.9631863305690951e-03 0.0000000000000000e+00  7.1828532898384780e-05 2.9863792741766345e-03 0.0000000000000000e+00  7.3342660724292380e-05 3.0094972099204541e-03 0.0000000000000000e+00  7.4743678580126076e-05 3.0328575934590648e-03 0.0000000000000000e+00  7.4632312832499989e-05 3.0571774541113682e-03 0.0000000000000000e+00  7.4513580169218029e-05 3.0814878085050992e-03 0.0000000000000000e+00  7.4395673346201491e-05 3.1057527021794117e-03 0.0000000000000000e+00  7.4305000834300891e-05 3.1298878911636902e-03 0.0000000000000000e+00  7.4253885681082669e-05 3.1538482626482455e-03 0.0000000000000000e+00  7.4242254850756721e-05 3.1775830277167793e-03 0.0000000000000000e+00  7.4271425191399485e-05 3.2010406867013616e-03 0.0000000000000000e+00  7.4368227982247952e-05 3.2242050794740124e-03 0.0000000000000000e+00  4.3299558390157389e-05 2.7994550748610767e-03 0.0000000000000000e+00  4.3351613540210606e-05 2.8226794302898517e-03 0.0000000000000000e+00  4.3633640653023857e-05 2.8459087123031907e-03 0.0000000000000000e+00  4.4140515115960304e-05 2.8691351356115225e-03 0.0000000000000000e+00  4.4862888254404646e-05 2.8923549460480335e-03 0.0000000000000000e+00  4.5787553029411600e-05 2.9155617570798369e-03 0.0000000000000000e+00  4.6896061403784970e-05 2.9387450578812692e-03 0.0000000000000000e+00  4.8164735172810875e-05 2.9618997324178230e-03 0.0000000000000000e+00  4.9509453334391181e-05 2.9850369924781981e-03 0.0000000000000000e+00  5.0761626976586911e-05 3.0084287835179242e-03 0.0000000000000000e+00  5.0690370027116584e-05 3.0327189510168163e-03 0.0000000000000000e+00  5.0600267248187755e-05 3.0570364935274845e-03 0.0000000000000000e+00  5.0510408167280779e-05 3.0813443666411031e-03 0.0000000000000000e+00  5.0430942215050695e-05 3.1056062917978601e-03 0.0000000000000000e+00  5.0374893565105639e-05 3.1297668709694120e-03 0.0000000000000000e+