<?xml version="1.0"?>
<VTKFile type="UnstructuredGrid"  version="0.1"  >
<UnstructuredGrid>
<Piece  NumberOfPoints="650" NumberOfCells="1199">
<Points>
<DataArray  type="Float64"  NumberOfComponents="3"  format="ascii">3.238260869565217 0 0  3.254782608695652 0 0  3.254782608695652 0.01666666666666667 0  3.238260869565217 0.01666666666666667 0  3.271304347826087 0 0  3.271304347826087 0.01666666666666667 0  3.287826086956521 0 0  3.287826086956521 0.01666666666666667 0  3.304347826086957 0 0  3.304347826086957 0.01666666666666667 0  3.320869565217391 0 0  3.320869565217391 0.01666666666666667 0  3.337391304347826 0 0  3.337391304347826 0.01666666666666667 0  3.353913043478261 0 0  3.353913043478261 0.01666666666666667 0  3.370434782608696 0 0  3.370434782608696 0.01666666666666667 0  3.386956521739131 0 0  3.386956521739131 0.01666666666666667 0  3.403478260869565 0 0  3.403478260869565 0.01666666666666667 0  3.419999999999999 0 0  3.419999999999999 0.01666666666666667 0  3.436521739130435 0 0  3.436521739130435 0.01666666666666667 0  3.453043478260869 0 0  3.453043478260869 0.01666666666666667 0  3.469565217391304 0 0  3.469565217391304 0.01666666666666667 0  3.486086956521739 0 0  3.486086956521739 0.01666666666666667 0  3.502608695652174 0 0  3.502608695652174 0.01666666666666667 0  3.519130434782609 0 0  3.519130434782609 0.01666666666666667 0  3.535652173913043 0 0  3.535652173913043 0.01666666666666667 0  3.552173913043478 0 0  3.552173913043478 0.01666666666666667 0  3.568695652173913 0 0  3.568695652173913 0.01666666666666667 0  3.585217391304347 0 0  3.585217391304347 0.01666666666666667 0  3.601739130434782 0 0  3.601739130434782 0.01666666666666667 0  3.618260869565217 0 0  3.618260869565217 0.01666666666666667 0  3.634782608695652 0 0  3.634782608695652 0.01666666666666667 0  3.651304347826087 0 0  3.651304347826087 0.01666666666666667 0  3.667826086956521 0 0  3.667826086956521 0.01666666666666667 0  3.684347826086956 0 0  3.684347826086956 0.01666666666666667 0  3.700869565217391 0 0  3.700869565217391 0.01666666666666667 0  3.717391304347826 0 0  3.717391304347826 0.01666666666666667 0  3.733913043478261 0 0  3.733913043478261 0.01666666666666667 0  3.750434782608695 0 0  3.750434782608695 0.01666666666666667 0  3.766956521739131 0 0  3.766956521739131 0.01666666666666667 0  3.783478260869565 0 0  3.783478260869565 0.01666666666666667 0  3.8 0 0  3.8 0.01666666666666667 0  3.254782608695652 0.03333333333333333 0  3.271304347826087 0.03333333333333333 0  3.287826086956521 0.03333333333333333 0  3.304347826086957 0.03333333333333333 0  3.320869565217391 0.03333333333333333 0  3.337391304347826 0.03333333333333333 0  3.353913043478261 0.03333333333333333 0  3.370434782608696 0.03333333333333333 0  3.386956521739131 0.03333333333333333 0  3.403478260869565 0.03333333333333333 0  3.419999999999999 0.03333333333333333 0  3.436521739130435 0.03333333333333333 0  3.453043478260869 0.03333333333333333 0  3.469565217391304 0.03333333333333333 0  3.486086956521739 0.03333333333333333 0  3.502608695652174 0.03333333333333333 0  3.519130434782609 0.03333333333333333 0  3.535652173913043 0.03333333333333333 0  3.552173913043478 0.03333333333333333 0  3.568695652173913 0.03333333333333333 0  3.585217391304347 0.03333333333333333 0  3.601739130434782 0.03333333333333333 0  3.618260869565217 0.03333333333333333 0  3.634782608695652 0.03333333333333333 0  3.651304347826087 0.03333333333333333 0  3.667826086956521 0.03333333333333333 0  3.684347826086956 0.03333333333333333 0  3.700869565217391 0.03333333333333333 0  3.717391304347826 0.03333333333333333 0  3.733913043478261 0.03333333333333333 0  3.750434782608695 0.03333333333333333 0  3.766956521739131 0.03333333333333333 0  3.783478260869565 0.03333333333333333 0  3.8 0.03333333333333333 0  3.271304347826087 0.05 0  3.287826086956521 0.05 0  3.304347826086957 0.05 0  3.320869565217391 0.05 0  3.337391304347826 0.05 0  3.353913043478261 0.05 0  3.370434782608696 0.05 0  3.386956521739131 0.05 0  3.403478260869565 0.05 0  3.419999999999999 0.05 0  3.436521739130435 0.05 0  3.453043478260869 0.05 0  3.469565217391304 0.05 0  3.486086956521739 0.05 0  3.502608695652174 0.05 0  3.519130434782609 0.05 0  3.535652173913043 0.05 0  3.552173913043478 0.05 0  3.568695652173913 0.05 0  3.585217391304347 0.05 0  3.601739130434782 0.05 0  3.618260869565217 0.05 0  3.634782608695652 0.05 0  3.651304347826087 0.05 0  3.667826086956521 0.05 0  3.684347826086956 0.05 0  3.700869565217391 0.05 0  3.717391304347826 0.05 0  3.733913043478261 0.05 0  3.750434782608695 0.05 0  3.766956521739131 0.05 0  3.783478260869565 0.05 0  3.8 0.05 0  3.287826086956521 0.06666666666666667 0  3.304347826086957 0.06666666666666667 0  3.320869565217391 0.06666666666666667 0  3.337391304347826 0.06666666666666667 0  3.353913043478261 0.06666666666666667 0  3.370434782608696 0.06666666666666667 0  3.386956521739131 0.06666666666666667 0  3.403478260869565 0.06666666666666667 0  3.419999999999999 0.06666666666666667 0  3.436521739130435 0.06666666666666667 0  3.453043478260869 0.06666666666666667 0  3.469565217391304 0.06666666666666667 0  3.486086956521739 0.06666666666666667 0  3.502608695652174 0.06666666666666667 0  3.519130434782609 0.06666666666666667 0  3.535652173913043 0.06666666666666667 0  3.552173913043478 0.06666666666666667 0  3.568695652173913 0.06666666666666667 0  3.585217391304347 0.06666666666666667 0  3.601739130434782 0.06666666666666667 0  3.618260869565217 0.06666666666666667 0  3.634782608695652 0.06666666666666667 0  3.651304347826087 0.06666666666666667 0  3.667826086956521 0.06666666666666667 0  3.684347826086956 0.06666666666666667 0  3.700869565217391 0.06666666666666667 0  3.717391304347826 0.06666666666666667 0  3.733913043478261 0.06666666666666667 0  3.750434782608695 0.06666666666666667 0  3.766956521739131 0.06666666666666667 0  3.783478260869565 0.06666666666666667 0  3.8 0.06666666666666667 0  3.304347826086957 0.08333333333333333 0  3.320869565217391 0.08333333333333333 0  3.337391304347826 0.08333333333333333 0  3.353913043478261 0.08333333333333333 0  3.370434782608696 0.08333333333333333 0  3.386956521739131 0.08333333333333333 0  3.403478260869565 0.08333333333333333 0  3.419999999999999 0.08333333333333333 0  3.436521739130435 0.08333333333333333 0  3.453043478260869 0.08333333333333333 0  3.469565217391304 0.08333333333333333 0  3.486086956521739 0.08333333333333333 0  3.502608695652174 0.08333333333333333 0  3.519130434782609 0.08333333333333333 0  3.535652173913043 0.08333333333333333 0  3.552173913043478 0.08333333333333333 0  3.568695652173913 0.08333333333333333 0  3.585217391304347 0.08333333333333333 0  3.601739130434782 0.08333333333333333 0  3.618260869565217 0.08333333333333333 0  3.634782608695652 0.08333333333333333 0  3.651304347826087 0.08333333333333333 0  3.667826086956521 0.08333333333333333 0  3.684347826086956 0.08333333333333333 0  3.700869565217391 0.08333333333333333 0  3.717391304347826 0.08333333333333333 0  3.733913043478261 0.08333333333333333 0  3.750434782608695 0.08333333333333333 0  3.766956521739131 0.08333333333333333 0  3.783478260869565 0.08333333333333333 0  3.8 0.08333333333333333 0  3.320869565217391 0.1 0  3.337391304347826 0.1 0  3.353913043478261 0.1 0  3.370434782608696 0.1 0  3.386956521739131 0.1 0  3.403478260869565 0.1 0  3.419999999999999 0.1 0  3.436521739130435 0.1 0  3.453043478260869 0.1 0  3.469565217391304 0.1 0  3.486086956521739 0.1 0  3.502608695652174 0.1 0  3.519130434782609 0.1 0  3.535652173913043 0.1 0  3.552173913043478 0.1 0  3.568695652173913 0.1 0  3.585217391304347 0.1 0  3.601739130434782 0.1 0  3.618260869565217 0.1 0  3.634782608695652 0.1 0  3.651304347826087 0.1 0  3.667826086956521 0.1 0  3.684347826086956 0.1 0  3.700869565217391 0.1 0  3.717391304347826 0.1 0  3.733913043478261 0.1 0  3.750434782608695 0.1 0  3.766956521739131 0.1 0  3.783478260869565 0.1 0  3.8 0.1 0  3.337391304347826 0.1166666666666667 0  3.353913043478261 0.1166666666666667 0  3.370434782608696 0.1166666666666667 0  3.386956521739131 0.1166666666666667 0  3.403478260869565 0.1166666666666667 0  3.419999999999999 0.1166666666666667 0  3.436521739130435 0.1166666666666667 0  3.453043478260869 0.1166666666666667 0  3.469565217391304 0.1166666666666667 0  3.486086956521739 0.1166666666666667 0  3.502608695652174 0.1166666666666667 0  3.519130434782609 0.1166666666666667 0  3.535652173913043 0.1166666666666667 0  3.552173913043478 0.1166666666666667 0  3.568695652173913 0.1166666666666667 0  3.585217391304347 0.1166666666666667 0  3.601739130434782 0.1166666666666667 0  3.618260869565217 0.1166666666666667 0  3.634782608695652 0.1166666666666667 0  3.651304347826087 0.1166666666666667 0  3.667826086956521 0.1166666666666667 0  3.684347826086956 0.1166666666666667 0  3.700869565217391 0.1166666666666667 0  3.717391304347826 0.1166666666666667 0  3.733913043478261 0.1166666666666667 0  3.750434782608695 0.1166666666666667 0  3.766956521739131 0.1166666666666667 0  3.783478260869565 0.1166666666666667 0  3.8 0.1166666666666667 0  3.353913043478261 0.1333333333333333 0  3.370434782608696 0.1333333333333333 0  3.386956521739131 0.1333333333333333 0  3.403478260869565 0.1333333333333333 0  3.419999999999999 0.1333333333333333 0  3.436521739130435 0.1333333333333333 0  3.453043478260869 0.1333333333333333 0  3.469565217391304 0.1333333333333333 0  3.486086956521739 0.1333333333333333 0  3.502608695652174 0.1333333333333333 0  3.519130434782609 0.1333333333333333 0  3.535652173913043 0.1333333333333333 0  3.552173913043478 0.1333333333333333 0  3.568695652173913 0.1333333333333333 0  3.585217391304347 0.1333333333333333 0  3.601739130434782 0.1333333333333333 0  3.618260869565217 0.1333333333333333 0  3.634782608695652 0.1333333333333333 0  3.651304347826087 0.1333333333333333 0  3.667826086956521 0.1333333333333333 0  3.684347826086956 0.1333333333333333 0  3.700869565217391 0.1333333333333333 0  3.717391304347826 0.13333333
[...]
<CellData  Scalars="rho_bar"> 
<DataArray  type="Float64"  Name="rho_bar"  format="ascii">1.2385888611040255e-11   3.3322576179865385e-11   1.7897720342811386e-12   4.1459058408577229e-12   3.3687867310542689e-13   6.7932696505105647e-13   8.1943711075875138e-14   1.4607759446505500e-13   2.5183558941913978e-14   4.0412118096355711e-14   9.4831550020065491e-15   1.3951802676122806e-14   4.2280993521141389e-15   5.8101671622049877e-15   2.1649348980190556e-15   2.8125649957170643e-15   1.2212453270876726e-15   1.5358085173981337e-15   7.4940054162198106e-16   8.9743027823866866e-16   4.9034850254277770e-16   5.6436337085112150e-16   3.4231876592609010e-16   3.7932620008026190e-16   2.4054832200211733e-16   2.5905203907920326e-16   1.6653345369377356e-16   2.0354088784794543e-16   1.2952601953960165e-16   1.4802973661668760e-16   1.1102230246251568e-16   1.1102230246251568e-16   5.5511151231257839e-17   9.2518585385429740e-17   5.5511151231257839e-17   5.5511151231257839e-17   5.5511151231257839e-17   5.5511151231257839e-17   5.5511151231257839e-17   5.5511151231257839e-17   5.5511151231257852e-17   5.5511151231257852e-17   1.8503717077085947e-17   3.7007434154171895e-17   0.0000000000000000e+00   0.0000000000000000e+00   0.0000000000000000e+00   0.0000000000000000e+00   0.0000000000000000e+00   0.0000000000000000e+00   0.0000000000000000e+00   0.0000000000000000e+00   0.0000000000000000e+00   0.0000000000000000e+00   0.0000000000000000e+00   0.0000000000000000e+00   0.0000000000000000e+00   0.0000000000000000e+00   0.0000000000000000e+00   0.0000000000000000e+00   0.0000000000000000e+00   0.0000000000000000e+00   0.0000000000000000e+00   0.0000000000000000e+00   0.0000000000000000e+00   0.0000000000000000e+00   0.0000000000000000e+00   0.0000000000000000e+00   4.8023696130883335e-11   5.1423402573173397e-12   2.2985650420063553e-11   7.6315805526879440e-13   2.5505431100469890e-12   1.5422848183751141e-13   4.0438023300263630e-13   4.1115259345284981e-14   8.8531034355317725e-14   1.3896291524891548e-14   2.5599892576148415e-14   5.7269004353581010e-15   9.3351252653898621e-15   2.7570538444858061e-15   4.0985733325745375e-15   1.4895492247054191e-15   2.0631644540950836e-15   8.8817841970012563e-16   1.1657341758564148e-15   5.6436337085112150e-16   7.1239310746780911e-16   3.7932620008026190e-16   4.6259292692714869e-16   2.5905203907920326e-16   3.1456319031046113e-16   1.9428902930940244e-16   2.3129646346357434e-16   1.4802973661668760e-16   1.6653345369377356e-16   1.1102230246251568e-16   1.1102230246251568e-16   8.3266726846886765e-17   1.1102230246251568e-16   5.5511151231257839e-17   5.5511151231257839e-17   5.5511151231257839e-17   5.5511151231257839e-17   5.5511151231257839e-17   5.5511151231257839e-17   5.5511151231257852e-17   5.5511151231257852e-17   3.7007434154171895e-17   5.5511151231257839e-17   0.0000000000000000e+00   0.0000000000000000e+00   0.0000000000000000e+00   0.0000000000000000e+00   0.0000000000000000e+00   0.0000000000000000e+00   0.0000000000000000e+00   0.0000000000000000e+00   0.0000000000000000e+00   0.0000000000000000e+00   0.0000000000000000e+00   0.0000000000000000e+00   0.0000000000000000e+00   0.0000000000000000e+00   0.0000000000000000e+00   0.0000000000000000e+00   0.0000000000000000e+00   0.0000000000000000e+00   0.0000000000000000e+00   0.0000000000000000e+00   0.0000000000000000e+00   0.0000000000000000e+00   0.0000000000000000e+00   0.0000000000000000e+00   6.9043715189565104e-11   5.6477970448535594e-12   3.8489822440368490e-11   7.1960955712787253e-13   3.2335800703720005e-12   1.3465154916995447e-13   4.3526293680429282e-13   3.4823995539075752e-14   8.7032233272073763e-14   1.1722104768333949e-14   2.4064084058750271e-14   4.8757294498121479e-15   8.6042284408449663e-15   2.3777276444055445e-15   3.7562545666484473e-15   1.3045120539345595e-15   1.9058828589398534e-15   7.8640797577615281e-16   1.0824674490095282e-15   5.0885221961986358e-16   6.7538567331363716e-16   3.5157062446463309e-16   4.3483735131151988e-16   2.4980018054066032e-16   2.9605947323337521e-16   1.6653345369377356e-16   2.2204460492503141e-16   1.2027416100105867e-16   1.6653345369377356e-16   1.1102230246251565e-16   1.1102230246251565e-16   5.5511151231257852e-17   1.1102230246251570e-16   5.5511151231257827e-17   5.5511151231257827e-17   5.5511151231257852e-17   5.5511151231257852e-17   5.5511151231257852e-17   5.5511151231257852e-17   5.5511151231257827e-17   5.5511151231257827e-17   2.7755575615628926e-17   5.5511151231257852e-17   0.0000000000000000e+00   0.0000000000000000e+00   0.0000000000000000e+00   0.0000000000000000e+00   0.0000000000000000e+00   0.0000000000000000e+00   0.0000000000000000e+00   0.0000000000000000e+00   0.0000000000000000e+00   0.0000000000000000e+00   0.0000000000000000e+00   0.0000000000000000e+00   0.0000000000000000e+00   0.0000000000000000e+00   0.0000000000000000e+00   0.0000000000000000e+00   0.0000000000000000e+00   0.0000000000000000e+00   0.0000000000000000e+00   0.0000000000000000e+00   0.0000000000000000e+00   0.0000000000000000e+00   1.7318646516883981e-10   9.9319071485600359e-12   9.6436636454200223e-11   1.0079159729059486e-12   5.8068920042823436e-12   1.6355435524436270e-13   6.2970924770885048e-13   3.8783790993572139e-14   1.0974554598419675e-13   1.2406742300186129e-14   2.7848094201014351e-14   4.9960036108132052e-15   9.4553994263909186e-15   2.4054832200211738e-15   3.9782991715734787e-15   1.3045120539345593e-15   1.9891495857867393e-15   7.8640797577615281e-16   1.1194748831636998e-15   5.0885221961986358e-16   6.7538567331363706e-16   3.3306690738754711e-16   4.4408920985006271e-16   2.4054832200211733e-16   2.9605947323337521e-16   1.6653345369377358e-16   2.2204460492503136e-16   1.1102230246251568e-16   1.6653345369377356e-16   1.1102230246251568e-16   1.1102230246251568e-16   5.5511151231257839e-17   1.1102230246251568e-16   5.5511151231257839e-17   5.5511151231257839e-17   5.5511151231257852e-17   5.5511151231257852e-17   5.5511151231257839e-17   5.5511151231257839e-17   5.5511151231257839e-17   5.5511151231257839e-17   1.8503717077085947e-17   5.5511151231257839e-17   0.0000000000000000e+00   0.0000000000000000e+00   0.0000000000000000e+00   0.0000000000000000e+00   0.0000000000000000e+00   0.0000000000000000e+00   0.0000000000000000e+00   0.0000000000000000e+00   0.0000000000000000e+00   0.0000000000000000e+00   0.0000000000000000e+00   0.0000000000000000e+00   0.0000000000000000e+00   0.0000000000000000e+00   0.0000000000000000e+00   0.0000000000000000e+00   0.0000000000000000e+00   0.0000000000000000e+00   0.0000000000000000e+00   0.0000000000000000e+00   5.4940701987860063e-10   2.1706025865597676e-11   2.8780129205744736e-10   1.7139623054163173e-12   1.2276883213739141e-11   2.3555231839130413e-13   1.0567657859894553e-12   5.0061806552056025e-14   1.5808650684808378e-13   1.4904744105592730e-14   3.6230278036934286e-14   5.7176485768195585e-15   1.1472304587793288e-14   2.6645352591003769e-15   4.6259292692714869e-15   1.4247862149356180e-15   2.2296979077888567e-15   8.3266726846886770e-16   1.2212453270876728e-15   5.2735593669694936e-16   7.4014868308343792e-16   3.7007434154171896e-16   4.8109664400423457e-16   2.5905203907920331e-16   3.2381504884900412e-16   1.7578531223231654e-16   2.4054832200211733e-16   1.3877787807814462e-16   1.6653345369377358e-16   1.1102230246251568e-16   1.1102230246251568e-16   6.4763009769800827e-17   1.1102230246251568e-16   5.5511151231257852e-17   5.5511151231257852e-17   5.5511151231257839e-17   5.5511151231257839e-17   5.5511151231257839e-17   5.5511151231257839e-17   5.5511151231257839e-17   5.5511151231257839e-17   3.7007434154171895e-17   5.5511151231257839e-17   0.0000000000000000e+00   1.8503717077085947e-17   0.0000000000000000e+00   0.0000000000000000e+00   0.0000000000000000e+00   0.0000000000000000e+00   0.0000000000000000e+00   0.0000000000000000e+00   0.0000000000000000e+00   0.0000000000000000e+00   0.0000000000000000e+00   0.0000000000000000e+00   0.0000000000000000e+00   0.0000000000000000e+00   0.0000000000000000e+00   0.0000000000000000e+00   0.0000000000000000e+00   0.0000000000000000e+00   1.9038807845076877e-09   5.2234189196198606e-11   9.1712993680973918e-10   3.2234585371308356e-12   2.8050996710623141e-11   3.7416366301575497e-13   1.9324449448040091e-12   7.0628688083237076e-14   2.4762599378410271e-13   1.9299376911400648e-14   5.0774199659523855e-14   6.9759013380614029e-15   1.4839981095822928e-14   3.0993726104118967e-15   5.6528855670497591e-15   1.6005715271679345e-15   2.5997722493305758e-15   9.2518585385429738e-16   1.3877787807814463e-15   5.8286708792820728e-16   8.1416355139178163e-16   3.7932620008026200e-16   5.2735593669694936e-16   2.5905203907920331e-16   3.5157062446463309e-16   2.0354088784794541e-16   2.4054832200211728e-16   1.4802973661668763e-16   1.8503717077085948e-16   1.1102230246251568e-16   1.2952601953960163e-16   9.2518585385429740e-17   1.1102230246251568e-16   5.5511151231257839e-17   7.4014868308343815e-17   5.5511151231257839e-17   5.5511151231257839e-17   5.5511151231257839e-17   5.5511151231257839e-17   5.5511151231257839e-17   5.5511151231257839e-17   3.7007434154171901e-17   5.5511151231257839e-17   0.0000000000000000e+00   1.8503717077085947e-17   0.0000000000000000e+00   0.0000000000000000e+00   0.0000000000000000e+00   0.0000000000000000e+00   0.0000000000000000e+00   0.0000000000000000e+00   0.0000000000000000e+00   0.0000000000000000e+00   0.0000000000000000e+00   0.0000000000000000e+00   0.0000000000000000e+00   0.0000000000000000e+00   0.0000000000000000e+00   0.0000000000000000e+00   6.7339690582960807e-09   1.3317922690584779e-10   2.9917653909805617e-09   6.5313125278502582e-12   6.8385889543757639e-11   6.3947921032555176e-13   3.8101188870598443e-12   1.0620208416393481e-13   4.1511238890734623e-13   2.6404804269001647e-14   7.5300876645201280e-14   8.9095397726168828e-15   2.0076533028638252e-14   3.7655064251869906e-15   7.1609385088322628e-15   1.8781272833242233e-15   3.1641356201816969e-15   1.0639637319324419e-15   1.6283271027835636e-15   6.5688195623655128e-16   9.2518585385429738e-16   4.3483735131151978e-16   5.8286708792820728e-16   3.0531133177191820e-16   3.7932620008026200e-16   2.0354088784794546e-16   2.8680761469483212e-16   1.5728159515523057e-16   1.8503717077085951e-16   1.1102230246251570e-16   1.3877787807814467e-16   9.2518585385429740e-17   1.1102230246251568e-16   5.5511151231257839e-17   7.4014868308343790e-17   5.5511151231257839e-17   5.5511151231257839e-17   5.5511151231257839e-17   5.5511151231257839e-17   5.5511151231257839e-17   5.5511151231257839e-17   5.5511151231257839e-17   5.5511151231257839e-17   0.0000000000000000e+00   4.6259292692714870e-17   0.0000000000000000e+00   0.0000000000000000e+00   0.0000000000000000e+00   0.0000000000000000e+00   0.0000000000000000e+00   0.0000000000000000e+00   0.0000000000000000e+00   0.0000000000000000e+00   0.0000000000000000e+00   0.0000000000000000e+00   0.0000000000000000e+00   0.0000000000000000e+00   2.4990359994333157e-08   3.6943206827011481e-10   1.0631752404381231e-08   1.4336402435570038e-11   1.8415281336873573e-10   1.1667056210029620e-12   8.1315324843937300e-12   1.6826355124048111e-13   7.3880716359534933e-13   3.7655064251869901e-14   1.1699900307841443e-13   1.1759112202488120e-14   2.8255175976710247e-14   4.6999441375798320e-15   9.3721326995440319e-15   2.2574534834044860e-15   3.9227880203422216e-15   1.2304971856262156e-15   1.9336384345554815e-15   7.3089682454489499e-16   1.0917193075480709e-15   4.7184478546569173e-16   6.6613381477509422e-16   3.2381504884900412e-16   4.3483735131151978e-16   2.3129646346357434e-16   2.9605947323337521e-16   1.6653345369377353e-16   2.1279274638648844e-16   1.1102230246251568e-16   1.6653345369377356e-16   1.1102230246251568e-16   1.1102230246251568e-16   5.5511151231257839e-17   1.0177044392397273e-16   5.5511151231257839e-17   5.5511151231257839e-17   5.5511151231257839e-17   5.5511151231257839e-17   5.5511151231257839e-17   5.5511151231257839e-17   5.5511151231257839e-17   5.5511151231257839e-17   2.7755575615628920e-17   5.5511151231257839e-17   0.0000000000000000e+00   1.8503717077085947e-17   0.0000000000000000e+00   0.0000000000000000e+00   0.0000000000000000e+00   0.0000000000000000e+00   0.0000000000000000e+00   0.0000000000000000e+00   0.0000000000000000e+00   0.0000000000000000e+00   1.0824530058406452e-07   1.1473650733210645e-09   4.5157726539605640e-08   3.3983445687132053e-11   5.5125822425357783e-10   2.2556586228480086e-12   1.8576964041135596e-11   2.7961892061038428e-13   1.3873902027228273e-12   5.5881225572799563e-14   1.9025521898659772e-13   1.6024218988756430e-14   4.1263289081901660e-14   6.0137080500529326e-15   1.2610283188034075e-14   2.7663057030243493e-15   4.9682480351975779e-15   1.4525417905512469e-15   2.3592239273284584e-15   8.6042284408449652e-16   1.2675046197803878e-15   5.3660779523549239e-16   7.6790425869906684e-16   3.7007434154171896e-16   4.9034850254277760e-16   2.5905203907920326e-16   3.4231876592609010e-16   1.9428902930940244e-16   2.4054832200211733e-16   1.3877787807814462e-16   1.7578531223231652e-16   1.1102230246251568e-16   1.2952601953960163e-16   8.3266726846886753e-17   1.1102230246251568e-16   5.5511151231257839e-17   7.4014868308343790e-17   5.5511151231257839e-17   5.5511151231257839e-17   5.5511151231257839e-17   5.5511151231257839e-17   5.5511151231257839e-17   5.5511151231257839e-17   4.6259292692714870e-17   5.5511151231257839e-17   0.0000000000000000e+00   4.6259292692714870e-17   0.0000000000000000e+00   0.0000000000000000e+00   0.0000000000000000e+00   0.0000000000000000e+00   0.0000000000000000e+00   0.0000000000000000e+00   5.5008094591394818e-07   3.8745314456800636e-09   2.1563211745808308e-07   8.5971054349561424e-11   1.7605019109190329e-09   4.6271875220327282e-12   4.5230615549248432e-11   4.8922902765961394e-13   2.7697844018348417e-12   8.6403106891452820e-14   3.2570242799086694e-13   2.2528275541352143e-14   6.2653586023013030e-14   7.8825834748386162e-15   1.7467508920769134e-14   3.4231876592609012e-15   6.4392935428259103e-15   1.7486012637846221e-15   2.9143354396410367e-15   1.0084525807011839e-15   1.5265566588595906e-15   6.1987452208237943e-16   8.8817841970012543e-16   3.9782991715734797e-16   5.6436337085112150e-16   2.8680761469483212e-16   3.7932620008026200e-16   2.0354088784794541e-16   2.4980018054066027e-16   1.4802973661668758e-16   1.8503717077085953e-16   1.1102230246251568e-16   1.3877787807814462e-16   9.2518585385429740e-17   1.1102230246251568e-16   5.5511151231257839e-17   7.4014868308343790e-17   5.5511151231257839e-17   5.5511151231257839e-17   5.5511151231257839e-17   5.5511151231257839e-17   5.5511151231257839e-17   5.5511151231257839e-17   5.5511151231257839e-17   5.5511151231257839e-17   3.7007434154171895e-17   5.5511151231257839e-17   1.8503717077085951e-17   3.7007434154171901e-17   0.0000000000000000e+00   3.7007434154171895e-17   2.9062559591489893e-06   1.4032558707614372e-08   1.0427430848132990e-06   2.3651904508999644e-10   6.1195430482256350e-09   1.0240706431000985e-11   1.2119792206869803e-10   9.0745004103591061e-13   5.9762010155376791e-12   1.3946251560999678e-13   5.8918610731003227e-13   3.2723823650826508e-14   9.8957878928255662e-14   1.0574874309554619e-14   2.4961514336988944e-14   4.3483735131151978e-15   8.5487172896137069e-15   2.1186756053263411e-15   3.6729878398015606e-15   1.1842378929335006e-15   1.8503717077085952e-15   7.2164496600635205e-16   1.0639637319324419e-15   4.6259292692714859e-16   6.6613381477509412e-16   3.2381504884900412e-16   4.3483735131151988e-16   2.3129646346357430e-16   2.9605947323337516e-16   1.6653345369377358e-16   2.1279274638648842e-16   1.1102230246251568e-16   1.6653345369377358e-16   1.1102230246251568e-16   1.1102230246251568e-16   5.5511151231257839e-17   1.1102230246251568e-16   5.5511151231257839e-17   5.5511151231257839e-17   5.5511151231257839e-17   5.5511151231257839e-17   5.5511151231257839e-17   5.5511151231257839e-17   5.5511151231257839e-17   5.5511151231257839e-17   5.5511151231257852e-17   5.5511151231257852e-17   5.5511151231257839e-17   5.5511151231257839e-17   1.6756097482029115e-05   5.8947800252173747e-08   5.9108569558374880e-06   7.3723975072918344e-10   2.5412962234572244e-08   2.4649088326000885e-11   3.6779243539619725e-10   1.7812603244256792e-12   1.3897077932867325e-11   2.3475665855698945e-13   1.1213715141641014e-12   4.9155124415278818e-14   1.6273093983443237e-13   1.4617936490897900e-14   3.6905663710247927e-14   5.6528855670497567e-15   1.1694349192718320e-14   2.6460315420232912e-15   4.7554552888110898e-15   1.4340380734741611e-15   2.3129646346357438e-15   8.5117098554595368e-16   1.2675046197803876e-15   5.3660779523549259e-16   7.7715611723761007e-16   3.7007434154171896e-16   4.9960036108132054e-16   2.5905203907920331e-16   3.4231876592609015e-16   1.9428902930940249e-16   2.4054832200211733e-16   1.4802973661668760e-16   1.8503717077085951e-16   1.1102230246251570e-16   1.2952601953960165e-16   8.3266726846886778e-17   1.1102230246251570e-16   5.5511151231257852e-17   7.4014868308343802e-17   5.5511151231257852e-17   5.5511151231257852e-17   5.5511151231257852e-17   5.5511151231257852e-17   5.5511151231257839e-17   5.5511151231257839e-17   5.5511151231257852e-17   5.5511151231257852e-17   1.1578175438496192e-04   3.0733320779963174e-07   4.0873582387163112e-05   2.5655661946751475e-09   1.2797326304214707e-07   6.3442695541482434e-11   1.2130695799713229e-09   3.6865603162776048e-12   3.4231839585174852e-11   4.1436298836572415e-13   2.2510511972958134e-12   7.7058729767524424e-14   2.8138602559124603e-13   2.0973963306876918e-14   5.7037707890117430e-14   7.5865240016052390e-15   1.6588582359607553e-14   3.3861802251067290e-15   6.3282712403633946e-15   1.7486012637846219e-15   2.9328391567181224e-15   1.0084525807011843e-15   1.5543122344752201e-15   6.3837823915946521e-16   9.2518585385429718e-16   4.3483735131151988e-16   5.8286708792820748e-16   3.0531133177191820e-16   3.7932620008026200e-16   2.0354088784794546e-16   2.8680761469483212e-16   1.5728159515523057e-16   1.8503717077085951e-16   1.1102230246251568e-16   1.3877787807814462e-16   1.0177044392397270e-16   1.1102230246251568e-16   5.5511151231257839e-17   9.2518585385429740e-17   5.5511151231257839e-17   5.5511151231257839e-17   5.5511151231257852e-17   5.5511151231257852e-17   5.5511151231257839e-17   5.5511151231257839e-17   8.1786225013374969e-04   1.7430634766206030e-06   2.6903455649319552e-04   9.4596476762909309e-09   6.5483530262144839e-07   1.7412796204929756e-10   4.2100895270014157e-09   8.1711211870801532e-12   9.0810100180268247e-11   7.8032950471633009e-13   4.8851478418043842e-12   1.2786068500266390e-13   5.2204536989582583e-13   3.1558089474970087e-14   9.3601052834439294e-14   1.0574874309554622e-14   2.4767225307679544e-14   4.4501439570391702e-15   8.7615100360001958e-15   2.2204460492503139e-15   3.8302694349567916e-15   1.2304971856262154e-15   1.9521421516325676e-15   7.4940054162198096e-16   1.1009711660866139e-15   4.9034850254277770e-16   6.7538567331363726e-16   3.2381504884900412e-16   4.3483735131151978e-16   2.3129646346357434e-16   2.9605947323337521e-16   1.6653345369377356e-16   2.1279274638648844e-16   1.2027416100105864e-16   1.6653345369377358e-16   1.1102230246251568e-16   1.1102230246251568e-16   8.3266726846886765e-17   1.1102230246251568e-16   5.5511151231257852e-17   9.2518585385429740e-17   5.5511151231257839e-17   6.4763009769800815e-17   4.7485161815055046e-03   9.9601395818771416e-06   1.4832961412957577e-03   3.8152319414841442e-08   3.5020314634870444e-06   5.3414625500458623e-10   1.6577983171413749e-08   2.0090503335031453e-11   2.7484301871420302e-10   1.6062521683105999e-12   1.1862918055290572e-11   2.2865043192155109e-13   1.0627239828882773e-12   5.04781401