<?xml version="1.0"?>
<VTKFile type="UnstructuredGrid"  version="0.1"  >
<UnstructuredGrid>
<Piece  NumberOfPoints="629" NumberOfCells="1162">
<Points>
<DataArray  type="Float64"  NumberOfComponents="3"  format="ascii">0.7104347826086956 0 0  0.7269565217391304 0 0  0.7269565217391304 0.01666666666666667 0  0.7104347826086956 0.01666666666666667 0  0.7434782608695653 0 0  0.7434782608695653 0.01666666666666667 0  0.7599999999999999 0 0  0.7599999999999999 0.01666666666666667 0  0.7765217391304348 0 0  0.7765217391304348 0.01666666666666667 0  0.7930434782608695 0 0  0.7930434782608695 0.01666666666666667 0  0.8095652173913043 0 0  0.8095652173913043 0.01666666666666667 0  0.8260869565217391 0 0  0.8260869565217391 0.01666666666666667 0  0.8426086956521739 0 0  0.8426086956521739 0.01666666666666667 0  0.8591304347826086 0 0  0.8591304347826086 0.01666666666666667 0  0.8756521739130434 0 0  0.8756521739130434 0.01666666666666667 0  0.8921739130434783 0 0  0.8921739130434783 0.01666666666666667 0  0.908695652173913 0 0  0.908695652173913 0.01666666666666667 0  0.9252173913043478 0 0  0.9252173913043478 0.01666666666666667 0  0.9417391304347826 0 0  0.9417391304347826 0.01666666666666667 0  0.9582608695652173 0 0  0.9582608695652173 0.01666666666666667 0  0.9747826086956521 0 0  0.9747826086956521 0.01666666666666667 0  0.991304347826087 0 0  0.991304347826087 0.01666666666666667 0  1.007826086956522 0 0  1.007826086956522 0.01666666666666667 0  1.024347826086957 0 0  1.024347826086957 0.01666666666666667 0  0.7269565217391304 0.03333333333333333 0  0.7104347826086956 0.03333333333333333 0  0.7434782608695653 0.03333333333333333 0  0.7599999999999999 0.03333333333333333 0  0.7765217391304348 0.03333333333333333 0  0.7930434782608695 0.03333333333333333 0  0.8095652173913043 0.03333333333333333 0  0.8260869565217391 0.03333333333333333 0  0.8426086956521739 0.03333333333333333 0  0.8591304347826086 0.03333333333333333 0  0.8756521739130434 0.03333333333333333 0  0.8921739130434783 0.03333333333333333 0  0.908695652173913 0.03333333333333333 0  0.9252173913043478 0.03333333333333333 0  0.9417391304347826 0.03333333333333333 0  0.9582608695652173 0.03333333333333333 0  0.9747826086956521 0.03333333333333333 0  0.991304347826087 0.03333333333333333 0  1.007826086956522 0.03333333333333333 0  1.024347826086957 0.03333333333333333 0  1.040869565217391 0.03333333333333333 0  0.7269565217391304 0.05 0  0.7434782608695653 0.05 0  0.7599999999999999 0.05 0  0.7765217391304348 0.05 0  0.7930434782608695 0.05 0  0.8095652173913043 0.05 0  0.8260869565217391 0.05 0  0.8426086956521739 0.05 0  0.8591304347826086 0.05 0  0.8756521739130434 0.05 0  0.8921739130434783 0.05 0  0.908695652173913 0.05 0  0.9252173913043478 0.05 0  0.9417391304347826 0.05 0  0.9582608695652173 0.05 0  0.9747826086956521 0.05 0  0.991304347826087 0.05 0  1.007826086956522 0.05 0  1.024347826086957 0.05 0  1.040869565217391 0.05 0  1.057391304347826 0.05 0  0.7434782608695653 0.06666666666666667 0  0.7599999999999999 0.06666666666666667 0  0.7765217391304348 0.06666666666666667 0  0.7930434782608695 0.06666666666666667 0  0.8095652173913043 0.06666666666666667 0  0.8260869565217391 0.06666666666666667 0  0.8426086956521739 0.06666666666666667 0  0.8591304347826086 0.06666666666666667 0  0.8756521739130434 0.06666666666666667 0  0.8921739130434783 0.06666666666666667 0  0.908695652173913 0.06666666666666667 0  0.9252173913043478 0.06666666666666667 0  0.9417391304347826 0.06666666666666667 0  0.9582608695652173 0.06666666666666667 0  0.9747826086956521 0.06666666666666667 0  0.991304347826087 0.06666666666666667 0  1.007826086956522 0.06666666666666667 0  1.024347826086957 0.06666666666666667 0  1.040869565217391 0.06666666666666667 0  1.057391304347826 0.06666666666666667 0  1.073913043478261 0.06666666666666667 0  0.7599999999999999 0.08333333333333333 0  0.7765217391304348 0.08333333333333333 0  0.7930434782608695 0.08333333333333333 0  0.8095652173913043 0.08333333333333333 0  0.8260869565217391 0.08333333333333333 0  0.8426086956521739 0.08333333333333333 0  0.8591304347826086 0.08333333333333333 0  0.8756521739130434 0.08333333333333333 0  0.8921739130434783 0.08333333333333333 0  0.908695652173913 0.08333333333333333 0  0.9252173913043478 0.08333333333333333 0  0.9417391304347826 0.08333333333333333 0  0.9582608695652173 0.08333333333333333 0  0.9747826086956521 0.08333333333333333 0  0.991304347826087 0.08333333333333333 0  1.007826086956522 0.08333333333333333 0  1.024347826086957 0.08333333333333333 0  1.040869565217391 0.08333333333333333 0  1.057391304347826 0.08333333333333333 0  1.073913043478261 0.08333333333333333 0  1.090434782608696 0.08333333333333333 0  0.7765217391304348 0.1 0  0.7930434782608695 0.1 0  0.8095652173913043 0.1 0  0.8260869565217391 0.1 0  0.8426086956521739 0.1 0  0.8591304347826086 0.1 0  0.8756521739130434 0.1 0  0.8921739130434783 0.1 0  0.908695652173913 0.1 0  0.9252173913043478 0.1 0  0.9417391304347826 0.1 0  0.9582608695652173 0.1 0  0.9747826086956521 0.1 0  0.991304347826087 0.1 0  1.007826086956522 0.1 0  1.024347826086957 0.1 0  1.040869565217391 0.1 0  1.057391304347826 0.1 0  1.073913043478261 0.1 0  1.090434782608696 0.1 0  1.10695652173913 0.1 0  0.7930434782608695 0.1166666666666667 0  0.8095652173913043 0.1166666666666667 0  0.8260869565217391 0.1166666666666667 0  0.8426086956521739 0.1166666666666667 0  0.8591304347826086 0.1166666666666667 0  0.8756521739130434 0.1166666666666667 0  0.8921739130434783 0.1166666666666667 0  0.908695652173913 0.1166666666666667 0  0.9252173913043478 0.1166666666666667 0  0.9417391304347826 0.1166666666666667 0  0.9582608695652173 0.1166666666666667 0  0.9747826086956521 0.1166666666666667 0  0.991304347826087 0.1166666666666667 0  1.007826086956522 0.1166666666666667 0  1.024347826086957 0.1166666666666667 0  1.040869565217391 0.1166666666666667 0  1.057391304347826 0.1166666666666667 0  1.073913043478261 0.1166666666666667 0  1.090434782608696 0.1166666666666667 0  1.10695652173913 0.1166666666666667 0  1.123478260869565 0.1166666666666667 0  0.8095652173913043 0.1333333333333333 0  0.8260869565217391 0.1333333333333333 0  0.8426086956521739 0.1333333333333333 0  0.8591304347826086 0.1333333333333333 0  0.8756521739130434 0.1333333333333333 0  0.8921739130434783 0.1333333333333333 0  0.908695652173913 0.1333333333333333 0  0.9252173913043478 0.1333333333333333 0  0.9417391304347826 0.1333333333333333 0  0.9582608695652173 0.1333333333333333 0  0.9747826086956521 0.1333333333333333 0  0.991304347826087 0.1333333333333333 0  1.007826086956522 0.1333333333333333 0  1.024347826086957 0.1333333333333333 0  1.040869565217391 0.1333333333333333 0  1.057391304347826 0.1333333333333333 0  1.073913043478261 0.1333333333333333 0  1.090434782608696 0.1333333333333333 0  1.10695652173913 0.1333333333333333 0  1.123478260869565 0.1333333333333333 0  1.14 0.1333333333333333 0  0.8260869565217391 0.15 0  0.8426086956521739 0.15 0  0.8591304347826086 0.15 0  0.8756521739130434 0.15 0  0.8921739130434783 0.15 0  0.908695652173913 0.15 0  0.9252173913043478 0.15 0  0.9417391304347826 0.15 0  0.9582608695652173 0.15 0  0.9747826086956521 0.15 0  0.991304347826087 0.15 0  1.007826086956522 0.15 0  1.024347826086957 0.15 0  1.040869565217391 0.15 0  1.057391304347826 0.15 0  1.073913043478261 0.15 0  1.090434782608696 0.15 0  1.10695652173913 0.15 0  1.123478260869565 0.15 0  1.14 0.15 0  1.156521739130435 0.15 0  0.8426086956521739 0.1666666666666667 0  0.8591304347826086 0.1666666666666667 0  0.8756521739130434 0.1666666666666667 0  0.8921739130434783 0.1666666666666667 0  0.908695652173913 0.1666666666666667 0  0.9252173913043478 0.1666666666666667 0  0.9417391304347826 0.1666666666666667 0  0.9582608695652173 0.1666666666666667 0  0.9747826086956521 0.1666666666666667 0  0.991304347826087 0.1666666666666667 0  1.007826086956522 0.1666666666666667 0  1.024347826086957 0.1666666666666667 0  1.040869565217391 0.1666666666666667 0  1.057391304347826 0.1666666666666667 0  1.073913043478261 0.1666666666666667 0  1.090434782608696 0.1666666666666667 0  1.10695652173913 0.1666666666666667 0  1.123478260869565 0.1666666666666667 0  1.14 0.1666666666666667 0  1.156521739130435 0.1666666666666667 0  1.17304347826087 0.1666666666666667 0  0.8591304347826086 0.1833333333333333 0  0.8756521739130434 0.1833333333333333 0  0.8921739130434783 0.1833333333333333 0  0.908695652173913 0.1833333333333333 0  0.9252173913043478 0.1833333333333333 0  0.9417391304347826 0.1833333333333333 0  0.9582608695652173 0.1833333333333333 0  0.9747826086956521 0.1833333333333333 0  0.991304347826087 0.1833333333333333 0  1.007826086956522 0.1833333333333333 0  1.024347826086957 0.1833333333333333 0  1.040869565217391 0.1833333333333333 0  1.057391304347826 0.1833333333333333 0  1.073913043478261 0.1833333333333333 0  1.090434782608696 0.1833333333333333 0  1.10695652173913 0.1833333333333333 0  1.123478260869565 0.1833333333333333 0  1.14 0.1833333333333333 0  1.156521739130435 0.1833333333333333 0  1.17304347826087 0.1833333333333333 0  1.189565217391304 0.1833333333333333 0  0.8756521739130434 0.2 0  0.8921739130434783 0.2 0  0.908695652173913 0.2 0  0.9252173913043478 0.2 0  0.9417391304347826 0.2 0  0.9582608695652173 0.2 0  0.9747826086956521 0.2 0  0.991304347826087 0.2 0  1.007826086956522 0.2 0  1.024347826086957 0.2 0  1.040869565217391 0.2 0  1.057391304347826 0.2 0  1.073913043478261 0.2 0  1.090434782608696 0.2 0  1.10695652173913 0.2 0  1.123478260869565 0.2 0  1.14 0.2 0  1.156521739130435 0.2 0  1.17304347826087 0.2 0  1.189565217391304 0.2 0  1.206086956521739 0.2 0  0.8921739130434783 0.2166666666666667 0  0.908695652173913 0.2166666666666667 0  0.9252173913043478 0.2166666666666667 0  0.9417391304347826 0.2166666666666667 0  0.9582608695652173 0.2166666666666667 0  0.9747826086956521 0.2166666666666667 0  0.991304347826087 0.2166666666666667 0  1.007826086956522 0.2166666666666667 0  1.02434782608
[...]
<PointData  Vectors="Displacement"> 
<DataArray  type="Float64"  Name="Displacement"  NumberOfComponents="3" format="ascii">1.3783681332343878e-04 1.0292360165695092e-03 0.0000000000000000e+00  1.4076571345679337e-04 1.0493049961616515e-03 0.0000000000000000e+00  1.2074671392113514e-04 1.0482522803184964e-03 0.0000000000000000e+00  1.1734043203893920e-04 1.0281836381320789e-03 0.0000000000000000e+00  1.4370119817869547e-04 1.0689069632578347e-03 0.0000000000000000e+00  1.2414791011953265e-04 1.0678537778895571e-03 0.0000000000000000e+00  1.4664320901282984e-04 1.0880528757343782e-03 0.0000000000000000e+00  1.2754495763912335e-04 1.0869991803293486e-03 0.0000000000000000e+00  1.4959164995339519e-04 1.1067528970501986e-03 0.0000000000000000e+00  1.3093836162034081e-04 1.1056987294860397e-03 0.0000000000000000e+00  1.5254641750629095e-04 1.1250167986742352e-03 0.0000000000000000e+00  1.3432820384288549e-04 1.1239622269112876e-03 0.0000000000000000e+00  1.5550744388917272e-04 1.1428543192343310e-03 0.0000000000000000e+00  1.3771431559318818e-04 1.1417994047523967e-03 0.0000000000000000e+00  1.5847471121409860e-04 1.1602754222485385e-03 0.0000000000000000e+00  1.4109642391812449e-04 1.1592202025919652e-03 0.0000000000000000e+00  1.6144823295493848e-04 1.1772904124586786e-03 0.0000000000000000e+00  1.4447425914588028e-04 1.1762348989126691e-03 0.0000000000000000e+00  1.6442802501891686e-04 1.1939098801156919e-03 0.0000000000000000e+00  1.4784764386861134e-04 1.1928540686608287e-03 0.0000000000000000e+00  1.6741408857657891e-04 1.2101445441713851e-03 0.0000000000000000e+00  1.5121651736249117e-04 1.2090884259424663e-03 0.0000000000000000e+00  1.7040640942059430e-04 1.2260051141202966e-03 0.0000000000000000e+00  1.5458090312596561e-04 1.2249486781263125e-03 0.0000000000000000e+00  1.7340496301910895e-04 1.2415022087930998e-03 0.0000000000000000e+00  1.5794087469279497e-04 1.2404454470294993e-03 0.0000000000000000e+00  1.7640971937793378e-04 1.2566463189130715e-03 0.0000000000000000e+00  1.6129651809276057e-04 1.2555892312502959e-03 0.0000000000000000e+00  1.7942064875927367e-04 1.2714478235637114e-03 0.0000000000000000e+00  1.6464789034870077e-04 1.2703904139671862e-03 0.0000000000000000e+00  1.8243772616866979e-04 1.2859170379546246e-03 0.0000000000000000e+00  1.6799501426347502e-04 1.2848593094420991e-03 0.0000000000000000e+00  1.8546093107417696e-04 1.3000642476106671e-03 0.0000000000000000e+00  1.7133789798531480e-04 1.2990062020713374e-03 0.0000000000000000e+00  1.8849024483555681e-04 1.3138997125793355e-03 0.0000000000000000e+00  1.7467654962746257e-04 1.3128413538175331e-03 0.0000000000000000e+00  1.9152564998443838e-04 1.3274336692522979e-03 0.0000000000000000e+00  1.7801097031937542e-04 1.3263750021105013e-03 0.0000000000000000e+00  1.9456713196072778e-04 1.3406763513619522e-03 0.0000000000000000e+00  1.8134114830895725e-04 1.3396173737685005e-03 0.0000000000000000e+00  1.0055058769761703e-04 1.0471017339498088e-03 0.0000000000000000e+00  9.6664324951296484e-05 1.0270307150037755e-03 0.0000000000000000e+00  1.0441994333987718e-04 1.0667052893386971e-03 0.0000000000000000e+00  1.0827449956756983e-04 1.0858524406661297e-03 0.0000000000000000e+00  1.1211558754624226e-04 1.1045535767694667e-03 0.0000000000000000e+00  1.1594387657176801e-04 1.1228186475393464e-03 0.0000000000000000e+00  1.1975930804771401e-04 1.1406574692240342e-03 0.0000000000000000e+00  1.2356113760043252e-04 1.1580800077694822e-03 0.0000000000000000e+00  1.2734829992136709e-04 1.1750965272908963e-03 0.0000000000000000e+00  1.3112000564600754e-04 1.1917175661640363e-03 0.0000000000000000e+00  1.3487604016162674e-04 1.2079538049236214e-03 0.0000000000000000e+00  1.3861657023780800e-04 1.2238159285993789e-03 0.0000000000000000e+00  1.4234188003134132e-04 1.2393145427757172e-03 0.0000000000000000e+00  1.4605229608472293e-04 1.2544601441853700e-03 0.0000000000000000e+00  1.4974806389858654e-04 1.2692631276412605e-03 0.0000000000000000e+00  1.5342926356365632e-04 1.2837338171087509e-03 0.0000000000000000e+00  1.5709587915819516e-04 1.2978824987472950e-03 0.0000000000000000e+00  1.6074792368186758e-04 1.3117194349369856e-03 0.0000000000000000e+00  1.6438543521308873e-04 1.3252548684200460e-03 0.0000000000000000e+00  1.6800838320134420e-04 1.3384990307369175e-03 0.0000000000000000e+00  1.7161666541590690e-04 1.3514621431514832e-03 0.0000000000000000e+00  8.3711153677458764e-05 1.0292054572611008e-03 0.0000000000000000e+00  8.8589685876264788e-05 1.0486866745402492e-03 0.0000000000000000e+00  9.3447758359529553e-05 1.0677794328728982e-03 0.0000000000000000e+00  9.8278395848727817e-05 1.0864911423922844e-03 0.0000000000000000e+00  1.0307483853256295e-04 1.1048282727710635e-03 0.0000000000000000e+00  1.0783085901580772e-04 1.1227967019301244e-03 0.0000000000000000e+00  1.1254100305826151e-04 1.1404021386575039e-03 0.0000000000000000e+00  1.1720075629841630e-04 1.1576504322685370e-03 0.0000000000000000e+00  1.2180663021935395e-04 1.1745477382704901e-03 0.0000000000000000e+00  1.2635611046541944e-04 1.1911006182830776e-03 0.0000000000000000e+00  1.3084744923632407e-04 1.2073160781700192e-03 0.0000000000000000e+00  1.3527938558414648e-04 1.2232015070334787e-03 0.0000000000000000e+00  1.3965089235317964e-04 1.2387645688943549e-03 0.0000000000000000e+00  1.4396098017192024e-04 1.2540131206878020e-03 0.0000000000000000e+00  1.4820857279956092e-04 1.2689551199605762e-03 0.0000000000000000e+00  1.5239247101416731e-04 1.2835985195268909e-03 0.0000000000000000e+00  1.5651138754948496e-04 1.2979511812025810e-03 0.0000000000000000e+00  1.6056401284987649e-04 1.3120208258908708e-03 0.0000000000000000e+00  1.6454909878709810e-04 1.3258149928906410e-03 0.0000000000000000e+00  1.6846557780819416e-04 1.3393409866036075e-03 0.0000000000000000e+00  1.7231271815712159e-04 1.3526058271183629e-03 0.0000000000000000e+00  7.2996683996668174e-05 1.0301647850854548e-03 0.0000000000000000e+00  7.8740838949438194e-05 1.0492049934133067e-03 0.0000000000000000e+00  8.4450193242159450e-05 1.0679346580198179e-03 0.0000000000000000e+00  9.0110736512973632e-05 1.0863559806966593e-03 0.0000000000000000e+00  9.5710107378711124e-05 1.1044699330715363e-03 0.0000000000000000e+00  1.0123791363208950e-04 1.1222770106030355e-03 0.0000000000000000e+00  1.0668577998485284e-04 1.1397778901017360e-03 0.0000000000000000e+00  1.1204718680130926e-04 1.1569738627622693e-03 0.0000000000000000e+00  1.1731717251302152e-04 1.1738670823163995e-03 0.0000000000000000e+00  1.2249196547642097e-04 1.1904606599287132e-03 0.0000000000000000e+00  1.2756860031389137e-04 1.2067586079819810e-03 0.0000000000000000e+00  1.3254456379198978e-04 1.2227656779803511e-03 0.0000000000000000e+00  1.3741751032846848e-04 1.2384871574557129e-03 0.0000000000000000e+00  1.4218507644718414e-04 1.2539286390917095e-03 0.0000000000000000e+00  1.4684479957999394e-04 1.2690957796811521e-03 0.0000000000000000e+00  1.5139413248391149e-04 1.2839940858968819e-03 0.0000000000000000e+00  1.5583053790552663e-04 1.2986287509850710e-03 0.0000000000000000e+00  1.6015164609002415e-04 1.3130045340866260e-03 0.0000000000000000e+00  1.6435545407710611e-04 1.3271256725330206e-03 0.0000000000000000e+00  1.6844054049744385e-04 1.3409958431585215e-03 0.0000000000000000e+00  1.7240626643967374e-04 1.3546182055217371e-03 0.0000000000000000e+00  6.4169391048058289e-05 1.0301777813782650e-03 0.0000000000000000e+00  7.0658167027540562e-05 1.0489302745097945e-03 0.0000000000000000e+00  7.7088730341147617e-05 1.0674455984329412e-03 0.0000000000000000e+00  8.3442505876615139e-05 1.0857187817242149e-03 0.0000000000000000e+00  8.9704095762815992e-05 1.1037441233988452e-03 0.0000000000000000e+00  9.5861185773640160e-05 1.1215163336250531e-03 0.0000000000000000e+00  1.0190416779539320e-04 1.1390312633110238e-03 0.0000000000000000e+00  1.0782562695062231e-04 1.1562862778421578e-03 0.0000000000000000e+00  1.1361979221883572e-04 1.1732803666080407e-03 0.0000000000000000e+00  1.1928200960649031e-04 1.1900140465746537e-03 0.0000000000000000e+00  1.2480827647924251e-04 1.2064891144257484e-03 0.0000000000000000e+00  1.3019487204023558e-04 1.2227083051126128e-03 0.0000000000000000e+00  1.3543811222953896e-04 1.2386748975304100e-03 0.0000000000000000e+00  1.4053423763287095e-04 1.2543923097973176e-03 0.0000000000000000e+00  1.4547942703345648e-04 1.2698637307879308e-03 0.0000000000000000e+00  1.5026992047409801e-04 1.2850918218489968e-03 0.0000000000000000e+00  1.5490222851779825e-04 1.3000784998815846e-03 0.0000000000000000e+00  1.5937339667837613e-04 1.3148248058922653e-03 0.0000000000000000e+00  1.6368129051748739e-04 1.3293308717301194e-03 0.0000000000000000e+00  1.6782486976579900e-04 1.3435960021687600e-03 0.0000000000000000e+00  1.7180442483195204e-04 1.3576188715623506e-03 0.0000000000000000e+00  5.6917136139152053e-05 1.0295152606896580e-03 0.0000000000000000e+00  6.4033565709384368e-05 1.0481334355482695e-03 0.0000000000000000e+00  7.1061277718484849e-05 1.0665787013441675e-03 0.0000000000000000e+00  7.7979898391249705e-05 1.0848379796984770e-03 0.0000000000000000e+00  8.4773291006616614e-05 1.1028991110159918e-03 0.0000000000000000e+00  9.1428909244213591e-05 1.1207518757385857e-03 0.0000000000000000e+00  9.7937048506826778e-05 1.1383884483600825e-03 0.0000000000000000e+00  1.0429010170154387e-04 1.1558034788144717e-03 0.0000000000000000e+00  1.1048187182097070e-04 1.1729939132889881e-03 0.0000000000000000e+00  1.1650697905027545e-04 1.1899586186988628e-03 0.0000000000000000e+00  1.2236039854350488e-04 1.2066978686415856e-03 0.0000000000000000e+00  1.2803715679829907e-04 1.2232127509523413e-03 0.0000000000000000e+00  1.3353219576922782e-04 1.2395045628683216e-03 0.0000000000000000e+00  1.3884039517818688e-04 1.2555742579370885e-03 0.0000000000000000e+00  1.4395673042059008e-04 1.2714219930002701e-03 0.0000000000000000e+00  1.4887653493547834e-04 1.2870468015705701e-03 0.0000000000000000e+00  1.5359583036882133e-04 1.3024464067208405e-03 0.0000000000000000e+00  1.5811168662564228e-04 1.3176171837476073e-03 0.0000000000000000e+00  1.6242257665834679e-04 1.3325542803608553e-03 0.0000000000000000e+00  1.6652869371700562e-04 1.3472518914204351e-03 0.0000000000000000e+00  1.7043219790674477e-04 1.3617036777691131e-03 0.0000000000000000e+00  5.0959291978885769e-05 1.0284482362456315e-03 0.0000000000000000e+00  5.8589033277229772e-05 1.0470788967234881e-03 0.0000000000000000e+00  6.6095216840968423e-05 1.0655879680569009e-03 0.0000000000000000e+00  7.3458163080930420e-05 1.0839553769852902e-03 0.0000000000000000e+00  8.0662703696027170e-05 1.1021641652572518e-03 0.0000000000000000e+00  8.7697158608480337e-05 1.1202009249562550e-03 0.0000000000000000e+00  9.4552381299389454e-05 1.1380557880683526e-03 0.0000000000000000e+00  1.0122089595692269e-04 1.1557221206791543e-03 0.0000000000000000e+00  1.0769616036576466e-04 1.1731959758224685e-03 0.0000000000000000e+00  1.1397199839803595e-04 1.1904753600316279e-03 0.0000000000000000e+00  1.2004223502441017e-04 1.2075593942544565e-03 0.0000000000000000e+00  1.2590054245390796e-04 1.2244474630073380e-03 0.0000000000000000e+00  1.3154048138820055e-04 1.2411384404007893e-03 0.0000000000000000e+00  1.3695570429362593e-04 1.2576300591478650e-03 0.0000000000000000e+00  1.4214027959972428e-04 1.2739184600152537e-03 0.0000000000000000e+00  1.4708909448955657e-04 1.2899979383067769e-03 0.0000000000000000e+00  1.5179829655563207e-04 1.3058608941906320e-03 0.0000000000000000e+00  1.5626573772539940e-04 1.3214979889733457e-03 0.0000000000000000e+00  1.6049138399814298e-04 1.3368985031965094e-03 0.0000000000000000e+00  1.6447764929428528e-04 1.3520508877153318e-03 0.0000000000000000e+00  1.6822960504735829e-04 1.3669434899461208e-03 0.0000000000000000e+00  4.6039179549400525e-05 1.0272423648346395e-03 0.0000000000000000e+00  5.4070819146575537e-05 1.0460184162414587e-03 0.0000000000000000e+00  6.1942848384248552e-05 1.0647101425685010e-03 0.0000000000000000e+00  6.9637933677327141e-05 1.0832931782323145e-03 0.0000000000000000e+00  7.7142859787657588e-05 1.1017481807596007e-03 0.0000000000000000e+00  8.4447359016241079e-05 1.1200606478804541e-03 0.0000000000000000e+00  9.1543055878357985e-05 1.1382204470423486e-03 0.0000000000000000e+00  9.8422561092670712e-05 1.1562210524541680e-03 0.0000000000000000e+00  1.0507877971723209e-04 1.1740585324274855e-03 0.0000000000000000e+00  1.1150447920006866e-04 1.1917303980319865e-03 0.0000000000000000e+00  1.1769212486022810e-04 1.2092344467002549e-03 0.0000000000000000e+00  1.2363395451881710e-04 1.2265677233535036e-03 0.0000000000000000e+00  1.2932224226857640e-04 1.2437256853801838e-03 0.0000000000000000e+00  1.3474969635353493e-04 1.2607016147034471e-03 0.0000000000000000e+00  1.3990994243913527e-04 1.2774862894330290e-03 0.0000000000000000e+00  1.4479805314778239e-04 1.2940679145227820e-03 0.0000000000000000e+00  1.4941109061342232e-04 1.3104323090663472e-03 0.0000000000000000e+00  1.5374862659854548e-04 1.3265633481254653e-03 0.0000000000000000e+00  1.5781319125295250e-04 1.3424436589032918e-03 0.0000000000000000e+00  1.6161058260572646e-04 1.3580555623671799e-03 0.0000000000000000e+00  1.6514995757220541e-04 1.3733822251074657e-03 0.0000000000000000e+00  4.1919572853762598e-05 1.0261487538977979e-03 0.0000000000000000e+00  5.0246589879235599e-05 1.0451844331299696e-03 0.0000000000000000e+00  5.8379259478945130e-05 1.0641607007577450e-03 0.0000000000000000e+00  6.6303367101060669e-05 1.0830519935560454e-03 0.0000000000000000e+00  7.4008054760004514e-05 1.1018391326612239e-03 0.0000000000000000e+00  8.1484547110245625e-05 1.1205086801428898e-03 0.0000000000000000e+00  8.8725032758130127e-05 1.1390519187699994e-03 0.0000000000000000e+00  9.5721816328351922e-05 1.1574634802217127e-03 0.0000000000000000e+00  1.0246681133872131e-04 1.1757397908384979e-03 0.0000000000000000e+00  1.0895137753527616e-04 1.1938775307747255e-03 0.0000000000000000e+00  1.1516645173761394e-04 1.2118722772647985e-03 0.0000000000000000e+00  1.2110289393572545e-04 1.2297174400133348e-03 0.0000000000000000e+00  1.2675197263252363e-04 1.2474035279524220e-03 0.0000000000000000e+00  1.3210593332537164e-04 1.2649177429829464e-03 0.0000000000000000e+00  1.3715861622201926e-04 1.2822438841453457e-03 0.0000000000000000e+00  1.4190610230616998e-04 1.2993625538324383e-03 0.0000000000000000e+00  1.4634736444408655e-04 1.3162516705394567e-03 0.0000000000000000e+00  1.5048487376352306e-04 1.3328873110857518e-03 0.0000000000000000e+00  1.5432506843439086e-04 1.3492449002929299e-03 0.0000000000000000e+00  1.5787855733217620e-04 1.3653007216437064e-03 0.0000000000000000e+00  1.6115993087532091e-04 1.3810336564976295e-03 0.0000000000000000e+00  3.8382077185201311e-05 1.0253954958136073e-03 0.0000000000000000e+00  4.6904921144379561e-05 1.0447854864739921e-03 0.0000000000000000e+00  5.5201496576949423e-05 1.0641316998353724e-03 0.0000000000000000e+00  6.3261003679498237e-05 1.0834102989167847e-03 0.0000000000000000e+00  7.1074915129106084e-05 1.1026048608146911e-03 0.0000000000000000e+00  7.8635558806621874e-05 1.1217050590190702e-03 0.0000000000000000e+00  8.5935059454688700e-05 1.1407048138487176e-03 0.0000000000000000e+00  9.2964746399585422e-05 1.1596002040148497e-03 0.0000000000000000e+00  9.9715017178132509e-05 1.1783874342448817e-03 0.0000000000000000e+00  1.0617556337521599e-04 1.1970610987378282e-03 0.0000000000000000e+00  1.1233583227441771e-04 1.2156128688506241e-03 0.0000000000000000e+00  1.1818561576523001e-04 1.2340306212891331e-03 0.0000000000000000e+00  1.2371570160210361e-04 1.2522979631453281e-03 0.0000000000000000e+00  1.2891856552713727e-04 1.2703941052582780e-03 0.0000000000000000e+00  1.3378911018636965e-04 1.2882940633122751e-03 0.0000000000000000e+00  1.3832546083561548e-04 1.3059692014312243e-03 0.0000000000000000e+00  1.4252978501574890e-04 1.3233881906407233e-03 0.0000000000000000e+00  1.4640901858882876e-04 1.3405184658130283e-03 0.0000000000000000e+00  1.4997529462076978e-04 1.3573281906206255e-03 0.0000000000000000e+00  1.5324583530128689e-04 1.3737886153347221e-03 0.0000000000000000e+00  1.5624213154534752e-04 1.3898765720164275e-03 0.0000000000000000e+00  3.5228276167970290e-05 1.0251835146998347e-03 0.0000000000000000e+00  4.3855217767759615e-05 1.0450045365630997e-03 0.0000000000000000e+00  5.2227731227699268e-05 1.0647915614883981e-03 0.0000000000000000e+00  6.0338407460506298e-05 1.0845256420111465e-03 0.0000000000000000e+00  6.8180469321864562e-05 1.1041956846607156e-03 0.0000000000000000e+00  7.5746413835063944e-05 1.1237959232438331e-03 0.0000000000000000e+00  8.3027328911533090e-05 1.1433230974772844e-03 0.0000000000000000e+00  9.0012833491850088e-05 1.1627737807544712e-03 0.0000000000000000e+00  9.6691466980667527e-05 1.1821421951846245e-03 0.0000000000000000e+00  1.0305131983286074e-04 1.2014186541023542e-03 0.0000000000000000e+00  1.0908074676054367e-04 1.2205885890092855e-03 0.0000000000000000e+00  1.1476908739836323e-04 1.2396320404294591e-03 0.0000000000000000e+00  1.2010739501179726e-04 1.2585235057741518e-03 0.0000000000000000e+00  1.2508922545143922e-04 1.2772320968326830e-03 0.0000000000000000e+00  1.2971156421291323e-04 1.2957220264972914e-03 0.0000000000000000e+00  1.3397591366973421e-04 1.3139535871982508e-03 0.0000000000000000e+00  1.3788941999526893e-04 1.3318848450448362e-03 0.0000000000000000e+00  1.4146573894273688e-04 1.3494741649386240e-03 0.0000000000000000e+00  1.4472519812367931e-04 1.3666834576461884e-03 0.0000000000000000e+00  1.4769384370485946e-04 1.3834817429475479e-03 0.0000000000000000e+00  1.5040115883394265e-04 1.3998485334206672e-03 0.0000000000000000e+00  3.2279650719980267e-05 1.0256861028405714e-03 0.0000000000000000e+00  4.0926598332852679e-05 1.0459992323435558e-03 0.0000000000000000e+00  4.9295619126644424e-05 1.0662868028245799e-03 0.0000000000000000e+00  5.7381888381273403e-05 1.0865381763285041e-03 0.0000000000000000e+00  6.5179002201129734e-05 1.1067493477967161e-03 0.0000000000000000e+00  7.2678221823035429e-05 1.1269190847364660e-03 0.0000000000000000e+00  7.9868594264129850e-05 1.1470454081951684e-03 0.0000000000000000e+00  8.6737628027786304e-05 1.1671228923527503e-03 0.0000000000000000e+00  9.3272180229666217e-05 1.1871409091063359e-03 0.0000000000000000e+00  9.9459323873437412e-05 1.2070826473173674e-03 0.0000000000000000e+00  1.0528711078880444e-04 1.2269246503489827e-03 0.0000000000000000e+00  1.1074526507456348e-04 1.2466366688710386e-03 0.0000000000000000e+00  1.1582592702471968e-04 1.2661817279884390e-03 0.0000000000000000e+00  1.2052464117337423e-04 1.2855164004443339e-03 0.0000000000000000e+00  1.2484172510020361e-04 1.3045915881274093e-03 0.0000000000000000e+00  1.2878396072306297e-04 1.3233542939808430e-03 0.0000000000000000e+00  1.3236624928184481e-04 1.3417507570704335e-03 0.0000000000000000e+00  1.3561248914788077e-04 1.3597309768544476e-03 0.0000000000000000e+00  1.3855476057268520e-04 1.3772540300052106e-03 0.0000000000000000e+00  1.4123004460168305e-04 1.3942934038431193e-03 0.0000000000000000e+00  1.4367404250325761e-04 1.4108418064141938e-03 0.0000000000000000e+00  2.9375164384822102e-05 1.0270493349695800e-03 0.0000000000000000e+00  3.7965496741855270e-05 1.0479039933198346e-03 0.0000000000000000e+00  4.6259438752813031e-05 1.0687466940272868e-03 0.0000000000000000e+00  5.4252630284648334e-05 1.0895772698376010e-03 0.0000000000000000e+00  6.1936961839593308e-05 1.1103983696296807e-03 0.0000000000000000e+00  6.9301085836418261e-05 1.1312108077594712e-03 0.0000000000000000e+00  7.6331594117053797e-05 1.1520103047225484e-03 0.0000000000000000e+00  8.3014302306387092e-05 1.1727856687648590e-03 0.0000000000000000e+00  8.9335314830558471e-05 1.1935179957664648e-03 0.0000000000000000e+00  9.5281787150209798e-05 1.2141804098917792e-03 0.0000000000000000e+00  1.0084247026036111e-04 1.2347380023457705e-03 0.0000000000000000e+00  1.0600824428332202e-04 1.2551477757305315e-03 0.0000000000000000e+00  1.1077301095062993e-04 1.2753584674076112e-03 0.0000000000000000e+