<?xml version="1.0"?>
<VTKFile type="UnstructuredGrid"  version="0.1"  >
<UnstructuredGrid>
<Piece  NumberOfPoints="639" NumberOfCells="1175">
<Points>
<DataArray  type="Float64"  NumberOfComponents="3"  format="ascii">1.321739130434783 0 0  1.338260869565217 0 0  1.338260869565217 0.01666666666666667 0  1.354782608695652 0 0  1.354782608695652 0.01666666666666667 0  1.371304347826087 0 0  1.371304347826087 0.01666666666666667 0  1.387826086956522 0 0  1.387826086956522 0.01666666666666667 0  1.404347826086957 0 0  1.404347826086957 0.01666666666666667 0  1.420869565217391 0 0  1.420869565217391 0.01666666666666667 0  1.437391304347826 0 0  1.437391304347826 0.01666666666666667 0  1.453913043478261 0 0  1.453913043478261 0.01666666666666667 0  1.470434782608696 0 0  1.470434782608696 0.01666666666666667 0  1.486956521739131 0 0  1.486956521739131 0.01666666666666667 0  1.503478260869565 0 0  1.503478260869565 0.01666666666666667 0  1.52 0 0  1.52 0.01666666666666667 0  1.536521739130435 0 0  1.536521739130435 0.01666666666666667 0  1.55304347826087 0 0  1.55304347826087 0.01666666666666667 0  1.569565217391304 0 0  1.569565217391304 0.01666666666666667 0  1.586086956521739 0 0  1.586086956521739 0.01666666666666667 0  1.602608695652174 0 0  1.602608695652174 0.01666666666666667 0  1.619130434782609 0 0  1.619130434782609 0.01666666666666667 0  1.635652173913043 0 0  1.635652173913043 0.01666666666666667 0  1.652173913043478 0 0  1.652173913043478 0.01666666666666667 0  1.668695652173913 0 0  1.668695652173913 0.01666666666666667 0  1.685217391304348 0 0  1.685217391304348 0.01666666666666667 0  1.701739130434782 0 0  1.701739130434782 0.01666666666666667 0  1.718260869565217 0 0  1.718260869565217 0.01666666666666667 0  1.734782608695652 0 0  1.734782608695652 0.01666666666666667 0  1.751304347826087 0 0  1.751304347826087 0.01666666666666667 0  1.767826086956522 0 0  1.767826086956522 0.01666666666666667 0  1.784347826086957 0 0  1.784347826086957 0.01666666666666667 0  1.800869565217391 0 0  1.800869565217391 0.01666666666666667 0  1.817391304347826 0 0  1.817391304347826 0.01666666666666667 0  1.833913043478261 0 0  1.833913043478261 0.01666666666666667 0  1.850434782608696 0 0  1.850434782608696 0.01666666666666667 0  1.86695652173913 0 0  1.86695652173913 0.01666666666666667 0  1.883478260869565 0 0  1.883478260869565 0.01666666666666667 0  1.354782608695652 0.03333333333333333 0  1.371304347826087 0.03333333333333333 0  1.387826086956522 0.03333333333333333 0  1.404347826086957 0.03333333333333333 0  1.420869565217391 0.03333333333333333 0  1.437391304347826 0.03333333333333333 0  1.453913043478261 0.03333333333333333 0  1.470434782608696 0.03333333333333333 0  1.486956521739131 0.03333333333333333 0  1.503478260869565 0.03333333333333333 0  1.52 0.03333333333333333 0  1.536521739130435 0.03333333333333333 0  1.55304347826087 0.03333333333333333 0  1.569565217391304 0.03333333333333333 0  1.586086956521739 0.03333333333333333 0  1.602608695652174 0.03333333333333333 0  1.619130434782609 0.03333333333333333 0  1.635652173913043 0.03333333333333333 0  1.652173913043478 0.03333333333333333 0  1.668695652173913 0.03333333333333333 0  1.685217391304348 0.03333333333333333 0  1.701739130434782 0.03333333333333333 0  1.718260869565217 0.03333333333333333 0  1.734782608695652 0.03333333333333333 0  1.751304347826087 0.03333333333333333 0  1.767826086956522 0.03333333333333333 0  1.784347826086957 0.03333333333333333 0  1.800869565217391 0.03333333333333333 0  1.817391304347826 0.03333333333333333 0  1.833913043478261 0.03333333333333333 0  1.850434782608696 0.03333333333333333 0  1.86695652173913 0.03333333333333333 0  1.883478260869565 0.03333333333333333 0  1.371304347826087 0.05 0  1.387826086956522 0.05 0  1.404347826086957 0.05 0  1.420869565217391 0.05 0  1.437391304347826 0.05 0  1.453913043478261 0.05 0  1.470434782608696 0.05 0  1.486956521739131 0.05 0  1.503478260869565 0.05 0  1.52 0.05 0  1.536521739130435 0.05 0  1.55304347826087 0.05 0  1.569565217391304 0.05 0  1.586086956521739 0.05 0  1.602608695652174 0.05 0  1.619130434782609 0.05 0  1.635652173913043 0.05 0  1.652173913043478 0.05 0  1.668695652173913 0.05 0  1.685217391304348 0.05 0  1.701739130434782 0.05 0  1.718260869565217 0.05 0  1.734782608695652 0.05 0  1.751304347826087 0.05 0  1.767826086956522 0.05 0  1.784347826086957 0.05 0  1.800869565217391 0.05 0  1.817391304347826 0.05 0  1.833913043478261 0.05 0  1.850434782608696 0.05 0  1.86695652173913 0.05 0  1.883478260869565 0.05 0  1.387826086956522 0.06666666666666667 0  1.404347826086957 0.06666666666666667 0  1.420869565217391 0.06666666666666667 0  1.437391304347826 0.06666666666666667 0  1.453913043478261 0.06666666666666667 0  1.470434782608696 0.06666666666666667 0  1.486956521739131 0.06666666666666667 0  1.503478260869565 0.06666666666666667 0  1.52 0.06666666666666667 0  1.536521739130435 0.06666666666666667 0  1.55304347826087 0.06666666666666667 0  1.569565217391304 0.06666666666666667 0  1.586086956521739 0.06666666666666667 0  1.602608695652174 0.06666666666666667 0  1.619130434782609 0.06666666666666667 0  1.635652173913043 0.06666666666666667 0  1.652173913043478 0.06666666666666667 0  1.668695652173913 0.06666666666666667 0  1.685217391304348 0.06666666666666667 0  1.701739130434782 0.06666666666666667 0  1.718260869565217 0.06666666666666667 0  1.734782608695652 0.06666666666666667 0  1.751304347826087 0.06666666666666667 0  1.767826086956522 0.06666666666666667 0  1.784347826086957 0.06666666666666667 0  1.800869565217391 0.06666666666666667 0  1.817391304347826 0.06666666666666667 0  1.833913043478261 0.06666666666666667 0  1.850434782608696 0.06666666666666667 0  1.86695652173913 0.06666666666666667 0  1.883478260869565 0.06666666666666667 0  1.404347826086957 0.08333333333333333 0  1.420869565217391 0.08333333333333333 0  1.437391304347826 0.08333333333333333 0  1.453913043478261 0.08333333333333333 0  1.470434782608696 0.08333333333333333 0  1.486956521739131 0.08333333333333333 0  1.503478260869565 0.08333333333333333 0  1.52 0.08333333333333333 0  1.536521739130435 0.08333333333333333 0  1.55304347826087 0.08333333333333333 0  1.569565217391304 0.08333333333333333 0  1.586086956521739 0.08333333333333333 0  1.602608695652174 0.08333333333333333 0  1.619130434782609 0.08333333333333333 0  1.635652173913043 0.08333333333333333 0  1.652173913043478 0.08333333333333333 0  1.668695652173913 0.08333333333333333 0  1.685217391304348 0.08333333333333333 0  1.701739130434782 0.08333333333333333 0  1.718260869565217 0.08333333333333333 0  1.734782608695652 0.08333333333333333 0  1.751304347826087 0.08333333333333333 0  1.767826086956522 0.08333333333333333 0  1.784347826086957 0.08333333333333333 0  1.800869565217391 0.08333333333333333 0  1.817391304347826 0.08333333333333333 0  1.833913043478261 0.08333333333333333 0  1.850434782608696 0.08333333333333333 0  1.86695652173913 0.08333333333333333 0  1.883478260869565 0.08333333333333333 0  1.420869565217391 0.1 0  1.437391304347826 0.1 0  1.453913043478261 0.1 0  1.470434782608696 0.1 0  1.486956521739131 0.1 0  1.503478260869565 0.1 0  1.52 0.1 0  1.536521739130435 0.1 0  1.55304347826087 0.1 0  1.569565217391304 0.1 0  1.586086956521739 0.1 0  1.602608695652174 0.1 0  1.619130434782609 0.1 0  1.635652173913043 0.1 0  1.652173913043478 0.1 0  1.668695652173913 0.1 0  1.685217391304348 0.1 0  1.701739130434782 0.1 0  1.718260869565217 0.1 0  1.734782608695652 0.1 0  1.751304347826087 0.1 0  1.767826086956522 0.1 0  1.784347826086957 0.1 0  1.800869565217391 0.1 0  1.817391304347826 0.1 0  1.833913043478261 0.1 0  1.850434782608696 0.1 0  1.86695652173913 0.1 0  1.883478260869565 0.1 0  1.437391304347826 0.1166666666666667 0  1.453913043478261 0.1166666666666667 0  1.470434782608696 0.1166666666666667 0  1.486956521739131 0.1166666666666667 0  1.503478260869565 0.1166666666666667 0  1.52 0.1166666666666667 0  1.536521739130435 0.1166666666666667 0  1.55304347826087 0.1166666666666667 0  1.569565217391304 0.1166666666666667 0  1.586086956521739 0.1166666666666667 0  1.602608695652174 0.1166666666666667 0  1.619130434782609 0.1166666666666667 0  1.635652173913043 0.1166666666666667 0  1.652173913043478 0.1166666666666667 0  1.668695652173913 0.1166666666666667 0  1.685217391304348 0.1166666666666667 0  1.701739130434782 0.1166666666666667 0  1.718260869565217 0.1166666666666667 0  1.734782608695652 0.1166666666666667 0  1.751304347826087 0.1166666666666667 0  1.767826086956522 0.1166666666666667 0  1.784347826086957 0.1166666666666667 0  1.800869565217391 0.1166666666666667 0  1.817391304347826 0.1166666666666667 0  1.833913043478261 0.1166666666666667 0  1.850434782608696 0.1166666666666667 0  1.86695652173913 0.1166666666666667 0  1.883478260869565 0.1166666666666667 0  1.453913043478261 0.1333333333333333 0  1.470434782608696 0.1333333333333333 0  1.486956521739131 0.1333333333333333 0  1.503478260869565 0.1333333333333333 0  1.52 0.1333333333333333 0  1.536521739130435 0.1333333333333333 0  1.55304347826087 0.1333333333333333 0  1.569565217391304 0.1333333333333333 0  1.586086956521739 0.1333333333333333 0  1.602608695652174 0.1333333333333333 0  1.619130434782609 0.1333333333333333 0  1.635652173913043 0.1333333333333333 0  1.652173913043478 0.1333333333333333 0  1.668695652173913 0.1333333333333333 0  1.685217391304348 0.1333333333333333 0  1.701739130434782 0.1333333333333333 0  1.718260869565217 0.1333333333333333 0  1.734782608695652 0.1333333333333333 0  1.751304347826087 0.1333333333333333 0  1.767826086956522 0.1333333333333333 0  1.784347826086957 0.1333333333333333 0  1.800869565217391 0.1333333333333333 0  1.817391304347826 0.1333333333333333 0  1.833913043478261 0.1333333333333333 0  1.850434782608696 0.1333333333333333 0  1.86695652173913 0.1333333333333333 0  1.883478260869565 0.1333333333333333 0  1.470434782608696 0.15 0  1.486956521739131 0.15 0  1.503478260869565 0.15 0  1.52 0.15 0  1.5365217391304
[...]
<CellData  Scalars="rho_bar"> 
<DataArray  type="Float64"  Name="rho_bar"  format="ascii">7.2625633249842603e-01   7.2798821440335615e-01   7.1900745012021350e-01   7.3154021264394531e-01   7.2204967039988444e-01   7.3688251348219092e-01   7.2696946023467890e-01   7.4373650210694286e-01   7.3357103118356470e-01   7.5157266168555426e-01   7.4139449742338581e-01   7.5966170372202946e-01   7.4974984972220116e-01   7.6716948600682788e-01   7.5780042734965036e-01   7.7328118938656853e-01   7.6468051602783371e-01   7.7733333271917515e-01   7.6963286257208552e-01   7.7890602909776763e-01   7.7212505647545315e-01   7.7784587542783767e-01   7.7190356678333416e-01   7.7424049235282788e-01   7.6898070662750950e-01   7.6838200608974461e-01   7.6359831898861141e-01   7.6072427047608704e-01   7.5618479492941904e-01   7.5183130628098849e-01   7.4730429737234982e-01   7.4231943355422125e-01   7.3759445246031141e-01   7.3281120291063451e-01   7.2771047012233669e-01   7.2390231110465675e-01   7.1828513588568110e-01   7.1612527665138626e-01   7.0989560874022484e-01   7.0987711151536292e-01   7.0300520710000458e-01   7.0531569733908628e-01   6.9786710845208755e-01   7.0226373573717016e-01   6.9441623945844189e-01   7.0023424730719208e-01   6.9223698252986665e-01   6.9860683938446155e-01   6.9069823234746608e-01   6.9679115576034656e-01   6.8915747173969510e-01   6.9428881007967125e-01   6.8706259443796902e-01   6.9070225866436175e-01   6.8396628700658080e-01   6.8576614818393444e-01   6.7953883666813308e-01   6.7939894937047052e-01   6.7362075294950885e-01   6.7174339584780629e-01   6.6627270207529743e-01   6.6317866723909291e-01   6.5780230105485848e-01   6.5424835971137274e-01   6.4872623215943959e-01   6.4552850421370522e-01   6.3964619928379873e-01   6.8639613974141966e-01   6.9062477608382333e-01   6.6339910121024437e-01   6.9689694491054743e-01   6.6950413454989932e-01   7.0489584026891916e-01   6.7761064464487664e-01   7.1401815970098459e-01   6.8717453454223021e-01   7.2342444103400549e-01   6.9737182651243301e-01   7.3213845951475631e-01   7.0718206959828511e-01   7.3919120761891788e-01   7.1552607501277454e-01   7.4377717329732929e-01   7.2143568035446426e-01   7.4538174617603081e-01   7.2421609145055199e-01   7.4382263879211841e-01   7.2353684881199520e-01   7.3922676066894200e-01   7.1943224816844120e-01   7.3198520087845520e-01   7.1225733236601207e-01   7.2270018875291309e-01   7.0263276992276114e-01   7.1210708821778501e-01   6.9136380590118551e-01   7.0098636320839414e-01   6.7933369244367969e-01   6.9009558260965365e-01   6.6740607098995086e-01   6.8013595920794634e-01   6.5637322756778094e-01   6.7171140066084856e-01   6.4692291497773524e-01   6.6525213360097490e-01   6.3957734436762259e-01   6.6090692397817452e-01   6.3459201891843120e-01   6.5843220371286237e-01   6.3183850846827971e-01   6.5719937804476081e-01   6.3074477293848974e-01   6.5643222045770466e-01   6.3046348534272267e-01   6.5542068829549471e-01   6.3016174625717059e-01   6.5357993950741711e-01   6.2915022957555933e-01   6.5043042459687539e-01   6.2686656779574945e-01   6.4563414869170777e-01   6.2287308305906475e-01   6.3907064339102881e-01   6.1693576230411418e-01   6.3088997573103678e-01   6.0910270371915420e-01   6.2152616955129913e-01   5.9973403564893857e-01   6.1161701530040402e-01   5.8945825263835139e-01   6.0183476565306393e-01   5.7901143528534238e-01   5.9769606271109021e-01   6.0587463404674047e-01   5.6107047203499860e-01   6.1618388157312121e-01   5.7157506420215731e-01   6.2789361143533973e-01   5.8387754886340515e-01   6.3996219361763673e-01   5.9697529934006777e-01   6.5112970266854098e-01   6.0957402967829732e-01   6.6009364043196528e-01   6.2023451750135450e-01   6.6572682955585138e-01   6.2760393944328974e-01   6.6728811147701483e-01   6.3067042792380623e-01   6.6452482689135095e-01   6.2895261748079989e-01   6.5765948504030813e-01   6.2253904065143073e-01   6.4733229041881790e-01   6.1203692752337313e-01   6.3451416232907909e-01   5.9847984991063286e-01   6.2035855068791235e-01   5.8317248318311521e-01   6.0602113755144360e-01   5.6746789497526473e-01   5.9253323727881246e-01   5.5257621356650011e-01   5.8076316344539758e-01   5.3948414669336975e-01   5.7139991064371154e-01   5.2895663146389871e-01   5.6488882417383435e-01   5.2151280356356988e-01   5.6133457712943913e-01   5.1735227543435292e-01   5.6038507207361854e-01   5.1625315438737474e-01   5.6119845109143829e-01   5.1748670987013889e-01   5.6270250000745736e-01   5.1993782498031149e-01   5.6391361154896347e-01   5.2246136363081208e-01   5.6402619118686692e-01   5.2408463083347423e-01   5.6237508733393504e-01   5.2400615190489186e-01   5.5846446491631452e-01   5.2158640688235003e-01   5.5209127505446942e-01   5.1646085136220710e-01   5.4342470685368449e-01   5.0866169976706643e-01   5.3300375137837352e-01   4.9863892307970797e-01   5.2163195095298354e-01   4.8717939668583288e-01   5.1016553137027809e-01   4.7521359402718122e-01   4.7475583291523044e-01   4.8746551207658190e-01   4.3630060154546546e-01   5.0180582710769628e-01   4.5076231029270308e-01   5.1657279192029315e-01   4.6610169784848932e-01   5.3022547930233366e-01   4.8083557231209889e-01   5.4107188514878968e-01   4.9320915438572577e-01   5.4756075632429013e-01   5.0147154996254972e-01   5.4862336860007610e-01   5.0424212659900369e-01   5.4391446779026975e-01   5.0086155252965514e-01   5.3384630690043178e-01   4.9154017512154569e-01   5.1949244797598870e-01   4.7729101876337560e-01   5.0241213022147868e-01   4.5973959934541941e-01   4.8435759835544245e-01   4.4081343682686497e-01   4.6694244711911964e-01   4.2234966350476066e-01   4.5143340538639881e-01   4.0579715970920976e-01   4.3873418943971088e-01   3.9214600700670660e-01   4.2944832057192811e-01   3.8201698743796642e-01   4.2389867780312490e-01   3.7574729619338820e-01   4.2208208517902268e-01   3.7339432546963841e-01   4.2358254026032610e-01   3.7467934921844620e-01   4.2749811265909576e-01   3.7889728705413661e-01   4.3258359907566218e-01   3.8491632331860454e-01   4.3754843335830890e-01   3.9139815051184523e-01   4.4123515103385680e-01   3.9703449520380080e-01   4.4265596384657890e-01   4.0065161793366499e-01   4.4107232090819820e-01   4.0129941408008918e-01   4.3615910387840195e-01   3.9842036865667574e-01   4.2811185345539920e-01   3.9201063748416110e-01   4.1759968148153953e-01   3.8261799352876968e-01   4.0559565697975658e-01   3.7118309120980364e-01   3.9314093672032224e-01   3.5880258683467808e-01   3.5727363694936243e-01   3.7274412456630546e-01   3.3082590955215979e-01   3.8856615860229027e-01   3.4668529677988436e-01   4.0307450455209187e-01   3.6175749215997460e-01   4.1434522206224583e-01   3.7414905560348077e-01   4.2054097493660442e-01   3.8190846281831925e-01   4.2035572839181112e-01   3.8346675067051905e-01   4.1341599707948973e-01   3.7810889861625718e-01   4.0041401563190360e-01   3.6625052956272802e-01   3.8294517335712797e-01   3.4936009799641576e-01   3.6315516517606461e-01   3.2960265272488160e-01   3.4325970768966274e-01   3.0933214369236772e-01   3.2508603188818130e-01   2.9056866939965253e-01   3.0985240727290297e-01   2.7468629740644052e-01   2.9823915836897980e-01   2.6242537052487658e-01   2.9057386246314559e-01   2.5410537721467191e-01   2.8695786347029861e-01   2.4981574613916882e-01   2.8729211396810378e-01   2.4949501968666365e-01   2.9121738136921971e-01   2.5290520808055539e-01   2.9801295238301939e-01   2.5953396747623086e-01   3.0657013622719631e-01   2.6848934829302706e-01   3.1550390531463413e-01   2.7850649226579016e-01   3.2333913752929172e-01   2.8808214152952527e-01   3.2869197508354436e-01   2.9567812485917483e-01   3.3048010405134226e-01   2.9995830870207391e-01   3.2817948135117903e-01   3.0007937661832784e-01   3.2195797073100463e-01   2.9591719750154394e-01   3.1258699880220070e-01   2.8806125554976875e-01   3.0118160677787381e-01   2.7757935980036130e-01   2.8892575796391984e-01   2.6570718717848663e-01   2.7813104758547336e-01   2.9375306649305216e-01   2.6663946286561441e-01   3.0775501068865063e-01   2.8121904892000377e-01   3.1811728161579544e-01   2.9269408351583037e-01   3.2292174168666721e-01   2.9904021135523351e-01   3.2086572963142002e-01   2.9871114529265219e-01   3.1172593596992970e-01   2.9115216522705983e-01   2.9653857630700126e-01   2.7709961327986654e-01   2.7735585512337757e-01   2.5845253932974621e-01   2.5669607187844573e-01   2.3774785137919341e-01   2.3691822644771726e-01   2.1749169899192416e-01   2.1974879202681985e-01   1.9961213099072889e-01   2.0613886554628055e-01   1.8522578898769207e-01   1.9644778307279856e-01   1.7475939872117824e-01   1.9072984488150152e-01   1.6825790680695007e-01   1.8892570099262967e-01   1.6563834825769588e-01   1.9092403472127389e-01   1.6680046365562681e-01   1.9651006448941061e-01   1.7161292281395618e-01   2.0523225215353269e-01   1.7979695382952721e-01   2.1625679678947465e-01   1.9075291060613114e-01   2.2829125301634218e-01   2.0340869015730167e-01   2.3968588469540880e-01   2.1620778814095826e-01   2.4870247463546247e-01   2.2732189103048905e-01   2.5386614706873328e-01   2.3501633760108731e-01   2.5434744907674595e-01   2.3807455667839331e-01   2.5018055570946257e-01   2.3614154777715690e-01   2.4217095451067494e-01   2.2976236828120214e-01   2.3156914337117868e-01   2.2011210197190836e-01   2.1971732670808847e-01   2.0859915148039310e-01   2.4065187264974580e-01   2.5406548560234743e-01   2.4018794024721563e-01   2.6319643145331795e-01   2.5069634710268801e-01   2.6610795327637682e-01   2.5527334974982990e-01   2.6166004677543186e-01   2.5249357978150150e-01   2.4997634071504918e-01   2.4214555830496870e-01   2.3254862536250481e-01   2.2545342050703937e-01   2.1185015096073734e-01   2.0479773425100467e-01   1.9061794750836467e-01   1.8301183138910201e-01   1.7116406769669476e-01   1.6261519139579381e-01   1.5498281595909555e-01   1.4532861369113323e-01   1.4272936282337073e-01   1.3197823221709887e-01   1.3449161951772995e-01   1.2271876598440168e-01   1.3013281998450468e-01   1.1739455964957186e-01   1.2951141036542613e-01   1.1582062405780676e-01   1.3255381203325850e-01   1.1790305324551595e-01   1.3920310421843979e-01   1.2362809048274276e-01   1.4925933250036283e-01   1.3293336768565819e-01   1.6215757485699075e-01   1.4548517832744540e-01   1.7675878928288505e-01   1.6042460827586263e-01   1.9131923036999135e-01   1.7620872803617041e-01   2.0376322387001494e-01   1.9074655931055720e-01   2.1217236049880514e-01   2.0185438719688678e-01   2.1531999441273605e-01   2.0785206066349399e-01   2.1300326528230099e-01   2.0805003244392792e-01   2.0599619482348622e-01   2.0286907650040567e-01   1.9569136507913504e-01   1.9356899858982168e-01   1.8365995372139499e-01   1.8178673593084055e-01   2.3387067470286127e-01   2.4165089653648300e-01   2.3860592464115898e-01   2.4215754002326226e-01   2.4088972465793762e-01   2.3452652025086163e-01   2.3480485026955442e-01   2.1940184704043530e-01   2.2064599253061340e-01   1.9889557986168840e-01   2.0030523903459624e-01   1.7597028422882047e-01   1.7676325976028626e-01   1.5354560088728514e-01   1.5316071540682466e-01   1.3380978676403052e-01   1.3197181309400041e-01   1.1797213547571292e-01   1.1464667597813227e-01   1.0639714924842160e-01   1.0169844885382492e-01   9.8949137949157648e-02   9.3034056477422800e-02   9.5354458158198027e-02   8.8339628879813878e-02   9.5427052270126753e-02   8.7361913754293141e-02   9.9142785108710066e-02   9.0027100838512453e-02   1.0659021595813618e-01   9.6431746501925125e-02   1.1779785179505911e-01   1.0671250458859433e-01   1.3245720694462540e-01   1.2079095734096776e-01   1.4960883279732973e-01   1.3803547275222550e-01   1.6746700079234919e-01   1.5696780561677964e-01   1.8360590039881833e-01   1.7525855516041622e-01   1.9556801375906235e-01   1.9020519328425103e-01   2.0161684010165071e-01   1.9954457600375802e-01   2.0121504935693846e-01   2.0214464050159306e-01   1.9503866151572966e-01   1.9821811599134692e-01   1.8460839258724790e-01   1.8906524996626292e-01   1.7177856732312025e-01   1.7656480306977412e-01   2.4291279608791549e-01   2.4010044949980350e-01   2.4518334314237414e-01   2.2822018925268051e-01   2.3470865123833659e-01   2.0857469933640779e-01   2.1570870665215097e-01   1.8401399924962356e-01   1.9082152988880016e-01   1.5805719872641413e-01   1.6367253982118182e-01   1.3379464816537953e-01   1.3770109253885124e-01   1.1323222054841744e-01   1.1528005415035576e-01   9.7240440819471335e-02   9.7528621165677162e-02   8.5872271399667563e-02   8.4612243481515109e-02   7.8782843853953510e-02   7.6190721580818618e-02   7.5585296227733190e-02   7.1811594134565004e-02   7.6063084770570610e-02   7.1168031838931112e-02   8.0239645466820553e-02   7.4207100200959650e-02   8.8332132931594282e-02   8.1120587840432190e-02   1.0057962416321792e-01   9.2220573836650860e-02   1.1693454672724407e-01   1.0767482478291759e-01   1.3665230804287148e-01   1.2710318971091381e-01   1.5797208934587503e-01   1.4915644635978034e-01   1.7816519449225876e-01   1.7135829672685624e-01   1.9418587976386578e-01   1.9051929733226614e-01   2.0368547349473770e-01   2.0373664229299451e-01   2.0568690847777213e-01   2.0934387346873004e-01   2.0067194388973039e-01   2.0723764111001677e-01   1.9021894414288007e-01   1.9865101508938754e-01   1.7644089318734882e-01   1.8562394092330065e-01   2.4887402750904364e-01   2.3193138706205030e-01   2.4094172928337870e-01   2.0730569591672790e-01   2.1691424199313911e-01   1.7846960769209530e-01   1.8767409536662621e-01   1.4938000794373271e-01   1.5724772589837829e-01   1.2322004290820023e-01   1.2920988773125450e-01   1.0175934438328767e-01   1.0576012301342000e-01   8.5501594422953103e-02   8.7669744928175544e-02   7.4185184388218819e-02   7.4770356268439780e-02   6.7273272827491765e-02   6.6502477392551801e-02   6.4287641754083330e-02   6.2306898646772101e-02   6.4987799538799101e-02   6.1839474926934285e-02   6.9432439023433296e-02   6.5059906598866374e-02   7.7935800201548874e-02   7.2223061502734054e-02   9.0901902077453869e-02   8.3760493458796811e-02   1.0851555887575574e-01   1.0002572987411162e-01   1.3027678716227781e-01   1.2087866911591008e-01   1.5455356256458469e-01   1.4517883518522984e-01   1.7849635669407682e-01   1.7050222124847142e-01   1.9862872806668297e-01   1.9344092950647687e-01   2.1202059666055992e-01   2.1062107651888398e-01   2.1718870842700561e-01   2.1985314026471381e-01   2.1427710606315267e-01   2.2060037750876016e-01   2.0474335238705049e-01   2.1382317623733407e-01   1.9079485672575097e-01   2.0149484445482516e-01   2.3448820205063339e-01   2.0581318856476144e-01   2.1429020958751593e-01   1.7404980346391302e-01   1.8251469955465174e-01   1.4313835880811979e-01   1.5071777750293266e-01   1.1609093436709610e-01   1.2218288149505527e-01   9.4393333712340308e-02   9.8791603015990131e-02   7.8240940164083062e-02   8.1019935365111290e-02   6.7141078441177546e-02   6.8483183715550164e-02   6.0432967597315868e-02   6.0506980616544338e-02   5.7593943929540134e-02   5.6495817463137386e-02   5.8374034416472272e-02   5.6102298773643651e-02   6.2841859278382872e-02   5.9286366823173745e-02   7.1349947152783866e-02   6.6310388722847100e-02   8.4379199532226015e-02   7.7635530876030576e-02   1.0225251816605170e-01   9.3689331728621802e-02   1.2469320217913195e-01   1.1449757150325934e-01   1.5032942794716103e-01   1.3919708443804399e-01   1.7650110677508379e-01   1.6568200272034592e-01   1.9972167312926509e-01   1.9077329051223457e-01   2.1677592028586812e-01   2.1106628674397110e-01   2.2572460056958246e-01   2.2404570954885342e-01   2.2623074536821877e-01   2.2868647777475995e-01   2.1936197489716117e-01   2.2544305373194770e-01   2.0711230374970752e-01   2.1590070500585873e-01   1.9664373402940738e-01   1.6456899155704402e-01   1.7026316107996006e-01   1.3433141421632003e-01   1.3980898709879341e-01   1.0835505334525135e-01   1.1304856796098159e-01   8.7738892911691554e-02   9.1335775838085470e-02   7.2480828914977133e-02   7.4902929503940938e-02   6.2019469124269068e-02   6.3307660285068124e-02   5.5698732615520351e-02   5.5910689463253040e-02   5.3025520173243287e-02   5.2175224636890630e-02   5.3769961078799208e-02   5.1796870365017122e-02   5.7987534949775647e-02   5.4735820893162444e-02   6.5995268536048313e-02   6.1208958814517690e-02   7.8246824153730674e-02   7.1616974724882376e-02   9.5090388029898346e-02   8.6358427879992886e-02   1.1640939032482144e-01   1.0553960214928075e-01   1.4118876728365609e-01   1.2858909353705480e-01   1.6727219805145865e-01   1.5392279133865697e-01   1.9164167029624476e-01   1.7897875621030213e-01   2.1125522966673127e-01   2.0079204079421339e-01   2.2394260134936000e-01   2.1686519107290664e-01   2.2884418751491761e-01   2.2577803209018410e-01   2.2641516853155802e-01   2.2736152904711301e-01   2.1811931207919949e-01   2.2256042169519596e-01   1.4831869398754677e-01   1.2110796790561779e-01   1.2406392771196746e-01   9.8092588928163554e-02   1.0083443223221282e-01   7.9892192127352379e-02   8.2104466447445651e-02   6.6377364765015795e-02   6.7886563347166848e-02   5.7047264339721425e-02   5.7775157118402212e-02   5.1362377343873160e-02   5.1260504050831789e-02   4.8927155176539609e-02   4.7929827290567759e-02   4.9559848275915752e-02   4.7552284475992253e-02   5.3301348012162166e-02   5.0099225188594533e-02   6.0392532721033759e-02   5.5730158521514521e-02   7.1192477135891677e-02   6.4746312038400228e-02   8.6005266363686786e-02   7.7468627729974857e-02   1.0482104836652392e-01   9.4035921814029144e-02   1.2699174646963127e-01   1.1413353898731114e-01   1.5100349315981687e-01   1.3672734539457207e-01   1.7458988119724322e-01   1.6001592989116784e-01   1.9524392331694260e-01   1.8173749245512855e-01   2.1086984221660657e-01   1.9972384982134658e-01   2.2022856273576141e-01   2.1239851517211825e-01   2.2311957984292935e-01   2.1905354753981596e-01   2.2030352429974928e-01   2.1992509508048796e-01   1.0474222010035728e-01   8.5630642462681053e-02   8.6711390872497893e-02   7.0548960908042593e-02   7.1454680081686289e-02   5.9274540489633439e-02   5.9822552214379536e-02   5.1408253210681258e-02   5.1468367169826189e-02   4.6558409416742587e-02   4.6023734204346696e-02   4.4446985146907307e-02   4.3204488193523793e-02   4.4949626731078642e-02   4.2856071770866373e-02   4.8100386982475693e-02   4.4965183618503803e-02   5.4073262701412009e-02   4.9650003269417840e-02   6.3131548659871778e-02   5.7129340488516957e-02   7.5523081825205243e-02   6.7652690889500849e-02   9.1313076133381160e-02   8.1376108876078865e-02   1.1016293524150805e-01   9.8185636516625374e-02   1.3114579646922545e-01   1.1750530840536247e-01   1.5275391221787427e-01   1.3821390545013409e-01   1.7314992240457872e-01   1.5876690278524058e-01   1.9055296272747999e-01   1.7748328590788129e-01   2.0359416533352057e-01   1.9287479379365230e-01   2.1157479117086070e-01   2.0392306580633981e-01   2.1457087628338542e-01   2.1027357085191983e-01   7.2531154118204252e-02   6.0562742225512951e-02   6.0626924548485922e-02   5.1565720922915649e-02   5.1459049678565537e-02   4.5229152369338270e-02   4.4823129148066111e-02   4.1285388801912376e-02   4.0461316907349033e-02   3.9553683066715417e-02   3.8188518152377948e-02   3.9958762602070090e-02   3.7910249406853724e-02   4.2533034674104762e-02   3.9627480694412277e-02   4.7406478256198856e-02   4.3432258053049726e-02   5.4778204304563941e-02   4.9491382490508253e-02   6.4857748007383059e-02   5.8008658141068668e-02   7.7765627112866290e-02   6.9154493204755557e-02   9.3392096837871003e-02   8.2957534762668955e-02   1.1126132139882909e-01   9.9175554662964155e-02   1.3048406605526705e-01   1.1720804059273113e-01   1.4984020273578141e-01   1.3610633928179425e-01   1.6796318304011312e-01   1.5468271093846153e-01   1.8356988716170233e-01   1.7168728987758008e-01   1.9569995133231044e-01   1.8601995795303333e-01   2.0390904500836127e-01   1.9694905110356031e-01   2.0423784806761824e-01   5.11281503