<?xml version="1.0"?>
<VTKFile type="UnstructuredGrid"  version="0.1"  >
<UnstructuredGrid>
<Piece  NumberOfPoints="639" NumberOfCells="1175">
<Points>
<DataArray  type="Float64"  NumberOfComponents="3"  format="ascii">1.321739130434783 0 0  1.338260869565217 0 0  1.338260869565217 0.01666666666666667 0  1.354782608695652 0 0  1.354782608695652 0.01666666666666667 0  1.371304347826087 0 0  1.371304347826087 0.01666666666666667 0  1.387826086956522 0 0  1.387826086956522 0.01666666666666667 0  1.404347826086957 0 0  1.404347826086957 0.01666666666666667 0  1.420869565217391 0 0  1.420869565217391 0.01666666666666667 0  1.437391304347826 0 0  1.437391304347826 0.01666666666666667 0  1.453913043478261 0 0  1.453913043478261 0.01666666666666667 0  1.470434782608696 0 0  1.470434782608696 0.01666666666666667 0  1.486956521739131 0 0  1.486956521739131 0.01666666666666667 0  1.503478260869565 0 0  1.503478260869565 0.01666666666666667 0  1.52 0 0  1.52 0.01666666666666667 0  1.536521739130435 0 0  1.536521739130435 0.01666666666666667 0  1.55304347826087 0 0  1.55304347826087 0.01666666666666667 0  1.569565217391304 0 0  1.569565217391304 0.01666666666666667 0  1.586086956521739 0 0  1.586086956521739 0.01666666666666667 0  1.602608695652174 0 0  1.602608695652174 0.01666666666666667 0  1.619130434782609 0 0  1.619130434782609 0.01666666666666667 0  1.635652173913043 0 0  1.635652173913043 0.01666666666666667 0  1.652173913043478 0 0  1.652173913043478 0.01666666666666667 0  1.668695652173913 0 0  1.668695652173913 0.01666666666666667 0  1.685217391304348 0 0  1.685217391304348 0.01666666666666667 0  1.701739130434782 0 0  1.701739130434782 0.01666666666666667 0  1.718260869565217 0 0  1.718260869565217 0.01666666666666667 0  1.734782608695652 0 0  1.734782608695652 0.01666666666666667 0  1.751304347826087 0 0  1.751304347826087 0.01666666666666667 0  1.767826086956522 0 0  1.767826086956522 0.01666666666666667 0  1.784347826086957 0 0  1.784347826086957 0.01666666666666667 0  1.800869565217391 0 0  1.800869565217391 0.01666666666666667 0  1.817391304347826 0 0  1.817391304347826 0.01666666666666667 0  1.833913043478261 0 0  1.833913043478261 0.01666666666666667 0  1.850434782608696 0 0  1.850434782608696 0.01666666666666667 0  1.86695652173913 0 0  1.86695652173913 0.01666666666666667 0  1.883478260869565 0 0  1.883478260869565 0.01666666666666667 0  1.354782608695652 0.03333333333333333 0  1.371304347826087 0.03333333333333333 0  1.387826086956522 0.03333333333333333 0  1.404347826086957 0.03333333333333333 0  1.420869565217391 0.03333333333333333 0  1.437391304347826 0.03333333333333333 0  1.453913043478261 0.03333333333333333 0  1.470434782608696 0.03333333333333333 0  1.486956521739131 0.03333333333333333 0  1.503478260869565 0.03333333333333333 0  1.52 0.03333333333333333 0  1.536521739130435 0.03333333333333333 0  1.55304347826087 0.03333333333333333 0  1.569565217391304 0.03333333333333333 0  1.586086956521739 0.03333333333333333 0  1.602608695652174 0.03333333333333333 0  1.619130434782609 0.03333333333333333 0  1.635652173913043 0.03333333333333333 0  1.652173913043478 0.03333333333333333 0  1.668695652173913 0.03333333333333333 0  1.685217391304348 0.03333333333333333 0  1.701739130434782 0.03333333333333333 0  1.718260869565217 0.03333333333333333 0  1.734782608695652 0.03333333333333333 0  1.751304347826087 0.03333333333333333 0  1.767826086956522 0.03333333333333333 0  1.784347826086957 0.03333333333333333 0  1.800869565217391 0.03333333333333333 0  1.817391304347826 0.03333333333333333 0  1.833913043478261 0.03333333333333333 0  1.850434782608696 0.03333333333333333 0  1.86695652173913 0.03333333333333333 0  1.883478260869565 0.03333333333333333 0  1.371304347826087 0.05 0  1.387826086956522 0.05 0  1.404347826086957 0.05 0  1.420869565217391 0.05 0  1.437391304347826 0.05 0  1.453913043478261 0.05 0  1.470434782608696 0.05 0  1.486956521739131 0.05 0  1.503478260869565 0.05 0  1.52 0.05 0  1.536521739130435 0.05 0  1.55304347826087 0.05 0  1.569565217391304 0.05 0  1.586086956521739 0.05 0  1.602608695652174 0.05 0  1.619130434782609 0.05 0  1.635652173913043 0.05 0  1.652173913043478 0.05 0  1.668695652173913 0.05 0  1.685217391304348 0.05 0  1.701739130434782 0.05 0  1.718260869565217 0.05 0  1.734782608695652 0.05 0  1.751304347826087 0.05 0  1.767826086956522 0.05 0  1.784347826086957 0.05 0  1.800869565217391 0.05 0  1.817391304347826 0.05 0  1.833913043478261 0.05 0  1.850434782608696 0.05 0  1.86695652173913 0.05 0  1.883478260869565 0.05 0  1.387826086956522 0.06666666666666667 0  1.404347826086957 0.06666666666666667 0  1.420869565217391 0.06666666666666667 0  1.437391304347826 0.06666666666666667 0  1.453913043478261 0.06666666666666667 0  1.470434782608696 0.06666666666666667 0  1.486956521739131 0.06666666666666667 0  1.503478260869565 0.06666666666666667 0  1.52 0.06666666666666667 0  1.536521739130435 0.06666666666666667 0  1.55304347826087 0.06666666666666667 0  1.569565217391304 0.06666666666666667 0  1.586086956521739 0.06666666666666667 0  1.602608695652174 0.06666666666666667 0  1.619130434782609 0.06666666666666667 0  1.635652173913043 0.06666666666666667 0  1.652173913043478 0.06666666666666667 0  1.668695652173913 0.06666666666666667 0  1.685217391304348 0.06666666666666667 0  1.701739130434782 0.06666666666666667 0  1.718260869565217 0.06666666666666667 0  1.734782608695652 0.06666666666666667 0  1.751304347826087 0.06666666666666667 0  1.767826086956522 0.06666666666666667 0  1.784347826086957 0.06666666666666667 0  1.800869565217391 0.06666666666666667 0  1.817391304347826 0.06666666666666667 0  1.833913043478261 0.06666666666666667 0  1.850434782608696 0.06666666666666667 0  1.86695652173913 0.06666666666666667 0  1.883478260869565 0.06666666666666667 0  1.404347826086957 0.08333333333333333 0  1.420869565217391 0.08333333333333333 0  1.437391304347826 0.08333333333333333 0  1.453913043478261 0.08333333333333333 0  1.470434782608696 0.08333333333333333 0  1.486956521739131 0.08333333333333333 0  1.503478260869565 0.08333333333333333 0  1.52 0.08333333333333333 0  1.536521739130435 0.08333333333333333 0  1.55304347826087 0.08333333333333333 0  1.569565217391304 0.08333333333333333 0  1.586086956521739 0.08333333333333333 0  1.602608695652174 0.08333333333333333 0  1.619130434782609 0.08333333333333333 0  1.635652173913043 0.08333333333333333 0  1.652173913043478 0.08333333333333333 0  1.668695652173913 0.08333333333333333 0  1.685217391304348 0.08333333333333333 0  1.701739130434782 0.08333333333333333 0  1.718260869565217 0.08333333333333333 0  1.734782608695652 0.08333333333333333 0  1.751304347826087 0.08333333333333333 0  1.767826086956522 0.08333333333333333 0  1.784347826086957 0.08333333333333333 0  1.800869565217391 0.08333333333333333 0  1.817391304347826 0.08333333333333333 0  1.833913043478261 0.08333333333333333 0  1.850434782608696 0.08333333333333333 0  1.86695652173913 0.08333333333333333 0  1.883478260869565 0.08333333333333333 0  1.420869565217391 0.1 0  1.437391304347826 0.1 0  1.453913043478261 0.1 0  1.470434782608696 0.1 0  1.486956521739131 0.1 0  1.503478260869565 0.1 0  1.52 0.1 0  1.536521739130435 0.1 0  1.55304347826087 0.1 0  1.569565217391304 0.1 0  1.586086956521739 0.1 0  1.602608695652174 0.1 0  1.619130434782609 0.1 0  1.635652173913043 0.1 0  1.652173913043478 0.1 0  1.668695652173913 0.1 0  1.685217391304348 0.1 0  1.701739130434782 0.1 0  1.718260869565217 0.1 0  1.734782608695652 0.1 0  1.751304347826087 0.1 0  1.767826086956522 0.1 0  1.784347826086957 0.1 0  1.800869565217391 0.1 0  1.817391304347826 0.1 0  1.833913043478261 0.1 0  1.850434782608696 0.1 0  1.86695652173913 0.1 0  1.883478260869565 0.1 0  1.437391304347826 0.1166666666666667 0  1.453913043478261 0.1166666666666667 0  1.470434782608696 0.1166666666666667 0  1.486956521739131 0.1166666666666667 0  1.503478260869565 0.1166666666666667 0  1.52 0.1166666666666667 0  1.536521739130435 0.1166666666666667 0  1.55304347826087 0.1166666666666667 0  1.569565217391304 0.1166666666666667 0  1.586086956521739 0.1166666666666667 0  1.602608695652174 0.1166666666666667 0  1.619130434782609 0.1166666666666667 0  1.635652173913043 0.1166666666666667 0  1.652173913043478 0.1166666666666667 0  1.668695652173913 0.1166666666666667 0  1.685217391304348 0.1166666666666667 0  1.701739130434782 0.1166666666666667 0  1.718260869565217 0.1166666666666667 0  1.734782608695652 0.1166666666666667 0  1.751304347826087 0.1166666666666667 0  1.767826086956522 0.1166666666666667 0  1.784347826086957 0.1166666666666667 0  1.800869565217391 0.1166666666666667 0  1.817391304347826 0.1166666666666667 0  1.833913043478261 0.1166666666666667 0  1.850434782608696 0.1166666666666667 0  1.86695652173913 0.1166666666666667 0  1.883478260869565 0.1166666666666667 0  1.453913043478261 0.1333333333333333 0  1.470434782608696 0.1333333333333333 0  1.486956521739131 0.1333333333333333 0  1.503478260869565 0.1333333333333333 0  1.52 0.1333333333333333 0  1.536521739130435 0.1333333333333333 0  1.55304347826087 0.1333333333333333 0  1.569565217391304 0.1333333333333333 0  1.586086956521739 0.1333333333333333 0  1.602608695652174 0.1333333333333333 0  1.619130434782609 0.1333333333333333 0  1.635652173913043 0.1333333333333333 0  1.652173913043478 0.1333333333333333 0  1.668695652173913 0.1333333333333333 0  1.685217391304348 0.1333333333333333 0  1.701739130434782 0.1333333333333333 0  1.718260869565217 0.1333333333333333 0  1.734782608695652 0.1333333333333333 0  1.751304347826087 0.1333333333333333 0  1.767826086956522 0.1333333333333333 0  1.784347826086957 0.1333333333333333 0  1.800869565217391 0.1333333333333333 0  1.817391304347826 0.1333333333333333 0  1.833913043478261 0.1333333333333333 0  1.850434782608696 0.1333333333333333 0  1.86695652173913 0.1333333333333333 0  1.883478260869565 0.1333333333333333 0  1.470434782608696 0.15 0  1.486956521739131 0.15 0  1.503478260869565 0.15 0  1.52 0.15 0  1.5365217391304
[...]
<CellData  Scalars="rho_bar"> 
<DataArray  type="Float64"  Name="rho_bar"  format="ascii">8.1101460873495923e-01   8.1085192070639500e-01   8.0162793838286861e-01   8.1205254166460394e-01   8.0236118829253678e-01   8.1513978945891863e-01   8.0491528325721606e-01   8.2042953827973819e-01   8.0971812871468496e-01   8.2792342455615497e-01   8.1689847639357394e-01   8.3716640338810755e-01   8.2616374002291126e-01   8.4716390048084778e-01   8.3665831933869428e-01   8.5660465060316793e-01   8.4705626603570816e-01   8.6423985931793978e-01   8.5595157017308310e-01   8.6915251284791717e-01   8.6221830934021404e-01   8.7084149568245695e-01   8.6516968951624085e-01   8.6919276964646830e-01   8.6455388318359672e-01   8.6441587448029433e-01   8.6049187587805731e-01   8.5698715751608656e-01   8.5341051438545379e-01   8.4760825517440230e-01   8.4399220077690984e-01   8.3716694782729195e-01   8.3313028087352725e-01   8.2669146328064080e-01   8.2188225635373946e-01   8.1726360133822096e-01   8.1139866665110338e-01   8.0982684842287267e-01   8.0276827648236437e-01   8.0490846691485340e-01   7.9674256639351249e-01   8.0243303352362294e-01   7.9347739288891561e-01   8.0171052885896577e-01   7.9245631536312422e-01   8.0159081794285658e-01   7.9259880838882646e-01   8.0075855185762890e-01   7.9252501924450658e-01   7.9796047340565834e-01   7.9085608912587935e-01   7.9213309102356566e-01   7.8637102687378124e-01   7.8264039154020060e-01   7.7818359153434558e-01   7.6960067179193259e-01   7.6607237836497188e-01   7.5404285709091878e-01   7.5075274358444744e-01   7.3772795490197351e-01   7.3382788513322561e-01   7.2265746682604648e-01   7.1737626320626346e-01   7.1044524952743215e-01   7.0330931103008365e-01   7.0187946717925154e-01   6.9280211710032225e-01   7.6182401692691126e-01   7.6355350894596896e-01   7.3058576326599811e-01   7.6773751077377195e-01   7.3446577772638033e-01   7.7478736858978225e-01   7.4150904744038448e-01   7.8474324698558084e-01   7.5192722020836189e-01   7.9708828965393674e-01   7.6540888852416467e-01   8.1051046892973089e-01   7.8080279316141454e-01   8.2317889155728208e-01   7.9612148793065840e-01   8.3333394674772499e-01   8.0917003877663063e-01   8.3969934886178166e-01   8.1818642962038712e-01   8.4159535054096679e-01   8.2210952227978573e-01   8.3890623848237589e-01   8.2058171451589501e-01   8.3198726455636229e-01   8.1386230378243773e-01   8.2157529478838087e-01   8.0271762106400668e-01   8.0870505300773876e-01   7.8831155164132150e-01   7.9463243376056014e-01   7.7209256004896432e-01   7.8076329354201557e-01   7.5568737430815858e-01   7.6856790568137734e-01   7.4081043090323806e-01   7.5934500301112950e-01   7.2908119812308692e-01   7.5381907321583319e-01   7.2162093047677844e-01   7.5189762618877698e-01   7.1866273567141337e-01   7.5269048945349126e-01   7.1948821741821911e-01   7.5467536239176192e-01   7.2257315535638600e-01   7.5608048151645790e-01   7.2591670773987416e-01   7.5519110547528734e-01   7.2746415720967228e-01   7.5050825796162224e-01   7.2533997948266726e-01   7.4102350782499593e-01   7.1807248788871647e-01   7.2668238719246758e-01   7.0506723701113228e-01   7.0864215449428380e-01   6.8706167150919861e-01   6.8903027978939735e-01   6.6607543112443812e-01   6.7031617879573813e-01   6.4480885190525949e-01   6.5455243130468044e-01   6.2580235317974020e-01   6.4281657647276191e-01   6.1070049725824060e-01   6.3995937283393622e-01   6.4707130521233081e-01   5.8459622732023686e-01   6.5841891453953005e-01   5.9624199598526195e-01   6.7413570919244781e-01   6.1279758181041433e-01   6.9366633280190171e-01   6.3400996418428890e-01   7.1520929790880805e-01   6.5850003777300958e-01   7.3579271314598338e-01   6.8331462953565658e-01   7.5229024888354268e-01   7.0467079587503823e-01   7.6232498050129827e-01   7.1923019486647732e-01   7.6457818519193022e-01   7.2482834430470677e-01   7.5884802318171318e-01   7.2068384101013838e-01   7.4594772915614371e-01   7.0741649661323980e-01   7.2749192637614346e-01   6.8684292087878329e-01   7.0561123920991908e-01   6.6159150385953092e-01   6.8264510129384681e-01   6.3460347467629574e-01   6.6093250298422335e-01   6.0872531109186001e-01   6.4269674470437888e-01   5.8651499999724654e-01   6.2984372941186839e-01   5.7015036425983145e-01   6.2342481243543468e-01   5.6107837743434474e-01   6.2329848037823232e-01   5.5955066785383567e-01   6.2826241402556071e-01   5.6463859636210190e-01   6.3617269203668592e-01   5.7440249533629761e-01   6.4430956810641182e-01   5.8602579822769374e-01   6.4981596029956123e-01   5.9623586080273716e-01   6.4998841233975180e-01   6.0168377780577620e-01   6.4280785134453478e-01   5.9947987038726969e-01   6.2774985006071360e-01   5.8812930760052717e-01   6.0624526002826884e-01   5.6835315932108044e-01   5.8123919453912509e-01   5.4295541050746787e-01   5.5614945786960024e-01   5.1572162571392965e-01   5.3383391394615554e-01   4.9013962491346930e-01   5.1589776256272857e-01   4.6850303541357313e-01   4.5917028814390348e-01   4.7595652406636024e-01   4.0430244709945412e-01   4.9832331715054357e-01   4.2614879736957223e-01   5.2585649981304716e-01   4.5353481953262520e-01   5.5666349217878519e-01   4.8527422301553935e-01   5.8687049184024787e-01   5.1818026339189538e-01   6.1146787676587766e-01   5.4714857346903500e-01   6.2596380863617285e-01   5.6666528190788834e-01   6.2751445197697819e-01   5.7252987427227142e-01   6.1559730579993421e-01   5.6303907553119181e-01   5.9217600818640348e-01   5.3966139230722376e-01   5.6108277583257704e-01   5.0663830761002804e-01   5.2685361455883517e-01   4.6948934774380652e-01   4.9360930387813429e-01   4.3327407357730197e-01   4.6451736004352440e-01   4.0161124002126053e-01   4.4185010066851604e-01   3.7671767212789908e-01   4.2719837073492695e-01   3.5990049998653079e-01   4.2137956973959823e-01   3.5188831269930670e-01   4.2420556510928292e-01   3.5273601651326891e-01   4.3466160988198982e-01   3.6184948955304347e-01   4.5084367776745771e-01   3.7804260448667704e-01   4.6973829391130256e-01   3.9908904414344426e-01   4.8723619030916998e-01   4.2131889624707752e-01   4.9852987255595310e-01   4.3963217268373328e-01   4.9946997465933651e-01   4.4860096980428998e-01   4.8843017575454084e-01   4.4477439063181734e-01   4.6708619045100142e-01   4.2842260693526774e-01   4.3949020364977331e-01   4.0317759168503475e-01   4.1025306051217381e-01   3.7405558850280657e-01   3.8307368899292094e-01   3.4548780711714949e-01   3.6003733373794350e-01   3.2030392604875968e-01   3.0121907584927027e-01   3.2599683029715426e-01   2.7322336257820729e-01   3.5607582131716720e-01   3.0129878288759654e-01   3.8988606580639751e-01   3.3373568655470720e-01   4.2360426573566828e-01   3.6763917325403300e-01   4.5127372197861154e-01   3.9765697452776194e-01   4.6639968890820560e-01   4.1693062178934559e-01   4.6429414310103884e-01   4.1947771133059275e-01   4.4429622321156570e-01   4.0299587172579537e-01   4.1058087122461784e-01   3.7070017245730086e-01   3.7035917511546174e-01   3.3017233415379488e-01   3.3064437268911551e-01   2.8953954929666292e-01   2.9610137175163431e-01   2.5427220946957768e-01   2.6889029546774301e-01   2.2665857008887938e-01   2.4963948409279230e-01   2.0700666119055999e-01   2.3839889027331490e-01   1.9494369056921909e-01   2.3511043377141452e-01   1.9012646020124982e-01   2.3967032376829747e-01   1.9243753961920040e-01   2.5196619083511351e-01   2.0196866408745873e-01   2.7167558813147979e-01   2.1897079922100940e-01   2.9747411797734752e-01   2.4325379783443440e-01   3.2581432300356311e-01   2.7286113148154972e-01   3.5023411601052667e-01   3.0252112883212456e-01   3.6338944154254676e-01   3.2413197575735353e-01   3.6124009521403722e-01   3.3092832549945822e-01   3.4502962871033821e-01   3.2161143216095445e-01   3.1968720099027098e-01   3.0016215138952401e-01   2.9093522904243707e-01   2.7268888159824722e-01   2.6322796404797438e-01   2.4454930976834099e-01   2.3903864869478436e-01   2.1909504290901477e-01   2.1813012964649731e-01   2.4714846448232808e-01   2.1525344707452840e-01   2.7964025964157330e-01   2.4656078688620631e-01   3.1186973873518353e-01   2.7900986500167740e-01   3.3753365858261186e-01   3.0697159127798351e-01   3.4911993601706065e-01   3.2284882077139504e-01   3.4102856333305964e-01   3.1981417097558135e-01   3.1345099500528956e-01   2.9600009099548358e-01   2.7358181741050502e-01   2.5725318920751489e-01   2.3154562505364196e-01   2.1431943059967207e-01   1.9480779647664193e-01   1.7621328620373611e-01   1.6634163945597522e-01   1.4676877740592917e-01   1.4611757039725470e-01   1.2597594444530497e-01   1.3306440417924389e-01   1.1244100889086955e-01   1.2619264835659727e-01   1.0483700484174688e-01   1.2498672109321862e-01   1.0238900837058683e-01   1.2947388539329502e-01   1.0495227253245486e-01   1.4024326916244387e-01   1.1301745575815575e-01   1.5835404051705146e-01   1.2773348850991686e-01   1.8469504526762323e-01   1.5063105195350393e-01   2.1810361435562983e-01   1.8230247033609204e-01   2.5252099863906391e-01   2.1936124691225972e-01   2.7755051532222819e-01   2.5228472613969005e-01   2.8524957435391041e-01   2.7002384122983591e-01   2.7524134951873863e-01   2.6815883729713236e-01   2.5295174657978586e-01   2.5037257049750461e-01   2.2527515620307262e-01   2.2392434932433436e-01   1.9765906301547842e-01   1.9545260283647803e-01   1.7315583468778512e-01   1.6918947428002670e-01   1.9856885096598251e-01   2.3103841491174934e-01   2.1430289549686490e-01   2.6236518928322877e-01   2.4698420258277365e-01   2.8548394179720360e-01   2.7331665529783855e-01   2.9210743832231056e-01   2.8480404186062441e-01   2.7663712474170726e-01   2.7443517606975931e-01   2.4121397462818098e-01   2.4191317092306563e-01   1.9648451740354575e-01   1.9651426271263414e-01   1.5458723427573992e-01   1.5175536329943437e-01   1.2194484489969976e-01   1.1629235715842655e-01   9.9131057844921891e-02   9.1595454759717462e-02   8.4267918725448726e-02   7.5610262425410871e-02   7.5359502589412333e-02   6.5922619728375056e-02   7.1067913310992131e-02   6.0851742620679244e-02   7.0793467765166762e-02   5.9543936051251217e-02   7.4631998197672814e-02   6.1872876530377825e-02   8.3424744998869926e-02   6.8437923310584556e-02   9.8880211935117063e-02   8.0714061781831978e-02   1.2340293711519351e-01   1.0116041975786334e-01   1.5852597753658418e-01   1.3250063571475659e-01   2.0058701388205741e-01   1.7443022557051638e-01   2.3761784565021968e-01   2.1830047535141836e-01   2.5651038335966353e-01   2.4890069654261029e-01   2.5336653075121468e-01   2.5654018544977619e-01   2.3342033174906601e-01   2.4301721003428584e-01   2.0499700333108864e-01   2.1649470933648512e-01   1.7518156021967138e-01   1.8543724862188654e-01   1.4823849332120156e-01   1.5577571266733858e-01   2.2613195937419203e-01   2.5759100122963352e-01   2.5383073889408936e-01   2.7735827141694730e-01   2.7729803909831097e-01   2.7676351673085337e-01   2.8150251778836116e-01   2.5132550476878263e-01   2.6051570061640755e-01   2.0634375085504666e-01   2.1703458472018874e-01   1.5616085662511175e-01   1.6430674240927484e-01   1.1391426986564365e-01   1.1765676947155823e-01   8.4106976455851287e-02   8.4151358150153441e-02   6.4980016240937910e-02   6.2714639800235353e-02   5.3341572744211856e-02   4.9743902263333695e-02   4.6742609518751657e-02   4.2285037956045823e-02   4.3765090327422297e-02   3.8570308002269751e-02   4.3821928036665500e-02   3.7770655518394460e-02   4.7019193859620577e-02   3.9770139590948300e-02   5.4214414178198611e-02   4.5143548148041994e-02   6.7282733688919308e-02   5.5369722600475152e-02   8.9373128112049532e-02   7.3206283813327930e-02   1.2410478353978305e-01   1.0263071244953116e-01   1.7129880800174677e-01   1.4637250625758810e-01   2.2038654100115479e-01   1.9920466032080134e-01   2.5386410859005881e-01   2.4467089457911312e-01   2.6178984959813556e-01   2.6683511383875963e-01   2.4679727856766126e-01   2.6247441681229122e-01   2.1780234564392537e-01   2.3849701947604168e-01   1.8393655925832783e-01   2.0468614871413018e-01   1.5173433148296508e-01   1.6944009424290801e-01   2.7965414723715093e-01   2.9174388985148297e-01   2.9815221296464667e-01   2.7930305556969165e-01   2.8957290528582885e-01   2.4089849778518402e-01   2.5448000635470280e-01   1.8592571901327973e-01   1.9981374196644547e-01   1.3146286556956596e-01   1.4187052922460483e-01   8.9754393263172305e-02   9.5423849366288449e-02   6.2553514785560760e-02   6.4576097099026578e-02   4.6154546902907510e-02   4.5984781066390770e-02   3.6634266226823302e-02   3.5215496242912391e-02   3.1429392687698912e-02   2.9218208594316168e-02   2.9175448631101053e-02   2.6317996414039792e-02   2.9329810219149748e-02   2.5762138207849051e-02   3.1981841857352290e-02   2.7441261364583924e-02   3.7900396780239910e-02   3.1850965910859196e-02   4.8839130218269224e-02   4.0300831514421202e-02   6.8032747096692034e-02   5.5381291824438662e-02   1.0013418031505963e-01   8.1363943638878597e-02   1.4812009988373503e-01   1.2290965959863993e-01   2.0564275542150234e-01   1.7920257374966828e-01   2.5491079568620301e-01   2.3705475565027562e-01   2.7986592122870996e-01   2.7725322478175130e-01   2.7711177558451033e-01   2.8963347845482740e-01   2.5294645319375897e-01   2.7608507343714539e-01   2.1699851339163381e-01   2.4471983845772424e-01   1.7841973058438904e-01   2.0527965158899261e-01   3.0549977864266031e-01   2.7699819162269868e-01   2.8628248656045790e-01   2.2569161959885206e-01   2.3745812054301071e-01   1.6457192461456868e-01   1.7637329854364392e-01   1.1039290619068065e-01   1.1924289807500529e-01   7.2014087490091597e-02   7.7074541608423003e-02   4.8292486968356876e-02   5.0505881450667964e-02   3.4489926899249741e-02   3.4983060851478863e-02   2.6663766427423581e-02   2.6153572077962504e-02   2.2458721730037618e-02   2.1295429319691750e-02   2.0674571626224866e-02   1.8974219855131095e-02   2.0840295921036891e-02   1.8554667623988649e-02   2.3021555517346737e-02   1.9937842202633435e-02   2.7852291731830601e-02   2.3518784877887427e-02   3.6803582095814073e-02   3.0355446155934170e-02   5.2702860227976031e-02   4.2579114651975704e-02   8.0119046641591751e-02   6.3939707096431306e-02   1.2376757197137932e-01   9.9499033067155268e-02   1.8229428031924735e-01   1.5188003742927830e-01   2.4244827491963480e-01   2.1404302720866669e-01   2.8605524404288990e-01   2.6906159339125962e-01   3.0293521106548410e-01   3.0198732944354056e-01   2.9330206662189123e-01   3.0774054726005612e-01   2.6346665932800917e-01   2.8908192040992203e-01   2.2273778746227052e-01   2.5334226073686139e-01   2.5293531064655062e-01   1.9492537217580305e-01   2.0098367081576463e-01   1.3599800705601792e-01   1.4284253138134589e-01   8.8572080450643201e-02   9.4078152015229302e-02   5.6720840846876952e-02   6.0103950714252466e-02   3.7500812102887027e-02   3.9155750851722078e-02   2.6398994062212106e-02   2.6932717861753077e-02   2.0110349373208079e-02   1.9938898657871993e-02   1.6733297222176154e-02   1.6069377351424694e-02   1.5307908041842302e-02   1.4218012701256281e-02   1.5455124250492331e-02   1.3890741938679986e-02   1.7218222317990892e-02   1.5004409976069681e-02   2.1080058237417883e-02   1.7849847124866241e-02   2.8161847403783465e-02   2.3208227979821621e-02   4.0631107714128582e-02   3.2646308685832917e-02   6.2167085182645493e-02   4.8963800731748802e-02   9.7484377979693435e-02   7.6349236069692752e-02   1.4875187136230528e-01   1.1871990223911325e-01   2.0967317993382625e-01   1.7485265210793921e-01   2.6565304277217983e-01   2.3457965153868485e-01   3.0295808057012691e-01   2.8350018978054414e-01   3.1512825337441969e-01   3.1125977129057220e-01   3.0231821375551210e-01   3.1399213038123475e-01   2.6995835677490537e-01   2.9344479545657570e-01   1.5085762410123549e-01   1.0273971717319766e-01   1.0506465408754063e-01   6.6740540542518476e-02   6.9178551957527007e-02   4.3124895603259467e-02   4.4867282356128357e-02   2.8776680023531339e-02   2.9741434958750246e-02   2.0334133531849288e-02   2.0696327655748178e-02   1.5461900178215584e-02   1.5386914873055154e-02   1.2811239724602163e-02   1.2391864001253673e-02   1.1687208345248381e-02   1.0943613847393615e-02   1.1809113314199888e-02   1.0689686775356944e-02   1.3203022465001903e-02   1.1566510650406606e-02   1.6208866302471172e-02   1.3773331614278985e-02   2.1604994179725095e-02   1.7840154364486563e-02   3.0872833667023897e-02   2.4806888654104270e-02   4.6549815381065250e-02   3.6515368495571590e-02   7.2235582700093282e-02   5.5834430234429050e-02   1.1114541592009805e-01   8.6165044560541720e-02   1.6257319112003032e-01   1.2926693980721818e-01   2.1903971289083254e-01   1.8194993612659977e-01   2.6885524533974214e-01   2.3534401862097465e-01   3.0176548765644018e-01   2.7869686646573494e-01   3.1184952844474600e-01   3.0346790755186293e-01   2.9863117369436709e-01   3.0544027480492708e-01   7.1920818486598107e-02   4.7705066748816478e-02   4.8402604697967776e-02   3.1747334568096676e-02   3.2448201516021978e-02   2.1753620099094546e-02   2.2214967980406071e-02   1.5652435959819147e-02   1.5841785347977293e-02   1.2017721714234361e-02   1.1959683068405395e-02   9.9961956284137822e-03   9.7089413198108467e-03   9.1306089063436617e-03   8.6037906423160337e-03   9.2301670232463103e-03   8.4125041815497834e-03   1.0310490415050893e-02   9.0914741137817744e-03   1.2596222940201919e-02   1.0770588976153232e-02   1.6588360330600408e-02   1.3788470935557243e-02   2.3209383770657354e-02   1.8785568466468273e-02   3.4017312873741420e-02   2.6863481255902509e-02   5.1329502801711668e-02   3.9758257930425027e-02   7.7817922566045875e-02   5.9785269025806935e-02   1.1512171935155932e-01   8.9159889936726314e-02   1.6167313635192965e-01   1.2848079324208772e-01   2.1152045431779679e-01   1.7493454224034938e-01   2.5580528118720858e-01   2.2195620768901550e-01   2.8572699973525767e-01   2.6097647898835868e-01   2.9571853296186840e-01   2.8434170695273053e-01   3.3286404767377431e-02   2.3039279768924763e-02   2.3259326290986371e-02   1.6349701301834607e-02   1.6544459306131055e-02   1.2083252012143034e-02   1.2170774834364654e-02   9.4469021288058359e-03   9.3993479276628968e-03   7.9434718602799746e-03   7.7455000525952257e-03   7.2934076142527737e-03   6.9209143560256892e-03   7.3763598016114247e-03   6.7827657471833209e-03   8.2028202204949205e-03   7.3042084366236404e-03   9.9157935906538409e-03   8.5680515710666403e-03   1.2823986015556794e-02   1.0784082955157216e-02   1.7472195073853069e-02   1.4333535803347655e-02   2.4750887778966883e-02   1.9845317150500766e-02   3.6005873568405337e-02   2.8297102912108973e-02   5.3011693058234020e-02   4.1081771202606025e-02   7.7626699152304621e-02   5.9910455605644092e-02   1.1092502833045728e-01   8.6401647074393947e-02   1.5180974547353943e-01   1.2111630045672540e-01   1.9593783226598491e-01   1.6220144735028968e-01   2.3619167382563433e-01   2.0467734232707277e-01   2.6519183845449940e-01   2.4150508161545767e-01   1.6844875305285667e-02   1.2409985052009768e-02   1.2505940002749790e-02   9.4619707329230956e-03   9.5192619698992176e-03   7.5772174503769864e-03   7.5588930936478201e-03   6.4774964428570107e-03   6.3588522693259816e-03   5.9993573496256178e-03   5.7536316565580453e-03   6.0708717066099115e-03   5.6587886070533838e-03   6.7002802148419709e-03   6.0595463980919820e-03   7.9776626919798952e-03   7.0089545876807586e-03   1.0090904758177336e-02   8.6365999785025498e-03   1.3358533760321221e-02   1.1169658961673799e-02   1.8282109985844772e-02   1.4969129552569521e-02   2.5614830916901397e-02   2.0583397178881344e-02   3.6425305983776024e-02   2.8816051048798374e-02   5.2117563456068106e-02   4.0792947271546906e-02   7.4291444053687414e-02   5.7986954762830743e-02   1.0412847394750141e-01   8.1993903010570302e-02   1.4113384419466124e-01   1.1368710120464298e-01   1.8200615590063265e-01   1.5188276520382310e-01   2.2101968601344260e-01   1.9260827920708484e-01   2.3015481596627874e-01   9.69649890