<?xml version="1.0"?>
<VTKFile type="UnstructuredGrid"  version="0.1"  >
<UnstructuredGrid>
<Piece  NumberOfPoints="611" NumberOfCells="1123">
<Points>
<DataArray  type="Float64"  NumberOfComponents="3"  format="ascii">1.883478260869565 0.01666666666666667 0  1.9 0.01666666666666667 0  1.9 0.03333333333333333 0  1.883478260869565 0.03333333333333333 0  1.916521739130435 0.03333333333333333 0  1.9 0.05 0  1.883478260869565 0.05 0  1.916521739130435 0.05 0  1.933043478260869 0.05 0  1.9 0.06666666666666667 0  1.883478260869565 0.06666666666666667 0  1.916521739130435 0.06666666666666667 0  1.933043478260869 0.06666666666666667 0  1.949565217391304 0.06666666666666667 0  1.9 0.08333333333333333 0  1.883478260869565 0.08333333333333333 0  1.916521739130435 0.08333333333333333 0  1.933043478260869 0.08333333333333333 0  1.949565217391304 0.08333333333333333 0  1.966086956521739 0.08333333333333333 0  1.9 0.1 0  1.883478260869565 0.1 0  1.916521739130435 0.1 0  1.933043478260869 0.1 0  1.949565217391304 0.1 0  1.966086956521739 0.1 0  1.982608695652174 0.1 0  1.9 0.1166666666666667 0  1.883478260869565 0.1166666666666667 0  1.916521739130435 0.1166666666666667 0  1.933043478260869 0.1166666666666667 0  1.949565217391304 0.1166666666666667 0  1.966086956521739 0.1166666666666667 0  1.982608695652174 0.1166666666666667 0  1.999130434782608 0.1166666666666667 0  1.9 0.1333333333333333 0  1.883478260869565 0.1333333333333333 0  1.916521739130435 0.1333333333333333 0  1.933043478260869 0.1333333333333333 0  1.949565217391304 0.1333333333333333 0  1.966086956521739 0.1333333333333333 0  1.982608695652174 0.1333333333333333 0  1.999130434782608 0.1333333333333333 0  2.015652173913043 0.1166666666666667 0  2.015652173913043 0.1333333333333333 0  2.032173913043478 0.1166666666666667 0  2.032173913043478 0.1333333333333333 0  2.048695652173913 0.1166666666666667 0  2.048695652173913 0.1333333333333333 0  2.065217391304348 0.1166666666666667 0  2.065217391304348 0.1333333333333333 0  2.081739130434782 0.1166666666666667 0  2.081739130434782 0.1333333333333333 0  2.098260869565217 0.1333333333333333 0  1.9 0.15 0  1.883478260869565 0.15 0  1.916521739130435 0.15 0  1.933043478260869 0.15 0  1.949565217391304 0.15 0  1.966086956521739 0.15 0  1.982608695652174 0.15 0  1.999130434782608 0.15 0  2.015652173913043 0.15 0  2.032173913043478 0.15 0  2.048695652173913 0.15 0  2.065217391304348 0.15 0  2.081739130434782 0.15 0  2.098260869565217 0.15 0  2.114782608695652 0.15 0  1.9 0.1666666666666667 0  1.883478260869565 0.1666666666666667 0  1.916521739130435 0.1666666666666667 0  1.933043478260869 0.1666666666666667 0  1.949565217391304 0.1666666666666667 0  1.966086956521739 0.1666666666666667 0  1.982608695652174 0.1666666666666667 0  1.999130434782608 0.1666666666666667 0  2.015652173913043 0.1666666666666667 0  2.032173913043478 0.1666666666666667 0  2.048695652173913 0.1666666666666667 0  2.065217391304348 0.1666666666666667 0  2.081739130434782 0.1666666666666667 0  2.098260869565217 0.1666666666666667 0  2.114782608695652 0.1666666666666667 0  2.131304347826087 0.1666666666666667 0  1.9 0.1833333333333333 0  1.883478260869565 0.1833333333333333 0  1.916521739130435 0.1833333333333333 0  1.933043478260869 0.1833333333333333 0  1.949565217391304 0.1833333333333333 0  1.966086956521739 0.1833333333333333 0  1.982608695652174 0.1833333333333333 0  1.999130434782608 0.1833333333333333 0  2.015652173913043 0.1833333333333333 0  2.032173913043478 0.1833333333333333 0  2.048695652173913 0.1833333333333333 0  2.065217391304348 0.1833333333333333 0  2.081739130434782 0.1833333333333333 0  2.098260869565217 0.1833333333333333 0  2.114782608695652 0.1833333333333333 0  2.131304347826087 0.1833333333333333 0  2.147826086956522 0.1833333333333333 0  1.9 0.2 0  1.883478260869565 0.2 0  1.916521739130435 0.2 0  1.933043478260869 0.2 0  1.949565217391304 0.2 0  1.966086956521739 0.2 0  1.982608695652174 0.2 0  1.999130434782608 0.2 0  2.015652173913043 0.2 0  2.032173913043478 0.2 0  2.048695652173913 0.2 0  2.065217391304348 0.2 0  2.081739130434782 0.2 0  2.098260869565217 0.2 0  2.114782608695652 0.2 0  2.131304347826087 0.2 0  2.147826086956522 0.2 0  2.164347826086956 0.2 0  1.9 0.2166666666666667 0  1.883478260869565 0.2166666666666667 0  1.916521739130435 0.2166666666666667 0  1.933043478260869 0.2166666666666667 0  1.949565217391304 0.2166666666666667 0  1.966086956521739 0.2166666666666667 0  1.982608695652174 0.2166666666666667 0  1.999130434782608 0.2166666666666667 0  2.015652173913043 0.2166666666666667 0  2.032173913043478 0.2166666666666667 0  2.048695652173913 0.2166666666666667 0  2.065217391304348 0.2166666666666667 0  2.081739130434782 0.2166666666666667 0  2.098260869565217 0.2166666666666667 0  2.114782608695652 0.2166666666666667 0  2.131304347826087 0.2166666666666667 0  2.147826086956522 0.2166666666666667 0  2.164347826086956 0.2166666666666667 0  2.180869565217391 0.2166666666666667 0  1.9 0.2333333333333333 0  1.883478260869565 0.2333333333333333 0  1.916521739130435 0.2333333333333333 0  1.933043478260869 0.2333333333333333 0  1.949565217391304 0.2333333333333333 0  1.966086956521739 0.2333333333333333 0  1.982608695652174 0.2333333333333333 0  1.999130434782608 0.2333333333333333 0  2.015652173913043 0.2333333333333333 0  2.032173913043478 0.2333333333333333 0  2.048695652173913 0.2333333333333333 0  2.065217391304348 0.2333333333333333 0  2.081739130434782 0.2333333333333333 0  2.098260869565217 0.2333333333333333 0  2.114782608695652 0.2333333333333333 0  2.131304347826087 0.2333333333333333 0  2.147826086956522 0.2333333333333333 0  2.164347826086956 0.2333333333333333 0  2.180869565217391 0.2333333333333333 0  2.197391304347826 0.2333333333333333 0  1.9 0.25 0  1.916521739130435 0.25 0  1.933043478260869 0.25 0  1.949565217391304 0.25 0  1.966086956521739 0.25 0  1.982608695652174 0.25 0  1.999130434782608 0.25 0  2.015652173913043 0.25 0  2.032173913043478 0.25 0  2.048695652173913 0.25 0  2.065217391304348 0.25 0  2.081739130434782 0.25 0  2.098260869565217 0.25 0  2.114782608695652 0.25 0  2.131304347826087 0.25 0  2.147826086956522 0.25 0  2.164347826086956 0.25 0  2.180869565217391 0.25 0  2.197391304347826 0.25 0  2.213913043478261 0.25 0  1.916521739130435 0.2666666666666667 0  1.9 0.2666666666666667 0  1.933043478260869 0.2666666666666667 0  1.949565217391304 0.2666666666666667 0  1.966086956521739 0.2666666666666667 0  1.982608695652174 0.2666666666666667 0  1.999130434782608 0.2666666666666667 0  2.015652173913043 0.2666666666666667 0  2.032173913043478 0.2666666666666667 0  2.048695652173913 0.2666666666666667 0  2.065217391304348 0.2666666666666667 0  2.081739130434782 0.2666666666666667 0  2.098260869565217 0.2666666666666667 0  2.114782608695652 0.2666666666666667 0  2.131304347826087 0.2666666666666667 0  2.147826086956522 0.2666666666666667 0  2.164347826086956 0.2666666666666667 0  2.180869565217391 0.2666666666666667 0  2.197391304347826 0.2666666666666667 0  2.213913043478261 0.2666666666666667 0  2.230434782608695 0.25 0  2.230434782608695 0.2666666666666667 0  2.24695652173913 0.2666666666666667 0  1.916521739130435 0.2833333333333333 0  1.9 0.2833333333333333 0  1.933043478260869 0.2833333333333333 0  1.949565217391304 0.2833333333333333 0  1.966086956521739 0.2833333333333333 0  1.982608695652174 0.2833333333333333 0  1.999130434782608 0.2833333333333333 0  2.015652173913043 0.2833333333333333 0  2.032173913043478 0.2833333333333333 0  2.048695652173913 0.2833333333333333 0  2.065217391304348 0.2833333333333333 0  2.081739130434782 0.2833333333333333 0  2.098260869565217 0.2833333333333333 0  2.114782608695652 0.2833333333333333 0  2.131304347826087 0.2833333333333333 0  2.147826086956522 0.2833333333333333 0  2.164347826086956 0.2833333333333333 0  2.180869565217391 0.2833333333333333 0  2.197391304347826 0.2833333333333333 0  2.213913043478261 0.2833333333333333 0  2.230434782608695 0.2833333333333333 0  2.24695652173913 0.2833333333333333 0  2.263478260869565 0.2833333333333333 0  1.916521739130435 0.3 0  1.9 0.3 0  1.933043478260869 0.3 0  1.949565217391304 0.3 0  1.966086956521739 0.3 0  1.982608695652174 0.3 0  1.999130434782608 0.3 0  2.015652173913043 0.3 0  2.032173913043478 0.3 0  2.048695652173913 0.3 0  2.065217391304348 0.3 0  2.081739130434782 0.3 0  2.098260869565217 0.3 0  2.114782608695652 0.3 0  2.131304347826087 0.3 0  2.147826086956522 0.3 0  2.164347826086956 0.3 0  2.180869565217391 0.3 0  2.197391304347826 0.3 0  2.213913043478261 0.3 0  2.230434782608695 0.3 0  2.24695652173913 0.3 0  2.263478260869565 0.3 0  2.28 0.3 0  1.916521739130435 0.3166666666666667 0  1.9 0.3166666666666667 0  1.933043478260869 0.3166666666666667 0  1.949565217391304 0.3166666666666667 0  1.966086956521739 0.3166666666666667 0  1.982608695652174 0.3166666666666667 0  1.999130434782608 0.3166666666666667 0  2.015652173913043 0.3166666666666667 0  2.032173913043478 0.3166666666666667 0  2.048695652173913 0.3166666666666667 0  2.065217391304348 0.3166666666666667 0  2.081739130434782 0.3166666666666667 0  2.098260869565217 0.3166666666666667 0  2.114782608695652 0.3166666666666667 0  2.131304347826087 0.3166666666666667 0  2.147826086956522 0.3166666666666667 0  2.164347826086956 0.3166666666666667 0  2.180869565217391 0.3166666666666667 0  2.197391304347826 0.3166666666666667 0  2.213913043478261 0.3166666666666667 0  2.230434782608695 0.3166666666666667 0  2.24695652173913 0.3166666666666667 0  2.263478260869565 0.3166666666666667 0  2.28 0.3166666666666667 0  2.296521739130434 0.3166666666666667 0  1.916521739130435 0.3333333333333333 0  1.9 0.3333333333333333 0  1.933043478260869 0.3333333333333333 0  1.949565217391304 0.3333333333333333 0  1.966086956521739 0.3333333333333333 0  1.982608695652174 0.3333333333333333 0  1.999130434782608 0.3333333333333333 0  2.015652173913043 0.3333333333333333 0  2.032173913043478 0.3333333333333333 0  2.048695652173913 0.3333333333333333 0  2.06521739
[...]
<CellData  Scalars="rho_bar"> 
<DataArray  type="Float64"  Name="rho_bar"  format="ascii">6.7612632089211078e-01   2.8811626332327306e-01   2.9801060167646370e-01   2.5400144162877718e-03   2.3638770236196957e-04   2.5225893529888066e-03   2.3326171354660466e-04   2.0074437399883463e-04   5.0661151099196132e-07   1.2189171001245988e-07   3.5375669309630413e-07   7.5494733557205774e-08   2.4809186301618296e-07   4.9587650892875741e-08   3.3319950576427018e-08   3.2958677546416729e-09   2.0106249628189711e-09   1.4455943664337671e-09   7.1117922662011810e-10   7.5080390053254129e-10   3.1825078683489504e-10   4.4086635268373696e-10   1.6712118725929303e-10   1.0000688240493127e-10   3.5381848377073309e-10   5.3366072672034213e-10   9.3211799390147134e-11   1.0175477127560844e-10   3.3166608348622630e-11   2.8479829605743141e-11   1.4753864796546174e-11   1.0559081387029328e-11   7.8363611895800529e-12   4.8643774193853549e-12   2.6682822618084868e-12   3.5648895872301521e-10   1.4404138252525446e-09   4.9773111558219346e-11   1.2524338973326132e-10   1.0769829472678798e-11   1.8869609578568247e-11   3.2604382157093913e-12   4.3268721938716242e-12   1.2843892616132286e-12   1.3752795198958747e-12   6.2356601363925788e-13   5.6509426767566647e-13   2.8425410173819431e-13   2.8677807351051862e-09   3.8217164396077890e-08   1.6886725351383807e-10   1.1242352789449707e-09   1.8380889403128250e-11   7.1280342739399342e-11   3.2474115988871221e-12   8.2943374390964696e-12   8.4121598575848162e-13   1.5596598087104977e-12   2.9466244259405521e-13   4.2745436819776249e-13   1.3079352415938205e-13   1.5717057285276805e-13   6.9814524531845290e-14   7.2580830234869647e-14   4.3002638487147747e-14   3.9968028886505654e-14   2.9587443606260428e-14   2.5220566376068145e-14   2.2167453058348967e-14   1.7671049808617080e-14   1.7735812818386882e-14   1.3405943022348773e-14   1.0852430065710908e-14   2.2102381084613645e-07   1.3821836391712347e-05   3.8049218498148488e-09   8.8634057214080212e-08   1.5550674636877209e-10   1.6221033035298175e-09   1.2779249880523486e-11   7.1071620810769825e-11   1.8315811830168140e-12   6.3090088708861490e-12   4.0653591604211690e-13   9.7536793456735466e-13   1.2688923985611691e-13   2.3161102665388482e-13   5.1542103918222918e-14   7.6466610821057695e-14   2.5664655585918210e-14   3.2483275328824382e-14   1.4932499681208359e-14   1.6745863954762782e-14   9.8254737679326401e-15   1.0019762797242043e-14   7.1054273576010034e-15   6.7261011575207427e-15   5.5326114060486994e-15   4.9589961766590339e-15   3.8950324447265927e-15   2.2316831168081599e-04   2.0429165310445585e-02   7.8474064380921592e-07   8.1413498277134927e-05   7.7853486065334250e-09   3.0824541030760615e-07   2.1419309844302375e-10   3.2853046857036138e-09   1.3281588791732216e-11   9.9482903396600912e-11   1.5539606638507550e-12   6.8221076935752031e-12   2.9703091837992222e-13   8.7552187721939885e-13   8.2813385778498143e-14   1.8104036788220897e-13   3.0845696367502276e-14   5.3808809260165941e-14   1.4331128876203067e-14   2.1075733750800896e-14   7.9010871919157011e-15   1.0186296250935814e-14   4.9589961766590354e-15   5.7916634451279013e-15   3.4694469519536150e-15   3.7192471324942752e-15   2.6275278249462051e-15   2.6460315420232908e-15   2.0354088784794543e-15   1.9340494267335115e-01   7.3422572321642487e-01   1.3944138147010589e-03   8.5380021879907397e-02   3.3896173264417566e-06   4.5152338148758242e-04   1.9841907653953931e-08   1.1990519900769349e-06   3.7897677588697830e-10   8.0245227684905323e-09   1.8096616797672979e-11   1.7519293423381071e-10   1.7441973791202758e-12   9.4507087341118806e-12   2.8781606727553337e-13   1.0114871903018265e-12   7.1692651815169496e-14   1.8207657603852575e-13   2.4480417692984714e-14   4.8674027771274586e-14   1.0639637319324419e-14   1.7587783081770193e-14   5.5603669816643275e-15   7.9843539187625862e-15   3.3491727909525561e-15   4.3113660789610256e-15   2.2759572004815713e-15   2.6645352591003773e-15   1.6838382540148219e-15   1.8503717077085948e-15   1.3970306393199891e-15   9.2399771290528154e-01   9.7772536006627853e-01   4.0967851767656882e-01   8.7860098633078132e-01   7.0035870765961265e-03   2.1242414078394870e-01   1.5409156812464436e-05   2.1118311438108337e-03   5.9359406751058363e-08   5.0534776562990088e-06   8.1798038712814067e-10   2.3401090195237148e-08   3.0356633873296359e-11   3.7608135124619001e-10   2.4032905295475388e-12   1.5902446026672127e-11   3.4071819439892208e-13   1.4067358389269208e-12   7.5633943552588815e-14   2.1904700275854351e-13   2.3694009717208561e-14   5.2578312074539735e-14   9.6589403142388635e-15   1.7560027506154565e-14   4.8017145815038036e-15   7.5217609918354387e-15   2.7940612786399782e-15   3.9042843032651351e-15   1.8411198491700519e-15   2.3314683517128295e-15   1.3415194880887315e-15   1.5820678100908485e-15   1.2027416100105867e-15   9.7868602579629793e-01   9.3308618050771241e-01   9.5747191488584449e-01   9.7954760132634833e-01   6.0209719426867681e-01   9.3567315744204038e-01   2.9457935872372446e-02   3.9220736441553272e-01   7.6757805883148649e-05   9.3518862661074210e-03   2.1634311167528794e-07   2.4562563832689999e-05   2.1327386986088243e-09   8.4318842621019210e-08   6.0305214525750284e-11   9.6742860944409911e-10   3.8637889184419326e-12   3.1192317247648787e-11   4.6711708575249611e-13   2.2475447429097061e-12   9.2250281487811974e-14   3.0124976587349777e-13   2.6525078430002713e-14   6.4920291364956054e-14   1.0158540675320187e-14   2.0048777453022623e-14   4.8479738741965190e-15   8.1416355139178173e-15   2.7385501274087204e-15   4.0615658984203662e-15   1.7763568394002509e-15   2.4147350785597163e-15   1.3230157710116458e-15   1.6468308198606497e-15   1.2952601953960165e-15   7.7901121345849234e-01   2.3620882139537766e-01   9.7206101705074288e-01   8.6514724754967942e-01   9.7058935928595358e-01   9.7608772286608791e-01   7.6409492180931515e-01   9.6031615511938395e-01   1.0381689088800299e-01   6.1282003836803411e-01   4.2251566305789872e-04   3.7753423337456640e-02   9.7802543091070857e-07   1.3427745876421859e-04   6.5209217932811974e-09   3.6986708546830448e-07   1.3633853305587240e-10   2.8555545428243806e-09   6.9946733590361069e-12   6.8648596066959554e-11   7.2017392049872382e-13   4.0142611457127966e-12   1.2664869153411476e-13   4.6407322429331564e-13   3.3510231626602652e-14   8.9965072428791881e-14   1.2119934685491296e-14   2.5766426029842185e-14   5.5696188402028715e-15   9.9549997874722407e-15   3.0993726104118967e-15   4.8572257327350614e-15   2.0539125955565404e-15   2.8865798640254078e-15   1.5913196686293917e-15   2.0446607370179972e-15   1.7393494052460789e-15   2.9864196941257453e-02   5.6804024633377148e-01   8.1933374479513585e-02   9.5481962227199524e-01   7.2488554064809663e-01   9.7592038260013103e-01   9.6589310356413405e-01   8.7769496729803220e-01   9.7187819686691379e-01   2.6716482903306771e-01   7.9946237437591161e-01   2.3984341996703511e-03   1.2043958115902176e-01   5.0648555820487235e-06   7.5624328607496870e-04   2.2189159630074221e-08   1.7823586589138524e-06   3.4161735477470744e-10   9.2479012318384227e-09   1.4128448411199211e-11   1.6761975141221802e-10   1.2449115812292655e-12   8.0460083040634393e-12   1.9506618542664008e-13   8.0500421143862419e-13   4.7415775010032738e-14   1.4001762712230936e-13   1.6200004300988748e-14   3.7109204598095870e-14   7.2534570942176904e-15   1.3683498778505061e-14   4.0985733325745375e-15   6.6428344306738567e-15   2.8865798640254086e-15   4.1170770496516240e-15   2.5442610980993180e-15   3.2566542055671269e-15   3.3306690738754708e-15   6.3996577989635598e-03   4.8974323612523608e-05   3.2574243583144219e-01   1.8845683307149027e-02   9.1521947229400957e-01   5.2460962121215682e-01   9.7723676877634191e-01   9.4422866573581155e-01   9.3722488967029194e-01   9.7735365182168543e-01   4.8074507536192601e-01   9.0378248567486086e-01   1.2303616326521685e-02   2.7625519086236655e-01   2.6782943747231492e-05   3.8251316658253409e-03   8.2923164991995575e-08   8.7067526292061714e-06   9.6941843441555916e-10   3.3511415910754883e-08   3.2726256889622134e-11   4.7373944582022440e-10   2.4608185859401991e-12   1.8753082420275298e-11   3.4011682359391681e-13   1.6049754118322811e-12   7.5300876645201255e-14   2.4672856350586402e-13   2.4369395390522196e-14   6.0081569349298076e-14   1.0898689358403624e-14   2.1445808092342616e-14   6.5965751379811413e-15   1.0796918914479652e-14   5.3568260938163811e-15   7.5865240016052390e-15   6.0137080500529342e-15   7.5402647089125236e-15   9.6034291630076088e-15   1.0889437499865080e-14   2.4138098927058623e-14   2.9159760839743901e-06   3.4860808739711770e-08   1.1309307563488844e-03   8.0811120083401667e-06   1.4845116750398443e-01   3.5351636717065051e-03   8.3763314331525174e-01   3.2268650785055308e-01   9.7605121699809305e-01   9.0628087217631215e-01   9.6464719223444961e-01   9.7949979286683342e-01   6.7627251653357556e-01   9.5034842390288754e-01   5.0471940082620639e-02   4.8507321872075831e-01   1.4301568974915230e-04   1.6446850848057724e-02   3.7166137775712665e-07   4.5846476814187534e-05   3.3684073123356017e-09   1.5298426775389736e-07   9.1376073374505066e-11   1.6822593965996431e-09   5.6907811796236290e-12   5.3018645029823145e-11   6.7317447912292546e-13   3.7204313703872093e-12   1.3413344509179603e-13   4.8990441333292754e-13   4.2049697057677817e-14   1.0989357572081344e-13   2.0076533028638255e-14   4.0042043754813994e-14   1.4534669764051013e-14   2.3333187234205379e-14   1.6274019169297094e-14   2.2000919604655191e-14   2.9457917586720831e-14   3.4861002973229928e-14   9.3036689463588143e-14   9.9790546196724529e-14   5.8116474595711531e-13   4.2999624139117304e-09   2.0212843436044172e-10   5.6796590278129798e-07   1.0052112836556052e-08   2.0987783823678282e-04   1.5876863881196068e-06   5.8146547037551413e-02   7.5220951583990258e-04   7.1861189374742973e-01   1.7082019070002225e-01   9.7142932324913833e-01   8.4584868155993875e-01   9.7623504736481126e-01   9.7783038458413707e-01   8.2249862864526091e-01   9.6945875853668384e-01   1.5793773833204255e-01   7.0114738577893831e-01   8.7729286074795642e-04   6.3084753195856047e-02   2.3390506973345703e-06   3.0848001482311482e-04   1.5657370261434881e-08   1.0140475504386941e-06   3.1788331226560262e-10   8.0005580678962003e-09   1.5175980842367198e-11   1.8258944356475134e-10   1.4683347130765400e-12   9.6444796593431241e-12   2.6771177867127953e-13   1.0617155303075762e-12   8.8882604979782366e-14   2.3394249500559765e-13   5.3299957040546074e-14   1.0152989560197060e-13   5.8943590749057290e-14   8.7494826199000920e-14   1.2768489969043161e-13   1.5713356541861386e-13   6.0341546574231139e-13   6.5098852234749925e-13   7.3253995462134022e-12   7.2809351140771631e-12   2.7008318729630325e-10   4.7115857511788801e-11   5.8488306790375589e-12   1.5429126124881054e-09   9.5890850815294509e-11   1.4986373103598188e-07   3.6857055463190867e-09   5.3925002799049020e-05   4.4264794250385263e-07   2.2137941175928121e-02   2.0349702818676479e-04   5.4584086821802746e-01   7.1663016634263707e-02   9.5641977336720785e-01   7.2304022422727510e-01   9.7971357083286414e-01   9.6778708699804616e-01   9.0976010659438744e-01   9.7670157514779743e-01   3.6527431030200624e-01   8.5791505162098769e-01   6.7668422747036274e-03   2.0380291047245211e-01   2.2316204485867134e-05   2.7684036374341458e-03   1.0131743508982423e-07   9.9904522706991352e-06   1.2839049268187357e-09   5.0136368066426135e-08   4.1721607650184010e-11   6.7325139907481478e-10   3.3191227544193692e-12   2.4522680182788781e-11   6.3106001905547779e-13   2.4585888880324104e-12   2.8215392984994508e-13   6.7275814548869083e-13   3.0190664782973435e-13   4.9886021239823717e-13   8.3782980553337479e-13   1.0601057069218697e-12   7.0652835434022661e-12   7.4860210623010484e-12   2.2453391923527030e-10   2.1665756226122814e-10   3.2207728114149375e-08   3.0126210637249080e-08   1.3618093860384711e-05   2.2681116244408875e-12   5.6275354746541503e-13   2.7151910349706077e-11   4.1479134941605878e-12   7.1459453169590392e-10   5.6321688054102515e-11   5.4990910713925720e-08   1.7216741735974030e-09   1.5817075972840440e-05   1.5455805725076812e-07   6.2840775024658119e-03   5.0089591097081873e-05   3.1786192119803652e-01   1.7950055250294368e-02   9.0751273868172744e-01   4.9826930787108242e-01   9.7751121295244403e-01   9.3475328002687674e-01   9.5390436085424501e-01   9.7778248012080238e-01   6.2415469776550492e-01   9.3776702435967751e-01   5.2920879378628945e-02   4.7999096881581577e-01   2.5721313012305746e-04   2.4352749004573012e-02   7.2645743806609729e-07   1.0417712091523316e-04   4.3957572211835360e-09   2.8841409184983873e-07   9.7110162503947630e-11   1.8357473411760129e-09   7.9074524705902182e-12   5.3289705981285371e-11   2.2622181905518350e-12   7.1799233225533531e-12   2.2563895196725533e-12   4.1811831774651880e-12   8.7119478298092238e-12   1.1040150275457945e-11   1.6744947095581613e-10   1.6688058342613965e-10   2.0942175086672659e-08   1.8739494696736382e-08   1.0257482841428508e-05   9.1340129869573391e-06   5.3855114360418718e-03   4.9653002430015709e-03   2.8738361167261378e-01   3.3612002070526629e-13   1.4017490871746462e-13   1.9473866963437566e-12   5.7984173018610383e-13   1.9513113347358067e-11   3.6814347866472506e-12   4.0503800313729264e-10   4.0943054502307076e-11   2.1624183887958295e-08   9.4038476080212316e-10   3.5786975775923650e-06   5.3835110277085852e-08   1.0398096003060488e-03   9.1232341996131792e-06   1.1799368286544602e-01   2.6191621025071594e-03   7.5884175688755118e-01   2.2569507656589041e-01   9.6783376932827903e-01   8.3641893657435185e-01   9.7328559161517803e-01   9.7331418954502835e-01   8.4395110621850855e-01   9.6908018157881770e-01   2.2464564622989397e-01   7.6174511877145723e-01   1.7684473955902804e-03   1.0068688975969330e-01   2.5196588519423493e-06   4.5225078532461704e-04   8.1075756293754410e-09   5.6971109683538300e-07   1.8667512905838165e-10   2.5916548351823118e-09   2.7823872835360443e-11   1.2439520709802332e-10   2.4282437172118427e-11   5.0375204008190647e-11   1.3911478450682565e-10   1.6958569733679012e-10   7.9331118063574735e-09   6.9051321234988227e-09   4.0438230306712652e-06   3.0029658499205109e-06   3.2489772632178981e-03   2.5253190552299121e-03   2.7209195203079045e-01   2.4800318308188218e-01   8.3207469465731287e-01   8.2864403953152088e-01   9.5775314985009574e-01   1.2607507630472514e-13   8.0204361670629051e-14   4.3390291359912701e-13   2.1864917284138612e-13   2.1701621980933331e-12   8.0171980165744147e-13   1.7653045691901080e-11   4.3055004006475907e-12   2.6719351731152596e-10   3.7561842525235547e-11   8.6968738692109607e-09   6.0055087754603207e-10   7.0421043422512073e-07   2.0131896770007418e-08   1.3398685932975812e-04   1.6473406947344531e-06   2.4404639023750618e-02   3.2948904799642864e-04   4.8234043369070434e-01   5.6018989023293525e-02   9.4398361149260068e-01   6.4714324031562165e-01   9.8023151791500596e-01   9.6126948479336494e-01   9.3089746167194409e-01   9.7878249266107376e-01   3.8438381689118450e-01   8.6121239743623323e-01   2.6548074560273091e-03   1.2355546054564816e-01   2.0453824909061344e-06   2.5570762153429027e-04   8.2319817166591062e-09   2.4030386980289380e-07   5.0612678862786252e-10   3.2324432760096528e-09   3.5109681828515715e-10   8.1231392908461473e-10   2.8418333982334819e-09   3.2110176554726414e-09   4.5027511000328440e-07   3.0389724984628935e-07   5.5760963195919410e-04   2.9719415908098057e-04   1.7773978980698216e-01   1.2218961335700623e-01   7.9809377231057343e-01   7.6790457092146958e-01   9.6513956756453800e-01   9.6621668411880268e-01   7.8403559984588700e-01   8.0719294096861194e-01   2.1450766082164824e-01   1.1301145204830244e-13   1.0557295778331388e-13   2.6776728982251074e-13   2.1288526497187387e-13   8.1746646489004157e-13   5.2679157332609827e-13   3.4469001726951859e-12   1.6869283747666947e-12   2.1845636410944287e-11   7.4590333909441142e-12   2.3019341062931666e-10   4.9312035936092512e-11   4.5466345873398016e-09   5.3790011333987309e-10   1.9494504889990466e-07   1.0965476017939702e-08   2.2073782272591390e-05   4.9052345223639869e-07   4.1640693631348038e-03   5.8721723524464905e-05   2.5046364413976885e-01   1.1895583604630293e-02   9.0349021162333232e-01   4.7228620224603329e-01   9.8126929635189875e-01   9.4594733095061190e-01   9.3541964087087803e-01   9.7779955852169709e-01   2.5549876506803026e-01   7.6311705673834995e-01   5.3800443316912971e-04   2.8317392916964293e-02   5.7091482691395988e-07   2.1592298846610337e-05   1.2791070397311095e-08   1.0826138615212723e-07   6.4373825529410576e-09   1.6944619744367162e-08   5.8600275132381119e-08   6.3030070061402112e-08   1.5106291517991147e-05   7.6417030428580900e-06   2.1435610752145628e-02   7.9643058354004238e-03   6.2076419206684996e-01   4.5494179745473040e-01   9.6372185984798098e-01   9.5697115031422952e-01   8.8879600635182776e-01   9.0527444505683918e-01   2.8797828473859449e-01   3.6409784870553463e-01   4.1362448359229271e-03   5.8128053090671407e-03   1.3596989827150782e-05   2.6224393027500059e-13   3.6297816604265652e-13   4.7571206233480256e-13   5.8932488518811041e-13   1.0249856519095606e-12   1.1033581455895584e-12   2.7300199138361843e-12   2.4547586185974536e-12   9.4568057088887778e-12   6.7335766592198849e-12   4.5621876646843417e-11   2.3958316811937652e-11   3.3673360396354240e-10   1.1899562816590036e-10   4.3204285056959931e-09   9.1593485573859864e-10   1.1416633933595641e-07   1.2583192108654257e-08   7.5142317841244360e-06   3.6886780926947987e-07   1.2493383840419632e-03   2.8155295800589668e-05   1.5939134071997627e-01   6.0018656080121106e-03   8.9291849158440084e-01   4.5248210610085060e-01   9.7835644159822466e-01   9.5382897899146157e-01   8.0438109558500648e-01   9.5505485135653811e-01   3.3122538718757227e-02   3.3648950794472032e-01   3.8417013929712799e-05   1.1523354782772281e-03   4.5701174921271769e-07   4.7491683255925431e-06   1.6998029495063355e-07   5.5643472169723373e-07   1.2606057737489062e-06   1.5249783422340483e-06   2.4730768306077688e-04   1.1343228566162991e-04   1.6399083338209172e-01   5.5763867366512836e-02   8.6939368633768677e-01   7.6638532091377620e-01   9.5216226654505731e-01   9.5408634114737700e-01   4.9653556006126404e-01   6.1324259531113845e-01   2.0008639476421588e-02   3.5411617357040445e-02   4.9955027150966349e-05   8.7956412063624117e-05   1.7430434279264167e-07   2.9954112923391573e-07   3.8721059321863062e-09   2.0159522199728989e-12   4.3424338199334532e-12   3.0300299306655173e-12   6.0435175382641205e-12   5.1297577297049234e-12   9.3345331464433960e-12   9.9291130872813986e-12   1.6155058772208508e-11   2.2445730459471266e-11   3.1639256029928729e-11   6.1769589443372336e-11   7.1808133513447611e-11   2.2311801480453171e-10   1.9940867475772477e-10   1.1894747594295065e-09   7.4699822253757985e-10   1.0985946985453413e-08   4.3653662814187787e-09   2.1397480811276764e-07   4.8130607083196628e-08   1.1035394189867768e-05   1.2567885163590941e-06   1.9023003225207475e-03   1.0032325767135126e-04   2.8081531872482385e-01   2.6874302738154141e-02   9.4911460356224364e-01   7.3839290667402258e-01   9.6009534402231256e-01   9.7881868438484521e-01   3.5515556361953665e-01   8.3531341833706318e-01   2.3332240034040874e-03   5.7633314836628376e-02   3.4131587041186247e-05   4.8046556902339743e-04   1.1025136892606205e-05   5.4062747667717667e-05   5.2952435152973493e-05   9.8095852708636979e-05   3.9557196935293979e-03   2.7083053872766498e-03   4.1361196410734508e-01   2.1371407859851144e-01   9.3783540248534336e-01   9.0723726029906659e-01   8.5925885738919505e-01   9.1431786144021476e-01   1.5278062238983198e-01   3.2322153728965519e-01   7.8239946655591307e-04   2.1781810824500949e-03   2.32941243