<?xml version="1.0"?>
<VTKFile type="UnstructuredGrid"  version="0.1"  >
<UnstructuredGrid>
<Piece  NumberOfPoints="640" NumberOfCells="1175">
<Points>
<DataArray  type="Float64"  NumberOfComponents="3"  format="ascii">2.577391304347826 0 0  2.593913043478261 0 0  2.593913043478261 0.01666666666666667 0  2.577391304347826 0.01666666666666667 0  2.610434782608696 0 0  2.610434782608696 0.01666666666666667 0  2.62695652173913 0 0  2.62695652173913 0.01666666666666667 0  2.643478260869565 0 0  2.643478260869565 0.01666666666666667 0  2.66 0 0  2.66 0.01666666666666667 0  2.676521739130435 0 0  2.676521739130435 0.01666666666666667 0  2.693043478260869 0 0  2.693043478260869 0.01666666666666667 0  2.709565217391304 0 0  2.709565217391304 0.01666666666666667 0  2.726086956521739 0 0  2.726086956521739 0.01666666666666667 0  2.742608695652174 0 0  2.742608695652174 0.01666666666666667 0  2.759130434782609 0 0  2.759130434782609 0.01666666666666667 0  2.775652173913044 0 0  2.775652173913044 0.01666666666666667 0  2.792173913043478 0 0  2.792173913043478 0.01666666666666667 0  2.808695652173913 0 0  2.808695652173913 0.01666666666666667 0  2.825217391304347 0 0  2.825217391304347 0.01666666666666667 0  2.841739130434783 0 0  2.841739130434783 0.01666666666666667 0  2.858260869565217 0 0  2.858260869565217 0.01666666666666667 0  2.874782608695652 0 0  2.874782608695652 0.01666666666666667 0  2.891304347826087 0 0  2.891304347826087 0.01666666666666667 0  2.907826086956522 0 0  2.907826086956522 0.01666666666666667 0  2.924347826086957 0 0  2.924347826086957 0.01666666666666667 0  2.940869565217391 0 0  2.940869565217391 0.01666666666666667 0  2.957391304347826 0 0  2.957391304347826 0.01666666666666667 0  2.973913043478261 0 0  2.973913043478261 0.01666666666666667 0  2.593913043478261 0.03333333333333333 0  2.610434782608696 0.03333333333333333 0  2.62695652173913 0.03333333333333333 0  2.643478260869565 0.03333333333333333 0  2.66 0.03333333333333333 0  2.676521739130435 0.03333333333333333 0  2.693043478260869 0.03333333333333333 0  2.709565217391304 0.03333333333333333 0  2.726086956521739 0.03333333333333333 0  2.742608695652174 0.03333333333333333 0  2.759130434782609 0.03333333333333333 0  2.775652173913044 0.03333333333333333 0  2.792173913043478 0.03333333333333333 0  2.808695652173913 0.03333333333333333 0  2.825217391304347 0.03333333333333333 0  2.841739130434783 0.03333333333333333 0  2.858260869565217 0.03333333333333333 0  2.874782608695652 0.03333333333333333 0  2.891304347826087 0.03333333333333333 0  2.907826086956522 0.03333333333333333 0  2.924347826086957 0.03333333333333333 0  2.940869565217391 0.03333333333333333 0  2.957391304347826 0.03333333333333333 0  2.973913043478261 0.03333333333333333 0  2.610434782608696 0.05 0  2.62695652173913 0.05 0  2.643478260869565 0.05 0  2.66 0.05 0  2.676521739130435 0.05 0  2.693043478260869 0.05 0  2.709565217391304 0.05 0  2.726086956521739 0.05 0  2.742608695652174 0.05 0  2.759130434782609 0.05 0  2.775652173913044 0.05 0  2.792173913043478 0.05 0  2.808695652173913 0.05 0  2.825217391304347 0.05 0  2.841739130434783 0.05 0  2.858260869565217 0.05 0  2.874782608695652 0.05 0  2.891304347826087 0.05 0  2.907826086956522 0.05 0  2.924347826086957 0.05 0  2.940869565217391 0.05 0  2.957391304347826 0.05 0  2.973913043478261 0.05 0  2.990434782608696 0.05 0  2.62695652173913 0.06666666666666667 0  2.643478260869565 0.06666666666666667 0  2.66 0.06666666666666667 0  2.676521739130435 0.06666666666666667 0  2.693043478260869 0.06666666666666667 0  2.709565217391304 0.06666666666666667 0  2.726086956521739 0.06666666666666667 0  2.742608695652174 0.06666666666666667 0  2.759130434782609 0.06666666666666667 0  2.775652173913044 0.06666666666666667 0  2.792173913043478 0.06666666666666667 0  2.808695652173913 0.06666666666666667 0  2.825217391304347 0.06666666666666667 0  2.841739130434783 0.06666666666666667 0  2.858260869565217 0.06666666666666667 0  2.874782608695652 0.06666666666666667 0  2.891304347826087 0.06666666666666667 0  2.907826086956522 0.06666666666666667 0  2.924347826086957 0.06666666666666667 0  2.940869565217391 0.06666666666666667 0  2.957391304347826 0.06666666666666667 0  2.973913043478261 0.06666666666666667 0  2.990434782608696 0.06666666666666667 0  2.643478260869565 0.08333333333333333 0  2.66 0.08333333333333333 0  2.676521739130435 0.08333333333333333 0  2.693043478260869 0.08333333333333333 0  2.709565217391304 0.08333333333333333 0  2.726086956521739 0.08333333333333333 0  2.742608695652174 0.08333333333333333 0  2.759130434782609 0.08333333333333333 0  2.775652173913044 0.08333333333333333 0  2.792173913043478 0.08333333333333333 0  2.808695652173913 0.08333333333333333 0  2.825217391304347 0.08333333333333333 0  2.841739130434783 0.08333333333333333 0  2.858260869565217 0.08333333333333333 0  2.874782608695652 0.08333333333333333 0  2.891304347826087 0.08333333333333333 0  2.907826086956522 0.08333333333333333 0  2.924347826086957 0.08333333333333333 0  2.940869565217391 0.08333333333333333 0  2.957391304347826 0.08333333333333333 0  2.973913043478261 0.08333333333333333 0  2.990434782608696 0.08333333333333333 0  3.006956521739131 0.08333333333333333 0  2.66 0.1 0  2.676521739130435 0.1 0  2.693043478260869 0.1 0  2.709565217391304 0.1 0  2.726086956521739 0.1 0  2.742608695652174 0.1 0  2.759130434782609 0.1 0  2.775652173913044 0.1 0  2.792173913043478 0.1 0  2.808695652173913 0.1 0  2.825217391304347 0.1 0  2.841739130434783 0.1 0  2.858260869565217 0.1 0  2.874782608695652 0.1 0  2.891304347826087 0.1 0  2.907826086956522 0.1 0  2.924347826086957 0.1 0  2.940869565217391 0.1 0  2.957391304347826 0.1 0  2.973913043478261 0.1 0  2.990434782608696 0.1 0  3.006956521739131 0.1 0  2.676521739130435 0.1166666666666667 0  2.693043478260869 0.1166666666666667 0  2.709565217391304 0.1166666666666667 0  2.726086956521739 0.1166666666666667 0  2.742608695652174 0.1166666666666667 0  2.759130434782609 0.1166666666666667 0  2.775652173913044 0.1166666666666667 0  2.792173913043478 0.1166666666666667 0  2.808695652173913 0.1166666666666667 0  2.825217391304347 0.1166666666666667 0  2.841739130434783 0.1166666666666667 0  2.858260869565217 0.1166666666666667 0  2.874782608695652 0.1166666666666667 0  2.891304347826087 0.1166666666666667 0  2.907826086956522 0.1166666666666667 0  2.924347826086957 0.1166666666666667 0  2.940869565217391 0.1166666666666667 0  2.957391304347826 0.1166666666666667 0  2.973913043478261 0.1166666666666667 0  2.990434782608696 0.1166666666666667 0  3.006956521739131 0.1166666666666667 0  3.023478260869565 0.1166666666666667 0  2.693043478260869 0.1333333333333333 0  2.709565217391304 0.1333333333333333 0  2.726086956521739 0.1333333333333333 0  2.742608695652174 0.1333333333333333 0  2.759130434782609 0.1333333333333333 0  2.775652173913044 0.1333333333333333 0  2.792173913043478 0.1333333333333333 0  2.808695652173913 0.1333333333333333 0  2.825217391304347 0.1333333333333333 0  2.841739130434783 0.1333333333333333 0  2.858260869565217 0.1333333333333333 0  2.874782608695652 0.1333333333333333 0  2.891304347826087 0.1333333333333333 0  2.907826086956522 0.1333333333333333 0  2.924347826086957 0.1333333333333333 0  2.940869565217391 0.1333333333333333 0  2.957391304347826 0.1333333333333333 0  2.973913043478261 0.1333333333333333 0  2.990434782608696 0.1333333333333333 0  3.006956521739131 0.1333333333333333 0  3.023478260869565 0.1333333333333333 0  2.726086956521739 0.15 0  2.742608695652174 0.15 0  2.759130434782609 0.15 0  2.775652173913044 0.15 0  2.792173913043478 0.15 0  2.808695652173913 0.15 0  2.825217391304347 0.15 0  2.841739130434783 0.15 0  2.858260869565217 0.15 0  2.874782608695652 0.15 0  2.891304347826087 0.15 0  2.907826086956522 0.15 0  2.924347826086957 0.15 0  2.940869565217391 0.15 0  2.957391304347826 0.15 0  2.973913043478261 0.15 0  2.990434782608696 0.15 0  3.006956521739131 0.15 0  3.023478260869565 0.15 0  3.04 0.15 0  2.742608695652174 0.1666666666666667 0  2.759130434782609 0.1666666666666667 0  2.775652173913044 0.1666666666666667 0  2.792173913043478 0.1666666666666667 0  2.808695652173913 0.1666666666666667 0  2.825217391304347 0.1666666666666667 0  2.841739130434783 0.1666666666666667 0  2.858260869565217 0.1666666666666667 0  2.874782608695652 0.1666666666666667 0  2.891304347826087 0.1666666666666667 0  2.907826086956522 0.1666666666666667 0  2.924347826086957 0.1666666666666667 0  2.940869565217391 0.1666666666666667 0  2.957391304347826 0.1666666666666667 0  2.973913043478261 0.1666666666666667 0  2.990434782608696 0.1666666666666667 0  3.006956521739131 0.1666666666666667 0  3.023478260869565 0.1666666666666667 0  3.04 0.1666666666666667 0  3.056521739130435 0.1666666666666667 0  2.759130434782609 0.1833333333333333 0  2.775652173913044 0.1833333333333333 0  2.792173913043478 0.1833333333333333 0  2.808695652173913 0.1833333333333333 0  2.825217391304347 0.1833333333333333 0  2.841739130434783 0.1833333333333333 0  2.858260869565217 0.1833333333333333 0  2.874782608695652 0.1833333333333333 0  2.891304347826087 0.1833333333333333 0  2.907826086956522 0.1833333333333333 0  2.924347826086957 0.1833333333333333 0  2.940869565217391 0.1833333333333333 0  2.957391304347826 0.1833333333333333 0  2.973913043478261 0.1833333333333333 0  2.990434782608696 0.1833333333333333 0  3.006956521739131 0.1833333333333333 0  3.023478260869565 0.1833333333333333 0  3.04 0.1833333333333333 0  3.056521739130435 0.1833333333333333 0  3.073043478260869 0.1833333333333333 0  2.775652173913044 0.2 0  2.792173913043478 0.2 0  2.808695652173913 0.2 0  2.825217391304347 0.2 0  2.841739130434783 0.2 0  2.858260869565217 0.2 0  2.874782608695652 0.2 0  2.891304347826087 0.2 0  2.907826086956522 0.2 0  2.924347826086957 0.2 0  2.940869565217391 0.2 0  2.957391304347826 0.2 0  2.973913043478261 0.2 0  2.990434782608696 0.2 0  3.006956521739131 0.2 0  3.023478260869565 0.2 0  3.04 0.2 0  3.056521739130435 0.
[...]
<PointData  Vectors="Displacement"> 
<DataArray  type="Float64"  Name="Displacement"  NumberOfComponents="3" format="ascii">4.0751835276050467e-04 3.3044335383960398e-03 0.0000000000000000e+00  4.0942524394785881e-04 3.3303231973562143e-03 0.0000000000000000e+00  3.8236744279860713e-04 3.3298616892228354e-03 0.0000000000000000e+00  3.8184129287782302e-04 3.3040839757673252e-03 0.0000000000000000e+00  4.1141146622552675e-04 3.3578026915832893e-03 0.0000000000000000e+00  3.8298974913007061e-04 3.3573598185987936e-03 0.0000000000000000e+00  4.1338009643156334e-04 3.3867297670673716e-03 0.0000000000000000e+00  3.8358055806779842e-04 3.3862846515932024e-03 0.0000000000000000e+00  4.1529343945635131e-04 3.4170406485771504e-03 0.0000000000000000e+00  3.8419133974404820e-04 3.4166002446773315e-03 0.0000000000000000e+00  4.1713587867502625e-04 3.4485963792964969e-03 0.0000000000000000e+00  3.8485040675043336e-04 3.4481611097350404e-03 0.0000000000000000e+00  4.1890678484347393e-04 3.4812582772678446e-03 0.0000000000000000e+00  3.8556379173942148e-04 3.4808266518422128e-03 0.0000000000000000e+00  4.2060897334820585e-04 3.5149041884354514e-03 0.0000000000000000e+00  3.8632926879315850e-04 3.5144751957345336e-03 0.0000000000000000e+00  4.2224429511665150e-04 3.5494195927973163e-03 0.0000000000000000e+00  3.8714550905568512e-04 3.5489922516859359e-03 0.0000000000000000e+00  4.2381252965804456e-04 3.5846905118715878e-03 0.0000000000000000e+00  3.8801413280496538e-04 3.5842646079949285e-03 0.0000000000000000e+00  4.2531228432252923e-04 3.6205962677426495e-03 0.0000000000000000e+00  3.8893859142254426e-04 3.6201722529808581e-03 0.0000000000000000e+00  4.2674256098685915e-04 3.6570097559802351e-03 0.0000000000000000e+00  3.8992099181413384e-04 3.6565881460190091e-03 0.0000000000000000e+00  4.2810276829771411e-04 3.6938037267618428e-03 0.0000000000000000e+00  3.9096006795736005e-04 3.6933852918608632e-03 0.0000000000000000e+00  4.2939261701643991e-04 3.7308534143894521e-03 0.0000000000000000e+00  3.9205240891916848e-04 3.7304388338605860e-03 0.0000000000000000e+00  4.3061253176312244e-04 3.7680371663289733e-03 0.0000000000000000e+00  3.9319476484364044e-04 3.7676267022591502e-03 0.0000000000000000e+00  4.3176364941925719e-04 3.8052368941004157e-03 0.0000000000000000e+00  3.9438490512961238e-04 3.8048307000791604e-03 0.0000000000000000e+00  4.3284746614349971e-04 3.8423381449505783e-03 0.0000000000000000e+00  3.9562071375243802e-04 3.8419365378465991e-03 0.0000000000000000e+00  4.3386596152246047e-04 3.8792307297425472e-03 0.0000000000000000e+00  3.9689933407369453e-04 3.8788336296594599e-03 0.0000000000000000e+00  4.3482122625068220e-04 3.9158113923834087e-03 0.0000000000000000e+00  3.9821755190113945e-04 3.9154180772303830e-03 0.0000000000000000e+00  4.3571416014490989e-04 3.9519829352360255e-03 0.0000000000000000e+00  3.9957385706730105e-04 3.9515927694720211e-03 0.0000000000000000e+00  4.3654402475532336e-04 3.9876473108012740e-03 0.0000000000000000e+00  4.0096975770674478e-04 3.9872602072001011e-03 0.0000000000000000e+00  4.3730939834029454e-04 4.0227003039821083e-03 0.0000000000000000e+00  4.0240829834959426e-04 4.0223165662922637e-03 0.0000000000000000e+00  4.3800940208196435e-04 4.0570321630329061e-03 0.0000000000000000e+00  4.0389164983184960e-04 4.0566520612693195e-03 0.0000000000000000e+00  4.3864411608716166e-04 4.0905319611580920e-03 0.0000000000000000e+00  4.0542008073513616e-04 4.0901554357689494e-03 0.0000000000000000e+00  4.3921386479857778e-04 4.1230908264998038e-03 0.0000000000000000e+00  4.0699284801870805e-04 4.1227179408729678e-03 0.0000000000000000e+00  3.5654206425622063e-04 3.3295642692207140e-03 0.0000000000000000e+00  3.5561338893178170e-04 3.3570927084469594e-03 0.0000000000000000e+00  3.5464259764450134e-04 3.3860468072863131e-03 0.0000000000000000e+00  3.5361856702850297e-04 3.4164019644553974e-03 0.0000000000000000e+00  3.5294857132992462e-04 3.4479648185158362e-03 0.0000000000000000e+00  3.5256465598832636e-04 3.4806109403235129e-03 0.0000000000000000e+00  3.5236337716527532e-04 3.5142341354487310e-03 0.0000000000000000e+00  3.5231977458793202e-04 3.5487240013689783e-03 0.0000000000000000e+00  3.5242841061681557e-04 3.5839730602636559e-03 0.0000000000000000e+00  3.5270962101097744e-04 3.6198628787243738e-03 0.0000000000000000e+00  3.5318218807222675e-04 3.6562608048638680e-03 0.0000000000000000e+00  3.5384139757870084e-04 3.6930394985264675e-03 0.0000000000000000e+00  3.5468305368220978e-04 3.7300752992580782e-03 0.0000000000000000e+00  3.5570528458178863e-04 3.7672459481679684e-03 0.0000000000000000e+00  3.5690091653144688e-04 3.8044324886767214e-03 0.0000000000000000e+00  3.5826268144552705e-04 3.8415203671346462e-03 0.0000000000000000e+00  3.5978612706811809e-04 3.8783992909726295e-03 0.0000000000000000e+00  3.6144938265561907e-04 3.9149657496071024e-03 0.0000000000000000e+00  3.6322710094823413e-04 3.9511224317951843e-03 0.0000000000000000e+00  3.6512660377839562e-04 3.9867716983819166e-03 0.0000000000000000e+00  3.6717551383865220e-04 4.0218097146525944e-03 0.0000000000000000e+00  3.6939323513516045e-04 4.0561264185768071e-03 0.0000000000000000e+00  3.7177907023466816e-04 4.0896105298194440e-03 0.0000000000000000e+00  3.7431840899840025e-04 4.1221535248303987e-03 0.0000000000000000e+00  3.3080692627017282e-04 3.3599684882066930e-03 0.0000000000000000e+00  3.2971133435052437e-04 3.3894603250277013e-03 0.0000000000000000e+00  3.2851786971787504e-04 3.4198317253115581e-03 0.0000000000000000e+00  3.2745433701854520e-04 3.4511890514791988e-03 0.0000000000000000e+00  3.2659041209629109e-04 3.4835542102395374e-03 0.0000000000000000e+00  3.2592971406884049e-04 3.5168558292485229e-03 0.0000000000000000e+00  3.2547046360374314e-04 3.5509827955656462e-03 0.0000000000000000e+00  3.2521874290099008e-04 3.5858238391384134e-03 0.0000000000000000e+00  3.2518748549488908e-04 3.6212613653339451e-03 0.0000000000000000e+00  3.2538949176613469e-04 3.6571757081588795e-03 0.0000000000000000e+00  3.2583082620744056e-04 3.6934521084483400e-03 0.0000000000000000e+00  3.2651261916898485e-04 3.7299754277964159e-03 0.0000000000000000e+00  3.2743290317325451e-04 3.7666321177486782e-03 0.0000000000000000e+00  3.2858626635959282e-04 3.8033123228472083e-03 0.0000000000000000e+00  3.2996427410589030e-04 3.8399089662894846e-03 0.0000000000000000e+00  3.3155607868720193e-04 3.8763184840197216e-03 0.0000000000000000e+00  3.3334804455006418e-04 3.9124436686325459e-03 0.0000000000000000e+00  3.3532704045862274e-04 3.9481874278724828e-03 0.0000000000000000e+00  3.3748629706286396e-04 3.9834472239918201e-03 0.0000000000000000e+00  3.3982471729927625e-04 4.0181197585335976e-03 0.0000000000000000e+00  3.4233982435126698e-04 4.0521039247250748e-03 0.0000000000000000e+00  3.4502206773620245e-04 4.0853011813977939e-03 0.0000000000000000e+00  3.4785378801263064e-04 4.1176160151599134e-03 0.0000000000000000e+00  3.5081006586797786e-04 4.1489576140189095e-03 0.0000000000000000e+00  3.0451885391370221e-04 3.3926838263381963e-03 0.0000000000000000e+00  3.0312274832528430e-04 3.4230753173668041e-03 0.0000000000000000e+00  3.0178163470235848e-04 3.4543162581946655e-03 0.0000000000000000e+00  3.0057620019294441e-04 3.4864596010103998e-03 0.0000000000000000e+00  2.9955666572868835e-04 3.5194655312422779e-03 0.0000000000000000e+00  2.9875373918538008e-04 3.5532423623488140e-03 0.0000000000000000e+00  2.9818960581725083e-04 3.5876842590044735e-03 0.0000000000000000e+00  2.9788372271581507e-04 3.6226806304365364e-03 0.0000000000000000e+00  2.9785163271816537e-04 3.6581214652632661e-03 0.0000000000000000e+00  2.9810356191402586e-04 3.6939008303126038e-03 0.0000000000000000e+00  2.9864460917196074e-04 3.7299139606556315e-03 0.0000000000000000e+00  2.9947470685940525e-04 3.7660575250543474e-03 0.0000000000000000e+00  3.0058913512787561e-04 3.8022307552513300e-03 0.0000000000000000e+00  3.0197926460595582e-04 3.8383350603452041e-03 0.0000000000000000e+00  3.0363322678280677e-04 3.8742741662320958e-03 0.0000000000000000e+00  3.0553702997699597e-04 3.9099546726663265e-03 0.0000000000000000e+00  3.0767634130211710e-04 3.9452823124889892e-03 0.0000000000000000e+00  3.1003709075314522e-04 3.9801590869668769e-03 0.0000000000000000e+00  3.1260428944173666e-04 4.0144866643215035e-03 0.0000000000000000e+00  3.1535998790744088e-04 4.0481700552833779e-03 0.0000000000000000e+00  3.1828040444018468e-04 4.0811192917345456e-03 0.0000000000000000e+00  3.2133257158472141e-04 4.1132521618971098e-03 0.0000000000000000e+00  3.2446788833414512e-04 4.1445005518361338e-03 0.0000000000000000e+00  2.7764833346886891e-04 3.4262003846076677e-03 0.0000000000000000e+00  2.7599988272913406e-04 3.4573335894995585e-03 0.0000000000000000e+00  2.7448244571765895e-04 3.4892905949108358e-03 0.0000000000000000e+00  2.7314952869126577e-04 3.5220337826010651e-03 0.0000000000000000e+00  2.7204550786310005e-04 3.5554831819472636e-03 0.0000000000000000e+00  2.7120499898665668e-04 3.5895422565245354e-03 0.0000000000000000e+00  2.7065520630815563e-04 3.6241097943138572e-03 0.0000000000000000e+00  2.7041649679016943e-04 3.6590859699607470e-03 0.0000000000000000e+00  2.7050256135615101e-04 3.6943745615098810e-03 0.0000000000000000e+00  2.7092086295484838e-04 3.7298814647619598e-03 0.0000000000000000e+00  2.7167276491751619e-04 3.7655141833410652e-03 0.0000000000000000e+00  2.7275405784380825e-04 3.8011818481208954e-03 0.0000000000000000e+00  2.7415580191258890e-04 3.8367948254289762e-03 0.0000000000000000e+00  2.7586515800168994e-04 3.8722644813694780e-03 0.0000000000000000e+00  2.7786637944077149e-04 3.9075028160033259e-03 0.0000000000000000e+00  2.8014176589985295e-04 3.9424204360871970e-03 0.0000000000000000e+00  2.8267152868999474e-04 3.9769255292312795e-03 0.0000000000000000e+00  2.8543269383465522e-04 4.0109262414331865e-03 0.0000000000000000e+00  2.8839767714508379e-04 4.0443339284172049e-03 0.0000000000000000e+00  2.9153225866974025e-04 4.0770666979548639e-03 0.0000000000000000e+00  2.9479049358754948e-04 4.1090543445082700e-03 0.0000000000000000e+00  2.9810929706769641e-04 4.1402532660698823e-03 0.0000000000000000e+00  3.0138185518287816e-04 4.1706633702224766e-03 0.0000000000000000e+00  2.5010917172487362e-04 3.4602849959425161e-03 0.0000000000000000e+00  2.4825834284059799e-04 3.4920610783469434e-03 0.0000000000000000e+00  2.4661879057322921e-04 3.5245609746373890e-03 0.0000000000000000e+00  2.4523280225919160e-04 3.5577021157645414e-03 0.0000000000000000e+00  2.4413898970707598e-04 3.5913934975492193e-03 0.0000000000000000e+00  2.4336893614289656e-04 3.6255431547146974e-03 0.0000000000000000e+00  2.4294630301078445e-04 3.6600620506492009e-03 0.0000000000000000e+00  2.4288694883633035e-04 3.6948649834104420e-03 0.0000000000000000e+00  2.4319947140407744e-04 3.7298692798599258e-03 0.0000000000000000e+00  2.4388569126852273e-04 3.7649937634640185e-03 0.0000000000000000e+00  2.4494132372126094e-04 3.8001580848178083e-03 0.0000000000000000e+00  2.4635682214598550e-04 3.8352820952424990e-03 0.0000000000000000e+00  2.4811822759513151e-04 3.8702853621807904e-03 0.0000000000000000e+00  2.5020803260241472e-04 3.9050865442021685e-03 0.0000000000000000e+00  2.5260586967865519e-04 3.9396022582701973e-03 0.0000000000000000e+00  2.5528855035121360e-04 3.9737469378428574e-03 0.0000000000000000e+00  2.5822945827332165e-04 4.0074346742905529e-03 0.0000000000000000e+00  2.6139791605924909e-04 4.0405824630338968e-03 0.0000000000000000e+00  2.6475676268960250e-04 4.0731137962368826e-03 0.0000000000000000e+00  2.6826092476979149e-04 4.1049700738417108e-03 0.0000000000000000e+00  2.7183676200227461e-04 4.1361179663783896e-03 0.0000000000000000e+00  2.7539368170337856e-04 4.1666318934472603e-03 0.0000000000000000e+00  2.2181073937631152e-04 3.4948011469643154e-03 0.0000000000000000e+00  2.1985960362321539e-04 3.5270641969660566e-03 0.0000000000000000e+00  2.1819997955854658e-04 3.5599075067224528e-03 0.0000000000000000e+00  2.1686926995045718e-04 3.5932405581834163e-03 0.0000000000000000e+00  2.1589921209283849e-04 3.6269791129934338e-03 0.0000000000000000e+00  2.1531381633052238e-04 3.6610450765068121e-03 0.0000000000000000e+00  2.1512899694925221e-04 3.6953652280491182e-03 0.0000000000000000e+00  2.1535299574558070e-04 3.7298691087853768e-03 0.0000000000000000e+00  2.1598702400109628e-04 3.7644873674852497e-03 0.0000000000000000e+00  2.1702603880902361e-04 3.7991506177554603e-03 0.0000000000000000e+00  2.1845958292385201e-04 3.8337885974365658e-03 0.0000000000000000e+00  2.2027261369188193e-04 3.8683295211438739e-03 0.0000000000000000e+00  2.2244635899366257e-04 3.9026993214789176e-03 0.0000000000000000e+00  2.2495914381679677e-04 3.9368208479129739e-03 0.0000000000000000e+00  2.2778685998912655e-04 3.9706139383246424e-03 0.0000000000000000e+00  2.3090334115412811e-04 4.0039972171066500e-03 0.0000000000000000e+00  2.3427951400331970e-04 4.0368903468592596e-03 0.0000000000000000e+00  2.3788448312513530e-04 4.0692224510748536e-03 0.0000000000000000e+00  2.4166695471570591e-04 4.1009359557487857e-03 0.0000000000000000e+00  2.4556731348175794e-04 4.1320620831855242e-03 0.0000000000000000e+00  2.4927476478401624e-04 4.1626813504773248e-03 0.0000000000000000e+00  2.5243660467198163e-04 4.1938179378182318e-03 0.0000000000000000e+00  1.9274777330868323e-04 3.5295631988899365e-03 0.0000000000000000e+00  1.9082256442455630e-04 3.5621111427640889e-03 0.0000000000000000e+00  1.8927297036213316e-04 3.5950882962163169e-03 0.0000000000000000e+00  1.8812565394864847e-04 3.6284171739517207e-03 0.0000000000000000e+00  1.8740122959835120e-04 3.6620306699420616e-03 0.0000000000000000e+00  1.8711317225594666e-04 3.6958681971079278e-03 0.0000000000000000e+00  1.8726777937048852e-04 3.7298720978403421e-03 0.0000000000000000e+00  1.8786466108577671e-04 3.7639852277997357e-03 0.0000000000000000e+00  1.8889745044955948e-04 3.7981494318188752e-03 0.0000000000000000e+00  1.9035456980360155e-04 3.8323045583799815e-03 0.0000000000000000e+00  1.9221999837087502e-04 3.8663877038623844e-03 0.0000000000000000e+00  1.9447423078240836e-04 3.9003322196825172e-03 0.0000000000000000e+00  1.9709542229261225e-04 3.9340667087839256e-03 0.0000000000000000e+00  2.0006069333874753e-04 3.9675152425414154e-03 0.0000000000000000e+00  2.0334638178687704e-04 4.0005982236527389e-03 0.0000000000000000e+00  2.0693047315946923e-04 4.0332384878174208e-03 0.0000000000000000e+00  2.1077790800537785e-04 4.0653614581686081e-03 0.0000000000000000e+00  2.1485248368425757e-04 4.0969696714988893e-03 0.0000000000000000e+00  2.1886928017488723e-04 4.1281011409641834e-03 0.0000000000000000e+00  2.2248430681016547e-04 4.1597554877975508e-03 0.0000000000000000e+00  2.2191488595983485e-04 4.1931127725224294e-03 0.0000000000000000e+00  1.6122429876813270e-04 3.5969376690136198e-03 0.0000000000000000e+00  1.5993351565207355e-04 3.6298537844339568e-03 0.0000000000000000e+00  1.5910140059330959e-04 3.6630120052167391e-03 0.0000000000000000e+00  1.5873737139394828e-04 3.6963648670309663e-03 0.0000000000000000e+00  1.5884490161580797e-04 3.7298679211978129e-03 0.0000000000000000e+00  1.5942152272841885e-04 3.7634764559351126e-03 0.0000000000000000e+00  1.6045932212692597e-04 3.7971436652074401e-03 0.0000000000000000e+00  1.6194554953059546e-04 3.8308196184741526e-03 0.0000000000000000e+00  1.6386324707062734e-04 3.8644504770378226e-03 0.0000000000000000e+00  1.6619229303206412e-04 3.8979769370600598e-03 0.0000000000000000e+00  1.6891122220256483e-04 3.9313328179509787e-03 0.0000000000000000e+00  1.7199835159506421e-04 3.9644445664068131e-03 0.0000000000000000e+00  1.7543448020302792e-04 3.9972357471276055e-03 0.0000000000000000e+00  1.7919045227241206e-04 4.0296254854636504e-03 0.0000000000000000e+00  1.8323987759185427e-04 4.0615928578503586e-03 0.0000000000000000e+00  1.8731970812104349e-04 4.0931520016735121e-03 0.0000000000000000e+00  1.9108586827508360e-04 4.1252814710209399e-03 0.0000000000000000e+00  1.9065047638808238e-04 4.1592334359037307e-03 0.0000000000000000e+00  1.9034153213865211e-04 4.1926896697162402e-03 0.0000000000000000e+00  1.9011365909548183e-04 4.2254314347174851e-03 0.0000000000000000e+00  1.3122067546489512e-04 3.6312778637115489e-03 0.0000000000000000e+00  1.3032332181926338e-04 3.6639773485982650e-03 0.0000000000000000e+00  1.2991683630950127e-04 3.6968430153479686e-03 0.0000000000000000e+00  1.3000290908228652e-04 3.7298442522409533e-03 0.0000000000000000e+00  1.3057751493723640e-04 3.7629490525760419e-03 0.0000000000000000e+00  1.3163148799538404e-04 3.7961220594788384e-03 0.0000000000000000e+00  1.3315104055990022e-04 3.8293237432272904e-03 0.0000000000000000e+00  1.3511806461200733e-04 3.8625097474350371e-03 0.0000000000000000e+00  1.3751139082129462e-04 3.8956284528130318e-03 0.0000000000000000e+00  1.4030860723318942e-04 3.9286179914754119e-03 0.0000000000000000e+00  1.4348928676122022e-04 3.9614091603983690e-03 0.0000000000000000e+00  1.4702421501093399e-04 3.9939244656669202e-03 0.0000000000000000e+00  1.5088512432227526e-04 4.0261333756659284e-03 0.0000000000000000e+00  1.5483151838761595e-04 4.0580255707254979e-03 0.0000000000000000e+00  1.5852407586864126e-04 4.0905173137677723e-03 0.0000000000000000e+00  1.5817842439776563e-04 4.1249087852662488e-03 0.0000000000000000e+00  1.5795250011988720e-04 4.1589167860191624e-03 0.0000000000000000e+00  1.5777696647351495e-04 4.1924289528618647e-03 0.0000000000000000e+00  1.5775515279346729e-04 4.2253144365166830e-03 0.0000000000000000e+00  1.5785180717854932e-04 4.2573082604873361e-03 0.0000000000000000e+00  1.0100218833210189e-04 3.6649098306583971e-03 0.0000000000000000e+00  1.0059001300388264e-04 3.6972873683122627e-03 0.0000000000000000e+00  1.0068151079722545e-04 3.7297870867216689e-03 0.0000000000000000e+00  1.0127218223266735e-04 3.7623903537648737e-03 0.0000000000000000e+00  1.0235215155890606e-04 3.7950734944918042e-03 0.0000000000000000e+00  1.0390675998896005e-04 3.8278078001261306e-03 0.0000000000000000e+00  1.0591622451388453e-04 3.8605597027416890e-03 0.0000000000000000e+00  1.0835639552491815e-04 3.8932859944933148e-03 0.0000000000000000e+00  1.1120264564579361e-04 3.9259314292459085e-03 0.0000000000000000e+00  1.1442238626720641e-04 3.9584282727846932e-03 0.0000000000000000e+00  1.1798160093604376e-04 3.9907465448944341e-03 0.0000000000000000e+00  1.2165752040208150e-04 4.0228738995827457e-03 0.0000000000000000e+00  1.2512730621627775e-04 4.0556087010235851e-03 0.0000000000000000e+00  1.2488372443416102e-04 4.0902399795552961e-03 0.0000000000000000e+00  1.2470337550691974e-04 4.1246500495229045e-03 0.0000000000000000e+00  1.2456669634164263e-04 4.1586963973391797e-03 0.0000000000000000e+00  1.2453903815658337e-04 4.1923153796605871e-03 0.0000000000000000e+00  1.2459691552122555e-04 4.2252996708989077e-03 0.0000000000000000e+00  1.2488001982078128e-04 4.2574721225431145e-03 0.0000000000000000e+00  1.2426527195147209e-04 4.2860591153291933e-03 0.0000000000000000e+00  7.0722040283708056e-05 3.6976817743798510e-03 0.0000000000000000e+00  7.0843958670898375e-05 3.7296820049084484e-03 0.0000000000000000e+00  7.1466818771616380e-05 3.7617878599088697e-03 0.0000000000000000e+00  7.2580111443021477e-05 3.7939874623924320e-03 0.0000000000000000e+00  7.4168425001568496e-05 3.8262637179940083e-03 0.0000000000000000e+00  7.6208841614629048e-05 3.8585964512557300e-03 0.0000000000000000e+00  7.8671976214038622e-05 3.8909550387560585e-03 0.0000000000000000e+00  8.1519267670804660e-05 3.9232896498489697e-03 0.0000000000000000e+00  8.4707482221171550e-05 3.9555741633661200e-03 0.0000000000000000e+00  8.8031155802915828e-05 3.9878040289426202e-03 0.0000000000000000e+00  9.1175001009863180e-05 4.0206810493601929e-03 0.0000000000000000e+00  9.1032391538132393e-05 4.0553761516803465e-03 0.0000000000000000e+00  9.0890444315596677e-05 4.0900147373200768e-03 0.0000000000000000e+00  9.0773849189019430e-05 4.1244454608702396e-03 0.0000000000000000e+00  9.0729157501054304e-05 4.1585787374030783e-03 0.0000000000000000e+