<?xml version="1.0"?>
<VTKFile type="UnstructuredGrid"  version="0.1"  >
<UnstructuredGrid>
<Piece  NumberOfPoints="639" NumberOfCells="1174">
<Points>
<DataArray  type="Float64"  NumberOfComponents="3"  format="ascii">1.024347826086957 0 0  1.040869565217391 0 0  1.040869565217391 0.01666666666666667 0  1.024347826086957 0.01666666666666667 0  1.057391304347826 0 0  1.057391304347826 0.01666666666666667 0  1.073913043478261 0 0  1.073913043478261 0.01666666666666667 0  1.090434782608696 0 0  1.090434782608696 0.01666666666666667 0  1.10695652173913 0 0  1.10695652173913 0.01666666666666667 0  1.123478260869565 0 0  1.123478260869565 0.01666666666666667 0  1.14 0 0  1.14 0.01666666666666667 0  1.156521739130435 0 0  1.156521739130435 0.01666666666666667 0  1.17304347826087 0 0  1.17304347826087 0.01666666666666667 0  1.189565217391304 0 0  1.189565217391304 0.01666666666666667 0  1.206086956521739 0 0  1.206086956521739 0.01666666666666667 0  1.222608695652174 0 0  1.222608695652174 0.01666666666666667 0  1.239130434782609 0 0  1.239130434782609 0.01666666666666667 0  1.255652173913044 0 0  1.255652173913044 0.01666666666666667 0  1.272173913043478 0 0  1.272173913043478 0.01666666666666667 0  1.288695652173913 0 0  1.288695652173913 0.01666666666666667 0  1.305217391304348 0 0  1.305217391304348 0.01666666666666667 0  1.321739130434783 0 0  1.321739130434783 0.01666666666666667 0  1.338260869565217 0.01666666666666667 0  1.040869565217391 0.03333333333333333 0  1.057391304347826 0.03333333333333333 0  1.073913043478261 0.03333333333333333 0  1.090434782608696 0.03333333333333333 0  1.10695652173913 0.03333333333333333 0  1.123478260869565 0.03333333333333333 0  1.14 0.03333333333333333 0  1.156521739130435 0.03333333333333333 0  1.17304347826087 0.03333333333333333 0  1.189565217391304 0.03333333333333333 0  1.206086956521739 0.03333333333333333 0  1.222608695652174 0.03333333333333333 0  1.239130434782609 0.03333333333333333 0  1.255652173913044 0.03333333333333333 0  1.272173913043478 0.03333333333333333 0  1.288695652173913 0.03333333333333333 0  1.305217391304348 0.03333333333333333 0  1.321739130434783 0.03333333333333333 0  1.338260869565217 0.03333333333333333 0  1.354782608695652 0.03333333333333333 0  1.057391304347826 0.05 0  1.073913043478261 0.05 0  1.090434782608696 0.05 0  1.10695652173913 0.05 0  1.123478260869565 0.05 0  1.14 0.05 0  1.156521739130435 0.05 0  1.17304347826087 0.05 0  1.189565217391304 0.05 0  1.206086956521739 0.05 0  1.222608695652174 0.05 0  1.239130434782609 0.05 0  1.255652173913044 0.05 0  1.272173913043478 0.05 0  1.288695652173913 0.05 0  1.305217391304348 0.05 0  1.321739130434783 0.05 0  1.338260869565217 0.05 0  1.354782608695652 0.05 0  1.371304347826087 0.05 0  1.073913043478261 0.06666666666666667 0  1.090434782608696 0.06666666666666667 0  1.10695652173913 0.06666666666666667 0  1.123478260869565 0.06666666666666667 0  1.14 0.06666666666666667 0  1.156521739130435 0.06666666666666667 0  1.17304347826087 0.06666666666666667 0  1.189565217391304 0.06666666666666667 0  1.206086956521739 0.06666666666666667 0  1.222608695652174 0.06666666666666667 0  1.239130434782609 0.06666666666666667 0  1.255652173913044 0.06666666666666667 0  1.272173913043478 0.06666666666666667 0  1.288695652173913 0.06666666666666667 0  1.305217391304348 0.06666666666666667 0  1.321739130434783 0.06666666666666667 0  1.338260869565217 0.06666666666666667 0  1.354782608695652 0.06666666666666667 0  1.371304347826087 0.06666666666666667 0  1.387826086956522 0.06666666666666667 0  1.090434782608696 0.08333333333333333 0  1.10695652173913 0.08333333333333333 0  1.123478260869565 0.08333333333333333 0  1.14 0.08333333333333333 0  1.156521739130435 0.08333333333333333 0  1.17304347826087 0.08333333333333333 0  1.189565217391304 0.08333333333333333 0  1.206086956521739 0.08333333333333333 0  1.222608695652174 0.08333333333333333 0  1.239130434782609 0.08333333333333333 0  1.255652173913044 0.08333333333333333 0  1.272173913043478 0.08333333333333333 0  1.288695652173913 0.08333333333333333 0  1.305217391304348 0.08333333333333333 0  1.321739130434783 0.08333333333333333 0  1.338260869565217 0.08333333333333333 0  1.354782608695652 0.08333333333333333 0  1.371304347826087 0.08333333333333333 0  1.387826086956522 0.08333333333333333 0  1.404347826086957 0.08333333333333333 0  1.10695652173913 0.1 0  1.123478260869565 0.1 0  1.14 0.1 0  1.156521739130435 0.1 0  1.17304347826087 0.1 0  1.189565217391304 0.1 0  1.206086956521739 0.1 0  1.222608695652174 0.1 0  1.239130434782609 0.1 0  1.255652173913044 0.1 0  1.272173913043478 0.1 0  1.288695652173913 0.1 0  1.305217391304348 0.1 0  1.321739130434783 0.1 0  1.338260869565217 0.1 0  1.354782608695652 0.1 0  1.371304347826087 0.1 0  1.387826086956522 0.1 0  1.404347826086957 0.1 0  1.420869565217391 0.1 0  1.123478260869565 0.1166666666666667 0  1.14 0.1166666666666667 0  1.156521739130435 0.1166666666666667 0  1.17304347826087 0.1166666666666667 0  1.189565217391304 0.1166666666666667 0  1.206086956521739 0.1166666666666667 0  1.222608695652174 0.1166666666666667 0  1.239130434782609 0.1166666666666667 0  1.255652173913044 0.1166666666666667 0  1.272173913043478 0.1166666666666667 0  1.288695652173913 0.1166666666666667 0  1.305217391304348 0.1166666666666667 0  1.321739130434783 0.1166666666666667 0  1.338260869565217 0.1166666666666667 0  1.354782608695652 0.1166666666666667 0  1.371304347826087 0.1166666666666667 0  1.387826086956522 0.1166666666666667 0  1.404347826086957 0.1166666666666667 0  1.420869565217391 0.1166666666666667 0  1.437391304347826 0.1166666666666667 0  1.14 0.1333333333333333 0  1.156521739130435 0.1333333333333333 0  1.17304347826087 0.1333333333333333 0  1.189565217391304 0.1333333333333333 0  1.206086956521739 0.1333333333333333 0  1.222608695652174 0.1333333333333333 0  1.239130434782609 0.1333333333333333 0  1.255652173913044 0.1333333333333333 0  1.272173913043478 0.1333333333333333 0  1.288695652173913 0.1333333333333333 0  1.305217391304348 0.1333333333333333 0  1.321739130434783 0.1333333333333333 0  1.338260869565217 0.1333333333333333 0  1.354782608695652 0.1333333333333333 0  1.371304347826087 0.1333333333333333 0  1.387826086956522 0.1333333333333333 0  1.404347826086957 0.1333333333333333 0  1.420869565217391 0.1333333333333333 0  1.437391304347826 0.1333333333333333 0  1.453913043478261 0.1333333333333333 0  1.156521739130435 0.15 0  1.17304347826087 0.15 0  1.189565217391304 0.15 0  1.206086956521739 0.15 0  1.222608695652174 0.15 0  1.239130434782609 0.15 0  1.255652173913044 0.15 0  1.272173913043478 0.15 0  1.288695652173913 0.15 0  1.305217391304348 0.15 0  1.321739130434783 0.15 0  1.338260869565217 0.15 0  1.354782608695652 0.15 0  1.371304347826087 0.15 0  1.387826086956522 0.15 0  1.404347826086957 0.15 0  1.420869565217391 0.15 0  1.437391304347826 0.15 0  1.453913043478261 0.15 0  1.470434782608696 0.15 0  1.17304347826087 0.1666666666666667 0  1.189565217391304 0.1666666666666667 0  1.206086956521739 0.1666666666666667 0  1.222608695652174 0.1666666666666667 0  1.239130434782609 0.1666666666666667 0  1.255652173913044 0.1666666666666667 0  1.272173913043478 0.1666666666666667 0  1.288695652173913 0.1666666666666667 0  1.305217391304348 0.1666666666666667 0  1.321739130434783 0.1666666666666667 0  1.338260869565217 0.1666666666666667 0  1.354782608695652 0.1666666666666667 0  1.371304347826087 0.1666666666666667 0  1.387826086956522 0.1666666666666667 0  1.404347826086957 0.1666666666666667 0  1.420869565217391 0.1666666666666667 0  1.437391304347826 0.1666666666666667 0  1.453913043478261 0.1666666666666667 0  1.470434782608696 0.1666666666666667 0  1.486956521739131 0.1666666666666667 0  1.189565217391304 0.1833333333333333 0  1.206086956521739 0.1833333333333333 0  1.222608695652174 0.1833333333333333 0  1.239130434782609 0.1833333333333333 0  1.255652173913044 0.1833333333333333 0  1.272173913043478 0.1833333333333333 0  1.288695652173913 0.1833333333333333 0  1.305217391304348 0.1833333333333333 0  1.321739130434783 0.1833333333333333 0  1.338260869565217 0.1833333333333333 0  1.354782608695652 0.1833333333333333 0  1.371304347826087 0.1833333333333333 0  1.387826086956522 0.1833333333333333 0  1.404347826086957 0.1833333333333333 0  1.420869565217391 0.1833333333333333 0  1.437391304347826 0.1833333333333333 0  1.453913043478261 0.1833333333333333 0  1.470434782608696 0.1833333333333333 0  1.486956521739131 0.1833333333333333 0  1.503478260869565 0.1833333333333333 0  1.206086956521739 0.2 0  1.222608695652174 0.2 0  1.239130434782609 0.2 0  1.255652173913044 0.2 0  1.272173913043478 0.2 0  1.288695652173913 0.2 0  1.305217391304348 0.2 0  1.321739130434783 0.2 0  1.338260869565217 0.2 0  1.354782608695652 0.2 0  1.371304347826087 0.2 0  1.387826086956522 0.2 0  1.404347826086957 0.2 0  1.420869565217391 0.2 0  1.437391304347826 0.2 0  1.453913043478261 0.2 0  1.470434782608696 0.2 0  1.486956521739131 0.2 0  1.503478260869565 0.2 0  1.52 0.2 0  1.222608695652174 0.2166666666666667 0  1.239130434782609 0.2166666666666667 0  1.255652173913044 0.2166666666666667 0  1.272173913043478 0.2166666666666667 0  1.288695652173913 0.2166666666666667 0  1.305217391304348 0.2166666666666667 0  1.321739130434783 0.2166666666666667 0  1.338260869565217 0.2166666666666667 0  1.354782608695652 0.2166666666666667 0  1.371304347826087 0.2166666666666667 0  1.387826086956522 0.2166666666666667 0  1.404347826086957 0.2166666666666667 0  1.420869565217391 0.2166666666666667 0  1.437391304347826 0.2166666666666667 0  1.453913043478261 0.2166666666666667 0  1.470434782608696 0.2166666666666667 0  1.486956521739131 0.2166666666666667 0  1.503478260869565 0.2166666666666667 0  1.52 0.2166666666666667 0  1.536521739130435 0.2166666666666667 0  1.239130434782609 0.2333333333333333 0  1.255652173913044 0.2333333333333333 0  1.272173913043478 0.2333333333333333 0  1.288695652173913 0.2333333333333333 0  1.305217391304348 0.23333
[...]
<CellData  Scalars="rho"> 
<DataArray  type="Float64"  Name="rho"  format="ascii">8.8336067652096195e-01   8.7522866775346808e-01   8.8004202297775136e-01   8.7199139246507806e-01   8.7665638906459142e-01   8.6868039135365005e-01   8.7322844571006319e-01   8.6532005918518951e-01   8.6978083660100480e-01   8.6193289153891828e-01   8.6633422267137128e-01   8.5853954784086661e-01   8.6290687507928987e-01   8.5515841519945324e-01   8.5951487277298932e-01   8.5180579798510592e-01   8.5617176865907696e-01   8.4849558826243032e-01   8.5288874867238240e-01   8.4523945520427235e-01   8.4967434903983363e-01   8.4204649266403508e-01   8.4653484961342107e-01   8.3892356037134019e-01   8.4347420426237441e-01   8.3587518581364117e-01   8.4049451116983342e-01   8.3290404605666990e-01   8.3759600223794217e-01   8.3001092020462142e-01   8.3477759246625671e-01   8.2719522653993305e-01   8.3203687581409058e-01   8.2445502787676883e-01   8.2937054243442065e-01   8.2178749516146843e-01   8.1918877175595339e-01   8.3889420286380512e-01   8.3583177124185326e-01   8.1049971145159339e-01   8.3271058559051303e-01   8.0754886226771028e-01   8.2955115479277908e-01   8.0455726212893341e-01   8.2637244222603579e-01   8.0154209891955541e-01   8.2319156645676539e-01   7.9851886563324637e-01   8.2002392651693201e-01   7.9550164394424416e-01   8.1688291959674630e-01   7.9250274929400200e-01   8.1378008463980611e-01   7.8953296711099297e-01   8.1072482671634971e-01   7.8660118960738956e-01   8.0772456341882126e-01   7.8371464476340358e-01   8.0478455269767435e-01   7.8087856158541324e-01   8.0190827801171904e-01   7.7809656836046648e-01   7.9909746831470285e-01   7.7537060921568135e-01   7.9635252551594804e-01   7.7270146279686380e-01   7.9367254022893707e-01   7.7008864838048297e-01   7.9105572952368131e-01   7.6753092165430548e-01   7.8849941678355207e-01   7.6502618284089530e-01   7.8600033837438466e-01   7.6257188824457112e-01   7.6016482482179026e-01   7.4333456076283222e-01   7.4074880953416644e-01   7.0131567837872888e-01   7.3813872134698877e-01   6.9894577195587748e-01   7.3551495873440986e-01   6.9656404926242677e-01   7.3288717567105299e-01   6.9417703423315491e-01   7.3026399225688454e-01   6.9179044556386626e-01   7.2765313319089764e-01   6.8940958124342344e-01   7.2506117351497679e-01   6.8703896311210899e-01   7.2249364083376011e-01   6.8468252831426302e-01   7.1995478904053722e-01   6.8234329048902220e-01   7.1744769301570332e-01   6.8002353154495776e-01   7.1497413001406385e-01   6.7772446774954387e-01   7.1253497718835346e-01   6.7544667028075778e-01   7.1013027726876687e-01   6.7319004366497537e-01   7.0775954131841279e-01   6.7095426653826107e-01   7.0542170204749588e-01   6.6873858803139097e-01   7.0311544025684669e-01   6.6654221259813629e-01   7.0083911902423657e-01   6.6436414950698031e-01   6.9859092803143696e-01   6.6220348224592140e-01   6.6005902584004239e-01   6.1074765653846619e-01   6.0889131536700114e-01   5.6713399727315184e-01   6.0703855982688404e-01   5.6550218634194394e-01   6.0518768373398291e-01   5.6387899363425142e-01   6.0333711683945568e-01   5.6226051105705477e-01   6.0148559000210167e-01   5.6064324063851967e-01   5.9963210348473606e-01   5.5902434747739560e-01   5.9777576629250218e-01   5.5740127311767840e-01   5.9591571095966023e-01   5.5577182486469734e-01   5.9405094052964957e-01   5.5413379299266574e-01   5.9218031809381944e-01   5.5248512069848166e-01   5.9030265731798626e-01   5.5082369992624991e-01   5.8841698041649215e-01   5.4914778784505447e-01   5.8652259486317015e-01   5.4745590680646672e-01   5.8461914661765124e-01   5.4574713803857433e-01   5.8270661096048437e-01   5.4402088826266082e-01   5.8078534986641506e-01   5.4227714373110492e-01   5.7885599878072524e-01   5.4051618826939818e-01   5.7691937586011310e-01   5.3873874329687832e-01   5.3694565184050658e-01   4.7662472266127093e-01   4.7543154463756465e-01   4.3684011202608364e-01   4.7425707559623637e-01   4.3589680761569355e-01   4.7309119118172299e-01   4.3496804809275758e-01   4.7192500012542232e-01   4.3404241657717496e-01   4.7075094671555873e-01   4.3311001921993186e-01   4.6956253628219319e-01   4.3216247780204281e-01   4.6835413001156101e-01   4.3119250934154274e-01   4.6712071870756722e-01   4.3019381785809252e-01   4.6585795653645085e-01   4.2916089364589366e-01   4.6456217170386849e-01   4.2808917409011099e-01   4.6323053883252652e-01   4.2697499680175871e-01   4.6186113482701219e-01   4.2581583102893439e-01   4.6045303098366375e-01   4.2461022090841150e-01   4.5900617635873253e-01   4.2335786147554338e-01   4.5752134263566602e-01   4.2205934179206334e-01   4.5599994748118522e-01   4.2071612181241780e-01   4.5444400792918377e-01   4.1933029671758953e-01   4.5285597547201695e-01   4.1790460136173418e-01   4.1644216528802797e-01   3.5560899849884886e-01   3.5508553840902290e-01   3.1561018940723856e-01   3.5458291559708222e-01   3.1530622750472131e-01   3.5408438130631215e-01   3.1501851233124673e-01   3.5357539645196279e-01   3.1472861409722180e-01   3.5304351130059447e-01   3.1442062060442250e-01   3.5247796437975459e-01   3.1408080900323881e-01   3.5186955681610227e-01   3.1369734351375977e-01   3.5121054594222995e-01   3.1326018829023144e-01   3.5049475311350076e-01   3.1276111594022682e-01   3.4971755570488178e-01   3.1219378734650943e-01   3.4887601862272666e-01   3.1155381116310904e-01   3.4796881394477908e-01   3.1083876320778797e-01   3.4699613862339018e-01   3.1004804302525535e-01   3.4595941630614363e-01   3.0918263387862810e-01   3.4486116393147803e-01   3.0824483586051732e-01   3.4370475767954545e-01   3.0723805776882007e-01   3.4249434946505153e-01   3.0616662489119850e-01   3.4123464989058666e-01   3.0503562849293142e-01   3.0385078274953059e-01   2.4690665004470122e-01   2.4704067932066642e-01   2.1349272498460414e-01   2.4719906306555389e-01   2.1385528984402288e-01   2.4735745491749836e-01   2.1423339623714321e-01   2.4749463801385166e-01   2.1460151056859533e-01   2.4759220633104909e-01   2.1493737752093992e-01   2.4763425626564986e-01   2.1522164736679095e-01   2.4760742045665249e-01   2.1543778713966391e-01   2.4750084288869695e-01   2.1557211910573076e-01   2.4730635034632251e-01   2.1561394145324861e-01   2.4701841423813559e-01   2.1555558518394535e-01   2.4663412877887869e-01   2.1539236987987581e-01   2.4615286954360899e-01   2.1512235122921095e-01   2.4557602530635270e-01   2.1474596717322395e-01   2.4490656741979974e-01   2.1426560278784104e-01   2.4414883657329439e-01   2.1368523926775421e-01   2.4330823981423275e-01   2.1301016111897395e-01   2.4239119190773034e-01   2.1224680479602806e-01   2.4140489956377192e-01   2.1140261583338538e-01   2.1048587148450454e-01   1.6138471350189376e-01   1.6220395612752400e-01   1.3750234869416314e-01   1.6304473331528815e-01   1.3854705007215168e-01   1.6387572042108625e-01   1.3959928034061847e-01   1.6466936174255109e-01   1.4062703985348801e-01   1.6540167704169847e-01   1.4160221404070822e-01   1.6605221626553079e-01   1.4250052001545491e-01   1.6660425173192855e-01   1.4330168173581742e-01   1.6704484293168440e-01   1.4398957088681136e-01   1.6736489814881558e-01   1.4455229237122547e-01   1.6755894481618724e-01   1.4498203815814051e-01   1.6762482179092056e-01   1.4527478868312929e-01   1.6756310810630540e-01   1.4542975840201713e-01   1.6737662974590126e-01   1.4544880717190067e-01   1.6706995070760972e-01   1.4533584616123674e-01   1.6664916678506608e-01   1.4509650669823446e-01   1.6612171120693114e-01   1.4473793415694219e-01   1.6549628462986787e-01   1.4426871243825989e-01   1.6478256260451876e-01   1.4369865558360392e-01   1.4303850486996056e-01   9.7392600456115738e-02   9.8848353317674623e-02   8.2586346202420335e-02   1.0031407112090453e-01   8.4248062753033315e-02   1.0175270530013622e-01   8.5899836483574604e-02   1.0313157751980447e-01   8.7504575345083671e-02   1.0442257852196889e-01   8.9029953753137173e-02   1.0560235750050083e-01   9.0448670458980793e-02   1.0665257617015050e-01   9.1738735651885756e-02   1.0755985171057514e-01   9.2883540731362180e-02   1.0831559514532266e-01   9.3871730980339574e-02   1.0891547654410604e-01   9.4696756911281446e-02   1.0935879183250842e-01   9.5356222494351633e-02   1.0964762396104627e-01   9.5851014793394668e-02   1.0978628518552158e-01   9.6184569171132994e-02   1.0978090662790269e-01   9.6362345939229446e-02   1.0963938644304111e-01   9.6391672110143420e-02   1.0937125528749329e-01   9.6281672352593994e-02   1.0898753021259831e-01   9.6043175299313374e-02   1.0850023837917777e-01   9.5688337464631512e-02   9.5230146577255120e-02   7.3079606831556981e-02   7.5169156955168348e-02   6.9008300515231991e-02   7.7242565533519048e-02   7.1260099365738724e-02   7.9258930030140631e-02   7.3469874322666134e-02   8.1182766540893708e-02   7.5597952862482706e-02   8.2984410780743090e-02   7.7610646983045734e-02   8.4640266673676967e-02   7.9480573306700539e-02   8.6132869236138374e-02   8.1186856523827955e-02   8.7450551812566002e-02   8.2714887530035530e-02   8.8586881599207593e-02   8.4055834564574314e-02   8.9539759004862080e-02   8.5205762047671232e-02   9.0310479292352613e-02   8.6164656397002659e-02   9.0902890281124304e-02   8.6935410823499759e-02   9.1322967226225446e-02   8.7523241398733742e-02   9.1578662118538559e-02   8.7935401388176168e-02   9.1679954183817081e-02   8.8181254567965800e-02   9.1638660644110900e-02   8.8272185962285268e-02   9.1468032834098115e-02   8.8221313331417181e-02   9.1182151501271666e-02   8.8042865420308189e-02   8.7751669650440178e-02   6.5409547021306844e-02   6.7953938221674545e-02   6.8311985954872478e-02   7.0443568954545246e-02   7.0956631470683748e-02   7.2836739493670380e-02   7.3517004375406356e-02   7.5098374943716295e-02   7.5954188639829834e-02   7.7200443478720016e-02   7.8236463486406518e-02   7.9122002399215047e-02   8.0339493849106935e-02   8.0848873355695253e-02   8.2246148899403904e-02   8.2372887207155562e-02   8.3945825263595703e-02   8.3690880996533559e-02   8.5433508033180644e-02   8.4803518944349912e-02   8.6708537475402553e-02   8.5714334170183842e-02   8.7773500871446697e-02   8.6429131571135714e-02   8.8633441826411363e-02   8.6955874651656759e-02   8.9295605274368001e-02   8.7304742670288413e-02   8.9769446635492342e-02   8.7488075212429600e-02   9.0066711191394810e-02   8.7519910701985351e-02   9.0201100945310489e-02   8.7415400048542577e-02   9.0187709972374602e-02   8.7190240954170203e-02   9.0042393352570582e-02   8.9781357313728868e-02   7.5439513439144970e-02   7.7750246694538561e-02   7.9742886200254715e-02   7.9986967955094412e-02   8.2097219018787707e-02   8.2117761729867789e-02   8.1326705897047283e-02   8.4116902289060005e-02   8.3128521119770551e-02   8.5964987291709344e-02   8.4805159349975096e-02   8.7648629896303495e-02   8.6343026003737236e-02   8.9159823670290253e-02   8.7733555623562942e-02   9.0494983798276404e-02   8.8972438361216807e-02   9.1653833834484624e-02   9.0058644594078405e-02   9.2638459249143545e-02   9.0993364995949094e-02   9.3452781368621049e-02   9.1779442163432104e-02   9.4102484367283176e-02   9.2421173087104166e-02   9.4595169844107763e-02   9.2924475996905037e-02   9.4940381703097654e-02   9.3297008993914382e-02   9.5149289280223467e-02   9.3548074515152541e-02   9.5234163919884166e-02   9.3688109322651661e-02   9.5207885697058126e-02   9.3728226493701619e-02   9.5083611885451003e-02   9.3679874314191974e-02   9.3554615798014953e-02   8.0913226422809445e-02   8.3024755256029786e-02   8.0358148824200878e-02   8.5042162336425239e-02   8.2295677381019033e-02   8.6941688355517965e-02   8.4132916275403244e-02   8.8705487547085973e-02   8.5851446949949686e-02   9.0321305906939431e-02   8.7438205895748716e-02   8.8090709879285967e-02   8.8884928298997454e-02   8.9297402137172965e-02   1.0477756617839236e-01   9.0361387341138785e-02   1.0600727374505249e-01   9.1284276327133748e-02   1.0709256674987089e-01   9.2069089733111731e-02   1.0803604534610894e-01   9.2720225523360053e-02   1.0884167094155776e-01   9.3243637218687322e-02   1.0951487444711105e-01   1.0769578000366892e-01   1.1006272010738330e-01   1.0806163156438839e-01   1.1049381586369622e-01   1.0832621034121577e-01   1.1081794469905298e-01   1.0850007182348058e-01   1.1104560170814046e-01   1.0859407090714283e-01   1.1118772621554317e-01   1.0861914169388649e-01   1.1125544036645689e-01   1.1125984336818037e-01   9.8738695779684582e-02   1.0080809797290011e-01   1.0194114185755905e-01   1.0276690326796931e-01   1.0396993150956167e-01   1.0459826244855636e-01   1.0587483021185905e-01   1.0629064807747141e-01   1.0764254696002400e-01   1.0783716659024754e-01   1.0926470129731446e-01   1.0923471310824334e-01   1.1073698236760987e-01   1.1048297965033005e-01   1.1205823210124674e-01   1.1158358547562830e-01   1.1322948573548382e-01   1.1253958303491825e-01   1.1425334097421065e-01   1.1335541197640578e-01   1.1513375858895025e-01   1.1403704477988130e-01   1.1587616850012085e-01   1.1459209372632814e-01   1.1648761381249668e-01   1.1502960465676799e-01   1.1697669224191794e-01   1.1535973173464104e-01   1.1735326246601285e-01   1.1559337449235181e-01   1.1762809547538111e-01   1.1574190839247048e-01   1.1781258322694219e-01   1.1581687495155622e-01   1.1791844284795741e-01   1.1582975640009192e-01   1.1795741134318967e-01   1.1794111995415364e-01   1.0479705346319182e-01   1.0682817234317808e-01   1.0666763027369533e-01   1.0872833621419538e-01   1.0862288602223516e-01   1.1048592816027686e-01   1.1043817834100247e-01   1.1209396792675495e-01   1.1210505806962884e-01   1.1354918836408238e-01   1.1361907669328797e-01   1.1485110971358857e-01   1.1497886295326688e-01   1.1600122166471397e-01   1.1618526350893692e-01   1.1700251015313198e-01   1.1724074747353024e-01   1.1785934771803873e-01   1.1814917044566857e-01   1.1857765412501588e-01   1.1891587250290359e-01   1.1916496385627130e-01   1.1954780675974079e-01   1.1963032417896675e-01   1.2005352703089676e-01   1.1998399856977811e-01   1.2044295172240892e-01   1.2023721893243129e-01   1.2072710937115742e-01   1.2040186014562135e-01   1.2091784519386535e-01   1.2049009908639330e-01   1.2102747583557337e-01   1.2051404769633245e-01   1.2106837937963585e-01   1.2048571569669800e-01   1.2105279070427029e-01   1.2099299004215519e-01   1.0666667808707647e-01   1.0857860549709726e-01   1.0676699529007877e-01   1.1034677048627814e-01   1.0857608511506696e-01   1.1196407210264120e-01   1.1023631906166430e-01   1.1342702360301914e-01   1.1174304362175441e-01   1.1473487602708700e-01   1.1309459075929405e-01   1.1588888058379919e-01   1.1429152194421931e-01   1.1689182256758907e-01   1.1533605591472972e-01   1.1774791499422664e-01   1.1623185742088595e-01   1.1846291822545900e-01   1.1698407919181407e-01   1.1904425671559798e-01   1.1759953677200877e-01   1.1950092884752045e-01   1.1808668588475625e-01   1.1984332879683118e-01   1.1845550279967798e-01   1.2008300193248472e-01   1.1871724948498576e-01   1.2023234027046238e-01   1.1888422129746529e-01   1.2030411659281640e-01   1.1896929058865499e-01   1.2031104493146602e-01   1.1898542495713330e-01   1.2026564178323525e-01   1.1894535641703403e-01   1.2018057916306694e-01   1.1886177285033260e-01   1.1874786697521003e-01   1.0391396313919708e-01   1.0563998007630915e-01   1.0262024992284291e-01   1.0721631388258222e-01   1.0422159167877564e-01   1.0863919210293975e-01   1.0567132966920431e-01   1.0990752100154863e-01   1.0696744833750699e-01   1.1102223856291249e-01   1.0811015165443363e-01   1.1198586567888473e-01   1.0910137535885617e-01   1.1280238887489197e-01   1.0994453000086667e-01   1.1347736393505992e-01   1.1064456014710615e-01   1.1401803787747988e-01   1.1120806337953164e-01   1.1443332391900717e-01   1.1164336043631799e-01   1.1473366826259310e-01   1.1196037827302453e-01   1.1493087437037468e-01   1.1217052898842578e-01   1.1503777393342104e-01   1.1228643109657688e-01   1.1506765570179019e-01   1.1232141500563193e-01   1.1503367437015011e-01   1.1228884809242441e-01   1.1494867784334212e-01   1.1220175895390079e-01   1.1482553861296968e-01   1.1207296798024056e-01   1.1467779949317977e-01   1.1191568619495933e-01   1.1174416840043887e-01   8.8650953316156550e-02   8.6236849052440043e-02   8.6721374411297195e-02   8.7499875885691303e-02   8.8089869323695738e-02   8.8611907457820313e-02   8.9293320653848623e-02   8.9573500373875029e-02   9.0331621217106667e-02   9.0386882236028962e-02   9.1206579390109330e-02   9.1055777885007599e-02   9.1921671991434167e-02   9.1585501098507244e-02   9.2482029335349561e-02   9.1983047257636535e-02   9.2894577339323811e-02   9.2257135341599433e-02   9.3168100918680094e-02   9.2418118630935506e-02   9.3313232191971560e-02   9.2477878148850709e-02   9.0637608833144451e-02   1.0681766005269759e-01   9.0606162108052474e-02   1.0678098740905852e-01   9.0496773401326044e-02   1.0668295934466344e-01   9.0322931742666993e-02   1.0653645649816015e-01   9.0097624057830297e-02   1.0635421179412152e-01   8.9833477391788527e-02   1.0614947496443475e-01   8.9543319058981774e-02   1.0593660989728489e-01   8.9240851723524306e-02   1.0265549560518401e-01   8.5913394236351900e-02   8.7336012985357814e-02   8.3465208109519379e-02   8.8570873080284912e-02   8.4702834106819280e-02   8.9618493287166506e-02   8.5757147476771836e-02   9.0481514232672894e-02   8.6629989092288556e-02   9.1164542844623719e-02   8.7325185886873075e-02   9.1674094052782082e-02   8.7848468380613096e-02   9.2018720508121307e-02   8.8207519223707509e-02   9.2209008370704837e-02   8.8412038419006078e-02   9.2257607942563713e-02   8.8473763676907513e-02   9.2179103015982616e-02   8.8406442231534738e-02   9.1989635318194235e-02   8.8225590038234283e-02   9.1705910171288221e-02   8.7947671990335291e-02   9.1344347550673596e-02   8.7589066691246012e-02   9.0920705091402890e-02   8.7165495304803470e-02   9.0450465589853202e-02   8.6692134444992019e-02   8.9949486453063596e-02   8.6184213648469746e-02   8.9434739683583092e-02   8.5657750090728679e-02   8.8924520871248428e-02   8.5129975422719550e-02   8.4619162573459708e-02   7.7787500398391579e-02   7.9035280137702293e-02   7.6692870411262756e-02   8.0065744124409255e-02   7.7715921116946599e-02   8.0882819722565877e-02   7.8531587484211240e-02   8.1492799520274231e-02   7.9145197551040061e-02   8.1904264564163498e-02   7.9564333476010995e-02   8.2128000042327870e-02   7.9798729847645758e-02   8.2177054272016409e-02   7.9860309017208725e-02   8.2066665824110929e-02   7.9763140938691079e-02   8.1814292377761388e-02   7.9523475289097409e-02   8.1439238061767449e-02   7.9159604663172525e-02   8.0961314550025185e-02   7.8690905591882243e-02   8.0399713859483038e-02   7.8136347548062063e-02   7.9772717528222667e-02   7.7513937637405800e-02   7.9097954064493450e-02   7.6840802934441468e-02   7.8393148888612901e-02   7.6133818993381300e-02   7.7676721505725674e-02   7.5410245421963951e-02   7.6968060454061044e-02   7.4688139593866415e-02   7.6287096454652537e-02   7.3986152284668621e-02   7.3322936350321000e-02   7.9855958428905457e-02   8.0625626668899414e-02   7.2357476059837042e-02   8.1206796365398209e-02   7.2856979292501178e-02   8.1605093060600029e-02   7.3181439735522186e-02   8.1828179475892271e-02   7.3337412669341809e-02   8.1885772901987772e-02   7.3333438004758361e-02   8.1789569652541014e-02   7.3179971554318643e-02   8.1553297794111621e-02   7.2889437832660151e-02   8.1192671525037535e-02   7.2476183832550736e-02   8.0725332121875645e-02   8.5019444802392402e-02   8.0169462362808780e-02   8.4454107588969346e-02   7.9542397489705055e-02   8.3816733616840083e-02   7.8860331295191863e-02   8.3123063082822454e-02   7.8138679945268269e-02   8.2387858925150784e-02   7.7392601925891633e-02   8.1625335971833440e-02   7.6637581503773061e-02   8.0849744020149536e-02   7.5889540461148333e-02   8.0075611597650947e-02   7.5164590073917695e-02   7.9317657111725406e-02   7.4478366523107159e-02   7.8590251410096110e-02   7.7906842218462849