<?xml version="1.0"?>
<VTKFile type="UnstructuredGrid"  version="0.1"  >
<UnstructuredGrid>
<Piece  NumberOfPoints="611" NumberOfCells="1123">
<Points>
<DataArray  type="Float64"  NumberOfComponents="3"  format="ascii">1.883478260869565 0.01666666666666667 0  1.9 0.01666666666666667 0  1.9 0.03333333333333333 0  1.883478260869565 0.03333333333333333 0  1.916521739130435 0.03333333333333333 0  1.9 0.05 0  1.883478260869565 0.05 0  1.916521739130435 0.05 0  1.933043478260869 0.05 0  1.9 0.06666666666666667 0  1.883478260869565 0.06666666666666667 0  1.916521739130435 0.06666666666666667 0  1.933043478260869 0.06666666666666667 0  1.949565217391304 0.06666666666666667 0  1.9 0.08333333333333333 0  1.883478260869565 0.08333333333333333 0  1.916521739130435 0.08333333333333333 0  1.933043478260869 0.08333333333333333 0  1.949565217391304 0.08333333333333333 0  1.966086956521739 0.08333333333333333 0  1.9 0.1 0  1.883478260869565 0.1 0  1.916521739130435 0.1 0  1.933043478260869 0.1 0  1.949565217391304 0.1 0  1.966086956521739 0.1 0  1.982608695652174 0.1 0  1.9 0.1166666666666667 0  1.883478260869565 0.1166666666666667 0  1.916521739130435 0.1166666666666667 0  1.933043478260869 0.1166666666666667 0  1.949565217391304 0.1166666666666667 0  1.966086956521739 0.1166666666666667 0  1.982608695652174 0.1166666666666667 0  1.999130434782608 0.1166666666666667 0  1.9 0.1333333333333333 0  1.883478260869565 0.1333333333333333 0  1.916521739130435 0.1333333333333333 0  1.933043478260869 0.1333333333333333 0  1.949565217391304 0.1333333333333333 0  1.966086956521739 0.1333333333333333 0  1.982608695652174 0.1333333333333333 0  1.999130434782608 0.1333333333333333 0  2.015652173913043 0.1166666666666667 0  2.015652173913043 0.1333333333333333 0  2.032173913043478 0.1166666666666667 0  2.032173913043478 0.1333333333333333 0  2.048695652173913 0.1166666666666667 0  2.048695652173913 0.1333333333333333 0  2.065217391304348 0.1166666666666667 0  2.065217391304348 0.1333333333333333 0  2.081739130434782 0.1166666666666667 0  2.081739130434782 0.1333333333333333 0  2.098260869565217 0.1333333333333333 0  1.9 0.15 0  1.883478260869565 0.15 0  1.916521739130435 0.15 0  1.933043478260869 0.15 0  1.949565217391304 0.15 0  1.966086956521739 0.15 0  1.982608695652174 0.15 0  1.999130434782608 0.15 0  2.015652173913043 0.15 0  2.032173913043478 0.15 0  2.048695652173913 0.15 0  2.065217391304348 0.15 0  2.081739130434782 0.15 0  2.098260869565217 0.15 0  2.114782608695652 0.15 0  1.9 0.1666666666666667 0  1.883478260869565 0.1666666666666667 0  1.916521739130435 0.1666666666666667 0  1.933043478260869 0.1666666666666667 0  1.949565217391304 0.1666666666666667 0  1.966086956521739 0.1666666666666667 0  1.982608695652174 0.1666666666666667 0  1.999130434782608 0.1666666666666667 0  2.015652173913043 0.1666666666666667 0  2.032173913043478 0.1666666666666667 0  2.048695652173913 0.1666666666666667 0  2.065217391304348 0.1666666666666667 0  2.081739130434782 0.1666666666666667 0  2.098260869565217 0.1666666666666667 0  2.114782608695652 0.1666666666666667 0  2.131304347826087 0.1666666666666667 0  1.9 0.1833333333333333 0  1.883478260869565 0.1833333333333333 0  1.916521739130435 0.1833333333333333 0  1.933043478260869 0.1833333333333333 0  1.949565217391304 0.1833333333333333 0  1.966086956521739 0.1833333333333333 0  1.982608695652174 0.1833333333333333 0  1.999130434782608 0.1833333333333333 0  2.015652173913043 0.1833333333333333 0  2.032173913043478 0.1833333333333333 0  2.048695652173913 0.1833333333333333 0  2.065217391304348 0.1833333333333333 0  2.081739130434782 0.1833333333333333 0  2.098260869565217 0.1833333333333333 0  2.114782608695652 0.1833333333333333 0  2.131304347826087 0.1833333333333333 0  2.147826086956522 0.1833333333333333 0  1.9 0.2 0  1.883478260869565 0.2 0  1.916521739130435 0.2 0  1.933043478260869 0.2 0  1.949565217391304 0.2 0  1.966086956521739 0.2 0  1.982608695652174 0.2 0  1.999130434782608 0.2 0  2.015652173913043 0.2 0  2.032173913043478 0.2 0  2.048695652173913 0.2 0  2.065217391304348 0.2 0  2.081739130434782 0.2 0  2.098260869565217 0.2 0  2.114782608695652 0.2 0  2.131304347826087 0.2 0  2.147826086956522 0.2 0  2.164347826086956 0.2 0  1.9 0.2166666666666667 0  1.883478260869565 0.2166666666666667 0  1.916521739130435 0.2166666666666667 0  1.933043478260869 0.2166666666666667 0  1.949565217391304 0.2166666666666667 0  1.966086956521739 0.2166666666666667 0  1.982608695652174 0.2166666666666667 0  1.999130434782608 0.2166666666666667 0  2.015652173913043 0.2166666666666667 0  2.032173913043478 0.2166666666666667 0  2.048695652173913 0.2166666666666667 0  2.065217391304348 0.2166666666666667 0  2.081739130434782 0.2166666666666667 0  2.098260869565217 0.2166666666666667 0  2.114782608695652 0.2166666666666667 0  2.131304347826087 0.2166666666666667 0  2.147826086956522 0.2166666666666667 0  2.164347826086956 0.2166666666666667 0  2.180869565217391 0.2166666666666667 0  1.9 0.2333333333333333 0  1.883478260869565 0.2333333333333333 0  1.916521739130435 0.2333333333333333 0  1.933043478260869 0.2333333333333333 0  1.949565217391304 0.2333333333333333 0  1.966086956521739 0.2333333333333333 0  1.982608695652174 0.2333333333333333 0  1.999130434782608 0.2333333333333333 0  2.015652173913043 0.2333333333333333 0  2.032173913043478 0.2333333333333333 0  2.048695652173913 0.2333333333333333 0  2.065217391304348 0.2333333333333333 0  2.081739130434782 0.2333333333333333 0  2.098260869565217 0.2333333333333333 0  2.114782608695652 0.2333333333333333 0  2.131304347826087 0.2333333333333333 0  2.147826086956522 0.2333333333333333 0  2.164347826086956 0.2333333333333333 0  2.180869565217391 0.2333333333333333 0  2.197391304347826 0.2333333333333333 0  1.9 0.25 0  1.916521739130435 0.25 0  1.933043478260869 0.25 0  1.949565217391304 0.25 0  1.966086956521739 0.25 0  1.982608695652174 0.25 0  1.999130434782608 0.25 0  2.015652173913043 0.25 0  2.032173913043478 0.25 0  2.048695652173913 0.25 0  2.065217391304348 0.25 0  2.081739130434782 0.25 0  2.098260869565217 0.25 0  2.114782608695652 0.25 0  2.131304347826087 0.25 0  2.147826086956522 0.25 0  2.164347826086956 0.25 0  2.180869565217391 0.25 0  2.197391304347826 0.25 0  2.213913043478261 0.25 0  1.916521739130435 0.2666666666666667 0  1.9 0.2666666666666667 0  1.933043478260869 0.2666666666666667 0  1.949565217391304 0.2666666666666667 0  1.966086956521739 0.2666666666666667 0  1.982608695652174 0.2666666666666667 0  1.999130434782608 0.2666666666666667 0  2.015652173913043 0.2666666666666667 0  2.032173913043478 0.2666666666666667 0  2.048695652173913 0.2666666666666667 0  2.065217391304348 0.2666666666666667 0  2.081739130434782 0.2666666666666667 0  2.098260869565217 0.2666666666666667 0  2.114782608695652 0.2666666666666667 0  2.131304347826087 0.2666666666666667 0  2.147826086956522 0.2666666666666667 0  2.164347826086956 0.2666666666666667 0  2.180869565217391 0.2666666666666667 0  2.197391304347826 0.2666666666666667 0  2.213913043478261 0.2666666666666667 0  2.230434782608695 0.25 0  2.230434782608695 0.2666666666666667 0  2.24695652173913 0.2666666666666667 0  1.916521739130435 0.2833333333333333 0  1.9 0.2833333333333333 0  1.933043478260869 0.2833333333333333 0  1.949565217391304 0.2833333333333333 0  1.966086956521739 0.2833333333333333 0  1.982608695652174 0.2833333333333333 0  1.999130434782608 0.2833333333333333 0  2.015652173913043 0.2833333333333333 0  2.032173913043478 0.2833333333333333 0  2.048695652173913 0.2833333333333333 0  2.065217391304348 0.2833333333333333 0  2.081739130434782 0.2833333333333333 0  2.098260869565217 0.2833333333333333 0  2.114782608695652 0.2833333333333333 0  2.131304347826087 0.2833333333333333 0  2.147826086956522 0.2833333333333333 0  2.164347826086956 0.2833333333333333 0  2.180869565217391 0.2833333333333333 0  2.197391304347826 0.2833333333333333 0  2.213913043478261 0.2833333333333333 0  2.230434782608695 0.2833333333333333 0  2.24695652173913 0.2833333333333333 0  2.263478260869565 0.2833333333333333 0  1.916521739130435 0.3 0  1.9 0.3 0  1.933043478260869 0.3 0  1.949565217391304 0.3 0  1.966086956521739 0.3 0  1.982608695652174 0.3 0  1.999130434782608 0.3 0  2.015652173913043 0.3 0  2.032173913043478 0.3 0  2.048695652173913 0.3 0  2.065217391304348 0.3 0  2.081739130434782 0.3 0  2.098260869565217 0.3 0  2.114782608695652 0.3 0  2.131304347826087 0.3 0  2.147826086956522 0.3 0  2.164347826086956 0.3 0  2.180869565217391 0.3 0  2.197391304347826 0.3 0  2.213913043478261 0.3 0  2.230434782608695 0.3 0  2.24695652173913 0.3 0  2.263478260869565 0.3 0  2.28 0.3 0  1.916521739130435 0.3166666666666667 0  1.9 0.3166666666666667 0  1.933043478260869 0.3166666666666667 0  1.949565217391304 0.3166666666666667 0  1.966086956521739 0.3166666666666667 0  1.982608695652174 0.3166666666666667 0  1.999130434782608 0.3166666666666667 0  2.015652173913043 0.3166666666666667 0  2.032173913043478 0.3166666666666667 0  2.048695652173913 0.3166666666666667 0  2.065217391304348 0.3166666666666667 0  2.081739130434782 0.3166666666666667 0  2.098260869565217 0.3166666666666667 0  2.114782608695652 0.3166666666666667 0  2.131304347826087 0.3166666666666667 0  2.147826086956522 0.3166666666666667 0  2.164347826086956 0.3166666666666667 0  2.180869565217391 0.3166666666666667 0  2.197391304347826 0.3166666666666667 0  2.213913043478261 0.3166666666666667 0  2.230434782608695 0.3166666666666667 0  2.24695652173913 0.3166666666666667 0  2.263478260869565 0.3166666666666667 0  2.28 0.3166666666666667 0  2.296521739130434 0.3166666666666667 0  1.916521739130435 0.3333333333333333 0  1.9 0.3333333333333333 0  1.933043478260869 0.3333333333333333 0  1.949565217391304 0.3333333333333333 0  1.966086956521739 0.3333333333333333 0  1.982608695652174 0.3333333333333333 0  1.999130434782608 0.3333333333333333 0  2.015652173913043 0.3333333333333333 0  2.032173913043478 0.3333333333333333 0  2.048695652173913 0.3333333333333333 0  2.06521739
[...]
<PointData  Vectors="Displacement"> 
<DataArray  type="Float64"  Name="Displacement"  NumberOfComponents="3" format="ascii">3.1032307116945162e-04 2.2677370406712118e-03 0.0000000000000000e+00  3.1218108806586626e-04 2.2972092095879639e-03 0.0000000000000000e+00  2.8248414392766596e-04 2.2965824645935261e-03 0.0000000000000000e+00  2.8047664415057201e-04 2.2671073699595877e-03 0.0000000000000000e+00  2.8451842029029230e-04 2.3258404170196918e-03 0.0000000000000000e+00  2.5433859153104025e-04 2.2926322800907923e-03 0.0000000000000000e+00  2.5207974765395437e-04 2.2632732435343642e-03 0.0000000000000000e+00  2.5654353580107617e-04 2.3217865131234757e-03 0.0000000000000000e+00  2.5872748692016819e-04 2.3507308472417322e-03 0.0000000000000000e+00  2.2654704542224874e-04 2.2886513292332458e-03 0.0000000000000000e+00  2.2425987582640419e-04 2.2593768374624514e-03 0.0000000000000000e+00  2.2880052480029505e-04 2.3177315798619501e-03 0.0000000000000000e+00  2.3103020909123756e-04 2.3466117390588564e-03 0.0000000000000000e+00  2.3324587846488564e-04 2.3752677429065643e-03 0.0000000000000000e+00  1.9902587779798285e-04 2.2847337359602456e-03 0.0000000000000000e+00  1.9680202649368836e-04 2.2555963510810669e-03 0.0000000000000000e+00  2.0125955756226377e-04 2.3137307015339515e-03 0.0000000000000000e+00  2.0348291344295891e-04 2.3425552422857627e-03 0.0000000000000000e+00  2.0569400387442015e-04 2.3711681450525957e-03 0.0000000000000000e+00  2.0789752294381501e-04 2.3995416891877809e-03 0.0000000000000000e+00  1.7170390990413654e-04 2.2809035282731955e-03 0.0000000000000000e+00  1.6956521459517298e-04 2.2519399120690879e-03 0.0000000000000000e+00  1.7388309560425111e-04 2.3098088298911120e-03 0.0000000000000000e+00  1.7606594833722186e-04 2.3385836764082835e-03 0.0000000000000000e+00  1.7824525673538368e-04 2.3671592411320299e-03 0.0000000000000000e+00  1.8042623664029994e-04 2.3954958577647634e-03 0.0000000000000000e+00  1.8261526188335396e-04 2.4235774827697904e-03 0.0000000000000000e+00  1.4451258517499374e-04 2.2771451384055144e-03 0.0000000000000000e+00  1.4246407084061663e-04 2.2484001574487691e-03 0.0000000000000000e+00  1.4662208005185209e-04 2.3059708840038333e-03 0.0000000000000000e+00  1.4874180232950443e-04 2.3347109660698984e-03 0.0000000000000000e+00  1.5086943066896667e-04 2.3632542743927862e-03 0.0000000000000000e+00  1.5301517426963512e-04 2.3915503273959230e-03 0.0000000000000000e+00  1.5518686692283384e-04 2.4195843220271625e-03 0.0000000000000000e+00  1.5738513833850405e-04 2.4473585632826199e-03 0.0000000000000000e+00  1.1738546662001078e-04 2.2734166130733906e-03 0.0000000000000000e+00  1.1544743637499986e-04 2.2450004748668460e-03 0.0000000000000000e+00  1.1941401966374559e-04 2.3022118586033197e-03 0.0000000000000000e+00  1.2145520657577203e-04 2.3309475783907063e-03 0.0000000000000000e+00  1.2352002676971788e-04 2.3594641613517934e-03 0.0000000000000000e+00  1.2562632906154255e-04 2.3877111215104170e-03 0.0000000000000000e+00  1.2778261054767311e-04 2.4156847633631361e-03 0.0000000000000000e+00  1.2998315453443675e-04 2.4434018890710039e-03 0.0000000000000000e+00  1.5960826844439222e-04 2.4748696978928474e-03 0.0000000000000000e+00  1.3222081695573863e-04 2.4708581686405389e-03 0.0000000000000000e+00  1.6185571021553165e-04 2.5021102935321600e-03 0.0000000000000000e+00  1.3449298063281711e-04 2.4980419003922606e-03 0.0000000000000000e+00  1.6412817235809737e-04 2.5290738433107673e-03 0.0000000000000000e+00  1.3679991828622479e-04 2.5249444304625119e-03 0.0000000000000000e+00  1.6642672067727313e-04 2.5557565033792898e-03 0.0000000000000000e+00  1.3914218333581799e-04 2.5515618616058404e-03 0.0000000000000000e+00  1.6875237138945073e-04 2.5821559972229687e-03 0.0000000000000000e+00  1.4151981058869363e-04 2.5778921844197273e-03 0.0000000000000000e+00  1.4393256356160932e-04 2.6039335581815085e-03 0.0000000000000000e+00  9.0206039406408864e-05 2.2696226142163026e-03 0.0000000000000000e+00  8.8501337707655553e-05 2.2418527349866123e-03 0.0000000000000000e+00  9.2154968849823514e-05 2.2985243090073455e-03 0.0000000000000000e+00  9.4124501414782384e-05 2.3273031260469521e-03 0.0000000000000000e+00  9.6135988331916741e-05 2.3557964248728828e-03 0.0000000000000000e+00  9.8214282328295960e-05 2.3839788493484012e-03 0.0000000000000000e+00  1.0036898539295102e-04 2.4118731248443824e-03 0.0000000000000000e+00  1.0258353027218988e-04 2.4395256724474880e-03 0.0000000000000000e+00  1.0484415928326106e-04 2.4669240973152805e-03 0.0000000000000000e+00  1.0714786597475501e-04 2.4940472303214265e-03 0.0000000000000000e+00  1.0949608744453379e-04 2.5208835304509195e-03 0.0000000000000000e+00  1.1188937730917393e-04 2.5474304086054436e-03 0.0000000000000000e+00  1.1432670341187909e-04 2.5736869830398322e-03 0.0000000000000000e+00  1.1680641301201718e-04 2.5996515552771486e-03 0.0000000000000000e+00  1.1932684458044760e-04 2.6253218646857118e-03 0.0000000000000000e+00  6.2371529197249691e-05 2.2654233284357841e-03 0.0000000000000000e+00  6.2247766656987232e-05 2.2396163900206380e-03 0.0000000000000000e+00  6.4611767719316554e-05 2.2948845887449296e-03 0.0000000000000000e+00  6.6643214737372773e-05 2.3237782460366545e-03 0.0000000000000000e+00  6.8660055401175926e-05 2.3522515567372475e-03 0.0000000000000000e+00  7.0741326339824080e-05 2.3803463596523593e-03 0.0000000000000000e+00  7.2919411743145151e-05 2.4081341869094330e-03 0.0000000000000000e+00  7.5164469720658610e-05 2.4357204505942166e-03 0.0000000000000000e+00  7.7457715752312725e-05 2.4630630510391080e-03 0.0000000000000000e+00  7.9800536144830451e-05 2.4901231190511902e-03 0.0000000000000000e+00  8.2198377469221761e-05 2.5168871769364423e-03 0.0000000000000000e+00  8.4652102713843062e-05 2.5433574387413605e-03 0.0000000000000000e+00  8.7159096465965556e-05 2.5695354524604606e-03 0.0000000000000000e+00  8.9715873275644442e-05 2.5954197172078971e-03 0.0000000000000000e+00  9.2318864452025037e-05 2.6210077151631126e-03 0.0000000000000000e+00  9.4964632211574468e-05 2.6462962363773710e-03 0.0000000000000000e+00  3.6817342873216097e-05 2.2655342191658708e-03 0.0000000000000000e+00  3.6618720619842526e-05 2.2396653362597263e-03 0.0000000000000000e+00  3.6971926832649876e-05 2.2913075175426097e-03 0.0000000000000000e+00  3.9102172084569548e-05 2.3203715816799441e-03 0.0000000000000000e+00  4.1131876176973419e-05 2.3488340480988571e-03 0.0000000000000000e+00  4.3212786952205785e-05 2.3768055454848440e-03 0.0000000000000000e+00  4.5426573828344869e-05 2.4044427831970390e-03 0.0000000000000000e+00  4.7711393013753023e-05 2.4319755175122334e-03 0.0000000000000000e+00  5.0042031788338468e-05 2.4592721780112097e-03 0.0000000000000000e+00  5.2430176717238551e-05 2.4862668708754651e-03 0.0000000000000000e+00  5.4887431456884615e-05 2.5129500667092834e-03 0.0000000000000000e+00  5.7413512506274514e-05 2.5393362440973770e-03 0.0000000000000000e+00  6.0002738268350552e-05 2.5654305767903013e-03 0.0000000000000000e+00  6.2649305777045492e-05 2.5912311306330845e-03 0.0000000000000000e+00  6.5347393922713238e-05 2.6167352838274531e-03 0.0000000000000000e+00  6.8090600057537696e-05 2.6419398723506742e-03 0.0000000000000000e+00  7.0873578123874820e-05 2.6668377426709985e-03 0.0000000000000000e+00  1.1348596538335478e-05 2.2656314690537071e-03 0.0000000000000000e+00  1.1134326681023376e-05 2.2397669374834075e-03 0.0000000000000000e+00  1.1535191037599760e-05 2.2914343622550321e-03 0.0000000000000000e+00  1.1707164180169431e-05 2.3171601603346912e-03 0.0000000000000000e+00  1.3667416933372060e-05 2.3456113984474470e-03 0.0000000000000000e+00  1.5653517888726909e-05 2.3733747433070393e-03 0.0000000000000000e+00  1.7879405924705720e-05 2.4007628451763034e-03 0.0000000000000000e+00  2.0200552934498653e-05 2.4282849265730372e-03 0.0000000000000000e+00  2.2569351859703097e-05 2.4555537959818257e-03 0.0000000000000000e+00  2.5010888637122393e-05 2.4824768860015416e-03 0.0000000000000000e+00  2.7541855742942690e-05 2.5090646525625770e-03 0.0000000000000000e+00  3.0156275098464842e-05 2.5353574665070901e-03 0.0000000000000000e+00  3.2843302580359508e-05 2.5613629328748860e-03 0.0000000000000000e+00  3.5595220671407587e-05 2.5870762722551735e-03 0.0000000000000000e+00  3.8404210782394638e-05 2.6124953609789367e-03 0.0000000000000000e+00  4.1259864789676419e-05 2.6376186585219236e-03 0.0000000000000000e+00  4.4152343954280171e-05 2.6624365543475369e-03 0.0000000000000000e+00  4.7076055528371602e-05 2.6869330057341929e-03 0.0000000000000000e+00  -1.4055423029516046e-05 2.2657326840271040e-03 0.0000000000000000e+00  -1.4283408413955231e-05 2.2398868358992066e-03 0.0000000000000000e+00  -1.3833660191817524e-05 2.2915592235627411e-03 0.0000000000000000e+00  -1.3634941939796097e-05 2.3172861310201531e-03 0.0000000000000000e+00  -1.3463441985737612e-05 2.3427885374056405e-03 0.0000000000000000e+00  -1.1900661115184175e-05 2.3701515037874168e-03 0.0000000000000000e+00  -9.8174028864233021e-06 2.3970151842929756e-03 0.0000000000000000e+00  -7.4426213532685649e-06 2.4246468502986309e-03 0.0000000000000000e+00  -5.0093620169935317e-06 2.4519139712721339e-03 0.0000000000000000e+00  -2.4887583559866350e-06 2.4787500752017355e-03 0.0000000000000000e+00  1.4128007319733211e-07 2.5052183809738636e-03 0.0000000000000000e+00  2.8650658154360255e-06 2.5314083699985316e-03 0.0000000000000000e+00  5.6673124390643472e-06 2.5573208436501702e-03 0.0000000000000000e+00  8.5421461280568803e-06 2.5829427115901453e-03 0.0000000000000000e+00  1.1481352990536265e-05 2.6082748546373143e-03 0.0000000000000000e+00  1.4468846652888498e-05 2.6333213429311202e-03 0.0000000000000000e+00  1.7488025615867513e-05 2.6580691380792281e-03 0.0000000000000000e+00  2.0528251422338885e-05 2.6824939628082721e-03 0.0000000000000000e+00  2.3587692942661743e-05 2.7065683450839301e-03 0.0000000000000000e+00  -3.9474986779932433e-05 2.2657994981385315e-03 0.0000000000000000e+00  -3.9625061806799927e-05 2.2400550731430631e-03 0.0000000000000000e+00  -3.9148005762540122e-05 2.2916795927806423e-03 0.0000000000000000e+00  -3.8869805429818872e-05 2.3173983305623774e-03 0.0000000000000000e+00  -3.8659618944947090e-05 2.3428562886111406e-03 0.0000000000000000e+00  -3.8500914467848885e-05 2.3680216436527341e-03 0.0000000000000000e+00  -3.8432925538231973e-05 2.3928416964665842e-03 0.0000000000000000e+00  -3.5426515226269691e-05 2.4210309037063309e-03 0.0000000000000000e+00  -3.2742359326333376e-05 2.4483513205634916e-03 0.0000000000000000e+00  -3.0078233002413437e-05 2.4750782707105429e-03 0.0000000000000000e+00  -2.7317441305713160e-05 2.5013912644365950e-03 0.0000000000000000e+00  -2.4466966028983961e-05 2.5274743677048670e-03 0.0000000000000000e+00  -2.1537032574588782e-05 2.5532923956160039e-03 0.0000000000000000e+00  -1.8522728358666399e-05 2.5788153539841874e-03 0.0000000000000000e+00  -1.5430466855895644e-05 2.6040554519508670e-03 0.0000000000000000e+00  -1.2286153228464943e-05 2.6290313643393252e-03 0.0000000000000000e+00  -9.1171094290579046e-06 2.6537238651736460e-03 0.0000000000000000e+00  -5.9413477566614372e-06 2.6780958267764734e-03 0.0000000000000000e+00  -2.7642043819487691e-06 2.7021054293670413e-03 0.0000000000000000e+00  4.2079434208985042e-07 2.7257186118415867e-03 0.0000000000000000e+00  -6.1715287442793147e-05 2.2713624341368422e-03 0.0000000000000000e+00  -6.4225176070611693e-05 2.2917915104269907e-03 0.0000000000000000e+00  -6.3844158561518157e-05 2.3175475169565181e-03 0.0000000000000000e+00  -6.3558680909212115e-05 2.3429598070463927e-03 0.0000000000000000e+00  -6.3341011540306568e-05 2.3680770106582994e-03 0.0000000000000000e+00  -6.3197282547575233e-05 2.3929105753971174e-03 0.0000000000000000e+00  -6.3102322163028059e-05 2.4174654241133960e-03 0.0000000000000000e+00  -6.0317254751240033e-05 2.4448982833518416e-03 0.0000000000000000e+00  -5.7627649138560188e-05 2.4714747998721663e-03 0.0000000000000000e+00  -5.4793380391145627e-05 2.4975636655058583e-03 0.0000000000000000e+00  -5.1838569487536725e-05 2.5235471860763198e-03 0.0000000000000000e+00  -4.8786249359609184e-05 2.5492705539925061e-03 0.0000000000000000e+00  -4.5619432204248747e-05 2.5746768016322017e-03 0.0000000000000000e+00  -4.2345778529168469e-05 2.5998110843352233e-03 0.0000000000000000e+00  -3.9011583161969170e-05 2.6247246083241841e-03 0.0000000000000000e+00  -3.5661292453831629e-05 2.6493831229667244e-03 0.0000000000000000e+00  -3.2323121101388786e-05 2.6737291212214857e-03 0.0000000000000000e+00  -2.9006933358888387e-05 2.6976996782570057e-03 0.0000000000000000e+00  -2.5707160897320599e-05 2.7212447753332566e-03 0.0000000000000000e+00  -2.2406821390217116e-05 2.7443354343164349e-03 0.0000000000000000e+00  -8.5204374258798058e-05 2.2985144610730718e-03 0.0000000000000000e+00  -8.1929776366587766e-05 2.2787561962634212e-03 0.0000000000000000e+00  -8.8472028287549009e-05 2.3177330131708318e-03 0.0000000000000000e+00  -8.8153310719307212e-05 2.3431182379552041e-03 0.0000000000000000e+00  -8.7874748457792237e-05 2.3681828078321891e-03 0.0000000000000000e+00  -8.7654063983814637e-05 2.3929853328056032e-03 0.0000000000000000e+00  -8.7510217100223453e-05 2.4175456392456687e-03 0.0000000000000000e+00  -8.7415751672927382e-05 2.4418017549288503e-03 0.0000000000000000e+00  -8.5019591274228465e-05 2.4680796439679963e-03 0.0000000000000000e+00  -8.2336237736744373e-05 2.4937227712851025e-03 0.0000000000000000e+00  -7.9308197593279419e-05 2.5196315421669477e-03 0.0000000000000000e+00  -7.6130203372904513e-05 2.5452565623699879e-03 0.0000000000000000e+00  -7.2786869308949346e-05 2.5705047169534562e-03 0.0000000000000000e+00  -6.9289343038564331e-05 2.5955022244017259e-03 0.0000000000000000e+00  -6.5719895016355854e-05 2.6203661039213132e-03 0.0000000000000000e+00  -6.2146024687460502e-05 2.6450210784853493e-03 0.0000000000000000e+00  -5.8607962238490429e-05 2.6693784549124563e-03 0.0000000000000000e+00  -5.5120420854398742e-05 2.6933448595871917e-03 0.0000000000000000e+00  -5.1679121957417924e-05 2.7168497236151846e-03 0.0000000000000000e+00  -4.8266571326984774e-05 2.7398509472391776e-03 0.0000000000000000e+00  -1.9080701477594138e-05 2.7669670058767821e-03 0.0000000000000000e+00  -4.4853572103167214e-05 2.7623353891556425e-03 0.0000000000000000e+00  -4.1401418763099466e-05 2.7843242556222030e-03 0.0000000000000000e+00  -1.0534141280362859e-04 2.3057344070059223e-03 0.0000000000000000e+00  -1.0183602631007408e-04 2.2864418157271652e-03 0.0000000000000000e+00  -1.0877754202576474e-04 2.3247615901107843e-03 0.0000000000000000e+00  -1.1236959958314676e-04 2.3433657701296905e-03 0.0000000000000000e+00  -1.1212750496462240e-04 2.3683379664664822e-03 0.0000000000000000e+00  -1.1184923636053564e-04 2.3930886226893105e-03 0.0000000000000000e+00  -1.1162127706926748e-04 2.4176518243541243e-03 0.0000000000000000e+00  -1.1146689078108719e-04 2.4418877059266394e-03 0.0000000000000000e+00  -1.1139254892713342e-04 2.4656296664428965e-03 0.0000000000000000e+00  -1.1058852756967971e-04 2.4896823884651884e-03 0.0000000000000000e+00  -1.0708481220951569e-04 2.5156997039880629e-03 0.0000000000000000e+00  -1.0364337427884453e-04 2.5412511332854743e-03 0.0000000000000000e+00  -1.0006821248059855e-04 2.5662650176265559e-03 0.0000000000000000e+00  -9.6290872184143553e-05 2.5910665788813035e-03 0.0000000000000000e+00  -9.2431488822714345e-05 2.6159069228443134e-03 0.0000000000000000e+00  -8.8580395142005104e-05 2.6406014029140864e-03 0.0000000000000000e+00  -8.4791627060605408e-05 2.6650206577481018e-03 0.0000000000000000e+00  -8.1085350327467123e-05 2.6890279095064286e-03 0.0000000000000000e+00  -7.7459215293385921e-05 2.7125288475235466e-03 0.0000000000000000e+00  -7.3897457533633295e-05 2.7354658941980956e-03 0.0000000000000000e+00  -7.0367884192395921e-05 2.7578098310586858e-03 0.0000000000000000e+00  -6.6815128368878031e-05 2.7795688001290477e-03 0.0000000000000000e+00  -6.3172458905010954e-05 2.8008141446908474e-03 0.0000000000000000e+00  -1.2503326087050419e-04 2.3131242966229482e-03 0.0000000000000000e+00  -1.2150495139876827e-04 2.2941794697776217e-03 0.0000000000000000e+00  -1.2847551652054692e-04 2.3319623961391873e-03 0.0000000000000000e+00  -1.3198265489965076e-04 2.3506242316753256e-03 0.0000000000000000e+00  -1.3592805497642752e-04 2.3687946099344207e-03 0.0000000000000000e+00  -1.3589033625523969e-04 2.3931632719275432e-03 0.0000000000000000e+00  -1.3547068692204784e-04 2.4177853035318776e-03 0.0000000000000000e+00  -1.3514911764418984e-04 2.4419801788103236e-03 0.0000000000000000e+00  -1.3495380739574130e-04 2.4656781472926288e-03 0.0000000000000000e+00  -1.3487099920317169e-04 2.4889123905460662e-03 0.0000000000000000e+00  -1.3486237477372567e-04 2.5116638335001117e-03 0.0000000000000000e+00  -1.3111294704487326e-04 2.5372966084539115e-03 0.0000000000000000e+00  -1.2740665578152649e-04 2.5619348348057346e-03 0.0000000000000000e+00  -1.2337558277807588e-04 2.5864143060452503e-03 0.0000000000000000e+00  -1.1918958509430950e-04 2.6112847638199471e-03 0.0000000000000000e+00  -1.1499428002445473e-04 2.6360743742113160e-03 0.0000000000000000e+00  -1.1088294926206907e-04 2.6606227530848675e-03 0.0000000000000000e+00  -1.0688906093078089e-04 2.6847261690730664e-03 0.0000000000000000e+00  -1.0301241142471901e-04 2.7082683833528401e-03 0.0000000000000000e+00  -9.9242485143419696e-05 2.7311780549409107e-03 0.0000000000000000e+00  -9.5549137724140282e-05 2.7533983095826700e-03 0.0000000000000000e+00  -9.1858405053010827e-05 2.7748948055432324e-03 0.0000000000000000e+00  -8.8037177188620246e-05 2.7957272857026222e-03 0.0000000000000000e+00  -8.4227571626977922e-05 2.8164895712635076e-03 0.0000000000000000e+00  -1.4441349084004678e-04 2.3205228228080671e-03 0.0000000000000000e+00  -1.4094767970467280e-04 2.3018894186518008e-03 0.0000000000000000e+00  -1.4775009925236578e-04 2.3391363770274569e-03 0.0000000000000000e+00  -1.5099198855667565e-04 2.3577612780885425e-03 0.0000000000000000e+00  -1.5416082892121224e-04 2.3766006715373175e-03 0.0000000000000000e+00  -1.5687428589865893e-04 2.3975494224700838e-03 0.0000000000000000e+00  -1.5879107160979002e-04 2.4179431528129074e-03 0.0000000000000000e+00  -1.5834642961633599e-04 2.4421414297915393e-03 0.0000000000000000e+00  -1.5801832210876862e-04 2.4657791516157694e-03 0.0000000000000000e+00  -1.5780786598554512e-04 2.4889567464124970e-03 0.0000000000000000e+00  -1.5773651611646495e-04 2.5116868510516505e-03 0.0000000000000000e+00  -1.5780499748049915e-04 2.5337536166569921e-03 0.0000000000000000e+00  -1.5462281068547690e-04 2.5576648126343009e-03 0.0000000000000000e+00  -1.5074087627034075e-04 2.5814124498801986e-03 0.0000000000000000e+00  -1.4616375705893138e-04 2.6064152059468784e-03 0.0000000000000000e+00  -1.4147530990354460e-04 2.6313622721188903e-03 0.0000000000000000e+00  -1.3691124166897688e-04 2.6561373519543982e-03 0.0000000000000000e+00  -1.3252681598452628e-04 2.6804050010616112e-03 0.0000000000000000e+00  -1.2830947624104531e-04 2.7040409926531624e-03 0.0000000000000000e+00  -1.2424577957812147e-04 2.7269773624884418e-03 0.0000000000000000e+00  -1.2031972372153594e-04 2.7491160162057544e-03 0.0000000000000000e+00  -1.1644244447754469e-04 2.7703339698826285e-03 0.0000000000000000e+00  -1.1242168478906772e-04 2.7905743469358773e-03 0.0000000000000000e+00  -1.0852228684344245e-04 2.8113051436616165e-03 0.0000000000000000e+00  -1.0600565546802367e-04 2.8327812686566619e-03 0.0000000000000000e+00  -1.6362242102988230e-04 2.3278949103406484e-03 0.0000000000000000e+00  -1.6020210873387081e-04 2.3095585944568849e-03 0.0000000000000000e+00  -1.6692252985068672e-04 2.3462568120527980e-03 0.0000000000000000e+00  -1.7012195899130666e-04 2.3647168648212816e-03 0.0000000000000000e+00  -1.7323305139677555e-04 2.3834920564454807e-03 0.0000000000000000e+00  -1.7613994123922078e-04 2.4032286100217665e-03 0.0000000000000000e+00  -1.7859442212305135e-04 2.4229092560094107e-03 0.0000000000000000e+00  -1.8098803881269967e-04 2.4423549859803927e-03 0.000000