<?xml version="1.0"?>
<VTKFile type="UnstructuredGrid"  version="0.1"  >
<UnstructuredGrid>
<Piece  NumberOfPoints="611" NumberOfCells="1123">
<Points>
<DataArray  type="Float64"  NumberOfComponents="3"  format="ascii">1.883478260869565 0.01666666666666667 0  1.9 0.01666666666666667 0  1.9 0.03333333333333333 0  1.883478260869565 0.03333333333333333 0  1.916521739130435 0.03333333333333333 0  1.9 0.05 0  1.883478260869565 0.05 0  1.916521739130435 0.05 0  1.933043478260869 0.05 0  1.9 0.06666666666666667 0  1.883478260869565 0.06666666666666667 0  1.916521739130435 0.06666666666666667 0  1.933043478260869 0.06666666666666667 0  1.949565217391304 0.06666666666666667 0  1.9 0.08333333333333333 0  1.883478260869565 0.08333333333333333 0  1.916521739130435 0.08333333333333333 0  1.933043478260869 0.08333333333333333 0  1.949565217391304 0.08333333333333333 0  1.966086956521739 0.08333333333333333 0  1.9 0.1 0  1.883478260869565 0.1 0  1.916521739130435 0.1 0  1.933043478260869 0.1 0  1.949565217391304 0.1 0  1.966086956521739 0.1 0  1.982608695652174 0.1 0  1.9 0.1166666666666667 0  1.883478260869565 0.1166666666666667 0  1.916521739130435 0.1166666666666667 0  1.933043478260869 0.1166666666666667 0  1.949565217391304 0.1166666666666667 0  1.966086956521739 0.1166666666666667 0  1.982608695652174 0.1166666666666667 0  1.999130434782608 0.1166666666666667 0  1.9 0.1333333333333333 0  1.883478260869565 0.1333333333333333 0  1.916521739130435 0.1333333333333333 0  1.933043478260869 0.1333333333333333 0  1.949565217391304 0.1333333333333333 0  1.966086956521739 0.1333333333333333 0  1.982608695652174 0.1333333333333333 0  1.999130434782608 0.1333333333333333 0  2.015652173913043 0.1166666666666667 0  2.015652173913043 0.1333333333333333 0  2.032173913043478 0.1166666666666667 0  2.032173913043478 0.1333333333333333 0  2.048695652173913 0.1166666666666667 0  2.048695652173913 0.1333333333333333 0  2.065217391304348 0.1166666666666667 0  2.065217391304348 0.1333333333333333 0  2.081739130434782 0.1166666666666667 0  2.081739130434782 0.1333333333333333 0  2.098260869565217 0.1333333333333333 0  1.9 0.15 0  1.883478260869565 0.15 0  1.916521739130435 0.15 0  1.933043478260869 0.15 0  1.949565217391304 0.15 0  1.966086956521739 0.15 0  1.982608695652174 0.15 0  1.999130434782608 0.15 0  2.015652173913043 0.15 0  2.032173913043478 0.15 0  2.048695652173913 0.15 0  2.065217391304348 0.15 0  2.081739130434782 0.15 0  2.098260869565217 0.15 0  2.114782608695652 0.15 0  1.9 0.1666666666666667 0  1.883478260869565 0.1666666666666667 0  1.916521739130435 0.1666666666666667 0  1.933043478260869 0.1666666666666667 0  1.949565217391304 0.1666666666666667 0  1.966086956521739 0.1666666666666667 0  1.982608695652174 0.1666666666666667 0  1.999130434782608 0.1666666666666667 0  2.015652173913043 0.1666666666666667 0  2.032173913043478 0.1666666666666667 0  2.048695652173913 0.1666666666666667 0  2.065217391304348 0.1666666666666667 0  2.081739130434782 0.1666666666666667 0  2.098260869565217 0.1666666666666667 0  2.114782608695652 0.1666666666666667 0  2.131304347826087 0.1666666666666667 0  1.9 0.1833333333333333 0  1.883478260869565 0.1833333333333333 0  1.916521739130435 0.1833333333333333 0  1.933043478260869 0.1833333333333333 0  1.949565217391304 0.1833333333333333 0  1.966086956521739 0.1833333333333333 0  1.982608695652174 0.1833333333333333 0  1.999130434782608 0.1833333333333333 0  2.015652173913043 0.1833333333333333 0  2.032173913043478 0.1833333333333333 0  2.048695652173913 0.1833333333333333 0  2.065217391304348 0.1833333333333333 0  2.081739130434782 0.1833333333333333 0  2.098260869565217 0.1833333333333333 0  2.114782608695652 0.1833333333333333 0  2.131304347826087 0.1833333333333333 0  2.147826086956522 0.1833333333333333 0  1.9 0.2 0  1.883478260869565 0.2 0  1.916521739130435 0.2 0  1.933043478260869 0.2 0  1.949565217391304 0.2 0  1.966086956521739 0.2 0  1.982608695652174 0.2 0  1.999130434782608 0.2 0  2.015652173913043 0.2 0  2.032173913043478 0.2 0  2.048695652173913 0.2 0  2.065217391304348 0.2 0  2.081739130434782 0.2 0  2.098260869565217 0.2 0  2.114782608695652 0.2 0  2.131304347826087 0.2 0  2.147826086956522 0.2 0  2.164347826086956 0.2 0  1.9 0.2166666666666667 0  1.883478260869565 0.2166666666666667 0  1.916521739130435 0.2166666666666667 0  1.933043478260869 0.2166666666666667 0  1.949565217391304 0.2166666666666667 0  1.966086956521739 0.2166666666666667 0  1.982608695652174 0.2166666666666667 0  1.999130434782608 0.2166666666666667 0  2.015652173913043 0.2166666666666667 0  2.032173913043478 0.2166666666666667 0  2.048695652173913 0.2166666666666667 0  2.065217391304348 0.2166666666666667 0  2.081739130434782 0.2166666666666667 0  2.098260869565217 0.2166666666666667 0  2.114782608695652 0.2166666666666667 0  2.131304347826087 0.2166666666666667 0  2.147826086956522 0.2166666666666667 0  2.164347826086956 0.2166666666666667 0  2.180869565217391 0.2166666666666667 0  1.9 0.2333333333333333 0  1.883478260869565 0.2333333333333333 0  1.916521739130435 0.2333333333333333 0  1.933043478260869 0.2333333333333333 0  1.949565217391304 0.2333333333333333 0  1.966086956521739 0.2333333333333333 0  1.982608695652174 0.2333333333333333 0  1.999130434782608 0.2333333333333333 0  2.015652173913043 0.2333333333333333 0  2.032173913043478 0.2333333333333333 0  2.048695652173913 0.2333333333333333 0  2.065217391304348 0.2333333333333333 0  2.081739130434782 0.2333333333333333 0  2.098260869565217 0.2333333333333333 0  2.114782608695652 0.2333333333333333 0  2.131304347826087 0.2333333333333333 0  2.147826086956522 0.2333333333333333 0  2.164347826086956 0.2333333333333333 0  2.180869565217391 0.2333333333333333 0  2.197391304347826 0.2333333333333333 0  1.9 0.25 0  1.916521739130435 0.25 0  1.933043478260869 0.25 0  1.949565217391304 0.25 0  1.966086956521739 0.25 0  1.982608695652174 0.25 0  1.999130434782608 0.25 0  2.015652173913043 0.25 0  2.032173913043478 0.25 0  2.048695652173913 0.25 0  2.065217391304348 0.25 0  2.081739130434782 0.25 0  2.098260869565217 0.25 0  2.114782608695652 0.25 0  2.131304347826087 0.25 0  2.147826086956522 0.25 0  2.164347826086956 0.25 0  2.180869565217391 0.25 0  2.197391304347826 0.25 0  2.213913043478261 0.25 0  1.916521739130435 0.2666666666666667 0  1.9 0.2666666666666667 0  1.933043478260869 0.2666666666666667 0  1.949565217391304 0.2666666666666667 0  1.966086956521739 0.2666666666666667 0  1.982608695652174 0.2666666666666667 0  1.999130434782608 0.2666666666666667 0  2.015652173913043 0.2666666666666667 0  2.032173913043478 0.2666666666666667 0  2.048695652173913 0.2666666666666667 0  2.065217391304348 0.2666666666666667 0  2.081739130434782 0.2666666666666667 0  2.098260869565217 0.2666666666666667 0  2.114782608695652 0.2666666666666667 0  2.131304347826087 0.2666666666666667 0  2.147826086956522 0.2666666666666667 0  2.164347826086956 0.2666666666666667 0  2.180869565217391 0.2666666666666667 0  2.197391304347826 0.2666666666666667 0  2.213913043478261 0.2666666666666667 0  2.230434782608695 0.25 0  2.230434782608695 0.2666666666666667 0  2.24695652173913 0.2666666666666667 0  1.916521739130435 0.2833333333333333 0  1.9 0.2833333333333333 0  1.933043478260869 0.2833333333333333 0  1.949565217391304 0.2833333333333333 0  1.966086956521739 0.2833333333333333 0  1.982608695652174 0.2833333333333333 0  1.999130434782608 0.2833333333333333 0  2.015652173913043 0.2833333333333333 0  2.032173913043478 0.2833333333333333 0  2.048695652173913 0.2833333333333333 0  2.065217391304348 0.2833333333333333 0  2.081739130434782 0.2833333333333333 0  2.098260869565217 0.2833333333333333 0  2.114782608695652 0.2833333333333333 0  2.131304347826087 0.2833333333333333 0  2.147826086956522 0.2833333333333333 0  2.164347826086956 0.2833333333333333 0  2.180869565217391 0.2833333333333333 0  2.197391304347826 0.2833333333333333 0  2.213913043478261 0.2833333333333333 0  2.230434782608695 0.2833333333333333 0  2.24695652173913 0.2833333333333333 0  2.263478260869565 0.2833333333333333 0  1.916521739130435 0.3 0  1.9 0.3 0  1.933043478260869 0.3 0  1.949565217391304 0.3 0  1.966086956521739 0.3 0  1.982608695652174 0.3 0  1.999130434782608 0.3 0  2.015652173913043 0.3 0  2.032173913043478 0.3 0  2.048695652173913 0.3 0  2.065217391304348 0.3 0  2.081739130434782 0.3 0  2.098260869565217 0.3 0  2.114782608695652 0.3 0  2.131304347826087 0.3 0  2.147826086956522 0.3 0  2.164347826086956 0.3 0  2.180869565217391 0.3 0  2.197391304347826 0.3 0  2.213913043478261 0.3 0  2.230434782608695 0.3 0  2.24695652173913 0.3 0  2.263478260869565 0.3 0  2.28 0.3 0  1.916521739130435 0.3166666666666667 0  1.9 0.3166666666666667 0  1.933043478260869 0.3166666666666667 0  1.949565217391304 0.3166666666666667 0  1.966086956521739 0.3166666666666667 0  1.982608695652174 0.3166666666666667 0  1.999130434782608 0.3166666666666667 0  2.015652173913043 0.3166666666666667 0  2.032173913043478 0.3166666666666667 0  2.048695652173913 0.3166666666666667 0  2.065217391304348 0.3166666666666667 0  2.081739130434782 0.3166666666666667 0  2.098260869565217 0.3166666666666667 0  2.114782608695652 0.3166666666666667 0  2.131304347826087 0.3166666666666667 0  2.147826086956522 0.3166666666666667 0  2.164347826086956 0.3166666666666667 0  2.180869565217391 0.3166666666666667 0  2.197391304347826 0.3166666666666667 0  2.213913043478261 0.3166666666666667 0  2.230434782608695 0.3166666666666667 0  2.24695652173913 0.3166666666666667 0  2.263478260869565 0.3166666666666667 0  2.28 0.3166666666666667 0  2.296521739130434 0.3166666666666667 0  1.916521739130435 0.3333333333333333 0  1.9 0.3333333333333333 0  1.933043478260869 0.3333333333333333 0  1.949565217391304 0.3333333333333333 0  1.966086956521739 0.3333333333333333 0  1.982608695652174 0.3333333333333333 0  1.999130434782608 0.3333333333333333 0  2.015652173913043 0.3333333333333333 0  2.032173913043478 0.3333333333333333 0  2.048695652173913 0.3333333333333333 0  2.06521739
[...]
<PointData  Vectors="Displacement"> 
<DataArray  type="Float64"  Name="Displacement"  NumberOfComponents="3" format="ascii">2.8586919211348919e-04 1.8676979623226861e-03 0.0000000000000000e+00  2.8692405185601599e-04 1.8955126437775085e-03 0.0000000000000000e+00  2.5876623137699472e-04 1.8951990322477439e-03 0.0000000000000000e+00  2.5875777072752247e-04 1.8674048816699270e-03 0.0000000000000000e+00  2.5882138938582768e-04 1.9240187952953305e-03 0.0000000000000000e+00  2.3775537144115065e-04 1.8887894762108759e-03 0.0000000000000000e+00  2.3766437317554459e-04 1.8618821554312679e-03 0.0000000000000000e+00  2.3796573221320205e-04 1.9167608152395237e-03 0.0000000000000000e+00  2.3828161514980443e-04 1.9457690797639348e-03 0.0000000000000000e+00  2.1814779995436503e-04 1.8819594593175813e-03 0.0000000000000000e+00  2.1801705591655343e-04 1.8559598497346801e-03 0.0000000000000000e+00  2.1844774894891339e-04 1.9090539489379857e-03 0.0000000000000000e+00  2.1889283736399964e-04 1.9372544815276166e-03 0.0000000000000000e+00  2.1946054195831882e-04 1.9665215426789909e-03 0.0000000000000000e+00  1.9983926606688716e-04 1.8747294182182184e-03 0.0000000000000000e+00  1.9969750380454765e-04 1.8496597161416161e-03 0.0000000000000000e+00  2.0017929939903417e-04 1.9009208441375710e-03 0.0000000000000000e+00  2.0068143859453263e-04 1.9283099060703661e-03 0.0000000000000000e+00  2.0131788394586606e-04 1.9568367774303241e-03 0.0000000000000000e+00  2.0209836735345652e-04 1.9864061269907374e-03 0.0000000000000000e+00  1.8279840564170753e-04 1.8671205355120109e-03 0.0000000000000000e+00  1.8270012602931938e-04 1.8429706099463228e-03 0.0000000000000000e+00  1.8311681488747655e-04 1.8923742355190874e-03 0.0000000000000000e+00  1.8359445079562512e-04 1.9189700811413359e-03 0.0000000000000000e+00  1.8419580867169220e-04 1.9467779374525600e-03 0.0000000000000000e+00  1.8496327548897710e-04 1.9756311647339776e-03 0.0000000000000000e+00  1.8592443723872650e-04 2.0055343029103533e-03 0.0000000000000000e+00  1.6702927141039973e-04 1.8591843192238425e-03 0.0000000000000000e+00  1.6707505824250946e-04 1.8358625332693889e-03 0.0000000000000000e+00  1.6724523614046664e-04 1.8834197979182875e-03 0.0000000000000000e+00  1.6759628512103992e-04 1.9092808652171999e-03 0.0000000000000000e+00  1.6803197371715925e-04 1.9364191081433352e-03 0.0000000000000000e+00  1.6866643637090950e-04 1.9645303425078952e-03 0.0000000000000000e+00  1.6954503874130008e-04 1.9937247403642557e-03 0.0000000000000000e+00  1.7069089262035971e-04 2.0239858263976099e-03 0.0000000000000000e+00  1.5255147261602483e-04 1.8510530216861369e-03 0.0000000000000000e+00  1.5291735195529141e-04 1.8282211272388476e-03 0.0000000000000000e+00  1.5256447476402161e-04 1.8740327804922336e-03 0.0000000000000000e+00  1.5265546940342522e-04 1.8993128988287805e-03 0.0000000000000000e+00  1.5275073623018061e-04 1.9258730954241094e-03 0.0000000000000000e+00  1.5312002415508686e-04 1.9531693813796252e-03 0.0000000000000000e+00  1.5380631963514386e-04 1.9816155818395786e-03 0.0000000000000000e+00  1.5484380264011547e-04 2.0111347101800119e-03 0.0000000000000000e+00  1.7208245590354519e-04 2.0553865155190677e-03 0.0000000000000000e+00  1.5618708781229689e-04 2.0419127974240269e-03 0.0000000000000000e+00  1.7368484330677962e-04 2.0879210394253375e-03 0.0000000000000000e+00  1.5778956725094308e-04 2.0739218232800408e-03 0.0000000000000000e+00  1.7545170204047558e-04 2.1215846471219053e-03 0.0000000000000000e+00  1.5958899447839986e-04 2.1071809727270250e-03 0.0000000000000000e+00  1.7733265440133809e-04 2.1563420011274760e-03 0.0000000000000000e+00  1.6151794154092177e-04 2.1416515889705686e-03 0.0000000000000000e+00  1.7928512304062169e-04 2.1921272621506374e-03 0.0000000000000000e+00  1.6352488307255558e-04 2.1772456731877971e-03 0.0000000000000000e+00  1.6557668109677315e-04 2.2138630648426017e-03 0.0000000000000000e+00  1.3940950645837768e-04 1.8430951725402918e-03 0.0000000000000000e+00  1.4083521633680892e-04 1.8197300897858175e-03 0.0000000000000000e+00  1.3907520496658099e-04 1.8640811608871329e-03 0.0000000000000000e+00  1.3871446240981355e-04 1.8891903661849270e-03 0.0000000000000000e+00  1.3822958613673390e-04 1.9153199836255163e-03 0.0000000000000000e+00  1.3821233144894942e-04 1.9416038199683719e-03 0.0000000000000000e+00  1.3860506678980720e-04 1.9692652733750513e-03 0.0000000000000000e+00  1.3946333560777742e-04 1.9979303324892533e-03 0.0000000000000000e+00  1.4068864226862097e-04 2.0280565607736366e-03 0.0000000000000000e+00  1.4222875512694423e-04 2.0595053894058007e-03 0.0000000000000000e+00  1.4400139779843890e-04 2.0923584684513627e-03 0.0000000000000000e+00  1.4591517935333466e-04 2.1265658235173714e-03 0.0000000000000000e+00  1.4791097505942522e-04 2.1619983306545403e-03 0.0000000000000000e+00  1.4995870026754813e-04 2.1985246588020588e-03 0.0000000000000000e+00  1.5203402426498450e-04 2.2360494208877530e-03 0.0000000000000000e+00  1.2638434699992069e-04 1.8360801338129034e-03 0.0000000000000000e+00  1.2572450158567893e-04 1.8197288319621843e-03 0.0000000000000000e+00  1.2671702118426117e-04 1.8531050477603866e-03 0.0000000000000000e+00  1.2556731379478558e-04 1.8791585621394254e-03 0.0000000000000000e+00  1.2422657681894215e-04 1.9050428297487144e-03 0.0000000000000000e+00  1.2380999212701640e-04 1.9298210307432651e-03 0.0000000000000000e+00  1.2383675549195274e-04 1.9567463391769505e-03 0.0000000000000000e+00  1.2447129818931793e-04 1.9843513593445468e-03 0.0000000000000000e+00  1.2550755631104542e-04 2.0138301534525452e-03 0.0000000000000000e+00  1.2692502840267345e-04 2.0446587850009648e-03 0.0000000000000000e+00  1.2861531435663426e-04 2.0771098229054549e-03 0.0000000000000000e+00  1.3044993627612546e-04 2.1110937841270503e-03 0.0000000000000000e+00  1.3236733015723552e-04 2.1464033813849035e-03 0.0000000000000000e+00  1.3435083196400665e-04 2.1828635618406089e-03 0.0000000000000000e+00  1.3637752366217306e-04 2.2203855554882249e-03 0.0000000000000000e+00  1.3840868825388996e-04 2.2588913592963425e-03 0.0000000000000000e+00  1.1091907845154459e-04 1.8360743785582640e-03 0.0000000000000000e+00  1.1042164691839741e-04 1.8197625978039205e-03 0.0000000000000000e+00  1.1150066365355309e-04 1.8526988150250080e-03 0.0000000000000000e+00  1.1213785794518311e-04 1.8696229554182845e-03 0.0000000000000000e+00  1.1027875482704633e-04 1.8954244352540816e-03 0.0000000000000000e+00  1.0987818590463582e-04 1.9175890811957382e-03 0.0000000000000000e+00  1.0946116380300634e-04 1.9442050024818553e-03 0.0000000000000000e+00  1.0983763896740752e-04 1.9703099938186259e-03 0.0000000000000000e+00  1.1057176168293963e-04 1.9992721292237552e-03 0.0000000000000000e+00  1.1179503753866712e-04 2.0293466430593649e-03 0.0000000000000000e+00  1.1334695871755246e-04 2.0614166678838042e-03 0.0000000000000000e+00  1.1503118614146485e-04 2.0952471877255822e-03 0.0000000000000000e+00  1.1679711232596972e-04 2.1304826217413879e-03 0.0000000000000000e+00  1.1866097315822282e-04 2.1668916871242184e-03 0.0000000000000000e+00  1.2059924970095496e-04 2.2044306832794732e-03 0.0000000000000000e+00  1.2254674250284313e-04 2.2430473072986615e-03 0.0000000000000000e+00  1.2445643931470641e-04 2.2825883236058334e-03 0.0000000000000000e+00  9.5150656810450167e-05 1.8360849939018629e-03 0.0000000000000000e+00  9.4795800643106165e-05 1.8197617897333764e-03 0.0000000000000000e+00  9.5598874791650456e-05 1.8527096711717576e-03 0.0000000000000000e+00  9.6142147501678855e-05 1.8696377419228718e-03 0.0000000000000000e+00  9.6753584199586520e-05 1.8868752520591831e-03 0.0000000000000000e+00  9.7379991453180219e-05 1.9042755115502997e-03 0.0000000000000000e+00  9.5647576027912626e-05 1.9321230743119065e-03 0.0000000000000000e+00  9.5617458558370437e-05 1.9555687552393467e-03 0.0000000000000000e+00  9.5792349391176724e-05 1.9845328872019076e-03 0.0000000000000000e+00  9.6727464053394274e-05 2.0134838296912310e-03 0.0000000000000000e+00  9.8087183863660677e-05 2.0452485551631931e-03 0.0000000000000000e+00  9.9536508143022767e-05 2.0790501139708512e-03 0.0000000000000000e+00  1.0106983634172835e-04 2.1142669569959834e-03 0.0000000000000000e+00  1.0277155696901841e-04 2.1506099246897748e-03 0.0000000000000000e+00  1.0460495064529823e-04 2.1881735755396843e-03 0.0000000000000000e+00  1.0644667919843286e-04 2.2269609925778806e-03 0.0000000000000000e+00  1.0822280947927374e-04 2.2667436797037198e-03 0.0000000000000000e+00  1.0993005834946819e-04 2.3072794409539333e-03 0.0000000000000000e+00  7.9085230318055717e-05 1.8360867336374366e-03 0.0000000000000000e+00  7.8874424805064041e-05 1.8197837192569215e-03 0.0000000000000000e+00  7.9396080914620866e-05 1.8527133729193323e-03 0.0000000000000000e+00  7.9785694795683792e-05 1.8696534473875729e-03 0.0000000000000000e+00  8.0241542492106907e-05 1.8868545368759986e-03 0.0000000000000000e+00  8.0768784281731596e-05 1.9042530266624551e-03 0.0000000000000000e+00  8.1312432877622307e-05 1.9218382286200594e-03 0.0000000000000000e+00  8.1713829318242831e-05 1.9394085728637973e-03 0.0000000000000000e+00  8.0916989647998868e-05 1.9700938824986770e-03 0.0000000000000000e+00  8.1529623930531967e-05 1.9968322132054022e-03 0.0000000000000000e+00  8.2669408958867277e-05 2.0285624050510264e-03 0.0000000000000000e+00  8.3785244741686442e-05 2.0625552159414581e-03 0.0000000000000000e+00  8.5002965818082598e-05 2.0978024271276451e-03 0.0000000000000000e+00  8.6534698230828728e-05 2.1339922726147892e-03 0.0000000000000000e+00  8.8290992739200629e-05 2.1715695491625296e-03 0.0000000000000000e+00  9.0028112806783120e-05 2.2106262860773743e-03 0.0000000000000000e+00  9.1639004854144425e-05 2.2507553062492236e-03 0.0000000000000000e+00  9.3142938804358156e-05 2.2916081158197402e-03 0.0000000000000000e+00  9.4604499826147340e-05 2.3329707415976372e-03 0.0000000000000000e+00  6.2690425974434245e-05 1.8362322077916842e-03 0.0000000000000000e+00  6.0054672642068514e-05 1.8211866068839643e-03 0.0000000000000000e+00  6.2928250700124646e-05 1.8527220837352811e-03 0.0000000000000000e+00  6.3227478025269863e-05 1.8696741515399236e-03 0.0000000000000000e+00  6.3556797273946487e-05 1.8868638039287603e-03 0.0000000000000000e+00  6.3949614940346955e-05 1.9042546005521418e-03 0.0000000000000000e+00  6.4385887573480913e-05 1.9218159572882661e-03 0.0000000000000000e+00  6.4855759425018871e-05 1.9394782846959965e-03 0.0000000000000000e+00  6.5346731383924785e-05 1.9572879060538134e-03 0.0000000000000000e+00  6.6073978896478920e-05 1.9787228905935299e-03 0.0000000000000000e+00  6.6808689036651888e-05 2.0113238559456097e-03 0.0000000000000000e+00  6.7491735449061007e-05 2.0458662548664686e-03 0.0000000000000000e+00  6.8346599955733517e-05 2.0811546764165048e-03 0.0000000000000000e+00  6.9782135296540590e-05 2.1169502376257748e-03 0.0000000000000000e+00  7.1563534177267475e-05 2.1545144008865624e-03 0.0000000000000000e+00  7.3219053682436092e-05 2.1940286724402821e-03 0.0000000000000000e+00  7.4628554481993541e-05 2.2346613436428561e-03 0.0000000000000000e+00  7.5876898430464942e-05 2.2759184361484516e-03 0.0000000000000000e+00  7.7078340864976107e-05 2.3175708947525864e-03 0.0000000000000000e+00  7.8327947923976588e-05 2.3595176449222421e-03 0.0000000000000000e+00  4.1516294778547431e-05 1.8377980928732697e-03 0.0000000000000000e+00  4.3599022597463648e-05 1.8539803109071694e-03 0.0000000000000000e+00  4.6451848990945261e-05 1.8697109945683976e-03 0.0000000000000000e+00  4.6677263510244346e-05 1.8868734523590103e-03 0.0000000000000000e+00  4.7021803275037906e-05 1.9042717417098217e-03 0.0000000000000000e+00  4.7372738390694169e-05 1.9218174609262886e-03 0.0000000000000000e+00  4.7776529552912010e-05 1.9394882130572063e-03 0.0000000000000000e+00  4.8217882002425105e-05 1.9572994212105769e-03 0.0000000000000000e+00  4.8694743057627681e-05 1.9752802111721603e-03 0.0000000000000000e+00  4.9104394340828454e-05 1.9934478307300500e-03 0.0000000000000000e+00  5.0119876556297252e-05 2.0291174833746658e-03 0.0000000000000000e+00  5.0827622120522117e-05 2.0644120479205827e-03 0.0000000000000000e+00  5.2393444695403539e-05 2.0992662416134760e-03 0.0000000000000000e+00  5.4387431199878829e-05 2.1368107110174683e-03 0.0000000000000000e+00  5.5969380893581208e-05 2.1771680884569251e-03 0.0000000000000000e+00  5.7107800270444890e-05 2.2185296876229724e-03 0.0000000000000000e+00  5.8035278582330804e-05 2.2602817328770935e-03 0.0000000000000000e+00  5.8932535980908342e-05 2.3022470675434022e-03 0.0000000000000000e+00  5.9916514035707643e-05 2.3443767343829403e-03 0.0000000000000000e+00  6.1065842104292818e-05 2.3866717878338883e-03 0.0000000000000000e+00  2.2165249668773945e-05 1.8549857984448263e-03 0.0000000000000000e+00  2.0281422282144586e-05 1.8393121732753522e-03 0.0000000000000000e+00  2.4385602413981713e-05 1.8707896680185193e-03 0.0000000000000000e+00  2.6753564120746101e-05 1.8876944245810494e-03 0.0000000000000000e+00  2.9952967394696136e-05 1.9043102560280000e-03 0.0000000000000000e+00  3.0213954996450728e-05 1.9218189239228185e-03 0.0000000000000000e+00  3.0576036399875932e-05 1.9394900903311485e-03 0.0000000000000000e+00  3.0964719363496387e-05 1.9573000291948327e-03 0.0000000000000000e+00  3.1410826827023046e-05 1.9753199552818702e-03 0.0000000000000000e+00  3.1918306829716082e-05 1.9936349810557191e-03 0.0000000000000000e+00  3.2553690379127630e-05 2.0125233644010840e-03 0.0000000000000000e+00  3.2849147604713110e-05 2.0478184034999377e-03 0.0000000000000000e+00  3.4565486855659525e-05 2.0805220597675186e-03 0.0000000000000000e+00  3.6855708918315603e-05 2.1181476114753477e-03 0.0000000000000000e+00  3.8226504933090432e-05 2.1601299390157083e-03 0.0000000000000000e+00  3.8947234360683189e-05 2.2024866496610342e-03 0.0000000000000000e+00  3.9484758699320678e-05 2.2447887580638744e-03 0.0000000000000000e+00  4.0057596410988744e-05 2.2870588466406007e-03 0.0000000000000000e+00  4.0774447305966978e-05 2.3293407645006317e-03 0.0000000000000000e+00  4.1708446036253675e-05 2.3716809710084821e-03 0.0000000000000000e+00  6.2430994485635372e-05 2.4291712257474098e-03 0.0000000000000000e+00  4.2907792097670537e-05 2.4141604346299824e-03 0.0000000000000000e+00  4.4389045853520421e-05 2.4568890789804522e-03 0.0000000000000000e+00  3.7608644791160243e-07 1.8560956347200481e-03 0.0000000000000000e+00  -1.2808639861903725e-06 1.8407908082265282e-03 0.0000000000000000e+00  2.3518630287113099e-06 1.8717420615043247e-03 0.0000000000000000e+00  4.6098913875692264e-06 1.8880933344360053e-03 0.0000000000000000e+00  7.2187210307249233e-06 1.9046615717035070e-03 0.0000000000000000e+00  9.9362614920891711e-06 1.9222150779948063e-03 0.0000000000000000e+00  1.3301236041595827e-05 1.9395477440645439e-03 0.0000000000000000e+00  1.3566648350209766e-05 1.9573100608513022e-03 0.0000000000000000e+00  1.3823907959937708e-05 1.9753017643611456e-03 0.0000000000000000e+00  1.4234941088884284e-05 1.9936940823263873e-03 0.0000000000000000e+00  1.4804456920130418e-05 2.0126442178089454e-03 0.0000000000000000e+00  1.5543294410721608e-05 2.0323997205120800e-03 0.0000000000000000e+00  1.6802701952508248e-05 2.0601203010487887e-03 0.0000000000000000e+00  1.8881850117083958e-05 2.0980901948326920e-03 0.0000000000000000e+00  1.9685342585521046e-05 2.1432224745348873e-03 0.0000000000000000e+00  1.9847099164284492e-05 2.1867237671767039e-03 0.0000000000000000e+00  2.0022562661719994e-05 2.2295249922385505e-03 0.0000000000000000e+00  2.0334541922085351e-05 2.2720484240426513e-03 0.0000000000000000e+00  2.0833707830186166e-05 2.3144357276776110e-03 0.0000000000000000e+00  2.1585232232224391e-05 2.3567625588359706e-03 0.0000000000000000e+00  2.2642507930414665e-05 2.3991566983987563e-03 0.0000000000000000e+00  2.4015278306379600e-05 2.4417911970732158e-03 0.0000000000000000e+00  2.5693702240573085e-05 2.4847812014129776e-03 0.0000000000000000e+00  -2.1712101597339355e-05 1.8572296075596221e-03 0.0000000000000000e+00  -2.3152812246990822e-05 1.8422747401676358e-03 0.0000000000000000e+00  -1.9928595745228417e-05 1.8725761995659388e-03 0.0000000000000000e+00  -1.7789803557729368e-05 1.8884750043698930e-03 0.0000000000000000e+00  -1.5240155196518027e-05 1.9047881332341986e-03 0.0000000000000000e+00  -1.2263351390435205e-05 1.9217843878327663e-03 0.0000000000000000e+00  -8.6653515992089278e-06 1.9390274967765152e-03 0.0000000000000000e+00  -4.2614203760804755e-06 1.9573728963948431e-03 0.0000000000000000e+00  -4.1973249948404890e-06 1.9752982310086925e-03 0.0000000000000000e+00  -4.0482800352689825e-06 1.9936858594572040e-03 0.0000000000000000e+00  -3.7485409582890258e-06 2.0126769922135385e-03 0.0000000000000000e+00  -3.2815388405563453e-06 2.0324650180267899e-03 0.0000000000000000e+00  -2.7557899473738206e-06 2.0529019501202435e-03 0.0000000000000000e+00  -1.9559682680112258e-06 2.0755626331649592e-03 0.0000000000000000e+00  -8.5653315453642180e-07 2.1270811851675981e-03 0.0000000000000000e+00  -7.5405721938910188e-07 2.1713777165445645e-03 0.0000000000000000e+00  -5.5083101437852678e-07 2.2144919307466315e-03 0.0000000000000000e+00  -2.8226804102385000e-07 2.2572118879135008e-03 0.0000000000000000e+00  9.7691806726207042e-08 2.2996705878682447e-03 0.0000000000000000e+00  7.1127853694516609e-07 2.3419206913069383e-03 0.0000000000000000e+00  1.6544115841096669e-06 2.3841503944915733e-03 0.0000000000000000e+00  2.9326169172465170e-06 2.4266349520269412e-03 0.0000000000000000e+00  4.5322055783975279e-06 2.4694997927756199e-03 0.0000000000000000e+00  6.4413609033566280e-06 2.5128431847128824e-03 0.0000000000000000e+00  -4.4123029398763769e-05 1.8583781942807223e-03 0.0000000000000000e+00  -4.5324683481206577e-05 1.8437954051859831e-03 0.0000000000000000e+00  -4.2564985027387227e-05 1.8733570776756608e-03 0.0000000000000000e+00  -4.0636379843295721e-05 1.8888333022110139e-03 0.0000000000000000e+00  -3.8318915564164483e-05 1.9047987286435848e-03 0.0000000000000000e+00  -3.5631492375724887e-05 1.9213732586081309e-03 0.0000000000000000e+00  -3.2601966314910659e-05 1.9384560489243839e-03 0.0000000000000000e+00  -2.9398733180688828e-05 1.9564134696978806e-03 0.0000000000000000e+00  -2.6285968586752528e-05 1.9751558451491860e-03 0.0000000000000000e+00  -2.2908722552102414e-05 1.9937013515498635e-03 0.0000000000000000e+00  -2.2891168177288059e-05 2.0126100695439246e-03 0.0000000000000000e+00  -2.2667083374708374e-05 2.0324385355353679e-03 0.0000000000000000e+00  -2.2248496611460394e-05 2.0532238392333086e-03 0.0000000000000000e+00  -2.1768447989447011e-05 2.0749668605009710e-03 0.0000000000000000e+00  -2.3798537251537066e-05 2.1129426200528880e-03 0.0000000000000000e+00  -2.2622709961456504e-05 2.1562747009507537e-03 0.0000000000000000e+00  -2.1883123664640764e-05 2.1995539319482008e-03 0.0000000000000000e+00  -2.1525034352970350e-05 2.2425206309605538e-03 0.0000000000000000e+00  -2.1269258168371893e-05 2.2850700172783651e-03 0.0000000000000000e+00  -2.0815098066307550e-05 2.3271700738549551e-03 0.0000000000000000e+00  -1.9985343331974381e-05 2.3691283064547811e-03 0.0000000000000000e+00  -1.8804959995297457e-05 2.4114115734346999e-03 0.0000000000000000e+00  -1.7297159973641190e-05 2.4541054122335501e-03 0.0000000000000000e+00  -1.5458737425860288e-05 2.4973018125322177e-03 0.0000000000000000e+00  -1.3315466605640895e-05 2.5411617248275501e-03 0.0000000000000000e+00  -6.6834964907161446e-05 1.8595589049701020e-03 0.0000000000000000e+00  -6.7768427745660241e-05 1.8453814356316563e-03 0.0000000000000000e+00  -6.5536210378542621e-05 1.8741292477563033e-03 0.0000000000000000e+00  -6.3861657878772174e-05 1.8891833563764988e-03 0.0000000000000000e+00  -6.1806632794872868e-05 1.9047698345718803e-03 0.0000000000000000e+00  -5.9388359354172580e-05 1.9209780972752404e-03 0.0000000000000000e+00  -5.6633632616836003e-05 1.9378329492397255e-03 0.0000000000000000e+00  -5.3596869219905132e-05 1.9555186121664788e-03 0.0000000000000000e+00  -5.0273704812800690e-05 1.9739854289297356e-03 0.0000000000000000e+00  -4.6680070742