<?xml version="1.0"?>
<VTKFile type="UnstructuredGrid"  version="0.1"  >
<UnstructuredGrid>
<Piece  NumberOfPoints="608" NumberOfCells="1117">
<Points>
<DataArray  type="Float64"  NumberOfComponents="3"  format="ascii">0.08260869565217391 0 0  0.09913043478260869 0 0  0.09913043478260869 0.01666666666666667 0  0.1156521739130435 0 0  0.1156521739130435 0.01666666666666667 0  0.1321739130434783 0 0  0.1321739130434783 0.01666666666666667 0  0.148695652173913 0 0  0.148695652173913 0.01666666666666667 0  0.1652173913043478 0 0  0.1652173913043478 0.01666666666666667 0  0.1817391304347826 0 0  0.1817391304347826 0.01666666666666667 0  0.1982608695652174 0 0  0.1982608695652174 0.01666666666666667 0  0.2147826086956522 0 0  0.2147826086956522 0.01666666666666667 0  0.2313043478260869 0 0  0.2313043478260869 0.01666666666666667 0  0.2478260869565218 0 0  0.2478260869565218 0.01666666666666667 0  0.2643478260869565 0 0  0.2643478260869565 0.01666666666666667 0  0.2808695652173913 0 0  0.2808695652173913 0.01666666666666667 0  0.2973913043478261 0 0  0.2973913043478261 0.01666666666666667 0  0.3139130434782609 0 0  0.3139130434782609 0.01666666666666667 0  0.3304347826086956 0 0  0.3304347826086956 0.01666666666666667 0  0.3469565217391304 0 0  0.3469565217391304 0.01666666666666667 0  0.3634782608695652 0 0  0.3634782608695652 0.01666666666666667 0  0.3799999999999999 0 0  0.3799999999999999 0.01666666666666667 0  0.3965217391304348 0 0  0.3965217391304348 0.01666666666666667 0  0.4130434782608696 0 0  0.4130434782608696 0.01666666666666667 0  0.4295652173913043 0.01666666666666667 0  0.1156521739130435 0.03333333333333333 0  0.1321739130434783 0.03333333333333333 0  0.148695652173913 0.03333333333333333 0  0.1652173913043478 0.03333333333333333 0  0.1817391304347826 0.03333333333333333 0  0.1982608695652174 0.03333333333333333 0  0.2147826086956522 0.03333333333333333 0  0.2313043478260869 0.03333333333333333 0  0.2478260869565218 0.03333333333333333 0  0.2643478260869565 0.03333333333333333 0  0.2808695652173913 0.03333333333333333 0  0.2973913043478261 0.03333333333333333 0  0.3139130434782609 0.03333333333333333 0  0.3304347826086956 0.03333333333333333 0  0.3469565217391304 0.03333333333333333 0  0.3634782608695652 0.03333333333333333 0  0.3799999999999999 0.03333333333333333 0  0.3965217391304348 0.03333333333333333 0  0.4130434782608696 0.03333333333333333 0  0.4295652173913043 0.03333333333333333 0  0.4460869565217391 0.03333333333333333 0  0.1321739130434783 0.05 0  0.148695652173913 0.05 0  0.1652173913043478 0.05 0  0.1817391304347826 0.05 0  0.1982608695652174 0.05 0  0.2147826086956522 0.05 0  0.2313043478260869 0.05 0  0.2478260869565218 0.05 0  0.2643478260869565 0.05 0  0.2808695652173913 0.05 0  0.2973913043478261 0.05 0  0.3139130434782609 0.05 0  0.3304347826086956 0.05 0  0.3469565217391304 0.05 0  0.3634782608695652 0.05 0  0.3799999999999999 0.05 0  0.3965217391304348 0.05 0  0.4130434782608696 0.05 0  0.4295652173913043 0.05 0  0.4460869565217391 0.05 0  0.4626086956521739 0.05 0  0.148695652173913 0.06666666666666667 0  0.1652173913043478 0.06666666666666667 0  0.1817391304347826 0.06666666666666667 0  0.1982608695652174 0.06666666666666667 0  0.2147826086956522 0.06666666666666667 0  0.2313043478260869 0.06666666666666667 0  0.2478260869565218 0.06666666666666667 0  0.2643478260869565 0.06666666666666667 0  0.2808695652173913 0.06666666666666667 0  0.2973913043478261 0.06666666666666667 0  0.3139130434782609 0.06666666666666667 0  0.3304347826086956 0.06666666666666667 0  0.3469565217391304 0.06666666666666667 0  0.3634782608695652 0.06666666666666667 0  0.3799999999999999 0.06666666666666667 0  0.3965217391304348 0.06666666666666667 0  0.4130434782608696 0.06666666666666667 0  0.4295652173913043 0.06666666666666667 0  0.4460869565217391 0.06666666666666667 0  0.4626086956521739 0.06666666666666667 0  0.4791304347826086 0.06666666666666667 0  0.1652173913043478 0.08333333333333333 0  0.1817391304347826 0.08333333333333333 0  0.1982608695652174 0.08333333333333333 0  0.2147826086956522 0.08333333333333333 0  0.2313043478260869 0.08333333333333333 0  0.2478260869565218 0.08333333333333333 0  0.2643478260869565 0.08333333333333333 0  0.2808695652173913 0.08333333333333333 0  0.2973913043478261 0.08333333333333333 0  0.3139130434782609 0.08333333333333333 0  0.3304347826086956 0.08333333333333333 0  0.3469565217391304 0.08333333333333333 0  0.3634782608695652 0.08333333333333333 0  0.3799999999999999 0.08333333333333333 0  0.3965217391304348 0.08333333333333333 0  0.4130434782608696 0.08333333333333333 0  0.4295652173913043 0.08333333333333333 0  0.4460869565217391 0.08333333333333333 0  0.4626086956521739 0.08333333333333333 0  0.4791304347826086 0.08333333333333333 0  0.4956521739130435 0.08333333333333333 0  0.1817391304347826 0.1 0  0.1982608695652174 0.1 0  0.2147826086956522 0.1 0  0.2313043478260869 0.1 0  0.2478260869565218 0.1 0  0.2643478260869565 0.1 0  0.2808695652173913 0.1 0  0.2973913043478261 0.1 0  0.3139130434782609 0.1 0  0.3304347826086956 0.1 0  0.3469565217391304 0.1 0  0.3634782608695652 0.1 0  0.3799999999999999 0.1 0  0.3965217391304348 0.1 0  0.4130434782608696 0.1 0  0.4295652173913043 0.1 0  0.4460869565217391 0.1 0  0.4626086956521739 0.1 0  0.4791304347826086 0.1 0  0.4956521739130435 0.1 0  0.5121739130434783 0.1 0  0.1982608695652174 0.1166666666666667 0  0.2147826086956522 0.1166666666666667 0  0.2313043478260869 0.1166666666666667 0  0.2478260869565218 0.1166666666666667 0  0.2643478260869565 0.1166666666666667 0  0.2808695652173913 0.1166666666666667 0  0.2973913043478261 0.1166666666666667 0  0.3139130434782609 0.1166666666666667 0  0.3304347826086956 0.1166666666666667 0  0.3469565217391304 0.1166666666666667 0  0.3634782608695652 0.1166666666666667 0  0.3799999999999999 0.1166666666666667 0  0.3965217391304348 0.1166666666666667 0  0.4130434782608696 0.1166666666666667 0  0.4295652173913043 0.1166666666666667 0  0.4460869565217391 0.1166666666666667 0  0.4626086956521739 0.1166666666666667 0  0.4791304347826086 0.1166666666666667 0  0.4956521739130435 0.1166666666666667 0  0.5121739130434783 0.1166666666666667 0  0.528695652173913 0.1166666666666667 0  0.2147826086956522 0.1333333333333333 0  0.2313043478260869 0.1333333333333333 0  0.2478260869565218 0.1333333333333333 0  0.2643478260869565 0.1333333333333333 0  0.2808695652173913 0.1333333333333333 0  0.2973913043478261 0.1333333333333333 0  0.3139130434782609 0.1333333333333333 0  0.3304347826086956 0.1333333333333333 0  0.3469565217391304 0.1333333333333333 0  0.3634782608695652 0.1333333333333333 0  0.3799999999999999 0.1333333333333333 0  0.3965217391304348 0.1333333333333333 0  0.4130434782608696 0.1333333333333333 0  0.4295652173913043 0.1333333333333333 0  0.4460869565217391 0.1333333333333333 0  0.4626086956521739 0.1333333333333333 0  0.4791304347826086 0.1333333333333333 0  0.4956521739130435 0.1333333333333333 0  0.5121739130434783 0.1333333333333333 0  0.528695652173913 0.1333333333333333 0  0.5452173913043478 0.1333333333333333 0  0.2313043478260869 0.15 0  0.2478260869565218 0.15 0  0.2643478260869565 0.15 0  0.2808695652173913 0.15 0  0.2973913043478261 0.15 0  0.3139130434782609 0.15 0  0.3304347826086956 0.15 0  0.3469565217391304 0.15 0  0.3634782608695652 0.15 0  0.3799999999999999 0.15 0  0.3965217391304348 0.15 0  0.4130434782608696 0.15 0  0.4295652173913043 0.15 0  0.4460869565217391 0.15 0  0.4626086956521739 0.15 0  0.4791304347826086 0.15 0  0.4956521739130435 0.15 0  0.5121739130434783 0.15 0  0.528695652173913 0.15 0  0.5452173913043478 0.15 0  0.5617391304347825 0.15 0  0.2478260869565218 0.1666666666666667 0  0.2643478260869565 0.1666666666666667 0  0.2808695652173913 0.1666666666666667 0  0.2973913043478261 0.1666666666666667 0  0.3139130434782609 0.1666666666666667 0  0.3304347826086956 0.1666666666666667 0  0.3469565217391304 0.1666666666666667 0  0.3634782608695652 0.1666666666666667 0  0.3799999999999999 0.1666666666666667 0  0.3965217391304348 0.1666666666666667 0  0.4130434782608696 0.1666666666666667 0  0.4295652173913043 0.1666666666666667 0  0.4460869565217391 0.1666666666666667 0  0.4626086956521739 0.1666666666666667 0  0.4791304347826086 0.1666666666666667 0  0.4956521739130435 0.1666666666666667 0  0.5121739130434783 0.1666666666666667 0  0.528695652173913 0.1666666666666667 0  0.5452173913043478 0.1666666666666667 0  0.5617391304347825 0.1666666666666667 0  0.5782608695652174 0.1666666666666667 0  0.2643478260869565 0.1833333333333333 0  0.2808695652173913 0.1833333333333333 0  0.2973913043478261 0.1833333333333333 0  0.3139130434782609 0.1833333333333333 0  0.3304347826086956 0.1833333333333333 0  0.3469565217391304 0.1833333333333333 0  0.3634782608695652 0.1833333333333333 0  0.3799999999999999 0.1833333333333333 0  0.3965217391304348 0.1833333333333333 0  0.4130434782608696 0.1833333333333333 0  0.4295652173913043 0.1833333333333333 0  0.4460869565217391 0.1833333333333333 0  0.4626086956521739 0.1833333333333333 0  0.4791304347826086 0.1833333333333333 0  0.4956521739130435 0.1833333333333333 0  0.5121739130434783 0.1833333333333333 0  0.528695652173913 0.1833333333333333 0  0.5452173913043478 0.1833333333333333 0  0.5617391304347825 0.1833333333333333 0  0.5782608695652174 0.1833333333333333 0  0.2808695652173913 0.2 0  0.2973913043478261 0.2 0  0.3139130434782609 0.2 0  0.3304347826086956 0.2 0  0.3469565217391304 0.2 0  0.3634782608695652 0.2 0  0.3799999999999999 0.2 0  0.3965217391304348 0.2 0  0.4130434782608696 0.2 0  0.4295652173913043 0.2 0  0.4460869565217391 0.2 0  0.4626086956521739 0.2 0  0.4791304347826086 0.2 0  0.4956521739130435 0.2 0  0.5121739130434783 0.2 0  0.528695652173913 0.2 0  0.5452173913043478 0.2 0  0.5617391304347825 0.2 0  0.5782608695652174 0.2 0  0.2973913043478261 0.2166666666666667 0  0.3139130434782609 0.2166666666666667 0  0.3304347826086956 0.2166666666666667 0  0.3469565217391304 0.2166666666666667 0  0.36347826086956
[...]
<PointData  Vectors="Displacement"> 
<DataArray  type="Float64"  Name="Displacement"  NumberOfComponents="3" format="ascii">2.4215104416765745e-05 2.2644282725373361e-05 0.0000000000000000e+00  2.8914022792518437e-05 3.1522134264199430e-05 0.0000000000000000e+00  1.9187123270511347e-05 3.0240500261748071e-05 0.0000000000000000e+00  3.3558923375589680e-05 4.2083256274935148e-05 0.0000000000000000e+00  2.2160860546363628e-05 4.0805815371998198e-05 0.0000000000000000e+00  3.8085515569887441e-05 5.4433794838570116e-05 0.0000000000000000e+00  2.5035362375831006e-05 5.3177761273446356e-05 0.0000000000000000e+00  4.2380881951489356e-05 6.8577194564669244e-05 0.0000000000000000e+00  2.7786517860067116e-05 6.7359290465636952e-05 0.0000000000000000e+00  4.6324919884765324e-05 8.4355844181108577e-05 0.0000000000000000e+00  3.0441848696272652e-05 8.3173608734784149e-05 0.0000000000000000e+00  4.9698865705520776e-05 1.0145313910958693e-04 0.0000000000000000e+00  3.3038883977690381e-05 1.0043747966384437e-04 0.0000000000000000e+00  5.2404188676117124e-05 1.1900380756427374e-04 0.0000000000000000e+00  3.5525085346288504e-05 1.1818746463721604e-04 0.0000000000000000e+00  5.4529196709702271e-05 1.3636251439722225e-04 0.0000000000000000e+00  3.7784455177571757e-05 1.3569868997361488e-04 0.0000000000000000e+00  5.6266534090501114e-05 1.5322262621923603e-04 0.0000000000000000e+00  3.9837619003628233e-05 1.5263276800530086e-04 0.0000000000000000e+00  5.7728672453953225e-05 1.6963435579487923e-04 0.0000000000000000e+00  4.1698489240128491e-05 1.6910946449208238e-04 0.0000000000000000e+00  5.8929808318546087e-05 1.8562385911976591e-04 0.0000000000000000e+00  4.3357459860397766e-05 1.8518273997443615e-04 0.0000000000000000e+00  5.9883634597753817e-05 2.0109824851954783e-04 0.0000000000000000e+00  4.4818813993407295e-05 2.0073505796921649e-04 0.0000000000000000e+00  6.0634817476433933e-05 2.1598499147727976e-04 0.0000000000000000e+00  4.6105335420992955e-05 2.1568060165557413e-04 0.0000000000000000e+00  6.1245549621717158e-05 2.3025941563498925e-04 0.0000000000000000e+00  4.7258894792379074e-05 2.2998930359517599e-04 0.0000000000000000e+00  6.1745187175770786e-05 2.4397916717125781e-04 0.0000000000000000e+00  4.8294697407116508e-05 2.4374453109549755e-04 0.0000000000000000e+00  6.2130187419976460e-05 2.5717793521257224e-04 0.0000000000000000e+00  4.9204993112630955e-05 2.5699052208988442e-04 0.0000000000000000e+00  6.2418986093112599e-05 2.6981715602378438e-04 0.0000000000000000e+00  5.0002522386682292e-05 2.6966868434299203e-04 0.0000000000000000e+00  6.2671635359136908e-05 2.8187279850264428e-04 0.0000000000000000e+00  5.0725693559551505e-05 2.8173993372570481e-04 0.0000000000000000e+00  6.2961928433206992e-05 2.9339489907293626e-04 0.0000000000000000e+00  5.1413809631554742e-05 2.9325852297519398e-04 0.0000000000000000e+00  6.3372975198257680e-05 3.0445975902808971e-04 0.0000000000000000e+00  5.2115769993735722e-05 3.0429558525046208e-04 0.0000000000000000e+00  5.2889060885542316e-05 3.1496284294409035e-04 0.0000000000000000e+00  1.1064078087526441e-05 4.0011505850700852e-05 0.0000000000000000e+00  1.2333170252345523e-05 5.2379423018031649e-05 0.0000000000000000e+00  1.3532676588625006e-05 6.6566236595121180e-05 0.0000000000000000e+00  1.4806088013215065e-05 8.2293048039395453e-05 0.0000000000000000e+00  1.6319164876926931e-05 9.9451109943530388e-05 0.0000000000000000e+00  1.9000888123108700e-05 1.1743044114938167e-04 0.0000000000000000e+00  2.1545191522118519e-05 1.3507606906133386e-04 0.0000000000000000e+00  2.3927738302957812e-05 1.5197838714649936e-04 0.0000000000000000e+00  2.6130010532501865e-05 1.6844612742597078e-04 0.0000000000000000e+00  2.8213026468124207e-05 1.8460584839183412e-04 0.0000000000000000e+00  3.0150811859187111e-05 2.0024655950235643e-04 0.0000000000000000e+00  3.1920093374767316e-05 2.1524827410532768e-04 0.0000000000000000e+00  3.3567001814208356e-05 2.2955775658864202e-04 0.0000000000000000e+00  3.5103801442257610e-05 2.4334157290737632e-04 0.0000000000000000e+00  3.6497327912400900e-05 2.5667359209045838e-04 0.0000000000000000e+00  3.7732815532370250e-05 2.6942939464327407e-04 0.0000000000000000e+00  3.8834857850596529e-05 2.8154072312201311e-04 0.0000000000000000e+00  3.9811953057192358e-05 2.9309502152126578e-04 0.0000000000000000e+00  4.0686364205995193e-05 3.0414726393559170e-04 0.0000000000000000e+00  4.1497332857182883e-05 3.1479789624614725e-04 0.0000000000000000e+00  4.2294392710687305e-05 3.2520113389748073e-04 0.0000000000000000e+00  -1.6342996855489781e-07 5.2042836047457001e-05 0.0000000000000000e+00  -5.8381127936558648e-07 6.6239458332586782e-05 0.0000000000000000e+00  -7.1416749585237213e-07 8.1599695715403828e-05 0.0000000000000000e+00  -7.0552768699495594e-07 9.8857287310581419e-05 0.0000000000000000e+00  1.3262880372782802e-06 1.1648837366971676e-04 0.0000000000000000e+00  4.8254553096077082e-06 1.3418927809200656e-04 0.0000000000000000e+00  8.9486689075247085e-06 1.5144078942502611e-04 0.0000000000000000e+00  1.0954932337177328e-05 1.6770379905176242e-04 0.0000000000000000e+00  1.3245105803761569e-05 1.8384137614589713e-04 0.0000000000000000e+00  1.5845591711685266e-05 1.9965996334315192e-04 0.0000000000000000e+00  1.8080355508632871e-05 2.1472217750347403e-04 0.0000000000000000e+00  2.0227618505230333e-05 2.2900168182970391e-04 0.0000000000000000e+00  2.2176596247974458e-05 2.4276670501817446e-04 0.0000000000000000e+00  2.4040838559048463e-05 2.5624144868969980e-04 0.0000000000000000e+00  2.5722230406797230e-05 2.6913983337964248e-04 0.0000000000000000e+00  2.7191207864663908e-05 2.8131958149340950e-04 0.0000000000000000e+00  2.8420957590902724e-05 2.9296599924617410e-04 0.0000000000000000e+00  2.9413862492379184e-05 3.0408346656040090e-04 0.0000000000000000e+00  3.0208562630344000e-05 3.1475468779749310e-04 0.0000000000000000e+00  3.0856439605970818e-05 3.2511391883708246e-04 0.0000000000000000e+00  3.1419296582429438e-05 3.3536085850860669e-04 0.0000000000000000e+00  -1.3852577486200038e-05 6.6233106650884807e-05 0.0000000000000000e+00  -1.6178637523330981e-05 8.1641956658718375e-05 0.0000000000000000e+00  -1.0653439379842403e-05 9.8230187104274727e-05 0.0000000000000000e+00  -7.0566024690216102e-06 1.1458215493588523e-04 0.0000000000000000e+00  -4.1789269951992710e-06 1.3129591157280977e-04 0.0000000000000000e+00  -2.0138997789719857e-06 1.4819118780592662e-04 0.0000000000000000e+00  -1.2227516924113385e-06 1.6528751711177730e-04 0.0000000000000000e+00  -2.5180052169762751e-06 1.8306258703939667e-04 0.0000000000000000e+00  7.8315188101337435e-07 1.9877738896737011e-04 0.0000000000000000e+00  4.0594039297094001e-06 2.1393978543940266e-04 0.0000000000000000e+00  7.7993278008114153e-06 2.2855030997524832e-04 0.0000000000000000e+00  9.4591054276702259e-06 2.4203855079327904e-04 0.0000000000000000e+00  1.1663199890464610e-05 2.5557971260799521e-04 0.0000000000000000e+00  1.4144162117318556e-05 2.6881137019546005e-04 0.0000000000000000e+00  1.6013607314085720e-05 2.8106100075634332e-04 0.0000000000000000e+00  1.7530095478612467e-05 2.9289932152648979e-04 0.0000000000000000e+00  1.8622076206233112e-05 3.0414372105881318e-04 0.0000000000000000e+00  1.9381983678255316e-05 3.1487093266976859e-04 0.0000000000000000e+00  1.9887833705902079e-05 3.2519340453034600e-04 0.0000000000000000e+00  2.0217005606648144e-05 3.3527352887042979e-04 0.0000000000000000e+00  2.0451747484150055e-05 3.4537746076876658e-04 0.0000000000000000e+00  -1.5300075628458316e-05 8.1938199108943445e-05 0.0000000000000000e+00  -1.3751319099940054e-05 9.6333596013131035e-05 0.0000000000000000e+00  -1.1646095892698706e-05 1.1236385856479921e-04 0.0000000000000000e+00  -9.7707302743692621e-06 1.2874991321378896e-04 0.0000000000000000e+00  -8.2043316958805058e-06 1.4538610136937354e-04 0.0000000000000000e+00  -6.9846015174134456e-06 1.6224066976027414e-04 0.0000000000000000e+00  -5.8746479166071111e-06 1.7910450066070007e-04 0.0000000000000000e+00  -4.1847699003149893e-06 1.9410859343617706e-04 0.0000000000000000e+00  -2.3363749096096834e-06 2.0917475405897828e-04 0.0000000000000000e+00  -8.6767624329559584e-07 2.2398907414623710e-04 0.0000000000000000e+00  -5.0073690303266674e-07 2.3888059303262907e-04 0.0000000000000000e+00  -1.8784378474908878e-06 2.5483912849766940e-04 0.0000000000000000e+00  1.9814539545619950e-06 2.6796609583466612e-04 0.0000000000000000e+00  5.7323910078592756e-06 2.8074348432406704e-04 0.0000000000000000e+00  7.5498552430958095e-06 2.9294047077957813e-04 0.0000000000000000e+00  8.6372616305153537e-06 3.0437138996746024e-04 0.0000000000000000e+00  9.3246169681666404e-06 3.1517317732897445e-04 0.0000000000000000e+00  9.7220860849384324e-06 3.2544218713473751e-04 0.0000000000000000e+00  9.9348603227288492e-06 3.3529323357896142e-04 0.0000000000000000e+00  1.0059981693745710e-05 3.4493146945359371e-04 0.0000000000000000e+00  1.0239128703937595e-05 3.5446494637153699e-04 0.0000000000000000e+00  -1.5472714843640133e-05 9.5640589671464407e-05 0.0000000000000000e+00  -1.4640983848481239e-05 1.1080064714855744e-04 0.0000000000000000e+00  -1.3588664514374246e-05 1.2661314754926537e-04 0.0000000000000000e+00  -1.2494253570563297e-05 1.4274274748691347e-04 0.0000000000000000e+00  -1.1380030977761029e-05 1.5901001224147366e-04 0.0000000000000000e+00  -1.0160068014582508e-05 1.7508393232713195e-04 0.0000000000000000e+00  -8.7989582505450139e-06 1.9016745476962331e-04 0.0000000000000000e+00  -7.5717790198094741e-06 2.0511010579983197e-04 0.0000000000000000e+00  -6.5073622312829595e-06 2.2001368935041380e-04 0.0000000000000000e+00  -5.6942958221942578e-06 2.3502048348798726e-04 0.0000000000000000e+00  -4.8839542202924734e-06 2.5016175495398463e-04 0.0000000000000000e+00  -3.4125017701871797e-06 2.6329362767517876e-04 0.0000000000000000e+00  -2.0427893476305518e-06 2.7718444125749499e-04 0.0000000000000000e+00  -1.2828876462439856e-06 2.9339969504488852e-04 0.0000000000000000e+00  -3.6283651727784486e-07 3.0486635573151222e-04 0.0000000000000000e+00  1.7160561716226467e-07 3.1571184510004933e-04 0.0000000000000000e+00  4.7825496066732668e-07 3.2588253318127972e-04 0.0000000000000000e+00  6.5308914300054427e-07 3.3542661631473882e-04 0.0000000000000000e+00  7.7198376357579844e-07 3.4456072876169991e-04 0.0000000000000000e+00  9.4287406148678257e-07 3.5329359656740075e-04 0.0000000000000000e+00  1.3783034885936976e-06 3.6178465346187617e-04 0.0000000000000000e+00  -1.6769451488944902e-05 1.0965407155962624e-04 0.0000000000000000e+00  -1.6348898748680780e-05 1.2480218993728427e-04 0.0000000000000000e+00  -1.5725080953741069e-05 1.4032125627312121e-04 0.0000000000000000e+00  -1.4940241201702555e-05 1.5597722382685463e-04 0.0000000000000000e+00  -1.4008183817454397e-05 1.7148346008499969e-04 0.0000000000000000e+00  -1.3002946550961626e-05 1.8649190692684252e-04 0.0000000000000000e+00  -1.2095647040892393e-05 2.0135176972292061e-04 0.0000000000000000e+00  -1.1283536864751003e-05 2.1616201573418508e-04 0.0000000000000000e+00  -1.0539915709056332e-05 2.3097967979094191e-04 0.0000000000000000e+00  -9.7736626217636679e-06 2.4566643598985659e-04 0.0000000000000000e+00  -8.9907582959026478e-06 2.5949167956763723e-04 0.0000000000000000e+00  -8.5993004215204786e-06 2.7387032874623141e-04 0.0000000000000000e+00  -8.5508621643535542e-06 2.8960510711075306e-04 0.0000000000000000e+00  -8.7131732311298051e-06 3.0566759248806439e-04 0.0000000000000000e+00  -8.1921563678690354e-06 3.1652315720108351e-04 0.0000000000000000e+00  -7.8596076080918351e-06 3.2655297504697748e-04 0.0000000000000000e+00  -7.6430994850966366e-06 3.3569045086500238e-04 0.0000000000000000e+00  -7.4585130270626116e-06 3.4431688346391926e-04 0.0000000000000000e+00  -7.2519099786694961e-06 3.5233993751018224e-04 0.0000000000000000e+00  -7.0080182359033130e-06 3.5926823995239052e-04 0.0000000000000000e+00  -5.2468483285484346e-06 3.6824616883597647e-04 0.0000000000000000e+00  -1.8461583857196902e-05 1.2322123106748301e-04 0.0000000000000000e+00  -1.8268725439770076e-05 1.3814124875012010e-04 0.0000000000000000e+00  -1.7872384382602304e-05 1.5323289604913932e-04 0.0000000000000000e+00  -1.7318770622725703e-05 1.6827649901859627e-04 0.0000000000000000e+00  -1.6692897199030932e-05 1.8309374794391752e-04 0.0000000000000000e+00  -1.6105708646836289e-05 1.9781242065656734e-04 0.0000000000000000e+00  -1.5576170927656985e-05 2.1248108172734653e-04 0.0000000000000000e+00  -1.5096819884440007e-05 2.2711693230054891e-04 0.0000000000000000e+00  -1.4658923270258809e-05 2.4163579849234446e-04 0.0000000000000000e+00  -1.4341712060359683e-05 2.5586059690769250e-04 0.0000000000000000e+00  -1.4333576056093328e-05 2.7050646443296659e-04 0.0000000000000000e+00  -1.4536865855615757e-05 2.8597288057455984e-04 0.0000000000000000e+00  -1.4804839516252061e-05 3.0187485554612948e-04 0.0000000000000000e+00  -1.5255075121162355e-05 3.1797745790228526e-04 0.0000000000000000e+00  -1.5138783494708993e-05 3.2753024142022152e-04 0.0000000000000000e+00  -1.4955993301857107e-05 3.3610327168086740e-04 0.0000000000000000e+00  -1.4737861249582978e-05 3.4425108542470920e-04 0.0000000000000000e+00  -1.4514526340311632e-05 3.5176505615651713e-04 0.0000000000000000e+00  -1.4323108892665270e-05 3.5835896106121599e-04 0.0000000000000000e+00  -1.4074197023794262e-05 3.6418568694239495e-04 0.0000000000000000e+00  -1.1709321449634612e-05 3.7446718774979397e-04 0.0000000000000000e+00  -2.0327965031193943e-05 1.3617399285233785e-04 0.0000000000000000e+00  -2.0309392063469846e-05 1.5076353956440378e-04 0.0000000000000000e+00  -2.0138239623629586e-05 1.6539979262589251e-04 0.0000000000000000e+00  -1.9888476337798419e-05 1.7996993848662564e-04 0.0000000000000000e+00  -1.9639671824389160e-05 1.9450341778515985e-04 0.0000000000000000e+00  -1.9425939900697817e-05 2.0901266883105967e-04 0.0000000000000000e+00  -1.9264272543055812e-05 2.2350005078119521e-04 0.0000000000000000e+00  -1.9176224518381081e-05 2.3793753134515266e-04 0.0000000000000000e+00  -1.9222696900680030e-05 2.5232886497299087e-04 0.0000000000000000e+00  -1.9473025103542334e-05 2.6704349598241411e-04 0.0000000000000000e+00  -1.9831497350455979e-05 2.8229005096567779e-04 0.0000000000000000e+00  -2.0139559777626496e-05 2.9796611921241884e-04 0.0000000000000000e+00  -2.0342205075449883e-05 3.1402619086749273e-04 0.0000000000000000e+00  -2.1446724197574160e-05 3.2866182391500486e-04 0.0000000000000000e+00  -2.1364789700423009e-05 3.3667179581204422e-04 0.0000000000000000e+00  -2.1144976712128669e-05 3.4437385711103864e-04 0.0000000000000000e+00  -2.0873172272024952e-05 3.5147951250624580e-04 0.0000000000000000e+00  -2.0625993359156409e-05 3.5777648764419041e-04 0.0000000000000000e+00  -2.0498139452963103e-05 3.6311970199732081e-04 0.0000000000000000e+00  -1.9298777778388939e-05 3.7087164001331198e-04 0.0000000000000000e+00  -1.7347140502725738e-05 3.7952628988255935e-04 0.0000000000000000e+00  -2.2339176960059938e-05 1.4852398963929978e-04 0.0000000000000000e+00  -2.2522864310153002e-05 1.6279271542730492e-04 0.0000000000000000e+00  -2.2627314644997864e-05 1.7709740957273174e-04 0.0000000000000000e+00  -2.2714293072301677e-05 1.9142472730437026e-04 0.0000000000000000e+00  -2.2824198200012853e-05 2.0576680719475152e-04 0.0000000000000000e+00  -2.2988005107339838e-05 2.2012060809396001e-04 0.0000000000000000e+00  -2.3239447960139085e-05 2.3448674212584320e-04 0.0000000000000000e+00  -2.3626992399777309e-05 2.4891406918243385e-04 0.0000000000000000e+00  -2.4190851962293770e-05 2.6360454608307369e-04 0.0000000000000000e+00  -2.4903092589761940e-05 2.7868933742149682e-04 0.0000000000000000e+00  -2.5737329325626656e-05 2.9420956925532276e-04 0.0000000000000000e+00  -2.6743893645421637e-05 3.1043844506681236e-04 0.0000000000000000e+00  -2.7732055393668363e-05 3.2916572992233375e-04 0.0000000000000000e+00  -2.7254529710656795e-05 3.3733600255120798e-04 0.0000000000000000e+00  -2.6906180258985252e-05 3.4466441185108281e-04 0.0000000000000000e+00  -2.6530118398733378e-05 3.5141297325673616e-04 0.0000000000000000e+00  -2.6162433809233857e-05 3.5749214700344999e-04 0.0000000000000000e+00  -2.5921541779755846e-05 3.6282492061381357e-04 0.0000000000000000e+00  -2.5822228766687093e-05 3.6755580142159433e-04 0.0000000000000000e+00  -2.4456470277323984e-05 3.7539300361903564e-04 0.0000000000000000e+00  -2.2388630169319707e-05 3.8274760689419854e-04 0.0000000000000000e+00  -2.4516414556595212e-05 1.6039979731484255e-04 0.0000000000000000e+00  -2.4941068498281666e-05 1.7444103287701481e-04 0.0000000000000000e+00  -2.5341255911354892e-05 1.8855623789552824e-04 0.0000000000000000e+00  -2.5757068142701745e-05 2.0272693437011348e-04 0.0000000000000000e+00  -2.6223278858429786e-05 2.1694662882872437e-04 0.0000000000000000e+00  -2.6774344063083198e-05 2.3122437062183905e-04 0.0000000000000000e+00  -2.7446333821561757e-05 2.4560829185686119e-04 0.0000000000000000e+00  -2.8261599423873103e-05 2.6021347044911979e-04 0.0000000000000000e+00  -2.9203803534114865e-05 2.7512631371769759e-04 0.0000000000000000e+00  -3.0239201972165358e-05 2.9040850658089608e-04 0.0000000000000000e+00  -3.1307118302064302e-05 3.0622150801653489e-04 0.0000000000000000e+00  -3.2154786064313607e-05 3.2288797703664180e-04 0.0000000000000000e+00  -3.2423602632729686e-05 3.3799173351364885e-04 0.0000000000000000e+00  -3.2051604406551401e-05 3.4507649069617931e-04 0.0000000000000000e+00  -3.1577054619177914e-05 3.5149961295365833e-04 0.0000000000000000e+00  -3.1089973403578810e-05 3.5735204436620929e-04 0.0000000000000000e+00  -3.0641004631158792e-05 3.6267915092707149e-04 0.0000000000000000e+00  -3.0302087246170689e-05 3.6757880339938057e-04 0.0000000000000000e+00  -3.0027040076641044e-05 3.7226822338538477e-04 0.0000000000000000e+00  -2.9889554595145125e-05 3.7677338005764834e-04 0.0000000000000000e+00  -2.6854929369828641e-05 1.7196023361192261e-04 0.0000000000000000e+00  -2.7533553189947814e-05 1.8586527197903010e-04 0.0000000000000000e+00  -2.8221818133522232e-05 1.9986135970810877e-04 0.0000000000000000e+00  -2.8951567870092314e-05 2.1393780313513610e-04 0.0000000000000000e+00  -2.9751609381789059e-05 2.2810073650397046e-04 0.0000000000000000e+00  -3.0645519963321249e-05 2.4238298497182082e-04 0.0000000000000000e+00  -3.1641128512473426e-05 2.5684686914494441e-04 0.0000000000000000e+00  -3.2717590578183469e-05 2.7153976981315008e-04 0.0000000000000000e+00  -3.3828294124008740e-05 2.8649070671266791e-04 0.0000000000000000e+00  -3.4886503236556102e-05 3.0172875656271734e-04 0.0000000000000000e+00  -3.5717942658547273e-05 3.1716027014916110e-04 0.0000000000000000e+00  -3.6178868569342329e-05 3.3171015922902654e-04 0.0000000000000000e+00  -3.6538976224700288e-05 3.4553732719633479e-04 0.0000000000000000e+00  -3.6064466172238390e-05 3.5175028051520103e-04 0.0000000000000000e+00  -3.5584874604656442e-05 3.5733130236337019e-04 0.0000000000000000e+00  -3.5077242827539275e-05 3.6256867966609919e-04 0.0000000000000000e+00  -3.4617193909362746e-05 3.6752501132860505e-04 0.0000000000000000e+00  -3.4236450334969045e-05 3.7227034831822345e-04 0.0000000000000000e+00  -3.3914455423739994e-05 3.7688636707628164e-04 0.0000000000000000e+00  -2.9308907105057333e-05 1.8331492216173219e-04 0.0000000000000000e+00  -3.0230502390780802e-05 1.9713400133046486e-04 0.0000000000000000e+00  -3.1181542859971939e-05 2.1105541504662641e-04 0.0000000000000000e+00  -3.2182906816053703e-05 2.2507716270346326e-04 0.0000000000000000e+00  -3.3247424262713417e-05 2.3921371935386782e-04 0.0000000000000000e+00  -3.4372798205455931e-05 2.5349127793578040e-04 0.0000000000000000e+00  -3.5534504897185152e-05 2.6792371994939593e-04 0.0000000000000000e+00  -3.6685239258083904e-05 2.8250247764966316e-04 0.0000000000000000e+00  -3.7749977189295994e-05 2.9718128305551380e-04 0.0000000000000000e+00  -3.8624605495121241e-05 3.1178472988938570e-04 0.0000000000000000e+00  -3.9255652560664978e-05 3.2578979502344963e-04 0.0000000000000000e+00  -3.9766008056811611e-05 3.3918731