<?xml version="1.0"?>
<VTKFile type="UnstructuredGrid"  version="0.1"  >
<UnstructuredGrid>
<Piece  NumberOfPoints="629" NumberOfCells="1162">
<Points>
<DataArray  type="Float64"  NumberOfComponents="3"  format="ascii">0.7104347826086956 0 0  0.7269565217391304 0 0  0.7269565217391304 0.01666666666666667 0  0.7104347826086956 0.01666666666666667 0  0.7434782608695653 0 0  0.7434782608695653 0.01666666666666667 0  0.7599999999999999 0 0  0.7599999999999999 0.01666666666666667 0  0.7765217391304348 0 0  0.7765217391304348 0.01666666666666667 0  0.7930434782608695 0 0  0.7930434782608695 0.01666666666666667 0  0.8095652173913043 0 0  0.8095652173913043 0.01666666666666667 0  0.8260869565217391 0 0  0.8260869565217391 0.01666666666666667 0  0.8426086956521739 0 0  0.8426086956521739 0.01666666666666667 0  0.8591304347826086 0 0  0.8591304347826086 0.01666666666666667 0  0.8756521739130434 0 0  0.8756521739130434 0.01666666666666667 0  0.8921739130434783 0 0  0.8921739130434783 0.01666666666666667 0  0.908695652173913 0 0  0.908695652173913 0.01666666666666667 0  0.9252173913043478 0 0  0.9252173913043478 0.01666666666666667 0  0.9417391304347826 0 0  0.9417391304347826 0.01666666666666667 0  0.9582608695652173 0 0  0.9582608695652173 0.01666666666666667 0  0.9747826086956521 0 0  0.9747826086956521 0.01666666666666667 0  0.991304347826087 0 0  0.991304347826087 0.01666666666666667 0  1.007826086956522 0 0  1.007826086956522 0.01666666666666667 0  1.024347826086957 0 0  1.024347826086957 0.01666666666666667 0  0.7269565217391304 0.03333333333333333 0  0.7104347826086956 0.03333333333333333 0  0.7434782608695653 0.03333333333333333 0  0.7599999999999999 0.03333333333333333 0  0.7765217391304348 0.03333333333333333 0  0.7930434782608695 0.03333333333333333 0  0.8095652173913043 0.03333333333333333 0  0.8260869565217391 0.03333333333333333 0  0.8426086956521739 0.03333333333333333 0  0.8591304347826086 0.03333333333333333 0  0.8756521739130434 0.03333333333333333 0  0.8921739130434783 0.03333333333333333 0  0.908695652173913 0.03333333333333333 0  0.9252173913043478 0.03333333333333333 0  0.9417391304347826 0.03333333333333333 0  0.9582608695652173 0.03333333333333333 0  0.9747826086956521 0.03333333333333333 0  0.991304347826087 0.03333333333333333 0  1.007826086956522 0.03333333333333333 0  1.024347826086957 0.03333333333333333 0  1.040869565217391 0.03333333333333333 0  0.7269565217391304 0.05 0  0.7434782608695653 0.05 0  0.7599999999999999 0.05 0  0.7765217391304348 0.05 0  0.7930434782608695 0.05 0  0.8095652173913043 0.05 0  0.8260869565217391 0.05 0  0.8426086956521739 0.05 0  0.8591304347826086 0.05 0  0.8756521739130434 0.05 0  0.8921739130434783 0.05 0  0.908695652173913 0.05 0  0.9252173913043478 0.05 0  0.9417391304347826 0.05 0  0.9582608695652173 0.05 0  0.9747826086956521 0.05 0  0.991304347826087 0.05 0  1.007826086956522 0.05 0  1.024347826086957 0.05 0  1.040869565217391 0.05 0  1.057391304347826 0.05 0  0.7434782608695653 0.06666666666666667 0  0.7599999999999999 0.06666666666666667 0  0.7765217391304348 0.06666666666666667 0  0.7930434782608695 0.06666666666666667 0  0.8095652173913043 0.06666666666666667 0  0.8260869565217391 0.06666666666666667 0  0.8426086956521739 0.06666666666666667 0  0.8591304347826086 0.06666666666666667 0  0.8756521739130434 0.06666666666666667 0  0.8921739130434783 0.06666666666666667 0  0.908695652173913 0.06666666666666667 0  0.9252173913043478 0.06666666666666667 0  0.9417391304347826 0.06666666666666667 0  0.9582608695652173 0.06666666666666667 0  0.9747826086956521 0.06666666666666667 0  0.991304347826087 0.06666666666666667 0  1.007826086956522 0.06666666666666667 0  1.024347826086957 0.06666666666666667 0  1.040869565217391 0.06666666666666667 0  1.057391304347826 0.06666666666666667 0  1.073913043478261 0.06666666666666667 0  0.7599999999999999 0.08333333333333333 0  0.7765217391304348 0.08333333333333333 0  0.7930434782608695 0.08333333333333333 0  0.8095652173913043 0.08333333333333333 0  0.8260869565217391 0.08333333333333333 0  0.8426086956521739 0.08333333333333333 0  0.8591304347826086 0.08333333333333333 0  0.8756521739130434 0.08333333333333333 0  0.8921739130434783 0.08333333333333333 0  0.908695652173913 0.08333333333333333 0  0.9252173913043478 0.08333333333333333 0  0.9417391304347826 0.08333333333333333 0  0.9582608695652173 0.08333333333333333 0  0.9747826086956521 0.08333333333333333 0  0.991304347826087 0.08333333333333333 0  1.007826086956522 0.08333333333333333 0  1.024347826086957 0.08333333333333333 0  1.040869565217391 0.08333333333333333 0  1.057391304347826 0.08333333333333333 0  1.073913043478261 0.08333333333333333 0  1.090434782608696 0.08333333333333333 0  0.7765217391304348 0.1 0  0.7930434782608695 0.1 0  0.8095652173913043 0.1 0  0.8260869565217391 0.1 0  0.8426086956521739 0.1 0  0.8591304347826086 0.1 0  0.8756521739130434 0.1 0  0.8921739130434783 0.1 0  0.908695652173913 0.1 0  0.9252173913043478 0.1 0  0.9417391304347826 0.1 0  0.9582608695652173 0.1 0  0.9747826086956521 0.1 0  0.991304347826087 0.1 0  1.007826086956522 0.1 0  1.024347826086957 0.1 0  1.040869565217391 0.1 0  1.057391304347826 0.1 0  1.073913043478261 0.1 0  1.090434782608696 0.1 0  1.10695652173913 0.1 0  0.7930434782608695 0.1166666666666667 0  0.8095652173913043 0.1166666666666667 0  0.8260869565217391 0.1166666666666667 0  0.8426086956521739 0.1166666666666667 0  0.8591304347826086 0.1166666666666667 0  0.8756521739130434 0.1166666666666667 0  0.8921739130434783 0.1166666666666667 0  0.908695652173913 0.1166666666666667 0  0.9252173913043478 0.1166666666666667 0  0.9417391304347826 0.1166666666666667 0  0.9582608695652173 0.1166666666666667 0  0.9747826086956521 0.1166666666666667 0  0.991304347826087 0.1166666666666667 0  1.007826086956522 0.1166666666666667 0  1.024347826086957 0.1166666666666667 0  1.040869565217391 0.1166666666666667 0  1.057391304347826 0.1166666666666667 0  1.073913043478261 0.1166666666666667 0  1.090434782608696 0.1166666666666667 0  1.10695652173913 0.1166666666666667 0  1.123478260869565 0.1166666666666667 0  0.8095652173913043 0.1333333333333333 0  0.8260869565217391 0.1333333333333333 0  0.8426086956521739 0.1333333333333333 0  0.8591304347826086 0.1333333333333333 0  0.8756521739130434 0.1333333333333333 0  0.8921739130434783 0.1333333333333333 0  0.908695652173913 0.1333333333333333 0  0.9252173913043478 0.1333333333333333 0  0.9417391304347826 0.1333333333333333 0  0.9582608695652173 0.1333333333333333 0  0.9747826086956521 0.1333333333333333 0  0.991304347826087 0.1333333333333333 0  1.007826086956522 0.1333333333333333 0  1.024347826086957 0.1333333333333333 0  1.040869565217391 0.1333333333333333 0  1.057391304347826 0.1333333333333333 0  1.073913043478261 0.1333333333333333 0  1.090434782608696 0.1333333333333333 0  1.10695652173913 0.1333333333333333 0  1.123478260869565 0.1333333333333333 0  1.14 0.1333333333333333 0  0.8260869565217391 0.15 0  0.8426086956521739 0.15 0  0.8591304347826086 0.15 0  0.8756521739130434 0.15 0  0.8921739130434783 0.15 0  0.908695652173913 0.15 0  0.9252173913043478 0.15 0  0.9417391304347826 0.15 0  0.9582608695652173 0.15 0  0.9747826086956521 0.15 0  0.991304347826087 0.15 0  1.007826086956522 0.15 0  1.024347826086957 0.15 0  1.040869565217391 0.15 0  1.057391304347826 0.15 0  1.073913043478261 0.15 0  1.090434782608696 0.15 0  1.10695652173913 0.15 0  1.123478260869565 0.15 0  1.14 0.15 0  1.156521739130435 0.15 0  0.8426086956521739 0.1666666666666667 0  0.8591304347826086 0.1666666666666667 0  0.8756521739130434 0.1666666666666667 0  0.8921739130434783 0.1666666666666667 0  0.908695652173913 0.1666666666666667 0  0.9252173913043478 0.1666666666666667 0  0.9417391304347826 0.1666666666666667 0  0.9582608695652173 0.1666666666666667 0  0.9747826086956521 0.1666666666666667 0  0.991304347826087 0.1666666666666667 0  1.007826086956522 0.1666666666666667 0  1.024347826086957 0.1666666666666667 0  1.040869565217391 0.1666666666666667 0  1.057391304347826 0.1666666666666667 0  1.073913043478261 0.1666666666666667 0  1.090434782608696 0.1666666666666667 0  1.10695652173913 0.1666666666666667 0  1.123478260869565 0.1666666666666667 0  1.14 0.1666666666666667 0  1.156521739130435 0.1666666666666667 0  1.17304347826087 0.1666666666666667 0  0.8591304347826086 0.1833333333333333 0  0.8756521739130434 0.1833333333333333 0  0.8921739130434783 0.1833333333333333 0  0.908695652173913 0.1833333333333333 0  0.9252173913043478 0.1833333333333333 0  0.9417391304347826 0.1833333333333333 0  0.9582608695652173 0.1833333333333333 0  0.9747826086956521 0.1833333333333333 0  0.991304347826087 0.1833333333333333 0  1.007826086956522 0.1833333333333333 0  1.024347826086957 0.1833333333333333 0  1.040869565217391 0.1833333333333333 0  1.057391304347826 0.1833333333333333 0  1.073913043478261 0.1833333333333333 0  1.090434782608696 0.1833333333333333 0  1.10695652173913 0.1833333333333333 0  1.123478260869565 0.1833333333333333 0  1.14 0.1833333333333333 0  1.156521739130435 0.1833333333333333 0  1.17304347826087 0.1833333333333333 0  1.189565217391304 0.1833333333333333 0  0.8756521739130434 0.2 0  0.8921739130434783 0.2 0  0.908695652173913 0.2 0  0.9252173913043478 0.2 0  0.9417391304347826 0.2 0  0.9582608695652173 0.2 0  0.9747826086956521 0.2 0  0.991304347826087 0.2 0  1.007826086956522 0.2 0  1.024347826086957 0.2 0  1.040869565217391 0.2 0  1.057391304347826 0.2 0  1.073913043478261 0.2 0  1.090434782608696 0.2 0  1.10695652173913 0.2 0  1.123478260869565 0.2 0  1.14 0.2 0  1.156521739130435 0.2 0  1.17304347826087 0.2 0  1.189565217391304 0.2 0  1.206086956521739 0.2 0  0.8921739130434783 0.2166666666666667 0  0.908695652173913 0.2166666666666667 0  0.9252173913043478 0.2166666666666667 0  0.9417391304347826 0.2166666666666667 0  0.9582608695652173 0.2166666666666667 0  0.9747826086956521 0.2166666666666667 0  0.991304347826087 0.2166666666666667 0  1.007826086956522 0.2166666666666667 0  1.02434782608
[...]
<PointData  Vectors="Displacement"> 
<DataArray  type="Float64"  Name="Displacement"  NumberOfComponents="3" format="ascii">1.3884636792200960e-04 1.0090669676242120e-03 0.0000000000000000e+00  1.4234216416503264e-04 1.0300069553831996e-03 0.0000000000000000e+00  1.2145625157453502e-04 1.0287613908969309e-03 0.0000000000000000e+00  1.1745120203772936e-04 1.0078213412605182e-03 0.0000000000000000e+00  1.4584599076400651e-04 1.0504503665889617e-03 0.0000000000000000e+00  1.2545285023858593e-04 1.0492048540282574e-03 0.0000000000000000e+00  1.4935783087074888e-04 1.0704135215002359e-03 0.0000000000000000e+00  1.2944102668074474e-04 1.0691680418306012e-03 0.0000000000000000e+00  1.5287767895260957e-04 1.0899126551970756e-03 0.0000000000000000e+00  1.3342089027163059e-04 1.0886671850124396e-03 0.0000000000000000e+00  1.5640552668484516e-04 1.1089638572124956e-03 0.0000000000000000e+00  1.3739258797867138e-04 1.1077183893340441e-03 0.0000000000000000e+00  1.5994134928694009e-04 1.1275830870206816e-03 0.0000000000000000e+00  1.4135620104766108e-04 1.1263376357064428e-03 0.0000000000000000e+00  1.6348511132351431e-04 1.1457862643601843e-03 0.0000000000000000e+00  1.4531170012305650e-04 1.1445408403418231e-03 0.0000000000000000e+00  1.6703678543604782e-04 1.1635893173976286e-03 0.0000000000000000e+00  1.4925905132773885e-04 1.1623439113983345e-03 0.0000000000000000e+00  1.7059635885043287e-04 1.1810081362336386e-03 0.0000000000000000e+00  1.5319831017254653e-04 1.1797627281732103e-03 0.0000000000000000e+00  1.7416382532626281e-04 1.1980585063279929e-03 0.0000000000000000e+00  1.5712959593174543e-04 1.1968130785553271e-03 0.0000000000000000e+00  1.7773917857792353e-04 1.2147560899629353e-03 0.0000000000000000e+00  1.6105302646401526e-04 1.2135106261054031e-03 0.0000000000000000e+00  1.8132241426843020e-04 1.2311164342723060e-03 0.0000000000000000e+00  1.6496871227699204e-04 1.2298709132653161e-03 0.0000000000000000e+00  1.8491352662022983e-04 1.2471549530012741e-03 0.0000000000000000e+00  1.6887678568127374e-04 1.2459093646057311e-03 0.0000000000000000e+00  1.8851249050644614e-04 1.2628869217533997e-03 0.0000000000000000e+00  1.7277733874531526e-04 1.2616412919566836e-03 0.0000000000000000e+00  1.9211925049106253e-04 1.2783275753453949e-03 0.0000000000000000e+00  1.7667029638799198e-04 1.2770819586027039e-03 0.0000000000000000e+00  1.9573373901564099e-04 1.2934922637930016e-03 0.0000000000000000e+00  1.8055542527102014e-04 1.2922467025782711e-03 0.0000000000000000e+00  1.9935590905358790e-04 1.3083965143093638e-03 0.0000000000000000e+00  1.8443251396209505e-04 1.3071510099393056e-03 0.0000000000000000e+00  2.0298574909617876e-04 1.3230559353461999e-03 0.0000000000000000e+00  1.8830153454317365e-04 1.3218104564141999e-03 0.0000000000000000e+00  2.0662327103815055e-04 1.3374860593973364e-03 0.0000000000000000e+00  1.9216263404470054e-04 1.3362405689773462e-03 0.0000000000000000e+00  1.0116076611706043e-04 1.0241155622516562e-03 0.0000000000000000e+00  9.6460038805292050e-05 1.0031360452523296e-03 0.0000000000000000e+00  1.0578113477958910e-04 1.0447188887159546e-03 0.0000000000000000e+00  1.1034673260518166e-04 1.0648524118243344e-03 0.0000000000000000e+00  1.1488097363108767e-04 1.0844764418519045e-03 0.0000000000000000e+00  1.1939616200541678e-04 1.1035880685374060e-03 0.0000000000000000e+00  1.2388653117392478e-04 1.1222603557989345e-03 0.0000000000000000e+00  1.2833613122692090e-04 1.1405712573375330e-03 0.0000000000000000e+00  1.3274225354240860e-04 1.1585174081202129e-03 0.0000000000000000e+00  1.3712182220901043e-04 1.1760564001713008e-03 0.0000000000000000e+00  1.4149345469349775e-04 1.1931769955783533e-03 0.0000000000000000e+00  1.4586525434195742e-04 1.2099041070344008e-03 0.0000000000000000e+00  1.5024317975506223e-04 1.2262540913595174e-03 0.0000000000000000e+00  1.5463164020699147e-04 1.2422272268714171e-03 0.0000000000000000e+00  1.5900642707023722e-04 1.2578769133294262e-03 0.0000000000000000e+00  1.6330973156272570e-04 1.2733184599248435e-03 0.0000000000000000e+00  1.6749380909851752e-04 1.2886301081332489e-03 0.0000000000000000e+00  1.7156625020163971e-04 1.3037794526426802e-03 0.0000000000000000e+00  1.7558872645912675e-04 1.3186759441624826e-03 0.0000000000000000e+00  1.7962656100562727e-04 1.3332688038549742e-03 0.0000000000000000e+00  1.8370463166386951e-04 1.3475733965484487e-03 0.0000000000000000e+00  8.4740245907768925e-05 1.0056776755594690e-03 0.0000000000000000e+00  9.0515969279184906e-05 1.0259363393836244e-03 0.0000000000000000e+00  9.6273097206249294e-05 1.0458436655535633e-03 0.0000000000000000e+00  1.0199285833596442e-04 1.0653597619921218e-03 0.0000000000000000e+00  1.0765721060630245e-04 1.0844825971630086e-03 0.0000000000000000e+00  1.1324882161906633e-04 1.1032533274022815e-03 0.0000000000000000e+00  1.1876118267462106e-04 1.1217152074158006e-03 0.0000000000000000e+00  1.2419778310600405e-04 1.1398673240018728e-03 0.0000000000000000e+00  1.2956097876127580e-04 1.1576834444668093e-03 0.0000000000000000e+00  1.3484835798545253e-04 1.1751528828341964e-03 0.0000000000000000e+00  1.4005660702937881e-04 1.1922873495817401e-03 0.0000000000000000e+00  1.4518305460810478e-04 1.2090999296661589e-03 0.0000000000000000e+00  1.5021935099729275e-04 1.2256041397726446e-03 0.0000000000000000e+00  1.5514679798122859e-04 1.2418460160355329e-03 0.0000000000000000e+00  1.5994797923089249e-04 1.2578992950789431e-03 0.0000000000000000e+00  1.6462340065850396e-04 1.2738061796917122e-03 0.0000000000000000e+00  1.6919234417931792e-04 1.2895392176780656e-03 0.0000000000000000e+00  1.7367853570341769e-04 1.3050362045074963e-03 0.0000000000000000e+00  1.7809752929318044e-04 1.3202627716188129e-03 0.0000000000000000e+00  1.8245456624510096e-04 1.3352316572996978e-03 0.0000000000000000e+00  1.8674905594181273e-04 1.3499783675106265e-03 0.0000000000000000e+00  7.5876939878054687e-05 1.0065487028324751e-03 0.0000000000000000e+00  8.2639784207780493e-05 1.0262317500807764e-03 0.0000000000000000e+00  8.9363912615756001e-05 1.0456476351883479e-03 0.0000000000000000e+00  9.6017684046432683e-05 1.0647876612915452e-03 0.0000000000000000e+00  1.0257540504360547e-04 1.0836685714559987e-03 0.0000000000000000e+00  1.0902284378460156e-04 1.1023081076438669e-03 0.0000000000000000e+00  1.1535439488346846e-04 1.1207022833220226e-03 0.0000000000000000e+00  1.2156387854605995e-04 1.1388336872331991e-03 0.0000000000000000e+00  1.2764150353446969e-04 1.1566917315316482e-03 0.0000000000000000e+00  1.3357742858208856e-04 1.1742784883227474e-03 0.0000000000000000e+00  1.3936358356288694e-04 1.1916015888019612e-03 0.0000000000000000e+00  1.4499089590984103e-04 1.2086751155032701e-03 0.0000000000000000e+00  1.5044924253034393e-04 1.2255313074481329e-03 0.0000000000000000e+00  1.5573559117471159e-04 1.2422123598257219e-03 0.0000000000000000e+00  1.6086024651408297e-04 1.2587386338166451e-03 0.0000000000000000e+00  1.6584084916864260e-04 1.2750911154811864e-03 0.0000000000000000e+00  1.7069017883981777e-04 1.2912318447533737e-03 0.0000000000000000e+00  1.7541109289233802e-04 1.3071386151755010e-03 0.0000000000000000e+00  1.8000103859369676e-04 1.3228177306332147e-03 0.0000000000000000e+00  1.8445758866604534e-04 1.3382918772566342e-03 0.0000000000000000e+00  1.8877883284884448e-04 1.3535826265504462e-03 0.0000000000000000e+00  6.9442429284181733e-05 1.0060849382719813e-03 0.0000000000000000e+00  7.7027095311735805e-05 1.0254071460450850e-03 0.0000000000000000e+00  8.4532112363793315e-05 1.0445690740270019e-03 0.0000000000000000e+00  9.1924965116032566e-05 1.0635704370923632e-03 0.0000000000000000e+00  9.9182185120976925e-05 1.0824114306462406e-03 0.0000000000000000e+00  1.0628764144782126e-04 1.1010817343984740e-03 0.0000000000000000e+00  1.1322728128377097e-04 1.1195645074192973e-03 0.0000000000000000e+00  1.1998690154691278e-04 1.1378463896860296e-03 0.0000000000000000e+00  1.2655371850012949e-04 1.1559216354015223e-03 0.0000000000000000e+00  1.3291765700136355e-04 1.1737906885217633e-03 0.0000000000000000e+00  1.3907077208237135e-04 1.1914612848916988e-03 0.0000000000000000e+00  1.4500810445299421e-04 1.2089515949747921e-03 0.0000000000000000e+00  1.5073163142734333e-04 1.2262828153445635e-03 0.0000000000000000e+00  1.5625173643437110e-04 1.2434624657791022e-03 0.0000000000000000e+00  1.6158171928716775e-04 1.2604769053875420e-03 0.0000000000000000e+00  1.6672983429541279e-04 1.2773029675308934e-03 0.0000000000000000e+00  1.7169662804503472e-04 1.2939263759678449e-03 0.0000000000000000e+00  1.7647863892701106e-04 1.3103493844586569e-03 0.0000000000000000e+00  1.8107284619021320e-04 1.3265855546002053e-03 0.0000000000000000e+00  1.8547755475807073e-04 1.3426512891872337e-03 0.0000000000000000e+00  1.8969047494861262e-04 1.3585645615927172e-03 0.0000000000000000e+00  6.4996243995696937e-05 1.0046875645983811e-03 0.0000000000000000e+00  7.3231974589349589e-05 1.0238792310785919e-03 0.0000000000000000e+00  8.1341758835699185e-05 1.0430137840395991e-03 0.0000000000000000e+00  8.9293851950908922e-05 1.0620786708307600e-03 0.0000000000000000e+00  9.7063131420887467e-05 1.0810555684055028e-03 0.0000000000000000e+00  1.0462875726688548e-04 1.0999228447140170e-03 0.0000000000000000e+00  1.1197290601591627e-04 1.1186611207301494e-03 0.0000000000000000e+00  1.1908119141907728e-04 1.1372564216354478e-03 0.0000000000000000e+00  1.2594313991680270e-04 1.1557007583389354e-03 0.0000000000000000e+00  1.3255206471440346e-04 1.1739929532453347e-03 0.0000000000000000e+00  1.3890559037220163e-04 1.1921386968999984e-03 0.0000000000000000e+00  1.4500703522051265e-04 1.2101450178572707e-03 0.0000000000000000e+00  1.5086488954150544e-04 1.2280114035751904e-03 0.0000000000000000e+00  1.5648875945515069e-04 1.2457266483816849e-03 0.0000000000000000e+00  1.6188455866138915e-04 1.2632753156700213e-03 0.0000000000000000e+00  1.6705301891636523e-04 1.2806473336967482e-03 0.0000000000000000e+00  1.7199199233815113e-04 1.2978423070796885e-03 0.0000000000000000e+00  1.7669950073908390e-04 1.3148674107886175e-03 0.0000000000000000e+00  1.8117501862613405e-04 1.3317334169488768e-03 0.0000000000000000e+00  1.8541928591683733e-04 1.3484535851651601e-03 0.0000000000000000e+00  1.8943499100444812e-04 1.3650448072355977e-03 0.0000000000000000e+00  6.2135610215119673e-05 1.0027585990764810e-03 0.0000000000000000e+00  7.0857068662579897e-05 1.0220420019648368e-03 0.0000000000000000e+00  7.9400687703457893e-05 1.0413537243414443e-03 0.0000000000000000e+00  8.7733774686433826e-05 1.0606661921720856e-03 0.0000000000000000e+00  9.5829854524286096e-05 1.0799494559611887e-03 0.0000000000000000e+00  1.0366812448424687e-04 1.0991752979819425e-03 0.0000000000000000e+00  1.1123325610641614e-04 1.1183202158462642e-03 0.0000000000000000e+00  1.1851509615785283e-04 1.1373668009165532e-03 0.0000000000000000e+00  1.2550817591816191e-04 1.1563043242675719e-03 0.0000000000000000e+00  1.3221152564251438e-04 1.1751278540031308e-03 0.0000000000000000e+00  1.3862862644703890e-04 1.1938343452964342e-03 0.0000000000000000e+00  1.4476619095548618e-04 1.2124176602365433e-03 0.0000000000000000e+00  1.5063130937981100e-04 1.2308670225849897e-03 0.0000000000000000e+00  1.5622859214344835e-04 1.2491703690838190e-03 0.0000000000000000e+00  1.6155935075930078e-04 1.2673191895472436e-03 0.0000000000000000e+00  1.6662298887570003e-04 1.2853107966221823e-03 0.0000000000000000e+00  1.7141902687578954e-04 1.3031474380690283e-03 0.0000000000000000e+00  1.7594839612662983e-04 1.3208343483520153e-03 0.0000000000000000e+00  1.8021401692079120e-04 1.3383787747385811e-03 0.0000000000000000e+00  1.8422160608278700e-04 1.3557894556062843e-03 0.0000000000000000e+00  1.8798090612426015e-04 1.3730737674240065e-03 0.0000000000000000e+00  6.0491470159270410e-05 1.0006880451549219e-03 0.0000000000000000e+00  6.9534035235048971e-05 1.0202715209461435e-03 0.0000000000000000e+00  7.8339952402145386e-05 1.0399494076705133e-03 0.0000000000000000e+00  8.6878030479015339e-05 1.0596805427778961e-03 0.0000000000000000e+00  9.5125274070015606e-05 1.0794252981843454e-03 0.0000000000000000e+00  1.0306614088276878e-04 1.0991490977396126e-03 0.0000000000000000e+00  1.1069143561164013e-04 1.1188243277147380e-03 0.0000000000000000e+00  1.1799713137638357e-04 1.1384307980402135e-03 0.0000000000000000e+00  1.2498343076913264e-04 1.1579545868717763e-03 0.0000000000000000e+00  1.3165390647477149e-04 1.1773851095890726e-03 0.0000000000000000e+00  1.3801411365412650e-04 1.1967119099525413e-03 0.0000000000000000e+00  1.4406959925262425e-04 1.2159234844655261e-03 0.0000000000000000e+00  1.4982421107454793e-04 1.2350086853728567e-03 0.0000000000000000e+00  1.5527969386227363e-04 1.2539589192253396e-03 0.0000000000000000e+00  1.6043659838842054e-04 1.2727691532477712e-03 0.0000000000000000e+00  1.6529568198395738e-04 1.2914374047774374e-03 0.0000000000000000e+00  1.6985906882714579e-04 1.3099636477688578e-03 0.0000000000000000e+00  1.7413107727301882e-04 1.3283489897350535e-03 0.0000000000000000e+00  1.7811900879711177e-04 1.3465948351184776e-03 0.0000000000000000e+00  1.8183379900409724e-04 1.3647010803883508e-03 0.0000000000000000e+00  1.8528971950096187e-04 1.3826640857887912e-03 0.0000000000000000e+00  5.9715265057633807e-05 9.9885903336148518e-04 0.0000000000000000e+00  6.8910979211442023e-05 1.0189353100794900e-03 0.0000000000000000e+00  7.7808507027253188e-05 1.0391487306945296e-03 0.0000000000000000e+00  8.6383707260231314e-05 1.0594455308827180e-03 0.0000000000000000e+00  9.4621920191330835e-05 1.0797784032683987e-03 0.0000000000000000e+00  1.0251585402632685e-04 1.1001089271059316e-03 0.0000000000000000e+00  1.1006353941410525e-04 1.1204078678667933e-03 0.0000000000000000e+00  1.1726668460489521e-04 1.1406537490665041e-03 0.0000000000000000e+00  1.2412933720895003e-04 1.1608302346135450e-03 0.0000000000000000e+00  1.3065653776541877e-04 1.1809234936536682e-03 0.0000000000000000e+00  1.3685294894008073e-04 1.2009208241274478e-03 0.0000000000000000e+00  1.4272189924586013e-04 1.2208107605787722e-03 0.0000000000000000e+00  1.4826527559291076e-04 1.2405837315264403e-03 0.0000000000000000e+00  1.5348421987725796e-04 1.2602322575343855e-03 0.0000000000000000e+00  1.5838018740083314e-04 1.2797504776849726e-03 0.0000000000000000e+00  1.6295597192812026e-04 1.2991333907848518e-03 0.0000000000000000e+00  1.6721659128999730e-04 1.3183761718254436e-03 0.0000000000000000e+00  1.7117007366317284e-04 1.3374734761142986e-03 0.0000000000000000e+00  1.7482798568608853e-04 1.3564185269550439e-03 0.0000000000000000e+00  1.7820527751681730e-04 1.3752026233389450e-03 0.0000000000000000e+00  1.8131923450087593e-04 1.3938162816462473e-03 0.0000000000000000e+00  5.9466864928880805e-05 9.9764925712253678e-04 0.0000000000000000e+00  6.8646007248443985e-05 1.0183840777191057e-03 0.0000000000000000e+00  7.7471198382247184e-05 1.0392693630560221e-03 0.0000000000000000e+00  8.5930334390537367e-05 1.0602433063351888e-03 0.0000000000000000e+00  9.4019453055865009e-05 1.0812563237016771e-03 0.0000000000000000e+00  1.0173965082102061e-04 1.1022708748031553e-03 0.0000000000000000e+00  1.0909479710343710e-04 1.1232593980477314e-03 0.0000000000000000e+00  1.1608993180294369e-04 1.1442013878139225e-03 0.0000000000000000e+00  1.2273008039266736e-04 1.1650806087650791e-03 0.0000000000000000e+00  1.2901938665602170e-04 1.1858832374455387e-03 0.0000000000000000e+00  1.3496069024792956e-04 1.2065970472645113e-03 0.0000000000000000e+00  1.4055567814673186e-04 1.2272111203410947e-03 0.0000000000000000e+00  1.4580552778658569e-04 1.2477155194645514e-03 0.0000000000000000e+00  1.5071179545828574e-04 1.2681007383254213e-03 0.0000000000000000e+00  1.5527734602291494e-04 1.2883570482531824e-03 0.0000000000000000e+00  1.5950725311550837e-04 1.3084739045672120e-03 0.0000000000000000e+00  1.6340964349553612e-04 1.3284394576552410e-03 0.0000000000000000e+00  1.6699635430679390e-04 1.3482402676013932e-03 0.0000000000000000e+00  1.7028317258814337e-04 1.3678617243676056e-03 0.0000000000000000e+00  1.7328954020513586e-04 1.3872898457946213e-03 0.0000000000000000e+00  1.7603780699153087e-04 1.4065145998715537e-03 0.0000000000000000e+00  5.9406237317788122e-05 9.9741539149273751e-04 0.0000000000000000e+00  6.8405185994719443e-05 1.0189303037061086e-03 0.0000000000000000e+00  7.7009862334118115e-05 1.0405796495017684e-03 0.0000000000000000e+00  8.5221628887080801e-05 1.0623027937165714e-03 0.0000000000000000e+00  9.3045982123134664e-05 1.0840551693672145e-03 0.0000000000000000e+00  1.0048974004117274e-04 1.1058049329127190e-03 0.0000000000000000e+00  1.0755939047061296e-04 1.1275291514321114e-03 0.0000000000000000e+00  1.1426021271444734e-04 1.1492103865341581e-03 0.0000000000000000e+00  1.2059591864611769e-04 1.1708342092889119e-03 0.0000000000000000e+00  1.2656871002158767e-04 1.1923876993180157e-03 0.0000000000000000e+00  1.3217969797770892e-04 1.2138585740572288e-03 0.0000000000000000e+00  1.3742958309653493e-04 1.2352345411204735e-03 0.0000000000000000e+00  1.4231946222189869e-04 1.2565026668319142e-03 0.0000000000000000e+00  1.4685168925096908e-04 1.2776487218526889e-03 0.0000000000000000e+00  1.5103078390604386e-04 1.2986565931282562e-03 0.0000000000000000e+00  1.5486438016984409e-04 1.3195079021513993e-03 0.0000000000000000e+00  1.5836414114913497e-04 1.3401820619228292e-03 0.0000000000000000e+00  1.6154652344460734e-04 1.3606571909591529e-03 0.0000000000000000e+00  1.6443330655924098e-04 1.3809123437848194e-03 0.0000000000000000e+00  1.6705183011697449e-04 1.4009311995847749e-03 0.0000000000000000e+00  1.6943469523033052e-04 1.4207070269546547e-03 0.0000000000000000e+00  5.9193450400970535e-05 9.9846363480910979e-04 0.0000000000000000e+00  6.7868187551314873e-05 1.0208250789699935e-03 0.0000000000000000e+00  7.6130455307807913e-05 1.0432857978222548e-03 0.0000000000000000e+00  8.3991666224164516e-05 1.0657964050975581e-03 0.0000000000000000e+00  9.1462297664442234e-05 1.0883232316272003e-03 0.0000000000000000e+00  9.8550500261825817e-05 1.1108430753698606e-03 0.0000000000000000e+00  1.0526175441820095e-04 1.1333388244047370e-03 0.0000000000000000e+00  1.1159913284696231e-04 1.1557962935692583e-03 0.0000000000000000e+00  1.1756387744285717e-04 1.1782022417856366e-03 0.0000000000000000e+00  1.2315611813790852e-04 1.2005432029494726e-03 0.0000000000000000e+00  1.2837563042679474e-04 1.2228047136425869e-03 0.0000000000000000e+00  1.3322257987475396e-04 1.2449706595262576e-03 0.0000000000000000e+00  1.3769830125835369e-04 1.2670225624793043e-03 0.0000000000000000e+00  1.4180619340294805e-04 1.2889388843690362e-03 0.0000000000000000e+00  1.4555277310688427e-04 1.3106945781371936e-03 0.0000000000000000e+00  1.4894888363027196e-04 1.3322611967811994e-03 0.0000000000000000e+00  1.5201103950472842e-04 1.3536079429880188e-03 0.0000000000000000e+00  1.5476287010214918e-04 1.3747040845131688e-03 0.0000000000000000e+00  1.5723656560000338e-04 1.3955229731083692e-03 0.0000000000000000e+00  1.5947392018779687e-04 1.4160479205085048e-03 0.0000000000000000e+00  1.6152613281742343e-04 1.4362797868990498e-03 0.0000000000000000e+00  5.8502017080360811e-05 1.0010204307404110e-03 0.0000000000000000e+00  6.6742625498674793e-05 1.0242446591560478e-03 0.0000000000000000e+00  7.4574609229785172e-05 1.0475307460708900e-03 0.0000000000000000e+00  8.2012454239548116e-05 1.0708466107449360e-03 0.0000000000000000e+00  8.9065733773028397e-05 1.0941715189031066e-03 0.0000000000000000e+00  9.5739636343673934e-05 1.1174905519231060e-03 0.0000000000000000e+00  1.0203605388710834e-04 1.1407908181962458e-03 0.0000000000000000e+00  1.0795477308435799e-04 1.1640592436808540e-03 0.0000000000000000e+00  1.1349452347069482e-04 1.1872814075752399e-03 0.0000000000000000e+00  1.1865380414241607e-04 1.2104408750191866e-03 0.0000000000000000e+00  1.2343151739540342e-04 1.2335186398355414e-03 0.0000000000000000e+00  1.2782760435852157e-04 1.2564923094382265e-03 0.0000000000000000e+00  1.3184386894571717e-04 1.2793351585630877e-03 0.0000000000000000e+