<?xml version="1.0"?>
<VTKFile type="UnstructuredGrid"  version="0.1"  >
<UnstructuredGrid>
<Piece  NumberOfPoints="639" NumberOfCells="1175">
<Points>
<DataArray  type="Float64"  NumberOfComponents="3"  format="ascii">1.321739130434783 0 0  1.338260869565217 0 0  1.338260869565217 0.01666666666666667 0  1.354782608695652 0 0  1.354782608695652 0.01666666666666667 0  1.371304347826087 0 0  1.371304347826087 0.01666666666666667 0  1.387826086956522 0 0  1.387826086956522 0.01666666666666667 0  1.404347826086957 0 0  1.404347826086957 0.01666666666666667 0  1.420869565217391 0 0  1.420869565217391 0.01666666666666667 0  1.437391304347826 0 0  1.437391304347826 0.01666666666666667 0  1.453913043478261 0 0  1.453913043478261 0.01666666666666667 0  1.470434782608696 0 0  1.470434782608696 0.01666666666666667 0  1.486956521739131 0 0  1.486956521739131 0.01666666666666667 0  1.503478260869565 0 0  1.503478260869565 0.01666666666666667 0  1.52 0 0  1.52 0.01666666666666667 0  1.536521739130435 0 0  1.536521739130435 0.01666666666666667 0  1.55304347826087 0 0  1.55304347826087 0.01666666666666667 0  1.569565217391304 0 0  1.569565217391304 0.01666666666666667 0  1.586086956521739 0 0  1.586086956521739 0.01666666666666667 0  1.602608695652174 0 0  1.602608695652174 0.01666666666666667 0  1.619130434782609 0 0  1.619130434782609 0.01666666666666667 0  1.635652173913043 0 0  1.635652173913043 0.01666666666666667 0  1.652173913043478 0 0  1.652173913043478 0.01666666666666667 0  1.668695652173913 0 0  1.668695652173913 0.01666666666666667 0  1.685217391304348 0 0  1.685217391304348 0.01666666666666667 0  1.701739130434782 0 0  1.701739130434782 0.01666666666666667 0  1.718260869565217 0 0  1.718260869565217 0.01666666666666667 0  1.734782608695652 0 0  1.734782608695652 0.01666666666666667 0  1.751304347826087 0 0  1.751304347826087 0.01666666666666667 0  1.767826086956522 0 0  1.767826086956522 0.01666666666666667 0  1.784347826086957 0 0  1.784347826086957 0.01666666666666667 0  1.800869565217391 0 0  1.800869565217391 0.01666666666666667 0  1.817391304347826 0 0  1.817391304347826 0.01666666666666667 0  1.833913043478261 0 0  1.833913043478261 0.01666666666666667 0  1.850434782608696 0 0  1.850434782608696 0.01666666666666667 0  1.86695652173913 0 0  1.86695652173913 0.01666666666666667 0  1.883478260869565 0 0  1.883478260869565 0.01666666666666667 0  1.354782608695652 0.03333333333333333 0  1.371304347826087 0.03333333333333333 0  1.387826086956522 0.03333333333333333 0  1.404347826086957 0.03333333333333333 0  1.420869565217391 0.03333333333333333 0  1.437391304347826 0.03333333333333333 0  1.453913043478261 0.03333333333333333 0  1.470434782608696 0.03333333333333333 0  1.486956521739131 0.03333333333333333 0  1.503478260869565 0.03333333333333333 0  1.52 0.03333333333333333 0  1.536521739130435 0.03333333333333333 0  1.55304347826087 0.03333333333333333 0  1.569565217391304 0.03333333333333333 0  1.586086956521739 0.03333333333333333 0  1.602608695652174 0.03333333333333333 0  1.619130434782609 0.03333333333333333 0  1.635652173913043 0.03333333333333333 0  1.652173913043478 0.03333333333333333 0  1.668695652173913 0.03333333333333333 0  1.685217391304348 0.03333333333333333 0  1.701739130434782 0.03333333333333333 0  1.718260869565217 0.03333333333333333 0  1.734782608695652 0.03333333333333333 0  1.751304347826087 0.03333333333333333 0  1.767826086956522 0.03333333333333333 0  1.784347826086957 0.03333333333333333 0  1.800869565217391 0.03333333333333333 0  1.817391304347826 0.03333333333333333 0  1.833913043478261 0.03333333333333333 0  1.850434782608696 0.03333333333333333 0  1.86695652173913 0.03333333333333333 0  1.883478260869565 0.03333333333333333 0  1.371304347826087 0.05 0  1.387826086956522 0.05 0  1.404347826086957 0.05 0  1.420869565217391 0.05 0  1.437391304347826 0.05 0  1.453913043478261 0.05 0  1.470434782608696 0.05 0  1.486956521739131 0.05 0  1.503478260869565 0.05 0  1.52 0.05 0  1.536521739130435 0.05 0  1.55304347826087 0.05 0  1.569565217391304 0.05 0  1.586086956521739 0.05 0  1.602608695652174 0.05 0  1.619130434782609 0.05 0  1.635652173913043 0.05 0  1.652173913043478 0.05 0  1.668695652173913 0.05 0  1.685217391304348 0.05 0  1.701739130434782 0.05 0  1.718260869565217 0.05 0  1.734782608695652 0.05 0  1.751304347826087 0.05 0  1.767826086956522 0.05 0  1.784347826086957 0.05 0  1.800869565217391 0.05 0  1.817391304347826 0.05 0  1.833913043478261 0.05 0  1.850434782608696 0.05 0  1.86695652173913 0.05 0  1.883478260869565 0.05 0  1.387826086956522 0.06666666666666667 0  1.404347826086957 0.06666666666666667 0  1.420869565217391 0.06666666666666667 0  1.437391304347826 0.06666666666666667 0  1.453913043478261 0.06666666666666667 0  1.470434782608696 0.06666666666666667 0  1.486956521739131 0.06666666666666667 0  1.503478260869565 0.06666666666666667 0  1.52 0.06666666666666667 0  1.536521739130435 0.06666666666666667 0  1.55304347826087 0.06666666666666667 0  1.569565217391304 0.06666666666666667 0  1.586086956521739 0.06666666666666667 0  1.602608695652174 0.06666666666666667 0  1.619130434782609 0.06666666666666667 0  1.635652173913043 0.06666666666666667 0  1.652173913043478 0.06666666666666667 0  1.668695652173913 0.06666666666666667 0  1.685217391304348 0.06666666666666667 0  1.701739130434782 0.06666666666666667 0  1.718260869565217 0.06666666666666667 0  1.734782608695652 0.06666666666666667 0  1.751304347826087 0.06666666666666667 0  1.767826086956522 0.06666666666666667 0  1.784347826086957 0.06666666666666667 0  1.800869565217391 0.06666666666666667 0  1.817391304347826 0.06666666666666667 0  1.833913043478261 0.06666666666666667 0  1.850434782608696 0.06666666666666667 0  1.86695652173913 0.06666666666666667 0  1.883478260869565 0.06666666666666667 0  1.404347826086957 0.08333333333333333 0  1.420869565217391 0.08333333333333333 0  1.437391304347826 0.08333333333333333 0  1.453913043478261 0.08333333333333333 0  1.470434782608696 0.08333333333333333 0  1.486956521739131 0.08333333333333333 0  1.503478260869565 0.08333333333333333 0  1.52 0.08333333333333333 0  1.536521739130435 0.08333333333333333 0  1.55304347826087 0.08333333333333333 0  1.569565217391304 0.08333333333333333 0  1.586086956521739 0.08333333333333333 0  1.602608695652174 0.08333333333333333 0  1.619130434782609 0.08333333333333333 0  1.635652173913043 0.08333333333333333 0  1.652173913043478 0.08333333333333333 0  1.668695652173913 0.08333333333333333 0  1.685217391304348 0.08333333333333333 0  1.701739130434782 0.08333333333333333 0  1.718260869565217 0.08333333333333333 0  1.734782608695652 0.08333333333333333 0  1.751304347826087 0.08333333333333333 0  1.767826086956522 0.08333333333333333 0  1.784347826086957 0.08333333333333333 0  1.800869565217391 0.08333333333333333 0  1.817391304347826 0.08333333333333333 0  1.833913043478261 0.08333333333333333 0  1.850434782608696 0.08333333333333333 0  1.86695652173913 0.08333333333333333 0  1.883478260869565 0.08333333333333333 0  1.420869565217391 0.1 0  1.437391304347826 0.1 0  1.453913043478261 0.1 0  1.470434782608696 0.1 0  1.486956521739131 0.1 0  1.503478260869565 0.1 0  1.52 0.1 0  1.536521739130435 0.1 0  1.55304347826087 0.1 0  1.569565217391304 0.1 0  1.586086956521739 0.1 0  1.602608695652174 0.1 0  1.619130434782609 0.1 0  1.635652173913043 0.1 0  1.652173913043478 0.1 0  1.668695652173913 0.1 0  1.685217391304348 0.1 0  1.701739130434782 0.1 0  1.718260869565217 0.1 0  1.734782608695652 0.1 0  1.751304347826087 0.1 0  1.767826086956522 0.1 0  1.784347826086957 0.1 0  1.800869565217391 0.1 0  1.817391304347826 0.1 0  1.833913043478261 0.1 0  1.850434782608696 0.1 0  1.86695652173913 0.1 0  1.883478260869565 0.1 0  1.437391304347826 0.1166666666666667 0  1.453913043478261 0.1166666666666667 0  1.470434782608696 0.1166666666666667 0  1.486956521739131 0.1166666666666667 0  1.503478260869565 0.1166666666666667 0  1.52 0.1166666666666667 0  1.536521739130435 0.1166666666666667 0  1.55304347826087 0.1166666666666667 0  1.569565217391304 0.1166666666666667 0  1.586086956521739 0.1166666666666667 0  1.602608695652174 0.1166666666666667 0  1.619130434782609 0.1166666666666667 0  1.635652173913043 0.1166666666666667 0  1.652173913043478 0.1166666666666667 0  1.668695652173913 0.1166666666666667 0  1.685217391304348 0.1166666666666667 0  1.701739130434782 0.1166666666666667 0  1.718260869565217 0.1166666666666667 0  1.734782608695652 0.1166666666666667 0  1.751304347826087 0.1166666666666667 0  1.767826086956522 0.1166666666666667 0  1.784347826086957 0.1166666666666667 0  1.800869565217391 0.1166666666666667 0  1.817391304347826 0.1166666666666667 0  1.833913043478261 0.1166666666666667 0  1.850434782608696 0.1166666666666667 0  1.86695652173913 0.1166666666666667 0  1.883478260869565 0.1166666666666667 0  1.453913043478261 0.1333333333333333 0  1.470434782608696 0.1333333333333333 0  1.486956521739131 0.1333333333333333 0  1.503478260869565 0.1333333333333333 0  1.52 0.1333333333333333 0  1.536521739130435 0.1333333333333333 0  1.55304347826087 0.1333333333333333 0  1.569565217391304 0.1333333333333333 0  1.586086956521739 0.1333333333333333 0  1.602608695652174 0.1333333333333333 0  1.619130434782609 0.1333333333333333 0  1.635652173913043 0.1333333333333333 0  1.652173913043478 0.1333333333333333 0  1.668695652173913 0.1333333333333333 0  1.685217391304348 0.1333333333333333 0  1.701739130434782 0.1333333333333333 0  1.718260869565217 0.1333333333333333 0  1.734782608695652 0.1333333333333333 0  1.751304347826087 0.1333333333333333 0  1.767826086956522 0.1333333333333333 0  1.784347826086957 0.1333333333333333 0  1.800869565217391 0.1333333333333333 0  1.817391304347826 0.1333333333333333 0  1.833913043478261 0.1333333333333333 0  1.850434782608696 0.1333333333333333 0  1.86695652173913 0.1333333333333333 0  1.883478260869565 0.1333333333333333 0  1.470434782608696 0.15 0  1.486956521739131 0.15 0  1.503478260869565 0.15 0  1.52 0.15 0  1.5365217391304
[...]
<PointData  Vectors="Displacement"> 
<DataArray  type="Float64"  Name="Displacement"  NumberOfComponents="3" format="ascii">2.3689286307746889e-04 1.2449320279239525e-03 0.0000000000000000e+00  2.4002841794738177e-04 1.2547002816282484e-03 0.0000000000000000e+00  2.3026178724904289e-04 1.2536272061945510e-03 0.0000000000000000e+00  2.4316480633072295e-04 1.2642931046479306e-03 0.0000000000000000e+00  2.3357416392066275e-04 1.2632199386889461e-03 0.0000000000000000e+00  2.4630223432764458e-04 1.2737128624506493e-03 0.0000000000000000e+00  2.3688571849381885e-04 1.2726390817391661e-03 0.0000000000000000e+00  2.4944068715726937e-04 1.2829615242462525e-03 0.0000000000000000e+00  2.4019810553029965e-04 1.2818866153854254e-03 0.0000000000000000e+00  2.5257623266422032e-04 1.2920374822088555e-03 0.0000000000000000e+00  2.4351269990096732e-04 1.2909668843439888e-03 0.0000000000000000e+00  2.5561447431403004e-04 1.3007832737488598e-03 0.0000000000000000e+00  2.4684688568936820e-04 1.2999346809031533e-03 0.0000000000000000e+00  2.5857549509684388e-04 1.3095509100409090e-03 0.0000000000000000e+00  2.4934969409226256e-04 1.3087536007502119e-03 0.0000000000000000e+00  2.6156693793316210e-04 1.3190414699445019e-03 0.0000000000000000e+00  2.5139697985774228e-04 1.3182146143605870e-03 0.0000000000000000e+00  2.6452638410093629e-04 1.3297097276527348e-03 0.0000000000000000e+00  2.5327003227540586e-04 1.3289335401764184e-03 0.0000000000000000e+00  2.6743566636076643e-04 1.3414079357848845e-03 0.0000000000000000e+00  2.5505771402121856e-04 1.3406828958638355e-03 0.0000000000000000e+00  2.7044907200338966e-04 1.3539685133703019e-03 0.0000000000000000e+00  2.5685541368137996e-04 1.3532275081554754e-03 0.0000000000000000e+00  2.7376379290842376e-04 1.3675817675520459e-03 0.0000000000000000e+00  2.5870412191000635e-04 1.3667751401109916e-03 0.0000000000000000e+00  2.7749769599679273e-04 1.3827524145330788e-03 0.0000000000000000e+00  2.6055363029790150e-04 1.3818507111621073e-03 0.0000000000000000e+00  2.8163203954721980e-04 1.4001821655554576e-03 0.0000000000000000e+00  2.6232371084730985e-04 1.3991732741984195e-03 0.0000000000000000e+00  2.8590747458662012e-04 1.4207697400240662e-03 0.0000000000000000e+00  2.6382900967528763e-04 1.4196795780713205e-03 0.0000000000000000e+00  2.9004098736805232e-04 1.4447836865276098e-03 0.0000000000000000e+00  2.6529862535862200e-04 1.4434914164523634e-03 0.0000000000000000e+00  2.9347602933075281e-04 1.4715596083740199e-03 0.0000000000000000e+00  2.6742699777521561e-04 1.4704526364224507e-03 0.0000000000000000e+00  2.9585612800760841e-04 1.4986429955777152e-03 0.0000000000000000e+00  2.7006542937637392e-04 1.4980208595085009e-03 0.0000000000000000e+00  2.9745196046559270e-04 1.5248465096040617e-03 0.0000000000000000e+00  2.7199019147774203e-04 1.5243289495725540e-03 0.0000000000000000e+00  2.9856069157189639e-04 1.5504351469169040e-03 0.0000000000000000e+00  2.7361231148081392e-04 1.5499958518682478e-03 0.0000000000000000e+00  2.9921847538928606e-04 1.5753614483242785e-03 0.0000000000000000e+00  2.7503976315519977e-04 1.5750762310572832e-03 0.0000000000000000e+00  2.9948001822638028e-04 1.5992819742474715e-03 0.0000000000000000e+00  2.7620654929037797e-04 1.5991394630549014e-03 0.0000000000000000e+00  2.9953004895681912e-04 1.6220303627285087e-03 0.0000000000000000e+00  2.7712249751619776e-04 1.6219433584290445e-03 0.0000000000000000e+00  2.9951059099385239e-04 1.6438354653768687e-03 0.0000000000000000e+00  2.7782661723412905e-04 1.6437893480503963e-03 0.0000000000000000e+00  2.9953851346725842e-04 1.6648575893878765e-03 0.0000000000000000e+00  2.7838572470878227e-04 1.6648220175008079e-03 0.0000000000000000e+00  2.9975317235605151e-04 1.6852772324496570e-03 0.0000000000000000e+00  2.7889222547651169e-04 1.6852082230558155e-03 0.0000000000000000e+00  3.0030604071939321e-04 1.7053600672106567e-03 0.0000000000000000e+00  2.7944111663016929e-04 1.7052095396571459e-03 0.0000000000000000e+00  3.0132843697273237e-04 1.7254780818319348e-03 0.0000000000000000e+00  2.8011270277887189e-04 1.7252027530437360e-03 0.0000000000000000e+00  3.0287020657702535e-04 1.7461388766030574e-03 0.0000000000000000e+00  2.8092705607427369e-04 1.7457223550233268e-03 0.0000000000000000e+00  3.0480953915586038e-04 1.7680357612856364e-03 0.0000000000000000e+00  2.8175257375935456e-04 1.7674932173718739e-03 0.0000000000000000e+00  3.0693564374030795e-04 1.7912926202551718e-03 0.0000000000000000e+00  2.8278765611149836e-04 1.7907484529584140e-03 0.0000000000000000e+00  3.0909779792615997e-04 1.8157921318346882e-03 0.0000000000000000e+00  2.8381267517148294e-04 1.8152535487118296e-03 0.0000000000000000e+00  3.1124433740583414e-04 1.8414610566574003e-03 0.0000000000000000e+00  2.8483250909164888e-04 1.8409270515861739e-03 0.0000000000000000e+00  3.1336473494129825e-04 1.8682287137295440e-03 0.0000000000000000e+00  2.8586919211348919e-04 1.8676979623226861e-03 0.0000000000000000e+00  2.2391546362691026e-04 1.2621109292450020e-03 0.0000000000000000e+00  2.2740056729298497e-04 1.2715305717106459e-03 0.0000000000000000e+00  2.3087811044803142e-04 1.2807788713554140e-03 0.0000000000000000e+00  2.3432758350378676e-04 1.2898635915700042e-03 0.0000000000000000e+00  2.3767475190789082e-04 1.2988493927762136e-03 0.0000000000000000e+00  2.4077764906749692e-04 1.3082468962794711e-03 0.0000000000000000e+00  2.4167933026833689e-04 1.3177650648496561e-03 0.0000000000000000e+00  2.4209316461148148e-04 1.3285903969947291e-03 0.0000000000000000e+00  2.4262889208739755e-04 1.3404687052785301e-03 0.0000000000000000e+00  2.4321689882311629e-04 1.3529825830613726e-03 0.0000000000000000e+00  2.4378289066426178e-04 1.3664362262010626e-03 0.0000000000000000e+00  2.4415105518590821e-04 1.3814367240969434e-03 0.0000000000000000e+00  2.4406772408313863e-04 1.3985545212975312e-03 0.0000000000000000e+00  2.4353832393394953e-04 1.4189202998856807e-03 0.0000000000000000e+00  2.4264388478771530e-04 1.4425245820271313e-03 0.0000000000000000e+00  2.4148699382238245e-04 1.4696152014638340e-03 0.0000000000000000e+00  2.4419715396333208e-04 1.4971273439416686e-03 0.0000000000000000e+00  2.4756872877385939e-04 1.5239327609305135e-03 0.0000000000000000e+00  2.4915480114510844e-04 1.5493840245618766e-03 0.0000000000000000e+00  2.5117936248721725e-04 1.5744864831365609e-03 0.0000000000000000e+00  2.5351818258608817e-04 1.5988685545248848e-03 0.0000000000000000e+00  2.5519162222030695e-04 1.6217063856968231e-03 0.0000000000000000e+00  2.5645050921007252e-04 1.6436634510492635e-03 0.0000000000000000e+00  2.5735051483968737e-04 1.6647877029562323e-03 0.0000000000000000e+00  2.5797911990666021e-04 1.6852055337597742e-03 0.0000000000000000e+00  2.5842962912578642e-04 1.7051637735499921e-03 0.0000000000000000e+00  2.5880109597818017e-04 1.7250126420332340e-03 0.0000000000000000e+00  2.5917719539063740e-04 1.7453196574343550e-03 0.0000000000000000e+00  2.5941718816634022e-04 1.7670047912190098e-03 0.0000000000000000e+00  2.5942816871425966e-04 1.7902150733213242e-03 0.0000000000000000e+00  2.5919041779211700e-04 1.8148690974584475e-03 0.0000000000000000e+00  2.5887185400347057e-04 1.8406152590283410e-03 0.0000000000000000e+00  2.5875777072752247e-04 1.8674048816699270e-03 0.0000000000000000e+00  2.1938380380937645e-04 1.2691842994876101e-03 0.0000000000000000e+00  2.2215961845871104e-04 1.2788184921843535e-03 0.0000000000000000e+00  2.2475761672588996e-04 1.2883661195854984e-03 0.0000000000000000e+00  2.2707293406676389e-04 1.2979381063675751e-03 0.0000000000000000e+00  2.2896793301394492e-04 1.3077872129733871e-03 0.0000000000000000e+00  2.3032784880603135e-04 1.3176808205482941e-03 0.0000000000000000e+00  2.3022971969351735e-04 1.3286112083516384e-03 0.0000000000000000e+00  2.3006938414588162e-04 1.3406990228877441e-03 0.0000000000000000e+00  2.2993813802262334e-04 1.3530558616644420e-03 0.0000000000000000e+00  2.2981000415896148e-04 1.3662477231551613e-03 0.0000000000000000e+00  2.2944029899664857e-04 1.3809952316060439e-03 0.0000000000000000e+00  2.2876838419125296e-04 1.3978681775402707e-03 0.0000000000000000e+00  2.2720901806593276e-04 1.4178260642057100e-03 0.0000000000000000e+00  2.2821991056036793e-04 1.4455158039999997e-03 0.0000000000000000e+00  2.2764779219008354e-04 1.4721692868175352e-03 0.0000000000000000e+00  2.2731602592458461e-04 1.4983954253566477e-03 0.0000000000000000e+00  2.2672510790675284e-04 1.5245154851071128e-03 0.0000000000000000e+00  2.2410123150222192e-04 1.5488614694830194e-03 0.0000000000000000e+00  2.2751907627718655e-04 1.5737794809273246e-03 0.0000000000000000e+00  2.3106530486903073e-04 1.5980859988451186e-03 0.0000000000000000e+00  2.3428375147861271e-04 1.6214054878392569e-03 0.0000000000000000e+00  2.3587090662002539e-04 1.6435646017738490e-03 0.0000000000000000e+00  2.3698194130502333e-04 1.6648710723161176e-03 0.0000000000000000e+00  2.3763676517962696e-04 1.6853549147621222e-03 0.0000000000000000e+00  2.3797890120938860e-04 1.7052518125573470e-03 0.0000000000000000e+00  2.3816098817436198e-04 1.7248235015386551e-03 0.0000000000000000e+00  2.3836867273856053e-04 1.7445901422800136e-03 0.0000000000000000e+00  2.3850950986515300e-04 1.7660787955728386e-03 0.0000000000000000e+00  2.3808907918742610e-04 1.7875976677316616e-03 0.0000000000000000e+00  2.3786697176788214e-04 1.8112131310291078e-03 0.0000000000000000e+00  2.3770847907594056e-04 1.8360389981152286e-03 0.0000000000000000e+00  2.3766437317554459e-04 1.8618821554312679e-03 0.0000000000000000e+00  2.1309609217205067e-04 1.2773573395424976e-03 0.0000000000000000e+00  2.1499542293155349e-04 1.2874031567929637e-03 0.0000000000000000e+00  2.1654388946413874e-04 1.2975618504287975e-03 0.0000000000000000e+00  2.1759396499248482e-04 1.3080272928237225e-03 0.0000000000000000e+00  2.1803029973550348e-04 1.3186574796395158e-03 0.0000000000000000e+00  2.1771874732293232e-04 1.3290500196331096e-03 0.0000000000000000e+00  2.1753229096121795e-04 1.3410951170490064e-03 0.0000000000000000e+00  2.1732944262551631e-04 1.3531318082405427e-03 0.0000000000000000e+00  2.1706392650118863e-04 1.3658020334273314e-03 0.0000000000000000e+00  2.1657402261728018e-04 1.3803189419567246e-03 0.0000000000000000e+00  2.1567832110208903e-04 1.3966710877874936e-03 0.0000000000000000e+00  2.1592025984059127e-04 1.4221765082060907e-03 0.0000000000000000e+00  2.1466036405609542e-04 1.4483028056929623e-03 0.0000000000000000e+00  2.1384497633769508e-04 1.4748101745907845e-03 0.0000000000000000e+00  2.1310398186743186e-04 1.5007079047881853e-03 0.0000000000000000e+00  2.1254907092455727e-04 1.5262344407696116e-03 0.0000000000000000e+00  2.1230325826579718e-04 1.5507742747607725e-03 0.0000000000000000e+00  2.1284570106284355e-04 1.5741646400228679e-03 0.0000000000000000e+00  2.1415012412590525e-04 1.5978832714352183e-03 0.0000000000000000e+00  2.1544915474042700e-04 1.6210620196004414e-03 0.0000000000000000e+00  2.1614801588467581e-04 1.6434163024577366e-03 0.0000000000000000e+00  2.1778415921953193e-04 1.6652140184823315e-03 0.0000000000000000e+00  2.1829014232129667e-04 1.6857303897227312e-03 0.0000000000000000e+00  2.1852853571684535e-04 1.7055154447623646e-03 0.0000000000000000e+00  2.1862601635193465e-04 1.7246349289452725e-03 0.0000000000000000e+00  2.1882324715814111e-04 1.7434973254767691e-03 0.0000000000000000e+00  2.1918426159873389e-04 1.7630470906206299e-03 0.0000000000000000e+00  2.1877059141987842e-04 1.7844851528272890e-03 0.0000000000000000e+00  2.1832476937858015e-04 1.8071721988544974e-03 0.0000000000000000e+00  2.1806815516755394e-04 1.8310645951139003e-03 0.0000000000000000e+00  2.1801705591655343e-04 1.8559598497346801e-03 0.0000000000000000e+00  2.0525616855436715e-04 1.2868240119617970e-03 0.0000000000000000e+00  2.0624427792958835e-04 1.2975260919951305e-03 0.0000000000000000e+00  2.0673429027415332e-04 1.3086877482155503e-03 0.0000000000000000e+00  2.0659481580331528e-04 1.3200499733133021e-03 0.0000000000000000e+00  2.0620862309810476e-04 1.3311139550618624e-03 0.0000000000000000e+00  2.0603929851907275e-04 1.3415662485427363e-03 0.0000000000000000e+00  2.0595625326020952e-04 1.3529452365954023e-03 0.0000000000000000e+00  2.0590110585935108e-04 1.3648917659634585e-03 0.0000000000000000e+00  2.0568484733538442e-04 1.3784438091052425e-03 0.0000000000000000e+00  2.0566799801788368e-04 1.4008268085605971e-03 0.0000000000000000e+00  2.0368617028394568e-04 1.4258844031148051e-03 0.0000000000000000e+00  2.0190961138965110e-04 1.4519637404267417e-03 0.0000000000000000e+00  2.0037219281980872e-04 1.4778781692448670e-03 0.0000000000000000e+00  1.9922071593474471e-04 1.5033666892897766e-03 0.0000000000000000e+00  1.9841983659739723e-04 1.5283287049940972e-03 0.0000000000000000e+00  1.9802192566509586e-04 1.5524775447878637e-03 0.0000000000000000e+00  1.9797927630738960e-04 1.5757628462268359e-03 0.0000000000000000e+00  1.9820892789034646e-04 1.5988901612082511e-03 0.0000000000000000e+00  1.9869216588073652e-04 1.6217003814425364e-03 0.0000000000000000e+00  1.9922119857187685e-04 1.6439412326100518e-03 0.0000000000000000e+00  1.9972542990699788e-04 1.6654617953532193e-03 0.0000000000000000e+00  1.9986407903819039e-04 1.6863832873953942e-03 0.0000000000000000e+00  2.0016877218004297e-04 1.7060289071125219e-03 0.0000000000000000e+00  2.0030161762105421e-04 1.7245985021804846e-03 0.0000000000000000e+00  2.0039114503895972e-04 1.7424014021382404e-03 0.0000000000000000e+00  2.0082291607755479e-04 1.7600766477806173e-03 0.0000000000000000e+00  2.0043330742318369e-04 1.7809223907380666e-03 0.0000000000000000e+00  2.0005366368777117e-04 1.8028078073861126e-03 0.0000000000000000e+00  1.9976004902636405e-04 1.8257850654807817e-03 0.0000000000000000e+00  1.9969750380454765e-04 1.8496597161416161e-03 0.0000000000000000e+00  1.9628150952430488e-04 1.2976880544248374e-03 0.0000000000000000e+00  1.9627530734755522e-04 1.3094810764078509e-03 0.0000000000000000e+00  1.9609590403125974e-04 1.3216566940318483e-03 0.0000000000000000e+00  1.9594995283448173e-04 1.3318017473666881e-03 0.0000000000000000e+00  1.9574927881662707e-04 1.3418219546978138e-03 0.0000000000000000e+00  1.9553728773517661e-04 1.3525562708832279e-03 0.0000000000000000e+00  1.9538899530132536e-04 1.3641227831954906e-03 0.0000000000000000e+00  1.9563925850214493e-04 1.3745611593489310e-03 0.0000000000000000e+00  1.9443056917160828e-04 1.4040649697085496e-03 0.0000000000000000e+00  1.9158712813294846e-04 1.4302788411255979e-03 0.0000000000000000e+00  1.8894904405520986e-04 1.4560483594134204e-03 0.0000000000000000e+00  1.8683273642357000e-04 1.4814937744754499e-03 0.0000000000000000e+00  1.8520353781146222e-04 1.5064709159687815e-03 0.0000000000000000e+00  1.8402023072570058e-04 1.5309122095760119e-03 0.0000000000000000e+00  1.8323616016519996e-04 1.5546730392641428e-03 0.0000000000000000e+00  1.8275577059396106e-04 1.5777753128916861e-03 0.0000000000000000e+00  1.8249602267971429e-04 1.6005381951042250e-03 0.0000000000000000e+00  1.8246482793109618e-04 1.6229423683971967e-03 0.0000000000000000e+00  1.8258870763664147e-04 1.6448838179696688e-03 0.0000000000000000e+00  1.8274965415059113e-04 1.6662990964953217e-03 0.0000000000000000e+00  1.8286986043887483e-04 1.6875270466746631e-03 0.0000000000000000e+00  1.8314354735505744e-04 1.7068588645479401e-03 0.0000000000000000e+00  1.8336012997377443e-04 1.7247563848046259e-03 0.0000000000000000e+00  1.8361422078849544e-04 1.7418594032694201e-03 0.0000000000000000e+00  1.8380105391759417e-04 1.7576938262299541e-03 0.0000000000000000e+00  1.8344484736704930e-04 1.7769690621121739e-03 0.0000000000000000e+00  1.8314888477815463e-04 1.7980694170535423e-03 0.0000000000000000e+00  1.8279441913141183e-04 1.8202226713923794e-03 0.0000000000000000e+00  1.8270012602931938e-04 1.8429706099463228e-03 0.0000000000000000e+00  1.8703525593409575e-04 1.3103450812730925e-03 0.0000000000000000e+00  1.8675250044102566e-04 1.3211973908529358e-03 0.0000000000000000e+00  1.8641427547011041e-04 1.3317202194257141e-03 0.0000000000000000e+00  1.8625328404004587e-04 1.3417787377027080e-03 0.0000000000000000e+00  1.8609818787438117e-04 1.3520645545224360e-03 0.0000000000000000e+00  1.8599627050315412e-04 1.3628351915638821e-03 0.0000000000000000e+00  1.8479329661053506e-04 1.3823986012170329e-03 0.0000000000000000e+00  1.8092800044710469e-04 1.4088498034225173e-03 0.0000000000000000e+00  1.7800895313408268e-04 1.4351648640665631e-03 0.0000000000000000e+00  1.7521850880988091e-04 1.4606323683125021e-03 0.0000000000000000e+00  1.7280426650549647e-04 1.4855735959856476e-03 0.0000000000000000e+00  1.7084589107929405e-04 1.5100303169688985e-03 0.0000000000000000e+00  1.6932787684546100e-04 1.5339702442512906e-03 0.0000000000000000e+00  1.6820307997940831e-04 1.5573329364730252e-03 0.0000000000000000e+00  1.6739362315772855e-04 1.5801488897513275e-03 0.0000000000000000e+00  1.6683995636620322e-04 1.6025638644298805e-03 0.0000000000000000e+00  1.6653686771776172e-04 1.6245822946291252e-03 0.0000000000000000e+00  1.6645906969297623e-04 1.6461603048340591e-03 0.0000000000000000e+00  1.6656446390424576e-04 1.6672602996152242e-03 0.0000000000000000e+00  1.6684895022916024e-04 1.6879275323884995e-03 0.0000000000000000e+00  1.6740454124910571e-04 1.7078020775254084e-03 0.0000000000000000e+00  1.6755288886893027e-04 1.7251333485508221e-03 0.0000000000000000e+00  1.6787757860111207e-04 1.7416618081502340e-03 0.0000000000000000e+00  1.6816339425109578e-04 1.7573621393527936e-03 0.0000000000000000e+00  1.6834425018306430e-04 1.7724349046204808e-03 0.0000000000000000e+00  1.6789157723991462e-04 1.7930374747483686e-03 0.0000000000000000e+00  1.6725849511471243e-04 1.8145078584296394e-03 0.0000000000000000e+00  1.6707505824250946e-04 1.8358625332693889e-03 0.0000000000000000e+00  1.7739333585849195e-04 1.3208329897434737e-03 0.0000000000000000e+00  1.7707819336420388e-04 1.3314748707003038e-03 0.0000000000000000e+00  1.7684167892881029e-04 1.3416576257157720e-03 0.0000000000000000e+00  1.7664706179814092e-04 1.3518038805839132e-03 0.0000000000000000e+00  1.7660369489670491e-04 1.3619154162647698e-03 0.0000000000000000e+00  1.7311788534272744e-04 1.3886867824274536e-03 0.0000000000000000e+00  1.6832428605564339e-04 1.4149185911147967e-03 0.0000000000000000e+00  1.6437227663442639e-04 1.4405176972701597e-03 0.0000000000000000e+00  1.6112712573245302e-04 1.4655522724398872e-03 0.0000000000000000e+00  1.5839870161782604e-04 1.4900145542174547e-03 0.0000000000000000e+00  1.5615401156657383e-04 1.5139690343499710e-03 0.0000000000000000e+00  1.5435953974172204e-04 1.5374271876673067e-03 0.0000000000000000e+00  1.5296683359416227e-04 1.5603739042163067e-03 0.0000000000000000e+00  1.5191767394604483e-04 1.5828341984489198e-03 0.0000000000000000e+00  1.5117122483775778e-04 1.6048731123726784e-03 0.0000000000000000e+00  1.5071963391970349e-04 1.6264918704238360e-03 0.0000000000000000e+00  1.5055742943614461e-04 1.6476615255106113e-03 0.0000000000000000e+00  1.5068032169747065e-04 1.6683414581753798e-03 0.0000000000000000e+00  1.5110256975691520e-04 1.6884799529658470e-03 0.0000000000000000e+00  1.5184656060941533e-04 1.7078185221212083e-03 0.0000000000000000e+00  1.5267598409396461e-04 1.7257084207437743e-03 0.0000000000000000e+00  1.5293801351643738e-04 1.7416819743276662e-03 0.0000000000000000e+00  1.5334567785202762e-04 1.7572787175497977e-03 0.0000000000000000e+00  1.5370304844679480e-04 1.7725130614135985e-03 0.0000000000000000e+00  1.5411360396782280e-04 1.7878887762056671e-03 0.0000000000000000e+00  1.5310331722439392e-04 1.8089267916315873e-03 0.0000000000000000e+00  1.5291735195529141e-04 1.8282211272388476e-03 0.0000000000000000e+00  1.6731755806424778e-04 1.3313184271383457e-03 0.0000000000000000e+00  1.6714531456025867e-04 1.3415885469661780e-03 0.0000000000000000e+00  1.6698343434300142e-04 1.3516963280319186e-03 0.0000000000000000e+00  1.6420730925090210e-04 1.3707115550583148e-03 0.0000000000000000e+00  1.5875206021948797e-04 1.3958905082305394e-03 0.0000000000000000e+