<?xml version="1.0"?>
<VTKFile type="UnstructuredGrid"  version="0.1"  >
<UnstructuredGrid>
<Piece  NumberOfPoints="621" NumberOfCells="1125">
<Points>
<DataArray  type="Float64"  NumberOfComponents="3"  format="ascii">1.883478260869565 0 0  1.9 0 0  1.9 0.01666666666666667 0  1.883478260869565 0.01666666666666667 0  1.916521739130435 0 0  1.916521739130435 0.01666666666666667 0  1.933043478260869 0 0  1.933043478260869 0.01666666666666667 0  1.949565217391304 0 0  1.949565217391304 0.01666666666666667 0  1.966086956521739 0 0  1.966086956521739 0.01666666666666667 0  1.982608695652174 0 0  1.982608695652174 0.01666666666666667 0  1.999130434782608 0 0  1.999130434782608 0.01666666666666667 0  2.015652173913043 0 0  2.015652173913043 0.01666666666666667 0  2.032173913043478 0 0  2.032173913043478 0.01666666666666667 0  2.048695652173913 0 0  2.048695652173913 0.01666666666666667 0  2.065217391304348 0 0  2.065217391304348 0.01666666666666667 0  2.081739130434782 0 0  2.081739130434782 0.01666666666666667 0  2.098260869565217 0 0  2.098260869565217 0.01666666666666667 0  2.114782608695652 0 0  2.114782608695652 0.01666666666666667 0  2.131304347826087 0 0  2.131304347826087 0.01666666666666667 0  2.147826086956522 0 0  2.147826086956522 0.01666666666666667 0  2.164347826086956 0 0  2.164347826086956 0.01666666666666667 0  2.180869565217391 0 0  2.180869565217391 0.01666666666666667 0  2.197391304347826 0 0  2.197391304347826 0.01666666666666667 0  2.213913043478261 0 0  2.213913043478261 0.01666666666666667 0  2.230434782608695 0 0  2.230434782608695 0.01666666666666667 0  2.24695652173913 0 0  2.24695652173913 0.01666666666666667 0  2.263478260869565 0 0  2.263478260869565 0.01666666666666667 0  2.28 0 0  2.28 0.01666666666666667 0  2.296521739130434 0 0  2.296521739130434 0.01666666666666667 0  2.31304347826087 0 0  2.31304347826087 0.01666666666666667 0  2.329565217391304 0 0  2.329565217391304 0.01666666666666667 0  2.346086956521739 0 0  2.346086956521739 0.01666666666666667 0  2.362608695652174 0 0  2.362608695652174 0.01666666666666667 0  2.379130434782609 0 0  2.379130434782609 0.01666666666666667 0  2.395652173913044 0 0  2.395652173913044 0.01666666666666667 0  2.412173913043478 0 0  2.412173913043478 0.01666666666666667 0  2.428695652173913 0 0  2.428695652173913 0.01666666666666667 0  2.445217391304348 0 0  2.445217391304348 0.01666666666666667 0  2.461739130434782 0 0  2.461739130434782 0.01666666666666667 0  2.478260869565217 0 0  2.478260869565217 0.01666666666666667 0  2.494782608695652 0 0  2.494782608695652 0.01666666666666667 0  2.511304347826087 0 0  2.511304347826087 0.01666666666666667 0  2.527826086956522 0 0  2.527826086956522 0.01666666666666667 0  2.544347826086956 0 0  2.544347826086956 0.01666666666666667 0  2.560869565217391 0 0  2.560869565217391 0.01666666666666667 0  2.577391304347826 0 0  2.577391304347826 0.01666666666666667 0  1.916521739130435 0.03333333333333333 0  1.933043478260869 0.03333333333333333 0  1.949565217391304 0.03333333333333333 0  1.966086956521739 0.03333333333333333 0  1.982608695652174 0.03333333333333333 0  1.999130434782608 0.03333333333333333 0  2.015652173913043 0.03333333333333333 0  2.032173913043478 0.03333333333333333 0  2.048695652173913 0.03333333333333333 0  2.065217391304348 0.03333333333333333 0  2.081739130434782 0.03333333333333333 0  2.098260869565217 0.03333333333333333 0  2.114782608695652 0.03333333333333333 0  2.131304347826087 0.03333333333333333 0  2.147826086956522 0.03333333333333333 0  2.164347826086956 0.03333333333333333 0  2.180869565217391 0.03333333333333333 0  2.197391304347826 0.03333333333333333 0  2.213913043478261 0.03333333333333333 0  2.230434782608695 0.03333333333333333 0  2.24695652173913 0.03333333333333333 0  2.263478260869565 0.03333333333333333 0  2.28 0.03333333333333333 0  2.296521739130434 0.03333333333333333 0  2.31304347826087 0.03333333333333333 0  2.329565217391304 0.03333333333333333 0  2.346086956521739 0.03333333333333333 0  2.362608695652174 0.03333333333333333 0  2.379130434782609 0.03333333333333333 0  2.395652173913044 0.03333333333333333 0  2.412173913043478 0.03333333333333333 0  2.428695652173913 0.03333333333333333 0  2.445217391304348 0.03333333333333333 0  2.461739130434782 0.03333333333333333 0  2.478260869565217 0.03333333333333333 0  2.494782608695652 0.03333333333333333 0  2.511304347826087 0.03333333333333333 0  2.527826086956522 0.03333333333333333 0  2.544347826086956 0.03333333333333333 0  2.560869565217391 0.03333333333333333 0  2.577391304347826 0.03333333333333333 0  2.593913043478261 0.03333333333333333 0  1.933043478260869 0.05 0  1.949565217391304 0.05 0  1.966086956521739 0.05 0  1.982608695652174 0.05 0  1.999130434782608 0.05 0  2.015652173913043 0.05 0  2.032173913043478 0.05 0  2.048695652173913 0.05 0  2.065217391304348 0.05 0  2.081739130434782 0.05 0  2.098260869565217 0.05 0  2.114782608695652 0.05 0  2.131304347826087 0.05 0  2.147826086956522 0.05 0  2.164347826086956 0.05 0  2.180869565217391 0.05 0  2.197391304347826 0.05 0  2.213913043478261 0.05 0  2.230434782608695 0.05 0  2.24695652173913 0.05 0  2.263478260869565 0.05 0  2.28 0.05 0  2.296521739130434 0.05 0  2.31304347826087 0.05 0  2.329565217391304 0.05 0  2.346086956521739 0.05 0  2.362608695652174 0.05 0  2.379130434782609 0.05 0  2.395652173913044 0.05 0  2.412173913043478 0.05 0  2.428695652173913 0.05 0  2.445217391304348 0.05 0  2.461739130434782 0.05 0  2.478260869565217 0.05 0  2.494782608695652 0.05 0  2.511304347826087 0.05 0  2.527826086956522 0.05 0  2.544347826086956 0.05 0  2.560869565217391 0.05 0  2.577391304347826 0.05 0  2.593913043478261 0.05 0  2.610434782608696 0.05 0  1.949565217391304 0.06666666666666667 0  1.966086956521739 0.06666666666666667 0  1.982608695652174 0.06666666666666667 0  1.999130434782608 0.06666666666666667 0  2.015652173913043 0.06666666666666667 0  2.032173913043478 0.06666666666666667 0  2.048695652173913 0.06666666666666667 0  2.065217391304348 0.06666666666666667 0  2.081739130434782 0.06666666666666667 0  2.098260869565217 0.06666666666666667 0  2.114782608695652 0.06666666666666667 0  2.131304347826087 0.06666666666666667 0  2.147826086956522 0.06666666666666667 0  2.164347826086956 0.06666666666666667 0  2.180869565217391 0.06666666666666667 0  2.197391304347826 0.06666666666666667 0  2.213913043478261 0.06666666666666667 0  2.230434782608695 0.06666666666666667 0  2.24695652173913 0.06666666666666667 0  2.263478260869565 0.06666666666666667 0  2.28 0.06666666666666667 0  2.296521739130434 0.06666666666666667 0  2.31304347826087 0.06666666666666667 0  2.329565217391304 0.06666666666666667 0  2.346086956521739 0.06666666666666667 0  2.362608695652174 0.06666666666666667 0  2.379130434782609 0.06666666666666667 0  2.395652173913044 0.06666666666666667 0  2.412173913043478 0.06666666666666667 0  2.428695652173913 0.06666666666666667 0  2.445217391304348 0.06666666666666667 0  2.461739130434782 0.06666666666666667 0  2.478260869565217 0.06666666666666667 0  2.494782608695652 0.06666666666666667 0  2.511304347826087 0.06666666666666667 0  2.527826086956522 0.06666666666666667 0  2.544347826086956 0.06666666666666667 0  2.560869565217391 0.06666666666666667 0  2.577391304347826 0.06666666666666667 0  2.593913043478261 0.06666666666666667 0  2.610434782608696 0.06666666666666667 0  2.62695652173913 0.06666666666666667 0  1.966086956521739 0.08333333333333333 0  1.982608695652174 0.08333333333333333 0  1.999130434782608 0.08333333333333333 0  2.015652173913043 0.08333333333333333 0  2.032173913043478 0.08333333333333333 0  2.048695652173913 0.08333333333333333 0  2.065217391304348 0.08333333333333333 0  2.081739130434782 0.08333333333333333 0  2.098260869565217 0.08333333333333333 0  2.114782608695652 0.08333333333333333 0  2.131304347826087 0.08333333333333333 0  2.147826086956522 0.08333333333333333 0  2.164347826086956 0.08333333333333333 0  2.180869565217391 0.08333333333333333 0  2.197391304347826 0.08333333333333333 0  2.213913043478261 0.08333333333333333 0  2.230434782608695 0.08333333333333333 0  2.24695652173913 0.08333333333333333 0  2.263478260869565 0.08333333333333333 0  2.28 0.08333333333333333 0  2.296521739130434 0.08333333333333333 0  2.31304347826087 0.08333333333333333 0  2.329565217391304 0.08333333333333333 0  2.346086956521739 0.08333333333333333 0  2.362608695652174 0.08333333333333333 0  2.379130434782609 0.08333333333333333 0  2.395652173913044 0.08333333333333333 0  2.412173913043478 0.08333333333333333 0  2.428695652173913 0.08333333333333333 0  2.445217391304348 0.08333333333333333 0  2.461739130434782 0.08333333333333333 0  2.478260869565217 0.08333333333333333 0  2.494782608695652 0.08333333333333333 0  2.511304347826087 0.08333333333333333 0  2.527826086956522 0.08333333333333333 0  2.544347826086956 0.08333333333333333 0  2.560869565217391 0.08333333333333333 0  2.577391304347826 0.08333333333333333 0  2.593913043478261 0.08333333333333333 0  2.610434782608696 0.08333333333333333 0  2.62695652173913 0.08333333333333333 0  2.643478260869565 0.08333333333333333 0  1.982608695652174 0.1 0  1.999130434782608 0.1 0  2.015652173913043 0.1 0  2.032173913043478 0.1 0  2.048695652173913 0.1 0  2.065217391304348 0.1 0  2.081739130434782 0.1 0  2.098260869565217 0.1 0  2.114782608695652 0.1 0  2.131304347826087 0.1 0  2.147826086956522 0.1 0  2.164347826086956 0.1 0  2.180869565217391 0.1 0  2.197391304347826 0.1 0  2.213913043478261 0.1 0  2.230434782608695 0.1 0  2.24695652173913 0.1 0  2.263478260869565 0.1 0  2.28 0.1 0  2.296521739130434 0.1 0  2.31304347826087 0.1 0  2.329565217391304 0.1 0  2.346086956521739 0.1 0  2.362608695652174 0.1 0  2.379130434782609 0.1 0  2.395652173913044 0.1 0  2.412173913043478 0.1 0  2.428695652173913 0.1 0  2.445217391304348 0.1 0  2.461739130434782 0.1 0  2.478260869565217 0.1 0  2.494782608695652 0.1 0  2.511304347826087 0.1 0  2.527826086956522 0.1 0  2.544347826086956 0.1 0  2.560869565217391 0.1 0  2.5773
[...]
<CellData  Scalars="rho"> 
<DataArray  type="Float64"  Name="rho"  format="ascii">1.0000000000000000e+00   1.0000000000000000e+00   9.9980934226791784e-01   9.9987331960039094e-01   9.8684670421425003e-01   9.9547086809850682e-01   9.6362379725718816e-01   9.5672043560933639e-01   9.6525049305698463e-01   9.5798600828655500e-01   9.3977304606989953e-01   9.3001047225871991e-01   9.4445590801408952e-01   9.3965842721741044e-01   9.5009931565432160e-01   9.4670790206258360e-01   9.8471511403139400e-01   9.5748773485064209e-01   9.8339666038004636e-01   9.8441165591824575e-01   9.8206227318733064e-01   9.8389363380520878e-01   9.8203358354841530e-01   9.8181252286459930e-01   9.7758088155302036e-01   9.7807835529279319e-01   9.7494179181924456e-01   9.7453133266694769e-01   9.7522371921425055e-01   9.7343250576333828e-01   9.7607460449253303e-01   9.7457622112557085e-01   9.7816051230724244e-01   9.7668423676844018e-01   9.8081791972096866e-01   9.7929654836503566e-01   9.8338125845790225e-01   9.8315882024635115e-01   9.8462407406413877e-01   9.8364694110792705e-01   9.8425778583919499e-01   9.8507166138344815e-01   9.8364185031335449e-01   9.8342784685779461e-01   9.8350107235346196e-01   9.8309176046581515e-01   9.8301857007916815e-01   9.8257736428187736e-01   9.8290571955908645e-01   9.8241350572033359e-01   9.8276412118247247e-01   9.8227740955468690e-01   9.8127164230384767e-01   9.8070403474086565e-01   9.8015264490624610e-01   9.7956958491994128e-01   9.8016325188995479e-01   9.7971486004259256e-01   9.8117319635694966e-01   9.8046144488569631e-01   9.8164614131719308e-01   9.8092881982652469e-01   9.8077956341548911e-01   9.8119087675932548e-01   9.8095385684250558e-01   9.8050986928485984e-01   9.8014181456279814e-01   9.7994165999831040e-01   9.7886237525734066e-01   9.7877230416319261e-01   9.7757078981163714e-01   9.7737545184299179e-01   9.7723480231307602e-01   9.7625259393069685e-01   9.7506422729790843e-01   9.7462117212510435e-01   9.7479861833851067e-01   9.7380265069201077e-01   9.7480699068438059e-01   9.7413148546995421e-01   9.7490832132089700e-01   9.7425456595781301e-01   9.7466334466227511e-01   9.7403333572238437e-01   9.7835771595880539e-01   9.2745280439206779e-01   7.7601905965156459e-01   9.2361240190255367e-01   7.9091659037292050e-01   8.9015400662626898e-01   7.5584070164288286e-01   9.0895300396023027e-01   8.2730230599380505e-01   9.3159214071495544e-01   7.9094803266888603e-01   9.6082927515175864e-01   8.4988977487585093e-01   9.5973465445467965e-01   8.8858618773329390e-01   9.4940829961809248e-01   8.8308831442724212e-01   9.7780223370207209e-01   8.9870416022529553e-01   9.7773020157120094e-01   9.1408715900248461e-01   9.7138090511852515e-01   9.0774722777953565e-01   9.6885432748037625e-01   9.1341369230455616e-01   9.6484004878054930e-01   9.0714101524372404e-01   9.0601084025319534e-01   9.3661064143923189e-01   9.0127300238293817e-01   9.3006015122750274e-01   9.0118769967206669e-01   9.2563502503692285e-01   9.2322479521157075e-01   9.2313223602401440e-01   9.2375029451240431e-01   9.2371829542413297e-01   9.2095167493608643e-01   9.1052861189826861e-01   9.4098287909723666e-01   9.0631925327526774e-01   9.4387954821437847e-01   8.8645394091081553e-01   9.7791896881311302e-01   8.7183940633493695e-01   9.7738574081444529e-01   8.6330074792116307e-01   9.7666903910852521e-01   8.6680034563845154e-01   9.7138239957270089e-01   8.6728711681935899e-01   9.5768940896681276e-01   8.7115803504852263e-01   9.5286236155768123e-01   8.7699709723033326e-01   9.5860285682681468e-01   8.9227506968189285e-01   9.5960737476138969e-01   8.8122970351298291e-01   9.7693105723125362e-01   8.8751878869322742e-01   9.7775007575880846e-01   8.8416851498754334e-01   9.7675385024898531e-01   8.8906556188250541e-01   9.7473620604583211e-01   8.8909843698326563e-01   9.7344050858701303e-01   8.9566920453050936e-01   9.5801301143961315e-01   9.3852724842602908e-01   9.7078852987283670e-01   9.1738507109907774e-01   9.7017450266145289e-01   9.1948277378516929e-01   9.6998858945421007e-01   9.6688879734570321e-01   9.7020321258970454e-01   9.6693261999122770e-01   9.7043550904322140e-01   9.6731418550944670e-01   9.6675162054959440e-01   5.7170848227024318e-01   4.0892200187065136e-01   2.0529278003043017e-01   4.4376922874424196e-01   2.6195634100129289e-01   4.9032447013950875e-01   2.0507924651495563e-01   4.8577183949998104e-01   2.2338671398483140e-01   4.8286658676684796e-01   2.1509815234925431e-01   6.3738149937953259e-01   2.2408195912987108e-02   7.8088193661137861e-01   1.4805793865316735e-01   7.8452321541687298e-01   1.3513676603179911e-03   5.0837312787593414e-01   4.3099368465799167e-03   5.5119472346492249e-01   6.5154067597547702e-02   5.7157970731962005e-01   5.4984605122790992e-02   5.7573848401035221e-01   1.3318279235677663e-01   5.9930838007682730e-01   1.6746565148221121e-01   7.6272908281196727e-01   1.2000533248435517e-01   5.6608255131382046e-01   8.4760209627584238e-02   5.3491176383678851e-01   1.8238777251328234e-01   5.3640480571830207e-01   1.7300286296587392e-01   5.5901995497518442e-01   2.1957116616387737e-01   5.5359626634741976e-01   1.5305462626940075e-01   7.7683411865716734e-01   1.6587378829781102e-01   5.4872776417566049e-01   1.4100796110747144e-01   5.4122682398207611e-01   1.3404950700825458e-01   5.7015575125432083e-01   1.3231709444521664e-01   5.9916617968556440e-01   1.3410259307216216e-01   6.0377363781145998e-01   1.4144053151119249e-01   4.9982757145441470e-01   2.1185928826926495e-01   4.8904307986432372e-01   2.1272129323184572e-01   4.6187670856825275e-01   2.2967955148739924e-01   4.5647370397571901e-01   2.4198134265146004e-01   4.4911760237862741e-01   2.2582395221696785e-01   4.0171198160799843e-01   2.3238355155803608e-01   3.8416974520432601e-01   2.6409952615825721e-01   3.7581345451267739e-01   2.4528660351548559e-01   3.7733533248084283e-01   2.3953310095540703e-01   3.3892020535523393e-01   2.5472473290252867e-01   3.1800185470038711e-01   2.3964648571750657e-01   3.1654012706749413e-01   2.2171713259302353e-01   3.6570994351742936e-01   1.3098734545666016e-01   4.1101895557020296e-01   1.2650918958172247e-01   4.5519717171187002e-01   4.2095290286739482e-04   3.7573499763607479e-04   9.4631421292907278e-04   1.4254018794160200e-03   1.0770286461772073e-03   3.2050820593990869e-03   2.2886671134712609e-03   4.8174026579484129e-03   4.5541845162566270e-03   5.6502406392157740e-03   4.0515227347676114e-03   8.8293286576120560e-03   4.4368399461511224e-03   3.7334371315987645e-03   4.2241446450997505e-03   0.0000000000000000e+00   4.6103719382431703e-04   0.0000000000000000e+00   0.0000000000000000e+00   0.0000000000000000e+00   0.0000000000000000e+00   2.3699551899768777e-05   1.1252394413076228e-05   8.3688757871257344e-05   4.9773227586339896e-05   1.9095815480444714e-04   1.2666755959521884e-04   3.0656163933989559e-04   2.2432198992219238e-04   4.3163406979894041e-04   2.8347201674650354e-04   4.1114032167269222e-04   3.5192065347725037e-04   2.2900671474162686e-04   2.2526290886411372e-04   2.1170708508861947e-05   9.8815496543304271e-05   9.3499527748657289e-06   1.2588743556614746e-05   1.8243786607082431e-06   3.4454305644587539e-06   4.6632123421914893e-06   3.6599076196272305e-06   9.5833845713367164e-06   7.1075117625302471e-06   1.8927333464112731e-05   1.4470763961502172e-05   2.6172515426748983e-05   2.0805160495834489e-05   3.8865286086768338e-05   1.8550132586657630e-05   6.5233726735751252e-05   4.5193791098732413e-05   7.4908918243933156e-05   5.2356992757221575e-05   1.1102094350939488e-04   8.7780599708061033e-05   1.7842717993886092e-04   1.3007114683638509e-04   2.5720194051398004e-04   1.9991270965375712e-04   3.1863947167024253e-04   2.5886485109600030e-04   3.5656563718998295e-04   2.9990665317444819e-04   3.7591880836690856e-04   3.2333663340123128e-04   3.2624235691678988e-04   2.8190259267618493e-04   3.4735900837389071e-04   2.9748694623693263e-04   3.7730054169846479e-04   3.2039088585950428e-04   4.0605961160083872e-04   3.4536808574539741e-04   3.5039468161494544e-04   3.0190009745051063e-04   3.4397593771488290e-04   3.0247343115992063e-04   3.2133810753845563e-04   2.8898679798650985e-04   2.9614525232194523e-04   2.6864411737527011e-04   2.7636598205548374e-04   9.4143360176602675e-04   1.1931402840239438e-03   1.6374226283819692e-03   1.8120287063069283e-03   2.0937529192548935e-03   2.7173255571910923e-03   3.6063748905306356e-03   2.2310847090490226e-03   2.0913436262729517e-03   1.1925102552321463e-03   1.3443670997271681e-03   0.0000000000000000e+00   3.5999382644640753e-04   0.0000000000000000e+00   0.0000000000000000e+00   0.0000000000000000e+00   0.0000000000000000e+00   1.3578560261415101e-05   7.2482964312887891e-06   4.1946153032165297e-05   2.3850064047993319e-05   5.4235833484244552e-05   8.4700873549661099e-05   1.6263871627486776e-04   1.1636344359360619e-04   1.8752141908621279e-04   1.5006934000352760e-04   1.4158167516923901e-04   1.1696740692809880e-04   9.8272403169726171e-05   9.1080256139297993e-05   2.1025677042147964e-05   3.5330091056951478e-05   7.8164188001640066e-06   1.1919977261215305e-05   3.6535129250016060e-06   3.4791199068028977e-06   4.4960889590776080e-06   3.6681909697650550e-06   8.7076182969277778e-06   5.6385747422409730e-06   1.2917159287247749e-05   1.0119540690382413e-05   1.2076072392948635e-05   1.3825497586962140e-05   2.5493916013900716e-05   1.2164974834122256e-05   4.2897358364322991e-05   3.5584550096257090e-05   4.9279231745107628e-05   4.1256667091946623e-05   6.4854049894553129e-05   5.1405095033993478e-05   1.1590831734713798e-04   8.5606974018114854e-05   1.6349383353785426e-04   1.2784843318898310e-04   2.0216617869556349e-04   1.6425785093736943e-04   2.2942900630793707e-04   1.9177344526648832e-04   2.0632585564991555e-04   2.1070330398063840e-04   2.1889184711803078e-04   1.8740051620839892e-04   2.3329113687319797e-04   1.9925318829871612e-04   2.4974691182602995e-04   2.1273897794887536e-04   2.6417185313627625e-04   2.2575419516645957e-04   2.2599713358051511e-04   1.9515315298726754e-04   2.2330263924993536e-04   4.4358638660379132e-03   1.3673740786204185e-02   1.1821397820289022e-02   1.4506449849495314e-02   3.0933700468775575e-02   2.1054036281639455e-04   2.9989925902081049e-02   1.8287511811945726e-04   1.2638880381985549e-03   1.5957664578522819e-03   1.3331940389221652e-03   2.4330883792494842e-03   2.0837180639623277e-03   1.2653251778802117e-03   1.2395786294920762e-03   7.3105449773957696e-04   8.1357491604798276e-04   4.3226643973241447e-05   2.9584298142302877e-04   0.0000000000000000e+00   0.0000000000000000e+00   1.0126358080927742e-06   0.0000000000000000e+00   8.4248028985165786e-06   5.1471455781886590e-06   2.1406432158667248e-05   1.1910761967548168e-05   6.2546580092754018e-05   4.4733813180473763e-05   8.4419010082651801e-05   3.9282961042574468e-05   7.5429788915654794e-05   5.9074138237627295e-05   5.8517888102138944e-05   5.0401146479261623e-05   4.1161837817944112e-05   4.0992374650893273e-05   1.2425010173350959e-05   1.8381609706692807e-05   4.8924178986302563e-06   6.8140867520274675e-06   3.4316794158068134e-06   3.7435964358544965e-06   3.7352786691779956e-06   3.0926259248130888e-06   6.3865948644270604e-06   5.0931269263393723e-06   8.8246085521114779e-06   7.0320960446597332e-06   8.0002495522040081e-06   9.2283094662126286e-06   1.6729503374531530e-05   6.7171994215805328e-06   2.8318112612255891e-05   2.7954503455302428e-05   2.6855357615320220e-05   2.6963366245729320e-05   4.3906151232136246e-05   3.5411539775162098e-05   7.5173659208674552e-05   5.6108463892430239e-05   1.0436591207054202e-04   8.1997882986637090e-05   1.2895087119509102e-04   1.0477414797394931e-04   1.4783460657196102e-04   1.2304138579312198e-04   1.3499294720152602e-04   1.1410327596490014e-04   1.4486386419931013e-04   1.2331630303030400e-04   1.5452382966624095e-04   1.3173976601183173e-04   1.6403753891675239e-04   5.0488543189969471e-03   1.7176862041604771e-04   3.6426159290346628e-02   1.4635103718236745e-04   4.4881943956797503e-02   1.4556092610437649e-04   2.0482873636391816e-02   6.5649467457887245e-02   1.3847223313975464e-02   7.9644192296274008e-02   2.0434247431750333e-02   4.7676398629805911e-02   9.3172208404438406e-02   1.5812633436244249e-02   5.0614731798928454e-02   6.7900742725879063e-03   1.9921977738178343e-03   1.9398433682177561e-03   1.4145300807389943e-03   1.4816204383242227e-03   1.2548194266439215e-03   6.3945610456819205e-04   1.0901364341718103e-03   1.6624061743423756e-04   3.0461018079888067e-04   0.0000000000000000e+00   5.6490615620909816e-05   2.2417363047011350e-06   1.1190369142652461e-06   5.6049139510929667e-06   4.6983908275815479e-06   1.1314928524318536e-05   6.8471453874226191e-06   3.2822330694994695e-05   2.4061904078506414e-05   2.9898857992609818e-05   1.9583280291204545e-05   3.8844692047805180e-05   2.9978591038428336e-05   2.9637906161123098e-05   2.5445712418826271e-05   2.1679519876834802e-05   2.1360955556631870e-05   6.1524052525487195e-06   9.7780003576498129e-06   4.6541447937533064e-06   5.1338659473127241e-06   3.3544917793773097e-06   3.5662212997900172e-06   3.4499294302233453e-06   2.3919341085508289e-06   4.5734627267172074e-06   3.7008622145335041e-06   6.0129082641207327e-06   4.8478883772792383e-06   5.3109378003368135e-06   4.3158639498249839e-06   1.3178594095873272e-05   4.4207664142788437e-06   1.8505769916911075e-05   1.5356294567803431e-05   1.7502047619393146e-05   1.4646798150120616e-05   2.9503488210798196e-05   2.0165446677788820e-05   4.8803267333837088e-05   3.6760952237902401e-05   6.6912713412752267e-05   7.6012514834030012e-05   3.8334713220052382e-03   2.9819389953306547e-02   1.9716325386511836e-02   4.5767103251627382e-02   2.6849455394727259e-02   5.2762887186101393e-02   4.2707546230481536e-02   6.7746794900387916e-02   7.0333532320900519e-02   9.4548775959467118e-02   1.1067508197976994e-01   1.0428726310205536e-01   1.2353711076787872e-01   1.4796527483076610e-01   1.3183337929732508e-01   1.5997516455099028e-01   1.3328273917666508e-01   1.6887553353446250e-01   1.0873280417299573e-01   1.5266166990458949e-01   5.9099928219330959e-02   9.3901239188212096e-02   5.4005742749406851e-02   7.0653853981159934e-02   3.7212690050651635e-02   5.9394925874623881e-02   3.4430562352094712e-02   1.3341471463394303e-02   7.7212387977884566e-05   4.1226669827617505e-06   4.7884807329445467e-06   5.5714197228142298e-06   7.8023765218481518e-06   5.3296113389968172e-06   1.5056053290575480e-05   1.1380568156038014e-05   1.5406136470374011e-05   1.0569970451039954e-05   1.9864331548416690e-05   1.5466155946997856e-05   1.5355046824415108e-05   1.3143291948557026e-05   1.1190566987465646e-05   1.0909937419966602e-05   3.0233150652836504e-06   4.4140214708808429e-06   3.4242275242873496e-06   3.6324059331697026e-06   3.0279599994451026e-06   3.1243873892121534e-06   2.5265849711373353e-06   2.0975059556567490e-06   3.2092284274732911e-06   2.6145587557965196e-06   4.0763649163090864e-06   3.3105651858240139e-06   3.5253386049159147e-06   2.8789253058132498e-06   8.6516958228279222e-06   2.4442701731029583e-06   1.2080843458573460e-05   1.0037736875938286e-05   1.1386087523217731e-05   9.5357507705955363e-06   1.9801884223774362e-05   4.5611573885608820e-03   3.6306254188809388e-02   4.8959769053625722e-02   6.9940971047977557e-02   8.0955149236212651e-02   8.4202492061330722e-02   9.8845804083946817e-02   9.1274020725383681e-02   1.0940660267581491e-01   9.4019120255646293e-02   1.1137870858226735e-01   1.0249260506613408e-01   1.1070929767447818e-01   3.2157236872201400e-01   2.8463712745725078e-01   3.4933457350500996e-01   2.9769358252431949e-01   4.8010551611836355e-01   2.4715283670610794e-01   5.2195839588132453e-01   3.6904776292776514e-01   5.3213036854486528e-01   4.1818277909486440e-01   1.9006933641156942e-01   1.0149013376062607e-01   1.2266967830772267e-01   1.8893742871848568e-01   8.7607872234964759e-02   1.3438692842348635e-01   7.5684578529216534e-02   1.0663652319950609e-01   2.2913870367276407e-02   9.7588399244549109e-02   5.7603800200446700e-05   2.2533627079080909e-02   4.9076050200149656e-05   1.7452030498611316e-04   2.6541843073608952e-06   1.7763970966828017e-04   5.1035551611680929e-06   5.4191616947759422e-06   8.6496332405815936e-06   6.8736665002446629e-06   1.0040680458372861e-05   8.0625692762777561e-06   8.2494989075580887e-06   6.1938268173187462e-06   5.0169116808036625e-06   4.7759328462039683e-06   1.9600953820163495e-06   1.6795418208918931e-06   2.7965746477704956e-06   2.3778530527612896e-06   2.5651742312214070e-06   2.1415605572164177e-06   1.7747985992041780e-06   1.4565012234329590e-06   2.2064644866174075e-06   1.7958753975018459e-06   1.9199761807460995e-06   2.2335792191065921e-06   9.0310900545656969e-04   3.7243031160982210e-02   5.7231623647407828e-06   1.6075776468513578e-06   6.5696723997557401e-06   6.5602047492337350e-06   7.7455436986463968e-06   6.2069277205352964e-06   1.3350964533761342e-05   9.5457586327190251e-06   2.0820112429755519e-05   5.3321006354555472e-02   3.6240546549672549e-02   1.0738502695516934e-01   4.5711214210002779e-02   1.1548330866138504e-01   7.3075731905399760e-02   1.0498105627900770e-01   6.3575681139338369e-02   1.1125748342888582e-01   5.2810331164022770e-02   9.7857118413916824e-02   5.5354146379918728e-02   8.3574896616286198e-02   4.5185657346151771e-02   7.8511014218507827e-02   5.5055120320830105e-02   7.8709640917907581e-02   9.1622522389163630e-02   9.0801015793143508e-02   1.4634209870055298e-01   1.2610974804589259e-01   1.6701882717612737e-01   1.7432266073551070e-01   1.5487821328484327e-01   3.1655269101162609e-01   1.0042045206914541e-01   1.3121414520287392e-01   8.0379804076096850e-02   1.1519810897194160e-01   7.9566715257011478e-02   8.4787104829189497e-02   7.0388935209346373e-02   9.6054958156341491e-02   6.8365855807770617e-02   5.2055360079157800e-02   3.4612735665903995e-05   4.4749311703398777e-05   6.2186097622588511e-05   2.1028492563863977e-03   7.9786110329828743e-04   2.0930678753795892e-03   4.1235625171632834e-04   1.3278344907818333e-03   3.5294886486865798e-05   4.4992663010336219e-04   3.1292829061444088e-06   6.9363417936877631e-05   1.2365947272121932e-06   8.5752911962300725e-07   2.2629013214351102e-06   1.6988748269769764e-06   1.7217917207521845e-06   1.8986110212384160e-06   1.6747488926986300e-06   1.3171016556040823e-06   1.1875703213946101e-06   9.4546717063560464e-07   1.4789299033725722e-06   1.4011211588391492e-01   1.5162728516936261e-01   1.8889333913815548e-01   1.1434129638902057e-01   1.4578418915378752e-01   3.7533555250169265e-06   1.0557142808759299e-06   4.2887172037952114e-06   3.5745421804264226e-06   8.0269524301028211e-02   1.1277029669819782e-01   1.7051032625410475e-01   2.3699353786352892e-01   2.3499260908783121e-01   2.7583159143072666e-01   2.3515484158738978e-01   3.2403370643692164e-01   2.1888302649376101e-01   2.8052902198708368e-01   2.0515424047538264e-01   2.5921487383583020e-01   1.8757642084404105e-01   3.1629928862901147e-01   1.6601687673197910e-01   2.9800229763298841e-01   1.4655172798370239e-01   2.7852528638784702e-01   1.3996025783192012e-01   3.3444663616163678e-01   1.6538913221698726e-01   1.9922307104647441e-01   1.7594165672480419e-01   2.2758842594044526e-01   2.0080165107476100e-01   2.4827711816952924e-01   2.2705460683481193e-01   2.7468917539164794e-01   2.6895144333689586e-01   3.3487460087232218e-01   2.5456436736204097e-01   3.3686166854784472e-01   1.6417992222882469e-01   2.9735799152240389e-01   1.5455194140685624e-01   3.1664653045218877e-01   1.5685019923857327e-01   4.6889608156779627e-01   8.4211133836139929e-02   2.7405724166779616e-01   2.1459381465537656e-04   1.3288805534623530e-01   6.1567940302570802e-04   3.3164210694278584e-04   9.3669115604962615e-04   3.1126137560442786