<?xml version="1.0"?>
<VTKFile type="UnstructuredGrid"  version="0.1"  >
<UnstructuredGrid>
<Piece  NumberOfPoints="640" NumberOfCells="1181">
<Points>
<DataArray  type="Float64"  NumberOfComponents="3"  format="ascii">2.973913043478261 0 0  2.990434782608696 0 0  2.990434782608696 0.01666666666666667 0  2.973913043478261 0.01666666666666667 0  3.006956521739131 0 0  3.006956521739131 0.01666666666666667 0  3.023478260869565 0 0  3.023478260869565 0.01666666666666667 0  3.04 0 0  3.04 0.01666666666666667 0  3.056521739130435 0 0  3.056521739130435 0.01666666666666667 0  3.073043478260869 0 0  3.073043478260869 0.01666666666666667 0  3.089565217391304 0 0  3.089565217391304 0.01666666666666667 0  3.106086956521739 0 0  3.106086956521739 0.01666666666666667 0  3.122608695652174 0 0  3.122608695652174 0.01666666666666667 0  3.139130434782609 0 0  3.139130434782609 0.01666666666666667 0  3.155652173913043 0 0  3.155652173913043 0.01666666666666667 0  3.172173913043478 0 0  3.172173913043478 0.01666666666666667 0  3.188695652173913 0 0  3.188695652173913 0.01666666666666667 0  3.205217391304347 0 0  3.205217391304347 0.01666666666666667 0  3.221739130434782 0 0  3.221739130434782 0.01666666666666667 0  3.238260869565217 0 0  3.238260869565217 0.01666666666666667 0  2.990434782608696 0.03333333333333333 0  2.973913043478261 0.03333333333333333 0  3.006956521739131 0.03333333333333333 0  3.023478260869565 0.03333333333333333 0  3.04 0.03333333333333333 0  3.056521739130435 0.03333333333333333 0  3.073043478260869 0.03333333333333333 0  3.089565217391304 0.03333333333333333 0  3.106086956521739 0.03333333333333333 0  3.122608695652174 0.03333333333333333 0  3.139130434782609 0.03333333333333333 0  3.155652173913043 0.03333333333333333 0  3.172173913043478 0.03333333333333333 0  3.188695652173913 0.03333333333333333 0  3.205217391304347 0.03333333333333333 0  3.221739130434782 0.03333333333333333 0  3.238260869565217 0.03333333333333333 0  3.254782608695652 0.03333333333333333 0  2.990434782608696 0.05 0  3.006956521739131 0.05 0  3.023478260869565 0.05 0  3.04 0.05 0  3.056521739130435 0.05 0  3.073043478260869 0.05 0  3.089565217391304 0.05 0  3.106086956521739 0.05 0  3.122608695652174 0.05 0  3.139130434782609 0.05 0  3.155652173913043 0.05 0  3.172173913043478 0.05 0  3.188695652173913 0.05 0  3.205217391304347 0.05 0  3.221739130434782 0.05 0  3.238260869565217 0.05 0  3.254782608695652 0.05 0  3.271304347826087 0.05 0  3.006956521739131 0.06666666666666667 0  2.990434782608696 0.06666666666666667 0  3.023478260869565 0.06666666666666667 0  3.04 0.06666666666666667 0  3.056521739130435 0.06666666666666667 0  3.073043478260869 0.06666666666666667 0  3.089565217391304 0.06666666666666667 0  3.106086956521739 0.06666666666666667 0  3.122608695652174 0.06666666666666667 0  3.139130434782609 0.06666666666666667 0  3.155652173913043 0.06666666666666667 0  3.172173913043478 0.06666666666666667 0  3.188695652173913 0.06666666666666667 0  3.205217391304347 0.06666666666666667 0  3.221739130434782 0.06666666666666667 0  3.238260869565217 0.06666666666666667 0  3.254782608695652 0.06666666666666667 0  3.271304347826087 0.06666666666666667 0  3.287826086956521 0.06666666666666667 0  3.006956521739131 0.08333333333333333 0  3.023478260869565 0.08333333333333333 0  3.04 0.08333333333333333 0  3.056521739130435 0.08333333333333333 0  3.073043478260869 0.08333333333333333 0  3.089565217391304 0.08333333333333333 0  3.106086956521739 0.08333333333333333 0  3.122608695652174 0.08333333333333333 0  3.139130434782609 0.08333333333333333 0  3.155652173913043 0.08333333333333333 0  3.172173913043478 0.08333333333333333 0  3.188695652173913 0.08333333333333333 0  3.205217391304347 0.08333333333333333 0  3.221739130434782 0.08333333333333333 0  3.238260869565217 0.08333333333333333 0  3.254782608695652 0.08333333333333333 0  3.271304347826087 0.08333333333333333 0  3.287826086956521 0.08333333333333333 0  3.304347826086957 0.08333333333333333 0  3.023478260869565 0.1 0  3.006956521739131 0.1 0  3.04 0.1 0  3.056521739130435 0.1 0  3.073043478260869 0.1 0  3.089565217391304 0.1 0  3.106086956521739 0.1 0  3.122608695652174 0.1 0  3.139130434782609 0.1 0  3.155652173913043 0.1 0  3.172173913043478 0.1 0  3.188695652173913 0.1 0  3.205217391304347 0.1 0  3.221739130434782 0.1 0  3.238260869565217 0.1 0  3.254782608695652 0.1 0  3.271304347826087 0.1 0  3.287826086956521 0.1 0  3.304347826086957 0.1 0  3.320869565217391 0.1 0  3.023478260869565 0.1166666666666667 0  3.04 0.1166666666666667 0  3.056521739130435 0.1166666666666667 0  3.073043478260869 0.1166666666666667 0  3.089565217391304 0.1166666666666667 0  3.106086956521739 0.1166666666666667 0  3.122608695652174 0.1166666666666667 0  3.139130434782609 0.1166666666666667 0  3.155652173913043 0.1166666666666667 0  3.172173913043478 0.1166666666666667 0  3.188695652173913 0.1166666666666667 0  3.205217391304347 0.1166666666666667 0  3.221739130434782 0.1166666666666667 0  3.238260869565217 0.1166666666666667 0  3.254782608695652 0.1166666666666667 0  3.271304347826087 0.1166666666666667 0  3.287826086956521 0.1166666666666667 0  3.304347826086957 0.1166666666666667 0  3.320869565217391 0.1166666666666667 0  3.337391304347826 0.1166666666666667 0  3.04 0.1333333333333333 0  3.023478260869565 0.1333333333333333 0  3.056521739130435 0.1333333333333333 0  3.073043478260869 0.1333333333333333 0  3.089565217391304 0.1333333333333333 0  3.106086956521739 0.1333333333333333 0  3.122608695652174 0.1333333333333333 0  3.139130434782609 0.1333333333333333 0  3.155652173913043 0.1333333333333333 0  3.172173913043478 0.1333333333333333 0  3.188695652173913 0.1333333333333333 0  3.205217391304347 0.1333333333333333 0  3.221739130434782 0.1333333333333333 0  3.238260869565217 0.1333333333333333 0  3.254782608695652 0.1333333333333333 0  3.271304347826087 0.1333333333333333 0  3.287826086956521 0.1333333333333333 0  3.304347826086957 0.1333333333333333 0  3.320869565217391 0.1333333333333333 0  3.337391304347826 0.1333333333333333 0  3.353913043478261 0.1333333333333333 0  3.04 0.15 0  3.056521739130435 0.15 0  3.073043478260869 0.15 0  3.089565217391304 0.15 0  3.106086956521739 0.15 0  3.122608695652174 0.15 0  3.139130434782609 0.15 0  3.155652173913043 0.15 0  3.172173913043478 0.15 0  3.188695652173913 0.15 0  3.205217391304347 0.15 0  3.221739130434782 0.15 0  3.238260869565217 0.15 0  3.254782608695652 0.15 0  3.271304347826087 0.15 0  3.287826086956521 0.15 0  3.304347826086957 0.15 0  3.320869565217391 0.15 0  3.337391304347826 0.15 0  3.353913043478261 0.15 0  3.370434782608696 0.15 0  3.056521739130435 0.1666666666666667 0  3.073043478260869 0.1666666666666667 0  3.089565217391304 0.1666666666666667 0  3.106086956521739 0.1666666666666667 0  3.122608695652174 0.1666666666666667 0  3.139130434782609 0.1666666666666667 0  3.155652173913043 0.1666666666666667 0  3.172173913043478 0.1666666666666667 0  3.188695652173913 0.1666666666666667 0  3.205217391304347 0.1666666666666667 0  3.221739130434782 0.1666666666666667 0  3.238260869565217 0.1666666666666667 0  3.254782608695652 0.1666666666666667 0  3.271304347826087 0.1666666666666667 0  3.287826086956521 0.1666666666666667 0  3.304347826086957 0.1666666666666667 0  3.320869565217391 0.1666666666666667 0  3.337391304347826 0.1666666666666667 0  3.353913043478261 0.1666666666666667 0  3.370434782608696 0.1666666666666667 0  3.386956521739131 0.1666666666666667 0  3.073043478260869 0.1833333333333333 0  3.089565217391304 0.1833333333333333 0  3.106086956521739 0.1833333333333333 0  3.122608695652174 0.1833333333333333 0  3.139130434782609 0.1833333333333333 0  3.155652173913043 0.1833333333333333 0  3.172173913043478 0.1833333333333333 0  3.188695652173913 0.1833333333333333 0  3.205217391304347 0.1833333333333333 0  3.221739130434782 0.1833333333333333 0  3.238260869565217 0.1833333333333333 0  3.254782608695652 0.1833333333333333 0  3.271304347826087 0.1833333333333333 0  3.287826086956521 0.1833333333333333 0  3.304347826086957 0.1833333333333333 0  3.320869565217391 0.1833333333333333 0  3.337391304347826 0.1833333333333333 0  3.353913043478261 0.1833333333333333 0  3.370434782608696 0.1833333333333333 0  3.386956521739131 0.1833333333333333 0  3.403478260869565 0.1833333333333333 0  3.089565217391304 0.2 0  3.106086956521739 0.2 0  3.122608695652174 0.2 0  3.139130434782609 0.2 0  3.155652173913043 0.2 0  3.172173913043478 0.2 0  3.188695652173913 0.2 0  3.205217391304347 0.2 0  3.221739130434782 0.2 0  3.238260869565217 0.2 0  3.254782608695652 0.2 0  3.271304347826087 0.2 0  3.287826086956521 0.2 0  3.304347826086957 0.2 0  3.320869565217391 0.2 0  3.337391304347826 0.2 0  3.353913043478261 0.2 0  3.370434782608696 0.2 0  3.386956521739131 0.2 0  3.403478260869565 0.2 0  3.419999999999999 0.2 0  3.106086956521739 0.2166666666666667 0  3.122608695652174 0.2166666666666667 0  3.139130434782609 0.2166666666666667 0  3.155652173913043 0.2166666666666667 0  3.172173913043478 0.2166666666666667 0  3.188695652173913 0.2166666666666667 0  3.205217391304347 0.2166666666666667 0  3.221739130434782 0.2166666666666667 0  3.238260869565217 0.2166666666666667 0  3.254782608695652 0.2166666666666667 0  3.271304347826087 0.2166666666666667 0  3.287826086956521 0.2166666666666667 0  3.304347826086957 0.2166666666666667 0  3.320869565217391 0.2166666666666667 0  3.337391304347826 0.2166666666666667 0  3.353913043478261 0.2166666666666667 0  3.370434782608696 0.2166666666666667 0  3.386956521739131 0.2166666666666667 0  3.403478260869565 0.2166666666666667 0  3.419999999999999 0.2166666666666667 0  3.436521739130435 0.2166666666666667 0  3.122608695652174 0.2333333333333333 0  3.139130434782609 0.2333333333333333 0  3.155652173913043 0.2333333333333333 0  3.172173913043478 0.2333333333333333 0  3.188695652173913 0.2333333333333333 0  3.205217391304347 0.2333333333333333 0  3.221739130434782 0.2333333333333333 0  3.238260869565217 0.2333333333333333 0  3.254782
[...]
<CellData  Scalars="rho_bar"> 
<DataArray  type="Float64"  Name="rho_bar"  format="ascii">3.5656689911008088e-01   3.5495056922125479e-01   3.5065676192005224e-01   3.4942416768642076e-01   3.4409897058220440e-01   3.4324775771646493e-01   3.3684490836475334e-01   3.3645342091670022e-01   3.2877922569497631e-01   3.2893623720496956e-01   3.1991132135579531e-01   3.2063974272924178e-01   3.1046342701475033e-01   3.1168893731573016e-01   3.0071980630872053e-01   3.0234879060221342e-01   2.9077751805217217e-01   2.9278818396466488e-01   2.8043861584841967e-01   2.8290905354339863e-01   2.6932685265699424e-01   2.7237500116334040e-01   2.5704628375467348e-01   2.6078735714898854e-01   2.4322919889176456e-01   2.4777890242390335e-01   2.2755073173587123e-01   2.3302851652347600e-01   2.0986129886485708e-01   2.1632077026457172e-01   1.9058550953488909e-01   1.9780345177292200e-01   3.4065940014719442e-01   3.3295095345933301e-01   3.3547978408348467e-01   3.2834803894894071e-01   3.2978578837123884e-01   3.2326631910986386e-01   3.2358860473424456e-01   3.1778689634441759e-01   3.1681076631191302e-01   3.1186783210003743e-01   3.0943024220075860e-01   3.0545580331028716e-01   3.0156072096294040e-01   2.9858344396170328e-01   2.9336845328024985e-01   2.9136294559191339e-01   2.8488533847761499e-01   2.8384289045959121e-01   2.7590817922036931e-01   2.7587833475940321e-01   2.6607540770060378e-01   2.6714117121866482e-01   2.5501434735118811e-01   2.5725598562401286e-01   2.4241430047094742e-01   2.4590927910374061e-01   2.2804029265108222e-01   2.3287601065408878e-01   2.1179816607712709e-01   2.1803897305263178e-01   1.9397238814366380e-01   2.0150710419288922e-01   1.8384954019935060e-01   3.0953911824950797e-01   3.0571157235810503e-01   2.9463304504859739e-01   3.0162258198513414e-01   2.9121974498107467e-01   2.9734439540562069e-01   2.8771744388340509e-01   2.9286364963763650e-01   2.8415719672147360e-01   2.8814159644121190e-01   2.8050497794247209e-01   2.8316335052219943e-01   2.7670607987231305e-01   2.7791345334694628e-01   2.7269908765253248e-01   2.7228372476013024e-01   2.6836578590484900e-01   2.6601312276529593e-01   2.6346522636923458e-01   2.5874193528285250e-01   2.5764660051565924e-01   2.5013389460319785e-01   2.5055592590049314e-01   2.3996216335632123e-01   2.4194633295724399e-01   2.2812144043955623e-01   2.3171361640149046e-01   2.1462123572343422e-01   2.1986952924586955e-01   1.9966945115591037e-01   2.0654595502217540e-01   1.8378839299090036e-01   1.9207917057053644e-01   1.7701194218364091e-01   2.6773301966459323e-01   2.5475932168838072e-01   2.6556398487238753e-01   2.5316979527976152e-01   2.6356729336074580e-01   2.5182856152549260e-01   2.6179385886246109e-01   2.5084033815100842e-01   2.6018974120306315e-01   2.5019202510015970e-01   2.5861936933389140e-01   2.4974450056183703e-01   2.5690013746304252e-01   2.4928098957144221e-01   2.5478421540671353e-01   2.4853511974697548e-01   2.5193103091385993e-01   2.4716934394896525e-01   2.4794999292365044e-01   2.4478319493074094e-01   2.4252986186766906e-01   2.4101993486028256e-01   2.3554614604579607e-01   2.3570843303511452e-01   2.2704536262040784e-01   2.2889504187028667e-01   2.1715168145198296e-01   2.2073780380814437e-01   2.0605004946635544e-01   2.1141196342313417e-01   1.9400928344729010e-01   2.0111085735120490e-01   1.8130020638988500e-01   1.9001645558401825e-01   1.7817042349415235e-01   2.2758081281183773e-01   2.2720810273968417e-01   2.1459301026782351e-01   2.2735417643725508e-01   2.1512767786675197e-01   2.2814754631325343e-01   2.1639912344984341e-01   2.2953485801366255e-01   2.1844194097293063e-01   2.3126325762144481e-01   2.2104867213804527e-01   2.3299377805161980e-01   2.2384813482443927e-01   2.3437103762952521e-01   2.2644637407144841e-01   2.3499486017836940e-01   2.2844366738436669e-01   2.3443263867679309e-01   2.2940457342466000e-01   2.3236870000030052e-01   2.2894744306419734e-01   2.2879082355025274e-01   2.2696102420496084e-01   2.2394543847086903e-01   2.2367983641582961e-01   2.1809916520004663e-01   2.1945916801464163e-01   2.1144364019714182e-01   2.1454842179085581e-01   2.0407721888792205e-01   2.0905405563167892e-01   1.9590871475379118e-01   2.0287646562091530e-01   1.8655623504212343e-01   1.9558915139290370e-01   1.8649201760508749e-01   1.9139321524463759e-01   1.8019314509942794e-01   1.9312579213777942e-01   1.8199282465110619e-01   1.9584090236186402e-01   1.8478202685482401e-01   1.9954221298662769e-01   1.8867884004329569e-01   2.0391577048460580e-01   1.9349271079347197e-01   2.0846215101227705e-01   1.9873646687629576e-01   2.1271964401722923e-01   2.0387504538926332e-01   2.1627673737370207e-01   2.0847311559494977e-01   2.1870475049104759e-01   2.1212530154030651e-01   2.1968160600510298e-01   2.1446540477614995e-01   2.1927044666043252e-01   2.1541181302299189e-01   2.1793319235753961e-01   2.1535401812389451e-01   2.1613763511981282e-01   2.1487830849294290e-01   2.1413979786233903e-01   2.1437072570751933e-01   2.1194209626869623e-01   2.1392583960034833e-01   2.0915274240407830e-01   2.1324609918881834e-01   2.0484435741875193e-01   2.1144724145401908e-01   1.9781593152025656e-01   2.0714444327871157e-01   1.9912619252638761e-01   1.6192773836481938e-01   1.6451699037888842e-01   1.5563234567920325e-01   1.6823389650866075e-01   1.5908472740781587e-01   1.7315906783719015e-01   1.6375836472123753e-01   1.7903219483050431e-01   1.6954958625217936e-01   1.8528340991055253e-01   1.7599224919243389e-01   1.9133481891274054e-01   1.8246150618026363e-01   1.9677929175780895e-01   1.8848059217036853e-01   2.0127281936613900e-01   1.9372724517154960e-01   2.0455223836866246e-01   1.9793728165811114e-01   2.0672282408523540e-01   2.0107878084943090e-01   2.0837372329495371e-01   2.0360131662943462e-01   2.1017206717178452e-01   2.0624693866899743e-01   2.1250512513654460e-01   2.0956563152661561e-01   2.1537493987904027e-01   2.1372252412592924e-01   2.1819537533758973e-01   2.1833961616060940e-01   2.1956294098575763e-01   2.2221809035886964e-01   2.1754264861681369e-01   2.2336063740266845e-01   2.1076007219512188e-01   2.1985117376003083e-01   2.1105964375747888e-01   1.4355105033102741e-01   1.3735560438838840e-01   1.4742029680610308e-01   1.4075742347774833e-01   1.5247644238328883e-01   1.4527577741965436e-01   1.5854620156772167e-01   1.5086397997362591e-01   1.6513638331508793e-01   1.5716504687928273e-01   1.7166054312663365e-01   1.6362058952241237e-01   1.7772225654962528e-01   1.6977136320621944e-01   1.8309502902421765e-01   1.7538601843724819e-01   1.8764428225300570e-01   1.8034590163318376e-01   1.9152373197215050e-01   1.8470339787870937e-01   1.9533021634851674e-01   1.8889669558429723e-01   1.9981338897414744e-01   1.9366925168676175e-01   2.0548638111040327e-01   1.9965868154583649e-01   2.1242065835289481e-01   2.0712194021380029e-01   2.1998625597739990e-01   2.1571613159508848e-01   2.2656751420970328e-01   2.2418742410233294e-01   2.2979265155941356e-01   2.3034129632586409e-01   2.2772056247014444e-01   2.3184201595949702e-01   2.2003708962541166e-01   2.2760550439743413e-01   2.1820987890651003e-01   1.3039482443793352e-01   1.3376410471949432e-01   1.2958978721734266e-01   1.3811055248452056e-01   1.3325575798285505e-01   1.4332108847113861e-01   1.3776350124330827e-01   1.4903214624311126e-01   1.4286662394755814e-01   1.5478899886003311e-01   1.4816894463914329e-01   1.6028435136963254e-01   1.5333974355178887e-01   1.6540528436917393e-01   1.5825296745997294e-01   1.7015211842927855e-01   1.6291946388967041e-01   1.7472860764591444e-01   1.6747522977814402e-01   1.7966231067731370e-01   1.7231484549505346e-01   1.8563792292769352e-01   1.7806532916922579e-01   1.9318881467341664e-01   1.8531290874840092e-01   2.0244685492070291e-01   1.9434139818879106e-01   2.1286518013962064e-01   2.0489365921500827e-01   2.2295446153373483e-01   2.1590091789221300e-01   2.3046281587319228e-01   2.2545473415395789e-01   2.3332323748984246e-01   2.3139431953411327e-01   2.3079885157726923e-01   2.3239476445528923e-01   2.2349497372557495e-01   2.2851653195911070e-01   2.2062230765711599e-01   1.2632601399240515e-01   1.2936508472322292e-01   1.2660810651447910e-01   1.3299827107868198e-01   1.2945359605528514e-01   1.3700383455988333e-01   1.3269246223050385e-01   1.4110806513481874e-01   1.3610811811467011e-01   1.4515196845490361e-01   1.3954010555875135e-01   1.4913754841341431e-01   1.4298106214654169e-01   1.5317033122931709e-01   1.4654083335638474e-01   1.5748927157649598e-01   1.5041751290980424e-01   1.6252769469842904e-01   1.5495669651824642e-01   1.6881950158064216e-01   1.6063138576826705e-01   1.7680154617536734e-01   1.6788351024994566e-01   1.8660409198606090e-01   1.7694344548229665e-01   1.9781756733421238e-01   1.8763716485597004e-01   2.0930306490436465e-01   1.9919513592496765e-01   2.1933025657091093e-01   2.1023552632020318e-01   2.2621090938646801e-01   2.1915712521349873e-01   2.2905287095920257e-01   2.2479952526189823e-01   2.2788277685936190e-01   2.2682542217532073e-01   2.2321227183001988e-01   2.2545458936752030e-01   2.2105910046038382e-01   1.2487363364247979e-01   1.2651326640637633e-01   1.2469059583836462e-01   1.2836151468501281e-01   1.2572753826999847e-01   1.3032450121609629e-01   1.2688996072733669e-01   1.3239069446048082e-01   1.2817581160739205e-01   1.3466356870411908e-01   1.2968597097162846e-01   1.3732486220022416e-01   1.3160521226493063e-01   1.4063256767735816e-01   1.3417093735775978e-01   1.4493617401861436e-01   1.3768600114207374e-01   1.5060692040359375e-01   1.4248585198493552e-01   1.5793056420748439e-01   1.4884639655439155e-01   1.6699750868695096e-01   1.5690821579050881e-01   1.7754597573479736e-01   1.6657355376622007e-01   1.8884621292560091e-01   1.7738424447881257e-01   1.9978082224445023e-01   1.8850492171554878e-01   2.0919897213996372e-01   1.9892042681597241e-01   2.1633476149742242e-01   2.0778901143613329e-01   2.2090099131976046e-01   2.1466417971067980e-01   2.2288203470912418e-01   2.1938685635241348e-01   2.2228310377168845e-01   2.2186571534995433e-01   2.2189872169669930e-01   1.2272874164974039e-01   1.2224737288516901e-01   1.2107154135395880e-01   1.2187073905133070e-01   1.1986267286344808e-01   1.2171580468840824e-01   1.1884609710863235e-01   1.2197517244429645e-01   1.1822104080089653e-01   1.2288706431451261e-01   1.1823612819595099e-01   1.2471128757266879e-01   1.1914898218652142e-01   1.2772301078974577e-01   1.2121242120179497e-01   1.3215779980939776e-01   1.2464843912033050e-01   1.3815314277067603e-01   1.2959005142977023e-01   1.4575726838062281e-01   1.3609211184995629e-01   1.5485439752200464e-01   1.4413412627207381e-01   1.6507494687546434e-01   1.5352418584696462e-01   1.7583271727023578e-01   1.6386974339004953e-01   1.8645430245918265e-01   1.7464470490289863e-01   1.9635419197065596e-01   1.8529765236057258e-01   2.0514879443954684e-01   1.9538286292540899e-01   2.1260609511468584e-01   2.0460294963888795e-01   2.1848343906996515e-01   2.1271738537156798e-01   2.2236630017483075e-01   2.1936732540266676e-01   2.2387802948918634e-01   1.1793755444666312e-01   1.1521917613073096e-01   1.1446980090556007e-01   1.1280310099982949e-01   1.1118458728373745e-01   1.1097150546598417e-01   1.0842408678571930e-01   1.1001636915170046e-01   1.0650709150577489e-01   1.1018308475242117e-01   1.0570290471008355e-01   1.1165673139218664e-01   1.0619150921252574e-01   1.1455380293832254e-01   1.0807499981929292e-01   1.1889822947776131e-01   1.1137445900887664e-01   1.2471691920883114e-01   1.1609025689941564e-01   1.3203482203428765e-01   1.2228755764970339e-01   1.4075364846528518e-01   1.2998907908490012e-01   1.5065105970364881e-01   1.3908887185990210e-01   1.6141959699755473e-01   1.4938982343843624e-01   1.7266566378033787e-01   1.6059583044534095e-01   1.8398618183102519e-01   1.7232273188194600e-01   1.9506230156346155e-01   1.8420820669717722e-01   2.0563058975275261e-01   1.9597532378466004e-01   2.1530907651261161e-01   2.0733492955697741e-01   2.2329769597711960e-01   2.1772424598664597e-01   2.2595130713308637e-01   1.0992484780199667e-01   1.0540532692465490e-01   1.0489473837098505e-01   1.0160426012335362e-01   1.0020424357724421e-01   9.8878317374404417e-02   9.6523470777192227e-02   9.7456426839774013e-02   9.4141768668815740e-02   9.7417875729896089e-02   9.3163599870820166e-02   9.8749620277300512e-02   9.3558456600457959e-02   1.0139081518488800e-01   9.5245851436815757e-02   1.0537046272504773e-01   9.8196410169561210e-02   1.1084375205820425e-01   1.0255528977138299e-01   1.1791042438480016e-01   1.0851405719512526e-01   1.2655512896643087e-01   1.1614206335813212e-01   1.3668115559907704e-01   1.2540819953589519e-01   1.4807607968733921e-01   1.3618936455045630e-01   1.6040128406089216e-01   1.4822164341681493e-01   1.7329363476688431e-01   1.6114702710353776e-01   1.8647919269664145e-01   1.7464861412803312e-01   1.9969596331390838e-01   1.8849257440211140e-01   2.1239176116402597e-01   2.0233439743846995e-01   2.2332287510259166e-01   2.1533326978437156e-01   2.2590673202904912e-01   9.9290753344802848e-02   9.3853135060201834e-02   9.3450093456541164e-02   8.9619408363560971e-02   8.8349140229315809e-02   8.6821733091228884e-02   8.4654189924368212e-02   8.5457557750523619e-02   8.2430055526779289e-02   8.5399196259865279e-02   8.1552053683068879e-02   8.6506195198385510e-02   8.1850079506295456e-02   8.8804739165307206e-02   8.3258958373291045e-02   9.2541548060164500e-02   8.5964637491475301e-02   9.7951636854060872e-02   9.0267001424503571e-02   1.0513532086584715e-01   9.6340271900161825e-02   1.1409500445191366e-01   1.0423376222980034e-01   1.2473575015068018e-01   1.1391250373092479e-01   1.3683124809896136e-01   1.2522986686778467e-01   1.5004220044276059e-01   1.3790379502518160e-01   1.6406457828855650e-01   1.5160290020933340e-01   1.7869208920306642e-01   1.6609332876061028e-01   1.9360040812354321e-01   1.8116040113519466e-01   2.0798819992305528e-01   1.9631134661991409e-01   2.2041166525204009e-01   2.1048084540883566e-01   2.2210215831878755e-01   8.7556674068550847e-02   8.2218877608065705e-02   8.1829496579380309e-02   7.8348811496417176e-02   7.7183595625961263e-02   7.5917630923877086e-02   7.4003328726243003e-02   7.4740930122056681e-02   7.2132967806237056e-02   7.4624146534945784e-02   7.1360710025786839e-02   7.5556683394486665e-02   7.1576370048524018e-02   7.7812186089443569e-02   7.2948387871008463e-02   8.1695979702807120e-02   7.5816364340159065e-02   8.7366153494503038e-02   8.0404662387784667e-02   9.4870435290678318e-02   8.6796026483088318e-02   1.0417997914583284e-01   9.4997425540207986e-02   1.1517041984997170e-01   1.0494222981452536e-01   1.2758681808234376e-01   1.1645348941447531e-01   1.4113059119889867e-01   1.2925200193878833e-01   1.5560550210057658e-01   1.4310414192979870e-01   1.7081202662250505e-01   1.5785609906412823e-01   1.8627186766793161e-01   1.7321289187124730e-01   2.0104923038844244e-01   1.8851693057884225e-01   2.1383647277160991e-01   2.0271336153923647e-01   2.1455788290811367e-01   7.6419212879255266e-02   7.1854658685367181e-02   7.1479616440494415e-02   6.8683108556033434e-02   6.7699091969040157e-02   6.6709199867601557e-02   6.5172530685609853e-02   6.5724422998396370e-02   6.3679275386859746e-02   6.5678337036841117e-02   6.3087917412862876e-02   6.6804810541500559e-02   6.3513090198688421e-02   6.9418511282951192e-02   6.5268728089838149e-02   7.3696157563290593e-02   6.8587575445431037e-02   7.9697489292796103e-02   7.3557185492721180e-02   8.7422942469694787e-02   8.0195775351503254e-02   9.6814983852327841e-02   8.8477009967615067e-02   1.0771943770222346e-01   9.8308286118826430e-02   1.1991097237402691e-01   1.0951126290015423e-01   1.3322341441468269e-01   1.2190874586177700e-01   1.4752920207768566e-01   1.3539812469906165e-01   1.6253321000809434e-01   1.4980576198380097e-01   1.7763140873208225e-01   1.6470654719142686e-01   1.9195813493080385e-01   1.7940736558232809e-01   2.0455307214385648e-01   1.9307424325840528e-01   2.0488458556619862e-01   6.7185364941670642e-02   6.3634238021707659e-02   6.3494877233604169e-02   6.1214053470172579e-02   6.0658607605585696e-02   5.9716571145639635e-02   5.8786451758044117e-02   5.9072461718030982e-02   5.7744445833639559e-02   5.9451759451947028e-02   5.7599662675452169e-02   6.1123670991740361e-02   5.8596525986269896e-02   6.4255041712069541e-02   6.0939059944220594e-02   6.8901579902931137e-02   6.4706302102164437e-02   7.5069172479119914e-02   6.9913832053729391e-02   8.2730898559720392e-02   7.6549138057035393e-02   9.1807517255004412e-02   8.4567373556850234e-02   1.0217272692523198e-01   9.3879633733963450e-02   1.1373290415060187e-01   1.0439619398458551e-01   1.2643028040637125e-01   1.1607938558882414e-01   1.4010412421416155e-01   1.2885926690348334e-01   1.5436000447003384e-01   1.4248408322846651e-01   1.6861108808582967e-01   1.5648667806286989e-01   1.8222304774847403e-01   1.7030748062727183e-01   1.9458892220853663e-01   1.8340201865002637e-01   1.9524197583704109e-01   6.1013622513662560e-02   5.8455972949009970e-02   5.8949381830164869e-02   5.6753519364650375e-02   5.6977351107319281e-02   5.5831375451428480e-02   5.5769366501670539e-02   5.5799101606417885e-02   5.5357644913789361e-02   5.6852773432832814e-02   5.5906301977329612e-02   5.9125157995397408e-02   5.7564946115040275e-02   6.2662149545119658e-02   6.0396046492832763e-02   6.7467915518029373e-02   6.4410752375578986e-02   7.3527471311418152e-02   6.9601042413554720e-02   8.0804532768717685e-02   7.5946029210306229e-02   8.9247455518941185e-02   8.3412193542319435e-02   9.8831580543072520e-02   9.1975525895319488e-02   1.0956180132085434e-01   1.0165013603775964e-01   1.2138942132756514e-01   1.1244205560086867e-01   1.3410469234718261e-01   1.2425358525587485e-01   1.4732487977964681e-01   1.3681661151036614e-01   1.6062454061798720e-01   1.4976297474967451e-01   1.7360535384843492e-01   1.6273891378761920e-01   1.8583943823189938e-01   1.7538446286151863e-01   1.8724058687182807e-01   5.9025543102865695e-02   5.7339398571625226e-02   5.8894539062573081e-02   5.6366400283917213e-02   5.7713094004739625e-02   5.6165845317201618e-02   5.7237226423797791e-02   5.6858934917547739e-02   5.7560634876554342e-02   5.8533390698556460e-02   5.8774624854937077e-02   6.1220999760634047e-02   6.0919413525342865e-02   6.4923190821538718e-02   6.4000482859212282e-02   6.9630411381399096e-02   6.8010730544452322e-02   7.5328865697836297e-02   7.2940700791218727e-02   8.2008942400750878e-02   7.8785053994534129e-02   8.9685537730608611e-02   8.5554927268987405e-02   9.8397962180146098e-02   9.3289829402206426e-02   1.0816648539212739e-01   1.0203412302789849e-01   1.1892776228245830e-01   1.1178758850342650e-01   1.3049520769719589e-01   1.2245618128078679e-01   1.4261714815681034e-01   1.3385522880496370e-01   1.5504726199822202e-01   1.4578345673808962e-01   1.6749571521171877e-01   1.5802034850481794e-01   1.7953085428562363e-01   1.7023571008255187e-01   1.8190500641259072e-01   6.2276115720563213e-02   6.1385158569753712e-02   6.4396920938662353e-02   6.1161927986884274e-02   6.3967224099176392e-02   6.1667962537361967e-02   6.4202018299893929e-02   6.2948784598100355e-02   6.5144609113065063e-02   6.5018005996347689e-02   6.6810353911629566e-02   6.7870454839380048e-02   6.9193771465467763e-02   7.1496592777803236e-02   7.2283181382583314e-02   7.5891800280683666e-02   7.6071408662216108e-02   8.1064861426224516e-02   8.0563587870701156e-02   8.7047473237298362e-02   8.5784769860225943e-02   9.3892435496237714e-02   9.1783728433630835e-02   1.0165194615235371e-01   9.8620930770682347e-02   1.1034574106986768e-01   1.0634440405457520e-01   1.1993505940472808e-01   1.1496592944848959e-01   1.3033356436516633e-01   1.2445246399153199e-01   1.4143636652977393e-01   1.34747195