<?xml version="1.0"?>
<VTKFile type="UnstructuredGrid"  version="0.1"  >
<UnstructuredGrid>
<Piece  NumberOfPoints="639" NumberOfCells="1174">
<Points>
<DataArray  type="Float64"  NumberOfComponents="3"  format="ascii">1.024347826086957 0 0  1.040869565217391 0 0  1.040869565217391 0.01666666666666667 0  1.024347826086957 0.01666666666666667 0  1.057391304347826 0 0  1.057391304347826 0.01666666666666667 0  1.073913043478261 0 0  1.073913043478261 0.01666666666666667 0  1.090434782608696 0 0  1.090434782608696 0.01666666666666667 0  1.10695652173913 0 0  1.10695652173913 0.01666666666666667 0  1.123478260869565 0 0  1.123478260869565 0.01666666666666667 0  1.14 0 0  1.14 0.01666666666666667 0  1.156521739130435 0 0  1.156521739130435 0.01666666666666667 0  1.17304347826087 0 0  1.17304347826087 0.01666666666666667 0  1.189565217391304 0 0  1.189565217391304 0.01666666666666667 0  1.206086956521739 0 0  1.206086956521739 0.01666666666666667 0  1.222608695652174 0 0  1.222608695652174 0.01666666666666667 0  1.239130434782609 0 0  1.239130434782609 0.01666666666666667 0  1.255652173913044 0 0  1.255652173913044 0.01666666666666667 0  1.272173913043478 0 0  1.272173913043478 0.01666666666666667 0  1.288695652173913 0 0  1.288695652173913 0.01666666666666667 0  1.305217391304348 0 0  1.305217391304348 0.01666666666666667 0  1.321739130434783 0 0  1.321739130434783 0.01666666666666667 0  1.338260869565217 0.01666666666666667 0  1.040869565217391 0.03333333333333333 0  1.057391304347826 0.03333333333333333 0  1.073913043478261 0.03333333333333333 0  1.090434782608696 0.03333333333333333 0  1.10695652173913 0.03333333333333333 0  1.123478260869565 0.03333333333333333 0  1.14 0.03333333333333333 0  1.156521739130435 0.03333333333333333 0  1.17304347826087 0.03333333333333333 0  1.189565217391304 0.03333333333333333 0  1.206086956521739 0.03333333333333333 0  1.222608695652174 0.03333333333333333 0  1.239130434782609 0.03333333333333333 0  1.255652173913044 0.03333333333333333 0  1.272173913043478 0.03333333333333333 0  1.288695652173913 0.03333333333333333 0  1.305217391304348 0.03333333333333333 0  1.321739130434783 0.03333333333333333 0  1.338260869565217 0.03333333333333333 0  1.354782608695652 0.03333333333333333 0  1.057391304347826 0.05 0  1.073913043478261 0.05 0  1.090434782608696 0.05 0  1.10695652173913 0.05 0  1.123478260869565 0.05 0  1.14 0.05 0  1.156521739130435 0.05 0  1.17304347826087 0.05 0  1.189565217391304 0.05 0  1.206086956521739 0.05 0  1.222608695652174 0.05 0  1.239130434782609 0.05 0  1.255652173913044 0.05 0  1.272173913043478 0.05 0  1.288695652173913 0.05 0  1.305217391304348 0.05 0  1.321739130434783 0.05 0  1.338260869565217 0.05 0  1.354782608695652 0.05 0  1.371304347826087 0.05 0  1.073913043478261 0.06666666666666667 0  1.090434782608696 0.06666666666666667 0  1.10695652173913 0.06666666666666667 0  1.123478260869565 0.06666666666666667 0  1.14 0.06666666666666667 0  1.156521739130435 0.06666666666666667 0  1.17304347826087 0.06666666666666667 0  1.189565217391304 0.06666666666666667 0  1.206086956521739 0.06666666666666667 0  1.222608695652174 0.06666666666666667 0  1.239130434782609 0.06666666666666667 0  1.255652173913044 0.06666666666666667 0  1.272173913043478 0.06666666666666667 0  1.288695652173913 0.06666666666666667 0  1.305217391304348 0.06666666666666667 0  1.321739130434783 0.06666666666666667 0  1.338260869565217 0.06666666666666667 0  1.354782608695652 0.06666666666666667 0  1.371304347826087 0.06666666666666667 0  1.387826086956522 0.06666666666666667 0  1.090434782608696 0.08333333333333333 0  1.10695652173913 0.08333333333333333 0  1.123478260869565 0.08333333333333333 0  1.14 0.08333333333333333 0  1.156521739130435 0.08333333333333333 0  1.17304347826087 0.08333333333333333 0  1.189565217391304 0.08333333333333333 0  1.206086956521739 0.08333333333333333 0  1.222608695652174 0.08333333333333333 0  1.239130434782609 0.08333333333333333 0  1.255652173913044 0.08333333333333333 0  1.272173913043478 0.08333333333333333 0  1.288695652173913 0.08333333333333333 0  1.305217391304348 0.08333333333333333 0  1.321739130434783 0.08333333333333333 0  1.338260869565217 0.08333333333333333 0  1.354782608695652 0.08333333333333333 0  1.371304347826087 0.08333333333333333 0  1.387826086956522 0.08333333333333333 0  1.404347826086957 0.08333333333333333 0  1.10695652173913 0.1 0  1.123478260869565 0.1 0  1.14 0.1 0  1.156521739130435 0.1 0  1.17304347826087 0.1 0  1.189565217391304 0.1 0  1.206086956521739 0.1 0  1.222608695652174 0.1 0  1.239130434782609 0.1 0  1.255652173913044 0.1 0  1.272173913043478 0.1 0  1.288695652173913 0.1 0  1.305217391304348 0.1 0  1.321739130434783 0.1 0  1.338260869565217 0.1 0  1.354782608695652 0.1 0  1.371304347826087 0.1 0  1.387826086956522 0.1 0  1.404347826086957 0.1 0  1.420869565217391 0.1 0  1.123478260869565 0.1166666666666667 0  1.14 0.1166666666666667 0  1.156521739130435 0.1166666666666667 0  1.17304347826087 0.1166666666666667 0  1.189565217391304 0.1166666666666667 0  1.206086956521739 0.1166666666666667 0  1.222608695652174 0.1166666666666667 0  1.239130434782609 0.1166666666666667 0  1.255652173913044 0.1166666666666667 0  1.272173913043478 0.1166666666666667 0  1.288695652173913 0.1166666666666667 0  1.305217391304348 0.1166666666666667 0  1.321739130434783 0.1166666666666667 0  1.338260869565217 0.1166666666666667 0  1.354782608695652 0.1166666666666667 0  1.371304347826087 0.1166666666666667 0  1.387826086956522 0.1166666666666667 0  1.404347826086957 0.1166666666666667 0  1.420869565217391 0.1166666666666667 0  1.437391304347826 0.1166666666666667 0  1.14 0.1333333333333333 0  1.156521739130435 0.1333333333333333 0  1.17304347826087 0.1333333333333333 0  1.189565217391304 0.1333333333333333 0  1.206086956521739 0.1333333333333333 0  1.222608695652174 0.1333333333333333 0  1.239130434782609 0.1333333333333333 0  1.255652173913044 0.1333333333333333 0  1.272173913043478 0.1333333333333333 0  1.288695652173913 0.1333333333333333 0  1.305217391304348 0.1333333333333333 0  1.321739130434783 0.1333333333333333 0  1.338260869565217 0.1333333333333333 0  1.354782608695652 0.1333333333333333 0  1.371304347826087 0.1333333333333333 0  1.387826086956522 0.1333333333333333 0  1.404347826086957 0.1333333333333333 0  1.420869565217391 0.1333333333333333 0  1.437391304347826 0.1333333333333333 0  1.453913043478261 0.1333333333333333 0  1.156521739130435 0.15 0  1.17304347826087 0.15 0  1.189565217391304 0.15 0  1.206086956521739 0.15 0  1.222608695652174 0.15 0  1.239130434782609 0.15 0  1.255652173913044 0.15 0  1.272173913043478 0.15 0  1.288695652173913 0.15 0  1.305217391304348 0.15 0  1.321739130434783 0.15 0  1.338260869565217 0.15 0  1.354782608695652 0.15 0  1.371304347826087 0.15 0  1.387826086956522 0.15 0  1.404347826086957 0.15 0  1.420869565217391 0.15 0  1.437391304347826 0.15 0  1.453913043478261 0.15 0  1.470434782608696 0.15 0  1.17304347826087 0.1666666666666667 0  1.189565217391304 0.1666666666666667 0  1.206086956521739 0.1666666666666667 0  1.222608695652174 0.1666666666666667 0  1.239130434782609 0.1666666666666667 0  1.255652173913044 0.1666666666666667 0  1.272173913043478 0.1666666666666667 0  1.288695652173913 0.1666666666666667 0  1.305217391304348 0.1666666666666667 0  1.321739130434783 0.1666666666666667 0  1.338260869565217 0.1666666666666667 0  1.354782608695652 0.1666666666666667 0  1.371304347826087 0.1666666666666667 0  1.387826086956522 0.1666666666666667 0  1.404347826086957 0.1666666666666667 0  1.420869565217391 0.1666666666666667 0  1.437391304347826 0.1666666666666667 0  1.453913043478261 0.1666666666666667 0  1.470434782608696 0.1666666666666667 0  1.486956521739131 0.1666666666666667 0  1.189565217391304 0.1833333333333333 0  1.206086956521739 0.1833333333333333 0  1.222608695652174 0.1833333333333333 0  1.239130434782609 0.1833333333333333 0  1.255652173913044 0.1833333333333333 0  1.272173913043478 0.1833333333333333 0  1.288695652173913 0.1833333333333333 0  1.305217391304348 0.1833333333333333 0  1.321739130434783 0.1833333333333333 0  1.338260869565217 0.1833333333333333 0  1.354782608695652 0.1833333333333333 0  1.371304347826087 0.1833333333333333 0  1.387826086956522 0.1833333333333333 0  1.404347826086957 0.1833333333333333 0  1.420869565217391 0.1833333333333333 0  1.437391304347826 0.1833333333333333 0  1.453913043478261 0.1833333333333333 0  1.470434782608696 0.1833333333333333 0  1.486956521739131 0.1833333333333333 0  1.503478260869565 0.1833333333333333 0  1.206086956521739 0.2 0  1.222608695652174 0.2 0  1.239130434782609 0.2 0  1.255652173913044 0.2 0  1.272173913043478 0.2 0  1.288695652173913 0.2 0  1.305217391304348 0.2 0  1.321739130434783 0.2 0  1.338260869565217 0.2 0  1.354782608695652 0.2 0  1.371304347826087 0.2 0  1.387826086956522 0.2 0  1.404347826086957 0.2 0  1.420869565217391 0.2 0  1.437391304347826 0.2 0  1.453913043478261 0.2 0  1.470434782608696 0.2 0  1.486956521739131 0.2 0  1.503478260869565 0.2 0  1.52 0.2 0  1.222608695652174 0.2166666666666667 0  1.239130434782609 0.2166666666666667 0  1.255652173913044 0.2166666666666667 0  1.272173913043478 0.2166666666666667 0  1.288695652173913 0.2166666666666667 0  1.305217391304348 0.2166666666666667 0  1.321739130434783 0.2166666666666667 0  1.338260869565217 0.2166666666666667 0  1.354782608695652 0.2166666666666667 0  1.371304347826087 0.2166666666666667 0  1.387826086956522 0.2166666666666667 0  1.404347826086957 0.2166666666666667 0  1.420869565217391 0.2166666666666667 0  1.437391304347826 0.2166666666666667 0  1.453913043478261 0.2166666666666667 0  1.470434782608696 0.2166666666666667 0  1.486956521739131 0.2166666666666667 0  1.503478260869565 0.2166666666666667 0  1.52 0.2166666666666667 0  1.536521739130435 0.2166666666666667 0  1.239130434782609 0.2333333333333333 0  1.255652173913044 0.2333333333333333 0  1.272173913043478 0.2333333333333333 0  1.288695652173913 0.2333333333333333 0  1.305217391304348 0.23333
[...]
<CellData  Scalars="rho_bar"> 
<DataArray  type="Float64"  Name="rho_bar"  format="ascii">9.9940754692568234e-01   9.9883224095305256e-01   9.9939772466864596e-01   9.9881164338060324e-01   9.9938896789319620e-01   9.9879274447411903e-01   9.9938077622724653e-01   9.9877588676044182e-01   9.9937279793425582e-01   9.9875955941013694e-01   9.9936564383525728e-01   9.9874432998968021e-01   9.9935863756330512e-01   9.9873046876200466e-01   9.9934987873517878e-01   9.9871478623877452e-01   9.9933693003573587e-01   9.9869230745520410e-01   9.9931781099719319e-01   9.9865808332703265e-01   9.9929274841472804e-01   9.9861022942965805e-01   9.9926610305999741e-01   9.9855411289616547e-01   9.9924680987284908e-01   9.9850514903477683e-01   9.9924602632591308e-01   9.9848663559489614e-01   9.9926845889451310e-01   9.9851659683747440e-01   9.9930415700093156e-01   9.9858689998530048e-01   9.9933128442521157e-01   9.9865916532559107e-01   9.9932282466638800e-01   9.9867954196460584e-01   9.9858671743108707e-01   9.4445986690994077e-01   9.4339204581371194e-01   7.4691347433801603e-01   9.4261262101825083e-01   7.4380826965472768e-01   9.4186823299420186e-01   7.4135522746165206e-01   9.4103818262416605e-01   7.3874623763866121e-01   9.4042743916793159e-01   7.3637688568106485e-01   9.3992993835423466e-01   7.3468640186014622e-01   9.3928327463012085e-01   7.3296047942638343e-01   9.3815267202895092e-01   7.3014483194019419e-01   9.3620830307466640e-01   7.2511666836611177e-01   9.3336659960009338e-01   7.1724979252368648e-01   9.3013591025279785e-01   7.0740853610594612e-01   9.2761227122861567e-01   6.9831669215108372e-01   9.2748839461016064e-01   6.9437800570755970e-01   9.3079553544620974e-01   6.9995558821410886e-01   9.3631668668781698e-01   7.1507347834313240e-01   9.4128412660115712e-01   7.3349264232664890e-01   9.4252765928345039e-01   7.4485972059093941e-01   9.3705553154310872e-01   7.3827478563083526e-01   7.0361618466474873e-01   7.4540280171386392e-02   7.3275026211463173e-02   7.2131671135921612e-03   7.2306261087309032e-02   7.1052239724910937e-03   7.1246125345573993e-02   7.0003544296479148e-03   7.0336018554143523e-02   6.8853640523716571e-03   6.9735418713785691e-02   6.8124542636572444e-03   6.9108734766413202e-02   6.7578289132402955e-03   6.8036648348307041e-02   6.6775216827805756e-03   6.6110652441112791e-02   6.5259503593960233e-03   6.3202755775504854e-02   6.2708349144837148e-03   5.9811729324322292e-02   5.9329127250498208e-03   5.6977301466731758e-02   5.6059660876894880e-03   5.6087512700816577e-02   5.4174691135457902e-03   5.8514925215897698e-02   5.5263852196149885e-03   6.4538688511250747e-02   6.0505838651740453e-03   7.2417453896008663e-02   6.9385380063261455e-03   7.7794006222872886e-02   7.8700031820603134e-03   7.5272499112813432e-02   8.2063875652409017e-03   6.2402705652235775e-02   7.4227095353092253e-03   5.6287853139477201e-03   8.6790707181466988e-06   8.5650265134834865e-06   1.1300913178672977e-06   8.4554252924679275e-06   1.1186072911099729e-06   8.3531225153756652e-06   1.1054733335495543e-06   8.2908006776111471e-06   1.0966373731417604e-06   8.2440145051008771e-06   1.0925445974770869e-06   8.1636144581382008e-06   1.0872250643297792e-06   8.0071212157364159e-06   1.0759319501452418e-06   7.7563144222731044e-06   1.0547976055375319e-06   7.4599959668614237e-06   1.0254862831960124e-06   7.2379860010705413e-06   9.9956012045157327e-07   7.2553898745055426e-06   9.9551169655915473e-07   7.7069055280933595e-06   1.0369082267166377e-06   8.7301701916418678e-06   1.1502304907244458e-06   1.0266760628023306e-05   1.3451883205395704e-06   1.1903215572706431e-05   1.5996637080888050e-06   1.2879120132989893e-05   1.8420567326020438e-06   1.2601278511474434e-05   1.9806296704117321e-06   1.1284077273114413e-05   1.9905555919038778e-06   1.9867773149070535e-06   7.1820643784046610e-09   7.1436345265113407e-09   1.6861301614194652e-09   7.1201775679136051e-09   1.6816825709753828e-09   7.1182178669935460e-09   1.6822746529144154e-09   7.1319156598934931e-09   1.6883375530963182e-09   7.1485206643020085e-09   1.6977558525699700e-09   7.1597376731052895e-09   1.7089550793011396e-09   7.1730320757210978e-09   1.7225802913708520e-09   7.2271539123630582e-09   1.7447183697783416e-09   7.3995065907885514e-09   1.7901238084465354e-09   7.8049477899209624e-09   1.8829570125334292e-09   8.5910777288443345e-09   2.0575462352420286e-09   9.9132142587316611e-09   2.3585186859076997e-09   1.1898820586239075e-08   2.8358739615856865e-09   1.4629054227259425e-08   3.5471573363773903e-09   1.8214250829818217e-08   4.5767980424069274e-09   2.3164976011477374e-08   6.1242443153791372e-09   3.1543774786647289e-08   8.8106241191712189e-09   5.1529415096009028e-08   1.4875177524927848e-08   3.4916589786161182e-08   7.1813194280069957e-11   7.2112491903791852e-11   2.6326126463990535e-11   7.2684599080239725e-11   2.6558061305693276e-11   7.3564885664606494e-11   2.6918458203203691e-11   7.4795780680149914e-11   2.7431223958985365e-11   7.6488574733230101e-11   2.8140591708711092e-11   7.8907186340517526e-11   2.9136711561980411e-11   8.2578397823479754e-11   3.0594156837557124e-11   8.8413415477719417e-11   3.2824160056677815e-11   9.7865225182997629e-11   3.6345241631135126e-11   1.1319737739749580e-10   4.2009627258348426e-11   1.3799384783001628e-10   5.1257192934529754e-11   1.7837330686573194e-10   6.6676599426904932e-11   2.4620460300125684e-10   9.3470074273111430e-11   3.6842811209267249e-10   1.4364405035809001e-10   6.1800619251726281e-10   2.4989001608707576e-10   1.2388044941710140e-09   5.2143662535957828e-10   3.3127820579330716e-09   1.4380101739005493e-09   1.4012866265493307e-08   6.0980637391536752e-09   4.9458073460759465e-08   3.6820916686035798e-12   3.7465863744757634e-12   1.8842427618182477e-12   3.8387718929538091e-12   1.9332128490627571e-12   3.9682331494836444e-12   2.0022317137602890e-12   4.1505687775612527e-12   2.0994872507174552e-12   4.4123593667678719e-12   2.2385056771176056e-12   4.7990778018204393e-12   2.4423148688631740e-12   5.3886709909061820e-12   2.7506052990845108e-12   6.3176963660539976e-12   3.2344034857820121e-12   7.8374344051707199e-12   4.0271674883741634e-12   1.0446097690556899e-11   5.3999675101817438e-12   1.5236016152424182e-11   7.9612335242749661e-12   2.4924099821059700e-11   1.3261863829328372e-11   4.7404163927568058e-11   2.5931516193604592e-11   1.1061163096570960e-10   6.2858857008409243e-11   3.4254802698068368e-10   2.0394287184959171e-10   1.5738398084775129e-09   9.8275191688185853e-10   1.2517273819309062e-08   8.0904410485843837e-09   2.1367506768584961e-07   1.3853699597684546e-07   6.4737471725345515e-06   5.4711790653529108e-13   5.6946114490587286e-13   3.5656662807545518e-13   6.0113950854184477e-13   3.7727228748471480e-13   6.4647361538070640e-13   4.0694299781782282e-13   7.1279093738498420e-13   4.5035271808066760e-13   8.1269250588417370e-13   5.1573560237255238e-13   9.6920619678070908e-13   6.1818143196984142e-13   1.2269907312401383e-12   7.8733316163002677e-13   1.6802577847604472e-12   1.0864364963225900e-12   2.5500712652615867e-12   1.6661209449135532e-12   4.4285593710688604e-12   2.9373355599679278e-12   9.1919712582232157e-12   6.2332083938800216e-12   2.4209615793562161e-11   1.6953882742143804e-11   8.7687496153068246e-11   6.4249170798430280e-11   4.8347410334475470e-10   3.7588946770010997e-10   4.5664839317302816e-09   3.8008662421134210e-09   8.4529868068137885e-08   7.4851961055316696e-08   3.6729180773835876e-06   3.3549143147368267e-06   3.7059626873290724e-04   3.3031609813257242e-04   3.9725415487008475e-02   1.6373014055659913e-13   1.7809827686695667e-13   1.2883213014921414e-13   1.9918326247629662e-13   1.4481934170381680e-13   2.3104666328303949e-13   1.6901295178210728e-13   2.8121949213755922e-13   2.0717686825359797e-13   3.6464350057960335e-13   2.7084815871585231e-13   5.1390373438192077e-13   3.8539541928155572e-13   8.0862168812721475e-13   6.1326869508587480e-13   1.4728866274775397e-12   1.1326680334396904e-12   3.2648421003738182e-12   2.5565938255312595e-12   9.4407167268904885e-12   7.5783176030817399e-12   3.9194332964362432e-11   3.2582806822982836e-11   2.6496665972431500e-10   2.3150098504843318e-10   3.3698948631589473e-09   3.1542936596019276e-09   9.1146561650066987e-08   9.3261673892825411e-08   5.1336174086888774e-06   5.8170344104289109e-06   4.6490007924656501e-04   5.6063037189356423e-04   3.9070293846704192e-02   4.4977299480073667e-02   4.7132261952401611e-01   4.7763411110319853e-01   9.2147074479352686e-01   8.2341540993034509e-14   9.7634863157246432e-14   7.8298478811691147e-14   1.2192099182092236e-13   9.8689575030640368e-14   1.6274019169297497e-13   1.3310648879402112e-13   2.3697710460624567e-13   1.9600062313903778e-13   3.8691272408187685e-13   3.2387981185878202e-13   7.3585582072157223e-13   6.2425065117112565e-13   1.7206143917055722e-12   1.4826195826600874e-12   5.3368698349488788e-12   4.6883052995384610e-12   2.4444659259733849e-11   2.2010606300545598e-11   1.9224268473413523e-10   1.7876031210839924e-10   3.1853092570996323e-09   3.0964905176993392e-09   1.3777720260973433e-07   1.4359788042909895e-07   1.2954552616212583e-05   1.5206918265685188e-05   1.4380664941556387e-03   1.9074783817350711e-03   8.1562166944439699e-02   1.0727051231785936e-01   5.1828675726108808e-01   5.7635246883019009e-01   9.2277549053498231e-01   9.2774405879431954e-01   9.7532201480477143e-01   9.7438772839467847e-01   8.6502177263722302e-01   6.8491508760835341e-14   9.4591001698065735e-14   8.2526578163805377e-14   1.4280243654241437e-13   1.2606582444618968e-13   2.4224141211467671e-13   2.1652124537752663e-13   4.8028248045285484e-13   4.3482809945299207e-13   1.1780483995712447e-12   1.0818660782045497e-12   3.8745395780638159e-12   3.6179947926485514e-12   1.9107743165492282e-11   1.8199173649573186e-11   1.6484756152716726e-10   1.6052859042048746e-10   3.0987374703233024e-09   3.0852674581805744e-09   1.7130652417892751e-07   1.7468290526105577e-07   2.5578447832658816e-05   2.7438211916281510e-05   4.2822233003116826e-03   5.0936825766577922e-03   1.7918533462205585e-01   2.1862378442171257e-01   6.6762979162581226e-01   7.1539628250162202e-01   9.5163974537624008e-01   9.5651440863890269e-01   9.7092386900518268e-01   9.6981891745167015e-01   8.2961233092910935e-01   8.1084522209568033e-01   3.2189155494127303e-01   2.9305328000658570e-01   9.0640043536197468e-03   1.0269562977782959e-13   1.8102186416513637e-13   1.6888342576256765e-13   3.7376583309860695e-13   3.5305092183080877e-13   9.5980630850554908e-13   9.1896860491641933e-13   3.3382555978771591e-12   3.2465604279016576e-12   1.7680449696892685e-11   1.7514129035945287e-11   1.6640274343634514e-10   1.6835014863640604e-10   3.3897175344411477e-09   3.5025223277252767e-09   1.9243496229837607e-07   2.0122987205255286e-07   3.1061096412405511e-05   3.2196507311918367e-05   6.7623904342321815e-03   7.0313871387647810e-03   2.6581140222522898e-01   2.8351705279905742e-01   7.9485316542338347e-01   8.1217140390764142e-01   9.7042132966602457e-01   9.7232088316224097e-01   9.6282577926818924e-01   9.6102224842584127e-01   7.3339253298696971e-01   6.9908633129418596e-01   2.3443458680381746e-01   1.9149143294534979e-01   5.9085167970674164e-03   4.6875189098394632e-03   2.8743672315007698e-05   2.5643005831494462e-05   1.2326051456364946e-07   3.2563766498110520e-13   8.7543861049257378e-13   8.6013603646982323e-13   3.2207292388620447e-12   3.2141419155826018e-12   1.8345075458726008e-11   1.8636980847475587e-11   1.9081312456019370e-10   1.9781050871378177e-10   4.4583193525850074e-09   4.7355974142072688e-09   2.8123587177594565e-07   3.0819642897936113e-07   4.1316690127830495e-05   4.6241285245654753e-05   7.7702767125261340e-03   8.3974567633033348e-03   2.9190784489120186e-01   2.9803594577152737e-01   8.3514881284222220e-01   8.3721946476252618e-01   9.7561802451034152e-01   9.7560344755093842e-01   9.5032816668805975e-01   9.4734080492395356e-01   6.2765809481600554e-01   5.9110927384445910e-01   1.2780429675783667e-01   1.0321592403882764e-01   1.9619276591769682e-03   1.4760492093510440e-03   1.2213133949816171e-05   9.7666592511020451e-06   8.7415150645810960e-08   7.7957921886438409e-08   1.2958655074927916e-09   1.2627255907560518e-09   5.2135592139754654e-11   3.3362016852816026e-12   2.0487815148111158e-11   2.1134103726321093e-11   2.3433296969522272e-10   2.4657032896928542e-10   6.2862013094912503e-09   6.7478407028699941e-09   4.9170770683820093e-07   5.4291042513496712e-07   7.9979187428850788e-05   9.3072280697319168e-05   1.2354945120372206e-02   1.4648686242674756e-02   3.1564150684485753e-01   3.4332507282434699e-01   8.4213617701414301e-01   8.4645168532082504e-01   9.7387574790685749e-01   9.7324744483281944e-01   9.3223181306621372e-01   9.2741100859749226e-01   5.4356550342338028e-01   5.1006462299829980e-01   6.6838092427701723e-02   5.6619519426452082e-02   6.3428962737899902e-04   5.0824512873486884e-04   3.9299355592826593e-06   3.1902337067902492e-06   3.9231138569222592e-08   3.3646601578970960e-08   9.1993964298119075e-10   8.3845171546435647e-10   4.9463525867803849e-11   4.7700852527182058e-11   5.3054135159178308e-12   5.3342700626995469e-12   1.0301759445497088e-12   3.0434030295901297e-10   9.1022803738740689e-09   9.8887920167251635e-09   8.0497111590307313e-07   8.8975658636231538e-07   1.5394943054470144e-04   1.7397316005039718e-04   2.4081593003467853e-02   2.7940457364834942e-02   3.8706158864535334e-01   4.2792549988763928e-01   8.7438224227849071e-01   8.8376850950630970e-01   9.7234812114580127e-01   9.7254184029507873e-01   9.0699570570728261e-01   9.0153663178418475e-01   4.7031572060813198e-01   4.3784540437818464e-01   3.8294062309623227e-02   3.3169741170634370e-02   2.7480823980921321e-04   2.3443593215768612e-04   1.5587102717892233e-06   1.3394450327220201e-06   1.7789513695465781e-08   1.5548748584967043e-08   5.5159468659306263e-10   4.9676849670870456e-10   3.8496382008073271e-11   3.6008640513785851e-11   4.9942735132666243e-12   4.8464565693963186e-12   1.0508353446662757e-12   1.0489942248171056e-12   3.2175188439491705e-13   3.2666462127888352e-13   1.3380037818441181e-13   1.4103967707624146e-06   2.6642786315988787e-04   3.0737912774294089e-04   3.9233929165495923e-02   4.4199133702275142e-02   4.6748582705845881e-01   4.9658479859781363e-01   9.1407915580803312e-01   9.1990887002888422e-01   9.7455407500354441e-01   9.7508345121978657e-01   8.8409426241818001e-01   8.8018887036144489e-01   4.0510682413622440e-01   3.8109242631227008e-01   2.2605966269565389e-02   1.9923857979582446e-02   1.4157629323558265e-04   1.2393476907346693e-04   7.9895384433317031e-07   7.1227642952274330e-07   9.7963396376394372e-09   8.8540727620029352e-09   3.4732991482933957e-10   3.1863596946143809e-10   2.8429425480425873e-11   2.6653818041567199e-11   4.2733039329335670e-12   4.1100918964551262e-12   1.0055660008371840e-12   9.9087404947797746e-13   3.3034686097722371e-13   3.3179940276777502e-13   1.3912019684407416e-13   1.4153493192263395e-13   7.0582428790546119e-14   7.2284770761638055e-14   4.2401267682143512e-14   6.1015453511947731e-02   5.2721967021306837e-01   5.5433480503110000e-01   9.3459610441290664e-01   9.3720248973921239e-01   9.7556058985637695e-01   9.7529079635692428e-01   8.6395902583841810e-01   8.5768857453918657e-01   3.5932578907067475e-01   3.3960013932915345e-01   1.4684326538102805e-02   1.3343787646140196e-02   8.0985405001632516e-05   7.3102808190794730e-05   4.6607419154632916e-07   4.2651062005332527e-07   6.2895317195130848e-09   5.8442234662782570e-09   2.4571296849037731e-10   2.3144498354869942e-10   2.2140437631416970e-11   2.1172091857480347e-11   3.6657158789903579e-12   3.5667672519206384e-12   9.4046992415999394e-13   9.3169916226545500e-13   3.3071693531876545e-13   3.3309466296317102e-13   1.4607759446505866e-13   1.4917696707547064e-13   7.6281573650288733e-14   7.8733316163002687e-14   4.5260091970553359e-14   4.7054952527030742e-14   2.9781732635570575e-14   3.1067740972428078e-14   2.2380245804736016e-14   9.4660101816645603e-01   9.7209438994640263e-01   9.7062954412615576e-01   8.2470480378229971e-01   8.0973789243572913e-01   3.1254030933310256e-01   2.8482255037506821e-01   1.0168544208721458e-02   9.0802594603236753e-03   5.3149220192821362e-05   4.8684897896002060e-05   3.0975622826909100e-07   2.9001226926432808e-07   4.5438082463268335e-09   4.3273627829225968e-09   1.9430932788704089e-10   1.8803087790490739e-10   1.8884801130289004e-11   1.8554426513736167e-11   3.3455923216982240e-12   3.3355540551839051e-12   9.1319544518836852e-13   9.2346500816615142e-13   3.3914537844737833e-13   3.4766634016137656e-13   1.5685600966246154e-13   1.6284196213689898e-13   8.4987572535057891e-14   8.9271183038403380e-14   5.1856667108534664e-14   5.5020802728716442e-14   3.4740728812229730e-14   3.7173967607866596e-14   2.5183558941914603e-14   2.7126449235008677e-14   1.9641695677327222e-14   2.1196007911802482e-14   1.7680301667156066e-14   7.4953704344494854e-01   2.4007131092823308e-01   2.0666170995639616e-01   5.9769404932285206e-03   5.0543129733931751e-03   3.3818045114838928e-05   3.0208534119780739e-05   2.2258301723976920e-07   2.0939249302058607e-07   3.6456526778898727e-09   3.5433555071555812e-09   1.7086600652879209e-10   1.7009235686594056e-10   1.7868373447527569e-11   1.8138203901804183e-11   3.3570553744274787e-12   3.4634147401865715e-12   9.6286867368180707e-13   1.0071758242228904e-12   3.7372882566445276e-13   3.9577600456180123e-13   1.7995790043320388e-13   1.9284573937739456e-13   1.0122458427020122e-13   1.0974554598419949e-13   6.3911838784256469e-14   7.0073576570926226e-14   4.4122113370312549e-14   4.8896072376200842e-14   3.2760831084981492e-14   3.6637359812631094e-14   2.5886700190843892e-14   2.9152606254949638e-14   2.1640097121652558e-14   2.4471165834446776e-14   1.9040324872321917e-14   2.1529074819190036e-14   1.9798977272482455e-14   2.7032299701590418e-03   1.8010798330072661e-05   1.5678454541525636e-05   1.5195216490626993e-07   1.4273703507113868e-07   3.0956282722391228e-09   3.0653092101633508e-09   1.6647260422016973e-10   1.7127659475887412e-10   1.9041601628800235e-11   2.0155423626396916e-11   3.8125983851482694e-12   4.1218787642332296e-12   1.1479983630380566e-12   1.2612966227010566e-12   4.6405472057625003e-13   5.1662378079225260e-13   2.3196259727835520e-13   2.6128173698699865e-13   1.3528067555057878e-13   1.5408970395943711e-13   8.8475523204088676e-14   1.0188146622643778e-13   6.3153186384095928e-14   7.3487512371648684e-14   4.8294701571195528e-14   5.6732396558346932e-14   3.9089102325345029e-14   4.6259292692716019e-14   3.3158661002138844e-14   3.9477680383963853e-14   2.9309887850104877e-14   3.4999780851308943e-14   2.6858145337390932e-14   3.2066941694590750e-14   2.5414855405378181e-14   3.0244325562497738e-14   2.9272880415950701e-14   9.9460509791114915e-08   2.7715465848270299e-09   2.8478916817380436e-09   1.8209547758552454e-10   1.9697083778839924e-10   2.3583773822722407e-11   2.6527104587023310e-11   5.1189423070734938e-12   5.9228918066387434e-12   1.6307788452963180e-12   1.9254782953245347e-12   6.8851406057984681e-13   8.2528428535513092e-13   3.5720500631461464e-13   4.3339406137951788e-13   2.1566082253344211e-13   2.6442736889010332e-13   1.4576303127474818e-13   1.8043899707720811e-13   1.0732155904710118e-13   1.3399466721372122e-13   8.4386201730052577e-14   1.0617432858832180e-13   6.9888539400155384e-14   8.8457019487011581e-14   6.0322117671301703e-14   7.6707159143061714e-14   5.3855068552859996e-14   6.8658042214529139e-14   4.9432680171436332e-14   6.3069919657249042e-14   4.6472085439102522e-14   5.9230398363753591e-14   4.4593958155778253e-14   5.6667633548577127e-14   4.3604009292154121e-14   5.5131825031178964e-14   5.44749430