<?xml version="1.0"?>
<VTKFile type="UnstructuredGrid"  version="0.1"  >
<UnstructuredGrid>
<Piece  NumberOfPoints="629" NumberOfCells="1162">
<Points>
<DataArray  type="Float64"  NumberOfComponents="3"  format="ascii">0.7104347826086956 0 0  0.7269565217391304 0 0  0.7269565217391304 0.01666666666666667 0  0.7104347826086956 0.01666666666666667 0  0.7434782608695653 0 0  0.7434782608695653 0.01666666666666667 0  0.7599999999999999 0 0  0.7599999999999999 0.01666666666666667 0  0.7765217391304348 0 0  0.7765217391304348 0.01666666666666667 0  0.7930434782608695 0 0  0.7930434782608695 0.01666666666666667 0  0.8095652173913043 0 0  0.8095652173913043 0.01666666666666667 0  0.8260869565217391 0 0  0.8260869565217391 0.01666666666666667 0  0.8426086956521739 0 0  0.8426086956521739 0.01666666666666667 0  0.8591304347826086 0 0  0.8591304347826086 0.01666666666666667 0  0.8756521739130434 0 0  0.8756521739130434 0.01666666666666667 0  0.8921739130434783 0 0  0.8921739130434783 0.01666666666666667 0  0.908695652173913 0 0  0.908695652173913 0.01666666666666667 0  0.9252173913043478 0 0  0.9252173913043478 0.01666666666666667 0  0.9417391304347826 0 0  0.9417391304347826 0.01666666666666667 0  0.9582608695652173 0 0  0.9582608695652173 0.01666666666666667 0  0.9747826086956521 0 0  0.9747826086956521 0.01666666666666667 0  0.991304347826087 0 0  0.991304347826087 0.01666666666666667 0  1.007826086956522 0 0  1.007826086956522 0.01666666666666667 0  1.024347826086957 0 0  1.024347826086957 0.01666666666666667 0  0.7269565217391304 0.03333333333333333 0  0.7104347826086956 0.03333333333333333 0  0.7434782608695653 0.03333333333333333 0  0.7599999999999999 0.03333333333333333 0  0.7765217391304348 0.03333333333333333 0  0.7930434782608695 0.03333333333333333 0  0.8095652173913043 0.03333333333333333 0  0.8260869565217391 0.03333333333333333 0  0.8426086956521739 0.03333333333333333 0  0.8591304347826086 0.03333333333333333 0  0.8756521739130434 0.03333333333333333 0  0.8921739130434783 0.03333333333333333 0  0.908695652173913 0.03333333333333333 0  0.9252173913043478 0.03333333333333333 0  0.9417391304347826 0.03333333333333333 0  0.9582608695652173 0.03333333333333333 0  0.9747826086956521 0.03333333333333333 0  0.991304347826087 0.03333333333333333 0  1.007826086956522 0.03333333333333333 0  1.024347826086957 0.03333333333333333 0  1.040869565217391 0.03333333333333333 0  0.7269565217391304 0.05 0  0.7434782608695653 0.05 0  0.7599999999999999 0.05 0  0.7765217391304348 0.05 0  0.7930434782608695 0.05 0  0.8095652173913043 0.05 0  0.8260869565217391 0.05 0  0.8426086956521739 0.05 0  0.8591304347826086 0.05 0  0.8756521739130434 0.05 0  0.8921739130434783 0.05 0  0.908695652173913 0.05 0  0.9252173913043478 0.05 0  0.9417391304347826 0.05 0  0.9582608695652173 0.05 0  0.9747826086956521 0.05 0  0.991304347826087 0.05 0  1.007826086956522 0.05 0  1.024347826086957 0.05 0  1.040869565217391 0.05 0  1.057391304347826 0.05 0  0.7434782608695653 0.06666666666666667 0  0.7599999999999999 0.06666666666666667 0  0.7765217391304348 0.06666666666666667 0  0.7930434782608695 0.06666666666666667 0  0.8095652173913043 0.06666666666666667 0  0.8260869565217391 0.06666666666666667 0  0.8426086956521739 0.06666666666666667 0  0.8591304347826086 0.06666666666666667 0  0.8756521739130434 0.06666666666666667 0  0.8921739130434783 0.06666666666666667 0  0.908695652173913 0.06666666666666667 0  0.9252173913043478 0.06666666666666667 0  0.9417391304347826 0.06666666666666667 0  0.9582608695652173 0.06666666666666667 0  0.9747826086956521 0.06666666666666667 0  0.991304347826087 0.06666666666666667 0  1.007826086956522 0.06666666666666667 0  1.024347826086957 0.06666666666666667 0  1.040869565217391 0.06666666666666667 0  1.057391304347826 0.06666666666666667 0  1.073913043478261 0.06666666666666667 0  0.7599999999999999 0.08333333333333333 0  0.7765217391304348 0.08333333333333333 0  0.7930434782608695 0.08333333333333333 0  0.8095652173913043 0.08333333333333333 0  0.8260869565217391 0.08333333333333333 0  0.8426086956521739 0.08333333333333333 0  0.8591304347826086 0.08333333333333333 0  0.8756521739130434 0.08333333333333333 0  0.8921739130434783 0.08333333333333333 0  0.908695652173913 0.08333333333333333 0  0.9252173913043478 0.08333333333333333 0  0.9417391304347826 0.08333333333333333 0  0.9582608695652173 0.08333333333333333 0  0.9747826086956521 0.08333333333333333 0  0.991304347826087 0.08333333333333333 0  1.007826086956522 0.08333333333333333 0  1.024347826086957 0.08333333333333333 0  1.040869565217391 0.08333333333333333 0  1.057391304347826 0.08333333333333333 0  1.073913043478261 0.08333333333333333 0  1.090434782608696 0.08333333333333333 0  0.7765217391304348 0.1 0  0.7930434782608695 0.1 0  0.8095652173913043 0.1 0  0.8260869565217391 0.1 0  0.8426086956521739 0.1 0  0.8591304347826086 0.1 0  0.8756521739130434 0.1 0  0.8921739130434783 0.1 0  0.908695652173913 0.1 0  0.9252173913043478 0.1 0  0.9417391304347826 0.1 0  0.9582608695652173 0.1 0  0.9747826086956521 0.1 0  0.991304347826087 0.1 0  1.007826086956522 0.1 0  1.024347826086957 0.1 0  1.040869565217391 0.1 0  1.057391304347826 0.1 0  1.073913043478261 0.1 0  1.090434782608696 0.1 0  1.10695652173913 0.1 0  0.7930434782608695 0.1166666666666667 0  0.8095652173913043 0.1166666666666667 0  0.8260869565217391 0.1166666666666667 0  0.8426086956521739 0.1166666666666667 0  0.8591304347826086 0.1166666666666667 0  0.8756521739130434 0.1166666666666667 0  0.8921739130434783 0.1166666666666667 0  0.908695652173913 0.1166666666666667 0  0.9252173913043478 0.1166666666666667 0  0.9417391304347826 0.1166666666666667 0  0.9582608695652173 0.1166666666666667 0  0.9747826086956521 0.1166666666666667 0  0.991304347826087 0.1166666666666667 0  1.007826086956522 0.1166666666666667 0  1.024347826086957 0.1166666666666667 0  1.040869565217391 0.1166666666666667 0  1.057391304347826 0.1166666666666667 0  1.073913043478261 0.1166666666666667 0  1.090434782608696 0.1166666666666667 0  1.10695652173913 0.1166666666666667 0  1.123478260869565 0.1166666666666667 0  0.8095652173913043 0.1333333333333333 0  0.8260869565217391 0.1333333333333333 0  0.8426086956521739 0.1333333333333333 0  0.8591304347826086 0.1333333333333333 0  0.8756521739130434 0.1333333333333333 0  0.8921739130434783 0.1333333333333333 0  0.908695652173913 0.1333333333333333 0  0.9252173913043478 0.1333333333333333 0  0.9417391304347826 0.1333333333333333 0  0.9582608695652173 0.1333333333333333 0  0.9747826086956521 0.1333333333333333 0  0.991304347826087 0.1333333333333333 0  1.007826086956522 0.1333333333333333 0  1.024347826086957 0.1333333333333333 0  1.040869565217391 0.1333333333333333 0  1.057391304347826 0.1333333333333333 0  1.073913043478261 0.1333333333333333 0  1.090434782608696 0.1333333333333333 0  1.10695652173913 0.1333333333333333 0  1.123478260869565 0.1333333333333333 0  1.14 0.1333333333333333 0  0.8260869565217391 0.15 0  0.8426086956521739 0.15 0  0.8591304347826086 0.15 0  0.8756521739130434 0.15 0  0.8921739130434783 0.15 0  0.908695652173913 0.15 0  0.9252173913043478 0.15 0  0.9417391304347826 0.15 0  0.9582608695652173 0.15 0  0.9747826086956521 0.15 0  0.991304347826087 0.15 0  1.007826086956522 0.15 0  1.024347826086957 0.15 0  1.040869565217391 0.15 0  1.057391304347826 0.15 0  1.073913043478261 0.15 0  1.090434782608696 0.15 0  1.10695652173913 0.15 0  1.123478260869565 0.15 0  1.14 0.15 0  1.156521739130435 0.15 0  0.8426086956521739 0.1666666666666667 0  0.8591304347826086 0.1666666666666667 0  0.8756521739130434 0.1666666666666667 0  0.8921739130434783 0.1666666666666667 0  0.908695652173913 0.1666666666666667 0  0.9252173913043478 0.1666666666666667 0  0.9417391304347826 0.1666666666666667 0  0.9582608695652173 0.1666666666666667 0  0.9747826086956521 0.1666666666666667 0  0.991304347826087 0.1666666666666667 0  1.007826086956522 0.1666666666666667 0  1.024347826086957 0.1666666666666667 0  1.040869565217391 0.1666666666666667 0  1.057391304347826 0.1666666666666667 0  1.073913043478261 0.1666666666666667 0  1.090434782608696 0.1666666666666667 0  1.10695652173913 0.1666666666666667 0  1.123478260869565 0.1666666666666667 0  1.14 0.1666666666666667 0  1.156521739130435 0.1666666666666667 0  1.17304347826087 0.1666666666666667 0  0.8591304347826086 0.1833333333333333 0  0.8756521739130434 0.1833333333333333 0  0.8921739130434783 0.1833333333333333 0  0.908695652173913 0.1833333333333333 0  0.9252173913043478 0.1833333333333333 0  0.9417391304347826 0.1833333333333333 0  0.9582608695652173 0.1833333333333333 0  0.9747826086956521 0.1833333333333333 0  0.991304347826087 0.1833333333333333 0  1.007826086956522 0.1833333333333333 0  1.024347826086957 0.1833333333333333 0  1.040869565217391 0.1833333333333333 0  1.057391304347826 0.1833333333333333 0  1.073913043478261 0.1833333333333333 0  1.090434782608696 0.1833333333333333 0  1.10695652173913 0.1833333333333333 0  1.123478260869565 0.1833333333333333 0  1.14 0.1833333333333333 0  1.156521739130435 0.1833333333333333 0  1.17304347826087 0.1833333333333333 0  1.189565217391304 0.1833333333333333 0  0.8756521739130434 0.2 0  0.8921739130434783 0.2 0  0.908695652173913 0.2 0  0.9252173913043478 0.2 0  0.9417391304347826 0.2 0  0.9582608695652173 0.2 0  0.9747826086956521 0.2 0  0.991304347826087 0.2 0  1.007826086956522 0.2 0  1.024347826086957 0.2 0  1.040869565217391 0.2 0  1.057391304347826 0.2 0  1.073913043478261 0.2 0  1.090434782608696 0.2 0  1.10695652173913 0.2 0  1.123478260869565 0.2 0  1.14 0.2 0  1.156521739130435 0.2 0  1.17304347826087 0.2 0  1.189565217391304 0.2 0  1.206086956521739 0.2 0  0.8921739130434783 0.2166666666666667 0  0.908695652173913 0.2166666666666667 0  0.9252173913043478 0.2166666666666667 0  0.9417391304347826 0.2166666666666667 0  0.9582608695652173 0.2166666666666667 0  0.9747826086956521 0.2166666666666667 0  0.991304347826087 0.2166666666666667 0  1.007826086956522 0.2166666666666667 0  1.02434782608
[...]
<PointData  Vectors="Displacement"> 
<DataArray  type="Float64"  Name="Displacement"  NumberOfComponents="3" format="ascii">9.5487965743501529e-05 5.2346164974560543e-04 0.0000000000000000e+00  9.7412616826776270e-05 5.3575607447869944e-04 0.0000000000000000e+00  8.5039659029219499e-05 5.3510566676216319e-04 0.0000000000000000e+00  8.3053228701046415e-05 5.2281118521688966e-04 0.0000000000000000e+00  9.9337972688566507e-05 5.4799027365639923e-04 0.0000000000000000e+00  8.7024194202762811e-05 5.4733985966230780e-04 0.0000000000000000e+00  1.0126402717391372e-04 5.6016752696548078e-04 0.0000000000000000e+00  8.9007083624681991e-05 5.5951703643960160e-04 0.0000000000000000e+00  1.0319042922904417e-04 5.7228999520601083e-04 0.0000000000000000e+00  9.0988931550285861e-05 5.7163948185499696e-04 0.0000000000000000e+00  1.0511674555709259e-04 5.8435824673099836e-04 0.0000000000000000e+00  9.2970343037228912e-05 5.8370790152422098e-04 0.0000000000000000e+00  1.0704282013901956e-04 5.9637180244506499e-04 0.0000000000000000e+00  9.4951417449857281e-05 5.9572170104676481e-04 0.0000000000000000e+00  1.0896882377441394e-04 6.0833074068849516e-04 0.0000000000000000e+00  9.6931809393493103e-05 6.0768076008922451e-04 0.0000000000000000e+00  1.1089492184679672e-04 6.2023624644837985e-04 0.0000000000000000e+00  9.8911321786250778e-05 6.1958624620436222e-04 0.0000000000000000e+00  1.1282103085248636e-04 6.3208960869618738e-04 0.0000000000000000e+00  1.0089019636410377e-04 6.3143955241122367e-04 0.0000000000000000e+00  1.1474689993758111e-04 6.4389127098623254e-04 0.0000000000000000e+00  1.0286888632805294e-04 6.4324115129225229e-04 0.0000000000000000e+00  1.1667227043083376e-04 6.5564084860292087e-04 0.0000000000000000e+00  1.0484782872966427e-04 6.5499058511183229e-04 0.0000000000000000e+00  1.1859681869728397e-04 6.6733732025263685e-04 0.0000000000000000e+00  1.0682755205948232e-04 6.6668688931687643e-04 0.0000000000000000e+00  1.2052009228271781e-04 6.7897841628535775e-04 0.0000000000000000e+00  1.0880869387999074e-04 6.7832804635003857e-04 0.0000000000000000e+00  1.2244181414007371e-04 6.9056030040663924e-04 0.0000000000000000e+00  1.1079145420844682e-04 6.8991033993370679e-04 0.0000000000000000e+00  1.2436229888826964e-04 7.0207919573821978e-04 0.0000000000000000e+00  1.1277505993231244e-04 7.0142976457121130e-04 0.0000000000000000e+00  1.2628237327871314e-04 7.1353387106169155e-04 0.0000000000000000e+00  1.1475812046199632e-04 7.1288475512278407e-04 0.0000000000000000e+00  1.2820278806192399e-04 7.2492625686142956e-04 0.0000000000000000e+00  1.1673963526307944e-04 7.2427713976949443e-04 0.0000000000000000e+00  1.3012372657125702e-04 7.3625957763204589e-04 0.0000000000000000e+00  1.1871960979868404e-04 7.3561029065882431e-04 0.0000000000000000e+00  1.3204481626277886e-04 7.4753598783442528e-04 0.0000000000000000e+00  1.2069881222758456e-04 7.4688655721810954e-04 0.0000000000000000e+00  7.2670407679055601e-05 5.3443586951219216e-04 0.0000000000000000e+00  7.0620135088272191e-05 5.2214079054063744e-04 0.0000000000000000e+00  7.4713686563583696e-05 5.4667080040751465e-04 0.0000000000000000e+00  7.6752206288651457e-05 5.5884855247630659e-04 0.0000000000000000e+00  7.8787672036209427e-05 5.7097103921695703e-04 0.0000000000000000e+00  8.0823182719481264e-05 5.8303940043479658e-04 0.0000000000000000e+00  8.2860041531146350e-05 5.9505361699295012e-04 0.0000000000000000e+00  8.4895915771421795e-05 6.0701333028020943e-04 0.0000000000000000e+00  8.6928663781912470e-05 6.1891917732998848e-04 0.0000000000000000e+00  8.8959123737157863e-05 6.3077246179868776e-04 0.0000000000000000e+00  9.0989451150204969e-05 6.4257385409148353e-04 0.0000000000000000e+00  9.3020893407481987e-05 6.5432289112536061e-04 0.0000000000000000e+00  9.5054139015731721e-05 6.6601826471727815e-04 0.0000000000000000e+00  9.7091622111108474e-05 6.7765808669644715e-04 0.0000000000000000e+00  9.9136165172860829e-05 6.8923955662488043e-04 0.0000000000000000e+00  1.0118632502893889e-04 7.0075933730244543e-04 0.0000000000000000e+00  1.0323597876179833e-04 7.1221547322402527e-04 0.0000000000000000e+00  1.0527970883969729e-04 7.2360885937243784e-04 0.0000000000000000e+00  1.0731716077680776e-04 7.3494233461529981e-04 0.0000000000000000e+00  1.0935194261610604e-04 7.4621832902569405e-04 0.0000000000000000e+00  1.1138799111087014e-04 7.5743738592067348e-04 0.0000000000000000e+00  6.3505660747209072e-05 5.2728520155383943e-04 0.0000000000000000e+00  6.5949324852236096e-05 5.3943148884418892e-04 0.0000000000000000e+00  6.8386687331397695e-05 5.5155674386354414e-04 0.0000000000000000e+00  7.0814326124685542e-05 5.6366066098446606e-04 0.0000000000000000e+00  7.3229339647891978e-05 5.7574195108503804e-04 0.0000000000000000e+00  7.5628931532823523e-05 5.8779895224295880e-04 0.0000000000000000e+00  7.8010049071321259e-05 5.9982977815219965e-04 0.0000000000000000e+00  8.0369963842734509e-05 6.1183220276294433e-04 0.0000000000000000e+00  8.2707136371945142e-05 6.2380386461674336e-04 0.0000000000000000e+00  8.5021240558102394e-05 6.3574240893811982e-04 0.0000000000000000e+00  8.7312570228839509e-05 6.4764526422357496e-04 0.0000000000000000e+00  8.9581666933500568e-05 6.5950933589795102e-04 0.0000000000000000e+00  9.1829261930456170e-05 6.7133098824472860e-04 0.0000000000000000e+00  9.4055834195398610e-05 6.8310663266822884e-04 0.0000000000000000e+00  9.6260696800429913e-05 6.9483340519329098e-04 0.0000000000000000e+00  9.8441822926669694e-05 7.0650933553047007e-04 0.0000000000000000e+00  1.0059708906243698e-04 7.1813317603148434e-04 0.0000000000000000e+00  1.0272577197632468e-04 7.2970419264856276e-04 0.0000000000000000e+00  1.0482883637356888e-04 7.4122179617829226e-04 0.0000000000000000e+00  1.0690804411750637e-04 7.5268497409622240e-04 0.0000000000000000e+00  1.0896498012809637e-04 7.6409186307228340e-04 0.0000000000000000e+00  5.7343649948726508e-05 5.3195250655011818e-04 0.0000000000000000e+00  6.0116549774492145e-05 5.4402703399920622e-04 0.0000000000000000e+00  6.2876303541426056e-05 5.5611768595126851e-04 0.0000000000000000e+00  6.5615597442404604e-05 5.6822057003695387e-04 0.0000000000000000e+00  6.8327995171132822e-05 5.8033130444333275e-04 0.0000000000000000e+00  7.1007963545843922e-05 5.9244513470499893e-04 0.0000000000000000e+00  7.3651027782827285e-05 6.0455684823446402e-04 0.0000000000000000e+00  7.6253929183309278e-05 6.1666096729787688e-04 0.0000000000000000e+00  7.8814632602919736e-05 6.2875209115354435e-04 0.0000000000000000e+00  8.1332115824646721e-05 6.4082499124237281e-04 0.0000000000000000e+00  8.3806023334809024e-05 6.5287449044732805e-04 0.0000000000000000e+00  8.6236284023575444e-05 6.6489547366018072e-04 0.0000000000000000e+00  8.8622733069209657e-05 6.7688327561509019e-04 0.0000000000000000e+00  9.0964851952223834e-05 6.8883407051898294e-04 0.0000000000000000e+00  9.3261789072622632e-05 7.0074477984779452e-04 0.0000000000000000e+00  9.5512690101395506e-05 7.1261268123964483e-04 0.0000000000000000e+00  9.7717124221425518e-05 7.2443517443457816e-04 0.0000000000000000e+00  9.9875297797990547e-05 7.3620970124192004e-04 0.0000000000000000e+00  1.0198793510822350e-04 7.4793354638839329e-04 0.0000000000000000e+00  1.0405598749946219e-04 7.5960349979617686e-04 0.0000000000000000e+00  1.0608040713582225e-04 7.7121551166259576e-04 0.0000000000000000e+00  5.1946374101836200e-05 5.3628565819445917e-04 0.0000000000000000e+00  5.4985256011218135e-05 5.4836708384379249e-04 0.0000000000000000e+00  5.7999015123182381e-05 5.6049838959777634e-04 0.0000000000000000e+00  6.0977810317970095e-05 5.7267196691622175e-04 0.0000000000000000e+00  6.3913323679858845e-05 5.8487963867734295e-04 0.0000000000000000e+00  6.6798876253049131e-05 5.9711275070396537e-04 0.0000000000000000e+00  6.9629431600787628e-05 6.0936248088485506e-04 0.0000000000000000e+00  7.2401482022141670e-05 6.2162024961868469e-04 0.0000000000000000e+00  7.5112822019936395e-05 6.3387798200586077e-04 0.0000000000000000e+00  7.7762206844581223e-05 6.4612818348793583e-04 0.0000000000000000e+00  8.0348946750723470e-05 6.5836399904275794e-04 0.0000000000000000e+00  8.2872546121225799e-05 6.7057938400154815e-04 0.0000000000000000e+00  8.5332503624325893e-05 6.8276920660474379e-04 0.0000000000000000e+00  8.7728292386849850e-05 6.9492905599170601e-04 0.0000000000000000e+00  9.0059441630214630e-05 7.0705487106266876e-04 0.0000000000000000e+00  9.2325642619229498e-05 7.1914267065832150e-04 0.0000000000000000e+00  9.4526835015795382e-05 7.3118842905294629e-04 0.0000000000000000e+00  9.6663234544443362e-05 7.4318793704239948e-04 0.0000000000000000e+00  9.8735283929236495e-05 7.5513657838778287e-04 0.0000000000000000e+00  1.0074355039240142e-04 7.6702910276053133e-04 0.0000000000000000e+00  1.0268859415566445e-04 7.7885959997925044e-04 0.0000000000000000e+00  4.7145253583474230e-05 5.4042874047652702e-04 0.0000000000000000e+00  5.0388914070394631e-05 5.5259451090951370e-04 0.0000000000000000e+00  5.3591990132828682e-05 5.6483927039171935e-04 0.0000000000000000e+00  5.6743300614349550e-05 5.7715100308149971e-04 0.0000000000000000e+00  5.9833830653379713e-05 5.8951713922831747e-04 0.0000000000000000e+00  6.2856726287025160e-05 6.0192508085290272e-04 0.0000000000000000e+00  6.5807105128398664e-05 6.1436276021931179e-04 0.0000000000000000e+00  6.8681737394596029e-05 6.2681903830230634e-04 0.0000000000000000e+00  7.1478637194603514e-05 6.3928390104580300e-04 0.0000000000000000e+00  7.4196621837652286e-05 6.5174852810536809e-04 0.0000000000000000e+00  7.6834930574636869e-05 6.6420530129044156e-04 0.0000000000000000e+00  7.9392983607807103e-05 6.7664769553013235e-04 0.0000000000000000e+00  8.1870283172787194e-05 6.8906998890341353e-04 0.0000000000000000e+00  8.4266393837227082e-05 7.0146688319549816e-04 0.0000000000000000e+00  8.6580954647341675e-05 7.1383319286688466e-04 0.0000000000000000e+00  8.8813714790014780e-05 7.2616364206859484e-04 0.0000000000000000e+00  9.0964581300016726e-05 7.3845269804075553e-04 0.0000000000000000e+00  9.3033649323125652e-05 7.5069439662255836e-04 0.0000000000000000e+00  9.5021195710433181e-05 7.6288220192775923e-04 0.0000000000000000e+00  9.6927646326629575e-05 7.7500901708269464e-04 0.0000000000000000e+00  9.8753570124965245e-05 7.8706744254575722e-04 0.0000000000000000e+00  4.2788064699244176e-05 5.4452400096398519e-04 0.0000000000000000e+00  4.6177747180346364e-05 5.5684818468572090e-04 0.0000000000000000e+00  4.9508924320522507e-05 5.6927417429522445e-04 0.0000000000000000e+00  5.2770182130380613e-05 5.8178492461714642e-04 0.0000000000000000e+00  5.5952875028075486e-05 5.9436351861583733e-04 0.0000000000000000e+00  5.9050862464834162e-05 6.0699397830481293e-04 0.0000000000000000e+00  6.2060067152953078e-05 6.1966181802495244e-04 0.0000000000000000e+00  6.4977948088396092e-05 6.3235431650782734e-04 0.0000000000000000e+00  6.7802974102502774e-05 6.4506055278596623e-04 0.0000000000000000e+00  7.0534182573100395e-05 6.5777126628297107e-04 0.0000000000000000e+00  7.3170880142552541e-05 6.7047856570191745e-04 0.0000000000000000e+00  7.5712482782176185e-05 6.8317551784291563e-04 0.0000000000000000e+00  7.8158449385301153e-05 6.9585570596308812e-04 0.0000000000000000e+00  8.0508269653671878e-05 7.0851285604345933e-04 0.0000000000000000e+00  8.2761491756946188e-05 7.2114055983069233e-04 0.0000000000000000e+00  8.4917778332363011e-05 7.3373206369378350e-04 0.0000000000000000e+00  8.6976969546619369e-05 7.4628010000560101e-04 0.0000000000000000e+00  8.8939136241590489e-05 7.5877678072982309e-04 0.0000000000000000e+00  9.0804628688292445e-05 7.7121360940476773e-04 0.0000000000000000e+00  9.2574156407729472e-05 7.8358164732101568e-04 0.0000000000000000e+00  9.4248943049241707e-05 7.9587176717533484e-04 0.0000000000000000e+00  3.8736518834411303e-05 5.4871018569010088e-04 0.0000000000000000e+00  4.2215620815854096e-05 5.6126120231677625e-04 0.0000000000000000e+00  4.5616757597540940e-05 5.7392867802237796e-04 0.0000000000000000e+00  4.8929554146066130e-05 5.8669068046231405e-04 0.0000000000000000e+00  5.2146784563022586e-05 5.9952679693451899e-04 0.0000000000000000e+00  5.5263754048493082e-05 6.1241886595319488e-04 0.0000000000000000e+00  5.8277598360116241e-05 6.2535129589671990e-04 0.0000000000000000e+00  6.1186620584143881e-05 6.3831102162799683e-04 0.0000000000000000e+00  6.3989757744874849e-05 6.5128718813248123e-04 0.0000000000000000e+00  6.6686222449891154e-05 6.6427065803615173e-04 0.0000000000000000e+00  6.9275308022559204e-05 6.7725344163001842e-04 0.0000000000000000e+00  7.1756310851086485e-05 6.9022814852543043e-04 0.0000000000000000e+00  7.4128525440972273e-05 7.0318753181852420e-04 0.0000000000000000e+00  7.6391285294337844e-05 7.1612414220110761e-04 0.0000000000000000e+00  7.8544032304203893e-05 7.2903007264813651e-04 0.0000000000000000e+00  8.0586399475926653e-05 7.4189677565781741e-04 0.0000000000000000e+00  8.2518298889826326e-05 7.5471495691719292e-04 0.0000000000000000e+00  8.4340022276750942e-05 7.6747456726805488e-04 0.0000000000000000e+00  8.6052377778832748e-05 7.8016490354156792e-04 0.0000000000000000e+00  8.7656885379079489e-05 7.9277478556389019e-04 0.0000000000000000e+00  8.9156019350940336e-05 8.0529276857405616e-04 0.0000000000000000e+00  3.4863757624996893e-05 5.5312114503237452e-04 0.0000000000000000e+00  3.8377493471146929e-05 5.6595861932374678e-04 0.0000000000000000e+00  4.1793653759010833e-05 5.7891764482168745e-04 0.0000000000000000e+00  4.5104179660659417e-05 5.9197273064562740e-04 0.0000000000000000e+00  4.8304074203651480e-05 6.0510167949265380e-04 0.0000000000000000e+00  5.1390452539162631e-05 6.1828591545868238e-04 0.0000000000000000e+00  5.4361686627200935e-05 6.3151029356539373e-04 0.0000000000000000e+00  5.7216754622629286e-05 6.4476253669999109e-04 0.0000000000000000e+00  5.9954831601066155e-05 6.5803248156309454e-04 0.0000000000000000e+00  6.2575089980554261e-05 6.7131129893529065e-04 0.0000000000000000e+00  6.5076644218366829e-05 6.8459080319428355e-04 0.0000000000000000e+00  6.7458578125803703e-05 6.9786290375129076e-04 0.0000000000000000e+00  6.9720013556179132e-05 7.1111919830719680e-04 0.0000000000000000e+00  7.1860197162726866e-05 7.2435068146568544e-04 0.0000000000000000e+00  7.3878594493910073e-05 7.3754754325151904e-04 0.0000000000000000e+00  7.5774992784561642e-05 7.5069904683392320e-04 0.0000000000000000e+00  7.7549626733995646e-05 7.6379348792865551e-04 0.0000000000000000e+00  7.9203350127383474e-05 7.7681823823544458e-04 0.0000000000000000e+00  8.0737870550801961e-05 7.8975986421023334e-04 0.0000000000000000e+00  8.2156034038689243e-05 8.0260432916070027e-04 0.0000000000000000e+00  8.3462104696501788e-05 8.1533732303064213e-04 0.0000000000000000e+00  3.1052036275530838e-05 5.5788262202836783e-04 0.0000000000000000e+00  3.4547899897154447e-05 5.7105376947668015e-04 0.0000000000000000e+00  3.7928256953181043e-05 5.8434203347494077e-04 0.0000000000000000e+00  4.1188249575233492e-05 5.9772080970202758e-04 0.0000000000000000e+00  4.4325374764794725e-05 6.1116851353787546e-04 0.0000000000000000e+00  4.7338371199969464e-05 6.2466813273669652e-04 0.0000000000000000e+00  5.0226432783287387e-05 6.3820629490073414e-04 0.0000000000000000e+00  5.2988770116914617e-05 6.5177215099940418e-04 0.0000000000000000e+00  5.5624448051844719e-05 6.6535632244224703e-04 0.0000000000000000e+00  5.8132393616700938e-05 6.7895004228366940e-04 0.0000000000000000e+00  6.0511484010892899e-05 6.9254451695532503e-04 0.0000000000000000e+00  6.2760657141715828e-05 7.0613047716004706e-04 0.0000000000000000e+00  6.4879016447711235e-05 7.1969786892624123e-04 0.0000000000000000e+00  6.6865924170817298e-05 7.3323564164746329e-04 0.0000000000000000e+00  6.8721095613393703e-05 7.4673160603513109e-04 0.0000000000000000e+00  7.0444721827602795e-05 7.6017235094600071e-04 0.0000000000000000e+00  7.2037655224515895e-05 7.7354321977907668e-04 0.0000000000000000e+00  7.3501686212020868e-05 7.8682835555159830e-04 0.0000000000000000e+00  7.4839903321709147e-05 8.0001086743034661e-04 0.0000000000000000e+00  7.6057075562429801e-05 8.1307321053529253e-04 0.0000000000000000e+00  7.7159948050004018e-05 8.2599787083026247e-04 0.0000000000000000e+00  2.7191545141713635e-05 5.6310683152531265e-04 0.0000000000000000e+00  3.0620806744615510e-05 5.7664387250620558e-04 0.0000000000000000e+00  3.3920109808536281e-05 5.9028600839318944e-04 0.0000000000000000e+00  3.7087871502868894e-05 6.0400877834578903e-04 0.0000000000000000e+00  4.0123567553098406e-05 6.1779373526426153e-04 0.0000000000000000e+00  4.3026802637480999e-05 6.3162694659688067e-04 0.0000000000000000e+00  4.5796888425528843e-05 6.4549736683138783e-04 0.0000000000000000e+00  4.8432782574008010e-05 6.5939543874211069e-04 0.0000000000000000e+00  5.0933215553828884e-05 6.7331205596052616e-04 0.0000000000000000e+00  5.3296875382201052e-05 6.8723785960284848e-04 0.0000000000000000e+00  5.5522575992213955e-05 7.0116278394613540e-04 0.0000000000000000e+00  5.7609377779445771e-05 7.1507576469053726e-04 0.0000000000000000e+00  5.9556660610546081e-05 7.2896453945286348e-04 0.0000000000000000e+00  6.1364175849413770e-05 7.4281549247626319e-04 0.0000000000000000e+00  6.3032126284298057e-05 7.5661351788858700e-04 0.0000000000000000e+00  6.4561335601935382e-05 7.7034190032712060e-04 0.0000000000000000e+00  6.5953568214944847e-05 7.8398223351346759e-04 0.0000000000000000e+00  6.7212008434155209e-05 7.9751448854950297e-04 0.0000000000000000e+00  6.8341821837865233e-05 8.1091739970548234e-04 0.0000000000000000e+00  6.9350640633173956e-05 8.2416932406666611e-04 0.0000000000000000e+00  7.0248827683662733e-05 8.3724956723139953e-04 0.0000000000000000e+00  2.3180982083878638e-05 5.6888658600333776e-04 0.0000000000000000e+00  2.6500841575329807e-05 5.8280643620124716e-04 0.0000000000000000e+00  2.9680818265730093e-05 5.9681587065556782e-04 0.0000000000000000e+00  3.2721573046261248e-05 6.1089577484048211e-04 0.0000000000000000e+00  3.5623314612202312e-05 6.2503248017410813e-04 0.0000000000000000e+00  3.8385482035828638e-05 6.3921541760206453e-04 0.0000000000000000e+00  4.1006885437481276e-05 6.5343530146163794e-04 0.0000000000000000e+00  4.3486028205825550e-05 6.6768293461271215e-04 0.0000000000000000e+00  4.5821434195807815e-05 6.8194849821525446e-04 0.0000000000000000e+00  4.8011893443502237e-05 6.9622115667716876e-04 0.0000000000000000e+00  5.0056594574070279e-05 7.1048884126049335e-04 0.0000000000000000e+00  5.1955149961525145e-05 7.2473810648584092e-04 0.0000000000000000e+00  5.3707555132575121e-05 7.3895398249068894e-04 0.0000000000000000e+00  5.5314161840308359e-05 7.5311977365510483e-04 0.0000000000000000e+00  5.6775775402412842e-05 7.6721679190327053e-04 0.0000000000000000e+00  5.8094008537382765e-05 7.8122404160956786e-04 0.0000000000000000e+00  5.9271941128260612e-05 7.9511806684409432e-04 0.0000000000000000e+00  6.0314981968870162e-05 8.0887326043441502e-04 0.0000000000000000e+00  6.1231682199119200e-05 8.2246290143332755e-04 0.0000000000000000e+00  6.2034315487055150e-05 8.3586079259986487e-04 0.0000000000000000e+00  6.2738190916243624e-05 8.4904516372438375e-04 0.0000000000000000e+00  1.8929867008673119e-05 5.7529095081623174e-04 0.0000000000000000e+00  2.2105308103298038e-05 5.8959857934376414e-04 0.0000000000000000e+00  2.5134922017800922e-05 6.0398245211663686e-04 0.0000000000000000e+00  2.8019675272606326e-05 6.1843038958538815e-04 0.0000000000000000e+00  3.0759078349353862e-05 6.3293318975733541e-04 0.0000000000000000e+00  3.3351680017432792e-05 6.4748235068524181e-04 0.0000000000000000e+00  3.5795684752572880e-05 6.6206879992830863e-04 0.0000000000000000e+00  3.8089476484249843e-05 6.7668228473577690e-04 0.0000000000000000e+00  4.0231966265740078e-05 6.9131113510838553e-04 0.0000000000000000e+00  4.2222735818903587e-05 7.0594221136713493e-04 0.0000000000000000e+00  4.4061982701749548e-05 7.2056089079024742e-04 0.0000000000000000e+00  4.5750315951509537e-05 7.3515097585707219e-04 0.0000000000000000e+00  4.7288516857959093e-05 7.4969442710188909e-04 0.0000000000000000e+