<?xml version="1.0"?>
<VTKFile type="UnstructuredGrid"  version="0.1"  >
<UnstructuredGrid>
<Piece  NumberOfPoints="607" NumberOfCells="1112">
<Points>
<DataArray  type="Float64"  NumberOfComponents="3"  format="ascii">0.4130434782608696 0 0  0.4295652173913043 0 0  0.4295652173913043 0.01666666666666667 0  0.4460869565217391 0 0  0.4460869565217391 0.01666666666666667 0  0.4626086956521739 0 0  0.4626086956521739 0.01666666666666667 0  0.4791304347826086 0 0  0.4791304347826086 0.01666666666666667 0  0.4956521739130435 0 0  0.4956521739130435 0.01666666666666667 0  0.5121739130434783 0 0  0.5121739130434783 0.01666666666666667 0  0.528695652173913 0 0  0.528695652173913 0.01666666666666667 0  0.5452173913043478 0 0  0.5452173913043478 0.01666666666666667 0  0.5617391304347825 0 0  0.5617391304347825 0.01666666666666667 0  0.5782608695652174 0 0  0.5782608695652174 0.01666666666666667 0  0.5947826086956521 0 0  0.5947826086956521 0.01666666666666667 0  0.6113043478260869 0 0  0.6113043478260869 0.01666666666666667 0  0.6278260869565218 0 0  0.6278260869565218 0.01666666666666667 0  0.6443478260869565 0 0  0.6443478260869565 0.01666666666666667 0  0.6608695652173913 0 0  0.6608695652173913 0.01666666666666667 0  0.677391304347826 0 0  0.677391304347826 0.01666666666666667 0  0.6939130434782609 0 0  0.6939130434782609 0.01666666666666667 0  0.7104347826086956 0 0  0.7104347826086956 0.01666666666666667 0  0.4460869565217391 0.03333333333333333 0  0.4626086956521739 0.03333333333333333 0  0.4791304347826086 0.03333333333333333 0  0.4956521739130435 0.03333333333333333 0  0.5121739130434783 0.03333333333333333 0  0.528695652173913 0.03333333333333333 0  0.5452173913043478 0.03333333333333333 0  0.5617391304347825 0.03333333333333333 0  0.5782608695652174 0.03333333333333333 0  0.5947826086956521 0.03333333333333333 0  0.6113043478260869 0.03333333333333333 0  0.6278260869565218 0.03333333333333333 0  0.6443478260869565 0.03333333333333333 0  0.6608695652173913 0.03333333333333333 0  0.677391304347826 0.03333333333333333 0  0.6939130434782609 0.03333333333333333 0  0.7104347826086956 0.03333333333333333 0  0.4626086956521739 0.05 0  0.4791304347826086 0.05 0  0.4956521739130435 0.05 0  0.5121739130434783 0.05 0  0.528695652173913 0.05 0  0.5452173913043478 0.05 0  0.5617391304347825 0.05 0  0.5782608695652174 0.05 0  0.5947826086956521 0.05 0  0.6113043478260869 0.05 0  0.6278260869565218 0.05 0  0.6443478260869565 0.05 0  0.6608695652173913 0.05 0  0.677391304347826 0.05 0  0.6939130434782609 0.05 0  0.7104347826086956 0.05 0  0.7269565217391304 0.05 0  0.4791304347826086 0.06666666666666667 0  0.4956521739130435 0.06666666666666667 0  0.5121739130434783 0.06666666666666667 0  0.528695652173913 0.06666666666666667 0  0.5452173913043478 0.06666666666666667 0  0.5617391304347825 0.06666666666666667 0  0.5782608695652174 0.06666666666666667 0  0.5947826086956521 0.06666666666666667 0  0.6113043478260869 0.06666666666666667 0  0.6278260869565218 0.06666666666666667 0  0.6443478260869565 0.06666666666666667 0  0.6608695652173913 0.06666666666666667 0  0.677391304347826 0.06666666666666667 0  0.6939130434782609 0.06666666666666667 0  0.7104347826086956 0.06666666666666667 0  0.7269565217391304 0.06666666666666667 0  0.7434782608695653 0.06666666666666667 0  0.4956521739130435 0.08333333333333333 0  0.5121739130434783 0.08333333333333333 0  0.528695652173913 0.08333333333333333 0  0.5452173913043478 0.08333333333333333 0  0.5617391304347825 0.08333333333333333 0  0.5782608695652174 0.08333333333333333 0  0.5947826086956521 0.08333333333333333 0  0.6113043478260869 0.08333333333333333 0  0.6278260869565218 0.08333333333333333 0  0.6443478260869565 0.08333333333333333 0  0.6608695652173913 0.08333333333333333 0  0.677391304347826 0.08333333333333333 0  0.6939130434782609 0.08333333333333333 0  0.7104347826086956 0.08333333333333333 0  0.7269565217391304 0.08333333333333333 0  0.7434782608695653 0.08333333333333333 0  0.7599999999999999 0.08333333333333333 0  0.5121739130434783 0.1 0  0.528695652173913 0.1 0  0.5452173913043478 0.1 0  0.5617391304347825 0.1 0  0.5782608695652174 0.1 0  0.5947826086956521 0.1 0  0.6113043478260869 0.1 0  0.6278260869565218 0.1 0  0.6443478260869565 0.1 0  0.6608695652173913 0.1 0  0.677391304347826 0.1 0  0.6939130434782609 0.1 0  0.7104347826086956 0.1 0  0.7269565217391304 0.1 0  0.7434782608695653 0.1 0  0.7599999999999999 0.1 0  0.7765217391304348 0.1 0  0.528695652173913 0.1166666666666667 0  0.5452173913043478 0.1166666666666667 0  0.5617391304347825 0.1166666666666667 0  0.5782608695652174 0.1166666666666667 0  0.5947826086956521 0.1166666666666667 0  0.6113043478260869 0.1166666666666667 0  0.6278260869565218 0.1166666666666667 0  0.6443478260869565 0.1166666666666667 0  0.6608695652173913 0.1166666666666667 0  0.677391304347826 0.1166666666666667 0  0.6939130434782609 0.1166666666666667 0  0.7104347826086956 0.1166666666666667 0  0.7269565217391304 0.1166666666666667 0  0.7434782608695653 0.1166666666666667 0  0.7599999999999999 0.1166666666666667 0  0.7765217391304348 0.1166666666666667 0  0.7930434782608695 0.1166666666666667 0  0.5452173913043478 0.1333333333333333 0  0.5617391304347825 0.1333333333333333 0  0.5782608695652174 0.1333333333333333 0  0.5947826086956521 0.1333333333333333 0  0.6113043478260869 0.1333333333333333 0  0.6278260869565218 0.1333333333333333 0  0.6443478260869565 0.1333333333333333 0  0.6608695652173913 0.1333333333333333 0  0.677391304347826 0.1333333333333333 0  0.6939130434782609 0.1333333333333333 0  0.7104347826086956 0.1333333333333333 0  0.7269565217391304 0.1333333333333333 0  0.7434782608695653 0.1333333333333333 0  0.7599999999999999 0.1333333333333333 0  0.7765217391304348 0.1333333333333333 0  0.7930434782608695 0.1333333333333333 0  0.8095652173913043 0.1333333333333333 0  0.5617391304347825 0.15 0  0.5782608695652174 0.15 0  0.5947826086956521 0.15 0  0.6113043478260869 0.15 0  0.6278260869565218 0.15 0  0.6443478260869565 0.15 0  0.6608695652173913 0.15 0  0.677391304347826 0.15 0  0.6939130434782609 0.15 0  0.7104347826086956 0.15 0  0.7269565217391304 0.15 0  0.7434782608695653 0.15 0  0.7599999999999999 0.15 0  0.7765217391304348 0.15 0  0.7930434782608695 0.15 0  0.8095652173913043 0.15 0  0.8260869565217391 0.15 0  0.5782608695652174 0.1666666666666667 0  0.5947826086956521 0.1666666666666667 0  0.6113043478260869 0.1666666666666667 0  0.6278260869565218 0.1666666666666667 0  0.6443478260869565 0.1666666666666667 0  0.6608695652173913 0.1666666666666667 0  0.677391304347826 0.1666666666666667 0  0.6939130434782609 0.1666666666666667 0  0.7104347826086956 0.1666666666666667 0  0.7269565217391304 0.1666666666666667 0  0.7434782608695653 0.1666666666666667 0  0.7599999999999999 0.1666666666666667 0  0.7765217391304348 0.1666666666666667 0  0.7930434782608695 0.1666666666666667 0  0.8095652173913043 0.1666666666666667 0  0.8260869565217391 0.1666666666666667 0  0.8426086956521739 0.1666666666666667 0  0.5947826086956521 0.1833333333333333 0  0.5782608695652174 0.1833333333333333 0  0.6113043478260869 0.1833333333333333 0  0.6278260869565218 0.1833333333333333 0  0.6443478260869565 0.1833333333333333 0  0.6608695652173913 0.1833333333333333 0  0.677391304347826 0.1833333333333333 0  0.6939130434782609 0.1833333333333333 0  0.7104347826086956 0.1833333333333333 0  0.7269565217391304 0.1833333333333333 0  0.7434782608695653 0.1833333333333333 0  0.7599999999999999 0.1833333333333333 0  0.7765217391304348 0.1833333333333333 0  0.7930434782608695 0.1833333333333333 0  0.8095652173913043 0.1833333333333333 0  0.8260869565217391 0.1833333333333333 0  0.8426086956521739 0.1833333333333333 0  0.8591304347826086 0.1833333333333333 0  0.5947826086956521 0.2 0  0.5782608695652174 0.2 0  0.6113043478260869 0.2 0  0.6278260869565218 0.2 0  0.6443478260869565 0.2 0  0.6608695652173913 0.2 0  0.677391304347826 0.2 0  0.6939130434782609 0.2 0  0.7104347826086956 0.2 0  0.7269565217391304 0.2 0  0.7434782608695653 0.2 0  0.7599999999999999 0.2 0  0.7765217391304348 0.2 0  0.7930434782608695 0.2 0  0.8095652173913043 0.2 0  0.8260869565217391 0.2 0  0.8426086956521739 0.2 0  0.8591304347826086 0.2 0  0.8756521739130434 0.2 0  0.5947826086956521 0.2166666666666667 0  0.5782608695652174 0.2166666666666667 0  0.6113043478260869 0.2166666666666667 0  0.6278260869565218 0.2166666666666667 0  0.6443478260869565 0.2166666666666667 0  0.6608695652173913 0.2166666666666667 0  0.677391304347826 0.2166666666666667 0  0.6939130434782609 0.2166666666666667 0  0.7104347826086956 0.2166666666666667 0  0.7269565217391304 0.2166666666666667 0  0.7434782608695653 0.2166666666666667 0  0.7599999999999999 0.2166666666666667 0  0.7765217391304348 0.2166666666666667 0  0.7930434782608695 0.2166666666666667 0  0.8095652173913043 0.2166666666666667 0  0.8260869565217391 0.2166666666666667 0  0.8426086956521739 0.2166666666666667 0  0.8591304347826086 0.2166666666666667 0  0.8756521739130434 0.2166666666666667 0  0.8921739130434783 0.2166666666666667 0  0.5947826086956521 0.2333333333333333 0  0.5782608695652174 0.2333333333333333 0  0.6113043478260869 0.2333333333333333 0  0.6278260869565218 0.2333333333333333 0  0.6443478260869565 0.2333333333333333 0  0.6608695652173913 0.2333333333333333 0  0.677391304347826 0.2333333333333333 0  0.6939130434782609 0.2333333333333333 0  0.7104347826086956 0.2333333333333333 0  0.7269565217391304 0.2333333333333333 0  0.7434782608695653 0.2333333333333333 0  0.7599999999999999 0.2333333333333333 0  0.7765217391304348 0.2333333333333333 0  0.7930434782608695 0.2333333333333333 0  0.8095652173913043 0.2333333333333333 0  0.8260869565217391 0.2333333333333333 0  0.8426086956521739 0.2333333333333333 0  0.8591304347826086 0.2333333333333333 0  0.8756521739130434 0.2333333333333333 0  0.8921739130434783 0.2333333333333333 0  0.908695652173913 0.2333333333333333 0  0.5947826086956521 0.25 0  0.6113043478260869 0.25 0  0.6278260869565218 0.25 0  0.6443
[...]
<PointData  Vectors="Displacement"> 
<DataArray  type="Float64"  Name="Displacement"  NumberOfComponents="3" format="ascii">7.3508551877656504e-05 4.1495363157934386e-04 0.0000000000000000e+00  7.4095309868649011e-05 4.3084341473545944e-04 0.0000000000000000e+00  5.7698197766227299e-05 4.3065061660908457e-04 0.0000000000000000e+00  7.5087490000528401e-05 4.4646226398533067e-04 0.0000000000000000e+00  5.8619329304613575e-05 4.4615843394349197e-04 0.0000000000000000e+00  7.6636118786001817e-05 4.6214566517866829e-04 0.0000000000000000e+00  5.9780130341285671e-05 4.6167663069987514e-04 0.0000000000000000e+00  7.8823132330505332e-05 4.7836495310040519e-04 0.0000000000000000e+00  6.1239404124059914e-05 4.7769129053838733e-04 0.0000000000000000e+00  8.1576052503763333e-05 4.9567074445889343e-04 0.0000000000000000e+00  6.2997226071802453e-05 4.9481194097642954e-04 0.0000000000000000e+00  8.4598833419668285e-05 5.1455906827509157e-04 0.0000000000000000e+00  6.4910068784858330e-05 5.1361352092106009e-04 0.0000000000000000e+00  8.7644611804178475e-05 5.3494224664918280e-04 0.0000000000000000e+00  6.7003752110517470e-05 5.3384273149960370e-04 0.0000000000000000e+00  9.0732246539627876e-05 5.5529781046011076e-04 0.0000000000000000e+00  7.0339828941738214e-05 5.5422749592320302e-04 0.0000000000000000e+00  9.3814878163004452e-05 5.7538712788738830e-04 0.0000000000000000e+00  7.3686824382793121e-05 5.7431699917999770e-04 0.0000000000000000e+00  9.6896964625052269e-05 5.9520604207297177e-04 0.0000000000000000e+00  7.7037586340381305e-05 5.9413564358255821e-04 0.0000000000000000e+00  9.9980082903338967e-05 6.1475761985018351e-04 0.0000000000000000e+00  8.0388384440073502e-05 6.1368710904570391e-04 0.0000000000000000e+00  1.0306458353838858e-04 6.3404470386880347e-04 0.0000000000000000e+00  8.3738257162204580e-05 6.3297411614283842e-04 0.0000000000000000e+00  1.0615054305711651e-04 6.5306996121641640e-04 0.0000000000000000e+00  8.7087052804143099e-05 6.5199927691215608e-04 0.0000000000000000e+00  1.0923797592457250e-04 6.7183589420182226e-04 0.0000000000000000e+00  9.0434883018191656e-05 6.7076511648881385e-04 0.0000000000000000e+00  1.1232686676546226e-04 6.9034490755745276e-04 0.0000000000000000e+00  9.3781773017371985e-05 6.8927404865050358e-04 0.0000000000000000e+00  1.1541719369459446e-04 7.0859938261620930e-04 0.0000000000000000e+00  9.7127694880978598e-05 7.0752844878910952e-04 0.0000000000000000e+00  1.1850893943743406e-04 7.2660170000385892e-04 0.0000000000000000e+00  1.0047263242200509e-04 7.2553069289203048e-04 0.0000000000000000e+00  1.2160208954356778e-04 7.4435423814132515e-04 0.0000000000000000e+00  1.0381658317790508e-04 7.4328315783266498e-04 0.0000000000000000e+00  4.1675675789753987e-05 4.4601807119691654e-04 0.0000000000000000e+00  4.2409620313704198e-05 4.6139506859292992e-04 0.0000000000000000e+00  4.3193214433266057e-05 4.7718327866819524e-04 0.0000000000000000e+00  4.4060829790963543e-05 4.9406467874833499e-04 0.0000000000000000e+00  4.4927801440284822e-05 5.1293820769241784e-04 0.0000000000000000e+00  4.5727576234704007e-05 5.3303766998250512e-04 0.0000000000000000e+00  4.9668832780291395e-05 5.5312516512700995e-04 0.0000000000000000e+00  5.3416399645893735e-05 5.7319686093455747e-04 0.0000000000000000e+00  5.7066639719681964e-05 5.9301124147843345e-04 0.0000000000000000e+00  6.0692515959325233e-05 6.1256207932946225e-04 0.0000000000000000e+00  6.4310004419174498e-05 6.3184932140236780e-04 0.0000000000000000e+00  6.7922855807946758e-05 6.5087488972698270e-04 0.0000000000000000e+00  7.1532032634188462e-05 6.6964112763786676e-04 0.0000000000000000e+00  7.5137798420256879e-05 6.8815045601599992e-04 0.0000000000000000e+00  7.8740228644816833e-05 7.0640526453431471e-04 0.0000000000000000e+00  8.2339313812095002e-05 7.2440792354967396e-04 0.0000000000000000e+00  8.5935010725139076e-05 7.4216080231638267e-04 0.0000000000000000e+00  2.5397198591917516e-05 4.6125122277906498e-04 0.0000000000000000e+00  2.5779127733125673e-05 4.7667235680412090e-04 0.0000000000000000e+00  2.6220027546945424e-05 4.9289397679814020e-04 0.0000000000000000e+00  2.6567997251956085e-05 5.1169655707767475e-04 0.0000000000000000e+00  2.6345362752124118e-05 5.3241025771666765e-04 0.0000000000000000e+00  3.0276884577333934e-05 5.4794470284790279e-04 0.0000000000000000e+00  3.4598960290408691e-05 5.6623706773039977e-04 0.0000000000000000e+00  3.8809085004459581e-05 5.8490863195039986e-04 0.0000000000000000e+00  4.2942078018556056e-05 6.0353558090632292e-04 0.0000000000000000e+00  4.7058934744914951e-05 6.2202253493664800e-04 0.0000000000000000e+00  5.1192816333536210e-05 6.4034108813222938e-04 0.0000000000000000e+00  5.5357920153834311e-05 6.5848103217995633e-04 0.0000000000000000e+00  5.9558099640733030e-05 6.7643939602148951e-04 0.0000000000000000e+00  6.3791512325254784e-05 6.9421619349957281e-04 0.0000000000000000e+00  6.8052893386352803e-05 7.1181276594252613e-04 0.0000000000000000e+00  7.2334852016548137e-05 7.2923060711492147e-04 0.0000000000000000e+00  7.6628739445732319e-05 7.4647081547636347e-04 0.0000000000000000e+00  9.5216411877632343e-06 4.7603860954135806e-04 0.0000000000000000e+00  9.9168142412321234e-06 4.9129323104565858e-04 0.0000000000000000e+00  1.0327949863725619e-05 5.0856376085168283e-04 0.0000000000000000e+00  1.2430409022067544e-05 5.2657368670241652e-04 0.0000000000000000e+00  1.5613671879716113e-05 5.4213649076840977e-04 0.0000000000000000e+00  1.9014004347733895e-05 5.5907414271281835e-04 0.0000000000000000e+00  2.2869828809568201e-05 5.7663621814888855e-04 0.0000000000000000e+00  2.6994530970777667e-05 5.9432457468850113e-04 0.0000000000000000e+00  3.1296641051253930e-05 6.1198372222905128e-04 0.0000000000000000e+00  3.5734437612966108e-05 6.2956398515894593e-04 0.0000000000000000e+00  4.0285412403687099e-05 6.4704613813909410e-04 0.0000000000000000e+00  4.4933490430629943e-05 6.6442414348278842e-04 0.0000000000000000e+00  4.9663935049408604e-05 6.8169717615847885e-04 0.0000000000000000e+00  5.4461197420349869e-05 6.9886678737362932e-04 0.0000000000000000e+00  5.9308440726384846e-05 7.1593442337242912e-04 0.0000000000000000e+00  6.4187750693463677e-05 7.3290044384976562e-04 0.0000000000000000e+00  6.9080808936980277e-05 7.4976326570014339e-04 0.0000000000000000e+00  -5.0828338780140998e-06 4.8940742329987819e-04 0.0000000000000000e+00  -4.4659201513159922e-06 5.0427666807308059e-04 0.0000000000000000e+00  -1.8350462200144508e-06 5.2081132477569574e-04 0.0000000000000000e+00  1.2890270704718111e-06 5.3614891880851567e-04 0.0000000000000000e+00  4.5750202108508426e-06 5.5206149690272465e-04 0.0000000000000000e+00  8.2699135413258130e-06 5.6845181963217049e-04 0.0000000000000000e+00  1.2358163493442149e-05 5.8509623960906231e-04 0.0000000000000000e+00  1.6749914874960395e-05 6.0184619080776755e-04 0.0000000000000000e+00  2.1376949645560122e-05 6.1862854344302590e-04 0.0000000000000000e+00  2.6195789982663052e-05 6.3540609201164975e-04 0.0000000000000000e+00  3.1175481735381192e-05 6.5216562250847480e-04 0.0000000000000000e+00  3.6289989841203195e-05 6.6890359764201161e-04 0.0000000000000000e+00  4.1513900849659301e-05 6.8562155936639552e-04 0.0000000000000000e+00  4.6821078276823911e-05 7.0232092050781763e-04 0.0000000000000000e+00  5.2184425769899941e-05 7.1900147988375300e-04 0.0000000000000000e+00  5.7576602269141472e-05 7.3565965856798687e-04 0.0000000000000000e+00  6.2971085288833779e-05 7.5228817987726786e-04 0.0000000000000000e+00  -1.8141116295736809e-05 5.0027283589915801e-04 0.0000000000000000e+00  -1.5467207302974106e-05 5.1528073501654580e-04 0.0000000000000000e+00  -1.2345903909886148e-05 5.2996477293661549e-04 0.0000000000000000e+00  -8.9990512266158665e-06 5.4492245530231645e-04 0.0000000000000000e+00  -5.2985453505383612e-06 5.6023345110038343e-04 0.0000000000000000e+00  -1.2063406386134647e-06 5.7582604385265478e-04 0.0000000000000000e+00  3.2394076079267494e-06 5.9162860662525835e-04 0.0000000000000000e+00  7.9825362782808184e-06 6.0757139752017921e-04 0.0000000000000000e+00  1.2979865892242951e-05 6.2360305913732842e-04 0.0000000000000000e+00  1.8195928106739449e-05 6.3970657385778668e-04 0.0000000000000000e+00  2.3598576912847823e-05 6.5587651638991966e-04 0.0000000000000000e+00  2.9154922420588834e-05 6.7211593371732355e-04 0.0000000000000000e+00  3.4830696832547316e-05 6.8842673500512936e-04 0.0000000000000000e+00  4.0590037307426533e-05 7.0480879120751966e-04 0.0000000000000000e+00  4.6396624045624570e-05 7.2125653819027163e-04 0.0000000000000000e+00  5.2215090025293956e-05 7.3775887923598538e-04 0.0000000000000000e+00  5.8012983542445126e-05 7.5429844375788258e-04 0.0000000000000000e+00  -2.8064456418512435e-05 5.0986687696882589e-04 0.0000000000000000e+00  -2.5005049604449798e-05 5.2368669599852085e-04 0.0000000000000000e+00  -2.1653504454097310e-05 5.3763906723334511e-04 0.0000000000000000e+00  -1.7942600868505876e-05 5.5191353431988241e-04 0.0000000000000000e+00  -1.3839459105239180e-05 5.6647382364689001e-04 0.0000000000000000e+00  -9.3665251093357846e-06 5.8132536905863570e-04 0.0000000000000000e+00  -4.5645509664601461e-06 5.9640987489634081e-04 0.0000000000000000e+00  5.3754559095236555e-07 6.1166360433003288e-04 0.0000000000000000e+00  5.9088139223044427e-06 6.2707675025627416e-04 0.0000000000000000e+00  1.1516720626955428e-05 6.4264504413258741e-04 0.0000000000000000e+00  1.7323678749735538e-05 6.5837739412594686e-04 0.0000000000000000e+00  2.3288868912892875e-05 6.7427732520654868e-04 0.0000000000000000e+00  2.9368109149928341e-05 6.9034641382379077e-04 0.0000000000000000e+00  3.5515978509878560e-05 7.0657732589488628e-04 0.0000000000000000e+00  4.1687678393062404e-05 7.2295509735903431e-04 0.0000000000000000e+00  4.7842085771340328e-05 7.3945495727317323e-04 0.0000000000000000e+00  5.3944618211812943e-05 7.5604431915820885e-04 0.0000000000000000e+00  -3.6565258825770861e-05 5.1743114772861401e-04 0.0000000000000000e+00  -3.3353703631394439e-05 5.3026384786258071e-04 0.0000000000000000e+00  -2.9701074020642547e-05 5.4350029968754663e-04 0.0000000000000000e+00  -2.5620612597075384e-05 5.5702262384318925e-04 0.0000000000000000e+00  -2.1159541266697839e-05 5.7093365319240341e-04 0.0000000000000000e+00  -1.6357737523695710e-05 5.8515899458544906e-04 0.0000000000000000e+00  -1.1220069960108393e-05 5.9960750335566752e-04 0.0000000000000000e+00  -5.7678276193527735e-06 6.1429808688951348e-04 0.0000000000000000e+00  -2.9066803216209171e-08 6.2922909797964298e-04 0.0000000000000000e+00  5.9558781754304979e-06 6.4442379149203183e-04 0.0000000000000000e+00  1.2141315307620709e-05 6.5988786224296307e-04 0.0000000000000000e+00  1.8474901855593734e-05 6.7562801995396389e-04 0.0000000000000000e+00  2.4901680069656220e-05 6.9163537316281598e-04 0.0000000000000000e+00  3.1366161331284450e-05 7.0789166387172689e-04 0.0000000000000000e+00  3.7817365996510226e-05 7.2436291830661715e-04 0.0000000000000000e+00  4.4213444682591041e-05 7.4100337179257227e-04 0.0000000000000000e+00  5.0522901329645423e-05 7.5776380128875502e-04 0.0000000000000000e+00  -4.4246255551365709e-05 5.2281295337108238e-04 0.0000000000000000e+00  -4.0638376446536662e-05 5.3502425641771328e-04 0.0000000000000000e+00  -3.6602933736168266e-05 5.4746644602826015e-04 0.0000000000000000e+00  -3.2201267264911847e-05 5.6046286793230682e-04 0.0000000000000000e+00  -2.7471319163257694e-05 5.7384462025749869e-04 0.0000000000000000e+00  -2.2370999921760227e-05 5.8745455535749768e-04 0.0000000000000000e+00  -1.6911626422050419e-05 6.0139003902552168e-04 0.0000000000000000e+00  -1.1112457168045810e-05 6.1564216312811769e-04 0.0000000000000000e+00  -5.0165817215341809e-06 6.3026541850385893e-04 0.0000000000000000e+00  1.3275806647497884e-06 6.4526402291178477e-04 0.0000000000000000e+00  7.8590792585082484e-06 6.6065716607932926e-04 0.0000000000000000e+00  1.4512621022943103e-05 6.7643367582828824e-04 0.0000000000000000e+00  2.1219577984912855e-05 6.9257417851002171e-04 0.0000000000000000e+00  2.7916943189919642e-05 7.0903247716671224e-04 0.0000000000000000e+00  3.4555022246579054e-05 7.2574464030778928e-04 0.0000000000000000e+00  4.1098288496709708e-05 7.4264412013492164e-04 0.0000000000000000e+00  4.7522598378009126e-05 7.5967078383967345e-04 0.0000000000000000e+00  -5.0654593159132150e-05 5.2653589541181128e-04 0.0000000000000000e+00  -4.6772339359497452e-05 5.3778610683916594e-04 0.0000000000000000e+00  -4.2518781312947251e-05 5.4993967113926249e-04 0.0000000000000000e+00  -3.7964803513734503e-05 5.6251674478561078e-04 0.0000000000000000e+00  -3.2984291860893480e-05 5.7522727277009296e-04 0.0000000000000000e+00  -2.7596824850119500e-05 5.8837502505096155e-04 0.0000000000000000e+00  -2.1807701201911595e-05 6.0189331181193211e-04 0.0000000000000000e+00  -1.5666703625322095e-05 6.1590761293568545e-04 0.0000000000000000e+00  -9.2203785985664138e-06 6.3040244002609343e-04 0.0000000000000000e+00  -2.5397967038063815e-06 6.4542724489166658e-04 0.0000000000000000e+00  4.2985704263305935e-06 6.6096382520671674e-04 0.0000000000000000e+00  1.1208280404832415e-05 6.7699832390335417e-04 0.0000000000000000e+00  1.8110469248228522e-05 6.9346639331442183e-04 0.0000000000000000e+00  2.4946908179449122e-05 7.1027754835299782e-04 0.0000000000000000e+00  3.1678992410429487e-05 7.2734272527599949e-04 0.0000000000000000e+00  3.8281983650503059e-05 7.4458593029953215e-04 0.0000000000000000e+00  4.4739952398522487e-05 7.6194608312198445e-04 0.0000000000000000e+00  -5.6223564495623355e-05 5.2791790448425684e-04 0.0000000000000000e+00  -5.9844888644093822e-05 5.1826009870973937e-04 0.0000000000000000e+00  -5.2174857324451230e-05 5.3941965847448779e-04 0.0000000000000000e+00  -4.7912700707362059e-05 5.5126752970033495e-04 0.0000000000000000e+00  -4.3126371398621161e-05 5.6294376566562877e-04 0.0000000000000000e+00  -3.7895846744624993e-05 5.7528563593710444e-04 0.0000000000000000e+00  -3.2189672256209331e-05 5.8798737098453172e-04 0.0000000000000000e+00  -2.6074415185502116e-05 6.0135507512770400e-04 0.0000000000000000e+00  -1.9581029897141079e-05 6.1529041414116559e-04 0.0000000000000000e+00  -1.2794594737541452e-05 6.2992120900168638e-04 0.0000000000000000e+00  -5.8022581932454013e-06 6.4520352395797771e-04 0.0000000000000000e+00  1.2825035037610488e-06 6.6114842365366767e-04 0.0000000000000000e+00  8.3583073267536524e-06 6.7765990098355604e-04 0.0000000000000000e+00  1.5357971024484089e-05 6.9460651940999479e-04 0.0000000000000000e+00  2.2241529438030146e-05 7.1187015312708087e-04 0.0000000000000000e+00  2.8985104878889239e-05 7.2935746066823211e-04 0.0000000000000000e+00  3.5573703788596865e-05 7.4699725013986358e-04 0.0000000000000000e+00  4.1997480411222127e-05 7.6473556396347770e-04 0.0000000000000000e+00  -6.5367553552134929e-05 5.1748767501621552e-04 0.0000000000000000e+00  -6.6811361325185939e-05 5.1132583348255216e-04 0.0000000000000000e+00  -6.1256417034087545e-05 5.2897834265568078e-04 0.0000000000000000e+00  -5.7375812243556016e-05 5.4025663718496649e-04 0.0000000000000000e+00  -5.2833746025396170e-05 5.5058760431884730e-04 0.0000000000000000e+00  -4.7868951980414166e-05 5.6218195720645671e-04 0.0000000000000000e+00  -4.2328983520358355e-05 5.7392098818008584e-04 0.0000000000000000e+00  -3.6329303100697180e-05 5.8662176981972907e-04 0.0000000000000000e+00  -2.9848162637869195e-05 5.9990386860778243e-04 0.0000000000000000e+00  -2.2997175264081504e-05 6.1411166499668356e-04 0.0000000000000000e+00  -1.5867999872528580e-05 6.2911115299491374e-04 0.0000000000000000e+00  -8.6206085078696866e-06 6.4499486597453652e-04 0.0000000000000000e+00  -1.3903872919419727e-06 6.6160048286988940e-04 0.0000000000000000e+00  5.7474673110782601e-06 6.7873123194914730e-04 0.0000000000000000e+00  1.2754569843625374e-05 6.9623319393053557e-04 0.0000000000000000e+00  1.9609436746615518e-05 7.1399617422966276e-04 0.0000000000000000e+00  2.6298451001203483e-05 7.3194073605102909e-04 0.0000000000000000e+00  3.2812498418635110e-05 7.5000833641993469e-04 0.0000000000000000e+00  3.9145520606907632e-05 7.6815540341212594e-04 0.0000000000000000e+00  -6.9787803448991231e-05 5.1525241555564275e-04 0.0000000000000000e+00  -7.0272981671210867e-05 5.1132898458151768e-04 0.0000000000000000e+00  -6.9410129373413595e-05 5.1879034859766873e-04 0.0000000000000000e+00  -6.6131352101450529e-05 5.2985244504562669e-04 0.0000000000000000e+00  -6.2053707681286168e-05 5.3803948798578148e-04 0.0000000000000000e+00  -5.7556412939563636e-05 5.4920978803345278e-04 0.0000000000000000e+00  -5.2289836594119440e-05 5.5966602498295798e-04 0.0000000000000000e+00  -4.6539204603442481e-05 5.7175655383033346e-04 0.0000000000000000e+00  -4.0140038975982935e-05 5.8419994270785848e-04 0.0000000000000000e+00  -3.3271418538280999e-05 5.9796361343898187e-04 0.0000000000000000e+00  -2.6002221353544346e-05 6.1261367885689553e-04 0.0000000000000000e+00  -1.8582595785146210e-05 6.2848995802349406e-04 0.0000000000000000e+00  -1.1201212188532393e-05 6.4526765628710597e-04 0.0000000000000000e+00  -3.9363657424589671e-06 6.6264655001517883e-04 0.0000000000000000e+00  3.1795428305726717e-06 6.8043430836885383e-04 0.0000000000000000e+00  1.0128339737365592e-05 6.9850878618065229e-04 0.0000000000000000e+00  1.6897466048389423e-05 7.1678615359315443e-04 0.0000000000000000e+00  2.3478424817314929e-05 7.3520538957059611e-04 0.0000000000000000e+00  2.9866156775921962e-05 7.5372128895991042e-04 0.0000000000000000e+00  3.6058100735618915e-05 7.7230075812196859e-04 0.0000000000000000e+00  -7.2751512135514222e-05 5.1523443926723917e-04 0.0000000000000000e+00  -7.3425949109455426e-05 5.1129892358103650e-04 0.0000000000000000e+00  -7.2189364139892619e-05 5.1878262341927071e-04 0.0000000000000000e+00  -7.1712437731314311e-05 5.2188970255009285e-04 0.0000000000000000e+00  -7.1320056269048504e-05 5.2469232410844895e-04 0.0000000000000000e+00  -6.7008139474096748e-05 5.3677970032066803e-04 0.0000000000000000e+00  -6.2164464508675363e-05 5.4509062464971100e-04 0.0000000000000000e+00  -5.6846123362736419e-05 5.5690925279014327e-04 0.0000000000000000e+00  -5.0609951984142852e-05 5.6809220464677497e-04 0.0000000000000000e+00  -4.3797321960742227e-05 5.8144812159221983e-04 0.0000000000000000e+00  -3.6351176848277550e-05 5.9557835018539981e-04 0.0000000000000000e+00  -2.8714302142823473e-05 6.1156213444115901e-04 0.0000000000000000e+00  -2.1160449593351600e-05 6.2863279710591964e-04 0.0000000000000000e+00  -1.3757324696370296e-05 6.4634139973464809e-04 0.0000000000000000e+00  -6.5266633264703623e-06 6.6446983169071965e-04 0.0000000000000000e+00  5.1560610355285395e-07 6.8289652949334305e-04 0.0000000000000000e+00  7.3568733796406745e-06 7.0153897521165398e-04 0.0000000000000000e+00  1.3989593409300044e-05 7.2033572149589841e-04 0.0000000000000000e+00  2.0411089935361423e-05 7.3924078176197585e-04 0.0000000000000000e+00  2.6622028337530127e-05 7.5822090458765889e-04 0.0000000000000000e+00  3.2624489213609901e-05 7.7725348400670255e-04 0.0000000000000000e+00  -7.5376515746232686e-05 5.1521481581560415e-04 0.0000000000000000e+00  -7.4605048726382204e-05 5.1875330454604967e-04 0.0000000000000000e+00  -7.3956496544255089e-05 5.2185209919951856e-04 0.0000000000000000e+00  -7.3412367685159481e-05 5.2467600227872144e-04 0.0000000000000000e+00  -7.2944915530585559e-05 5.2720448614746601e-04 0.0000000000000000e+00  -7.2588323222545981e-05 5.2947441144730390e-04 0.0000000000000000e+00  -6.7309114322014761e-05 5.4254681075144502e-04 0.0000000000000000e+00  -6.1440120625271674e-05 5.5137293599725882e-04 0.0000000000000000e+00  -5.4849807153593010e-05 5.6460017987979656e-04 0.0000000000000000e+00  -4.7143493564324257e-05 5.7774206811886776e-04 0.0000000000000000e+00  -3.9179504880508046e-05 5.9410984504607045e-04 0.0000000000000000e+00  -3.1383932817344446e-05 6.1165796568439642e-04 0.0000000000000000e+00  -2.3788069583245741e-05 6.2979481418188124e-04 0.0000000000000000e+00  -1.6402575983236478e-05 6.4832629975470301e-04 0.0000000000000000e+00  -9.2443744957197064e-06 6