<?xml version="1.0"?>
<VTKFile type="UnstructuredGrid"  version="0.1"  >
<UnstructuredGrid>
<Piece  NumberOfPoints="650" NumberOfCells="1199">
<Points>
<DataArray  type="Float64"  NumberOfComponents="3"  format="ascii">3.238260869565217 0 0  3.254782608695652 0 0  3.254782608695652 0.01666666666666667 0  3.238260869565217 0.01666666666666667 0  3.271304347826087 0 0  3.271304347826087 0.01666666666666667 0  3.287826086956521 0 0  3.287826086956521 0.01666666666666667 0  3.304347826086957 0 0  3.304347826086957 0.01666666666666667 0  3.320869565217391 0 0  3.320869565217391 0.01666666666666667 0  3.337391304347826 0 0  3.337391304347826 0.01666666666666667 0  3.353913043478261 0 0  3.353913043478261 0.01666666666666667 0  3.370434782608696 0 0  3.370434782608696 0.01666666666666667 0  3.386956521739131 0 0  3.386956521739131 0.01666666666666667 0  3.403478260869565 0 0  3.403478260869565 0.01666666666666667 0  3.419999999999999 0 0  3.419999999999999 0.01666666666666667 0  3.436521739130435 0 0  3.436521739130435 0.01666666666666667 0  3.453043478260869 0 0  3.453043478260869 0.01666666666666667 0  3.469565217391304 0 0  3.469565217391304 0.01666666666666667 0  3.486086956521739 0 0  3.486086956521739 0.01666666666666667 0  3.502608695652174 0 0  3.502608695652174 0.01666666666666667 0  3.519130434782609 0 0  3.519130434782609 0.01666666666666667 0  3.535652173913043 0 0  3.535652173913043 0.01666666666666667 0  3.552173913043478 0 0  3.552173913043478 0.01666666666666667 0  3.568695652173913 0 0  3.568695652173913 0.01666666666666667 0  3.585217391304347 0 0  3.585217391304347 0.01666666666666667 0  3.601739130434782 0 0  3.601739130434782 0.01666666666666667 0  3.618260869565217 0 0  3.618260869565217 0.01666666666666667 0  3.634782608695652 0 0  3.634782608695652 0.01666666666666667 0  3.651304347826087 0 0  3.651304347826087 0.01666666666666667 0  3.667826086956521 0 0  3.667826086956521 0.01666666666666667 0  3.684347826086956 0 0  3.684347826086956 0.01666666666666667 0  3.700869565217391 0 0  3.700869565217391 0.01666666666666667 0  3.717391304347826 0 0  3.717391304347826 0.01666666666666667 0  3.733913043478261 0 0  3.733913043478261 0.01666666666666667 0  3.750434782608695 0 0  3.750434782608695 0.01666666666666667 0  3.766956521739131 0 0  3.766956521739131 0.01666666666666667 0  3.783478260869565 0 0  3.783478260869565 0.01666666666666667 0  3.8 0 0  3.8 0.01666666666666667 0  3.254782608695652 0.03333333333333333 0  3.271304347826087 0.03333333333333333 0  3.287826086956521 0.03333333333333333 0  3.304347826086957 0.03333333333333333 0  3.320869565217391 0.03333333333333333 0  3.337391304347826 0.03333333333333333 0  3.353913043478261 0.03333333333333333 0  3.370434782608696 0.03333333333333333 0  3.386956521739131 0.03333333333333333 0  3.403478260869565 0.03333333333333333 0  3.419999999999999 0.03333333333333333 0  3.436521739130435 0.03333333333333333 0  3.453043478260869 0.03333333333333333 0  3.469565217391304 0.03333333333333333 0  3.486086956521739 0.03333333333333333 0  3.502608695652174 0.03333333333333333 0  3.519130434782609 0.03333333333333333 0  3.535652173913043 0.03333333333333333 0  3.552173913043478 0.03333333333333333 0  3.568695652173913 0.03333333333333333 0  3.585217391304347 0.03333333333333333 0  3.601739130434782 0.03333333333333333 0  3.618260869565217 0.03333333333333333 0  3.634782608695652 0.03333333333333333 0  3.651304347826087 0.03333333333333333 0  3.667826086956521 0.03333333333333333 0  3.684347826086956 0.03333333333333333 0  3.700869565217391 0.03333333333333333 0  3.717391304347826 0.03333333333333333 0  3.733913043478261 0.03333333333333333 0  3.750434782608695 0.03333333333333333 0  3.766956521739131 0.03333333333333333 0  3.783478260869565 0.03333333333333333 0  3.8 0.03333333333333333 0  3.271304347826087 0.05 0  3.287826086956521 0.05 0  3.304347826086957 0.05 0  3.320869565217391 0.05 0  3.337391304347826 0.05 0  3.353913043478261 0.05 0  3.370434782608696 0.05 0  3.386956521739131 0.05 0  3.403478260869565 0.05 0  3.419999999999999 0.05 0  3.436521739130435 0.05 0  3.453043478260869 0.05 0  3.469565217391304 0.05 0  3.486086956521739 0.05 0  3.502608695652174 0.05 0  3.519130434782609 0.05 0  3.535652173913043 0.05 0  3.552173913043478 0.05 0  3.568695652173913 0.05 0  3.585217391304347 0.05 0  3.601739130434782 0.05 0  3.618260869565217 0.05 0  3.634782608695652 0.05 0  3.651304347826087 0.05 0  3.667826086956521 0.05 0  3.684347826086956 0.05 0  3.700869565217391 0.05 0  3.717391304347826 0.05 0  3.733913043478261 0.05 0  3.750434782608695 0.05 0  3.766956521739131 0.05 0  3.783478260869565 0.05 0  3.8 0.05 0  3.287826086956521 0.06666666666666667 0  3.304347826086957 0.06666666666666667 0  3.320869565217391 0.06666666666666667 0  3.337391304347826 0.06666666666666667 0  3.353913043478261 0.06666666666666667 0  3.370434782608696 0.06666666666666667 0  3.386956521739131 0.06666666666666667 0  3.403478260869565 0.06666666666666667 0  3.419999999999999 0.06666666666666667 0  3.436521739130435 0.06666666666666667 0  3.453043478260869 0.06666666666666667 0  3.469565217391304 0.06666666666666667 0  3.486086956521739 0.06666666666666667 0  3.502608695652174 0.06666666666666667 0  3.519130434782609 0.06666666666666667 0  3.535652173913043 0.06666666666666667 0  3.552173913043478 0.06666666666666667 0  3.568695652173913 0.06666666666666667 0  3.585217391304347 0.06666666666666667 0  3.601739130434782 0.06666666666666667 0  3.618260869565217 0.06666666666666667 0  3.634782608695652 0.06666666666666667 0  3.651304347826087 0.06666666666666667 0  3.667826086956521 0.06666666666666667 0  3.684347826086956 0.06666666666666667 0  3.700869565217391 0.06666666666666667 0  3.717391304347826 0.06666666666666667 0  3.733913043478261 0.06666666666666667 0  3.750434782608695 0.06666666666666667 0  3.766956521739131 0.06666666666666667 0  3.783478260869565 0.06666666666666667 0  3.8 0.06666666666666667 0  3.304347826086957 0.08333333333333333 0  3.320869565217391 0.08333333333333333 0  3.337391304347826 0.08333333333333333 0  3.353913043478261 0.08333333333333333 0  3.370434782608696 0.08333333333333333 0  3.386956521739131 0.08333333333333333 0  3.403478260869565 0.08333333333333333 0  3.419999999999999 0.08333333333333333 0  3.436521739130435 0.08333333333333333 0  3.453043478260869 0.08333333333333333 0  3.469565217391304 0.08333333333333333 0  3.486086956521739 0.08333333333333333 0  3.502608695652174 0.08333333333333333 0  3.519130434782609 0.08333333333333333 0  3.535652173913043 0.08333333333333333 0  3.552173913043478 0.08333333333333333 0  3.568695652173913 0.08333333333333333 0  3.585217391304347 0.08333333333333333 0  3.601739130434782 0.08333333333333333 0  3.618260869565217 0.08333333333333333 0  3.634782608695652 0.08333333333333333 0  3.651304347826087 0.08333333333333333 0  3.667826086956521 0.08333333333333333 0  3.684347826086956 0.08333333333333333 0  3.700869565217391 0.08333333333333333 0  3.717391304347826 0.08333333333333333 0  3.733913043478261 0.08333333333333333 0  3.750434782608695 0.08333333333333333 0  3.766956521739131 0.08333333333333333 0  3.783478260869565 0.08333333333333333 0  3.8 0.08333333333333333 0  3.320869565217391 0.1 0  3.337391304347826 0.1 0  3.353913043478261 0.1 0  3.370434782608696 0.1 0  3.386956521739131 0.1 0  3.403478260869565 0.1 0  3.419999999999999 0.1 0  3.436521739130435 0.1 0  3.453043478260869 0.1 0  3.469565217391304 0.1 0  3.486086956521739 0.1 0  3.502608695652174 0.1 0  3.519130434782609 0.1 0  3.535652173913043 0.1 0  3.552173913043478 0.1 0  3.568695652173913 0.1 0  3.585217391304347 0.1 0  3.601739130434782 0.1 0  3.618260869565217 0.1 0  3.634782608695652 0.1 0  3.651304347826087 0.1 0  3.667826086956521 0.1 0  3.684347826086956 0.1 0  3.700869565217391 0.1 0  3.717391304347826 0.1 0  3.733913043478261 0.1 0  3.750434782608695 0.1 0  3.766956521739131 0.1 0  3.783478260869565 0.1 0  3.8 0.1 0  3.337391304347826 0.1166666666666667 0  3.353913043478261 0.1166666666666667 0  3.370434782608696 0.1166666666666667 0  3.386956521739131 0.1166666666666667 0  3.403478260869565 0.1166666666666667 0  3.419999999999999 0.1166666666666667 0  3.436521739130435 0.1166666666666667 0  3.453043478260869 0.1166666666666667 0  3.469565217391304 0.1166666666666667 0  3.486086956521739 0.1166666666666667 0  3.502608695652174 0.1166666666666667 0  3.519130434782609 0.1166666666666667 0  3.535652173913043 0.1166666666666667 0  3.552173913043478 0.1166666666666667 0  3.568695652173913 0.1166666666666667 0  3.585217391304347 0.1166666666666667 0  3.601739130434782 0.1166666666666667 0  3.618260869565217 0.1166666666666667 0  3.634782608695652 0.1166666666666667 0  3.651304347826087 0.1166666666666667 0  3.667826086956521 0.1166666666666667 0  3.684347826086956 0.1166666666666667 0  3.700869565217391 0.1166666666666667 0  3.717391304347826 0.1166666666666667 0  3.733913043478261 0.1166666666666667 0  3.750434782608695 0.1166666666666667 0  3.766956521739131 0.1166666666666667 0  3.783478260869565 0.1166666666666667 0  3.8 0.1166666666666667 0  3.353913043478261 0.1333333333333333 0  3.370434782608696 0.1333333333333333 0  3.386956521739131 0.1333333333333333 0  3.403478260869565 0.1333333333333333 0  3.419999999999999 0.1333333333333333 0  3.436521739130435 0.1333333333333333 0  3.453043478260869 0.1333333333333333 0  3.469565217391304 0.1333333333333333 0  3.486086956521739 0.1333333333333333 0  3.502608695652174 0.1333333333333333 0  3.519130434782609 0.1333333333333333 0  3.535652173913043 0.1333333333333333 0  3.552173913043478 0.1333333333333333 0  3.568695652173913 0.1333333333333333 0  3.585217391304347 0.1333333333333333 0  3.601739130434782 0.1333333333333333 0  3.618260869565217 0.1333333333333333 0  3.634782608695652 0.1333333333333333 0  3.651304347826087 0.1333333333333333 0  3.667826086956521 0.1333333333333333 0  3.684347826086956 0.1333333333333333 0  3.700869565217391 0.1333333333333333 0  3.717391304347826 0.13333333
[...]
<CellData  Scalars="rho"> 
<DataArray  type="Float64"  Name="rho"  format="ascii">2.5593743971077487e-01   2.6007174868592275e-01   2.4087514371900282e-01   2.4562047749366256e-01   2.2731297118498728e-01   2.3006635930892036e-01   2.1080226134683763e-01   2.1650820034268797e-01   1.9471689649973969e-01   1.9949753821490052e-01   1.7672237575855693e-01   1.8337548458575384e-01   1.5762152977171395e-01   1.6488970337809097e-01   1.3741237205451756e-01   1.4529665791263172e-01   1.1609781692523140e-01   1.2459602132676487e-01   9.3681767387403511e-02   1.0278972449641087e-01   7.7639829216746475e-02   8.7592451701981294e-02   5.7958301446221813e-02   6.2832436121868354e-02   3.2246227491075447e-02   4.3071202974823669e-02   5.2880038954020827e-03   1.6743783201754733e-02   0.0000000000000000e+00   0.0000000000000000e+00   0.0000000000000000e+00   0.0000000000000000e+00   0.0000000000000000e+00   0.0000000000000000e+00   0.0000000000000000e+00   0.0000000000000000e+00   0.0000000000000000e+00   0.0000000000000000e+00   0.0000000000000000e+00   0.0000000000000000e+00   0.0000000000000000e+00   0.0000000000000000e+00   0.0000000000000000e+00   0.0000000000000000e+00   0.0000000000000000e+00   0.0000000000000000e+00   0.0000000000000000e+00   0.0000000000000000e+00   0.0000000000000000e+00   0.0000000000000000e+00   0.0000000000000000e+00   0.0000000000000000e+00   0.0000000000000000e+00   0.0000000000000000e+00   0.0000000000000000e+00   0.0000000000000000e+00   0.0000000000000000e+00   0.0000000000000000e+00   0.0000000000000000e+00   0.0000000000000000e+00   0.0000000000000000e+00   0.0000000000000000e+00   0.0000000000000000e+00   0.0000000000000000e+00   0.0000000000000000e+00   0.0000000000000000e+00   0.0000000000000000e+00   0.0000000000000000e+00   2.5329260527866915e-01   2.3942959872897318e-01   2.4294166157248462e-01   2.2694893812529965e-01   2.2907499942880613e-01   2.1163339885271587e-01   2.1696362172337263e-01   1.9654371852823171e-01   2.0162134509580232e-01   1.7972263810184455e-01   1.8682567430909058e-01   1.6180708315204489e-01   1.6996426642381243e-01   1.4278638307330491e-01   1.5200493614770166e-01   1.2265379752860958e-01   1.3293480315783698e-01   1.0954222328814135e-01   1.2104323751908756e-01   8.6517507631654389e-02   9.9122695224119553e-02   6.2282354461329625e-02   7.5985559953412898e-02   4.2858902026540004e-02   5.7078846805190597e-02   1.6887363766767555e-02   3.2149051212251104e-02   0.0000000000000000e+00   5.8196111022231446e-03   0.0000000000000000e+00   0.0000000000000000e+00   0.0000000000000000e+00   0.0000000000000000e+00   0.0000000000000000e+00   0.0000000000000000e+00   0.0000000000000000e+00   0.0000000000000000e+00   0.0000000000000000e+00   0.0000000000000000e+00   0.0000000000000000e+00   0.0000000000000000e+00   0.0000000000000000e+00   0.0000000000000000e+00   0.0000000000000000e+00   0.0000000000000000e+00   0.0000000000000000e+00   0.0000000000000000e+00   0.0000000000000000e+00   0.0000000000000000e+00   0.0000000000000000e+00   0.0000000000000000e+00   0.0000000000000000e+00   0.0000000000000000e+00   0.0000000000000000e+00   0.0000000000000000e+00   0.0000000000000000e+00   0.0000000000000000e+00   0.0000000000000000e+00   0.0000000000000000e+00   0.0000000000000000e+00   0.0000000000000000e+00   0.0000000000000000e+00   0.0000000000000000e+00   0.0000000000000000e+00   0.0000000000000000e+00   0.0000000000000000e+00   0.0000000000000000e+00   2.3616066945202599e-01   2.2372589135765311e-01   2.2726483960724769e-01   2.1297206104015884e-01   2.1756049553091925e-01   1.9902791976897247e-01   2.0500815911106826e-01   1.8544987670459187e-01   1.9241257143953028e-01   1.6993594748592061e-01   1.7826861019877124e-01   1.5332627323429671e-01   1.6304350998235759e-01   1.3559561513979285e-01   1.4670457560882458e-01   1.2478176735888072e-01   1.3740171787328564e-01   1.0421019226533641e-01   1.1828835578938673e-01   8.2358602387053184e-02   9.7890387192716408e-02   6.4142170171851712e-02   7.6132498740798138e-02   4.0222144171221982e-02   5.7898312262053261e-02   1.4774929654703636e-02   3.3814360193849223e-02   0.0000000000000000e+00   8.0687020695054731e-03   0.0000000000000000e+00   0.0000000000000000e+00   0.0000000000000000e+00   0.0000000000000000e+00   0.0000000000000000e+00   0.0000000000000000e+00   0.0000000000000000e+00   0.0000000000000000e+00   0.0000000000000000e+00   0.0000000000000000e+00   0.0000000000000000e+00   0.0000000000000000e+00   0.0000000000000000e+00   0.0000000000000000e+00   0.0000000000000000e+00   0.0000000000000000e+00   0.0000000000000000e+00   0.0000000000000000e+00   0.0000000000000000e+00   0.0000000000000000e+00   0.0000000000000000e+00   0.0000000000000000e+00   0.0000000000000000e+00   0.0000000000000000e+00   0.0000000000000000e+00   0.0000000000000000e+00   0.0000000000000000e+00   0.0000000000000000e+00   0.0000000000000000e+00   0.0000000000000000e+00   0.0000000000000000e+00   0.0000000000000000e+00   0.0000000000000000e+00   0.0000000000000000e+00   0.0000000000000000e+00   0.0000000000000000e+00   2.2265859878563266e-01   2.1264423130835494e-01   2.1651357790386902e-01   2.0406714094022349e-01   2.0711956527227604e-01   1.9301762984987011e-01   1.9905767705466568e-01   1.8072918772610372e-01   1.8846295517395911e-01   1.7593336002897261e-01   1.8515552917877434e-01   1.6117039379190704e-01   1.7203981896144355e-01   1.4519376722003074e-01   1.5772373409032608e-01   1.2793609327556635e-01   1.4213475019531779e-01   1.0931520532425688e-01   1.2518708233008058e-01   8.9230790628326020e-02   1.0677765681821914e-01   6.7563458359206019e-02   8.6784391689682522e-02   4.8863823886724514e-02   6.5067115259869440e-02   2.4249177555250273e-02   4.5888234134439113e-02   0.0000000000000000e+00   2.0874629272124096e-02   0.0000000000000000e+00   0.0000000000000000e+00   0.0000000000000000e+00   0.0000000000000000e+00   0.0000000000000000e+00   0.0000000000000000e+00   0.0000000000000000e+00   0.0000000000000000e+00   0.0000000000000000e+00   0.0000000000000000e+00   0.0000000000000000e+00   0.0000000000000000e+00   0.0000000000000000e+00   0.0000000000000000e+00   0.0000000000000000e+00   0.0000000000000000e+00   0.0000000000000000e+00   0.0000000000000000e+00   0.0000000000000000e+00   0.0000000000000000e+00   0.0000000000000000e+00   0.0000000000000000e+00   0.0000000000000000e+00   0.0000000000000000e+00   0.0000000000000000e+00   0.0000000000000000e+00   0.0000000000000000e+00   0.0000000000000000e+00   0.0000000000000000e+00   0.0000000000000000e+00   0.0000000000000000e+00   0.0000000000000000e+00   0.0000000000000000e+00   0.0000000000000000e+00   2.1428377166590754e-01   2.0787380292847663e-01   2.1039910461351380e-01   2.0818371066565036e-01   2.1263137555459344e-01   1.9893293709163187e-01   2.0607629684935933e-01   1.9091070766495483e-01   1.9769617281086974e-01   1.7997213274426657e-01   1.9529298098986531e-01   1.6779585045470979e-01   1.7912080046807180e-01   1.5428849478800027e-01   1.6735897996546870e-01   1.3934209538526598e-01   1.5417769259358394e-01   1.2283083991970499e-01   1.3945001526121314e-01   1.0461017355361069e-01   1.2303056131749197e-01   8.4518115310412562e-02   1.0475583071073519e-01   6.2379460385361428e-02   8.4447035438611859e-02   4.1728228985557676e-02   6.1915564508268933e-02   1.5573145203395877e-02   3.6971056046565760e-02   0.0000000000000000e+00   1.3374373715608061e-02   0.0000000000000000e+00   0.0000000000000000e+00   0.0000000000000000e+00   0.0000000000000000e+00   0.0000000000000000e+00   0.0000000000000000e+00   0.0000000000000000e+00   0.0000000000000000e+00   0.0000000000000000e+00   0.0000000000000000e+00   0.0000000000000000e+00   0.0000000000000000e+00   0.0000000000000000e+00   0.0000000000000000e+00   0.0000000000000000e+00   0.0000000000000000e+00   0.0000000000000000e+00   0.0000000000000000e+00   0.0000000000000000e+00   0.0000000000000000e+00   0.0000000000000000e+00   0.0000000000000000e+00   0.0000000000000000e+00   0.0000000000000000e+00   0.0000000000000000e+00   0.0000000000000000e+00   0.0000000000000000e+00   0.0000000000000000e+00   0.0000000000000000e+00   0.0000000000000000e+00   2.1696573978692782e-01   2.1335065713298607e-01   2.2280842184129776e-01   2.0893751056816900e-01   2.1938751951640961e-01   2.0365251733538273e-01   2.1459586578795559e-01   1.9742352181564427e-01   2.0829508119144052e-01   1.9017630319569354e-01   1.9830983576481950e-01   1.7940533765689912e-01   1.9154610957937948e-01   1.6745702869685641e-01   1.8201269760453848e-01   1.6973010574546385e-01   1.7025013882673024e-01   1.4145730739140469e-01   1.5656306500710945e-01   1.2488979859546138e-01   1.4075396114530422e-01   1.0615022405693560e-01   1.2631314050572451e-01   8.5032746841149864e-02   1.0715436024472452e-01   6.1329176219307752e-02   8.5439550107592452e-02   3.4839212067505343e-02   6.0953915751059413e-02   5.3826201536094475e-03   3.3495223817006273e-02   0.0000000000000000e+00   2.8867560023596839e-03   0.0000000000000000e+00   0.0000000000000000e+00   0.0000000000000000e+00   0.0000000000000000e+00   0.0000000000000000e+00   0.0000000000000000e+00   0.0000000000000000e+00   0.0000000000000000e+00   0.0000000000000000e+00   0.0000000000000000e+00   0.0000000000000000e+00   0.0000000000000000e+00   0.0000000000000000e+00   0.0000000000000000e+00   0.0000000000000000e+00   0.0000000000000000e+00   0.0000000000000000e+00   0.0000000000000000e+00   0.0000000000000000e+00   0.0000000000000000e+00   0.0000000000000000e+00   0.0000000000000000e+00   0.0000000000000000e+00   0.0000000000000000e+00   0.0000000000000000e+00   0.0000000000000000e+00   2.3572609240393758e-01   2.3463788099424793e-01   2.3953092745560570e-01   2.3196507889862597e-01   2.3888340738647135e-01   2.2752401496669683e-01   2.3656217991121847e-01   2.2112478153757364e-01   2.3237248863996493e-01   2.0818574228680237e-01   2.2611201487305360e-01   1.9878822006265284e-01   2.1756767781305086e-01   1.8716538083034406e-01   2.0329347317963020e-01   1.7661588140064963e-01   1.9152745279851219e-01   1.6266592305286562e-01   1.7715942563486192e-01   1.4626410192702019e-01   1.6570833097023771e-01   1.2714768072062202e-01   1.4881428204318661e-01   1.0503483704639272e-01   1.2901072223329715e-01   8.5338530833387327e-02   1.0599843429365781e-01   5.8929191248855047e-02   8.4385473502377115e-02   2.9171905471255428e-02   5.7082754811412256e-02   0.0000000000000000e+00   2.5987556166047945e-02   0.0000000000000000e+00   0.0000000000000000e+00   0.0000000000000000e+00   0.0000000000000000e+00   0.0000000000000000e+00   0.0000000000000000e+00   0.0000000000000000e+00   0.0000000000000000e+00   0.0000000000000000e+00   0.0000000000000000e+00   0.0000000000000000e+00   0.0000000000000000e+00   0.0000000000000000e+00   0.0000000000000000e+00   0.0000000000000000e+00   0.0000000000000000e+00   0.0000000000000000e+00   0.0000000000000000e+00   0.0000000000000000e+00   0.0000000000000000e+00   0.0000000000000000e+00   0.0000000000000000e+00   0.0000000000000000e+00   0.0000000000000000e+00   2.4688781226212936e-01   2.4842086488191698e-01   2.5156069001719000e-01   2.4830552943677181e-01   2.5327526604298806e-01   2.4633263462270785e-01   2.5325768977256757e-01   2.4228713879044661e-01   2.5129072707626804e-01   2.3594481011447410e-01   2.4715061067960878e-01   2.2706843209041147e-01   2.4060340941930242e-01   2.1540348926361969e-01   2.3140022608580404e-01   1.9942107373533347e-01   2.1927300245350251e-01   1.8411420771284498e-01   2.0281015747643744e-01   1.7022153304304855e-01   1.8687150595348515e-01   1.5250787205321614e-01   1.7219865087950245e-01   1.3096506270615504e-01   1.5350356031639853e-01   1.0576960523603068e-01   1.3089755780773302e-01   7.6591795433272922e-02   1.0440299196522962e-01   5.0978615161135256e-02   7.3678200643937181e-02   1.6829051036079245e-02   4.5284116760168809e-02   0.0000000000000000e+00   1.0640444831805360e-02   0.0000000000000000e+00   0.0000000000000000e+00   0.0000000000000000e+00   0.0000000000000000e+00   0.0000000000000000e+00   0.0000000000000000e+00   0.0000000000000000e+00   0.0000000000000000e+00   0.0000000000000000e+00   0.0000000000000000e+00   0.0000000000000000e+00   0.0000000000000000e+00   0.0000000000000000e+00   0.0000000000000000e+00   0.0000000000000000e+00   0.0000000000000000e+00   0.0000000000000000e+00   0.0000000000000000e+00   0.0000000000000000e+00   0.0000000000000000e+00   2.5734569873463220e-01   2.6079663044730844e-01   2.6175970029020906e-01   2.6258293333010829e-01   2.6518581096017613e-01   2.6247898497823180e-01   2.6688075448446452e-01   2.6025490612768287e-01   2.6661477603884920e-01   2.5567177694282256e-01   2.6415230514499349e-01   2.4847586910743141e-01   2.5924602998731600e-01   2.3839243130080351e-01   2.5162966662229963e-01   2.2512143553651698e-01   2.4101181537649149e-01   2.0778301838083452e-01   2.2707163733599109e-01   1.9032166976190198e-01   2.0931300761537569e-01   1.7400897952748037e-01   1.9094945476035557e-01   1.5321973768927724e-01   1.7373877844599925e-01   1.2811179479896223e-01   1.5180076070876325e-01   9.8598586545874486e-02   1.2521852459802585e-01   6.4316245884901396e-02   9.3946881685123607e-02   3.4249689198183102e-02   6.3191011665152091e-02   0.0000000000000000e+00   2.6185343805220512e-02   0.0000000000000000e+00   0.0000000000000000e+00   0.0000000000000000e+00   0.0000000000000000e+00   0.0000000000000000e+00   0.0000000000000000e+00   0.0000000000000000e+00   0.0000000000000000e+00   0.0000000000000000e+00   0.0000000000000000e+00   0.0000000000000000e+00   0.0000000000000000e+00   0.0000000000000000e+00   0.0000000000000000e+00   0.0000000000000000e+00   0.0000000000000000e+00   0.0000000000000000e+00   0.0000000000000000e+00   2.6470673130098205e-01   2.6950678739248618e-01   2.6808989045945114e-01   2.7269716422630302e-01   2.7274643227962997e-01   2.7404561975073716e-01   2.7575294373939185e-01   2.7331522765845934e-01   2.7687547621236464e-01   2.7025623174120911e-01   2.7587104288725195e-01   2.6459712963163418e-01   2.7247795047581475e-01   2.5603615982098149e-01   2.6640560084479215e-01   2.4423560740367656e-01   2.5732653479104156e-01   2.2881882553997901e-01   2.4487107837866376e-01   2.1020020956856281e-01   2.2862570803478607e-01   1.8975110508443457e-01   2.0950100117470030e-01   1.7051224451678401e-01   1.8781908924596052e-01   1.4601407669865299e-01   1.6738157076758003e-01   1.1597764370127275e-01   1.4141662992060439e-01   8.0627366792908620e-02   1.0935038933039233e-01   4.6227316463025865e-02   7.1651419100705896e-02   5.7281007427449808e-03   3.7096656843938300e-02   0.0000000000000000e+00   0.0000000000000000e+00   0.0000000000000000e+00   0.0000000000000000e+00   0.0000000000000000e+00   0.0000000000000000e+00   0.0000000000000000e+00   0.0000000000000000e+00   0.0000000000000000e+00   0.0000000000000000e+00   0.0000000000000000e+00   0.0000000000000000e+00   0.0000000000000000e+00   0.0000000000000000e+00   0.0000000000000000e+00   0.0000000000000000e+00   2.6748374238510703e-01   2.7326195903934969e-01   2.6942821957557600e-01   2.7757094837340673e-01   2.7504344399109382e-01   2.8017828411252910e-01   2.7917971420711774e-01   2.8084061294474044e-01   2.8160100029594537e-01   2.7929109090576298e-01   2.8205171041592603e-01   2.7522745199771143e-01   2.8024317591402537e-01   2.6830197139591488e-01   2.7584140473858937e-01   2.5811517589205463e-01   2.6845844312295553e-01   2.4421250621560053e-01   2.5764690223825532e-01   2.2608469470026865e-01   2.4289825401618514e-01   2.0564360229001852e-01   2.2364420983525454e-01   1.8101446017577991e-01   2.0229629924868789e-01   1.5767505372608506e-01   1.7586641200059433e-01   1.2831593591416546e-01   1.5076358758972952e-01   9.1524834878752445e-02   1.1945932232015873e-01   5.4560688927029997e-02   7.9988017856717164e-02   1.1929234490939066e-02   4.2923775848254478e-02   0.0000000000000000e+00   0.0000000000000000e+00   0.0000000000000000e+00   0.0000000000000000e+00   0.0000000000000000e+00   0.0000000000000000e+00   0.0000000000000000e+00   0.0000000000000000e+00   0.0000000000000000e+00   0.0000000000000000e+00   0.0000000000000000e+00   0.0000000000000000e+00   0.0000000000000000e+00   0.0000000000000000e+00   2.6501525765635209e-01   2.7160975662295278e-01   2.6541330561177007e-01   2.7696509183441081e-01   2.7192173499705541e-01   2.8084686711816986e-01   2.7720968642845056e-01   2.8299467542172668e-01   2.8103030280040608e-01   2.8310597030113333e-01   2.8309765228354061e-01   2.8082279595538834e-01   2.8307122197320711e-01   2.7572186979918839e-01   2.8054367307431549e-01   2.6730885751350997e-01   2.7503312619456433e-01   2.5501571422447622e-01   2.6597876469776666e-01   2.3820229934109161e-01   2.5274058236300978e-01   2.1686228912584954e-01   2.3460375383380730e-01   1.9231687321571636e-01   2.1200667027419268e-01   1.6682129312634036e-01   1.8527683185394347e-01   1.3522886941971107e-01   1.5764120151570288e-01   9.6563502264954831e-02   1.2386328574508376e-01   5.8521514228987243e-02   8.2258841554803439e-02   1.3082977793569659e-02   4.3598105820868580e-02   0.0000000000000000e+00   0.0000000000000000e+00   0.0000000000000000e+00   0.0000000000000000e+00   0.0000000000000000e+00   0.0000000000000000e+00   0.0000000000000000e+00   0.0000000000000000e+00   0.0000000000000000e+00   0.0000000000000000e+00   0.0000000000000000e+00   0.0000000000000000e+00   2.5725815144758307e-01   2.6470075924759251e-01   2.5622020774646836e-01   2.7121532620949251e-01   2.6373842743101583e-01   2.7655091706946050e-01   2.7036390506602354e-01   2.8040620139937705e-01   2.7581634396970078e-01   2.8241254327194765e-01   2.7974918991724851e-01   2.8212193900498950e-01   2.8173524046913495e-01   2.7899902377146324e-01   2.8125674232538567e-01   2.7241744731726752e-01   2.7770029400790935e-01   2.6166002559601326e-01   2.7035550572554257e-01   2.4592555637653957e-01   2.5841954746638457e-01   2.2434626348996309e-01   2.4101049516864242e-01   1.9835993994890913e-01   2.1719768302797496e-01   1.6628358629941883e-01   1.8905630530681933e-01   1.3634473461485075e-01   1.5853920391801285e-01   9.5503879024637306e-02   1.2228434354885134e-01   5.6505992609808299e-02   8.3648777600058566e-02   1.3558611309869321e-02   3.9770443000292040e-02   0.0000000000000000e+00   0.0000000000000000e+00   0.0000000000000000e+00   0.0000000000000000e+00   0.0000000000000000e+00   0.0000000000000000e+00   0.0000000000000000e+00   0.0000000000000000e+00   0.0000000000000000e+00   0.0000000000000000e+00   2.4458203704239470e-01   2.5307044104435389e-01   2.4237428006342213e-01   2.6099715822807956e-01   2.5116371368198404e-01   2.6806571832046167e-01   2.5942007792442745e-01   2.7389839709251268e-01   2.6679417654290682e-01   2.7802204317296519e-01   2.7283967917705992e-01   2.7985959446696884e-01   2.7700283888882432e-01   2.7872594736821632e-01   2.7861700985231030e-01   2.7382904266113550e-01   2.7690256911809974e-01   2.6427733849555596e-01   2.7097253892336098e-01   2.4909915529216869e-01   2.5984836918400839e-01   2.2728162606977637e-01   2.4249192815973164e-01   1.9864031407486588e-01   2.1786626668038789e-01   1.6463678085911188e-01   1.8666037811003158e-01   1.3153946311040532e-01   1.5318587051201904e-01   9.3286568469218442e-02   1.1493256602848605e-01   5.0544286400227609e-02   7.6907233261775870e-02   9.6931619793395301e-03   3.6921948677171863e-02   0.0000000000000000e+00   0.0000000000000000e+00   0.0000000000000000e+00   0.0000000000000000e+00   0.0000000000000000e+00   0.0000000000000000e+00   0.0000000000000000e+00   0.0000000000000000e+00   2.2764847046910636e-01   2.3750449349534175e-01   2.2466349977421543e-01   2.4717445597858548e-01   2.3507518765295132e-01   2.5627617711107131e-01   2.4528953323271371e-01   2.6431376650044774e-01   2.5484563523350362e-01   2.7066893029934752e-01   2.6315559831198893e-01   2.7459831868744611e-01   2.6950065375013421e-01   2.7523638588657273