<?xml version="1.0"?>
<VTKFile type="UnstructuredGrid"  version="0.1"  >
<UnstructuredGrid>
<Piece  NumberOfPoints="617" NumberOfCells="1135">
<Points>
<DataArray  type="Float64"  NumberOfComponents="3"  format="ascii">0 0 0  0.01652173913043478 0 0  0.01652173913043478 0.01666666666666667 0  0 0.01666666666666667 0  0.03304347826086956 0 0  0.03304347826086956 0.01666666666666667 0  0.04956521739130434 0 0  0.04956521739130434 0.01666666666666667 0  0.06608695652173913 0 0  0.06608695652173913 0.01666666666666667 0  0.08260869565217391 0 0  0.08260869565217391 0.01666666666666667 0  0.09913043478260869 0.01666666666666667 0  0.01652173913043478 0.03333333333333333 0  0 0.03333333333333333 0  0.03304347826086956 0.03333333333333333 0  0.04956521739130434 0.03333333333333333 0  0.06608695652173913 0.03333333333333333 0  0.08260869565217391 0.03333333333333333 0  0.09913043478260869 0.03333333333333333 0  0.1156521739130435 0.03333333333333333 0  0.01652173913043478 0.05 0  0 0.05 0  0.03304347826086956 0.05 0  0.04956521739130434 0.05 0  0.06608695652173913 0.05 0  0.08260869565217391 0.05 0  0.09913043478260869 0.05 0  0.1156521739130435 0.05 0  0.1321739130434783 0.05 0  0.01652173913043478 0.06666666666666667 0  0 0.06666666666666667 0  0.03304347826086956 0.06666666666666667 0  0.04956521739130434 0.06666666666666667 0  0.06608695652173913 0.06666666666666667 0  0.08260869565217391 0.06666666666666667 0  0.09913043478260869 0.06666666666666667 0  0.1156521739130435 0.06666666666666667 0  0.1321739130434783 0.06666666666666667 0  0.148695652173913 0.06666666666666667 0  0.01652173913043478 0.08333333333333333 0  0 0.08333333333333333 0  0.03304347826086956 0.08333333333333333 0  0.04956521739130434 0.08333333333333333 0  0.06608695652173913 0.08333333333333333 0  0.08260869565217391 0.08333333333333333 0  0.09913043478260869 0.08333333333333333 0  0.1156521739130435 0.08333333333333333 0  0.1321739130434783 0.08333333333333333 0  0.148695652173913 0.08333333333333333 0  0.1652173913043478 0.08333333333333333 0  0.01652173913043478 0.1 0  0 0.1 0  0.03304347826086956 0.1 0  0.04956521739130434 0.1 0  0.06608695652173913 0.1 0  0.08260869565217391 0.1 0  0.09913043478260869 0.1 0  0.1156521739130435 0.1 0  0.1321739130434783 0.1 0  0.148695652173913 0.1 0  0.1652173913043478 0.1 0  0.1817391304347826 0.1 0  0.01652173913043478 0.1166666666666667 0  0 0.1166666666666667 0  0.03304347826086956 0.1166666666666667 0  0.04956521739130434 0.1166666666666667 0  0.06608695652173913 0.1166666666666667 0  0.08260869565217391 0.1166666666666667 0  0.09913043478260869 0.1166666666666667 0  0.1156521739130435 0.1166666666666667 0  0.1321739130434783 0.1166666666666667 0  0.148695652173913 0.1166666666666667 0  0.1652173913043478 0.1166666666666667 0  0.1817391304347826 0.1166666666666667 0  0.1982608695652174 0.1166666666666667 0  0.01652173913043478 0.1333333333333333 0  0 0.1333333333333333 0  0.03304347826086956 0.1333333333333333 0  0.04956521739130434 0.1333333333333333 0  0.06608695652173913 0.1333333333333333 0  0.08260869565217391 0.1333333333333333 0  0.09913043478260869 0.1333333333333333 0  0.1156521739130435 0.1333333333333333 0  0.1321739130434783 0.1333333333333333 0  0.148695652173913 0.1333333333333333 0  0.1652173913043478 0.1333333333333333 0  0.1817391304347826 0.1333333333333333 0  0.1982608695652174 0.1333333333333333 0  0.2147826086956522 0.1333333333333333 0  0.01652173913043478 0.15 0  0 0.15 0  0.03304347826086956 0.15 0  0.04956521739130434 0.15 0  0.06608695652173913 0.15 0  0.08260869565217391 0.15 0  0.09913043478260869 0.15 0  0.1156521739130435 0.15 0  0.1321739130434783 0.15 0  0.148695652173913 0.15 0  0.1652173913043478 0.15 0  0.1817391304347826 0.15 0  0.1982608695652174 0.15 0  0.2147826086956522 0.15 0  0.2313043478260869 0.15 0  0.01652173913043478 0.1666666666666667 0  0 0.1666666666666667 0  0.03304347826086956 0.1666666666666667 0  0.04956521739130434 0.1666666666666667 0  0.06608695652173913 0.1666666666666667 0  0.08260869565217391 0.1666666666666667 0  0.09913043478260869 0.1666666666666667 0  0.1156521739130435 0.1666666666666667 0  0.1321739130434783 0.1666666666666667 0  0.148695652173913 0.1666666666666667 0  0.1652173913043478 0.1666666666666667 0  0.1817391304347826 0.1666666666666667 0  0.1982608695652174 0.1666666666666667 0  0.2147826086956522 0.1666666666666667 0  0.2313043478260869 0.1666666666666667 0  0.2478260869565218 0.1666666666666667 0  0.01652173913043478 0.1833333333333333 0  0 0.1833333333333333 0  0.03304347826086956 0.1833333333333333 0  0.04956521739130434 0.1833333333333333 0  0.06608695652173913 0.1833333333333333 0  0.08260869565217391 0.1833333333333333 0  0.09913043478260869 0.1833333333333333 0  0.1156521739130435 0.1833333333333333 0  0.1321739130434783 0.1833333333333333 0  0.148695652173913 0.1833333333333333 0  0.1652173913043478 0.1833333333333333 0  0.1817391304347826 0.1833333333333333 0  0.1982608695652174 0.1833333333333333 0  0.2147826086956522 0.1833333333333333 0  0.2313043478260869 0.1833333333333333 0  0.2478260869565218 0.1833333333333333 0  0.2643478260869565 0.1833333333333333 0  0.01652173913043478 0.2 0  0 0.2 0  0.03304347826086956 0.2 0  0.04956521739130434 0.2 0  0.06608695652173913 0.2 0  0.08260869565217391 0.2 0  0.09913043478260869 0.2 0  0.1156521739130435 0.2 0  0.1321739130434783 0.2 0  0.148695652173913 0.2 0  0.1652173913043478 0.2 0  0.1817391304347826 0.2 0  0.1982608695652174 0.2 0  0.2147826086956522 0.2 0  0.2313043478260869 0.2 0  0.2478260869565218 0.2 0  0.2643478260869565 0.2 0  0.2808695652173913 0.2 0  0.01652173913043478 0.2166666666666667 0  0 0.2166666666666667 0  0.03304347826086956 0.2166666666666667 0  0.04956521739130434 0.2166666666666667 0  0.06608695652173913 0.2166666666666667 0  0.08260869565217391 0.2166666666666667 0  0.09913043478260869 0.2166666666666667 0  0.1156521739130435 0.2166666666666667 0  0.1321739130434783 0.2166666666666667 0  0.148695652173913 0.2166666666666667 0  0.1652173913043478 0.2166666666666667 0  0.1817391304347826 0.2166666666666667 0  0.1982608695652174 0.2166666666666667 0  0.2147826086956522 0.2166666666666667 0  0.2313043478260869 0.2166666666666667 0  0.2478260869565218 0.2166666666666667 0  0.2643478260869565 0.2166666666666667 0  0.2808695652173913 0.2166666666666667 0  0.2973913043478261 0.2166666666666667 0  0.01652173913043478 0.2333333333333333 0  0 0.2333333333333333 0  0.03304347826086956 0.2333333333333333 0  0.04956521739130434 0.2333333333333333 0  0.06608695652173913 0.2333333333333333 0  0.08260869565217391 0.2333333333333333 0  0.09913043478260869 0.2333333333333333 0  0.1156521739130435 0.2333333333333333 0  0.1321739130434783 0.2333333333333333 0  0.148695652173913 0.2333333333333333 0  0.1652173913043478 0.2333333333333333 0  0.1817391304347826 0.2333333333333333 0  0.1982608695652174 0.2333333333333333 0  0.2147826086956522 0.2333333333333333 0  0.2313043478260869 0.2333333333333333 0  0.2478260869565218 0.2333333333333333 0  0.2643478260869565 0.2333333333333333 0  0.2808695652173913 0.2333333333333333 0  0.2973913043478261 0.2333333333333333 0  0.01652173913043478 0.25 0  0 0.25 0  0.03304347826086956 0.25 0  0.04956521739130434 0.25 0  0.06608695652173913 0.25 0  0.08260869565217391 0.25 0  0.09913043478260869 0.25 0  0.1156521739130435 0.25 0  0.1321739130434783 0.25 0  0.148695652173913 0.25 0  0.1652173913043478 0.25 0  0.1817391304347826 0.25 0  0.1982608695652174 0.25 0  0.2147826086956522 0.25 0  0.2313043478260869 0.25 0  0.2478260869565218 0.25 0  0.2643478260869565 0.25 0  0.2808695652173913 0.25 0  0.2973913043478261 0.25 0  0.01652173913043478 0.2666666666666667 0  0 0.2666666666666667 0  0.03304347826086956 0.2666666666666667 0  0.04956521739130434 0.2666666666666667 0  0.06608695652173913 0.2666666666666667 0  0.08260869565217391 0.2666666666666667 0  0.09913043478260869 0.2666666666666667 0  0.1156521739130435 0.2666666666666667 0  0.1321739130434783 0.2666666666666667 0  0.148695652173913 0.2666666666666667 0  0.1652173913043478 0.2666666666666667 0  0.1817391304347826 0.2666666666666667 0  0.1982608695652174 0.2666666666666667 0  0.2147826086956522 0.2666666666666667 0  0.2313043478260869 0.2666666666666667 0  0.2478260869565218 0.2666666666666667 0  0.2643478260869565 0.2666666666666667 0  0.2808695652173913 0.2666666666666667 0  0.2973913043478261 0.2666666666666667 0  0.3139130434782609 0.2666666666666667 0  0.01652173913043478 0.2833333333333333 0  0 0.2833333333333333 0  0.03304347826086956 0.2833333333333333 0  0.04956521739130434 0.2833333333333333 0  0.06608695652173913 0.2833333333333333 0  0.08260869565217391 0.2833333333333333 0  0.09913043478260869 0.2833333333333333 0  0.1156521739130435 0.2833333333333333 0  0.1321739130434783 0.2833333333333333 0  0.148695652173913 0.2833333333333333 0  0.1652173913043478 0.2833333333333333 0  0.1817391304347826 0.2833333333333333 0  0.1982608695652174 0.2833333333333333 0  0.2147826086956522 0.2833333333333333 0  0.2313043478260869 0.2833333333333333 0  0.2478260869565218 0.2833333333333333 0  0.2643478260869565 0.2833333333333333 0  0.2808695652173913 0.2833333333333333 0  0.2973913043478261 0.2833333333333333 0  0.3139130434782609 0.2833333333333333 0  0.3304347826086956 0.2833333333333333 0  0.01652173913043478 0.3 0  0 0.3 0  0.03304347826086956 0.3 0  0.04956521739130434 0.3 0  0.06608695652173913 0.3 0  0.08260869565217391 0.3 0  0.09913043478260869 0.3 0  0.1156521739130435 0.3 0  0.1321739130434783 0.3 0  0.148695652173913 0.3 0  0.1652173913043478 0.3 0  0.1817391304347826 0.3 0  0.1982608695652174 0.3 0  0.2147826086956522 0.3 0  0.2313043478260869 0.3 0  0.2478260869565218 0.3 0  0.2643478260869565 0.3 0  0.2808695652173913 0.3 0  0.2973913043478261 0.3 0  0.3139130434782609 0.3 0  0.3304347826086956 0.3 0  0.3469565217391304 0.3 0  0.01652173913043478 0.3166666666666667 0  0 0.3166666666666667 0  0.03304347826086956 0.3166666666666667 0  0.04956521739130434 0.31666666
[...]
<PointData  Vectors="Displacement"> 
<DataArray  type="Float64"  Name="Displacement"  NumberOfComponents="3" format="ascii">0.0000000000000000e+00 0.0000000000000000e+00 0.0000000000000000e+00  6.0364299395144410e-06 3.0515655770609179e-06 0.0000000000000000e+00  3.3915868096801668e-06 1.6203508081536908e-06 0.0000000000000000e+00  0.0000000000000000e+00 0.0000000000000000e+00 0.0000000000000000e+00  1.1606585229841803e-05 6.7904332665766926e-06 0.0000000000000000e+00  7.1197869256993179e-06 5.2873469853592672e-06 0.0000000000000000e+00  1.7068702927195034e-05 1.2226190172150965e-05 0.0000000000000000e+00  1.0726171518461047e-05 1.0746412821011897e-05 0.0000000000000000e+00  2.2452040767751067e-05 1.9522708900068029e-05 0.0000000000000000e+00  1.4193713686596665e-05 1.8083085647113963e-05 0.0000000000000000e+00  2.7782713302796535e-05 2.8704129614608355e-05 0.0000000000000000e+00  1.7541837385459165e-05 2.7291548438849365e-05 0.0000000000000000e+00  2.0800241913819547e-05 3.8425288302523252e-05 0.0000000000000000e+00  1.4527698926574836e-06 1.0829431144891276e-06 0.0000000000000000e+00  0.0000000000000000e+00 0.0000000000000000e+00 0.0000000000000000e+00  3.0809250081697451e-06 4.4547536068353970e-06 0.0000000000000000e+00  4.7088977532343746e-06 9.9078871927932656e-06 0.0000000000000000e+00  6.2120482377010116e-06 1.7317631599234492e-05 0.0000000000000000e+00  7.5636159155300920e-06 2.6571926098084758e-05 0.0000000000000000e+00  8.7818368363379481e-06 3.7688494755880751e-05 0.0000000000000000e+00  9.8618642896818674e-06 5.0916129887488045e-05 0.0000000000000000e+00  -3.2682318530716715e-07 1.0673106341291395e-06 0.0000000000000000e+00  0.0000000000000000e+00 0.0000000000000000e+00 0.0000000000000000e+00  -6.4175992499570834e-07 4.2854014521988828e-06 0.0000000000000000e+00  -1.0064739508434959e-06 9.7184897988918501e-06 0.0000000000000000e+00  -1.4488152443309625e-06 1.7211337751430734e-05 0.0000000000000000e+00  -1.9727748050447373e-06 2.6532044373875820e-05 0.0000000000000000e+00  -2.6772885222759484e-06 3.7566060231520515e-05 0.0000000000000000e+00  -3.5343033596474061e-06 5.0671546843230193e-05 0.0000000000000000e+00  -4.6449634401634332e-06 6.6418266234596841e-05 0.0000000000000000e+00  -2.0426041408610462e-06 1.5161448765119896e-06 0.0000000000000000e+00  0.0000000000000000e+00 0.0000000000000000e+00 0.0000000000000000e+00  -4.1486531210737913e-06 4.6500730284573806e-06 0.0000000000000000e+00  -6.4136232686621291e-06 1.0172376712008555e-05 0.0000000000000000e+00  -8.8745944852048362e-06 1.7612943811779829e-05 0.0000000000000000e+00  -1.0825054390384973e-05 2.6863376382161569e-05 0.0000000000000000e+00  -1.2502098360345856e-05 3.7695502258802485e-05 0.0000000000000000e+00  -1.4840418230087027e-05 5.0665094642121773e-05 0.0000000000000000e+00  -1.8962427929376734e-05 6.6586972130560447e-05 0.0000000000000000e+00  -2.2822652879123624e-05 8.3973974897496407e-05 0.0000000000000000e+00  -3.1939428718041657e-06 2.2046915565340070e-06 0.0000000000000000e+00  0.0000000000000000e+00 0.0000000000000000e+00 0.0000000000000000e+00  -6.3975312754091044e-06 5.3206259239276947e-06 0.0000000000000000e+00  -1.1781110208904387e-05 1.0929740906148677e-05 0.0000000000000000e+00  -1.6103470394204652e-05 1.8438876935257610e-05 0.0000000000000000e+00  -1.9113609005491410e-05 2.7434541714931490e-05 0.0000000000000000e+00  -2.3417777544168014e-05 3.8254841598979014e-05 0.0000000000000000e+00  -2.0996628015888835e-05 5.3974130024805330e-05 0.0000000000000000e+00  -2.1411248788126943e-05 6.9874907364497451e-05 0.0000000000000000e+00  -2.2266502764813173e-05 8.6796816987358164e-05 0.0000000000000000e+00  -2.2211155087629477e-05 1.0538991893038714e-04 0.0000000000000000e+00  -2.4281208835384340e-06 3.9427750374841214e-06 0.0000000000000000e+00  0.0000000000000000e+00 0.0000000000000000e+00 0.0000000000000000e+00  -5.6231241937075931e-06 8.4386803949812818e-06 0.0000000000000000e+00  -9.3740736506947640e-06 1.4803696348588176e-05 0.0000000000000000e+00  -1.3077404621284339e-05 2.2357566896205491e-05 0.0000000000000000e+00  -1.6369635648793572e-05 3.1412011444949104e-05 0.0000000000000000e+00  -1.9252258816260485e-05 4.2542371339231967e-05 0.0000000000000000e+00  -2.1175700620893861e-05 5.5855145819107074e-05 0.0000000000000000e+00  -2.2276798556827145e-05 7.1639959999023767e-05 0.0000000000000000e+00  -2.3337004975095399e-05 8.8338502794247081e-05 0.0000000000000000e+00  -2.4165559379510560e-05 1.0625865466967383e-04 0.0000000000000000e+00  -2.4595349413165669e-05 1.2577760383599093e-04 0.0000000000000000e+00  -2.2143864230117745e-06 5.1074889766688550e-06 0.0000000000000000e+00  0.0000000000000000e+00 0.0000000000000000e+00 0.0000000000000000e+00  -5.0279646969620869e-06 1.0743357566843864e-05 0.0000000000000000e+00  -8.2622064907688585e-06 1.7594112762997058e-05 0.0000000000000000e+00  -1.1576040331568914e-05 2.5541173079792416e-05 0.0000000000000000e+00  -1.4820864866593386e-05 3.4826454214478117e-05 0.0000000000000000e+00  -1.7852676352967205e-05 4.5849042682385039e-05 0.0000000000000000e+00  -2.0491476847216804e-05 5.8704196615517974e-05 0.0000000000000000e+00  -2.2646524602542125e-05 7.3538391272571553e-05 0.0000000000000000e+00  -2.4346578640873722e-05 8.9733628637116730e-05 0.0000000000000000e+00  -2.5774822193106191e-05 1.0711348531319748e-04 0.0000000000000000e+00  -2.6904202267479826e-05 1.2575086037589837e-04 0.0000000000000000e+00  -2.7675462976722218e-05 1.4531948175703033e-04 0.0000000000000000e+00  -2.1743183607322115e-06 5.9594457059578081e-06 0.0000000000000000e+00  0.0000000000000000e+00 0.0000000000000000e+00 0.0000000000000000e+00  -4.8062093900037907e-06 1.2421939501159790e-05 0.0000000000000000e+00  -7.7900149971332993e-06 1.9781923078684140e-05 0.0000000000000000e+00  -1.0938203923990501e-05 2.8123599545485007e-05 0.0000000000000000e+00  -1.4140298210818596e-05 3.7668778717571457e-05 0.0000000000000000e+00  -1.7279545894562293e-05 4.8681395808014765e-05 0.0000000000000000e+00  -2.0217581799266712e-05 6.1277390262402611e-05 0.0000000000000000e+00  -2.2846250873807186e-05 7.5511366770551880e-05 0.0000000000000000e+00  -2.5097903592354650e-05 9.1107029379294686e-05 0.0000000000000000e+00  -2.7025524789919867e-05 1.0790761759683417e-04 0.0000000000000000e+00  -2.8652338876098270e-05 1.2582045099140846e-04 0.0000000000000000e+00  -2.9957695144101706e-05 1.4462412823682905e-04 0.0000000000000000e+00  -3.0971590439414143e-05 1.6410685085840236e-04 0.0000000000000000e+00  -2.2246070686744373e-06 6.6108391630700786e-06 0.0000000000000000e+00  0.0000000000000000e+00 0.0000000000000000e+00 0.0000000000000000e+00  -4.8098898339813624e-06 1.3699850721318500e-05 0.0000000000000000e+00  -7.6930061937974949e-06 2.1526038628428283e-05 0.0000000000000000e+00  -1.0766564740717228e-05 3.0231925981328503e-05 0.0000000000000000e+00  -1.3944026029318929e-05 4.0011650601496953e-05 0.0000000000000000e+00  -1.7128393006833097e-05 5.1057392177685267e-05 0.0000000000000000e+00  -2.0207702150995276e-05 6.3474354859224656e-05 0.0000000000000000e+00  -2.3080233148074847e-05 7.7292590083009126e-05 0.0000000000000000e+00  -2.5670539778932096e-05 9.2378854163270525e-05 0.0000000000000000e+00  -2.7968361334214418e-05 1.0861747093857712e-04 0.0000000000000000e+00  -2.9974969181231226e-05 1.2588947032355420e-04 0.0000000000000000e+00  -3.1686603332060989e-05 1.4401744046446110e-04 0.0000000000000000e+00  -3.3120900460194921e-05 1.6282820699862943e-04 0.0000000000000000e+00  -3.4310173306916258e-05 1.8215856548856697e-04 0.0000000000000000e+00  -2.3217060490754698e-06 7.1249977268445884e-06 0.0000000000000000e+00  0.0000000000000000e+00 0.0000000000000000e+00 0.0000000000000000e+00  -4.9335463069461726e-06 1.4703622142108763e-05 0.0000000000000000e+00  -7.7951938350115918e-06 2.2926716780071577e-05 0.0000000000000000e+00  -1.0839617298721690e-05 3.1943131453386481e-05 0.0000000000000000e+00  -1.3999147526500328e-05 4.1918263548019509e-05 0.0000000000000000e+00  -1.7194224530288881e-05 5.3001492237849117e-05 0.0000000000000000e+00  -2.0334422941274744e-05 6.5283310281551474e-05 0.0000000000000000e+00  -2.3333075870488879e-05 7.8789663694484754e-05 0.0000000000000000e+00  -2.6121135790992497e-05 9.3454265420813153e-05 0.0000000000000000e+00  -2.8665924094721138e-05 1.0919302152381512e-04 0.0000000000000000e+00  -3.0952211169891880e-05 1.2589850982816484e-04 0.0000000000000000e+00  -3.2975201310496940e-05 1.4342743385961464e-04 0.0000000000000000e+00  -3.4746917905335130e-05 1.6163273131482994e-04 0.0000000000000000e+00  -3.6291834485322174e-05 1.8036902406952775e-04 0.0000000000000000e+00  -3.7643471616526917e-05 1.9949009014866287e-04 0.0000000000000000e+00  -2.4385661695018647e-06 7.5374169821638297e-06 0.0000000000000000e+00  0.0000000000000000e+00 0.0000000000000000e+00 0.0000000000000000e+00  -5.1110318006525838e-06 1.5501857758654733e-05 0.0000000000000000e+00  -7.9883558997869604e-06 2.4046992104140580e-05 0.0000000000000000e+00  -1.1024560728174452e-05 3.3311885468459745e-05 0.0000000000000000e+00  -1.4166651607775078e-05 4.3437464593015302e-05 0.0000000000000000e+00  -1.7350864201031423e-05 5.4545374169740182e-05 0.0000000000000000e+00  -2.0505349979371456e-05 6.6713904249552294e-05 0.0000000000000000e+00  -2.3559644196073525e-05 7.9970118719847668e-05 0.0000000000000000e+00  -2.6454819563091913e-05 9.4281442256178972e-05 0.0000000000000000e+00  -2.9153500774118391e-05 1.0958703181604800e-04 0.0000000000000000e+00  -3.1634127691954865e-05 1.2579838854674165e-04 0.0000000000000000e+00  -3.3888894700975977e-05 1.4280004834397824e-04 0.0000000000000000e+00  -3.5925251723326583e-05 1.6046761409428139e-04 0.0000000000000000e+00  -3.7762939161014089e-05 1.7867415974179662e-04 0.0000000000000000e+00  -3.9432266602504597e-05 1.9729297866094680e-04 0.0000000000000000e+00  -4.0974715393642618e-05 2.1620451791478580e-04 0.0000000000000000e+00  -2.5583761482533177e-06 7.8673190113208566e-06 0.0000000000000000e+00  0.0000000000000000e+00 0.0000000000000000e+00 0.0000000000000000e+00  -5.3019760549418464e-06 1.6131914429592616e-05 0.0000000000000000e+00  -8.2074635017091015e-06 2.4926194672285709e-05 0.0000000000000000e+00  -1.1240797417814637e-05 3.4376989966155490e-05 0.0000000000000000e+00  -1.4360580168956371e-05 4.4606592534320559e-05 0.0000000000000000e+00  -1.7516934018815669e-05 5.5718239825429167e-05 0.0000000000000000e+00  -2.0654117460348857e-05 6.7781319251067755e-05 0.0000000000000000e+00  -2.3716830017454454e-05 8.0824718422494615e-05 0.0000000000000000e+00  -2.6657237115784316e-05 9.4834133822595455e-05 0.0000000000000000e+00  -2.9440990621678274e-05 1.0976575469054820e-04 0.0000000000000000e+00  -3.2046456461467153e-05 1.2554888464956957e-04 0.0000000000000000e+00  -3.4464749109412685e-05 1.4209018666002391e-04 0.0000000000000000e+00  -3.6700235545840005e-05 1.5928496316157081e-04 0.0000000000000000e+00  -3.8768803954214018e-05 1.7702364781406005e-04 0.0000000000000000e+00  -4.0696607989848440e-05 1.9519676441212766e-04 0.0000000000000000e+00  -4.2519686382494113e-05 2.1370181151654760e-04 0.0000000000000000e+00  -4.4283156395047367e-05 2.3245208465550338e-04 0.0000000000000000e+00  -2.6708522287012768e-06 8.1246440308124621e-06 0.0000000000000000e+00  0.0000000000000000e+00 0.0000000000000000e+00 0.0000000000000000e+00  -5.4820380247601986e-06 1.6613963092946730e-05 0.0000000000000000e+00  -8.4134737966416404e-06 2.5588370623151665e-05 0.0000000000000000e+00  -1.1438861946068219e-05 3.5164812455239198e-05 0.0000000000000000e+00  -1.4526382305736909e-05 4.5452640673950650e-05 0.0000000000000000e+00  -1.7638297046818007e-05 5.6543126112884422e-05 0.0000000000000000e+00  -2.0732879621269710e-05 6.8499655458553762e-05 0.0000000000000000e+00  -2.3768517230216841e-05 8.1352649670687394e-05 0.0000000000000000e+00  -2.6708404662753192e-05 9.5098450217684710e-05 0.0000000000000000e+00  -2.9524464062420253e-05 1.0970564568553659e-04 0.0000000000000000e+00  -3.2198249206065654e-05 1.2511807431956791e-04 0.0000000000000000e+00  -3.4721735244261519e-05 1.4125952587605513e-04 0.0000000000000000e+00  -3.7097712821629414e-05 1.5804157213646184e-04 0.0000000000000000e+00  -3.9338868024852146e-05 1.7536959574763049e-04 0.0000000000000000e+00  -4.1466774449443654e-05 1.9314824887893610e-04 0.0000000000000000e+00  -4.3510943386702526e-05 2.1128771007368572e-04 0.0000000000000000e+00  -4.5507184758462303e-05 2.2971060332427655e-04 0.0000000000000000e+00  -4.7494299120561304e-05 2.4835902047271057e-04 0.0000000000000000e+00  -2.7697678129859526e-06 8.3140186652227085e-06 0.0000000000000000e+00  0.0000000000000000e+00 0.0000000000000000e+00 0.0000000000000000e+00  -5.6365324341387998e-06 1.6958227142941310e-05 0.0000000000000000e+00  -8.5826187972123809e-06 2.6047201696470845e-05 0.0000000000000000e+00  -1.1587694608885661e-05 3.5691738911127517e-05 0.0000000000000000e+00  -1.4628356359357966e-05 4.5993252830038079e-05 0.0000000000000000e+00  -1.7677702923482317e-05 5.7035773951770516e-05 0.0000000000000000e+00  -2.0706409550352549e-05 6.8879025738691901e-05 0.0000000000000000e+00  -2.3685194436100763e-05 8.1554635359502774e-05 0.0000000000000000e+00  -2.6587803341838697e-05 9.5065502061212346e-05 0.0000000000000000e+00  -2.9393612326579542e-05 1.0938907495586846e-04 0.0000000000000000e+00  -3.2088889300734271e-05 1.2448022411358362e-04 0.0000000000000000e+00  -3.4667741610982184e-05 1.4027555622105173e-04 0.0000000000000000e+00  -3.7132528579288923e-05 1.5669933347848585e-04 0.0000000000000000e+00  -3.9493399352545732e-05 1.7366883865003300e-04 0.0000000000000000e+00  -4.1767474492394935e-05 1.9109955073872033e-04 0.0000000000000000e+00  -4.3977706308143336e-05 2.0891054096357730e-04 0.0000000000000000e+00  -4.6151034017050386e-05 2.2702977011962702e-04 0.0000000000000000e+00  -4.8315404030697700e-05 2.4539841833143825e-04 0.0000000000000000e+00  -2.8513304392763154e-06 8.4368531370648677e-06 0.0000000000000000e+00  0.0000000000000000e+00 0.0000000000000000e+00 0.0000000000000000e+00  -5.7563894892325096e-06 1.7168634247604370e-05 0.0000000000000000e+00  -8.6998613927237999e-06 2.6308779334746513e-05 0.0000000000000000e+00  -1.1666851660368752e-05 3.5965879716066254e-05 0.0000000000000000e+00  -1.4641901750124002e-05 4.6237673393595955e-05 0.0000000000000000e+00  -1.7608178865241528e-05 5.7204538862380786e-05 0.0000000000000000e+00  -2.0547667931248832e-05 6.8924340831489814e-05 0.0000000000000000e+00  -2.3442360278981172e-05 8.1429663177955228e-05 0.0000000000000000e+00  -2.6275959794178191e-05 9.4727490911794359e-05 0.0000000000000000e+00  -2.9035542099510808e-05 1.0880131166031080e-04 0.0000000000000000e+00  -3.1712676331820983e-05 1.2361380403229320e-04 0.0000000000000000e+00  -3.4304287297393099e-05 1.3911067319619219e-04 0.0000000000000000e+00  -3.6813063367581007e-05 1.5522543074293618e-04 0.0000000000000000e+00  -3.9247240096696328e-05 1.7188409264830911e-04 0.0000000000000000e+00  -4.1619948696408225e-05 1.8900980102621594e-04 0.0000000000000000e+00  -4.3948120240564257e-05 2.0652736896151997e-04 0.0000000000000000e+00  -4.6250768947380920e-05 2.2436737329133288e-04 0.0000000000000000e+00  -4.8546516941719939e-05 2.4246907043135477e-04 0.0000000000000000e+00  -2.9131164526661237e-06 8.4923433848291663e-06 0.0000000000000000e+00  0.0000000000000000e+00 0.0000000000000000e+00 0.0000000000000000e+00  -5.8355870817234167e-06 1.7244545238846442e-05 0.0000000000000000e+00  -8.7548258108797545e-06 2.6373049516328852e-05 0.0000000000000000e+00  -1.1661595671594148e-05 3.5988130928601126e-05 0.0000000000000000e+00  -1.4548503761533141e-05 4.6187505958789056e-05 0.0000000000000000e+00  -1.7408558618573640e-05 5.7050664806018298e-05 0.0000000000000000e+00  -2.0234464181492830e-05 6.8634915573136614e-05 0.0000000000000000e+00  -2.3018759318208593e-05 8.0973508697383654e-05 0.0000000000000000e+00  -2.5754543718414751e-05 9.4075731879281365e-05 0.0000000000000000e+00  -2.8436423683863516e-05 1.0792871855307155e-04 0.0000000000000000e+00  -3.1061356388037394e-05 1.2250007506802579e-04 0.0000000000000000e+00  -3.3629362611485278e-05 1.3774136670537235e-04 0.0000000000000000e+00  -3.6143913747500498e-05 1.5359219090917858e-04 0.0000000000000000e+00  -3.8611859923176252e-05 1.6998429552621296e-04 0.0000000000000000e+00  -4.1042938818388892e-05 1.8684562156582839e-04 0.0000000000000000e+00  -4.3448843627988730e-05 2.0410412165354134e-04 0.0000000000000000e+00  -4.5841783817278142e-05 2.2169100744441896e-04 0.0000000000000000e+00  -4.8232537286192379e-05 2.3954290522531181e-04 0.0000000000000000e+00  -5.0628185071506660e-05 2.5760229108669360e-04 0.0000000000000000e+00  -2.9533409601337729e-06 8.4778327785336363e-06 0.0000000000000000e+00  0.0000000000000000e+00 0.0000000000000000e+00 0.0000000000000000e+00  -5.8694362686816819e-06 1.7181389304156010e-05 0.0000000000000000e+00  -8.7391114323500235e-06 2.6234375503193613e-05 0.0000000000000000e+00  -1.1559599373943768e-05 3.5752677421477853e-05 0.0000000000000000e+00  -1.4332266385474429e-05 4.5837192649036963e-05 0.0000000000000000e+00  -1.7060259515080977e-05 5.6568613313838861e-05 0.0000000000000000e+00  -1.9746856726647772e-05 6.8004470978016578e-05 0.0000000000000000e+00  -2.2394712648292940e-05 8.0178186355168022e-05 0.0000000000000000e+00  -2.5005831083667006e-05 9.3099765301289555e-05 0.0000000000000000e+00  -2.7581988153026095e-05 1.0675780163024727e-04 0.0000000000000000e+00  -3.0125330566813455e-05 1.2112221994207568e-04 0.0000000000000000e+00  -3.2638974476445116e-05 1.3614758595024553e-04 0.0000000000000000e+00  -3.5127392808245679e-05 1.5177673869286104e-04 0.0000000000000000e+00  -3.7596455996576264e-05 1.6794444203644665e-04 0.0000000000000000e+00  -4.0053102415990061e-05 1.8458092202838102e-04 0.0000000000000000e+00  -4.2504620241197485e-05 2.0161511508603089e-04 0.0000000000000000e+00  -4.4957531717678923e-05 2.1897734131062454e-04 0.0000000000000000e+00  -4.7416134586524415e-05 2.3660104676257815e-04 0.0000000000000000e+00  -4.9880871444993332e-05 2.5442328193612677e-04 0.0000000000000000e+00  -5.2346804918334930e-05 2.7238393939763223e-04 0.0000000000000000e+00  -2.9702928428319010e-06 8.3887590395009999e-06 0.0000000000000000e+00  0.0000000000000000e+00 0.0000000000000000e+00 0.0000000000000000e+00  -5.8532794592988625e-06 1.6970582854252501e-05 0.0000000000000000e+00  -8.6442748328505851e-06 2.5881436401938714e-05 0.0000000000000000e+00  -1.1348450332856059e-05 3.5247003326517457e-05 0.0000000000000000e+00  -1.3977247346081541e-05 4.5174196952516184e-05 0.0000000000000000e+00  -1.6544747436899147e-05 5.5746332041664100e-05 0.0000000000000000e+00  -1.9065015972038929e-05 6.7021331533432239e-05 0.0000000000000000e+00  -2.1550594266698722e-05 7.9031910776917165e-05 0.0000000000000000e+00  -2.4011927845261554e-05 9.1787111259997506e-05 0.0000000000000000e+00  -2.6457465550439858e-05 1.0527483649841372e-04 0.0000000000000000e+00  -2.8894136843943219e-05 1.1946489719392994e-04 0.0000000000000000e+00  -3.1327934255680292e-05 1.3431229786396056e-04 0.0000000000000000e+00  -3.3764355725988214e-05 1.4976059058137612e-04 0.0000000000000000e+00  -3.6208563209544590e-05 1.6574515811774442e-04 0.0000000000000000e+00  -3.8665216361359130e-05 1.8219634199984527e-04 0.0000000000000000e+00  -4.1137977318600969e-05 1.9904226627982514e-04 0.0000000000000000e+00  -4.3628710041999511e-05 2.1621113294279545e-04 0.0000000000000000e+00  -4.6136450129104807e-05 2.3363274776366693e-04 0.0000000000000000e+00  -4.8656285668862781e-05 2.5123907892812825e-04 0.0000000000000000e+00  -5.1178331693895308e-05 2.6896383822301714e-04 0.0000000000000000e+00  -5.3686937911847174e-05 2.8674118763763224e-04 0.0000000000000000e+00  -2.9617862894508319e-06 8.2182479095739999e-06 0.0000000000000000e+00  0.0000000000000000e+00 0.0000000000000000e+00 0.0000000000000000e+00  -5.7812489916733668e-06 1.6598840245279332e-05 0.0000000000000000e+00  -8.4599549578884565e-06 2.5296529972233060e-05 0.0000000000000000e+00  -1.1013381613863239e-05 3.44514545