<?xml version="1.0"?>
<VTKFile type="UnstructuredGrid"  version="0.1"  >
<UnstructuredGrid>
<Piece  NumberOfPoints="621" NumberOfCells="1125">
<Points>
<DataArray  type="Float64"  NumberOfComponents="3"  format="ascii">1.883478260869565 0 0  1.9 0 0  1.9 0.01666666666666667 0  1.883478260869565 0.01666666666666667 0  1.916521739130435 0 0  1.916521739130435 0.01666666666666667 0  1.933043478260869 0 0  1.933043478260869 0.01666666666666667 0  1.949565217391304 0 0  1.949565217391304 0.01666666666666667 0  1.966086956521739 0 0  1.966086956521739 0.01666666666666667 0  1.982608695652174 0 0  1.982608695652174 0.01666666666666667 0  1.999130434782608 0 0  1.999130434782608 0.01666666666666667 0  2.015652173913043 0 0  2.015652173913043 0.01666666666666667 0  2.032173913043478 0 0  2.032173913043478 0.01666666666666667 0  2.048695652173913 0 0  2.048695652173913 0.01666666666666667 0  2.065217391304348 0 0  2.065217391304348 0.01666666666666667 0  2.081739130434782 0 0  2.081739130434782 0.01666666666666667 0  2.098260869565217 0 0  2.098260869565217 0.01666666666666667 0  2.114782608695652 0 0  2.114782608695652 0.01666666666666667 0  2.131304347826087 0 0  2.131304347826087 0.01666666666666667 0  2.147826086956522 0 0  2.147826086956522 0.01666666666666667 0  2.164347826086956 0 0  2.164347826086956 0.01666666666666667 0  2.180869565217391 0 0  2.180869565217391 0.01666666666666667 0  2.197391304347826 0 0  2.197391304347826 0.01666666666666667 0  2.213913043478261 0 0  2.213913043478261 0.01666666666666667 0  2.230434782608695 0 0  2.230434782608695 0.01666666666666667 0  2.24695652173913 0 0  2.24695652173913 0.01666666666666667 0  2.263478260869565 0 0  2.263478260869565 0.01666666666666667 0  2.28 0 0  2.28 0.01666666666666667 0  2.296521739130434 0 0  2.296521739130434 0.01666666666666667 0  2.31304347826087 0 0  2.31304347826087 0.01666666666666667 0  2.329565217391304 0 0  2.329565217391304 0.01666666666666667 0  2.346086956521739 0 0  2.346086956521739 0.01666666666666667 0  2.362608695652174 0 0  2.362608695652174 0.01666666666666667 0  2.379130434782609 0 0  2.379130434782609 0.01666666666666667 0  2.395652173913044 0 0  2.395652173913044 0.01666666666666667 0  2.412173913043478 0 0  2.412173913043478 0.01666666666666667 0  2.428695652173913 0 0  2.428695652173913 0.01666666666666667 0  2.445217391304348 0 0  2.445217391304348 0.01666666666666667 0  2.461739130434782 0 0  2.461739130434782 0.01666666666666667 0  2.478260869565217 0 0  2.478260869565217 0.01666666666666667 0  2.494782608695652 0 0  2.494782608695652 0.01666666666666667 0  2.511304347826087 0 0  2.511304347826087 0.01666666666666667 0  2.527826086956522 0 0  2.527826086956522 0.01666666666666667 0  2.544347826086956 0 0  2.544347826086956 0.01666666666666667 0  2.560869565217391 0 0  2.560869565217391 0.01666666666666667 0  2.577391304347826 0 0  2.577391304347826 0.01666666666666667 0  1.916521739130435 0.03333333333333333 0  1.933043478260869 0.03333333333333333 0  1.949565217391304 0.03333333333333333 0  1.966086956521739 0.03333333333333333 0  1.982608695652174 0.03333333333333333 0  1.999130434782608 0.03333333333333333 0  2.015652173913043 0.03333333333333333 0  2.032173913043478 0.03333333333333333 0  2.048695652173913 0.03333333333333333 0  2.065217391304348 0.03333333333333333 0  2.081739130434782 0.03333333333333333 0  2.098260869565217 0.03333333333333333 0  2.114782608695652 0.03333333333333333 0  2.131304347826087 0.03333333333333333 0  2.147826086956522 0.03333333333333333 0  2.164347826086956 0.03333333333333333 0  2.180869565217391 0.03333333333333333 0  2.197391304347826 0.03333333333333333 0  2.213913043478261 0.03333333333333333 0  2.230434782608695 0.03333333333333333 0  2.24695652173913 0.03333333333333333 0  2.263478260869565 0.03333333333333333 0  2.28 0.03333333333333333 0  2.296521739130434 0.03333333333333333 0  2.31304347826087 0.03333333333333333 0  2.329565217391304 0.03333333333333333 0  2.346086956521739 0.03333333333333333 0  2.362608695652174 0.03333333333333333 0  2.379130434782609 0.03333333333333333 0  2.395652173913044 0.03333333333333333 0  2.412173913043478 0.03333333333333333 0  2.428695652173913 0.03333333333333333 0  2.445217391304348 0.03333333333333333 0  2.461739130434782 0.03333333333333333 0  2.478260869565217 0.03333333333333333 0  2.494782608695652 0.03333333333333333 0  2.511304347826087 0.03333333333333333 0  2.527826086956522 0.03333333333333333 0  2.544347826086956 0.03333333333333333 0  2.560869565217391 0.03333333333333333 0  2.577391304347826 0.03333333333333333 0  2.593913043478261 0.03333333333333333 0  1.933043478260869 0.05 0  1.949565217391304 0.05 0  1.966086956521739 0.05 0  1.982608695652174 0.05 0  1.999130434782608 0.05 0  2.015652173913043 0.05 0  2.032173913043478 0.05 0  2.048695652173913 0.05 0  2.065217391304348 0.05 0  2.081739130434782 0.05 0  2.098260869565217 0.05 0  2.114782608695652 0.05 0  2.131304347826087 0.05 0  2.147826086956522 0.05 0  2.164347826086956 0.05 0  2.180869565217391 0.05 0  2.197391304347826 0.05 0  2.213913043478261 0.05 0  2.230434782608695 0.05 0  2.24695652173913 0.05 0  2.263478260869565 0.05 0  2.28 0.05 0  2.296521739130434 0.05 0  2.31304347826087 0.05 0  2.329565217391304 0.05 0  2.346086956521739 0.05 0  2.362608695652174 0.05 0  2.379130434782609 0.05 0  2.395652173913044 0.05 0  2.412173913043478 0.05 0  2.428695652173913 0.05 0  2.445217391304348 0.05 0  2.461739130434782 0.05 0  2.478260869565217 0.05 0  2.494782608695652 0.05 0  2.511304347826087 0.05 0  2.527826086956522 0.05 0  2.544347826086956 0.05 0  2.560869565217391 0.05 0  2.577391304347826 0.05 0  2.593913043478261 0.05 0  2.610434782608696 0.05 0  1.949565217391304 0.06666666666666667 0  1.966086956521739 0.06666666666666667 0  1.982608695652174 0.06666666666666667 0  1.999130434782608 0.06666666666666667 0  2.015652173913043 0.06666666666666667 0  2.032173913043478 0.06666666666666667 0  2.048695652173913 0.06666666666666667 0  2.065217391304348 0.06666666666666667 0  2.081739130434782 0.06666666666666667 0  2.098260869565217 0.06666666666666667 0  2.114782608695652 0.06666666666666667 0  2.131304347826087 0.06666666666666667 0  2.147826086956522 0.06666666666666667 0  2.164347826086956 0.06666666666666667 0  2.180869565217391 0.06666666666666667 0  2.197391304347826 0.06666666666666667 0  2.213913043478261 0.06666666666666667 0  2.230434782608695 0.06666666666666667 0  2.24695652173913 0.06666666666666667 0  2.263478260869565 0.06666666666666667 0  2.28 0.06666666666666667 0  2.296521739130434 0.06666666666666667 0  2.31304347826087 0.06666666666666667 0  2.329565217391304 0.06666666666666667 0  2.346086956521739 0.06666666666666667 0  2.362608695652174 0.06666666666666667 0  2.379130434782609 0.06666666666666667 0  2.395652173913044 0.06666666666666667 0  2.412173913043478 0.06666666666666667 0  2.428695652173913 0.06666666666666667 0  2.445217391304348 0.06666666666666667 0  2.461739130434782 0.06666666666666667 0  2.478260869565217 0.06666666666666667 0  2.494782608695652 0.06666666666666667 0  2.511304347826087 0.06666666666666667 0  2.527826086956522 0.06666666666666667 0  2.544347826086956 0.06666666666666667 0  2.560869565217391 0.06666666666666667 0  2.577391304347826 0.06666666666666667 0  2.593913043478261 0.06666666666666667 0  2.610434782608696 0.06666666666666667 0  2.62695652173913 0.06666666666666667 0  1.966086956521739 0.08333333333333333 0  1.982608695652174 0.08333333333333333 0  1.999130434782608 0.08333333333333333 0  2.015652173913043 0.08333333333333333 0  2.032173913043478 0.08333333333333333 0  2.048695652173913 0.08333333333333333 0  2.065217391304348 0.08333333333333333 0  2.081739130434782 0.08333333333333333 0  2.098260869565217 0.08333333333333333 0  2.114782608695652 0.08333333333333333 0  2.131304347826087 0.08333333333333333 0  2.147826086956522 0.08333333333333333 0  2.164347826086956 0.08333333333333333 0  2.180869565217391 0.08333333333333333 0  2.197391304347826 0.08333333333333333 0  2.213913043478261 0.08333333333333333 0  2.230434782608695 0.08333333333333333 0  2.24695652173913 0.08333333333333333 0  2.263478260869565 0.08333333333333333 0  2.28 0.08333333333333333 0  2.296521739130434 0.08333333333333333 0  2.31304347826087 0.08333333333333333 0  2.329565217391304 0.08333333333333333 0  2.346086956521739 0.08333333333333333 0  2.362608695652174 0.08333333333333333 0  2.379130434782609 0.08333333333333333 0  2.395652173913044 0.08333333333333333 0  2.412173913043478 0.08333333333333333 0  2.428695652173913 0.08333333333333333 0  2.445217391304348 0.08333333333333333 0  2.461739130434782 0.08333333333333333 0  2.478260869565217 0.08333333333333333 0  2.494782608695652 0.08333333333333333 0  2.511304347826087 0.08333333333333333 0  2.527826086956522 0.08333333333333333 0  2.544347826086956 0.08333333333333333 0  2.560869565217391 0.08333333333333333 0  2.577391304347826 0.08333333333333333 0  2.593913043478261 0.08333333333333333 0  2.610434782608696 0.08333333333333333 0  2.62695652173913 0.08333333333333333 0  2.643478260869565 0.08333333333333333 0  1.982608695652174 0.1 0  1.999130434782608 0.1 0  2.015652173913043 0.1 0  2.032173913043478 0.1 0  2.048695652173913 0.1 0  2.065217391304348 0.1 0  2.081739130434782 0.1 0  2.098260869565217 0.1 0  2.114782608695652 0.1 0  2.131304347826087 0.1 0  2.147826086956522 0.1 0  2.164347826086956 0.1 0  2.180869565217391 0.1 0  2.197391304347826 0.1 0  2.213913043478261 0.1 0  2.230434782608695 0.1 0  2.24695652173913 0.1 0  2.263478260869565 0.1 0  2.28 0.1 0  2.296521739130434 0.1 0  2.31304347826087 0.1 0  2.329565217391304 0.1 0  2.346086956521739 0.1 0  2.362608695652174 0.1 0  2.379130434782609 0.1 0  2.395652173913044 0.1 0  2.412173913043478 0.1 0  2.428695652173913 0.1 0  2.445217391304348 0.1 0  2.461739130434782 0.1 0  2.478260869565217 0.1 0  2.494782608695652 0.1 0  2.511304347826087 0.1 0  2.527826086956522 0.1 0  2.544347826086956 0.1 0  2.560869565217391 0.1 0  2.5773
[...]
<PointData  Vectors="Displacement"> 
<DataArray  type="Float64"  Name="Displacement"  NumberOfComponents="3" format="ascii">2.4441141015971586e-04 1.7424009586122172e-03 0.0000000000000000e+00  2.4648967166793261e-04 1.7685791902159671e-03 0.0000000000000000e+00  2.1963263495166250e-04 1.7680443146563067e-03 0.0000000000000000e+00  2.1852885742629287e-04 1.7418651851918532e-03 0.0000000000000000e+00  2.4854815505958363e-04 1.7957061585307519e-03 0.0000000000000000e+00  2.2075083017211443e-04 1.7951719638804233e-03 0.0000000000000000e+00  2.5058705646350301e-04 1.8237484847809353e-03 0.0000000000000000e+00  2.2188390781723301e-04 1.8232147384357837e-03 0.0000000000000000e+00  2.5260597430320022e-04 1.8526721275445121e-03 0.0000000000000000e+00  2.2303259848275230e-04 1.8521390455483848e-03 0.0000000000000000e+00  2.5460412495577686e-04 1.8824410570283780e-03 0.0000000000000000e+00  2.2419707303108374e-04 1.8819091816384341e-03 0.0000000000000000e+00  2.5658112735997508e-04 1.9130181791647226e-03 0.0000000000000000e+00  2.2537645253857601e-04 1.9124877731394440e-03 0.0000000000000000e+00  2.5853730966912859e-04 1.9443679526225807e-03 0.0000000000000000e+00  2.2656951896707578e-04 1.9438387852210304e-03 0.0000000000000000e+00  2.6047314347211076e-04 1.9764571606744529e-03 0.0000000000000000e+00  2.2777585365105861e-04 1.9759289569390970e-03 0.0000000000000000e+00  2.6238877050288129e-04 2.0092530177994281e-03 0.0000000000000000e+00  2.2899589458810814e-04 2.0087256773974878e-03 0.0000000000000000e+00  2.6428405997644177e-04 2.0427217206323523e-03 0.0000000000000000e+00  2.3023032193509081e-04 2.0421952305086522e-03 0.0000000000000000e+00  2.6615878631454560e-04 2.0768283126262350e-03 0.0000000000000000e+00  2.3147971189996360e-04 2.0763027611424450e-03 0.0000000000000000e+00  2.6801281099147171e-04 2.1115369903416639e-03 0.0000000000000000e+00  2.3274427357404119e-04 2.1110124981913135e-03 0.0000000000000000e+00  2.6984619437715995e-04 2.1468119966665754e-03 0.0000000000000000e+00  2.3402372273714602e-04 2.1462886033215460e-03 0.0000000000000000e+00  2.7165910753659540e-04 2.1826184490038357e-03 0.0000000000000000e+00  2.3531755351716016e-04 2.1820961267894107e-03 0.0000000000000000e+00  2.7345168292145357e-04 2.2189222720490841e-03 0.0000000000000000e+00  2.3662542000824606e-04 2.2184009815070477e-03 0.0000000000000000e+00  2.7522395421447822e-04 2.2556896645642027e-03 0.0000000000000000e+00  2.3794725181537255e-04 2.2551693787244403e-03 0.0000000000000000e+00  2.7697587604276339e-04 2.2928866793507151e-03 0.0000000000000000e+00  2.3928316394845249e-04 2.2923673932410903e-03 0.0000000000000000e+00  2.7870736215629952e-04 2.3304790202123538e-03 0.0000000000000000e+00  2.4063332765099154e-04 2.3299607820999836e-03 0.0000000000000000e+00  2.8041837878705299e-04 2.3684320340576566e-03 0.0000000000000000e+00  2.4199780617722728e-04 2.3679149022544097e-03 0.0000000000000000e+00  2.8210902528858883e-04 2.4067112119983201e-03 0.0000000000000000e+00  2.4337641920454644e-04 2.4061951427783858e-03 0.0000000000000000e+00  2.8377940492437420e-04 2.4452827580172050e-03 0.0000000000000000e+00  2.4476893754660369e-04 2.4447676491943168e-03 0.0000000000000000e+00  2.8542945762400539e-04 2.4841131340070013e-03 0.0000000000000000e+00  2.4617545328935652e-04 2.4835989216317102e-03 0.0000000000000000e+00  2.8705895257030966e-04 2.5231681390928962e-03 0.0000000000000000e+00  2.4759640742669258e-04 2.5226548606810781e-03 0.0000000000000000e+00  2.8866763104266928e-04 2.5624123974566345e-03 0.0000000000000000e+00  2.4903226939875916e-04 2.5619002300909179e-03 0.0000000000000000e+00  2.9025551934390897e-04 2.6018097645469527e-03 0.0000000000000000e+00  2.5048304354877734e-04 2.6012988020712542e-03 0.0000000000000000e+00  2.9182295332204561e-04 2.6413250712636104e-03 0.0000000000000000e+00  2.5194811052463095e-04 2.6408152048810435e-03 0.0000000000000000e+00  2.9337016720698761e-04 2.6809248545184594e-03 0.0000000000000000e+00  2.5342687906540181e-04 2.6804159997069164e-03 0.0000000000000000e+00  2.9489713897600038e-04 2.7205759642690325e-03 0.0000000000000000e+00  2.5491931475088848e-04 2.7200681027001270e-03 0.0000000000000000e+00  2.9640372058706976e-04 2.7602446614535280e-03 0.0000000000000000e+00  2.5642570790261284e-04 2.7597377948414448e-03 0.0000000000000000e+00  2.9788975417315407e-04 2.7998965721189573e-03 0.0000000000000000e+00  2.5794636998536965e-04 2.7993907246969970e-03 0.0000000000000000e+00  2.9935513962801348e-04 2.8394968463082942e-03 0.0000000000000000e+00  2.5948149855631834e-04 2.8389920531796207e-03 0.0000000000000000e+00  3.0079987407036923e-04 2.8790104848710339e-03 0.0000000000000000e+00  2.6103111300226879e-04 2.8785067497990075e-03 0.0000000000000000e+00  3.0222400548201206e-04 2.9184027200942590e-03 0.0000000000000000e+00  2.6259511009278869e-04 2.9179000221594433e-03 0.0000000000000000e+00  3.0362755421374564e-04 2.9576390265703642e-03 0.0000000000000000e+00  2.6417341550346104e-04 2.9571373516140581e-03 0.0000000000000000e+00  3.0501049578045064e-04 2.9966848753466249e-03 0.0000000000000000e+00  2.6576605081460574e-04 2.9961842163498094e-03 0.0000000000000000e+00  3.0637278082290537e-04 3.0355055973623258e-03 0.0000000000000000e+00  2.6737309543769009e-04 3.0350059505229680e-03 0.0000000000000000e+00  3.0771435013286698e-04 3.0740663466661956e-03 0.0000000000000000e+00  2.6899464526724458e-04 3.0735677196872171e-03 0.0000000000000000e+00  3.0903515382562963e-04 3.1123320858305833e-03 0.0000000000000000e+00  2.7063077889384146e-04 3.1118344994942502e-03 0.0000000000000000e+00  3.1033518386817954e-04 3.1502676679648059e-03 0.0000000000000000e+00  2.7228151069277429e-04 3.1497711300745128e-03 0.0000000000000000e+00  3.1161446815131116e-04 3.1878380467785655e-03 0.0000000000000000e+00  2.7394678431288965e-04 3.1873425432353028e-03 0.0000000000000000e+00  3.1287301951606961e-04 3.2250083439862242e-03 0.0000000000000000e+00  2.7562654904042408e-04 3.2245138649379264e-03 0.0000000000000000e+00  3.1411081733668660e-04 3.2617436802472449e-03 0.0000000000000000e+00  2.7732081802139027e-04 3.2612502273999017e-03 0.0000000000000000e+00  1.9331010283612905e-04 1.7948243634890908e-03 0.0000000000000000e+00  1.9353146648914935e-04 1.8228533748132752e-03 0.0000000000000000e+00  1.9380348688746780e-04 1.8517672987324622e-03 0.0000000000000000e+00  1.9412570856796766e-04 1.8815353459574434e-03 0.0000000000000000e+00  1.9449497232866013e-04 1.9121167193428361e-03 0.0000000000000000e+00  1.9490568602085806e-04 1.9434669002400960e-03 0.0000000000000000e+00  1.9535897955174207e-04 1.9755508680020426e-03 0.0000000000000000e+00  1.9586215799777292e-04 2.0083403953104896e-03 0.0000000000000000e+00  1.9641756992081603e-04 2.0418026698468517e-03 0.0000000000000000e+00  1.9702616112877208e-04 2.0759031229958765e-03 0.0000000000000000e+00  1.9768913808813505e-04 2.1106068140821100e-03 0.0000000000000000e+00  1.9840429652771856e-04 2.1458777508502769e-03 0.0000000000000000e+00  1.9916731230387586e-04 2.1816801440092790e-03 0.0000000000000000e+00  1.9997648318573997e-04 2.2179795617600609e-03 0.0000000000000000e+00  2.0083253938643533e-04 2.2547422501395498e-03 0.0000000000000000e+00  2.0173680583534455e-04 2.2919343759094653e-03 0.0000000000000000e+00  2.0269050083069926e-04 2.3295217633012445e-03 0.0000000000000000e+00  2.0369519141655865e-04 2.3674700836475997e-03 0.0000000000000000e+00  2.0475011123768401e-04 2.4057448485956877e-03 0.0000000000000000e+00  2.0585115929354253e-04 2.4443117038410191e-03 0.0000000000000000e+00  2.0699738869142052e-04 2.4831369146920443e-03 0.0000000000000000e+00  2.0819186171306626e-04 2.5221864867800746e-03 0.0000000000000000e+00  2.0943906325926974e-04 2.5614254262925347e-03 0.0000000000000000e+00  2.1074288185561502e-04 2.6008180888494065e-03 0.0000000000000000e+00  2.1209806222545732e-04 2.6403289602525610e-03 0.0000000000000000e+00  2.1349615420440644e-04 2.6799239693518621e-03 0.0000000000000000e+00  2.1493846376479883e-04 2.7195701293295216e-03 0.0000000000000000e+00  2.1642863169940886e-04 2.7592338281046732e-03 0.0000000000000000e+00  2.1796845795046116e-04 2.7988806891185037e-03 0.0000000000000000e+00  2.1955912019966048e-04 2.8384759227850142e-03 0.0000000000000000e+00  2.2120078822740664e-04 2.8779845639984258e-03 0.0000000000000000e+00  2.2289195133572701e-04 2.9173717872879169e-03 0.0000000000000000e+00  2.2463149144133986e-04 2.9566030417109679e-03 0.0000000000000000e+00  2.2641971841289130e-04 2.9956438189245021e-03 0.0000000000000000e+00  2.2825719217910861e-04 3.0344594492234434e-03 0.0000000000000000e+00  2.3014434281317853e-04 3.0730150854443262e-03 0.0000000000000000e+00  2.3208174824979730e-04 3.1112757103689253e-03 0.0000000000000000e+00  2.3406984772808532e-04 3.1492061939661945e-03 0.0000000000000000e+00  2.3610804129590169e-04 3.1867714698404883e-03 0.0000000000000000e+00  2.3819541885578807e-04 3.2239366451164366e-03 0.0000000000000000e+00  2.4033212293234286e-04 3.2606668562476580e-03 0.0000000000000000e+00  2.4251871779220775e-04 3.2969271137728491e-03 0.0000000000000000e+00  1.7583010479153713e-04 1.8144062990921030e-03 0.0000000000000000e+00  1.7629725502777115e-04 1.8426615969915677e-03 0.0000000000000000e+00  1.7685240675370143e-04 1.8718067588990321e-03 0.0000000000000000e+00  1.7749553062529775e-04 1.9018086325375350e-03 0.0000000000000000e+00  1.7822269631910677e-04 1.9326321802448285e-03 0.0000000000000000e+00  1.7902781891597082e-04 1.9642440147686503e-03 0.0000000000000000e+00  1.7990506286254262e-04 1.9966139681276535e-03 0.0000000000000000e+00  1.8084864195068112e-04 2.0297103515191208e-03 0.0000000000000000e+00  1.8185217432633736e-04 2.0634979207569100e-03 0.0000000000000000e+00  1.8290930587231549e-04 2.0979395721664779e-03 0.0000000000000000e+00  1.8401379137334507e-04 2.1329973364314510e-03 0.0000000000000000e+00  1.8515977608123861e-04 2.1686323843238113e-03 0.0000000000000000e+00  1.8634286785641039e-04 2.2048054408166664e-03 0.0000000000000000e+00  1.8756076328569900e-04 2.2414776407226138e-03 0.0000000000000000e+00  1.8881293781532497e-04 2.2786106973576967e-03 0.0000000000000000e+00  1.9010005622837974e-04 2.3161667403068750e-03 0.0000000000000000e+00  1.9142344293021621e-04 2.3541083727066734e-03 0.0000000000000000e+00  1.9278448019705431e-04 2.3923990944355066e-03 0.0000000000000000e+00  1.9418433980296639e-04 2.4310030151365168e-03 0.0000000000000000e+00  1.9562461682163916e-04 2.4698840627486764e-03 0.0000000000000000e+00  1.9710769778172698e-04 2.5090064386145182e-03 0.0000000000000000e+00  1.9863600133771772e-04 2.5483348362478220e-03 0.0000000000000000e+00  2.0021075320552869e-04 2.5878345609122284e-03 0.0000000000000000e+00  2.0183092267910940e-04 2.6274722126501636e-03 0.0000000000000000e+00  2.0349402921022744e-04 2.6672138885306868e-03 0.0000000000000000e+00  2.0519838595881780e-04 2.7070243314534976e-03 0.0000000000000000e+00  2.0694337442266547e-04 2.7468689687232669e-03 0.0000000000000000e+00  2.0872835202214671e-04 2.7867133587072324e-03 0.0000000000000000e+00  2.1055225089108555e-04 2.8265224716677610e-03 0.0000000000000000e+00  2.1241358912333088e-04 2.8662609475275580e-03 0.0000000000000000e+00  2.1431058672346118e-04 2.9058932495476032e-03 0.0000000000000000e+00  2.1624159115668241e-04 2.9453834136143292e-03 0.0000000000000000e+00  2.1820546370203769e-04 2.9846951892925203e-03 0.0000000000000000e+00  2.2020154597410561e-04 3.0237923104887952e-03 0.0000000000000000e+00  2.2222947017516486e-04 3.0626384123817688e-03 0.0000000000000000e+00  2.2428903517776732e-04 3.1011969759041757e-03 0.0000000000000000e+00  2.2638005816096388e-04 3.1394314628650998e-03 0.0000000000000000e+00  2.2850221449607116e-04 3.1773054397148939e-03 0.0000000000000000e+00  2.3065509414839074e-04 3.2147823590690642e-03 0.0000000000000000e+00  2.3283840185402463e-04 3.2518254104214822e-03 0.0000000000000000e+00  2.3505194727333828e-04 3.2883976931740730e-03 0.0000000000000000e+00  2.3729549659996511e-04 3.3244621857771803e-03 0.0000000000000000e+00  1.5982011812910383e-04 1.8331354836407217e-03 0.0000000000000000e+00  1.6052912186039791e-04 1.8616444672185295e-03 0.0000000000000000e+00  1.6136162340857216e-04 1.8910534906585166e-03 0.0000000000000000e+00  1.6231265006429749e-04 1.9213371042943203e-03 0.0000000000000000e+00  1.6337262989132793e-04 1.9524670752490241e-03 0.0000000000000000e+00  1.6452902511556651e-04 1.9844152209494265e-03 0.0000000000000000e+00  1.6576838567873388e-04 2.0171495884906267e-03 0.0000000000000000e+00  1.6707786485549073e-04 2.0506330919092862e-03 0.0000000000000000e+00  1.6844558980344521e-04 2.0848258318402523e-03 0.0000000000000000e+00  1.6986090568653277e-04 2.1196862451359688e-03 0.0000000000000000e+00  1.7131484285634965e-04 2.1551712367772744e-03 0.0000000000000000e+00  1.7280061776794558e-04 2.1912366583788402e-03 0.0000000000000000e+00  1.7431391510357684e-04 2.2278383769739961e-03 0.0000000000000000e+00  1.7585283744732090e-04 2.2649330257493122e-03 0.0000000000000000e+00  1.7741752583920841e-04 2.3024783089053476e-03 0.0000000000000000e+00  1.7900960535147849e-04 2.3404332227613652e-03 0.0000000000000000e+00  1.8063162376524678e-04 2.3787583169514364e-03 0.0000000000000000e+00  1.8228661670017900e-04 2.4174154905692402e-03 0.0000000000000000e+00  1.8397773427012497e-04 2.4563674670907126e-03 0.0000000000000000e+00  1.8570780869106874e-04 2.4955779134659801e-03 0.0000000000000000e+00  1.8747891365183717e-04 2.5350116394174576e-03 0.0000000000000000e+00  1.8929192020617736e-04 2.5746345723834389e-03 0.0000000000000000e+00  1.9114632165326135e-04 2.6144135934863238e-03 0.0000000000000000e+00  1.9304056655075169e-04 2.6543151651637915e-03 0.0000000000000000e+00  1.9497242946296946e-04 2.6943045692456704e-03 0.0000000000000000e+00  1.9693926850964050e-04 2.7343469261012490e-03 0.0000000000000000e+00  1.9893829775202826e-04 2.7744072586341853e-03 0.0000000000000000e+00  2.0096662252623338e-04 2.8144500245402865e-03 0.0000000000000000e+00  2.0302128734171377e-04 2.8544390739024079e-03 0.0000000000000000e+00  2.0509946581293318e-04 2.8943377052977528e-03 0.0000000000000000e+00  2.0719868323755111e-04 2.9341085912769202e-03 0.0000000000000000e+00  2.0931695194402448e-04 2.9737139351731202e-03 0.0000000000000000e+00  2.1145281971168874e-04 3.0131157562582099e-03 0.0000000000000000e+00  2.1360533159669692e-04 3.0522759810966624e-03 0.0000000000000000e+00  2.1577390461871121e-04 3.0911564687668147e-03 0.0000000000000000e+00  2.1795817574267673e-04 3.1297190968195944e-03 0.0000000000000000e+00  2.2015788234796914e-04 3.1679257982315818e-03 0.0000000000000000e+00  2.2237279507089498e-04 3.2057383930718681e-03 0.0000000000000000e+00  2.2460266082900313e-04 3.2431184373214617e-03 0.0000000000000000e+00  2.2684715895545721e-04 3.2800272398197617e-03 0.0000000000000000e+00  2.2910591402286459e-04 3.3164257793315628e-03 0.0000000000000000e+00  2.3137856910754868e-04 3.3522745022469837e-03 0.0000000000000000e+00  1.4507560137403254e-04 1.8510882535193874e-03 0.0000000000000000e+00  1.4601391528367344e-04 1.8798900912413491e-03 0.0000000000000000e+00  1.4710383400513914e-04 1.9096217392407752e-03 0.0000000000000000e+00  1.4833278778966579e-04 1.9402607320793811e-03 0.0000000000000000e+00  1.4968297805437511e-04 1.9717836441063038e-03 0.0000000000000000e+00  1.5113452936474576e-04 2.0041587784071979e-03 0.0000000000000000e+00  1.5266896567794384e-04 2.0373457193525826e-03 0.0000000000000000e+00  1.5426966419895127e-04 2.0713008568584721e-03 0.0000000000000000e+00  1.5592183360406205e-04 2.1059783625082579e-03 0.0000000000000000e+00  1.5761312638674170e-04 2.1413299839787448e-03 0.0000000000000000e+00  1.5933425801777117e-04 2.1773058304430945e-03 0.0000000000000000e+00  1.6107919348880197e-04 2.2138558875677973e-03 0.0000000000000000e+00  1.6284500250783775e-04 2.2509311624246430e-03 0.0000000000000000e+00  1.6463147213141794e-04 2.2884843570869220e-03 0.0000000000000000e+00  1.6644051908978232e-04 2.3264703235193643e-03 0.0000000000000000e+00  1.6827549553930228e-04 2.3648463604312195e-03 0.0000000000000000e+00  1.7014048026516820e-04 2.4035721394527866e-03 0.0000000000000000e+00  1.7203955229851692e-04 2.4426093692519932e-03 0.0000000000000000e+00  1.7397609510703621e-04 2.4819216330640966e-03 0.0000000000000000e+00  1.7595229679122628e-04 2.5214742182182170e-03 0.0000000000000000e+00  1.7796888147567373e-04 2.5612337677309032e-03 0.0000000000000000e+00  1.8002509347131714e-04 2.6011676961569604e-03 0.0000000000000000e+00  1.8211889614135277e-04 2.6412431021658575e-03 0.0000000000000000e+00  1.8424714059825443e-04 2.6814261072609534e-03 0.0000000000000000e+00  1.8640579676792331e-04 2.7216821009244390e-03 0.0000000000000000e+00  1.8859039284758322e-04 2.7619757602507593e-03 0.0000000000000000e+00  1.9079637825409205e-04 2.8022708615302377e-03 0.0000000000000000e+00  1.9301937148567388e-04 2.8425302345576648e-03 0.0000000000000000e+00  1.9525539695781997e-04 2.8827158111476799e-03 0.0000000000000000e+00  1.9750108178569133e-04 2.9227886993333009e-03 0.0000000000000000e+00  1.9975375631511090e-04 2.9627094018715716e-03 0.0000000000000000e+00  2.0201148346336430e-04 3.0024381066916786e-03 0.0000000000000000e+00  2.0427302341003705e-04 3.0419348846455348e-03 0.0000000000000000e+00  2.0653771452963158e-04 3.0811598113723525e-03 0.0000000000000000e+00  2.0880530422723941e-04 3.1200730526012872e-03 0.0000000000000000e+00  2.1107578143998124e-04 3.1586348642424350e-03 0.0000000000000000e+00  2.1334922719214451e-04 3.1968054529489648e-03 0.0000000000000000e+00  2.1562567674468392e-04 3.2345448036613621e-03 0.0000000000000000e+00  2.1790503278710572e-04 3.2718125423727138e-03 0.0000000000000000e+00  2.2018707890505903e-04 3.3085677299007667e-03 0.0000000000000000e+00  2.2247159039829294e-04 3.3447685812744905e-03 0.0000000000000000e+00  2.2475854204447791e-04 3.3803721959251997e-03 0.0000000000000000e+00  1.3138042421492283e-04 1.8683549496207900e-03 0.0000000000000000e+00  1.3252781142401249e-04 1.8975204995876631e-03 0.0000000000000000e+00  1.3384612074213969e-04 1.9276576321104555e-03 0.0000000000000000e+00  1.3531183729069860e-04 1.9587512149505269e-03 0.0000000000000000e+00  1.3689851939881166e-04 1.9907697472418468e-03 0.0000000000000000e+00  1.3858292283500817e-04 2.0236671044436454e-03 0.0000000000000000e+00  1.4034433933939516e-04 2.0573953162038583e-03 0.0000000000000000e+00  1.4216395721480614e-04 2.0919039772959382e-03 0.0000000000000000e+00  1.4402593287032593e-04 2.1271388393705932e-03 0.0000000000000000e+00  1.4591842935112972e-04 2.1630431472189613e-03 0.0000000000000000e+00  1.4783378748792940e-04 2.1995600926858244e-03 0.0000000000000000e+00  1.4976822825751713e-04 2.2366343718581106e-03 0.0000000000000000e+00  1.5172136040541290e-04 2.2742131118914989e-03 0.0000000000000000e+00  1.5369548882571273e-04 2.3122465733383607e-03 0.0000000000000000e+00  1.5569473933176262e-04 2.3506886156149471e-03 0.0000000000000000e+00  1.5772408827401314e-04 2.3894967587295185e-03 0.0000000000000000e+00  1.5978838872513247e-04 2.4286318854593101e-03 0.0000000000000000e+00  1.6189151433854926e-04 2.4680578061933790e-03 0.0000000000000000e+00  1.6403576751457402e-04 2.5077406816664430e-03 0.0000000000000000e+00  1.6622159760126888e-04 2.5476482820229558e-03 0.0000000000000000e+00  1.6844760219748237e-04 2.5877490867127406e-03 0.0000000000000000e+00  1.7071072073881739e-04 2.6280112353365358e-03 0.0000000000000000e+00  1.7300648215603893e-04 2.6684018137835127e-03 0.0000000000000000e+00  1.7532935148305677e-04 2.7088866696888133e-03 0.0000000000000000e+00  1.7767323321483234e-04 2.7494302921421297e-03 0.0000000000000000e+00  1.8003197176147921e-04 2.7899957211175025e-03 0.0000000000000000e+00  1.8239976081768771e-04 2.8305445828526229e-03 0.0000000000000000e+00  1.8477146717062775e-04 2.8710372247448355e-03 0.0000000000000000e+00  1.8714285699120519e-04 2.9114329282850055e-03 0.0000000000000000e+00  1.8951070777612495e-04 2.9516902252500260e-03 0.0000000000000000e+