<?xml version="1.0"?>
<VTKFile type="UnstructuredGrid"  version="0.1"  >
<UnstructuredGrid>
<Piece  NumberOfPoints="614" NumberOfCells="1122">
<Points>
<DataArray  type="Float64"  NumberOfComponents="3"  format="ascii">2.792173913043478 0.2166666666666667 0  2.792173913043478 0.2333333333333333 0  2.808695652173913 0.2333333333333333 0  2.445217391304348 0.2333333333333333 0  2.461739130434782 0.2333333333333333 0  2.461739130434782 0.25 0  2.445217391304348 0.25 0  2.478260869565217 0.2333333333333333 0  2.478260869565217 0.25 0  2.494782608695652 0.2333333333333333 0  2.494782608695652 0.25 0  2.511304347826087 0.2333333333333333 0  2.511304347826087 0.25 0  2.527826086956522 0.2333333333333333 0  2.527826086956522 0.25 0  2.544347826086956 0.2333333333333333 0  2.544347826086956 0.25 0  2.560869565217391 0.2333333333333333 0  2.560869565217391 0.25 0  2.577391304347826 0.2333333333333333 0  2.577391304347826 0.25 0  2.593913043478261 0.2333333333333333 0  2.593913043478261 0.25 0  2.610434782608696 0.2333333333333333 0  2.610434782608696 0.25 0  2.62695652173913 0.2333333333333333 0  2.62695652173913 0.25 0  2.643478260869565 0.2333333333333333 0  2.643478260869565 0.25 0  2.66 0.2333333333333333 0  2.66 0.25 0  2.676521739130435 0.2333333333333333 0  2.676521739130435 0.25 0  2.693043478260869 0.2333333333333333 0  2.693043478260869 0.25 0  2.709565217391304 0.2333333333333333 0  2.709565217391304 0.25 0  2.726086956521739 0.2333333333333333 0  2.726086956521739 0.25 0  2.742608695652174 0.2333333333333333 0  2.742608695652174 0.25 0  2.759130434782609 0.2333333333333333 0  2.759130434782609 0.25 0  2.775652173913044 0.2333333333333333 0  2.775652173913044 0.25 0  2.792173913043478 0.25 0  2.808695652173913 0.25 0  2.825217391304347 0.25 0  2.28 0.25 0  2.296521739130434 0.25 0  2.296521739130434 0.2666666666666667 0  2.28 0.2666666666666667 0  2.31304347826087 0.25 0  2.31304347826087 0.2666666666666667 0  2.329565217391304 0.25 0  2.329565217391304 0.2666666666666667 0  2.346086956521739 0.25 0  2.346086956521739 0.2666666666666667 0  2.362608695652174 0.25 0  2.362608695652174 0.2666666666666667 0  2.379130434782609 0.25 0  2.379130434782609 0.2666666666666667 0  2.395652173913044 0.25 0  2.395652173913044 0.2666666666666667 0  2.412173913043478 0.25 0  2.412173913043478 0.2666666666666667 0  2.428695652173913 0.25 0  2.428695652173913 0.2666666666666667 0  2.445217391304348 0.2666666666666667 0  2.461739130434782 0.2666666666666667 0  2.478260869565217 0.2666666666666667 0  2.494782608695652 0.2666666666666667 0  2.511304347826087 0.2666666666666667 0  2.527826086956522 0.2666666666666667 0  2.544347826086956 0.2666666666666667 0  2.560869565217391 0.2666666666666667 0  2.577391304347826 0.2666666666666667 0  2.593913043478261 0.2666666666666667 0  2.610434782608696 0.2666666666666667 0  2.62695652173913 0.2666666666666667 0  2.643478260869565 0.2666666666666667 0  2.66 0.2666666666666667 0  2.676521739130435 0.2666666666666667 0  2.693043478260869 0.2666666666666667 0  2.709565217391304 0.2666666666666667 0  2.726086956521739 0.2666666666666667 0  2.742608695652174 0.2666666666666667 0  2.759130434782609 0.2666666666666667 0  2.775652173913044 0.2666666666666667 0  2.792173913043478 0.2666666666666667 0  2.808695652173913 0.2666666666666667 0  2.825217391304347 0.2666666666666667 0  2.841739130434783 0.2666666666666667 0  2.24695652173913 0.2666666666666667 0  2.263478260869565 0.2666666666666667 0  2.263478260869565 0.2833333333333333 0  2.28 0.2833333333333333 0  2.296521739130434 0.2833333333333333 0  2.31304347826087 0.2833333333333333 0  2.329565217391304 0.2833333333333333 0  2.346086956521739 0.2833333333333333 0  2.362608695652174 0.2833333333333333 0  2.379130434782609 0.2833333333333333 0  2.395652173913044 0.2833333333333333 0  2.412173913043478 0.2833333333333333 0  2.428695652173913 0.2833333333333333 0  2.445217391304348 0.2833333333333333 0  2.461739130434782 0.2833333333333333 0  2.478260869565217 0.2833333333333333 0  2.494782608695652 0.2833333333333333 0  2.511304347826087 0.2833333333333333 0  2.527826086956522 0.2833333333333333 0  2.544347826086956 0.2833333333333333 0  2.560869565217391 0.2833333333333333 0  2.577391304347826 0.2833333333333333 0  2.593913043478261 0.2833333333333333 0  2.610434782608696 0.2833333333333333 0  2.62695652173913 0.2833333333333333 0  2.643478260869565 0.2833333333333333 0  2.66 0.2833333333333333 0  2.676521739130435 0.2833333333333333 0  2.693043478260869 0.2833333333333333 0  2.709565217391304 0.2833333333333333 0  2.726086956521739 0.2833333333333333 0  2.742608695652174 0.2833333333333333 0  2.759130434782609 0.2833333333333333 0  2.775652173913044 0.2833333333333333 0  2.792173913043478 0.2833333333333333 0  2.808695652173913 0.2833333333333333 0  2.825217391304347 0.2833333333333333 0  2.841739130434783 0.2833333333333333 0  2.858260869565217 0.2833333333333333 0  2.28 0.3 0  2.296521739130434 0.3 0  2.31304347826087 0.3 0  2.329565217391304 0.3 0  2.346086956521739 0.3 0  2.362608695652174 0.3 0  2.379130434782609 0.3 0  2.395652173913044 0.3 0  2.412173913043478 0.3 0  2.428695652173913 0.3 0  2.445217391304348 0.3 0  2.461739130434782 0.3 0  2.478260869565217 0.3 0  2.494782608695652 0.3 0  2.511304347826087 0.3 0  2.527826086956522 0.3 0  2.544347826086956 0.3 0  2.560869565217391 0.3 0  2.577391304347826 0.3 0  2.593913043478261 0.3 0  2.610434782608696 0.3 0  2.62695652173913 0.3 0  2.643478260869565 0.3 0  2.66 0.3 0  2.676521739130435 0.3 0  2.693043478260869 0.3 0  2.709565217391304 0.3 0  2.726086956521739 0.3 0  2.742608695652174 0.3 0  2.759130434782609 0.3 0  2.775652173913044 0.3 0  2.792173913043478 0.3 0  2.808695652173913 0.3 0  2.825217391304347 0.3 0  2.841739130434783 0.3 0  2.858260869565217 0.3 0  2.874782608695652 0.3 0  2.296521739130434 0.3166666666666667 0  2.31304347826087 0.3166666666666667 0  2.329565217391304 0.3166666666666667 0  2.346086956521739 0.3166666666666667 0  2.362608695652174 0.3166666666666667 0  2.379130434782609 0.3166666666666667 0  2.395652173913044 0.3166666666666667 0  2.412173913043478 0.3166666666666667 0  2.428695652173913 0.3166666666666667 0  2.445217391304348 0.3166666666666667 0  2.461739130434782 0.3166666666666667 0  2.478260869565217 0.3166666666666667 0  2.494782608695652 0.3166666666666667 0  2.511304347826087 0.3166666666666667 0  2.527826086956522 0.3166666666666667 0  2.544347826086956 0.3166666666666667 0  2.560869565217391 0.3166666666666667 0  2.577391304347826 0.3166666666666667 0  2.593913043478261 0.3166666666666667 0  2.610434782608696 0.3166666666666667 0  2.62695652173913 0.3166666666666667 0  2.643478260869565 0.3166666666666667 0  2.66 0.3166666666666667 0  2.676521739130435 0.3166666666666667 0  2.693043478260869 0.3166666666666667 0  2.709565217391304 0.3166666666666667 0  2.726086956521739 0.3166666666666667 0  2.742608695652174 0.3166666666666667 0  2.759130434782609 0.3166666666666667 0  2.775652173913044 0.3166666666666667 0  2.792173913043478 0.3166666666666667 0  2.808695652173913 0.3166666666666667 0  2.825217391304347 0.3166666666666667 0  2.841739130434783 0.3166666666666667 0  2.858260869565217 0.3166666666666667 0  2.874782608695652 0.3166666666666667 0  2.891304347826087 0.3166666666666667 0  2.31304347826087 0.3333333333333333 0  2.329565217391304 0.3333333333333333 0  2.346086956521739 0.3333333333333333 0  2.362608695652174 0.3333333333333333 0  2.379130434782609 0.3333333333333333 0  2.395652173913044 0.3333333333333333 0  2.412173913043478 0.3333333333333333 0  2.428695652173913 0.3333333333333333 0  2.445217391304348 0.3333333333333333 0  2.461739130434782 0.3333333333333333 0  2.478260869565217 0.3333333333333333 0  2.494782608695652 0.3333333333333333 0  2.511304347826087 0.3333333333333333 0  2.527826086956522 0.3333333333333333 0  2.544347826086956 0.3333333333333333 0  2.560869565217391 0.3333333333333333 0  2.577391304347826 0.3333333333333333 0  2.593913043478261 0.3333333333333333 0  2.610434782608696 0.3333333333333333 0  2.62695652173913 0.3333333333333333 0  2.643478260869565 0.3333333333333333 0  2.66 0.3333333333333333 0  2.676521739130435 0.3333333333333333 0  2.693043478260869 0.3333333333333333 0  2.709565217391304 0.3333333333333333 0  2.726086956521739 0.3333333333333333 0  2.742608695652174 0.3333333333333333 0  2.759130434782609 0.3333333333333333 0  2.775652173913044 0.3333333333333333 0  2.792173913043478 0.3333333333333333 0  2.808695652173913 0.3333333333333333 0  2.825217391304347 0.3333333333333333 0  2.841739130434783 0.3333333333333333 0  2.858260869565217 0.3333333333333333 0  2.874782608695652 0.3333333333333333 0  2.891304347826087 0.3333333333333333 0  2.907826086956522 0.3333333333333333 0  2.329565217391304 0.35 0  2.346086956521739 0.35 0  2.362608695652174 0.35 0  2.379130434782609 0.35 0  2.395652173913044 0.35 0  2.412173913043478 0.35 0  2.428695652173913 0.35 0  2.445217391304348 0.35 0  2.461739130434782 0.35 0  2.478260869565217 0.35 0  2.494782608695652 0.35 0  2.511304347826087 0.35 0  2.527826086956522 0.35 0  2.544347826086956 0.35 0  2.560869565217391 0.35 0  2.577391304347826 0.35 0  2.593913043478261 0.35 0  2.610434782608696 0.35 0  2.62695652173913 0.35 0  2.643478260869565 0.35 0  2.66 0.35 0  2.676521739130435 0.35 0  2.693043478260869 0.35 0  2.709565217391304 0.35 0  2.726086956521739 0.35 0  2.742608695652174 0.35 0  2.759130434782609 0.35 0  2.775652173913044 0.35 0  2.792173913043478 0.35 0  2.808695652173913 0.35 0  2.825217391304347 0.35 0  2.841739130434783 0.35 0  2.858260869565217 0.35 0  2.874782608695652 0.35 0  2.891304347826087 0.35 0  2.907826086956522 0.35 0  2.924347826086957 0.35 0  2.346086956521739 0.3666666666666666 0  2.362608695652174 0.3666666666666666 0  2.379130434782609 0.3666666666666666 0  2.395652173913044 0.3666666666666666 0  2.412173913043478 0.3666666666666666 0  2.428695652173913 0.3666666666666666 0  2.445217391304348 0.3666666666666666 0  2.461739130434782 0.3
[...]
<CellData  Scalars="rho"> 
<DataArray  type="Float64"  Name="rho"  format="ascii">1.0639904772900810e-01   0.0000000000000000e+00   0.0000000000000000e+00   0.0000000000000000e+00   0.0000000000000000e+00   0.0000000000000000e+00   1.8231109751605386e-06   7.1292061880788519e-05   7.9178790095360373e-05   1.0520509219967345e-04   1.1389070913986080e-04   1.8501519384997390e-04   1.9226795066936239e-04   4.9913405161586808e-04   4.8944397830453167e-04   7.7295531074933889e-04   9.0037536319686595e-04   9.7167833904272262e-04   9.4247604670401352e-04   1.4536161651506527e-03   1.3982939357820860e-03   4.0065274629775448e-04   3.7018610039780457e-02   1.0675482167976320e-01   2.7261844907666231e-02   2.7232319553382323e-01   2.3337884999799860e-01   2.5914138192382214e-03   2.8833652287698885e-01   4.5397756930249762e-03   2.0125179471910631e-01   1.1848536089056705e-01   1.8434498276657135e-01   1.9784916084861617e-01   1.2077304228141425e-01   2.0140463294057703e-01   1.7405820330094701e-01   1.2216273800456136e-01   1.7187327987259954e-01   1.6233030692599021e-01   1.6205929788189330e-01   1.2371554511001527e-01   2.1756062306370721e-01   1.8410028056789915e-01   1.3015495247547437e-01   5.3463564788233897e-01   1.7697132458803992e-03   2.1974165152368777e-03   1.1713319907008177e-03   1.4666821884817131e-03   6.2246858571223202e-04   7.9111765319520575e-04   7.6629431582195685e-04   9.9928217222913633e-04   4.0695786432124281e-01   7.2342881727225056e-02   3.7439560916481845e-01   4.0343453271445617e-01   7.5842169051275818e-02   9.2699226808053703e-02   2.3954255398152977e-01   1.1973492103996543e-02   1.2702900932514286e-01   1.3155760009338774e-01   0.0000000000000000e+00   1.5433118233913613e-03   0.0000000000000000e+00   0.0000000000000000e+00   0.0000000000000000e+00   0.0000000000000000e+00   8.7014534248812105e-05   8.4943344233254385e-05   1.7555073634344202e-04   1.7380882410900460e-04   3.2430226528752833e-04   3.1927533971743923e-04   3.0486015956976312e-04   3.0857302838515298e-04   8.3940578998427688e-04   8.1472108939544365e-04   8.8255565557306701e-04   1.1906198099370185e-03   6.2001204910940597e-04   1.2340271824415609e-03   9.1015652251209757e-04   8.6841281631475423e-04   2.7969308363902005e-04   1.2718120823086373e-03   9.4511949213739611e-03   1.1603469572666926e-03   2.1831189070838958e-01   9.0084869156596747e-02   2.7611124159219574e-01   2.3223850243614865e-03   2.0078682821165553e-01   2.3857959374544474e-01   1.5789339951739462e-01   2.2324997826174275e-01   1.1560703442402161e-01   1.2511274840362721e-01   1.7029587802707272e-01   1.8004433084949784e-01   1.6220821214047423e-01   2.4587651407375613e-01   2.1195367307596819e-01   2.0878498983567598e-01   3.4720684949719877e-01   3.4664773765183154e-01   3.8474298896690434e-01   4.4717655776658854e-01   6.7830357344579550e-01   5.6126205465896117e-01   8.3186372600383607e-01   9.6446344228253864e-02   3.3306860486274951e-03   4.0836939242078528e-03   2.2474296657205833e-03   2.7644158002236492e-03   1.2355386025229794e-03   1.8392849597933865e-03   7.9040501206274327e-04   9.8934727294458600e-04   8.5316198032200669e-02   5.9955535129817723e-03   7.4308789561583544e-02   9.0070746861108872e-02   1.1322700136129152e-04   1.2924858081115518e-03   3.2188927066880389e-02   1.8256858887481013e-05   1.8839769691244505e-02   3.5602128445585413e-02   7.8764217465547195e-02   2.5123185254357572e-02   3.4851973020089584e-02   5.1801543734714413e-02   2.4638567997879935e-02   4.1865650982092321e-02   8.9631941897590564e-03   4.8524188080913064e-02   1.6000335737412664e-04   1.5910749514573043e-04   2.8509280841266171e-04   2.7630340718072023e-04   4.7469504896854891e-04   4.6453844696817776e-04   4.4298991072502829e-04   6.7880898543067731e-04   1.1012898073760684e-03   1.0698797453390395e-03   1.5753836278229645e-03   1.5108127713367157e-03   7.8808339684112503e-04   7.5686932525375629e-04   3.3648685580602734e-03   3.1971127808560762e-03   2.2978373095965659e-03   4.6068568914850692e-03   1.5039212103209007e-03   1.4644710121486373e-03   2.0880847004621610e-03   2.0003520491463072e-03   1.9275173680397872e-01   1.1311543396481052e-01   4.2178658745527237e-01   4.2460178948350868e-01   1.4745679914596183e-01   3.4371451932877584e-01   1.1021270148328147e-01   9.8930337234191770e-02   2.4808076614905275e-01   1.3619096993797100e-01   3.9083689510260450e-01   2.6989713392511372e-01   2.4821217554409214e-01   2.4057519093411237e-01   4.5955215013618539e-01   4.4994784437217633e-01   6.4095346048383661e-01   5.6365531558621540e-01   7.9746198440375660e-01   8.3208188063493316e-01   9.9898858756214992e-01   9.9899541357919541e-01   9.9290618100926276e-01   4.1326437757245472e-03   2.7746609324467717e-03   3.3903865235279840e-03   1.5171040061278641e-03   1.8651473987258398e-03   1.8410392129822642e-03   2.2828689209720911e-03   8.1290784703120563e-03   1.9976510283984557e-02   2.5763589960107865e-02   4.4359010138630181e-02   2.0059449660766438e-02   6.1396900186800524e-02   0.0000000000000000e+00   0.0000000000000000e+00   2.6693903822095893e-02   2.4330848511607380e-02   6.5427530022100291e-02   6.0274320044791753e-02   4.1576034112120762e-02   5.2398810709992777e-02   6.0149654351989192e-02   2.0116216187807810e-02   7.7140733540723860e-05   1.2668320122523689e-05   2.6592230917810980e-04   1.6093701896348640e-04   4.1710255631813959e-04   4.3041836928743035e-04   6.5657243693648787e-04   6.4780949951849911e-04   9.1708075158116115e-04   9.0493177178313402e-04   1.4090460617098449e-03   1.3817486862975888e-03   1.9529793265319296e-03   1.8827289378788789e-03   2.9003205308100210e-03   2.7984551746356619e-03   4.0855670020318747e-03   3.8816327176656087e-03   5.8629411734370330e-03   1.2912819218445754e-01   1.8682216785478115e-03   8.6724187856158499e-02   1.1049959878691798e-01   1.4436358059429613e-01   3.0382510721477285e-01   1.0691519529296101e-01   3.6764046376876131e-01   1.8961208195906643e-01   1.0984146548172337e-01   1.1506843376938067e-01   8.6184930645567773e-02   8.0274058396309356e-02   2.8329000340423544e-01   2.7379164890531421e-01   3.0385590268174445e-01   3.6399511966121062e-01   5.1638304004477642e-01   2.7700754237720199e-01   6.5605270020199635e-01   6.2682632822009521e-01   8.6194226335628732e-01   7.3874712664774611e-01   9.3680720462371792e-01   7.0740534940634736e-01   9.9315499151037079e-01   9.9307689104634234e-01   9.7052574829391136e-01   9.7677159852168727e-01   6.5647868284475663e-01   3.3488556479865979e-03   3.4517674646229990e-03   4.2124756316979147e-03   1.6517058166377174e-03   2.4565548906552164e-03   3.2626304928028038e-02   2.5580813953102393e-02   5.4396551515062896e-02   5.3529010964945570e-02   9.0555343899618029e-02   8.1055710305257753e-02   8.9065587149621692e-02   1.1086258588912097e-01   4.6860663986363099e-02   1.4280733189536673e-01   7.9548657005050857e-02   1.6466336071209417e-01   5.1849630634471656e-02   1.3776278688053212e-01   0.0000000000000000e+00   0.0000000000000000e+00   3.3409654511389752e-05   0.0000000000000000e+00   3.1699404519953451e-04   2.3400813097981062e-04   6.6384563782725795e-04   6.1995322599358823e-04   9.0527070943487793e-04   9.0905502920902190e-04   1.2070597563435990e-03   1.2159763026729064e-03   1.7969192490232099e-03   1.8978645834371961e-03   2.3965389524621462e-03   2.3381317212835479e-03   3.5516388519915903e-03   4.5388679330184076e-03   4.8869521680751857e-03   4.6605385182746061e-03   3.3502114060977140e-02   1.8765769897836952e-02   2.3259932173599835e-03   9.1680326618666531e-03   3.0188856599343917e-03   2.9512639736840305e-03   1.1088464983240660e-03   1.9561371926407763e-03   2.5851309968028827e-02   1.1241049058145687e-01   3.7212000125940985e-03   1.2400605535071632e-01   3.0258450596187300e-02   7.9604036740552175e-03   2.5182493184913013e-01   2.4287363976991402e-01   3.6322002177954915e-01   3.2484785430970903e-01   4.5799675579255034e-01   3.7850843641647108e-01   8.9415809947856029e-01   4.6972286222099269e-01   8.2292182375027290e-01   7.8092012484315221e-01   9.1051300368478061e-01   9.4065106007413812e-01   9.6911799889180883e-01   7.1876232221289171e-01   6.8512020215981251e-01   7.0745163347141526e-01   2.2978378629505922e-01   1.1793729203540271e-01   5.2727962987672988e-02   1.7161703731712899e-02   4.0538503354286805e-02   1.9377964727895181e-03   6.9988235400998272e-02   2.1511216447360409e-02   5.6816565227273470e-02   1.0894436519724389e-02   1.0323362440602343e-01   2.5556180261971137e-02   1.5399094679942646e-01   7.2597767828993992e-02   1.1754711560072077e-01   8.5212800913545980e-02   2.2895374412913668e-02   0.0000000000000000e+00   0.0000000000000000e+00   0.0000000000000000e+00   0.0000000000000000e+00   0.0000000000000000e+00   3.1948126393613952e-05   0.0000000000000000e+00   3.8794849434188160e-04   3.3951746028981934e-04   9.6550295226743561e-04   9.1771273401035727e-04   1.2805835186038474e-03   1.3702408076210334e-03   1.6222254518704141e-03   1.6825438516766156e-03   1.7975297071540670e-03   2.4705065572240108e-03   2.9419581686212122e-03   2.9273840606722432e-03   5.6275193865401047e-03   5.4174657120270326e-03   5.7935477171033303e-03   5.5687567947840730e-03   4.2152446542646757e-02   7.5665986640445319e-03   1.0951303811877746e-02   1.0616451744443331e-02   8.4252541185002826e-03   3.6561919618847819e-03   9.2125285560443221e-02   2.4145690064161884e-03   6.8167421234359163e-02   1.2894322184666229e-01   9.8103445102339495e-02   8.4177770800460974e-02   2.9982590007487325e-01   3.3882496240168425e-01   3.2945597324987413e-01   3.7761216730200337e-01   4.2627955795784894e-01   4.7064886082194535e-01   5.3694036683144630e-01   5.3931742645448300e-01   8.7969613001215863e-01   6.9199972046495706e-01   9.2795642354994623e-01   9.8491363246529129e-01   9.8547365830264932e-01   9.8709856212725089e-01   7.4486817466484334e-01   8.3028073576460593e-01   3.2357601520795876e-01   4.4647998194575145e-01   0.0000000000000000e+00   1.8851184258751247e-01   0.0000000000000000e+00   0.0000000000000000e+00   0.0000000000000000e+00   1.5304076865587180e-03   5.2159220409265833e-04   7.2910745506177483e-04   0.0000000000000000e+00   0.0000000000000000e+00   1.1302407859121007e-02   0.0000000000000000e+00   0.0000000000000000e+00   0.0000000000000000e+00   0.0000000000000000e+00   0.0000000000000000e+00   0.0000000000000000e+00   0.0000000000000000e+00   0.0000000000000000e+00   0.0000000000000000e+00   0.0000000000000000e+00   0.0000000000000000e+00   4.9981758566005111e-06   0.0000000000000000e+00   5.8905028958261964e-04   5.1303395276062168e-04   1.4640342845646818e-03   1.4248560422416444e-03   1.9582545898775418e-03   2.0693252167285040e-03   2.2614787448179022e-03   2.4292283616163478e-03   3.1486141394551012e-03   3.3230793469244311e-03   3.4498209677934913e-03   3.0444692135229933e-03   6.6121190115416908e-03   5.3882491518179882e-03   6.8404338152312800e-03   8.3853369773031171e-03   9.2526046427140358e-03   8.7590908799439517e-03   1.2932046112997116e-02   9.6568695066716406e-02   4.5647360315099524e-03   9.9996168349076861e-02   2.9691054508986328e-03   1.5055178546353892e-01   6.3513007126334209e-03   1.8758548461618621e-01   2.8931741235646469e-01   2.3061405344262137e-01   3.6994706898593283e-01   3.1808625023667630e-01   4.6529052597375398e-01   4.6565010647580141e-01   5.6669061573362101e-01   5.7753468114228612e-01   7.5215217342388785e-01   7.4118300056243713e-01   9.7277281350014311e-01   9.1533900884458475e-01   9.8279387050666034e-01   9.5787115129638356e-01   8.7759778623549978e-01   8.2067926248748435e-01   6.3513766355732304e-01   5.4547328781888305e-01   4.9185761122762728e-01   5.1993213007047134e-01   1.4709025118175158e-02   0.0000000000000000e+00   0.0000000000000000e+00   0.0000000000000000e+00   0.0000000000000000e+00   0.0000000000000000e+00   0.0000000000000000e+00   2.9994535813833504e-04   0.0000000000000000e+00   0.0000000000000000e+00   0.0000000000000000e+00   0.0000000000000000e+00   0.0000000000000000e+00   0.0000000000000000e+00   0.0000000000000000e+00   0.0000000000000000e+00   0.0000000000000000e+00   0.0000000000000000e+00   0.0000000000000000e+00   0.0000000000000000e+00   0.0000000000000000e+00   0.0000000000000000e+00   1.8757943563127326e-06   0.0000000000000000e+00   9.3124295336565355e-04   2.6820154408833778e-04   2.2957352183678300e-03   1.9010025695899871e-03   3.0188031896550972e-03   3.2756504092374536e-03   3.7782055197968694e-03   4.5621171569746322e-03   5.0767308209195526e-03   5.3419260599052217e-03   5.5577617121367459e-03   9.7005761481865887e-03   7.7592178236679746e-03   6.5441831398754613e-03   9.9687976426603622e-03   9.4998839231368263e-03   1.0595541856278987e-02   1.0103723739444430e-02   5.4632182434618606e-02   2.9589487638750512e-02   6.0250442573983244e-02   6.9303048155875041e-02   1.0400171519184413e-01   6.7356604567509887e-02   1.3847078588033770e-01   1.0773823889196012e-01   2.2628057652905220e-01   1.6681479716008810e-01   4.5496035515798600e-01   3.6683946541014317e-01   5.4087499652668058e-01   5.1805971555588948e-01   5.5447101202572524e-01   5.6649669653226675e-01   7.9123497689214273e-01   6.1347281897203432e-01   9.5730041860756809e-01   9.5116502096224631e-01   8.3088149587517068e-01   8.5899609901347818e-01   6.1817398717464966e-01   6.6473404867547081e-01   3.9526656396449711e-01   4.0578215681746443e-01   0.0000000000000000e+00   3.5093726859556848e-02   0.0000000000000000e+00   0.0000000000000000e+00   0.0000000000000000e+00   0.0000000000000000e+00   0.0000000000000000e+00   0.0000000000000000e+00   0.0000000000000000e+00   0.0000000000000000e+00   0.0000000000000000e+00   0.0000000000000000e+00   0.0000000000000000e+00   0.0000000000000000e+00   0.0000000000000000e+00   0.0000000000000000e+00   0.0000000000000000e+00   0.0000000000000000e+00   0.0000000000000000e+00   0.0000000000000000e+00   0.0000000000000000e+00   0.0000000000000000e+00   0.0000000000000000e+00   0.0000000000000000e+00   0.0000000000000000e+00   0.0000000000000000e+00   1.5233675075467658e-03   8.3819005762632930e-05   3.7869554027922087e-03   3.2438323777895838e-03   4.8674001882084844e-03   5.3119512756139159e-03   5.7982601456624755e-03   7.9167074873960352e-03   1.5096289098402578e-02   1.7384627637439969e-02   1.5516998066883361e-02   1.7248863222378893e-02   1.0498322487195785e-02   1.7579270715859095e-02   1.1087284561091062e-02   1.4683778470079853e-02   1.2197545047558015e-02   1.1696217104761066e-02   1.6312573412557301e-02   1.5381883287571761e-02   2.2474933602047206e-02   5.2474625332524005e-02   1.6221581304303446e-02   7.3276341292798378e-02   1.9365884514590720e-01   1.5695221323394620e-01   2.9179055742474852e-01   2.6327412069242562e-01   4.0331531604072057e-01   3.6091160656699539e-01   5.0512468692990242e-01   4.6557775423238229e-01   6.2448438388450223e-01   6.6885826996590991e-01   9.2747655384044203e-01   9.5543767982850780e-01   9.4110942972078748e-01   9.8604658909230181e-01   7.1877356239766077e-01   8.5948361986352095e-01   6.2000513400186574e-01   6.5679912273637542e-01   1.6016227395726659e-01   4.2657788340540292e-01   0.0000000000000000e+00   0.0000000000000000e+00   0.0000000000000000e+00   0.0000000000000000e+00   0.0000000000000000e+00   0.0000000000000000e+00   0.0000000000000000e+00   0.0000000000000000e+00   0.0000000000000000e+00   0.0000000000000000e+00   0.0000000000000000e+00   0.0000000000000000e+00   0.0000000000000000e+00   0.0000000000000000e+00   0.0000000000000000e+00   0.0000000000000000e+00   0.0000000000000000e+00   0.0000000000000000e+00   0.0000000000000000e+00   0.0000000000000000e+00   0.0000000000000000e+00   0.0000000000000000e+00   0.0000000000000000e+00   0.0000000000000000e+00   0.0000000000000000e+00   0.0000000000000000e+00   2.5465948050380316e-03   3.3489559516262105e-04   6.4244630940489995e-03   4.5482711543407073e-03   1.0818032939687226e-02   1.0355792099617371e-02   2.5556568365607969e-02   1.2993130584020565e-02   2.3778879015758831e-02   2.7974696969244876e-02   2.2378059303524662e-02   2.4998667365440232e-02   2.1129006677809457e-02   2.4915823994193887e-02   2.1759344393799798e-02   2.3819585607640390e-02   1.9470512170618581e-02   2.5608849121088524e-02   1.8515762654626580e-02   1.7419210023693999e-02   1.0629348743627985e-01   4.2932051883887289e-02   1.2692168494844022e-01   1.1123905645865886e-01   1.2469480969175249e-01   1.3289226394514075e-01   2.0540229379377722e-01   1.9268117588097661e-01   3.6748530938415036e-01   3.1857521966486574e-01   5.9556887304875428e-01   4.7505022945981046e-01   8.7852271275066462e-01   7.3134963662495511e-01   9.8868321561518635e-01   9.9207745284574889e-01   9.8281477616237767e-01   9.8560446228658127e-01   7.4175884056758556e-01   7.1603712224851257e-01   5.1815399647340321e-01   2.6316424709270192e-01   0.0000000000000000e+00   8.3020042982928546e-02   0.0000000000000000e+00   0.0000000000000000e+00   0.0000000000000000e+00   0.0000000000000000e+00   0.0000000000000000e+00   0.0000000000000000e+00   0.0000000000000000e+00   0.0000000000000000e+00   0.0000000000000000e+00   0.0000000000000000e+00   0.0000000000000000e+00   0.0000000000000000e+00   0.0000000000000000e+00   0.0000000000000000e+00   0.0000000000000000e+00   0.0000000000000000e+00   0.0000000000000000e+00   0.0000000000000000e+00   0.0000000000000000e+00   0.0000000000000000e+00   0.0000000000000000e+00   0.0000000000000000e+00   0.0000000000000000e+00   0.0000000000000000e+00   0.0000000000000000e+00   0.0000000000000000e+00   4.2892227003532967e-03   5.5757529066997804e-04   1.2477476758485343e-02   8.8687860339841523e-03   1.8665515728983468e-02   1.8130049052237241e-02   4.2903568761657192e-02   5.1462945183412663e-02   3.6762617648414722e-02   4.4838602382972347e-02   3.3782012181868486e-02   3.8655897753005167e-02   2.9224577131516907e-02   3.6570341035604727e-02   2.8003052924441944e-02   3.2382716275127836e-02   2.9757254703673401e-02   3.1346096691134993e-02   2.0450829498415101e-02   3.4710208466540701e-02   6.6395880668846996e-02   2.6174628708232572e-02   9.0517693642252248e-02   7.7872045013189381e-02   1.0464646268743591e-01   8.7081816824623376e-02   2.4103254822795683e-01   1.0771603200984457e-01   3.6922650654312666e-01   3.6868727515989064e-01   5.2907395159491621e-01   5.3837771376577936e-01   6.2643060242447191e-01   5.4263098135040255e-01   9.8994823241280394e-01   9.5021853751705243e-01   7.0528232678508540e-01   8.2612604120429822e-01   3.2828149000640888e-01   3.7797425609851509e-01   1.7425906513835474e-01   1.7538448701818887e-01   0.0000000000000000e+00   0.0000000000000000e+00   0.0000000000000000e+00   0.0000000000000000e+00   0.0000000000000000e+00   0.0000000000000000e+00   0.0000000000000000e+00   0.0000000000000000e+00   0.0000000000000000e+00   0.0000000000000000e+00   0.0000000000000000e+00   0.0000000000000000e+00   0.0000000000000000e+00   0.0000000000000000e+00   0.0000000000000000e+00   0.0000000000000000e+00   0.0000000000000000e+00   0.0000000000000000e+00   0.0000000000000000e+00   0.0000000000000000e+00   0.0000000000000000e+00   0.0000000000000000e+00   0.0000000000000000e+00   0.0000000000000000e+00   0.0000000000000000e+00   0.0000000000000000e+00   0.0000000000000000e+00   0.0000000000000000e+00   1.3206653839590071e-03   2.1817426681233977e-03   2.2983919096837557e-02   1.6703599403425265e-02   3.8458882645731593e-02   3.2150638945668372e-02   7.2749827046232118e-02   8.9104722016227669e-02   5.9957932861202094e-02   7.4987323089548433e-02   5.1248023872175558e-02   5.6494195709118560e-02   3.8666257007648253e-02   4.5710929087425606e-02   3.5096548621706095e-02   3.6955562508165493e-02   3.3452183022120080e-02   4.0527542836134092e-02   4.4568875083679682e-02   8.1427602224570184e-02   4.7238161828375494e-02   4.5635927056978914e-02   7.4905577674998031e-02   5.0070102818373159e-02   9.8977293538563174e-02   1.0624668360136939e-01   1.8514788241597954