<?xml version="1.0"?>
<VTKFile type="UnstructuredGrid"  version="0.1"  >
<UnstructuredGrid>
<Piece  NumberOfPoints="607" NumberOfCells="1112">
<Points>
<DataArray  type="Float64"  NumberOfComponents="3"  format="ascii">0.4130434782608696 0 0  0.4295652173913043 0 0  0.4295652173913043 0.01666666666666667 0  0.4460869565217391 0 0  0.4460869565217391 0.01666666666666667 0  0.4626086956521739 0 0  0.4626086956521739 0.01666666666666667 0  0.4791304347826086 0 0  0.4791304347826086 0.01666666666666667 0  0.4956521739130435 0 0  0.4956521739130435 0.01666666666666667 0  0.5121739130434783 0 0  0.5121739130434783 0.01666666666666667 0  0.528695652173913 0 0  0.528695652173913 0.01666666666666667 0  0.5452173913043478 0 0  0.5452173913043478 0.01666666666666667 0  0.5617391304347825 0 0  0.5617391304347825 0.01666666666666667 0  0.5782608695652174 0 0  0.5782608695652174 0.01666666666666667 0  0.5947826086956521 0 0  0.5947826086956521 0.01666666666666667 0  0.6113043478260869 0 0  0.6113043478260869 0.01666666666666667 0  0.6278260869565218 0 0  0.6278260869565218 0.01666666666666667 0  0.6443478260869565 0 0  0.6443478260869565 0.01666666666666667 0  0.6608695652173913 0 0  0.6608695652173913 0.01666666666666667 0  0.677391304347826 0 0  0.677391304347826 0.01666666666666667 0  0.6939130434782609 0 0  0.6939130434782609 0.01666666666666667 0  0.7104347826086956 0 0  0.7104347826086956 0.01666666666666667 0  0.4460869565217391 0.03333333333333333 0  0.4626086956521739 0.03333333333333333 0  0.4791304347826086 0.03333333333333333 0  0.4956521739130435 0.03333333333333333 0  0.5121739130434783 0.03333333333333333 0  0.528695652173913 0.03333333333333333 0  0.5452173913043478 0.03333333333333333 0  0.5617391304347825 0.03333333333333333 0  0.5782608695652174 0.03333333333333333 0  0.5947826086956521 0.03333333333333333 0  0.6113043478260869 0.03333333333333333 0  0.6278260869565218 0.03333333333333333 0  0.6443478260869565 0.03333333333333333 0  0.6608695652173913 0.03333333333333333 0  0.677391304347826 0.03333333333333333 0  0.6939130434782609 0.03333333333333333 0  0.7104347826086956 0.03333333333333333 0  0.4626086956521739 0.05 0  0.4791304347826086 0.05 0  0.4956521739130435 0.05 0  0.5121739130434783 0.05 0  0.528695652173913 0.05 0  0.5452173913043478 0.05 0  0.5617391304347825 0.05 0  0.5782608695652174 0.05 0  0.5947826086956521 0.05 0  0.6113043478260869 0.05 0  0.6278260869565218 0.05 0  0.6443478260869565 0.05 0  0.6608695652173913 0.05 0  0.677391304347826 0.05 0  0.6939130434782609 0.05 0  0.7104347826086956 0.05 0  0.7269565217391304 0.05 0  0.4791304347826086 0.06666666666666667 0  0.4956521739130435 0.06666666666666667 0  0.5121739130434783 0.06666666666666667 0  0.528695652173913 0.06666666666666667 0  0.5452173913043478 0.06666666666666667 0  0.5617391304347825 0.06666666666666667 0  0.5782608695652174 0.06666666666666667 0  0.5947826086956521 0.06666666666666667 0  0.6113043478260869 0.06666666666666667 0  0.6278260869565218 0.06666666666666667 0  0.6443478260869565 0.06666666666666667 0  0.6608695652173913 0.06666666666666667 0  0.677391304347826 0.06666666666666667 0  0.6939130434782609 0.06666666666666667 0  0.7104347826086956 0.06666666666666667 0  0.7269565217391304 0.06666666666666667 0  0.7434782608695653 0.06666666666666667 0  0.4956521739130435 0.08333333333333333 0  0.5121739130434783 0.08333333333333333 0  0.528695652173913 0.08333333333333333 0  0.5452173913043478 0.08333333333333333 0  0.5617391304347825 0.08333333333333333 0  0.5782608695652174 0.08333333333333333 0  0.5947826086956521 0.08333333333333333 0  0.6113043478260869 0.08333333333333333 0  0.6278260869565218 0.08333333333333333 0  0.6443478260869565 0.08333333333333333 0  0.6608695652173913 0.08333333333333333 0  0.677391304347826 0.08333333333333333 0  0.6939130434782609 0.08333333333333333 0  0.7104347826086956 0.08333333333333333 0  0.7269565217391304 0.08333333333333333 0  0.7434782608695653 0.08333333333333333 0  0.7599999999999999 0.08333333333333333 0  0.5121739130434783 0.1 0  0.528695652173913 0.1 0  0.5452173913043478 0.1 0  0.5617391304347825 0.1 0  0.5782608695652174 0.1 0  0.5947826086956521 0.1 0  0.6113043478260869 0.1 0  0.6278260869565218 0.1 0  0.6443478260869565 0.1 0  0.6608695652173913 0.1 0  0.677391304347826 0.1 0  0.6939130434782609 0.1 0  0.7104347826086956 0.1 0  0.7269565217391304 0.1 0  0.7434782608695653 0.1 0  0.7599999999999999 0.1 0  0.7765217391304348 0.1 0  0.528695652173913 0.1166666666666667 0  0.5452173913043478 0.1166666666666667 0  0.5617391304347825 0.1166666666666667 0  0.5782608695652174 0.1166666666666667 0  0.5947826086956521 0.1166666666666667 0  0.6113043478260869 0.1166666666666667 0  0.6278260869565218 0.1166666666666667 0  0.6443478260869565 0.1166666666666667 0  0.6608695652173913 0.1166666666666667 0  0.677391304347826 0.1166666666666667 0  0.6939130434782609 0.1166666666666667 0  0.7104347826086956 0.1166666666666667 0  0.7269565217391304 0.1166666666666667 0  0.7434782608695653 0.1166666666666667 0  0.7599999999999999 0.1166666666666667 0  0.7765217391304348 0.1166666666666667 0  0.7930434782608695 0.1166666666666667 0  0.5452173913043478 0.1333333333333333 0  0.5617391304347825 0.1333333333333333 0  0.5782608695652174 0.1333333333333333 0  0.5947826086956521 0.1333333333333333 0  0.6113043478260869 0.1333333333333333 0  0.6278260869565218 0.1333333333333333 0  0.6443478260869565 0.1333333333333333 0  0.6608695652173913 0.1333333333333333 0  0.677391304347826 0.1333333333333333 0  0.6939130434782609 0.1333333333333333 0  0.7104347826086956 0.1333333333333333 0  0.7269565217391304 0.1333333333333333 0  0.7434782608695653 0.1333333333333333 0  0.7599999999999999 0.1333333333333333 0  0.7765217391304348 0.1333333333333333 0  0.7930434782608695 0.1333333333333333 0  0.8095652173913043 0.1333333333333333 0  0.5617391304347825 0.15 0  0.5782608695652174 0.15 0  0.5947826086956521 0.15 0  0.6113043478260869 0.15 0  0.6278260869565218 0.15 0  0.6443478260869565 0.15 0  0.6608695652173913 0.15 0  0.677391304347826 0.15 0  0.6939130434782609 0.15 0  0.7104347826086956 0.15 0  0.7269565217391304 0.15 0  0.7434782608695653 0.15 0  0.7599999999999999 0.15 0  0.7765217391304348 0.15 0  0.7930434782608695 0.15 0  0.8095652173913043 0.15 0  0.8260869565217391 0.15 0  0.5782608695652174 0.1666666666666667 0  0.5947826086956521 0.1666666666666667 0  0.6113043478260869 0.1666666666666667 0  0.6278260869565218 0.1666666666666667 0  0.6443478260869565 0.1666666666666667 0  0.6608695652173913 0.1666666666666667 0  0.677391304347826 0.1666666666666667 0  0.6939130434782609 0.1666666666666667 0  0.7104347826086956 0.1666666666666667 0  0.7269565217391304 0.1666666666666667 0  0.7434782608695653 0.1666666666666667 0  0.7599999999999999 0.1666666666666667 0  0.7765217391304348 0.1666666666666667 0  0.7930434782608695 0.1666666666666667 0  0.8095652173913043 0.1666666666666667 0  0.8260869565217391 0.1666666666666667 0  0.8426086956521739 0.1666666666666667 0  0.5947826086956521 0.1833333333333333 0  0.5782608695652174 0.1833333333333333 0  0.6113043478260869 0.1833333333333333 0  0.6278260869565218 0.1833333333333333 0  0.6443478260869565 0.1833333333333333 0  0.6608695652173913 0.1833333333333333 0  0.677391304347826 0.1833333333333333 0  0.6939130434782609 0.1833333333333333 0  0.7104347826086956 0.1833333333333333 0  0.7269565217391304 0.1833333333333333 0  0.7434782608695653 0.1833333333333333 0  0.7599999999999999 0.1833333333333333 0  0.7765217391304348 0.1833333333333333 0  0.7930434782608695 0.1833333333333333 0  0.8095652173913043 0.1833333333333333 0  0.8260869565217391 0.1833333333333333 0  0.8426086956521739 0.1833333333333333 0  0.8591304347826086 0.1833333333333333 0  0.5947826086956521 0.2 0  0.5782608695652174 0.2 0  0.6113043478260869 0.2 0  0.6278260869565218 0.2 0  0.6443478260869565 0.2 0  0.6608695652173913 0.2 0  0.677391304347826 0.2 0  0.6939130434782609 0.2 0  0.7104347826086956 0.2 0  0.7269565217391304 0.2 0  0.7434782608695653 0.2 0  0.7599999999999999 0.2 0  0.7765217391304348 0.2 0  0.7930434782608695 0.2 0  0.8095652173913043 0.2 0  0.8260869565217391 0.2 0  0.8426086956521739 0.2 0  0.8591304347826086 0.2 0  0.8756521739130434 0.2 0  0.5947826086956521 0.2166666666666667 0  0.5782608695652174 0.2166666666666667 0  0.6113043478260869 0.2166666666666667 0  0.6278260869565218 0.2166666666666667 0  0.6443478260869565 0.2166666666666667 0  0.6608695652173913 0.2166666666666667 0  0.677391304347826 0.2166666666666667 0  0.6939130434782609 0.2166666666666667 0  0.7104347826086956 0.2166666666666667 0  0.7269565217391304 0.2166666666666667 0  0.7434782608695653 0.2166666666666667 0  0.7599999999999999 0.2166666666666667 0  0.7765217391304348 0.2166666666666667 0  0.7930434782608695 0.2166666666666667 0  0.8095652173913043 0.2166666666666667 0  0.8260869565217391 0.2166666666666667 0  0.8426086956521739 0.2166666666666667 0  0.8591304347826086 0.2166666666666667 0  0.8756521739130434 0.2166666666666667 0  0.8921739130434783 0.2166666666666667 0  0.5947826086956521 0.2333333333333333 0  0.5782608695652174 0.2333333333333333 0  0.6113043478260869 0.2333333333333333 0  0.6278260869565218 0.2333333333333333 0  0.6443478260869565 0.2333333333333333 0  0.6608695652173913 0.2333333333333333 0  0.677391304347826 0.2333333333333333 0  0.6939130434782609 0.2333333333333333 0  0.7104347826086956 0.2333333333333333 0  0.7269565217391304 0.2333333333333333 0  0.7434782608695653 0.2333333333333333 0  0.7599999999999999 0.2333333333333333 0  0.7765217391304348 0.2333333333333333 0  0.7930434782608695 0.2333333333333333 0  0.8095652173913043 0.2333333333333333 0  0.8260869565217391 0.2333333333333333 0  0.8426086956521739 0.2333333333333333 0  0.8591304347826086 0.2333333333333333 0  0.8756521739130434 0.2333333333333333 0  0.8921739130434783 0.2333333333333333 0  0.908695652173913 0.2333333333333333 0  0.5947826086956521 0.25 0  0.6113043478260869 0.25 0  0.6278260869565218 0.25 0  0.6443
[...]
<PointData  Vectors="Displacement"> 
<DataArray  type="Float64"  Name="Displacement"  NumberOfComponents="3" format="ascii">7.1487423527053585e-05 3.7474877819648799e-04 0.0000000000000000e+00  7.2358974965758084e-05 3.8922549157268652e-04 0.0000000000000000e+00  5.7310506948495977e-05 3.8892266520411292e-04 0.0000000000000000e+00  7.3607420949092995e-05 4.0372643978415774e-04 0.0000000000000000e+00  5.8397444895914193e-05 4.0328388803112991e-04 0.0000000000000000e+00  7.5223911646223743e-05 4.1857706240642508e-04 0.0000000000000000e+00  5.9733949682762239e-05 4.1798115713014510e-04 0.0000000000000000e+00  7.7009383717032155e-05 4.3401859530224369e-04 0.0000000000000000e+00  6.1307553904881178e-05 4.3337711541721011e-04 0.0000000000000000e+00  7.8724163097539936e-05 4.4981692516207853e-04 0.0000000000000000e+00  6.3016536524437665e-05 4.4922763253532204e-04 0.0000000000000000e+00  8.0346428175611360e-05 4.6541663288131530e-04 0.0000000000000000e+00  6.4840657395269321e-05 4.6483873731936975e-04 0.0000000000000000e+00  8.1930628918742575e-05 4.8067251735165801e-04 0.0000000000000000e+00  6.6731321584215849e-05 4.8009507788451090e-04 0.0000000000000000e+00  8.3511215091998649e-05 4.9556734496502219e-04 0.0000000000000000e+00  6.8646451928707218e-05 4.9498711024450624e-04 0.0000000000000000e+00  8.5103183645489361e-05 5.1011570721433213e-04 0.0000000000000000e+00  7.0570028544527307e-05 5.0953221999299944e-04 0.0000000000000000e+00  8.6711960973177203e-05 5.2433678276544451e-04 0.0000000000000000e+00  7.2496375053367708e-05 5.2375002428027312e-04 0.0000000000000000e+00  8.8339360388469754e-05 5.3825003066843697e-04 0.0000000000000000e+00  7.4423625586150633e-05 5.3766002034896527e-04 0.0000000000000000e+00  8.9985965853608423e-05 5.5187481876974650e-04 0.0000000000000000e+00  7.6351162900751036e-05 5.5128157754970764e-04 0.0000000000000000e+00  9.1651964946171450e-05 5.6523044329104689e-04 0.0000000000000000e+00  7.8278765692383939e-05 5.6463401177813365e-04 0.0000000000000000e+00  9.3337442721989878e-05 5.7833617153964147e-04 0.0000000000000000e+00  8.0206277352357848e-05 5.7773662326204454e-04 0.0000000000000000e+00  9.5042495591941131e-05 5.9121134726350985e-04 0.0000000000000000e+00  8.2133446180424172e-05 5.9060883334697970e-04 0.0000000000000000e+00  9.6767291155117895e-05 6.0387550142108491e-04 0.0000000000000000e+00  8.4059763065667798e-05 6.0327037468694579e-04 0.0000000000000000e+00  9.8512376965653389e-05 6.1634886883152947e-04 0.0000000000000000e+00  8.5984011097714743e-05 6.1574144239665137e-04 0.0000000000000000e+00  1.0027919170651447e-04 6.2865505362836259e-04 0.0000000000000000e+00  8.7903997579326696e-05 6.2804453585233204e-04 0.0000000000000000e+00  4.2812192060881463e-05 4.0289068316441950e-04 0.0000000000000000e+00  4.3821540858162130e-05 4.1734532727828673e-04 0.0000000000000000e+00  4.5084043356768287e-05 4.3259722506613522e-04 0.0000000000000000e+00  4.6955552241209718e-05 4.4860362488515707e-04 0.0000000000000000e+00  4.9132296410119963e-05 4.6416614315805026e-04 0.0000000000000000e+00  5.1464021108634162e-05 4.7941152013649747e-04 0.0000000000000000e+00  5.3759488192181970e-05 4.9429661442216383e-04 0.0000000000000000e+00  5.6029914579897338e-05 5.0884099219464945e-04 0.0000000000000000e+00  5.8278533994157005e-05 5.2306058677226033e-04 0.0000000000000000e+00  6.0507183333356805e-05 5.3697336225920055e-04 0.0000000000000000e+00  6.2716169363091193e-05 5.5059800703833618e-04 0.0000000000000000e+00  6.4905670505412195e-05 5.6395366320534000e-04 0.0000000000000000e+00  6.7075675375361530e-05 5.7705963706105321e-04 0.0000000000000000e+00  6.9225851349231430e-05 5.8993544108927826e-04 0.0000000000000000e+00  7.1355481278736506e-05 6.0260107987282973e-04 0.0000000000000000e+00  7.3463105753043405e-05 6.1507779475631296e-04 0.0000000000000000e+00  7.5542267807314210e-05 6.2738866575030492e-04 0.0000000000000000e+00  2.7825775161263962e-05 4.1676978380073514e-04 0.0000000000000000e+00  2.8425403776963856e-05 4.3157951674575710e-04 0.0000000000000000e+00  2.9330556872263250e-05 4.4797145957688834e-04 0.0000000000000000e+00  3.2814615724563059e-05 4.6348296339054435e-04 0.0000000000000000e+00  3.5062665056603204e-05 4.7602737198809865e-04 0.0000000000000000e+00  3.7791476746603679e-05 4.8973623639038345e-04 0.0000000000000000e+00  4.0616377461300889e-05 5.0385057973576788e-04 0.0000000000000000e+00  4.3435342879198077e-05 5.1849334402527785e-04 0.0000000000000000e+00  4.6540367397695320e-05 5.3539858945943989e-04 0.0000000000000000e+00  4.9001213156473721e-05 5.4959770878802272e-04 0.0000000000000000e+00  5.1451074743491404e-05 5.6295504569209363e-04 0.0000000000000000e+00  5.3873041810115033e-05 5.7620232486553220e-04 0.0000000000000000e+00  5.6243764472861313e-05 5.8918677135610389e-04 0.0000000000000000e+00  5.8581380344668867e-05 6.0188164090848499e-04 0.0000000000000000e+00  6.0878191667425978e-05 6.1437217202836428e-04 0.0000000000000000e+00  6.3123932008612985e-05 6.2669512611671476e-04 0.0000000000000000e+00  6.5303474693779952e-05 6.3887968097406497e-04 0.0000000000000000e+00  1.3250827563879299e-05 4.3016880725970080e-04 0.0000000000000000e+00  1.3679226116845439e-05 4.4582857713147000e-04 0.0000000000000000e+00  1.6977273515503361e-05 4.5886435862559218e-04 0.0000000000000000e+00  2.0306505698467139e-05 4.7173621152435169e-04 0.0000000000000000e+00  2.3229971101184130e-05 4.8485920119182993e-04 0.0000000000000000e+00  2.6153400173718081e-05 4.9845348398896321e-04 0.0000000000000000e+00  2.9091501484093750e-05 5.1259480533948814e-04 0.0000000000000000e+00  3.2169028426983576e-05 5.2766096650015161e-04 0.0000000000000000e+00  3.5538151871044113e-05 5.4175498104459656e-04 0.0000000000000000e+00  3.8719783986613868e-05 5.5506813095524527e-04 0.0000000000000000e+00  4.1780247241139003e-05 5.6812272390804560e-04 0.0000000000000000e+00  4.4798586689386370e-05 5.8096271776291884e-04 0.0000000000000000e+00  4.7778877115761711e-05 5.9358836251481681e-04 0.0000000000000000e+00  5.0714753408489820e-05 6.0605297218795822e-04 0.0000000000000000e+00  5.3605988660494949e-05 6.1839409118473845e-04 0.0000000000000000e+00  5.6450603461590794e-05 6.3063949489078428e-04 0.0000000000000000e+00  5.9249175828694792e-05 6.4280870485096387e-04 0.0000000000000000e+00  1.2219910803484577e-06 4.4213235745955981e-04 0.0000000000000000e+00  3.9138287888644314e-06 4.5449993572685047e-04 0.0000000000000000e+00  6.8378730580373310e-06 4.6698244776413405e-04 0.0000000000000000e+00  9.8041010292638492e-06 4.7972312187881296e-04 0.0000000000000000e+00  1.2826179902389549e-05 4.9276916478683608e-04 0.0000000000000000e+00  1.5966084942445133e-05 5.0625168643731561e-04 0.0000000000000000e+00  1.9309965418541586e-05 5.2017937575286519e-04 0.0000000000000000e+00  2.2931308297239464e-05 5.3371740242961401e-04 0.0000000000000000e+00  2.6579221568267637e-05 5.4684933308017062e-04 0.0000000000000000e+00  3.0160165642638792e-05 5.5972573278493946e-04 0.0000000000000000e+00  3.3704374524331119e-05 5.7241408654970397e-04 0.0000000000000000e+00  3.7222588138020677e-05 5.8494909124905093e-04 0.0000000000000000e+00  4.0710990498521441e-05 5.9737176539181544e-04 0.0000000000000000e+00  4.4167946750525883e-05 6.0971476531842866e-04 0.0000000000000000e+00  4.7592171419635059e-05 6.2200364374556845e-04 0.0000000000000000e+00  5.0982734238384442e-05 6.3425724692436946e-04 0.0000000000000000e+00  5.4339719687457005e-05 6.4649165189820861e-04 0.0000000000000000e+00  -8.6444206307244828e-06 4.5032093214616314e-04 0.0000000000000000e+00  -5.7837833122486779e-06 4.6226258806507782e-04 0.0000000000000000e+00  -2.7758326102110422e-06 4.7441869775904938e-04 0.0000000000000000e+00  3.9501764155325933e-07 4.8683272455865990e-04 0.0000000000000000e+00  3.7443199657585008e-06 4.9961106833172641e-04 0.0000000000000000e+00  7.3209017283701864e-06 5.1267618714516774e-04 0.0000000000000000e+00  1.1136318436841323e-05 5.2564197375994277e-04 0.0000000000000000e+00  1.5057595566196823e-05 5.3843843515105779e-04 0.0000000000000000e+00  1.9004689727110772e-05 5.5108106444671265e-04 0.0000000000000000e+00  2.2957956078422765e-05 5.6359503384738894e-04 0.0000000000000000e+00  2.6912383163424236e-05 5.7601318401723732e-04 0.0000000000000000e+00  3.0861410768188454e-05 5.8837116428099437e-04 0.0000000000000000e+00  3.4799049871500257e-05 6.0069751245582319e-04 0.0000000000000000e+00  3.8720044500754253e-05 6.1301475518368267e-04 0.0000000000000000e+00  4.2619383598872488e-05 6.2534068821205727e-04 0.0000000000000000e+00  4.6492390057102043e-05 6.3768935903258707e-04 0.0000000000000000e+00  5.0335906858262155e-05 6.5007098066043501e-04 0.0000000000000000e+00  -1.7666898275729109e-05 4.5745451648488274e-04 0.0000000000000000e+00  -1.4550510206308777e-05 4.6896692417909981e-04 0.0000000000000000e+00  -1.1244215720419129e-05 4.8066703864209088e-04 0.0000000000000000e+00  -7.7304953585010024e-06 4.9274504754822355e-04 0.0000000000000000e+00  -3.9827686244764653e-06 5.0507877926331778e-04 0.0000000000000000e+00  -1.8194074942074174e-08 5.1749799299176022e-04 0.0000000000000000e+00  4.0854829742322272e-06 5.2990584273209700e-04 0.0000000000000000e+00  8.2783774251733520e-06 5.4225678419643378e-04 0.0000000000000000e+00  1.2531746964145106e-05 5.5455716770334785e-04 0.0000000000000000e+00  1.6826866151041113e-05 5.6682636913065333e-04 0.0000000000000000e+00  2.1148882036951054e-05 5.7909317656318804e-04 0.0000000000000000e+00  2.5485036507336471e-05 5.9138188944833268e-04 0.0000000000000000e+00  2.9824153409659807e-05 6.0371146627023970e-04 0.0000000000000000e+00  3.4155232765671423e-05 6.1609847037702252e-04 0.0000000000000000e+00  3.8467262423316736e-05 6.2855537693443520e-04 0.0000000000000000e+00  4.2750155595036715e-05 6.4108977853847020e-04 0.0000000000000000e+00  4.6995234636695862e-05 6.5370461343739763e-04 0.0000000000000000e+00  -2.5455589568533777e-05 4.6340532511870037e-04 0.0000000000000000e+00  -2.2121079474745812e-05 4.7430446641419393e-04 0.0000000000000000e+00  -1.8539888644065993e-05 4.8570565561482747e-04 0.0000000000000000e+00  -1.4699602601813290e-05 4.9736517471049926e-04 0.0000000000000000e+00  -1.0646628381533112e-05 5.0927177344631269e-04 0.0000000000000000e+00  -6.4353753759673196e-06 5.2127874823220072e-04 0.0000000000000000e+00  -2.0852964038532213e-06 5.3329693094635435e-04 0.0000000000000000e+00  2.3778505573392454e-06 5.4534333889196852e-04 0.0000000000000000e+00  6.9291678660660590e-06 5.5742748750280233e-04 0.0000000000000000e+00  1.1545173472278335e-05 5.6957405635597630e-04 0.0000000000000000e+00  1.6204980224642899e-05 5.8180236202702324e-04 0.0000000000000000e+00  2.0890845192651755e-05 5.9412667151599564e-04 0.0000000000000000e+00  2.5584707742884227e-05 6.0656309728984639e-04 0.0000000000000000e+00  3.0267954556104391e-05 6.1912296970676210e-04 0.0000000000000000e+00  3.4922776591880486e-05 6.3181149663478757e-04 0.0000000000000000e+00  3.9532434043373759e-05 6.4462960344841816e-04 0.0000000000000000e+00  4.4080622455691054e-05 6.5757499497948765e-04 0.0000000000000000e+00  -3.2319429809134220e-05 4.6777433833933442e-04 0.0000000000000000e+00  -2.8777168946764431e-05 4.7855042534027380e-04 0.0000000000000000e+00  -2.4921552142977123e-05 4.8952929275541924e-04 0.0000000000000000e+00  -2.0847704528094534e-05 5.0097055965941213e-04 0.0000000000000000e+00  -1.6603283746264220e-05 5.1258312006532253e-04 0.0000000000000000e+00  -1.2167848007221424e-05 5.2422848202621068e-04 0.0000000000000000e+00  -7.5668089813824595e-06 5.3598383868328988e-04 0.0000000000000000e+00  -2.8293272540896878e-06 5.4784548584384544e-04 0.0000000000000000e+00  2.0129869187736005e-06 5.5984181941113177e-04 0.0000000000000000e+00  6.9311092834552119e-06 5.7198604217659026e-04 0.0000000000000000e+00  1.1901712853799474e-05 5.8428552318727240e-04 0.0000000000000000e+00  1.6899161151900735e-05 5.9675870720013349e-04 0.0000000000000000e+00  2.1896197218879779e-05 6.0941624372450466e-04 0.0000000000000000e+00  2.6866887961315984e-05 6.2226027798775599e-04 0.0000000000000000e+00  3.1786641618494321e-05 6.3528951009859458e-04 0.0000000000000000e+00  3.6631195589021137e-05 6.4850076095507086e-04 0.0000000000000000e+00  4.1376763545519534e-05 6.6188786190461777e-04 0.0000000000000000e+00  -3.8544522413687588e-05 4.7136143193876660e-04 0.0000000000000000e+00  -3.4755412616109494e-05 4.8154536771773777e-04 0.0000000000000000e+00  -3.0725487891574338e-05 4.9261758875663946e-04 0.0000000000000000e+00  -2.6521728870154565e-05 5.0385508779377756e-04 0.0000000000000000e+00  -2.2056190476122373e-05 5.1506619039847564e-04 0.0000000000000000e+00  -1.7372522560684451e-05 5.2649797602656210e-04 0.0000000000000000e+00  -1.2504229197023012e-05 5.3809794753417685e-04 0.0000000000000000e+00  -7.4914434537995940e-06 5.4991524200366287e-04 0.0000000000000000e+00  -2.3705376933874801e-06 5.6195198383964841e-04 0.0000000000000000e+00  2.8331107304463357e-06 5.7420406652893886e-04 0.0000000000000000e+00  8.0857234132762035e-06 5.8670000585030213e-04 0.0000000000000000e+00  1.3350000886843109e-05 5.9944976708053814e-04 0.0000000000000000e+00  1.8591766063267528e-05 6.1245028863112264e-04 0.0000000000000000e+00  2.3778914258390408e-05 6.2569751238526761e-04 0.0000000000000000e+00  2.8879395275386687e-05 6.3918739586474977e-04 0.0000000000000000e+00  3.3862808596038896e-05 6.5291094903816059e-04 0.0000000000000000e+00  3.8702198774221946e-05 6.6685726283221614e-04 0.0000000000000000e+00  -4.4412825652718227e-05 4.7329287110290280e-04 0.0000000000000000e+00  -4.8066904394444368e-05 4.6434076398868101e-04 0.0000000000000000e+00  -4.0418498288560409e-05 4.8425318699368375e-04 0.0000000000000000e+00  -3.6304718191398161e-05 4.9514779249372281e-04 0.0000000000000000e+00  -3.1833514357761839e-05 5.0580445635247805e-04 0.0000000000000000e+00  -2.7107767472084853e-05 5.1689783738781859e-04 0.0000000000000000e+00  -2.2152341260436187e-05 5.2819086354802627e-04 0.0000000000000000e+00  -1.7015580669208994e-05 5.3980470156178844e-04 0.0000000000000000e+00  -1.1739722055678676e-05 5.5171213947923740e-04 0.0000000000000000e+00  -6.3441965943309124e-06 5.6388812357477185e-04 0.0000000000000000e+00  -8.7338450460688437e-07 5.7639147868958449e-04 0.0000000000000000e+00  4.6225772846436050e-06 5.8922858401890660e-04 0.0000000000000000e+00  1.0101612298197957e-05 6.0238618307722179e-04 0.0000000000000000e+00  1.5524562133864355e-05 6.1585738677983216e-04 0.0000000000000000e+00  2.0850779955047767e-05 6.2963853661285329e-04 0.0000000000000000e+00  2.6042868869375471e-05 6.4371510004764064e-04 0.0000000000000000e+00  3.1070738255391219e-05 6.5806751817953056e-04 0.0000000000000000e+00  3.5911587181140687e-05 6.7268126514724103e-04 0.0000000000000000e+00  -5.4645169138390295e-05 4.6420798208658036e-04 0.0000000000000000e+00  -5.5365287811216607e-05 4.5885676772933263e-04 0.0000000000000000e+00  -5.0075200338591078e-05 4.7594206241224711e-04 0.0000000000000000e+00  -4.6017876488443649e-05 4.8654990210572364e-04 0.0000000000000000e+00  -4.1541036289022440e-05 4.9639532715660059e-04 0.0000000000000000e+00  -3.6825376306992478e-05 5.0720117339475275e-04 0.0000000000000000e+00  -3.1827162268224823e-05 5.1811816574810071e-04 0.0000000000000000e+00  -2.6609838326105555e-05 5.2951547440255884e-04 0.0000000000000000e+00  -2.1223626198380201e-05 5.4127439254598672e-04 0.0000000000000000e+00  -1.5665972199513443e-05 5.5333120051711128e-04 0.0000000000000000e+00  -1.0001312871977407e-05 5.6582653089983534e-04 0.0000000000000000e+00  -4.2982758870308306e-06 5.7874852948335670e-04 0.0000000000000000e+00  1.3951295977965433e-06 5.9206332788082035e-04 0.0000000000000000e+00  7.0335029264480198e-06 6.0576367113096183e-04 0.0000000000000000e+00  1.2564948136631739e-05 6.1985072936339685e-04 0.0000000000000000e+00  1.7943446204426876e-05 6.3429985718217242e-04 0.0000000000000000e+00  2.3136366772553267e-05 6.4907662652295619e-04 0.0000000000000000e+00  2.8122826113047063e-05 6.6415420530547447e-04 0.0000000000000000e+00  3.2889654951800662e-05 6.7951969950601969e-04 0.0000000000000000e+00  -5.9008494962311617e-05 4.6361576308335932e-04 0.0000000000000000e+00  -5.9477305658379900e-05 4.5888251245976020e-04 0.0000000000000000e+00  -5.8659749922610835e-05 4.6803342357674873e-04 0.0000000000000000e+00  -5.5233362820384093e-05 4.7835199202574596e-04 0.0000000000000000e+00  -5.1117669032960914e-05 4.8671435826517725e-04 0.0000000000000000e+00  -4.6573322156449185e-05 4.9747616125153248e-04 0.0000000000000000e+00  -4.1593469086738487e-05 5.0785374682533687e-04 0.0000000000000000e+00  -3.6335514728217640e-05 5.1905370379613130e-04 0.0000000000000000e+00  -3.0882974925171728e-05 5.3064801683332975e-04 0.0000000000000000e+00  -2.5176065240891060e-05 5.4250843363340667e-04 0.0000000000000000e+00  -1.9326651767281961e-05 5.5498638011751151e-04 0.0000000000000000e+00  -1.3430628125023201e-05 5.6799713473501198e-04 0.0000000000000000e+00  -7.5345579415808330e-06 5.8146749722625562e-04 0.0000000000000000e+00  -1.6885662958462529e-06 5.9540053079151745e-04 0.0000000000000000e+00  4.0376688012597360e-06 6.0981358179878575e-04 0.0000000000000000e+00  9.5863224895612116e-06 6.2466197521831028e-04 0.0000000000000000e+00  1.4923601994848164e-05 6.3988658477610557e-04 0.0000000000000000e+00  2.0033019866945450e-05 6.5544424264459109e-04 0.0000000000000000e+00  2.4906913862516306e-05 6.7131291333718266e-04 0.0000000000000000e+00  2.9541606543276065e-05 6.8748687794694253e-04 0.0000000000000000e+00  -6.2770572548796064e-05 4.6363079812440270e-04 0.0000000000000000e+00  -6.3365605947967056e-05 4.5890575954659913e-04 0.0000000000000000e+00  -6.2249309533646917e-05 4.6811237919185285e-04 0.0000000000000000e+00  -6.1784101658704461e-05 4.7231268132896884e-04 0.0000000000000000e+00  -6.1484847738749231e-05 4.7621159363958257e-04 0.0000000000000000e+00  -5.6567963780514328e-05 4.8794552851574781e-04 0.0000000000000000e+00  -5.1605811916785233e-05 4.9729226418650013e-04 0.0000000000000000e+00  -4.6279663453473992e-05 5.0843362666304901e-04 0.0000000000000000e+00  -4.0796590720772896e-05 5.1985313942748380e-04 0.0000000000000000e+00  -3.4924099752636035e-05 5.3136037962263881e-04 0.0000000000000000e+00  -2.8881772254252655e-05 5.4384002084517961e-04 0.0000000000000000e+00  -2.2799106142466578e-05 5.5695624489412001e-04 0.0000000000000000e+00  -1.6700057190390074e-05 5.7057354260556410e-04 0.0000000000000000e+00  -1.0638152287117377e-05 5.8473846415531261e-04 0.0000000000000000e+00  -4.7161956062973681e-06 5.9950938844456224e-04 0.0000000000000000e+00  9.9136638612239074e-07 6.1479685702151184e-04 0.0000000000000000e+00  6.4535949684947408e-06 6.3050102617133431e-04 0.0000000000000000e+00  1.1663065430203012e-05 6.4655907604803603e-04 0.0000000000000000e+00  1.6620248069863113e-05 6.6294202385149773e-04 0.0000000000000000e+00  2.1326840206133850e-05 6.7964207212473679e-04 0.0000000000000000e+00  2.5783934873614981e-05 6.9666224141792050e-04 0.0000000000000000e+00  -6.6291364300164192e-05 4.6365197062685806e-04 0.0000000000000000e+00  -6.5667182339316287e-05 4.6812458973403726e-04 0.0000000000000000e+00  -6.5115676195550361e-05 4.7232264954487325e-04 0.0000000000000000e+00  -6.4668045196084273e-05 4.7628401520599499e-04 0.0000000000000000e+00  -6.4127517188962532e-05 4.8015356836013406e-04 0.0000000000000000e+00  -6.2295276660028761e-05 4.8595877055680368e-04 0.0000000000000000e+00  -5.6473760260414634e-05 4.9770293422403758e-04 0.0000000000000000e+00  -5.1011796772948750e-05 5.0895458644411998e-04 0.0000000000000000e+00  -4.4949906205310938e-05 5.1975638632723552e-04 0.0000000000000000e+00  -3.8702144180910229e-05 5.3235136389634949e-04 0.0000000000000000e+00  -3.2438872490711586e-05 5.4560843180062829e-04 0.0000000000000000e+00  -2.6120684881830872e-05 5.5934150749927935e-04 0.0000000000000000e+00  -1.9810398073622031e-05 5.7372699669147034e-04 0.0000000000000000e+00  -1.3678577674958597e-05 5.8891300518323485e-04 0.0000000000000000e+00  -7.8206053153000809e-06 6.04701311272