<?xml version="1.0"?>
<VTKFile type="UnstructuredGrid"  version="0.1"  >
<UnstructuredGrid>
<Piece  NumberOfPoints="640" NumberOfCells="1175">
<Points>
<DataArray  type="Float64"  NumberOfComponents="3"  format="ascii">2.577391304347826 0 0  2.593913043478261 0 0  2.593913043478261 0.01666666666666667 0  2.577391304347826 0.01666666666666667 0  2.610434782608696 0 0  2.610434782608696 0.01666666666666667 0  2.62695652173913 0 0  2.62695652173913 0.01666666666666667 0  2.643478260869565 0 0  2.643478260869565 0.01666666666666667 0  2.66 0 0  2.66 0.01666666666666667 0  2.676521739130435 0 0  2.676521739130435 0.01666666666666667 0  2.693043478260869 0 0  2.693043478260869 0.01666666666666667 0  2.709565217391304 0 0  2.709565217391304 0.01666666666666667 0  2.726086956521739 0 0  2.726086956521739 0.01666666666666667 0  2.742608695652174 0 0  2.742608695652174 0.01666666666666667 0  2.759130434782609 0 0  2.759130434782609 0.01666666666666667 0  2.775652173913044 0 0  2.775652173913044 0.01666666666666667 0  2.792173913043478 0 0  2.792173913043478 0.01666666666666667 0  2.808695652173913 0 0  2.808695652173913 0.01666666666666667 0  2.825217391304347 0 0  2.825217391304347 0.01666666666666667 0  2.841739130434783 0 0  2.841739130434783 0.01666666666666667 0  2.858260869565217 0 0  2.858260869565217 0.01666666666666667 0  2.874782608695652 0 0  2.874782608695652 0.01666666666666667 0  2.891304347826087 0 0  2.891304347826087 0.01666666666666667 0  2.907826086956522 0 0  2.907826086956522 0.01666666666666667 0  2.924347826086957 0 0  2.924347826086957 0.01666666666666667 0  2.940869565217391 0 0  2.940869565217391 0.01666666666666667 0  2.957391304347826 0 0  2.957391304347826 0.01666666666666667 0  2.973913043478261 0 0  2.973913043478261 0.01666666666666667 0  2.593913043478261 0.03333333333333333 0  2.610434782608696 0.03333333333333333 0  2.62695652173913 0.03333333333333333 0  2.643478260869565 0.03333333333333333 0  2.66 0.03333333333333333 0  2.676521739130435 0.03333333333333333 0  2.693043478260869 0.03333333333333333 0  2.709565217391304 0.03333333333333333 0  2.726086956521739 0.03333333333333333 0  2.742608695652174 0.03333333333333333 0  2.759130434782609 0.03333333333333333 0  2.775652173913044 0.03333333333333333 0  2.792173913043478 0.03333333333333333 0  2.808695652173913 0.03333333333333333 0  2.825217391304347 0.03333333333333333 0  2.841739130434783 0.03333333333333333 0  2.858260869565217 0.03333333333333333 0  2.874782608695652 0.03333333333333333 0  2.891304347826087 0.03333333333333333 0  2.907826086956522 0.03333333333333333 0  2.924347826086957 0.03333333333333333 0  2.940869565217391 0.03333333333333333 0  2.957391304347826 0.03333333333333333 0  2.973913043478261 0.03333333333333333 0  2.610434782608696 0.05 0  2.62695652173913 0.05 0  2.643478260869565 0.05 0  2.66 0.05 0  2.676521739130435 0.05 0  2.693043478260869 0.05 0  2.709565217391304 0.05 0  2.726086956521739 0.05 0  2.742608695652174 0.05 0  2.759130434782609 0.05 0  2.775652173913044 0.05 0  2.792173913043478 0.05 0  2.808695652173913 0.05 0  2.825217391304347 0.05 0  2.841739130434783 0.05 0  2.858260869565217 0.05 0  2.874782608695652 0.05 0  2.891304347826087 0.05 0  2.907826086956522 0.05 0  2.924347826086957 0.05 0  2.940869565217391 0.05 0  2.957391304347826 0.05 0  2.973913043478261 0.05 0  2.990434782608696 0.05 0  2.62695652173913 0.06666666666666667 0  2.643478260869565 0.06666666666666667 0  2.66 0.06666666666666667 0  2.676521739130435 0.06666666666666667 0  2.693043478260869 0.06666666666666667 0  2.709565217391304 0.06666666666666667 0  2.726086956521739 0.06666666666666667 0  2.742608695652174 0.06666666666666667 0  2.759130434782609 0.06666666666666667 0  2.775652173913044 0.06666666666666667 0  2.792173913043478 0.06666666666666667 0  2.808695652173913 0.06666666666666667 0  2.825217391304347 0.06666666666666667 0  2.841739130434783 0.06666666666666667 0  2.858260869565217 0.06666666666666667 0  2.874782608695652 0.06666666666666667 0  2.891304347826087 0.06666666666666667 0  2.907826086956522 0.06666666666666667 0  2.924347826086957 0.06666666666666667 0  2.940869565217391 0.06666666666666667 0  2.957391304347826 0.06666666666666667 0  2.973913043478261 0.06666666666666667 0  2.990434782608696 0.06666666666666667 0  2.643478260869565 0.08333333333333333 0  2.66 0.08333333333333333 0  2.676521739130435 0.08333333333333333 0  2.693043478260869 0.08333333333333333 0  2.709565217391304 0.08333333333333333 0  2.726086956521739 0.08333333333333333 0  2.742608695652174 0.08333333333333333 0  2.759130434782609 0.08333333333333333 0  2.775652173913044 0.08333333333333333 0  2.792173913043478 0.08333333333333333 0  2.808695652173913 0.08333333333333333 0  2.825217391304347 0.08333333333333333 0  2.841739130434783 0.08333333333333333 0  2.858260869565217 0.08333333333333333 0  2.874782608695652 0.08333333333333333 0  2.891304347826087 0.08333333333333333 0  2.907826086956522 0.08333333333333333 0  2.924347826086957 0.08333333333333333 0  2.940869565217391 0.08333333333333333 0  2.957391304347826 0.08333333333333333 0  2.973913043478261 0.08333333333333333 0  2.990434782608696 0.08333333333333333 0  3.006956521739131 0.08333333333333333 0  2.66 0.1 0  2.676521739130435 0.1 0  2.693043478260869 0.1 0  2.709565217391304 0.1 0  2.726086956521739 0.1 0  2.742608695652174 0.1 0  2.759130434782609 0.1 0  2.775652173913044 0.1 0  2.792173913043478 0.1 0  2.808695652173913 0.1 0  2.825217391304347 0.1 0  2.841739130434783 0.1 0  2.858260869565217 0.1 0  2.874782608695652 0.1 0  2.891304347826087 0.1 0  2.907826086956522 0.1 0  2.924347826086957 0.1 0  2.940869565217391 0.1 0  2.957391304347826 0.1 0  2.973913043478261 0.1 0  2.990434782608696 0.1 0  3.006956521739131 0.1 0  2.676521739130435 0.1166666666666667 0  2.693043478260869 0.1166666666666667 0  2.709565217391304 0.1166666666666667 0  2.726086956521739 0.1166666666666667 0  2.742608695652174 0.1166666666666667 0  2.759130434782609 0.1166666666666667 0  2.775652173913044 0.1166666666666667 0  2.792173913043478 0.1166666666666667 0  2.808695652173913 0.1166666666666667 0  2.825217391304347 0.1166666666666667 0  2.841739130434783 0.1166666666666667 0  2.858260869565217 0.1166666666666667 0  2.874782608695652 0.1166666666666667 0  2.891304347826087 0.1166666666666667 0  2.907826086956522 0.1166666666666667 0  2.924347826086957 0.1166666666666667 0  2.940869565217391 0.1166666666666667 0  2.957391304347826 0.1166666666666667 0  2.973913043478261 0.1166666666666667 0  2.990434782608696 0.1166666666666667 0  3.006956521739131 0.1166666666666667 0  3.023478260869565 0.1166666666666667 0  2.693043478260869 0.1333333333333333 0  2.709565217391304 0.1333333333333333 0  2.726086956521739 0.1333333333333333 0  2.742608695652174 0.1333333333333333 0  2.759130434782609 0.1333333333333333 0  2.775652173913044 0.1333333333333333 0  2.792173913043478 0.1333333333333333 0  2.808695652173913 0.1333333333333333 0  2.825217391304347 0.1333333333333333 0  2.841739130434783 0.1333333333333333 0  2.858260869565217 0.1333333333333333 0  2.874782608695652 0.1333333333333333 0  2.891304347826087 0.1333333333333333 0  2.907826086956522 0.1333333333333333 0  2.924347826086957 0.1333333333333333 0  2.940869565217391 0.1333333333333333 0  2.957391304347826 0.1333333333333333 0  2.973913043478261 0.1333333333333333 0  2.990434782608696 0.1333333333333333 0  3.006956521739131 0.1333333333333333 0  3.023478260869565 0.1333333333333333 0  2.726086956521739 0.15 0  2.742608695652174 0.15 0  2.759130434782609 0.15 0  2.775652173913044 0.15 0  2.792173913043478 0.15 0  2.808695652173913 0.15 0  2.825217391304347 0.15 0  2.841739130434783 0.15 0  2.858260869565217 0.15 0  2.874782608695652 0.15 0  2.891304347826087 0.15 0  2.907826086956522 0.15 0  2.924347826086957 0.15 0  2.940869565217391 0.15 0  2.957391304347826 0.15 0  2.973913043478261 0.15 0  2.990434782608696 0.15 0  3.006956521739131 0.15 0  3.023478260869565 0.15 0  3.04 0.15 0  2.742608695652174 0.1666666666666667 0  2.759130434782609 0.1666666666666667 0  2.775652173913044 0.1666666666666667 0  2.792173913043478 0.1666666666666667 0  2.808695652173913 0.1666666666666667 0  2.825217391304347 0.1666666666666667 0  2.841739130434783 0.1666666666666667 0  2.858260869565217 0.1666666666666667 0  2.874782608695652 0.1666666666666667 0  2.891304347826087 0.1666666666666667 0  2.907826086956522 0.1666666666666667 0  2.924347826086957 0.1666666666666667 0  2.940869565217391 0.1666666666666667 0  2.957391304347826 0.1666666666666667 0  2.973913043478261 0.1666666666666667 0  2.990434782608696 0.1666666666666667 0  3.006956521739131 0.1666666666666667 0  3.023478260869565 0.1666666666666667 0  3.04 0.1666666666666667 0  3.056521739130435 0.1666666666666667 0  2.759130434782609 0.1833333333333333 0  2.775652173913044 0.1833333333333333 0  2.792173913043478 0.1833333333333333 0  2.808695652173913 0.1833333333333333 0  2.825217391304347 0.1833333333333333 0  2.841739130434783 0.1833333333333333 0  2.858260869565217 0.1833333333333333 0  2.874782608695652 0.1833333333333333 0  2.891304347826087 0.1833333333333333 0  2.907826086956522 0.1833333333333333 0  2.924347826086957 0.1833333333333333 0  2.940869565217391 0.1833333333333333 0  2.957391304347826 0.1833333333333333 0  2.973913043478261 0.1833333333333333 0  2.990434782608696 0.1833333333333333 0  3.006956521739131 0.1833333333333333 0  3.023478260869565 0.1833333333333333 0  3.04 0.1833333333333333 0  3.056521739130435 0.1833333333333333 0  3.073043478260869 0.1833333333333333 0  2.775652173913044 0.2 0  2.792173913043478 0.2 0  2.808695652173913 0.2 0  2.825217391304347 0.2 0  2.841739130434783 0.2 0  2.858260869565217 0.2 0  2.874782608695652 0.2 0  2.891304347826087 0.2 0  2.907826086956522 0.2 0  2.924347826086957 0.2 0  2.940869565217391 0.2 0  2.957391304347826 0.2 0  2.973913043478261 0.2 0  2.990434782608696 0.2 0  3.006956521739131 0.2 0  3.023478260869565 0.2 0  3.04 0.2 0  3.056521739130435 0.
[...]
<PointData  Vectors="Displacement"> 
<DataArray  type="Float64"  Name="Displacement"  NumberOfComponents="3" format="ascii">3.1411081733668660e-04 3.2617436802472449e-03 0.0000000000000000e+00  3.1532782977364770e-04 3.2980090619140466e-03 0.0000000000000000e+00  2.7902963845387373e-04 3.2975166391597381e-03 0.0000000000000000e+00  2.7732081802139027e-04 3.2612502273999017e-03 0.0000000000000000e+00  3.1652403302283798e-04 3.3337694063883044e-03 0.0000000000000000e+00  2.8075304774550434e-04 3.3332780140588178e-03 0.0000000000000000e+00  3.1769941071922996e-04 3.3689895957467390e-03 0.0000000000000000e+00  2.8249106642701960e-04 3.3684992329874796e-03 0.0000000000000000e+00  3.1885394829650601e-04 3.4036344880660255e-03 0.0000000000000000e+00  2.8424371002564862e-04 3.4031451544277902e-03 0.0000000000000000e+00  3.1998763090653685e-04 3.4376689117121763e-03 0.0000000000000000e+00  2.8601099472745173e-04 3.4371806073083102e-03 0.0000000000000000e+00  3.2110044131278699e-04 3.4710576577353484e-03 0.0000000000000000e+00  2.8779293784280747e-04 3.4705703892069441e-03 0.0000000000000000e+00  3.2219236848052702e-04 3.5037654658480128e-03 0.0000000000000000e+00  2.8958954865549076e-04 3.5032792434890421e-03 0.0000000000000000e+00  3.2326342347864409e-04 3.5357570762866628e-03 0.0000000000000000e+00  2.9140080726105074e-04 3.5352718952263223e-03 0.0000000000000000e+00  3.2431362014744838e-04 3.5669973310726889e-03 0.0000000000000000e+00  2.9322667793560474e-04 3.5665131799971434e-03 0.0000000000000000e+00  3.2534294739523730e-04 3.5974511162107170e-03 0.0000000000000000e+00  2.9506715960284536e-04 3.5969679954584045e-03 0.0000000000000000e+00  3.2635138072266618e-04 3.6270832336360876e-03 0.0000000000000000e+00  2.9692228713833137e-04 3.6266011479065864e-03 0.0000000000000000e+00  3.2733890419067203e-04 3.6558584092794186e-03 0.0000000000000000e+00  2.9879208928297661e-04 3.6553773556468492e-03 0.0000000000000000e+00  3.2830550674884268e-04 3.6837413606984558e-03 0.0000000000000000e+00  3.0067658135766632e-04 3.6832613320626770e-03 0.0000000000000000e+00  3.2925116667769185e-04 3.7106967837882881e-03 0.0000000000000000e+00  3.0257579008127874e-04 3.7102177812673464e-03 0.0000000000000000e+00  3.3017585227979138e-04 3.7366892771948262e-03 0.0000000000000000e+00  3.0448975635065097e-04 3.7362113206013065e-03 0.0000000000000000e+00  3.3107955689422531e-04 3.7616833267648808e-03 0.0000000000000000e+00  3.0641849079332279e-04 3.7612064348004231e-03 0.0000000000000000e+00  3.3196232501187396e-04 3.7856434867299354e-03 0.0000000000000000e+00  3.0836192861935659e-04 3.7851676424768515e-03 0.0000000000000000e+00  3.3282419271537302e-04 3.8085345707392195e-03 0.0000000000000000e+00  3.1031998453487640e-04 3.8080597560216371e-03 0.0000000000000000e+00  3.3366514613840500e-04 3.8303214623790650e-03 0.0000000000000000e+00  3.1229265229735050e-04 3.8298476760882418e-03 0.0000000000000000e+00  3.3448514760550744e-04 3.8509689055390523e-03 0.0000000000000000e+00  3.1427999410487740e-04 3.8504961515083542e-03 0.0000000000000000e+00  3.3528416374677307e-04 3.8704415026019480e-03 0.0000000000000000e+00  3.1628207232516309e-04 3.8699697888676917e-03 0.0000000000000000e+00  3.3606218166889090e-04 3.8887037828396866e-03 0.0000000000000000e+00  3.1829891021672248e-04 3.8882331096074486e-03 0.0000000000000000e+00  3.3681920218110956e-04 3.9057203022161064e-03 0.0000000000000000e+00  3.2033050040826931e-04 3.9052506594136460e-03 0.0000000000000000e+00  3.3755520136401136e-04 3.9214556363510646e-03 0.0000000000000000e+00  3.2237685048886372e-04 3.9209870467487610e-03 0.0000000000000000e+00  2.4251871779220775e-04 3.2969271137728491e-03 0.0000000000000000e+00  2.4475544315065656e-04 3.3326823275922337e-03 0.0000000000000000e+00  2.4704224960846589e-04 3.3678973764623217e-03 0.0000000000000000e+00  2.4937912029603234e-04 3.4025371214829823e-03 0.0000000000000000e+00  2.5176610148803944e-04 3.4365663931364308e-03 0.0000000000000000e+00  2.5420325374315273e-04 3.4699499852103143e-03 0.0000000000000000e+00  2.5669081047980681e-04 3.5026526430444642e-03 0.0000000000000000e+00  2.5922886032409605e-04 3.5346391021884955e-03 0.0000000000000000e+00  2.6181682649934515e-04 3.5658741958810164e-03 0.0000000000000000e+00  2.6445445122266320e-04 3.5963228191205738e-03 0.0000000000000000e+00  2.6714220639691404e-04 3.6259497791193271e-03 0.0000000000000000e+00  2.6988037804405300e-04 3.6547197912467706e-03 0.0000000000000000e+00  2.7266879300163674e-04 3.6825975672581494e-03 0.0000000000000000e+00  2.7550735811183400e-04 3.7095478101150411e-03 0.0000000000000000e+00  2.7839641229348671e-04 3.7355351295907621e-03 0.0000000000000000e+00  2.8133660410336984e-04 3.7605240097796193e-03 0.0000000000000000e+00  2.8432780350167580e-04 3.7844789844833819e-03 0.0000000000000000e+00  2.8736860317342714e-04 3.8073648735656722e-03 0.0000000000000000e+00  2.9045879480130431e-04 3.8291465859724605e-03 0.0000000000000000e+00  2.9359915739016554e-04 3.8497888576741936e-03 0.0000000000000000e+00  2.9679014109005908e-04 3.8692562765870902e-03 0.0000000000000000e+00  3.0003194063633567e-04 3.8875133674494589e-03 0.0000000000000000e+00  3.0332428338259370e-04 3.9045246858904121e-03 0.0000000000000000e+00  3.0666678768742102e-04 3.9202548455302801e-03 0.0000000000000000e+00  2.3729549659996511e-04 3.3244621857771803e-03 0.0000000000000000e+00  2.3956875445113192e-04 3.3599815905387435e-03 0.0000000000000000e+00  2.4187149655904093e-04 3.3949182424593298e-03 0.0000000000000000e+00  2.4420374438248590e-04 3.4292341144159738e-03 0.0000000000000000e+00  2.4656594460366018e-04 3.4628908312893613e-03 0.0000000000000000e+00  2.4895915988754465e-04 3.4958497048381623e-03 0.0000000000000000e+00  2.5138521734539956e-04 3.5280719254502297e-03 0.0000000000000000e+00  2.5384683526519941e-04 3.5595187614716355e-03 0.0000000000000000e+00  2.5634782648870005e-04 3.5901515718678636e-03 0.0000000000000000e+00  2.5889315753844545e-04 3.6199321263024626e-03 0.0000000000000000e+00  2.6148865360151854e-04 3.6488230896102140e-03 0.0000000000000000e+00  2.6414053895636836e-04 3.6767882418282383e-03 0.0000000000000000e+00  2.6685496228633722e-04 3.7037925712461550e-03 0.0000000000000000e+00  2.6963740752032102e-04 3.7298024007613672e-03 0.0000000000000000e+00  2.7249197720425407e-04 3.7547854365783538e-03 0.0000000000000000e+00  2.7542085304505919e-04 3.7787105130541441e-03 0.0000000000000000e+00  2.7842384412507320e-04 3.8015475480124013e-03 0.0000000000000000e+00  2.8149787869086103e-04 3.8232672471124156e-03 0.0000000000000000e+00  2.8463821278003310e-04 3.8438385182815722e-03 0.0000000000000000e+00  2.8783919742957434e-04 3.8632322090369950e-03 0.0000000000000000e+00  2.9109214149096875e-04 3.8814288091043735e-03 0.0000000000000000e+00  2.9439256489889370e-04 3.8984032428305187e-03 0.0000000000000000e+00  2.9772792122768167e-04 3.9141581763479155e-03 0.0000000000000000e+00  3.0102871222116161e-04 3.9287674908730051e-03 0.0000000000000000e+00  2.3137856910754868e-04 3.3522745022469837e-03 0.0000000000000000e+00  2.3366494044578805e-04 3.3875331458614998e-03 0.0000000000000000e+00  2.3596525962958675e-04 3.4221606576491804e-03 0.0000000000000000e+00  2.3828048680046377e-04 3.4561151893609220e-03 0.0000000000000000e+00  2.4061265869825300e-04 3.4893541850047733e-03 0.0000000000000000e+00  2.4296523291676483e-04 3.5218346368202855e-03 0.0000000000000000e+00  2.4534339319061432e-04 3.5535134499667530e-03 0.0000000000000000e+00  2.4775422836812512e-04 3.5843478515152948e-03 0.0000000000000000e+00  2.5020665658526830e-04 3.6142960646211248e-03 0.0000000000000000e+00  2.5271105564538709e-04 3.6433181465079225e-03 0.0000000000000000e+00  2.5527859511651895e-04 3.6713766622104385e-03 0.0000000000000000e+00  2.5792026069785422e-04 3.6984371566982700e-03 0.0000000000000000e+00  2.6064559151222245e-04 3.7244684830336767e-03 0.0000000000000000e+00  2.6346135673686324e-04 3.7494427124318934e-03 0.0000000000000000e+00  2.6637094765338901e-04 3.7733339583103970e-03 0.0000000000000000e+00  2.6937365329555052e-04 3.7961188105835888e-03 0.0000000000000000e+00  2.7246258461683471e-04 3.8177771257477352e-03 0.0000000000000000e+00  2.7562588818229284e-04 3.8382835496324117e-03 0.0000000000000000e+00  2.7884499797898113e-04 3.8576155493140426e-03 0.0000000000000000e+00  2.8208998017825563e-04 3.8757714399073832e-03 0.0000000000000000e+00  2.8534780859943608e-04 3.8927246015122239e-03 0.0000000000000000e+00  2.8859437719075604e-04 3.9085233341330334e-03 0.0000000000000000e+00  2.9168979824617579e-04 3.9234071783117701e-03 0.0000000000000000e+00  2.2475854204447791e-04 3.3803721959251997e-03 0.0000000000000000e+00  2.2704842370812128e-04 3.4153343725615193e-03 0.0000000000000000e+00  2.2934265796118283e-04 3.4496095435884709e-03 0.0000000000000000e+00  2.3164408528879727e-04 3.4831508764151010e-03 0.0000000000000000e+00  2.3395746518015381e-04 3.5159106069833318e-03 0.0000000000000000e+00  2.3628992025191242e-04 3.5478406165216033e-03 0.0000000000000000e+00  2.3865119750872754e-04 3.5788932561331573e-03 0.0000000000000000e+00  2.4105359583932634e-04 3.6090224888443620e-03 0.0000000000000000e+00  2.4351147406616043e-04 3.6381852179066987e-03 0.0000000000000000e+00  2.4604032591342032e-04 3.6663425127228845e-03 0.0000000000000000e+00  2.4865542537681041e-04 3.6934606103587158e-03 0.0000000000000000e+00  2.5136997089864781e-04 3.7195116632570027e-03 0.0000000000000000e+00  2.5419297089452334e-04 3.7444734788819626e-03 0.0000000000000000e+00  2.5712855146871837e-04 3.7683263433761173e-03 0.0000000000000000e+00  2.6017508779435346e-04 3.7910547771041357e-03 0.0000000000000000e+00  2.6332195194854588e-04 3.8126518651741288e-03 0.0000000000000000e+00  2.6655330743144141e-04 3.8330992427417191e-03 0.0000000000000000e+00  2.6983800310258395e-04 3.8523869604534635e-03 0.0000000000000000e+00  2.7310322503134292e-04 3.8705388273552600e-03 0.0000000000000000e+00  2.7632506174322989e-04 3.8874783372468439e-03 0.0000000000000000e+00  2.7949846248868622e-04 3.9033105210905385e-03 0.0000000000000000e+00  2.8235430064267293e-04 3.9185715501664350e-03 0.0000000000000000e+00  2.8482649880737861e-04 3.9329691902318699e-03 0.0000000000000000e+00  2.1744070557485907e-04 3.4087447853904996e-03 0.0000000000000000e+00  2.1973793685942149e-04 3.4433621102184482e-03 0.0000000000000000e+00  2.2203637266658878e-04 3.4772270444819800e-03 0.0000000000000000e+00  2.2434166147538607e-04 3.5102865202288292e-03 0.0000000000000000e+00  2.2666236314078955e-04 3.5424866594582203e-03 0.0000000000000000e+00  2.2901037903721899e-04 3.5737740300595205e-03 0.0000000000000000e+00  2.3140098725317389e-04 3.6040973870126885e-03 0.0000000000000000e+00  2.3385227927551506e-04 3.6334097032663360e-03 0.0000000000000000e+00  2.3638394977450357e-04 3.6616700662649212e-03 0.0000000000000000e+00  2.3901556257830781e-04 3.6888453056461773e-03 0.0000000000000000e+00  2.4176417859560266e-04 3.7149116075507740e-03 0.0000000000000000e+00  2.4464137303051726e-04 3.7398544180637198e-03 0.0000000000000000e+00  2.4765281548703533e-04 3.7636609982591726e-03 0.0000000000000000e+00  2.5079575312314637e-04 3.7863242345911453e-03 0.0000000000000000e+00  2.5405437853012199e-04 3.8078539011650279e-03 0.0000000000000000e+00  2.5742052613088328e-04 3.8282329505986840e-03 0.0000000000000000e+00  2.6086767942463534e-04 3.8474780115679594e-03 0.0000000000000000e+00  2.6426878113761446e-04 3.8656966161930255e-03 0.0000000000000000e+00  2.6753863565772275e-04 3.8826196541624273e-03 0.0000000000000000e+00  2.7071794480618491e-04 3.8983764124196013e-03 0.0000000000000000e+00  2.7339652790475341e-04 3.9142524383685914e-03 0.0000000000000000e+00  2.7544589564586344e-04 3.9290595634656781e-03 0.0000000000000000e+00  2.0944217499383234e-04 3.4373625686600576e-03 0.0000000000000000e+00  2.1176325461368166e-04 3.4715718770489032e-03 0.0000000000000000e+00  2.1408918075844512e-04 3.5049515388736003e-03 0.0000000000000000e+00  2.1642943677661870e-04 3.5374410579594325e-03 0.0000000000000000e+00  2.1879758363499964e-04 3.5689800474508833e-03 0.0000000000000000e+00  2.2121156496559348e-04 3.5995107189534209e-03 0.0000000000000000e+00  2.2369322997462185e-04 3.6289809491841978e-03 0.0000000000000000e+00  2.2626682609935608e-04 3.6573470982606596e-03 0.0000000000000000e+00  2.2895656954958316e-04 3.6845762296259291e-03 0.0000000000000000e+00  2.3178351362932408e-04 3.7106490232439648e-03 0.0000000000000000e+00  2.3476237963962433e-04 3.7355608976027536e-03 0.0000000000000000e+00  2.3790388782920328e-04 3.7593061765892424e-03 0.0000000000000000e+00  2.4120722456767043e-04 3.7818896062310385e-03 0.0000000000000000e+00  2.4463933133104935e-04 3.8033424190264641e-03 0.0000000000000000e+00  2.4820904765687058e-04 3.8236099688977541e-03 0.0000000000000000e+00  2.5194854799355168e-04 3.8427561941981789e-03 0.0000000000000000e+00  2.5567253022275630e-04 3.8611060428275137e-03 0.0000000000000000e+00  2.5937303829790150e-04 3.8781226369161048e-03 0.0000000000000000e+00  2.6261142741650019e-04 3.8935505152375908e-03 0.0000000000000000e+00  2.6484026549300607e-04 3.9103479567813076e-03 0.0000000000000000e+00  2.6691710820895436e-04 3.9260480502630096e-03 0.0000000000000000e+00  2.6543571824923326e-04 3.9426124414199942e-03 0.0000000000000000e+00  2.0078923869430026e-04 3.4661759732575459e-03 0.0000000000000000e+00  2.0316277792924495e-04 3.4998965842682650e-03 0.0000000000000000e+00  2.0555223677136590e-04 3.5326955268074954e-03 0.0000000000000000e+00  2.0797228671324815e-04 3.5645039917084724e-03 0.0000000000000000e+00  2.1044309131109515e-04 3.5952557277389029e-03 0.0000000000000000e+00  2.1299031955665081e-04 3.6248916299201524e-03 0.0000000000000000e+00  2.1564370337055969e-04 3.6533641406710335e-03 0.0000000000000000e+00  2.1843344109630789e-04 3.6806404770081949e-03 0.0000000000000000e+00  2.2138374691225529e-04 3.7067066844369378e-03 0.0000000000000000e+00  2.2450942371365703e-04 3.7315697321824966e-03 0.0000000000000000e+00  2.2783350615144149e-04 3.7552260051128099e-03 0.0000000000000000e+00  2.3136879762582793e-04 3.7777008189397417e-03 0.0000000000000000e+00  2.3505667295554560e-04 3.7990923509307098e-03 0.0000000000000000e+00  2.3887818675754805e-04 3.8191866638183324e-03 0.0000000000000000e+00  2.4295847490641252e-04 3.8380485150029098e-03 0.0000000000000000e+00  2.4715736176380361e-04 3.8566151332255411e-03 0.0000000000000000e+00  2.5159291728105599e-04 3.8734907198262019e-03 0.0000000000000000e+00  2.5641754059806360e-04 3.8898420674903164e-03 0.0000000000000000e+00  2.5386380770816295e-04 3.9081210117896661e-03 0.0000000000000000e+00  2.5250434113952718e-04 3.9257780174024566e-03 0.0000000000000000e+00  2.5188468209925605e-04 3.9422259274708958e-03 0.0000000000000000e+00  1.9398308962580662e-04 3.5282431933081984e-03 0.0000000000000000e+00  1.9648648566130406e-04 3.5603405119803071e-03 0.0000000000000000e+00  1.9904749697847437e-04 3.5913284716511959e-03 0.0000000000000000e+00  2.0169488862974619e-04 3.6211377892046612e-03 0.0000000000000000e+00  2.0446494536762409e-04 3.6497143470274425e-03 0.0000000000000000e+00  2.0739735144716351e-04 3.6770255825272946e-03 0.0000000000000000e+00  2.1052098990128094e-04 3.7030697613454366e-03 0.0000000000000000e+00  2.1383558817848628e-04 3.7278697523033541e-03 0.0000000000000000e+00  2.1737124266551358e-04 3.7513932656567644e-03 0.0000000000000000e+00  2.2118705821832249e-04 3.7737076933279639e-03 0.0000000000000000e+00  2.2516064037495951e-04 3.7950878028831310e-03 0.0000000000000000e+00  2.2931283767645795e-04 3.8151509356622293e-03 0.0000000000000000e+00  2.3323844019561383e-04 3.8336351250916789e-03 0.0000000000000000e+00  2.3651921703333597e-04 3.8528553555832517e-03 0.0000000000000000e+00  2.4001878690730442e-04 3.8709164824493772e-03 0.0000000000000000e+00  2.3850647924666713e-04 3.8900177408951343e-03 0.0000000000000000e+00  2.3784567458702034e-04 3.9080305955838841e-03 0.0000000000000000e+00  2.3713592281192065e-04 3.9255988426552119e-03 0.0000000000000000e+00  2.3665910174077567e-04 3.9421533697430993e-03 0.0000000000000000e+00  2.3641245454884588e-04 3.9580037503509418e-03 0.0000000000000000e+00  1.8428237555012450e-04 3.5564849526782414e-03 0.0000000000000000e+00  1.8696952157578350e-04 3.5877266762936199e-03 0.0000000000000000e+00  1.8975430959374920e-04 3.6177192342560002e-03 0.0000000000000000e+00  1.9267751677484938e-04 3.6463945697168408e-03 0.0000000000000000e+00  1.9579536910086466e-04 3.6737171208666274e-03 0.0000000000000000e+00  1.9915053219270312e-04 3.6997114102422816e-03 0.0000000000000000e+00  2.0272581129345213e-04 3.7244611467137641e-03 0.0000000000000000e+00  2.0650120731231561e-04 3.7478124541080958e-03 0.0000000000000000e+00  2.1058322371380166e-04 3.7698169258655679e-03 0.0000000000000000e+00  2.1492071509814005e-04 3.7913003441470716e-03 0.0000000000000000e+00  2.1947850092592826e-04 3.8111764642777156e-03 0.0000000000000000e+00  2.2449556068396287e-04 3.8306479533716555e-03 0.0000000000000000e+00  2.2293086382091186e-04 3.8512262412602350e-03 0.0000000000000000e+00  2.2217431830339233e-04 3.8709165031375987e-03 0.0000000000000000e+00  2.2154093138651974e-04 3.8898769188068470e-03 0.0000000000000000e+00  2.2106263206091520e-04 3.9079742472837766e-03 0.0000000000000000e+00  2.2073192511207706e-04 3.9254987418080077e-03 0.0000000000000000e+00  2.2062651317394347e-04 3.9421824780021542e-03 0.0000000000000000e+00  2.2064965151316653e-04 3.9580338130708265e-03 0.0000000000000000e+00  2.2086974790138739e-04 3.9729540315674239e-03 0.0000000000000000e+00  1.7414153376821986e-04 3.5844465527225351e-03 0.0000000000000000e+00  1.7711076345976502e-04 3.6146381913596017e-03 0.0000000000000000e+00  1.8022909505187835e-04 3.6434124302845662e-03 0.0000000000000000e+00  1.8356208606146033e-04 3.6707058418065878e-03 0.0000000000000000e+00  1.8719578039741623e-04 3.6965993547401722e-03 0.0000000000000000e+00  1.9107014707559367e-04 3.7213147388312092e-03 0.0000000000000000e+00  1.9522445755708277e-04 3.7446543750977940e-03 0.0000000000000000e+00  1.9917527721341569e-04 3.7663070062364311e-03 0.0000000000000000e+00  2.0264069697432743e-04 3.7881284078419950e-03 0.0000000000000000e+00  2.0663306385778769e-04 3.8092704263853442e-03 0.0000000000000000e+00  2.0548902630966026e-04 3.8305428965226943e-03 0.0000000000000000e+00  2.0496097942249885e-04 3.8508880176920919e-03 0.0000000000000000e+00  2.0423921791622567e-04 3.8707969980575547e-03 0.0000000000000000e+00  2.0380599481895103e-04 3.8897763983498437e-03 0.0000000000000000e+00  2.0360885250976456e-04 3.9079872171242942e-03 0.0000000000000000e+00  2.0356060406867061e-04 3.9254892173476112e-03 0.0000000000000000e+00  2.0367203078143069e-04 3.9422560132612149e-03 0.0000000000000000e+00  2.0424774111815004e-04 3.9581002899378194e-03 0.0000000000000000e+00  1.9963895760766079e-04 3.9779034708938904e-03 0.0000000000000000e+00  1.9475350789763019e-04 3.9951878273843631e-03 0.0000000000000000e+00  1.6369158275060129e-04 3.6118839767502703e-03 0.0000000000000000e+00  1.6709166144331030e-04 3.6407814457177431e-03 0.0000000000000000e+00  1.7068765552853295e-04 3.6680128544230991e-03 0.0000000000000000e+00  1.7458006333540260e-04 3.6936635540369433e-03 0.0000000000000000e+00  1.7884781774414851e-04 3.7184096828126833e-03 0.0000000000000000e+00  1.8338173278881000e-04 3.7415003109852090e-03 0.0000000000000000e+00  1.8865626703409302e-04 3.7643472561145791e-03 0.0000000000000000e+00  1.8745972917274899e-04 3.7871053212918701e-03 0.0000000000000000e+00  1.8661038555315421e-04 3.8092039272018181e-03 0.0000000000000000e+00  1.8604661200327771e-04 3.8303926377873552e-03 0.0000000000000000e+00  1.8561320193244518e-04 3.8508282764526721e-03 0.0000000000000000e+00  1.8534413708328338e-04 3.8707595554827714e-03 0.0000000000000000e+00  1.8522435226660822e-04 3.8898029905137166e-03 0.0000000000000000e+00  1.8525468806233165e-04 3.9080658267547060e-03 0.0000000000000000e+00  1.8569925018100273e-04 3.9255406542162991e-03 0.0000000000000000e+