<?xml version="1.0"?>
<VTKFile type="UnstructuredGrid"  version="0.1"  >
<UnstructuredGrid>
<Piece  NumberOfPoints="621" NumberOfCells="1125">
<Points>
<DataArray  type="Float64"  NumberOfComponents="3"  format="ascii">1.883478260869565 0 0  1.9 0 0  1.9 0.01666666666666667 0  1.883478260869565 0.01666666666666667 0  1.916521739130435 0 0  1.916521739130435 0.01666666666666667 0  1.933043478260869 0 0  1.933043478260869 0.01666666666666667 0  1.949565217391304 0 0  1.949565217391304 0.01666666666666667 0  1.966086956521739 0 0  1.966086956521739 0.01666666666666667 0  1.982608695652174 0 0  1.982608695652174 0.01666666666666667 0  1.999130434782608 0 0  1.999130434782608 0.01666666666666667 0  2.015652173913043 0 0  2.015652173913043 0.01666666666666667 0  2.032173913043478 0 0  2.032173913043478 0.01666666666666667 0  2.048695652173913 0 0  2.048695652173913 0.01666666666666667 0  2.065217391304348 0 0  2.065217391304348 0.01666666666666667 0  2.081739130434782 0 0  2.081739130434782 0.01666666666666667 0  2.098260869565217 0 0  2.098260869565217 0.01666666666666667 0  2.114782608695652 0 0  2.114782608695652 0.01666666666666667 0  2.131304347826087 0 0  2.131304347826087 0.01666666666666667 0  2.147826086956522 0 0  2.147826086956522 0.01666666666666667 0  2.164347826086956 0 0  2.164347826086956 0.01666666666666667 0  2.180869565217391 0 0  2.180869565217391 0.01666666666666667 0  2.197391304347826 0 0  2.197391304347826 0.01666666666666667 0  2.213913043478261 0 0  2.213913043478261 0.01666666666666667 0  2.230434782608695 0 0  2.230434782608695 0.01666666666666667 0  2.24695652173913 0 0  2.24695652173913 0.01666666666666667 0  2.263478260869565 0 0  2.263478260869565 0.01666666666666667 0  2.28 0 0  2.28 0.01666666666666667 0  2.296521739130434 0 0  2.296521739130434 0.01666666666666667 0  2.31304347826087 0 0  2.31304347826087 0.01666666666666667 0  2.329565217391304 0 0  2.329565217391304 0.01666666666666667 0  2.346086956521739 0 0  2.346086956521739 0.01666666666666667 0  2.362608695652174 0 0  2.362608695652174 0.01666666666666667 0  2.379130434782609 0 0  2.379130434782609 0.01666666666666667 0  2.395652173913044 0 0  2.395652173913044 0.01666666666666667 0  2.412173913043478 0 0  2.412173913043478 0.01666666666666667 0  2.428695652173913 0 0  2.428695652173913 0.01666666666666667 0  2.445217391304348 0 0  2.445217391304348 0.01666666666666667 0  2.461739130434782 0 0  2.461739130434782 0.01666666666666667 0  2.478260869565217 0 0  2.478260869565217 0.01666666666666667 0  2.494782608695652 0 0  2.494782608695652 0.01666666666666667 0  2.511304347826087 0 0  2.511304347826087 0.01666666666666667 0  2.527826086956522 0 0  2.527826086956522 0.01666666666666667 0  2.544347826086956 0 0  2.544347826086956 0.01666666666666667 0  2.560869565217391 0 0  2.560869565217391 0.01666666666666667 0  2.577391304347826 0 0  2.577391304347826 0.01666666666666667 0  1.916521739130435 0.03333333333333333 0  1.933043478260869 0.03333333333333333 0  1.949565217391304 0.03333333333333333 0  1.966086956521739 0.03333333333333333 0  1.982608695652174 0.03333333333333333 0  1.999130434782608 0.03333333333333333 0  2.015652173913043 0.03333333333333333 0  2.032173913043478 0.03333333333333333 0  2.048695652173913 0.03333333333333333 0  2.065217391304348 0.03333333333333333 0  2.081739130434782 0.03333333333333333 0  2.098260869565217 0.03333333333333333 0  2.114782608695652 0.03333333333333333 0  2.131304347826087 0.03333333333333333 0  2.147826086956522 0.03333333333333333 0  2.164347826086956 0.03333333333333333 0  2.180869565217391 0.03333333333333333 0  2.197391304347826 0.03333333333333333 0  2.213913043478261 0.03333333333333333 0  2.230434782608695 0.03333333333333333 0  2.24695652173913 0.03333333333333333 0  2.263478260869565 0.03333333333333333 0  2.28 0.03333333333333333 0  2.296521739130434 0.03333333333333333 0  2.31304347826087 0.03333333333333333 0  2.329565217391304 0.03333333333333333 0  2.346086956521739 0.03333333333333333 0  2.362608695652174 0.03333333333333333 0  2.379130434782609 0.03333333333333333 0  2.395652173913044 0.03333333333333333 0  2.412173913043478 0.03333333333333333 0  2.428695652173913 0.03333333333333333 0  2.445217391304348 0.03333333333333333 0  2.461739130434782 0.03333333333333333 0  2.478260869565217 0.03333333333333333 0  2.494782608695652 0.03333333333333333 0  2.511304347826087 0.03333333333333333 0  2.527826086956522 0.03333333333333333 0  2.544347826086956 0.03333333333333333 0  2.560869565217391 0.03333333333333333 0  2.577391304347826 0.03333333333333333 0  2.593913043478261 0.03333333333333333 0  1.933043478260869 0.05 0  1.949565217391304 0.05 0  1.966086956521739 0.05 0  1.982608695652174 0.05 0  1.999130434782608 0.05 0  2.015652173913043 0.05 0  2.032173913043478 0.05 0  2.048695652173913 0.05 0  2.065217391304348 0.05 0  2.081739130434782 0.05 0  2.098260869565217 0.05 0  2.114782608695652 0.05 0  2.131304347826087 0.05 0  2.147826086956522 0.05 0  2.164347826086956 0.05 0  2.180869565217391 0.05 0  2.197391304347826 0.05 0  2.213913043478261 0.05 0  2.230434782608695 0.05 0  2.24695652173913 0.05 0  2.263478260869565 0.05 0  2.28 0.05 0  2.296521739130434 0.05 0  2.31304347826087 0.05 0  2.329565217391304 0.05 0  2.346086956521739 0.05 0  2.362608695652174 0.05 0  2.379130434782609 0.05 0  2.395652173913044 0.05 0  2.412173913043478 0.05 0  2.428695652173913 0.05 0  2.445217391304348 0.05 0  2.461739130434782 0.05 0  2.478260869565217 0.05 0  2.494782608695652 0.05 0  2.511304347826087 0.05 0  2.527826086956522 0.05 0  2.544347826086956 0.05 0  2.560869565217391 0.05 0  2.577391304347826 0.05 0  2.593913043478261 0.05 0  2.610434782608696 0.05 0  1.949565217391304 0.06666666666666667 0  1.966086956521739 0.06666666666666667 0  1.982608695652174 0.06666666666666667 0  1.999130434782608 0.06666666666666667 0  2.015652173913043 0.06666666666666667 0  2.032173913043478 0.06666666666666667 0  2.048695652173913 0.06666666666666667 0  2.065217391304348 0.06666666666666667 0  2.081739130434782 0.06666666666666667 0  2.098260869565217 0.06666666666666667 0  2.114782608695652 0.06666666666666667 0  2.131304347826087 0.06666666666666667 0  2.147826086956522 0.06666666666666667 0  2.164347826086956 0.06666666666666667 0  2.180869565217391 0.06666666666666667 0  2.197391304347826 0.06666666666666667 0  2.213913043478261 0.06666666666666667 0  2.230434782608695 0.06666666666666667 0  2.24695652173913 0.06666666666666667 0  2.263478260869565 0.06666666666666667 0  2.28 0.06666666666666667 0  2.296521739130434 0.06666666666666667 0  2.31304347826087 0.06666666666666667 0  2.329565217391304 0.06666666666666667 0  2.346086956521739 0.06666666666666667 0  2.362608695652174 0.06666666666666667 0  2.379130434782609 0.06666666666666667 0  2.395652173913044 0.06666666666666667 0  2.412173913043478 0.06666666666666667 0  2.428695652173913 0.06666666666666667 0  2.445217391304348 0.06666666666666667 0  2.461739130434782 0.06666666666666667 0  2.478260869565217 0.06666666666666667 0  2.494782608695652 0.06666666666666667 0  2.511304347826087 0.06666666666666667 0  2.527826086956522 0.06666666666666667 0  2.544347826086956 0.06666666666666667 0  2.560869565217391 0.06666666666666667 0  2.577391304347826 0.06666666666666667 0  2.593913043478261 0.06666666666666667 0  2.610434782608696 0.06666666666666667 0  2.62695652173913 0.06666666666666667 0  1.966086956521739 0.08333333333333333 0  1.982608695652174 0.08333333333333333 0  1.999130434782608 0.08333333333333333 0  2.015652173913043 0.08333333333333333 0  2.032173913043478 0.08333333333333333 0  2.048695652173913 0.08333333333333333 0  2.065217391304348 0.08333333333333333 0  2.081739130434782 0.08333333333333333 0  2.098260869565217 0.08333333333333333 0  2.114782608695652 0.08333333333333333 0  2.131304347826087 0.08333333333333333 0  2.147826086956522 0.08333333333333333 0  2.164347826086956 0.08333333333333333 0  2.180869565217391 0.08333333333333333 0  2.197391304347826 0.08333333333333333 0  2.213913043478261 0.08333333333333333 0  2.230434782608695 0.08333333333333333 0  2.24695652173913 0.08333333333333333 0  2.263478260869565 0.08333333333333333 0  2.28 0.08333333333333333 0  2.296521739130434 0.08333333333333333 0  2.31304347826087 0.08333333333333333 0  2.329565217391304 0.08333333333333333 0  2.346086956521739 0.08333333333333333 0  2.362608695652174 0.08333333333333333 0  2.379130434782609 0.08333333333333333 0  2.395652173913044 0.08333333333333333 0  2.412173913043478 0.08333333333333333 0  2.428695652173913 0.08333333333333333 0  2.445217391304348 0.08333333333333333 0  2.461739130434782 0.08333333333333333 0  2.478260869565217 0.08333333333333333 0  2.494782608695652 0.08333333333333333 0  2.511304347826087 0.08333333333333333 0  2.527826086956522 0.08333333333333333 0  2.544347826086956 0.08333333333333333 0  2.560869565217391 0.08333333333333333 0  2.577391304347826 0.08333333333333333 0  2.593913043478261 0.08333333333333333 0  2.610434782608696 0.08333333333333333 0  2.62695652173913 0.08333333333333333 0  2.643478260869565 0.08333333333333333 0  1.982608695652174 0.1 0  1.999130434782608 0.1 0  2.015652173913043 0.1 0  2.032173913043478 0.1 0  2.048695652173913 0.1 0  2.065217391304348 0.1 0  2.081739130434782 0.1 0  2.098260869565217 0.1 0  2.114782608695652 0.1 0  2.131304347826087 0.1 0  2.147826086956522 0.1 0  2.164347826086956 0.1 0  2.180869565217391 0.1 0  2.197391304347826 0.1 0  2.213913043478261 0.1 0  2.230434782608695 0.1 0  2.24695652173913 0.1 0  2.263478260869565 0.1 0  2.28 0.1 0  2.296521739130434 0.1 0  2.31304347826087 0.1 0  2.329565217391304 0.1 0  2.346086956521739 0.1 0  2.362608695652174 0.1 0  2.379130434782609 0.1 0  2.395652173913044 0.1 0  2.412173913043478 0.1 0  2.428695652173913 0.1 0  2.445217391304348 0.1 0  2.461739130434782 0.1 0  2.478260869565217 0.1 0  2.494782608695652 0.1 0  2.511304347826087 0.1 0  2.527826086956522 0.1 0  2.544347826086956 0.1 0  2.560869565217391 0.1 0  2.5773
[...]
<CellData  Scalars="rho"> 
<DataArray  type="Float64"  Name="rho"  format="ascii">1.0000000000000000e+00   1.0000000000000000e+00   1.0000000000000000e+00   1.0000000000000000e+00   1.0000000000000000e+00   1.0000000000000000e+00   1.0000000000000000e+00   1.0000000000000000e+00   1.0000000000000000e+00   1.0000000000000000e+00   1.0000000000000000e+00   1.0000000000000000e+00   1.0000000000000000e+00   1.0000000000000000e+00   1.0000000000000000e+00   1.0000000000000000e+00   1.0000000000000000e+00   1.0000000000000000e+00   1.0000000000000000e+00   1.0000000000000000e+00   1.0000000000000000e+00   1.0000000000000000e+00   1.0000000000000000e+00   1.0000000000000000e+00   1.0000000000000000e+00   1.0000000000000000e+00   1.0000000000000000e+00   1.0000000000000000e+00   1.0000000000000000e+00   1.0000000000000000e+00   1.0000000000000000e+00   1.0000000000000000e+00   1.0000000000000000e+00   1.0000000000000000e+00   1.0000000000000000e+00   1.0000000000000000e+00   1.0000000000000000e+00   1.0000000000000000e+00   1.0000000000000000e+00   1.0000000000000000e+00   1.0000000000000000e+00   1.0000000000000000e+00   1.0000000000000000e+00   1.0000000000000000e+00   1.0000000000000000e+00   1.0000000000000000e+00   1.0000000000000000e+00   1.0000000000000000e+00   1.0000000000000000e+00   1.0000000000000000e+00   1.0000000000000000e+00   1.0000000000000000e+00   1.0000000000000000e+00   1.0000000000000000e+00   1.0000000000000000e+00   1.0000000000000000e+00   9.8114119882976625e-01   9.7876512385514713e-01   1.0000000000000000e+00   1.0000000000000000e+00   1.0000000000000000e+00   9.5978694120732078e-01   1.0000000000000000e+00   1.0000000000000000e+00   9.8524939056651606e-01   9.7874319313342950e-01   9.4851532197288457e-01   9.4689489483730316e-01   9.1391688813436289e-01   9.1384376244271182e-01   8.9875281125336415e-01   8.9822784616468543e-01   8.8609474487329443e-01   8.8662038815061461e-01   8.8065102895919944e-01   8.7791389412230392e-01   8.7922968465529094e-01   8.7442598249347647e-01   8.8348745750092339e-01   8.7608204271035506e-01   8.9399109346844008e-01   8.8709160748257632e-01   8.9806799338611898e-01   8.9237983994555359e-01   1.0000000000000000e+00   1.0000000000000000e+00   9.6473858036748050e-01   9.8393922949334245e-01   9.1614809634453009e-01   1.0000000000000000e+00   9.2650570688052569e-01   1.0000000000000000e+00   9.7103713994820706e-01   1.0000000000000000e+00   9.6964290836768285e-01   1.0000000000000000e+00   9.6933543753299778e-01   1.0000000000000000e+00   9.6176218547932102e-01   1.0000000000000000e+00   9.6285212676109300e-01   1.0000000000000000e+00   9.7523066071674369e-01   1.0000000000000000e+00   1.0000000000000000e+00   1.0000000000000000e+00   1.0000000000000000e+00   1.0000000000000000e+00   1.0000000000000000e+00   1.0000000000000000e+00   1.0000000000000000e+00   1.0000000000000000e+00   1.0000000000000000e+00   1.0000000000000000e+00   1.0000000000000000e+00   1.0000000000000000e+00   1.0000000000000000e+00   1.0000000000000000e+00   1.0000000000000000e+00   1.0000000000000000e+00   1.0000000000000000e+00   1.0000000000000000e+00   1.0000000000000000e+00   1.0000000000000000e+00   1.0000000000000000e+00   1.0000000000000000e+00   1.0000000000000000e+00   1.0000000000000000e+00   1.0000000000000000e+00   1.0000000000000000e+00   1.0000000000000000e+00   1.0000000000000000e+00   1.0000000000000000e+00   1.0000000000000000e+00   1.0000000000000000e+00   9.6377157022687565e-01   9.5048073763812291e-01   9.5816612042278571e-01   9.3324862345673576e-01   9.4904424155600198e-01   9.3664058754656143e-01   9.7864972344224821e-01   9.3544207400372681e-01   9.3920298235184907e-01   9.1706906589525217e-01   9.2156569884945350e-01   9.0442333952256904e-01   9.0645514303642294e-01   8.9536369572049790e-01   8.9325272247109888e-01   8.8717527486101810e-01   8.7786568426633182e-01   8.7920431001703070e-01   8.7204389778482849e-01   8.7251996454547576e-01   8.6799916685291090e-01   8.6769164433306600e-01   8.6704892534494449e-01   8.0751467971403412e-01   8.6969130927776028e-01   8.6575397675891319e-01   8.7623350391262467e-01   8.6945426703049677e-01   8.9088708126415539e-01   8.7781746596632149e-01   8.9439712186074605e-01   8.6131846323141503e-01   8.7451731327391879e-01   5.1811123695193328e-01   8.8640585969153840e-01   5.5147822939843172e-01   8.9114495360543677e-01   5.3084056393526735e-01   9.0278008162755918e-01   4.8370374400126182e-01   9.0462292364779362e-01   4.2083184908915988e-01   8.9204534985288919e-01   2.9400736362772212e-01   9.4786243073739707e-01   3.5951738329787764e-01   9.4086631105064877e-01   4.0225415804626180e-01   9.5047669028225557e-01   4.2014564756355094e-01   9.1099494023418703e-01   5.2369413322112601e-01   9.1433014527035184e-01   5.2203024588365554e-01   9.1564338816044466e-01   4.8968542215867084e-01   9.1530979236881338e-01   4.8253626365629043e-01   9.1513384234172668e-01   3.9705653825559956e-01   9.1541563520799063e-01   4.9135577445439921e-01   9.1528685211866578e-01   5.0690947061987812e-01   9.4177496759293722e-01   4.9788435280458743e-01   9.2130320309392089e-01   4.9692147512461277e-01   9.2065132766602520e-01   4.9664587297648405e-01   8.7601838119437703e-01   4.9722165393665080e-01   8.7495553605428156e-01   4.9767021735249539e-01   7.9879558158445374e-01   4.9803388219127304e-01   7.9561640054170002e-01   4.9795619052853185e-01   7.9397158024989878e-01   4.9439328875129956e-01   8.0854127902432371e-01   4.8136739618443286e-01   8.0389328894813405e-01   4.7647255969632740e-01   7.9291158122776761e-01   4.7165170576399540e-01   6.4629089749111435e-01   4.4453059968635306e-01   6.2800378813975333e-01   3.9614204688496685e-01   5.8761320834630448e-01   4.4645892485361449e-01   5.7614941971747835e-01   4.3960081435050524e-01   5.6369611200397263e-01   4.3330778627113475e-01   5.4843877112438388e-01   4.1831961629524250e-01   5.3865360531559137e-01   4.1518606507548311e-01   5.3458162366275697e-01   4.0637036434239593e-01   5.2464651456882616e-01   4.0640750714233448e-01   5.1617309016825041e-01   3.9553919907953305e-01   5.0982738660560656e-01   3.9267570272708563e-01   5.0798004989678647e-01   3.8416122715879641e-01   4.9578872934650658e-01   3.6561346814986267e-01   2.7605410158247651e-01   1.8313195839346680e-02   1.7520031772875456e-02   1.6253908586106446e-02   1.6804132051573547e-02   1.5553355126396481e-02   1.6148124365132199e-02   1.4914354015055224e-02   1.5529492690709015e-02   1.4319202807392723e-02   1.4928619031652431e-02   1.3750432839662553e-02   1.4333018077261044e-02   1.3195914807476131e-02   1.3735939442543808e-02   1.2647852728039151e-02   1.3138914033022189e-02   1.2102425169746290e-02   1.2549819474136676e-02   1.1563111370190083e-02   1.1977202759576078e-02   1.1036066010123585e-02   1.1428430756241991e-02   1.0527818192580972e-02   1.0909086282704903e-02   1.0044498460633634e-02   1.0423663076672657e-02   9.5912529692172722e-03   9.9757090363632849e-03   9.1722390912543639e-03   9.5676278284042970e-03   8.7899881817595643e-03   9.2025509806542855e-03   8.4463195158469700e-03   8.8843688657047545e-03   8.1443457641238604e-03   8.6162598398420946e-03   7.8872558823336273e-03   8.4000539283395903e-03   7.6775464082394409e-03   8.2367638087327694e-03   7.5169005123931045e-03   8.1271942213546559e-03   7.4069948779411999e-03   8.0730772188398747e-03   7.3499695725517270e-03   8.0771313372811106e-03   7.3493848571736737e-03   8.1423691062288764e-03   7.4095469204757576e-03   8.2721231959390108e-03   7.5355033942967886e-03   8.4706958643225166e-03   7.7332397371452852e-03   8.7431042381077694e-03   8.0097925554867156e-03   9.0923203489211794e-03   8.3708984940300633e-03   9.5102952036854333e-03   8.8145143349641283e-03   9.9713654169056639e-03   9.3206047057471427e-03   1.0433719349672329e-02   9.8493394258581772e-03   1.0844237466853134e-02   1.5332741216036184e-02   1.2205603263538371e-02   1.5287894175130986e-02   1.4015440228894435e-02   1.7474651248540612e-02   1.4858541495447285e-02   2.0096765988958640e-02   1.1044812811287646e-02   2.0951135016221565e-02   1.0669034119733363e-02   2.0383970728202853e-02   1.0181650763695703e-02   1.7940721726633111e-02   9.6397209362187840e-03   1.8926519814544674e-02   9.0963225373984300e-03   8.7838988289610457e-03   8.2005507167167233e-03   1.3149566088442212e-02   1.2551326679649491e-02   1.1425486654113933e-02   1.2002016751893984e-02   1.0901362621260144e-02   1.1488792407869102e-02   1.0416966416649798e-02   1.1001362323435094e-02   9.9615684400557736e-03   1.0532575524990144e-02   9.5275187880889903e-03   1.0076408145428838e-02   9.1090213753424118e-03   9.6293313568985069e-03   8.7013817957637650e-03   9.1916503744399122e-03   8.3033972996723483e-03   8.7661346170991219e-03   7.9165468186515476e-03   8.3572170850717414e-03   7.5439736944796490e-03   7.9700653875799370e-03   7.1900005557492376e-03   7.6096036941855315e-03   6.8589873001696751e-03   7.2795194670738084e-03   6.5547071967343006e-03   6.9816392603598227e-03   6.2795249757029671e-03   6.7174017267186935e-03   6.0347527005220744e-03   6.4890541787352204e-03   5.8222982139946250e-03   6.2992354451180694e-03   5.6446537366176899e-03   6.1505163458114853e-03   5.5045243136399502e-03   6.0455777104017729e-03   5.4048009624036598e-03   5.9876502306449551e-03   5.3490370588196662e-03   5.9812074552826498e-03   5.3419098660945101e-03   6.0322721616746181e-03   5.3899457569313155e-03   6.1484118057762473e-03   5.5015916130650338e-03   6.3390640699836987e-03   5.6875162620087967e-03   6.6154594738625731e-03   5.9606890324158607e-03   6.9891961195854384e-03   6.3352139786154006e-03   7.4680161019010614e-03   6.8226560187474496e-03   1.0415611273176728e-02   1.7252464429973975e-02   1.8247903601001297e-02   2.8596932204305113e-02   3.6293727327970454e-02   4.8142620480982633e-02   4.3164124976349916e-02   5.4433023050443050e-02   4.8649138823925374e-02   6.0264524664858432e-02   4.9342846597998771e-02   6.5472808933613957e-02   5.4011042395160157e-02   6.9128612770715331e-02   5.4467241988256622e-02   7.0530892897280595e-02   5.2875675362046501e-02   7.2041780695364044e-02   5.2048215839685059e-02   6.8801435247583476e-02   4.7332004461722373e-02   6.3240484008320177e-02   3.9855134543385545e-02   5.7830367491487199e-02   1.3311936327843093e-02   3.2112120636218051e-02   1.8311922333071797e-02   8.9903352212714789e-03   8.5515461784831989e-03   7.7836049436311658e-03   8.1477108894910943e-03   7.3992306774036815e-03   7.7703023083332389e-03   7.0436313827137312e-03   7.4127742057447923e-03   6.7097968484012421e-03   7.0700689921155682e-03   6.3924202052049774e-03   6.7390011753380632e-03   6.0877016599878995e-03   6.4186910918202205e-03   5.7939386944811907e-03   6.1101613739857619e-03   5.5113208986522803e-03   5.8158088808326546e-03   5.2414338837574207e-03   5.5387526737860826e-03   4.9867832956059076e-03   5.2821426534220934e-03   4.7501425793920818e-03   5.0485787052612936e-03   4.5340697496887832e-03   4.8399058417018491e-03   4.3405653183969401e-03   4.6577766803489740e-03   4.1712641792091163e-03   4.5042338281973847e-03   4.0280706367639722e-03   4.3818078986731512e-03   3.9134037338320691e-03   4.2935464675942546e-03   3.8302827229286535e-03   4.2432782276759272e-03   3.7825544930334110e-03   4.2360825758404304e-03   3.7753577843451670e-03   4.2789191371741010e-03   3.8157248889827597e-03   4.3812339096631616e-03   3.9133283038225303e-03   4.5555112621680580e-03   4.0811473779713446e-03   4.8177000925399682e-03   4.3360661903077673e-03   5.1867918419612078e-03   4.6988220863994250e-03   5.6822563703629375e-03   5.1920212015473151e-03   6.3174640814963696e-03   5.8343900647734792e-03   1.8330551198050809e-02   2.8618881668551220e-02   5.1934246267207065e-02   1.1743276506748668e-01   7.8810686769492475e-02   1.5603131471692339e-01   1.5488078302069991e-01   1.8317225869361806e-01   1.6928135732418909e-01   2.0563434250134160e-01   1.8109547390132547e-01   2.2972506532189438e-01   1.8792584171706425e-01   2.4147259886696945e-01   1.9768073593072488e-01   2.4813009544438858e-01   1.9142679209277205e-01   2.4591464449865308e-01   1.6823572693400773e-01   2.3255672323635046e-01   1.4606916455515617e-01   2.0700597869285561e-01   1.2292469310935655e-01   1.6911389899344961e-01   9.3086826493908814e-02   1.3784735396978584e-01   4.8689530245416807e-02   8.2164233921967200e-02   5.0866644092918079e-02   6.1550446678103870e-03   5.8301143373025903e-03   5.3630328765216949e-03   5.5310929454974456e-03   5.0746153020127631e-03   5.2517077021748933e-03   4.8076572219739678e-03   4.9873710281769660e-03   4.5570648505835216e-03   4.7351893791456245e-03   4.3193970566925430e-03   4.4939721407923749e-03   4.0928811144776180e-03   4.2639803385626637e-03   3.8772227525782116e-03   4.0465454310852200e-03   3.6732681807678824e-03   3.8436200436014665e-03   3.4826163561919015e-03   3.6573374315039186e-03   3.3072024135617291e-03   3.4896895309605483e-03   3.1489770992372506e-03   3.3424486607279607e-03   3.0097479801790049e-03   3.2174129287871767e-03   2.8912911088783523e-03   3.1167415580134203e-03   2.7956725796891941e-03   3.0432164324770642e-03   2.7255499364915912e-03   3.0005261849250062e-03   2.6844838880944965e-03   2.9936998572667965e-03   2.6773709371386649e-03   3.0297153178808060e-03   2.7110581942761986e-03   3.1182838966916757e-03   2.7951406890299219e-03   3.2727850544699865e-03   2.9429631549592501e-03   3.5112948201152000e-03   3.1727766628853881e-03   3.8573342757221287e-03   3.5088029164770905e-03   4.3392743853412396e-03   3.9812630201836990e-03   4.9860636968113454e-03   4.6231032541624766e-03   5.8164781263778404e-03   5.4600944802326301e-03   1.4182636281673219e-01   1.0585129307692973e-01   2.1632081616333704e-01   2.4097374067469424e-01   2.4594462411779983e-01   2.7202155765014846e-01   2.7242551578591712e-01   2.9862897875757261e-01   3.4359980498159426e-01   3.8105748153297331e-01   3.7907000095555599e-01   4.3211988748805918e-01   4.1515176936659404e-01   4.5877426894288653e-01   4.3348590248374436e-01   4.7923834155958062e-01   4.3763486202122065e-01   4.9097368347281833e-01   3.2168837655650850e-01   4.8421278029793541e-01   2.8588865476500969e-01   3.4187586200080716e-01   2.3944489559970381e-01   2.9464120521541387e-01   1.8978378791585154e-01   2.3657713838407743e-01   1.4634532593892349e-01   1.8850947781064725e-01   1.4545454182198665e-02   7.0309062964002078e-02   7.4756916388636269e-02   3.2527179760981888e-03   3.0670189562330480e-03   2.8463588957947888e-03   2.8931910963006370e-03   2.6762131751413704e-03   2.7327742067221944e-03   2.5189139135061928e-03   2.5875509452631816e-03   2.3762056544697923e-03   2.4593275092376957e-03   2.2499270475946432e-03   2.3498967581602960e-03   2.1419112645445558e-03   2.2612025848123534e-03   2.0540823528952912e-03   2.1956330865531924e-03   1.9887262536496578e-03   2.1563851235648708e-03   1.9488616864899674e-03   2.1479319391773822e-03   1.9387208124140157e-03   2.1766488105513767e-03   1.9643821592516758e-03   2.2516361083498720e-03   2.0346058622293505e-03   2.3857535731731908e-03   2.1618878677742682e-03   2.5969300863990154e-03   2.3637905501353840e-03   2.9097734933649900e-03   2.6646404559698437e-03   3.3568307965781423e-03   3.0972071781869507e-03   3.9777893825457249e-03   3.7028137725466539e-03   4.8116935479424255e-03   5.3771898688052565e-02   1.2178099565343795e-01   1.5766491250857395e-01   2.7606367504132151e-01   3.2478651373925344e-01   3.0790436982466285e-01   3.5684932381426460e-01   3.3369869198406737e-01   3.8142417745881219e-01   3.9316760912376175e-01   4.4204194332476970e-01   4.9177166165364544e-01   5.4525900553561468e-01   5.0322596074885351e-01   5.4955008639273972e-01   5.1784399436277750e-01   5.5293850659831323e-01   5.3409481299905459e-01   5.6367069095343458e-01   5.4789232918015285e-01   5.7979421052270497e-01   5.5491395832869239e-01   5.9067861676005384e-01   5.1980388901377617e-01   5.8753649919849071e-01   3.4054206136605469e-01   5.2321629014572746e-01   2.7557508341347475e-01   3.4926245795998795e-01   2.2032652411521636e-01   2.9122227611205348e-01   1.4499501713223387e-01   2.3445841031356701e-01   9.2823860054552135e-02   8.9968656801528810e-02   1.0850626650574405e-01   2.3636600475243109e-03   2.2041358502860116e-03   2.1133409632827986e-03   2.0587209378729533e-03   1.9619224822112389e-03   1.9293929038258506e-03   1.8266802123160376e-03   1.8181360848959147e-03   1.7097768554022654e-03   1.7269201220254766e-03   1.6133011887121229e-03   1.6578784467077231e-03   1.5393915069763751e-03   1.6136590939309545e-03   1.4905622981976074e-03   1.5979208389031345e-03   1.4702028341260390e-03   1.6159906817532256e-03   1.4832440599166423e-03   1.6757184011688487e-03   1.5370249974072966e-03   1.7885665224610622e-03   1.6423953631052237e-03   1.9709188797076517e-03   1.8150487255849405e-03   2.2456584085865606e-03   2.0770598485201765e-03   2.6443790173671954e-03   2.4589600056422519e-03   3.2090135929011875e-03   3.0018150249857848e-03   3.9898453193453051e-03   3.7563298293942660e-03   1.9087866239526316e-01   2.1096670342278354e-01   3.8036682331911204e-01   4.0060090242475571e-01   4.1221726095444028e-01   4.3301281780586559e-01   4.3382468286832221e-01   4.5470365223125297e-01   4.5894648586098202e-01   4.7418520100081679e-01   5.1218617682259460e-01   5.2932224804775829e-01   6.0023833865669729e-01   4.9517196369438465e-01   5.7606693739550918e-01   5.1492604859783697e-01   5.5290883945111358e-01   5.0688235181106467e-01   5.6166121645979583e-01   5.4432267473119422e-01   5.9274304147646817e-01   5.6726623368327689e-01   6.1600559614904438e-01   5.9325750598894322e-01   6.1777239731837952e-01   6.2904055540802462e-01   4.6528230020055672e-01   6.1890927038978827e-01   4.0073460405969474e-01   4.6506606261067529e-01   3.4832230813120230e-01   4.1088672166354262e-01   2.8799551758356978e-01   3.6084068289576149e-01   2.0706226133835745e-01   2.7950528354796289e-01   1.5558834624205986e-01   2.0303358027249077e-01   1.9268826421599578e-03   1.5039380580946285e-01   1.7837127483139145e-03   1.8764092067330631e-03   1.7194945684710018e-03   1.7251700610436114e-03   1.5822344404414555e-03   1.5722098892512956e-03   1.4671752775446934e-03   1.4426772516992637e-03   1.3766320082026307e-03   1.3391678417385914e-03   1.3129414753801048e-03   1.2640765920750442e-03   1.2789481994092981e-03   1.2200654508015996e-03   1.2786957909373304e-03   1.2107664946809319e-03   1.3183192609506412e-03   1.2416967911886782e-03   1.4071688228125987e-03   1.3213993870045057e-03   1.5591818797503513e-03   1.4628257415232565e-03   1.7944023181518237e-03   1.6848830070511790e-03   2.1403219618279330e-03   1.7801291921213336e-01   2.6337797512500090e-03   2.4840160162780439e-03   2.3824389486652336e-01   2.4873331443506555e-01   2.5320726367735047e-01   3.5895726252762761e-01   4.7185921964949962e-01   4.9274085168247839e-01   5.2334012127074292e-01   5.4783247156346837e-01   5.3560025901288488e-01   6.1931574501098841e-01   5.5055696895696737e-01   5.8988689753805834e-01   5.5859393513587929e-01   6.0157914860562667e-01   5.4771077584701044e-01   5.9780584468550602e-01   5.4273419215621255e-01   5.5938415794014351e-01   5.2629692732834854e-01   5.4862778393552847e-01   5.2824352556872345e-01   5.5399653817332717e-01   5.3792366139249992e-01   5.6277392560083273e-01   5.4287392258250522e-01   5.7294428035487988e-01   5.6075587415977390e-01   5.8624867749762399e-01   5.8017205524504289e-01   6.0471457668096606e-01   5.8810096909610454e-01   6.1598032347281462e-01   5.5648141422331909e-01   6.1486578845679218e-01   4.9854367163649399e-01   5.9518191639728391e-01   4.3676942950335040e-01   5.4052787367338317e-01   3.6865805551453068e-01   4.3053970156045518e-01   2.7706332700727521e-01   3.6977023105815959e-01   2.2293168141710759e-01   2.9483386413254448e-01   1.7659932891558763e-03   2.1449612208136090e-01   1.7734876522206063e-03   1.6579047255213728