<?xml version="1.0"?>
<VTKFile type="UnstructuredGrid"  version="0.1"  >
<UnstructuredGrid>
<Piece  NumberOfPoints="639" NumberOfCells="1175">
<Points>
<DataArray  type="Float64"  NumberOfComponents="3"  format="ascii">1.321739130434783 0 0  1.338260869565217 0 0  1.338260869565217 0.01666666666666667 0  1.354782608695652 0 0  1.354782608695652 0.01666666666666667 0  1.371304347826087 0 0  1.371304347826087 0.01666666666666667 0  1.387826086956522 0 0  1.387826086956522 0.01666666666666667 0  1.404347826086957 0 0  1.404347826086957 0.01666666666666667 0  1.420869565217391 0 0  1.420869565217391 0.01666666666666667 0  1.437391304347826 0 0  1.437391304347826 0.01666666666666667 0  1.453913043478261 0 0  1.453913043478261 0.01666666666666667 0  1.470434782608696 0 0  1.470434782608696 0.01666666666666667 0  1.486956521739131 0 0  1.486956521739131 0.01666666666666667 0  1.503478260869565 0 0  1.503478260869565 0.01666666666666667 0  1.52 0 0  1.52 0.01666666666666667 0  1.536521739130435 0 0  1.536521739130435 0.01666666666666667 0  1.55304347826087 0 0  1.55304347826087 0.01666666666666667 0  1.569565217391304 0 0  1.569565217391304 0.01666666666666667 0  1.586086956521739 0 0  1.586086956521739 0.01666666666666667 0  1.602608695652174 0 0  1.602608695652174 0.01666666666666667 0  1.619130434782609 0 0  1.619130434782609 0.01666666666666667 0  1.635652173913043 0 0  1.635652173913043 0.01666666666666667 0  1.652173913043478 0 0  1.652173913043478 0.01666666666666667 0  1.668695652173913 0 0  1.668695652173913 0.01666666666666667 0  1.685217391304348 0 0  1.685217391304348 0.01666666666666667 0  1.701739130434782 0 0  1.701739130434782 0.01666666666666667 0  1.718260869565217 0 0  1.718260869565217 0.01666666666666667 0  1.734782608695652 0 0  1.734782608695652 0.01666666666666667 0  1.751304347826087 0 0  1.751304347826087 0.01666666666666667 0  1.767826086956522 0 0  1.767826086956522 0.01666666666666667 0  1.784347826086957 0 0  1.784347826086957 0.01666666666666667 0  1.800869565217391 0 0  1.800869565217391 0.01666666666666667 0  1.817391304347826 0 0  1.817391304347826 0.01666666666666667 0  1.833913043478261 0 0  1.833913043478261 0.01666666666666667 0  1.850434782608696 0 0  1.850434782608696 0.01666666666666667 0  1.86695652173913 0 0  1.86695652173913 0.01666666666666667 0  1.883478260869565 0 0  1.883478260869565 0.01666666666666667 0  1.354782608695652 0.03333333333333333 0  1.371304347826087 0.03333333333333333 0  1.387826086956522 0.03333333333333333 0  1.404347826086957 0.03333333333333333 0  1.420869565217391 0.03333333333333333 0  1.437391304347826 0.03333333333333333 0  1.453913043478261 0.03333333333333333 0  1.470434782608696 0.03333333333333333 0  1.486956521739131 0.03333333333333333 0  1.503478260869565 0.03333333333333333 0  1.52 0.03333333333333333 0  1.536521739130435 0.03333333333333333 0  1.55304347826087 0.03333333333333333 0  1.569565217391304 0.03333333333333333 0  1.586086956521739 0.03333333333333333 0  1.602608695652174 0.03333333333333333 0  1.619130434782609 0.03333333333333333 0  1.635652173913043 0.03333333333333333 0  1.652173913043478 0.03333333333333333 0  1.668695652173913 0.03333333333333333 0  1.685217391304348 0.03333333333333333 0  1.701739130434782 0.03333333333333333 0  1.718260869565217 0.03333333333333333 0  1.734782608695652 0.03333333333333333 0  1.751304347826087 0.03333333333333333 0  1.767826086956522 0.03333333333333333 0  1.784347826086957 0.03333333333333333 0  1.800869565217391 0.03333333333333333 0  1.817391304347826 0.03333333333333333 0  1.833913043478261 0.03333333333333333 0  1.850434782608696 0.03333333333333333 0  1.86695652173913 0.03333333333333333 0  1.883478260869565 0.03333333333333333 0  1.371304347826087 0.05 0  1.387826086956522 0.05 0  1.404347826086957 0.05 0  1.420869565217391 0.05 0  1.437391304347826 0.05 0  1.453913043478261 0.05 0  1.470434782608696 0.05 0  1.486956521739131 0.05 0  1.503478260869565 0.05 0  1.52 0.05 0  1.536521739130435 0.05 0  1.55304347826087 0.05 0  1.569565217391304 0.05 0  1.586086956521739 0.05 0  1.602608695652174 0.05 0  1.619130434782609 0.05 0  1.635652173913043 0.05 0  1.652173913043478 0.05 0  1.668695652173913 0.05 0  1.685217391304348 0.05 0  1.701739130434782 0.05 0  1.718260869565217 0.05 0  1.734782608695652 0.05 0  1.751304347826087 0.05 0  1.767826086956522 0.05 0  1.784347826086957 0.05 0  1.800869565217391 0.05 0  1.817391304347826 0.05 0  1.833913043478261 0.05 0  1.850434782608696 0.05 0  1.86695652173913 0.05 0  1.883478260869565 0.05 0  1.387826086956522 0.06666666666666667 0  1.404347826086957 0.06666666666666667 0  1.420869565217391 0.06666666666666667 0  1.437391304347826 0.06666666666666667 0  1.453913043478261 0.06666666666666667 0  1.470434782608696 0.06666666666666667 0  1.486956521739131 0.06666666666666667 0  1.503478260869565 0.06666666666666667 0  1.52 0.06666666666666667 0  1.536521739130435 0.06666666666666667 0  1.55304347826087 0.06666666666666667 0  1.569565217391304 0.06666666666666667 0  1.586086956521739 0.06666666666666667 0  1.602608695652174 0.06666666666666667 0  1.619130434782609 0.06666666666666667 0  1.635652173913043 0.06666666666666667 0  1.652173913043478 0.06666666666666667 0  1.668695652173913 0.06666666666666667 0  1.685217391304348 0.06666666666666667 0  1.701739130434782 0.06666666666666667 0  1.718260869565217 0.06666666666666667 0  1.734782608695652 0.06666666666666667 0  1.751304347826087 0.06666666666666667 0  1.767826086956522 0.06666666666666667 0  1.784347826086957 0.06666666666666667 0  1.800869565217391 0.06666666666666667 0  1.817391304347826 0.06666666666666667 0  1.833913043478261 0.06666666666666667 0  1.850434782608696 0.06666666666666667 0  1.86695652173913 0.06666666666666667 0  1.883478260869565 0.06666666666666667 0  1.404347826086957 0.08333333333333333 0  1.420869565217391 0.08333333333333333 0  1.437391304347826 0.08333333333333333 0  1.453913043478261 0.08333333333333333 0  1.470434782608696 0.08333333333333333 0  1.486956521739131 0.08333333333333333 0  1.503478260869565 0.08333333333333333 0  1.52 0.08333333333333333 0  1.536521739130435 0.08333333333333333 0  1.55304347826087 0.08333333333333333 0  1.569565217391304 0.08333333333333333 0  1.586086956521739 0.08333333333333333 0  1.602608695652174 0.08333333333333333 0  1.619130434782609 0.08333333333333333 0  1.635652173913043 0.08333333333333333 0  1.652173913043478 0.08333333333333333 0  1.668695652173913 0.08333333333333333 0  1.685217391304348 0.08333333333333333 0  1.701739130434782 0.08333333333333333 0  1.718260869565217 0.08333333333333333 0  1.734782608695652 0.08333333333333333 0  1.751304347826087 0.08333333333333333 0  1.767826086956522 0.08333333333333333 0  1.784347826086957 0.08333333333333333 0  1.800869565217391 0.08333333333333333 0  1.817391304347826 0.08333333333333333 0  1.833913043478261 0.08333333333333333 0  1.850434782608696 0.08333333333333333 0  1.86695652173913 0.08333333333333333 0  1.883478260869565 0.08333333333333333 0  1.420869565217391 0.1 0  1.437391304347826 0.1 0  1.453913043478261 0.1 0  1.470434782608696 0.1 0  1.486956521739131 0.1 0  1.503478260869565 0.1 0  1.52 0.1 0  1.536521739130435 0.1 0  1.55304347826087 0.1 0  1.569565217391304 0.1 0  1.586086956521739 0.1 0  1.602608695652174 0.1 0  1.619130434782609 0.1 0  1.635652173913043 0.1 0  1.652173913043478 0.1 0  1.668695652173913 0.1 0  1.685217391304348 0.1 0  1.701739130434782 0.1 0  1.718260869565217 0.1 0  1.734782608695652 0.1 0  1.751304347826087 0.1 0  1.767826086956522 0.1 0  1.784347826086957 0.1 0  1.800869565217391 0.1 0  1.817391304347826 0.1 0  1.833913043478261 0.1 0  1.850434782608696 0.1 0  1.86695652173913 0.1 0  1.883478260869565 0.1 0  1.437391304347826 0.1166666666666667 0  1.453913043478261 0.1166666666666667 0  1.470434782608696 0.1166666666666667 0  1.486956521739131 0.1166666666666667 0  1.503478260869565 0.1166666666666667 0  1.52 0.1166666666666667 0  1.536521739130435 0.1166666666666667 0  1.55304347826087 0.1166666666666667 0  1.569565217391304 0.1166666666666667 0  1.586086956521739 0.1166666666666667 0  1.602608695652174 0.1166666666666667 0  1.619130434782609 0.1166666666666667 0  1.635652173913043 0.1166666666666667 0  1.652173913043478 0.1166666666666667 0  1.668695652173913 0.1166666666666667 0  1.685217391304348 0.1166666666666667 0  1.701739130434782 0.1166666666666667 0  1.718260869565217 0.1166666666666667 0  1.734782608695652 0.1166666666666667 0  1.751304347826087 0.1166666666666667 0  1.767826086956522 0.1166666666666667 0  1.784347826086957 0.1166666666666667 0  1.800869565217391 0.1166666666666667 0  1.817391304347826 0.1166666666666667 0  1.833913043478261 0.1166666666666667 0  1.850434782608696 0.1166666666666667 0  1.86695652173913 0.1166666666666667 0  1.883478260869565 0.1166666666666667 0  1.453913043478261 0.1333333333333333 0  1.470434782608696 0.1333333333333333 0  1.486956521739131 0.1333333333333333 0  1.503478260869565 0.1333333333333333 0  1.52 0.1333333333333333 0  1.536521739130435 0.1333333333333333 0  1.55304347826087 0.1333333333333333 0  1.569565217391304 0.1333333333333333 0  1.586086956521739 0.1333333333333333 0  1.602608695652174 0.1333333333333333 0  1.619130434782609 0.1333333333333333 0  1.635652173913043 0.1333333333333333 0  1.652173913043478 0.1333333333333333 0  1.668695652173913 0.1333333333333333 0  1.685217391304348 0.1333333333333333 0  1.701739130434782 0.1333333333333333 0  1.718260869565217 0.1333333333333333 0  1.734782608695652 0.1333333333333333 0  1.751304347826087 0.1333333333333333 0  1.767826086956522 0.1333333333333333 0  1.784347826086957 0.1333333333333333 0  1.800869565217391 0.1333333333333333 0  1.817391304347826 0.1333333333333333 0  1.833913043478261 0.1333333333333333 0  1.850434782608696 0.1333333333333333 0  1.86695652173913 0.1333333333333333 0  1.883478260869565 0.1333333333333333 0  1.470434782608696 0.15 0  1.486956521739131 0.15 0  1.503478260869565 0.15 0  1.52 0.15 0  1.5365217391304
[...]
<PointData  Vectors="Displacement"> 
<DataArray  type="Float64"  Name="Displacement"  NumberOfComponents="3" format="ascii">1.7784917639711718e-04 1.1338378817557840e-03 0.0000000000000000e+00  1.8006568299360290e-04 1.1501626907280582e-03 0.0000000000000000e+00  1.6383509170312438e-04 1.1493183738029420e-03 0.0000000000000000e+00  1.8218389481152713e-04 1.1663748812421632e-03 0.0000000000000000e+00  1.6637668867076026e-04 1.1654992823831080e-03 0.0000000000000000e+00  1.8434186244578767e-04 1.1817575922828567e-03 0.0000000000000000e+00  1.6944464701435755e-04 1.1806930270845126e-03 0.0000000000000000e+00  1.8659145732883615e-04 1.1955569907910859e-03 0.0000000000000000e+00  1.7348549453446391e-04 1.1945313792334506e-03 0.0000000000000000e+00  1.8884640301049740e-04 1.2075328290073112e-03 0.0000000000000000e+00  1.7748952203848784e-04 1.2066042649011132e-03 0.0000000000000000e+00  1.9108036483120590e-04 1.2175333089002268e-03 0.0000000000000000e+00  1.8126812989676245e-04 1.2169085725210890e-03 0.0000000000000000e+00  1.9341465453457960e-04 1.2268288387032990e-03 0.0000000000000000e+00  1.8355627616972988e-04 1.2261314095003176e-03 0.0000000000000000e+00  1.9590374381935622e-04 1.2366001883627681e-03 0.0000000000000000e+00  1.8548929965283691e-04 1.2359089480957657e-03 0.0000000000000000e+00  1.9851475449216046e-04 1.2470765361099383e-03 0.0000000000000000e+00  1.8727200944422206e-04 1.2464018862626920e-03 0.0000000000000000e+00  2.0136115622678793e-04 1.2582733716145946e-03 0.0000000000000000e+00  1.8905546371668944e-04 1.2575523543790462e-03 0.0000000000000000e+00  2.0459328271472211e-04 1.2704924406372407e-03 0.0000000000000000e+00  1.9090131737321264e-04 1.2696807220884908e-03 0.0000000000000000e+00  2.0827339616776472e-04 1.2843010052783659e-03 0.0000000000000000e+00  1.9276357993033716e-04 1.2833730043919217e-03 0.0000000000000000e+00  2.1230907524853314e-04 1.3003910523562518e-03 0.0000000000000000e+00  1.9457768024160464e-04 1.2993525188241966e-03 0.0000000000000000e+00  2.1632151968829875e-04 1.3195006838889528e-03 0.0000000000000000e+00  1.9615808064671859e-04 1.3184745956569992e-03 0.0000000000000000e+00  2.2008265815959234e-04 1.3414808262296274e-03 0.0000000000000000e+00  1.9766206527871479e-04 1.3402749881749234e-03 0.0000000000000000e+00  2.2302510987477295e-04 1.3655833068065362e-03 0.0000000000000000e+00  1.9979444217650528e-04 1.3647975626585127e-03 0.0000000000000000e+00  2.2512832587231652e-04 1.3897855121254555e-03 0.0000000000000000e+00  2.0168570628815375e-04 1.3891407170407814e-03 0.0000000000000000e+00  2.2661568583583119e-04 1.4136596232151018e-03 0.0000000000000000e+00  2.0348037749677708e-04 1.4131436531894883e-03 0.0000000000000000e+00  2.2759443012119091e-04 1.4369789287589840e-03 0.0000000000000000e+00  2.0505557661643648e-04 1.4365669450731844e-03 0.0000000000000000e+00  2.2809146543698771e-04 1.4594708867401291e-03 0.0000000000000000e+00  2.0646898462954599e-04 1.4592226319772202e-03 0.0000000000000000e+00  2.2818809701542964e-04 1.4807618991349010e-03 0.0000000000000000e+00  2.0762144755009660e-04 1.4806605746915324e-03 0.0000000000000000e+00  2.2809898871864541e-04 1.5007087978145713e-03 0.0000000000000000e+00  2.0851374066980103e-04 1.5006563470795074e-03 0.0000000000000000e+00  2.2798763563712838e-04 1.5196020460653428e-03 0.0000000000000000e+00  2.0919368185204966e-04 1.5195781690554725e-03 0.0000000000000000e+00  2.2797821835249095e-04 1.5376664125976466e-03 0.0000000000000000e+00  2.0973660157917683e-04 1.5376407655187934e-03 0.0000000000000000e+00  2.2821203774885015e-04 1.5551277637299290e-03 0.0000000000000000e+00  2.1024196624264924e-04 1.5550556809200112e-03 0.0000000000000000e+00  2.2884500610677899e-04 1.5722901233999188e-03 0.0000000000000000e+00  2.1081164558097720e-04 1.5721182801733599e-03 0.0000000000000000e+00  2.2999791777528886e-04 1.5895947334806349e-03 0.0000000000000000e+00  2.1151837012526085e-04 1.5892820609945937e-03 0.0000000000000000e+00  2.3168498095551952e-04 1.6076050703948098e-03 0.0000000000000000e+00  2.1236967864989175e-04 1.6071484718627647e-03 0.0000000000000000e+00  2.3371853354804841e-04 1.6270708710879734e-03 0.0000000000000000e+00  2.1317856301434124e-04 1.6265010169504849e-03 0.0000000000000000e+00  2.3587797751392880e-04 1.6478982516580636e-03 0.0000000000000000e+00  2.1426429045592709e-04 1.6473538128534112e-03 0.0000000000000000e+00  2.3804649632980446e-04 1.6698951622994187e-03 0.0000000000000000e+00  2.1531394015824104e-04 1.6693506559743089e-03 0.0000000000000000e+00  2.4019249342170385e-04 1.6930232889246606e-03 0.0000000000000000e+00  2.1636741271392496e-04 1.6924851022757767e-03 0.0000000000000000e+00  2.4231285638915084e-04 1.7172048931538958e-03 0.0000000000000000e+00  2.1743981172264105e-04 1.7166683549729961e-03 0.0000000000000000e+00  2.4441141015971586e-04 1.7424009586122172e-03 0.0000000000000000e+00  2.1852885742629287e-04 1.7418651851918532e-03 0.0000000000000000e+00  1.4940961995254582e-04 1.1646154062378137e-03 0.0000000000000000e+00  1.5391070006016356e-04 1.1796480825295946e-03 0.0000000000000000e+00  1.5974119594745385e-04 1.1931273924706397e-03 0.0000000000000000e+00  1.6575135662044653e-04 1.2051945967955962e-03 0.0000000000000000e+00  1.7268422708276450e-04 1.2161060869571453e-03 0.0000000000000000e+00  1.7479192344166405e-04 1.2257048466297544e-03 0.0000000000000000e+00  1.7539976386421748e-04 1.2355398186573796e-03 0.0000000000000000e+00  1.7605110790236839e-04 1.2461580999139263e-03 0.0000000000000000e+00  1.7671001611603291e-04 1.2572679025576717e-03 0.0000000000000000e+00  1.7732336096650537e-04 1.2692930298357379e-03 0.0000000000000000e+00  1.7771822353176525e-04 1.2829123631711646e-03 0.0000000000000000e+00  1.7763216065153504e-04 1.2986903965347745e-03 0.0000000000000000e+00  1.7711795568045940e-04 1.3178471291108397e-03 0.0000000000000000e+00  1.7660494435487302e-04 1.3393710010842909e-03 0.0000000000000000e+00  1.7587162488858608e-04 1.3640039471838833e-03 0.0000000000000000e+00  1.7876202938987956e-04 1.3885968521663197e-03 0.0000000000000000e+00  1.8098571431103278e-04 1.4126160075336170e-03 0.0000000000000000e+00  1.8287756777750507e-04 1.4359365862108863e-03 0.0000000000000000e+00  1.8512573783276951e-04 1.4586187484892782e-03 0.0000000000000000e+00  1.8765975005208762e-04 1.4804057566020204e-03 0.0000000000000000e+00  1.8941959208463013e-04 1.5004397274957523e-03 0.0000000000000000e+00  1.9069909602609521e-04 1.5194664410190766e-03 0.0000000000000000e+00  1.9158591718379737e-04 1.5376171771505408e-03 0.0000000000000000e+00  1.9219108203950762e-04 1.5550569815302162e-03 0.0000000000000000e+00  1.9262851211404740e-04 1.5720516044962997e-03 0.0000000000000000e+00  1.9298214611068433e-04 1.5890489510974925e-03 0.0000000000000000e+00  1.9332831378283616e-04 1.6066741437681011e-03 0.0000000000000000e+00  1.9351536767245596e-04 1.6260257299118184e-03 0.0000000000000000e+00  1.9337715195147761e-04 1.6468948027977394e-03 0.0000000000000000e+00  1.9319544629621722e-04 1.6689680902955582e-03 0.0000000000000000e+00  1.9293758418413115e-04 1.6921814371800273e-03 0.0000000000000000e+00  1.9294765639448768e-04 1.7163566070284662e-03 0.0000000000000000e+00  1.9301944650304204e-04 1.7415373992007901e-03 0.0000000000000000e+00  1.4869710525638294e-04 1.1790872068386049e-03 0.0000000000000000e+00  1.5280683802906410e-04 1.1921450551939901e-03 0.0000000000000000e+00  1.5711522608523285e-04 1.2041955757713463e-03 0.0000000000000000e+00  1.6129478791233274e-04 1.2152152456710620e-03 0.0000000000000000e+00  1.6494179955477389e-04 1.2257306486212960e-03 0.0000000000000000e+00  1.6496678078760127e-04 1.2355948544272397e-03 0.0000000000000000e+00  1.6488260009723851e-04 1.2463667265388207e-03 0.0000000000000000e+00  1.6482450415274488e-04 1.2572759084854275e-03 0.0000000000000000e+00  1.6476017503036831e-04 1.2690205716595813e-03 0.0000000000000000e+00  1.6442370941313663e-04 1.2823924890635208e-03 0.0000000000000000e+00  1.6378762829955443e-04 1.2979538898780681e-03 0.0000000000000000e+00  1.6097649813093053e-04 1.3173540559767484e-03 0.0000000000000000e+00  1.6295949858789982e-04 1.3421228762345739e-03 0.0000000000000000e+00  1.6307923410741293e-04 1.3662391949955657e-03 0.0000000000000000e+00  1.6306076445697998e-04 1.3898567103840043e-03 0.0000000000000000e+00  1.6235109840202544e-04 1.4135226768692772e-03 0.0000000000000000e+00  1.5939022608818125e-04 1.4353065296157190e-03 0.0000000000000000e+00  1.6410071550107739e-04 1.4578291340541071e-03 0.0000000000000000e+00  1.6808666645964441e-04 1.4795687730655789e-03 0.0000000000000000e+00  1.7154413424605634e-04 1.5001748897455717e-03 0.0000000000000000e+00  1.7312357818431842e-04 1.5194035261610619e-03 0.0000000000000000e+00  1.7415561208476767e-04 1.5377228049703803e-03 0.0000000000000000e+00  1.7475419493647134e-04 1.5552095024736169e-03 0.0000000000000000e+00  1.7509344469341016e-04 1.5720748927337625e-03 0.0000000000000000e+00  1.7530834437175932e-04 1.5887471835929849e-03 0.0000000000000000e+00  1.7557418053207140e-04 1.6057001116258976e-03 0.0000000000000000e+00  1.7567967527440891e-04 1.6247109787441108e-03 0.0000000000000000e+00  1.7521287894083450e-04 1.6441523549587439e-03 0.0000000000000000e+00  1.7495504794046482e-04 1.6652944804432367e-03 0.0000000000000000e+00  1.7480707094523167e-04 1.6876054335203678e-03 0.0000000000000000e+00  1.7480890035960554e-04 1.7108984463102864e-03 0.0000000000000000e+00  1.7493405175721672e-04 1.7352684544224648e-03 0.0000000000000000e+00  1.4563446982078501e-04 1.1925435787178151e-03 0.0000000000000000e+00  1.4857057323294816e-04 1.2046505751337529e-03 0.0000000000000000e+00  1.5116465203799360e-04 1.2159864107010568e-03 0.0000000000000000e+00  1.5312243751241519e-04 1.2267515992622048e-03 0.0000000000000000e+00  1.5411458524306479e-04 1.2362516059524562e-03 0.0000000000000000e+00  1.5390807240693924e-04 1.2468105117645430e-03 0.0000000000000000e+00  1.5374485145949946e-04 1.2572932251853496e-03 0.0000000000000000e+00  1.5352062074381446e-04 1.2684525616957661e-03 0.0000000000000000e+00  1.5308910730783677e-04 1.2816085904472419e-03 0.0000000000000000e+00  1.5218611069829302e-04 1.2966552379006632e-03 0.0000000000000000e+00  1.5258318977822243e-04 1.3209762277289108e-03 0.0000000000000000e+00  1.5179050118725636e-04 1.3444346487524394e-03 0.0000000000000000e+00  1.5138950645428146e-04 1.3684856077469741e-03 0.0000000000000000e+00  1.5099165718151294e-04 1.3919377578536780e-03 0.0000000000000000e+00  1.5069335558942049e-04 1.4150484894181004e-03 0.0000000000000000e+00  1.5073284031544960e-04 1.4370472607596221e-03 0.0000000000000000e+00  1.5174089449742224e-04 1.4577375717559672e-03 0.0000000000000000e+00  1.5358911204480771e-04 1.4790081118766956e-03 0.0000000000000000e+00  1.5540563561638570e-04 1.4996155489412474e-03 0.0000000000000000e+00  1.5674188142377672e-04 1.5195510987056683e-03 0.0000000000000000e+00  1.5786368941542807e-04 1.5381121984173376e-03 0.0000000000000000e+00  1.5831724977436416e-04 1.5556084323239037e-03 0.0000000000000000e+00  1.5855991605254131e-04 1.5722150204999224e-03 0.0000000000000000e+00  1.5872091246273536e-04 1.5883935152035517e-03 0.0000000000000000e+00  1.5899542696369388e-04 1.6044315679513239e-03 0.0000000000000000e+00  1.5926399799513058e-04 1.6213477890595763e-03 0.0000000000000000e+00  1.5872870915120059e-04 1.6410176241222045e-03 0.0000000000000000e+00  1.5824043025155420e-04 1.6612754501042996e-03 0.0000000000000000e+00  1.5801045792176917e-04 1.6826603937820305e-03 0.0000000000000000e+00  1.5800451105624314e-04 1.7050690594356249e-03 0.0000000000000000e+00  1.5815005507033753e-04 1.7286143688415899e-03 0.0000000000000000e+00  1.4066092591340579e-04 1.2061133878122441e-03 0.0000000000000000e+00  1.4240640302508366e-04 1.2177961994754834e-03 0.0000000000000000e+00  1.4343313442303476e-04 1.2288054903947993e-03 0.0000000000000000e+00  1.4432081023238924e-04 1.2388579474301973e-03 0.0000000000000000e+00  1.4413126052588139e-04 1.2473747327550195e-03 0.0000000000000000e+00  1.4407539058876857e-04 1.2570427620587851e-03 0.0000000000000000e+00  1.4406694427152915e-04 1.2674052246324393e-03 0.0000000000000000e+00  1.4404978557486028e-04 1.2789212827646875e-03 0.0000000000000000e+00  1.4428620373496107e-04 1.3004658354972770e-03 0.0000000000000000e+00  1.4260142615316504e-04 1.3239916892811782e-03 0.0000000000000000e+00  1.4128603132197761e-04 1.3477254053913122e-03 0.0000000000000000e+00  1.4013978528837519e-04 1.3712347013772261e-03 0.0000000000000000e+00  1.3937259376990992e-04 1.3943032083416497e-03 0.0000000000000000e+00  1.3895276519690643e-04 1.4168278026224044e-03 0.0000000000000000e+00  1.3895525531008098e-04 1.4384397434552053e-03 0.0000000000000000e+00  1.3933107110949316e-04 1.4590929156690002e-03 0.0000000000000000e+00  1.3997824649240374e-04 1.4796967174125759e-03 0.0000000000000000e+00  1.4088193078427589e-04 1.4999838223526307e-03 0.0000000000000000e+00  1.4177644004280865e-04 1.5197623788584722e-03 0.0000000000000000e+00  1.4255086861038839e-04 1.5389067428262610e-03 0.0000000000000000e+00  1.4295968257201051e-04 1.5563852879625284e-03 0.0000000000000000e+00  1.4312483345552596e-04 1.5725441342833320e-03 0.0000000000000000e+00  1.4325407243214898e-04 1.5881321278131259e-03 0.0000000000000000e+00  1.4346167216263005e-04 1.6031933244853181e-03 0.0000000000000000e+00  1.4326131214094506e-04 1.6187719813609519e-03 0.0000000000000000e+00  1.4284451884239262e-04 1.6376376318212955e-03 0.0000000000000000e+00  1.4255833825734288e-04 1.6569251412953086e-03 0.0000000000000000e+00  1.4240092274581744e-04 1.6773794649793522e-03 0.0000000000000000e+00  1.4243791293558916e-04 1.6988488658385293e-03 0.0000000000000000e+00  1.4260113581220627e-04 1.7215826605652984e-03 0.0000000000000000e+00  1.3463812172270656e-04 1.2199931265233161e-03 0.0000000000000000e+00  1.3604379105845062e-04 1.2318473064193093e-03 0.0000000000000000e+00  1.3588963931758329e-04 1.2397804392900165e-03 0.0000000000000000e+00  1.3567023611499844e-04 1.2477169311128462e-03 0.0000000000000000e+00  1.3543196356916628e-04 1.2565795586912992e-03 0.0000000000000000e+00  1.3524794494709105e-04 1.2665864010213167e-03 0.0000000000000000e+00  1.3551085177971949e-04 1.2754134750327382e-03 0.0000000000000000e+00  1.3476999086313958e-04 1.3034188994966165e-03 0.0000000000000000e+00  1.3248871185568935e-04 1.3278898628767868e-03 0.0000000000000000e+00  1.3041222334266584e-04 1.3514288325051995e-03 0.0000000000000000e+00  1.2878645252883971e-04 1.3745185320849572e-03 0.0000000000000000e+00  1.2761826399046916e-04 1.3970821712431002e-03 0.0000000000000000e+00  1.2688775491300191e-04 1.4190716423731194e-03 0.0000000000000000e+00  1.2655442957143463e-04 1.4403124644845062e-03 0.0000000000000000e+00  1.2650992441455455e-04 1.4608423007268279e-03 0.0000000000000000e+00  1.2666473513448065e-04 1.4810707756122011e-03 0.0000000000000000e+00  1.2704775292164599e-04 1.5009494116013950e-03 0.0000000000000000e+00  1.2759115065532638e-04 1.5203874659561064e-03 0.0000000000000000e+00  1.2821817144889031e-04 1.5392739531951269e-03 0.0000000000000000e+00  1.2880274297474801e-04 1.5574551345034938e-03 0.0000000000000000e+00  1.2883714788997265e-04 1.5730863134652284e-03 0.0000000000000000e+00  1.2898886627661383e-04 1.5880850303104472e-03 0.0000000000000000e+00  1.2912477052103458e-04 1.6022988452098731e-03 0.0000000000000000e+00  1.2936969030560050e-04 1.6153393365179419e-03 0.0000000000000000e+00  1.2863562236810116e-04 1.6340906796397916e-03 0.0000000000000000e+00  1.2829995559872215e-04 1.6521128950097923e-03 0.0000000000000000e+00  1.2813174725350126e-04 1.6717249340231482e-03 0.0000000000000000e+00  1.2817834508592409e-04 1.6921964526731572e-03 0.0000000000000000e+00  1.2830216067633195e-04 1.7141811281465519e-03 0.0000000000000000e+00  1.2873850914884509e-04 1.2315839749594579e-03 0.0000000000000000e+00  1.2845855755781900e-04 1.2397463508886230e-03 0.0000000000000000e+00  1.2828832686084040e-04 1.2476921078250426e-03 0.0000000000000000e+00  1.2813217637771328e-04 1.2559582822682224e-03 0.0000000000000000e+00  1.2806358474988245e-04 1.2647951953600712e-03 0.0000000000000000e+00  1.2711648639787543e-04 1.2831978253800228e-03 0.0000000000000000e+00  1.2353807049586874e-04 1.3079627670285830e-03 0.0000000000000000e+00  1.2108357540586058e-04 1.3323599101382440e-03 0.0000000000000000e+00  1.1884586142839847e-04 1.3556232728375881e-03 0.0000000000000000e+00  1.1697391257113576e-04 1.3782319798472198e-03 0.0000000000000000e+00  1.1553906796033486e-04 1.4002855930529861e-03 0.0000000000000000e+00  1.1452764786117964e-04 1.4217765187262772e-03 0.0000000000000000e+00  1.1389137839283345e-04 1.4426421782253282e-03 0.0000000000000000e+00  1.1354284118651737e-04 1.4629287811686066e-03 0.0000000000000000e+00  1.1341925861991054e-04 1.4828216427244941e-03 0.0000000000000000e+00  1.1352679671561343e-04 1.5023152976991554e-03 0.0000000000000000e+00  1.1384521744232064e-04 1.5213624116368846e-03 0.0000000000000000e+00  1.1434088203849191e-04 1.5398968865900217e-03 0.0000000000000000e+00  1.1502729968049459e-04 1.5580098894562252e-03 0.0000000000000000e+00  1.1556153169423480e-04 1.5738261957635327e-03 0.0000000000000000e+00  1.1577969386317983e-04 1.5882369893688219e-03 0.0000000000000000e+00  1.1609739847958425e-04 1.6020333375885163e-03 0.0000000000000000e+00  1.1634223806088804e-04 1.6148743516628398e-03 0.0000000000000000e+00  1.1535094290240305e-04 1.6307685676727761e-03 0.0000000000000000e+00  1.1540327355974259e-04 1.6467733119489151e-03 0.0000000000000000e+00  1.1524090769202255e-04 1.6657825837965894e-03 0.0000000000000000e+00  1.1528285520616070e-04 1.6850680628264711e-03 0.0000000000000000e+00  1.1527821702003247e-04 1.7064539660482147e-03 0.0000000000000000e+00  1.2127994945967076e-04 1.2395552901672861e-03 0.0000000000000000e+00  1.2103525074762993e-04 1.2475602329756715e-03 0.0000000000000000e+00  1.2082305317560509e-04 1.2556460716140541e-03 0.0000000000000000e+00  1.2079158521937421e-04 1.2637013140800390e-03 0.0000000000000000e+00  1.1748737267179639e-04 1.2895110479308634e-03 0.0000000000000000e+00  1.1303855509310567e-04 1.3139168038042821e-03 0.0000000000000000e+00  1.0959119820520088e-04 1.3374130706252172e-03 0.0000000000000000e+00  1.0694055139259275e-04 1.3601796936377041e-03 0.0000000000000000e+00  1.0481599525835248e-04 1.3822928396483888e-03 0.0000000000000000e+00  1.0315573938676228e-04 1.4038462629294302e-03 0.0000000000000000e+00  1.0191777918967732e-04 1.4248663414392548e-03 0.0000000000000000e+00  1.0105024803079901e-04 1.4453418280501288e-03 0.0000000000000000e+00  1.0049026791751984e-04 1.4653085005074140e-03 0.0000000000000000e+00  1.0019664647781873e-04 1.4848474892014210e-03 0.0000000000000000e+00  1.0016849988124020e-04 1.5039527244336604e-03 0.0000000000000000e+00  1.0040668311889886e-04 1.5225825651473401e-03 0.0000000000000000e+00  1.0091729438002300e-04 1.5406632232184262e-03 0.0000000000000000e+00  1.0173589660031556e-04 1.5580963744543331e-03 0.0000000000000000e+00  1.0292301644467474e-04 1.5743788987187511e-03 0.0000000000000000e+00  1.0323306525089503e-04 1.5885439665892375e-03 0.0000000000000000e+00  1.0364665575390450e-04 1.6019645154534863e-03 0.0000000000000000e+00  1.0409431480330191e-04 1.6148682066258308e-03 0.0000000000000000e+00  1.0442777612561223e-04 1.6275477554590864e-03 0.0000000000000000e+00  1.0487222498148161e-04 1.6404900755211446e-03 0.0000000000000000e+00  1.0408156651350484e-04 1.6598054915805591e-03 0.0000000000000000e+00  1.0394052513726800e-04 1.6773445238431120e-03 0.0000000000000000e+00  1.0358011478327312e-04 1.6985065726464151e-03 0.0000000000000000e+00  1.1363715500679898e-04 1.2474590795464714e-03 0.0000000000000000e+00  1.1345288119939633e-04 1.2554499213383401e-03 0.0000000000000000e+00  1.1025199886000241e-04 1.2737915275038648e-03 0.0000000000000000e+00  1.0484380896270237e-04 1.2969829150281846e-03 0.0000000000000000e+00  1.0072470398763782e-04 1.3204648902183065e-03 0.0000000000000000e+