<?xml version="1.0"?>
<VTKFile type="UnstructuredGrid"  version="0.1"  >
<UnstructuredGrid>
<Piece  NumberOfPoints="640" NumberOfCells="1181">
<Points>
<DataArray  type="Float64"  NumberOfComponents="3"  format="ascii">2.973913043478261 0 0  2.990434782608696 0 0  2.990434782608696 0.01666666666666667 0  2.973913043478261 0.01666666666666667 0  3.006956521739131 0 0  3.006956521739131 0.01666666666666667 0  3.023478260869565 0 0  3.023478260869565 0.01666666666666667 0  3.04 0 0  3.04 0.01666666666666667 0  3.056521739130435 0 0  3.056521739130435 0.01666666666666667 0  3.073043478260869 0 0  3.073043478260869 0.01666666666666667 0  3.089565217391304 0 0  3.089565217391304 0.01666666666666667 0  3.106086956521739 0 0  3.106086956521739 0.01666666666666667 0  3.122608695652174 0 0  3.122608695652174 0.01666666666666667 0  3.139130434782609 0 0  3.139130434782609 0.01666666666666667 0  3.155652173913043 0 0  3.155652173913043 0.01666666666666667 0  3.172173913043478 0 0  3.172173913043478 0.01666666666666667 0  3.188695652173913 0 0  3.188695652173913 0.01666666666666667 0  3.205217391304347 0 0  3.205217391304347 0.01666666666666667 0  3.221739130434782 0 0  3.221739130434782 0.01666666666666667 0  3.238260869565217 0 0  3.238260869565217 0.01666666666666667 0  2.990434782608696 0.03333333333333333 0  2.973913043478261 0.03333333333333333 0  3.006956521739131 0.03333333333333333 0  3.023478260869565 0.03333333333333333 0  3.04 0.03333333333333333 0  3.056521739130435 0.03333333333333333 0  3.073043478260869 0.03333333333333333 0  3.089565217391304 0.03333333333333333 0  3.106086956521739 0.03333333333333333 0  3.122608695652174 0.03333333333333333 0  3.139130434782609 0.03333333333333333 0  3.155652173913043 0.03333333333333333 0  3.172173913043478 0.03333333333333333 0  3.188695652173913 0.03333333333333333 0  3.205217391304347 0.03333333333333333 0  3.221739130434782 0.03333333333333333 0  3.238260869565217 0.03333333333333333 0  3.254782608695652 0.03333333333333333 0  2.990434782608696 0.05 0  3.006956521739131 0.05 0  3.023478260869565 0.05 0  3.04 0.05 0  3.056521739130435 0.05 0  3.073043478260869 0.05 0  3.089565217391304 0.05 0  3.106086956521739 0.05 0  3.122608695652174 0.05 0  3.139130434782609 0.05 0  3.155652173913043 0.05 0  3.172173913043478 0.05 0  3.188695652173913 0.05 0  3.205217391304347 0.05 0  3.221739130434782 0.05 0  3.238260869565217 0.05 0  3.254782608695652 0.05 0  3.271304347826087 0.05 0  3.006956521739131 0.06666666666666667 0  2.990434782608696 0.06666666666666667 0  3.023478260869565 0.06666666666666667 0  3.04 0.06666666666666667 0  3.056521739130435 0.06666666666666667 0  3.073043478260869 0.06666666666666667 0  3.089565217391304 0.06666666666666667 0  3.106086956521739 0.06666666666666667 0  3.122608695652174 0.06666666666666667 0  3.139130434782609 0.06666666666666667 0  3.155652173913043 0.06666666666666667 0  3.172173913043478 0.06666666666666667 0  3.188695652173913 0.06666666666666667 0  3.205217391304347 0.06666666666666667 0  3.221739130434782 0.06666666666666667 0  3.238260869565217 0.06666666666666667 0  3.254782608695652 0.06666666666666667 0  3.271304347826087 0.06666666666666667 0  3.287826086956521 0.06666666666666667 0  3.006956521739131 0.08333333333333333 0  3.023478260869565 0.08333333333333333 0  3.04 0.08333333333333333 0  3.056521739130435 0.08333333333333333 0  3.073043478260869 0.08333333333333333 0  3.089565217391304 0.08333333333333333 0  3.106086956521739 0.08333333333333333 0  3.122608695652174 0.08333333333333333 0  3.139130434782609 0.08333333333333333 0  3.155652173913043 0.08333333333333333 0  3.172173913043478 0.08333333333333333 0  3.188695652173913 0.08333333333333333 0  3.205217391304347 0.08333333333333333 0  3.221739130434782 0.08333333333333333 0  3.238260869565217 0.08333333333333333 0  3.254782608695652 0.08333333333333333 0  3.271304347826087 0.08333333333333333 0  3.287826086956521 0.08333333333333333 0  3.304347826086957 0.08333333333333333 0  3.023478260869565 0.1 0  3.006956521739131 0.1 0  3.04 0.1 0  3.056521739130435 0.1 0  3.073043478260869 0.1 0  3.089565217391304 0.1 0  3.106086956521739 0.1 0  3.122608695652174 0.1 0  3.139130434782609 0.1 0  3.155652173913043 0.1 0  3.172173913043478 0.1 0  3.188695652173913 0.1 0  3.205217391304347 0.1 0  3.221739130434782 0.1 0  3.238260869565217 0.1 0  3.254782608695652 0.1 0  3.271304347826087 0.1 0  3.287826086956521 0.1 0  3.304347826086957 0.1 0  3.320869565217391 0.1 0  3.023478260869565 0.1166666666666667 0  3.04 0.1166666666666667 0  3.056521739130435 0.1166666666666667 0  3.073043478260869 0.1166666666666667 0  3.089565217391304 0.1166666666666667 0  3.106086956521739 0.1166666666666667 0  3.122608695652174 0.1166666666666667 0  3.139130434782609 0.1166666666666667 0  3.155652173913043 0.1166666666666667 0  3.172173913043478 0.1166666666666667 0  3.188695652173913 0.1166666666666667 0  3.205217391304347 0.1166666666666667 0  3.221739130434782 0.1166666666666667 0  3.238260869565217 0.1166666666666667 0  3.254782608695652 0.1166666666666667 0  3.271304347826087 0.1166666666666667 0  3.287826086956521 0.1166666666666667 0  3.304347826086957 0.1166666666666667 0  3.320869565217391 0.1166666666666667 0  3.337391304347826 0.1166666666666667 0  3.04 0.1333333333333333 0  3.023478260869565 0.1333333333333333 0  3.056521739130435 0.1333333333333333 0  3.073043478260869 0.1333333333333333 0  3.089565217391304 0.1333333333333333 0  3.106086956521739 0.1333333333333333 0  3.122608695652174 0.1333333333333333 0  3.139130434782609 0.1333333333333333 0  3.155652173913043 0.1333333333333333 0  3.172173913043478 0.1333333333333333 0  3.188695652173913 0.1333333333333333 0  3.205217391304347 0.1333333333333333 0  3.221739130434782 0.1333333333333333 0  3.238260869565217 0.1333333333333333 0  3.254782608695652 0.1333333333333333 0  3.271304347826087 0.1333333333333333 0  3.287826086956521 0.1333333333333333 0  3.304347826086957 0.1333333333333333 0  3.320869565217391 0.1333333333333333 0  3.337391304347826 0.1333333333333333 0  3.353913043478261 0.1333333333333333 0  3.04 0.15 0  3.056521739130435 0.15 0  3.073043478260869 0.15 0  3.089565217391304 0.15 0  3.106086956521739 0.15 0  3.122608695652174 0.15 0  3.139130434782609 0.15 0  3.155652173913043 0.15 0  3.172173913043478 0.15 0  3.188695652173913 0.15 0  3.205217391304347 0.15 0  3.221739130434782 0.15 0  3.238260869565217 0.15 0  3.254782608695652 0.15 0  3.271304347826087 0.15 0  3.287826086956521 0.15 0  3.304347826086957 0.15 0  3.320869565217391 0.15 0  3.337391304347826 0.15 0  3.353913043478261 0.15 0  3.370434782608696 0.15 0  3.056521739130435 0.1666666666666667 0  3.073043478260869 0.1666666666666667 0  3.089565217391304 0.1666666666666667 0  3.106086956521739 0.1666666666666667 0  3.122608695652174 0.1666666666666667 0  3.139130434782609 0.1666666666666667 0  3.155652173913043 0.1666666666666667 0  3.172173913043478 0.1666666666666667 0  3.188695652173913 0.1666666666666667 0  3.205217391304347 0.1666666666666667 0  3.221739130434782 0.1666666666666667 0  3.238260869565217 0.1666666666666667 0  3.254782608695652 0.1666666666666667 0  3.271304347826087 0.1666666666666667 0  3.287826086956521 0.1666666666666667 0  3.304347826086957 0.1666666666666667 0  3.320869565217391 0.1666666666666667 0  3.337391304347826 0.1666666666666667 0  3.353913043478261 0.1666666666666667 0  3.370434782608696 0.1666666666666667 0  3.386956521739131 0.1666666666666667 0  3.073043478260869 0.1833333333333333 0  3.089565217391304 0.1833333333333333 0  3.106086956521739 0.1833333333333333 0  3.122608695652174 0.1833333333333333 0  3.139130434782609 0.1833333333333333 0  3.155652173913043 0.1833333333333333 0  3.172173913043478 0.1833333333333333 0  3.188695652173913 0.1833333333333333 0  3.205217391304347 0.1833333333333333 0  3.221739130434782 0.1833333333333333 0  3.238260869565217 0.1833333333333333 0  3.254782608695652 0.1833333333333333 0  3.271304347826087 0.1833333333333333 0  3.287826086956521 0.1833333333333333 0  3.304347826086957 0.1833333333333333 0  3.320869565217391 0.1833333333333333 0  3.337391304347826 0.1833333333333333 0  3.353913043478261 0.1833333333333333 0  3.370434782608696 0.1833333333333333 0  3.386956521739131 0.1833333333333333 0  3.403478260869565 0.1833333333333333 0  3.089565217391304 0.2 0  3.106086956521739 0.2 0  3.122608695652174 0.2 0  3.139130434782609 0.2 0  3.155652173913043 0.2 0  3.172173913043478 0.2 0  3.188695652173913 0.2 0  3.205217391304347 0.2 0  3.221739130434782 0.2 0  3.238260869565217 0.2 0  3.254782608695652 0.2 0  3.271304347826087 0.2 0  3.287826086956521 0.2 0  3.304347826086957 0.2 0  3.320869565217391 0.2 0  3.337391304347826 0.2 0  3.353913043478261 0.2 0  3.370434782608696 0.2 0  3.386956521739131 0.2 0  3.403478260869565 0.2 0  3.419999999999999 0.2 0  3.106086956521739 0.2166666666666667 0  3.122608695652174 0.2166666666666667 0  3.139130434782609 0.2166666666666667 0  3.155652173913043 0.2166666666666667 0  3.172173913043478 0.2166666666666667 0  3.188695652173913 0.2166666666666667 0  3.205217391304347 0.2166666666666667 0  3.221739130434782 0.2166666666666667 0  3.238260869565217 0.2166666666666667 0  3.254782608695652 0.2166666666666667 0  3.271304347826087 0.2166666666666667 0  3.287826086956521 0.2166666666666667 0  3.304347826086957 0.2166666666666667 0  3.320869565217391 0.2166666666666667 0  3.337391304347826 0.2166666666666667 0  3.353913043478261 0.2166666666666667 0  3.370434782608696 0.2166666666666667 0  3.386956521739131 0.2166666666666667 0  3.403478260869565 0.2166666666666667 0  3.419999999999999 0.2166666666666667 0  3.436521739130435 0.2166666666666667 0  3.122608695652174 0.2333333333333333 0  3.139130434782609 0.2333333333333333 0  3.155652173913043 0.2333333333333333 0  3.172173913043478 0.2333333333333333 0  3.188695652173913 0.2333333333333333 0  3.205217391304347 0.2333333333333333 0  3.221739130434782 0.2333333333333333 0  3.238260869565217 0.2333333333333333 0  3.254782
[...]
<PointData  Vectors="Displacement"> 
<DataArray  type="Float64"  Name="Displacement"  NumberOfComponents="3" format="ascii">4.5053537472653491e-04 5.8121733743007843e-03 0.0000000000000000e+00  4.5084307134519568e-04 5.8166501894495390e-03 0.0000000000000000e+00  4.4786522987100584e-04 5.8160455469807876e-03 0.0000000000000000e+00  4.4459681870093800e-04 5.8115717576751481e-03 0.0000000000000000e+00  4.5110924594575133e-04 5.8181156920880253e-03 0.0000000000000000e+00  4.5121076361745053e-04 5.8175240788490195e-03 0.0000000000000000e+00  4.5131763561265682e-04 5.8165393726302651e-03 0.0000000000000000e+00  4.5450082481029481e-04 5.8159822466452137e-03 0.0000000000000000e+00  4.5137343900292410e-04 5.8117757916183559e-03 0.0000000000000000e+00  4.5770632795957031e-04 5.8114645660634163e-03 0.0000000000000000e+00  4.5137079448472989e-04 5.8037755382017121e-03 0.0000000000000000e+00  4.6024998818575976e-04 5.8036578546344980e-03 0.0000000000000000e+00  4.5153721411271520e-04 5.7938022529086981e-03 0.0000000000000000e+00  4.6168864586036462e-04 5.7936142828410274e-03 0.0000000000000000e+00  4.5167464094553878e-04 5.7835100067541332e-03 0.0000000000000000e+00  4.6261698674624440e-04 5.7836534422378025e-03 0.0000000000000000e+00  4.6485203067607434e-04 5.7812012844358105e-03 0.0000000000000000e+00  4.6455118488863549e-04 5.7765014860538732e-03 0.0000000000000000e+00  4.7842579724872606e-04 5.7816293459936668e-03 0.0000000000000000e+00  4.7747098854064438e-04 5.7775761362533250e-03 0.0000000000000000e+00  4.9227257016564460e-04 5.7826023586796393e-03 0.0000000000000000e+00  4.8951774766140205e-04 5.7783828301835255e-03 0.0000000000000000e+00  5.0679153829071629e-04 5.7855552658130482e-03 0.0000000000000000e+00  5.0153430464860602e-04 5.7810897319718821e-03 0.0000000000000000e+00  5.2208194983065475e-04 5.7912032824128839e-03 0.0000000000000000e+00  5.1397588825515125e-04 5.7864854140256463e-03 0.0000000000000000e+00  5.3812848383132171e-04 5.7998060358130567e-03 0.0000000000000000e+00  5.2703591887803141e-04 5.7948581998650359e-03 0.0000000000000000e+00  5.5491305616846786e-04 5.8114364359311303e-03 0.0000000000000000e+00  5.4074109091624401e-04 5.8062551766524728e-03 0.0000000000000000e+00  5.7234730261438490e-04 5.8263301476801366e-03 0.0000000000000000e+00  5.5498345848908838e-04 5.8209559547731382e-03 0.0000000000000000e+00  5.9024003837322616e-04 5.8447260550093683e-03 0.0000000000000000e+00  5.6958820989143322e-04 5.8392286722647145e-03 0.0000000000000000e+00  4.5690081423449113e-04 5.8031280533347874e-03 0.0000000000000000e+00  4.5369581324605226e-04 5.7975476213975394e-03 0.0000000000000000e+00  4.5903185744636742e-04 5.8070903950401551e-03 0.0000000000000000e+00  4.5983803197767475e-04 5.8126656205137340e-03 0.0000000000000000e+00  4.6229823203566009e-04 5.8103935251137421e-03 0.0000000000000000e+00  4.7114245197385192e-04 5.8030223984549155e-03 0.0000000000000000e+00  4.7297038938512957e-04 5.7929953494682638e-03 0.0000000000000000e+00  4.7382804586422938e-04 5.7835270237245953e-03 0.0000000000000000e+00  4.7511891105300979e-04 5.7769025305736974e-03 0.0000000000000000e+00  4.7899595697056455e-04 5.7750585278851961e-03 0.0000000000000000e+00  4.8739082773001006e-04 5.7753906667798250e-03 0.0000000000000000e+00  4.9561688444087974e-04 5.7777283950236208e-03 0.0000000000000000e+00  5.0453610381702364e-04 5.7827399603902338e-03 0.0000000000000000e+00  5.1452003832427428e-04 5.7908208401024020e-03 0.0000000000000000e+00  5.2542359390365695e-04 5.8019120370682862e-03 0.0000000000000000e+00  5.3688877927088611e-04 5.8163605494360813e-03 0.0000000000000000e+00  5.4873319396174785e-04 5.8344566912829181e-03 0.0000000000000000e+00  5.6064736698974789e-04 5.8566112164027129e-03 0.0000000000000000e+00  4.6679579289491264e-04 5.7903990476354970e-03 0.0000000000000000e+00  4.6966408642069336e-04 5.7958115381370849e-03 0.0000000000000000e+00  4.7238406391877940e-04 5.8001754821613970e-03 0.0000000000000000e+00  4.7568213734521100e-04 5.7996541298980979e-03 0.0000000000000000e+00  4.7882116314797960e-04 5.7948676542673751e-03 0.0000000000000000e+00  4.8140712779547206e-04 5.7905710329311383e-03 0.0000000000000000e+00  4.8209515724147536e-04 5.7827282411343217e-03 0.0000000000000000e+00  4.8266849230791010e-04 5.7772164977328705e-03 0.0000000000000000e+00  4.8408356989310038e-04 5.7744680310370848e-03 0.0000000000000000e+00  4.8662809903884301e-04 5.7745773668582637e-03 0.0000000000000000e+00  4.8884746967492302e-04 5.7762068893973777e-03 0.0000000000000000e+00  4.9335440570840892e-04 5.7803355779033980e-03 0.0000000000000000e+00  4.9974296176198024e-04 5.7873100842932004e-03 0.0000000000000000e+00  5.0909305803944560e-04 5.7981615355876042e-03 0.0000000000000000e+00  5.1818075856146790e-04 5.8122236792781286e-03 0.0000000000000000e+00  5.2772800146291886e-04 5.8300341224040856e-03 0.0000000000000000e+00  5.3723602072377433e-04 5.8523035733262473e-03 0.0000000000000000e+00  5.4672315164466996e-04 5.8782313471529932e-03 0.0000000000000000e+00  4.7921808858432537e-04 5.7845825683549238e-03 0.0000000000000000e+00  4.7599060479972357e-04 5.7780382261875401e-03 0.0000000000000000e+00  4.8211778119714430e-04 5.7890232270581560e-03 0.0000000000000000e+00  4.8447853493247640e-04 5.7907680917986173e-03 0.0000000000000000e+00  4.8558903725347974e-04 5.7892952166575798e-03 0.0000000000000000e+00  4.8568352713202953e-04 5.7850015824253446e-03 0.0000000000000000e+00  4.8619505804991137e-04 5.7812521174088714e-03 0.0000000000000000e+00  4.8643372769370828e-04 5.7772391139515192e-03 0.0000000000000000e+00  4.8662640831523079e-04 5.7746037448598662e-03 0.0000000000000000e+00  4.8729513137877445e-04 5.7741177545795747e-03 0.0000000000000000e+00  4.8852232092997576e-04 5.7757376546502407e-03 0.0000000000000000e+00  4.9031818690324018e-04 5.7793655076077508e-03 0.0000000000000000e+00  4.9302232043630474e-04 5.7863551131514604e-03 0.0000000000000000e+00  4.9540891437677473e-04 5.7957263579394474e-03 0.0000000000000000e+00  4.9886549702255053e-04 5.8081812525807896e-03 0.0000000000000000e+00  5.0669904502914339e-04 5.8255903450035980e-03 0.0000000000000000e+00  5.1403552408943790e-04 5.8482882296855840e-03 0.0000000000000000e+00  5.2133919611744510e-04 5.8739538631492286e-03 0.0000000000000000e+00  5.2855084389988565e-04 5.9045283804613838e-03 0.0000000000000000e+00  4.8792747518023422e-04 5.7740851577809454e-03 0.0000000000000000e+00  4.9042502419160917e-04 5.7792320169875698e-03 0.0000000000000000e+00  4.9128817700695368e-04 5.7839599562671410e-03 0.0000000000000000e+00  4.9041138142326142e-04 5.7859982900579643e-03 0.0000000000000000e+00  4.8861715992762583e-04 5.7834166491630302e-03 0.0000000000000000e+00  4.8864258346586521e-04 5.7802781565866705e-03 0.0000000000000000e+00  4.8848377049617257e-04 5.7771860812685745e-03 0.0000000000000000e+00  4.8783648574645316e-04 5.7749045602616981e-03 0.0000000000000000e+00  4.8705084194814488e-04 5.7741923123421643e-03 0.0000000000000000e+00  4.8642094520822830e-04 5.7756233964286691e-03 0.0000000000000000e+00  4.8610938133036391e-04 5.7793084749825103e-03 0.0000000000000000e+00  4.8617708039260058e-04 5.7858475743834568e-03 0.0000000000000000e+00  4.8681064465440121e-04 5.7952094521700184e-03 0.0000000000000000e+00  4.8816792217484535e-04 5.8075113042491393e-03 0.0000000000000000e+00  4.9055159093269122e-04 5.8246378983238655e-03 0.0000000000000000e+00  4.9260027615838126e-04 5.8455154903032033e-03 0.0000000000000000e+00  4.9535453842646990e-04 5.8690891674322773e-03 0.0000000000000000e+00  5.0151116151163214e-04 5.9008049734658053e-03 0.0000000000000000e+00  5.0659341782170026e-04 5.9352895688132359e-03 0.0000000000000000e+00  4.9891288778581883e-04 5.7706089934937560e-03 0.0000000000000000e+00  4.9706842435742131e-04 5.7646985833374369e-03 0.0000000000000000e+00  4.9712116399078222e-04 5.7794089315466712e-03 0.0000000000000000e+00  4.9374629336771455e-04 5.7847184630417433e-03 0.0000000000000000e+00  4.9248524500262938e-04 5.7834702171734170e-03 0.0000000000000000e+00  4.9182434311968737e-04 5.7800583712754447e-03 0.0000000000000000e+00  4.9077427230240201e-04 5.7773689559695394e-03 0.0000000000000000e+00  4.8899732138697912e-04 5.7754083238273305e-03 0.0000000000000000e+00  4.8684322733764810e-04 5.7748186215144572e-03 0.0000000000000000e+00  4.8361701591185250e-04 5.7761618301780480e-03 0.0000000000000000e+00  4.8083276504783416e-04 5.7798448383021865e-03 0.0000000000000000e+00  4.7833698910062855e-04 5.7862440031529001e-03 0.0000000000000000e+00  4.7604296822621181e-04 5.7953332379488045e-03 0.0000000000000000e+00  4.7425513534346005e-04 5.8076154419758400e-03 0.0000000000000000e+00  4.7310589906418554e-04 5.8243194508602464e-03 0.0000000000000000e+00  4.7312012110792094e-04 5.8452570647029734e-03 0.0000000000000000e+00  4.7421091883929694e-04 5.8688008096851466e-03 0.0000000000000000e+00  4.7618798187988684e-04 5.8973684171891496e-03 0.0000000000000000e+00  4.7865597825695773e-04 5.9322568753002658e-03 0.0000000000000000e+00  4.8134317721852953e-04 5.9698441701922789e-03 0.0000000000000000e+00  5.1397443774553811e-04 5.7643771927888155e-03 0.0000000000000000e+00  5.0276989713006915e-04 5.7768798899802687e-03 0.0000000000000000e+00  4.9956913608663930e-04 5.7831045491133675e-03 0.0000000000000000e+00  4.9788316061863814e-04 5.7833784809654077e-03 0.0000000000000000e+00  4.9700224308654164e-04 5.7798694945823273e-03 0.0000000000000000e+00  4.9504720519561211e-04 5.7774804182413198e-03 0.0000000000000000e+00  4.9097301311944945e-04 5.7760025433675442e-03 0.0000000000000000e+00  4.8525073847535677e-04 5.7881854444674198e-03 0.0000000000000000e+00  4.7887787998535146e-04 5.7929507075527437e-03 0.0000000000000000e+00  4.7435471502176089e-04 5.7954183706196878e-03 0.0000000000000000e+00  4.7111047483273770e-04 5.7878542485035453e-03 0.0000000000000000e+00  4.6686990525266614e-04 5.7960982145191442e-03 0.0000000000000000e+00  4.5945977470544151e-04 5.8084375358584076e-03 0.0000000000000000e+00  4.5323974529864439e-04 5.8249568776103846e-03 0.0000000000000000e+00  4.5036252020510620e-04 5.8454945044301848e-03 0.0000000000000000e+00  4.4947347395774267e-04 5.8688922124967196e-03 0.0000000000000000e+00  4.4952468084598558e-04 5.8973309143672348e-03 0.0000000000000000e+00  4.5063481760467726e-04 5.9305253958986124e-03 0.0000000000000000e+00  4.5147211040990080e-04 5.9668242626150295e-03 0.0000000000000000e+00  4.5181955158493469e-04 6.0098582173256851e-03 0.0000000000000000e+00  5.0202714161406688e-04 5.7756226006740437e-03 0.0000000000000000e+00  5.0333744551227927e-04 5.7647746985746550e-03 0.0000000000000000e+00  5.0073419945075894e-04 5.7829358277740927e-03 0.0000000000000000e+00  4.9999274880946083e-04 5.7834076884400055e-03 0.0000000000000000e+00  5.0014740033146442e-04 5.7804048822270217e-03 0.0000000000000000e+00  4.9066665880009191e-04 5.7902984387662578e-03 0.0000000000000000e+00  4.8048495112288172e-04 5.7957868425912596e-03 0.0000000000000000e+00  4.7093400990244909e-04 5.8055653402919079e-03 0.0000000000000000e+00  4.6370533001382353e-04 5.8122401545261182e-03 0.0000000000000000e+00  4.5720887891353702e-04 5.8160944302633319e-03 0.0000000000000000e+00  4.5068693469695292e-04 5.8165200559406344e-03 0.0000000000000000e+00  4.4263203759721786e-04 5.8243797249075699e-03 0.0000000000000000e+00  4.3532542692361915e-04 5.8366352648899483e-03 0.0000000000000000e+00  4.2917112332562738e-04 5.8510304261931165e-03 0.0000000000000000e+00  4.2523610822244284e-04 5.8657054589089418e-03 0.0000000000000000e+00  4.2236866471437220e-04 5.8695099337760801e-03 0.0000000000000000e+00  4.1818742069782758e-04 5.8977015344788709e-03 0.0000000000000000e+00  4.1765829080794083e-04 5.9307177649664342e-03 0.0000000000000000e+00  4.1824763734068642e-04 5.9676897745947911e-03 0.0000000000000000e+00  4.1922802633845047e-04 6.0086225928855704e-03 0.0000000000000000e+00  4.1754034641121600e-04 6.0547106058022673e-03 0.0000000000000000e+00  4.9398479063157165e-04 5.7755017568269966e-03 0.0000000000000000e+00  4.9387137962869957e-04 5.7833807553899991e-03 0.0000000000000000e+00  4.9543899883006993e-04 5.7850303163461507e-03 0.0000000000000000e+00  4.8481594051004234e-04 5.7954001394956477e-03 0.0000000000000000e+00  4.7262358758321573e-04 5.8074539284954478e-03 0.0000000000000000e+00  4.6151320473393601e-04 5.8164319137499910e-03 0.0000000000000000e+00  4.5114323696470967e-04 5.8258035957115097e-03 0.0000000000000000e+00  4.4237585565337157e-04 5.8333045477441635e-03 0.0000000000000000e+00  4.3431013389614800e-04 5.8391770390511860e-03 0.0000000000000000e+00  4.2607140231007049e-04 5.8440391580760129e-03 0.0000000000000000e+00  4.1715731839791245e-04 5.8527466906380630e-03 0.0000000000000000e+00  4.0894248867720908e-04 5.8643516161584709e-03 0.0000000000000000e+00  4.0194521029807064e-04 5.8775803709431394e-03 0.0000000000000000e+00  3.9623970865130181e-04 5.8907998524969866e-03 0.0000000000000000e+00  3.9091913615340457e-04 5.9010931926270563e-03 0.0000000000000000e+00  3.8474833574487344e-04 5.9202322537360583e-03 0.0000000000000000e+00  3.8061993264145496e-04 5.9308943274667732e-03 0.0000000000000000e+00  3.8055643774537428e-04 5.9680635592941952e-03 0.0000000000000000e+00  3.8114099385495707e-04 6.0093144979549750e-03 0.0000000000000000e+00  3.8244354399170942e-04 6.0549778620378547e-03 0.0000000000000000e+00  3.7885248628391889e-04 6.1036408435371468e-03 0.0000000000000000e+00  4.8563026707293682e-04 5.7834836753013000e-03 0.0000000000000000e+00  4.7306877114985176e-04 5.7987634129682544e-03 0.0000000000000000e+00  4.5982125007461625e-04 5.8135023995164138e-03 0.0000000000000000e+00  4.4743198325178005e-04 5.8265958695108274e-03 0.0000000000000000e+00  4.3623698624611321e-04 5.8372706856505818e-03 0.0000000000000000e+00  4.2581806447547531e-04 5.8472030809272680e-03 0.0000000000000000e+00  4.1630898700863037e-04 5.8557762852987395e-03 0.0000000000000000e+00  4.0724125441056111e-04 5.8634253828290656e-03 0.0000000000000000e+00  3.9812320890083365e-04 5.8709591350743417e-03 0.0000000000000000e+00  3.8880381220644306e-04 5.8806076471469805e-03 0.0000000000000000e+00  3.8001198352841163e-04 5.8921184522619007e-03 0.0000000000000000e+00  3.7212202068104993e-04 5.9048482940578855e-03 0.0000000000000000e+00  3.6512836211020396e-04 5.9179091101621865e-03 0.0000000000000000e+00  3.5854523136167352e-04 5.9306024844079340e-03 0.0000000000000000e+00  3.5202040818735645e-04 5.9467554151092098e-03 0.0000000000000000e+00  3.4659427121759372e-04 5.9595633241750420e-03 0.0000000000000000e+00  3.3925614188689272e-04 5.9695554534313780e-03 0.0000000000000000e+00  3.3870624748015570e-04 6.0097590046454766e-03 0.0000000000000000e+00  3.3941179885611566e-04 6.0554808993257998e-03 0.0000000000000000e+00  3.4040603258347782e-04 6.1056312914783209e-03 0.0000000000000000e+00  3.3607658541532216e-04 6.1549470337103071e-03 0.0000000000000000e+00  4.3801686627564546e-04 5.8166427671380869e-03 0.0000000000000000e+00  4.2708654315152660e-04 5.8324988326132971e-03 0.0000000000000000e+00  4.1632831320904723e-04 5.8463496827288871e-03 0.0000000000000000e+00  4.0596422984138050e-04 5.8582662435601130e-03 0.0000000000000000e+00  3.9591705008315461e-04 5.8691376039138269e-03 0.0000000000000000e+00  3.8624320571074177e-04 5.8789598754722151e-03 0.0000000000000000e+00  3.7673409790811119e-04 5.8881916692874433e-03 0.0000000000000000e+00  3.6719111825469326e-04 5.8975354655445966e-03 0.0000000000000000e+00  3.5762622143711598e-04 5.9081034143970926e-03 0.0000000000000000e+00  3.4843571457312048e-04 5.9198932275095250e-03 0.0000000000000000e+00  3.3986010510945547e-04 5.9326234956229573e-03 0.0000000000000000e+00  3.3191036009979128e-04 5.9458996231680139e-03 0.0000000000000000e+00  3.2436149314829673e-04 5.9596102007871601e-03 0.0000000000000000e+00  3.1707846498657495e-04 5.9749937831731848e-03 0.0000000000000000e+00  3.1029242617112003e-04 5.9896657832898235e-03 0.0000000000000000e+00  3.0284019058894065e-04 6.0055862279342672e-03 0.0000000000000000e+00  2.9566859847640300e-04 6.0331865776824031e-03 0.0000000000000000e+00  2.9171599286977062e-04 6.0560561283967149e-03 0.0000000000000000e+00  2.9222879417932078e-04 6.1060681080433877e-03 0.0000000000000000e+00  2.9292878385627494e-04 6.1569867096746131e-03 0.0000000000000000e+00  2.9116251026660997e-04 6.2070627038994077e-03 0.0000000000000000e+00  3.9160702863366286e-04 5.8510310906013871e-03 0.0000000000000000e+00  3.8195349086878072e-04 5.8659841460889798e-03 0.0000000000000000e+00  3.7228012412174517e-04 5.8792146140468488e-03 0.0000000000000000e+00  3.6260501021364249e-04 5.8912898872909092e-03 0.0000000000000000e+00  3.5297644871055836e-04 5.9024473195218030e-03 0.0000000000000000e+00  3.4332634405796324e-04 5.9131272511169248e-03 0.0000000000000000e+00  3.3360617363776244e-04 5.9238881090367783e-03 0.0000000000000000e+00  3.2388892814869195e-04 5.9353620668736156e-03 0.0000000000000000e+00  3.1440899753685858e-04 5.9476531040879481e-03 0.0000000000000000e+00  3.0532064692820337e-04 5.9606862306945362e-03 0.0000000000000000e+00  2.9664451790220516e-04 5.9743378347808553e-03 0.0000000000000000e+00  2.8827542754312075e-04 5.9886621730880774e-03 0.0000000000000000e+00  2.8012582289133368e-04 6.0041219879048251e-03 0.0000000000000000e+00  2.7216828126146555e-04 6.0200637212221427e-03 0.0000000000000000e+00  2.6392615195192678e-04 6.0379612856832892e-03 0.0000000000000000e+00  2.5589674781908907e-04 6.0612768597939660e-03 0.0000000000000000e+00  2.4957054500262426e-04 6.0836863297226125e-03 0.0000000000000000e+00  2.4317923422217280e-04 6.1066037313629220e-03 0.0000000000000000e+00  2.4375733287145931e-04 6.1574838404653111e-03 0.0000000000000000e+00  2.4436171636192953e-04 6.2085697767657409e-03 0.0000000000000000e+00  2.4350799103492238e-04 6.2595119417411943e-03 0.0000000000000000e+00  3.4522203725109409e-04 5.8856853153466263e-03 0.0000000000000000e+00  3.3599586694558581e-04 5.9002274408773148e-03 0.0000000000000000e+00  3.2661195830099100e-04 5.9135910291623402e-03 0.0000000000000000e+00  3.1710038307148974e-04 5.9260809947295212e-03 0.0000000000000000e+00  3.0745433784078538e-04 5.9380971926867821e-03 0.0000000000000000e+00  2.9769047528220436e-04 5.9500836765809225e-03 0.0000000000000000e+00  2.8789395765804049e-04 5.9624595571972916e-03 0.0000000000000000e+00  2.7821641507038829e-04 5.9753794683271516e-03 0.0000000000000000e+00  2.6876317326184784e-04 5.9888865309625618e-03 0.0000000000000000e+00  2.5956105939943150e-04 6.0030001459067213e-03 0.0000000000000000e+00  2.5056649236486901e-04 6.0178328412918078e-03 0.0000000000000000e+00  2.4172918600037893e-04 6.0336338512004262e-03 0.0000000000000000e+00  2.3300459299822326e-04 6.0503588529943015e-03 0.0000000000000000e+00  2.2425264729055607e-04 6.0688883469654127e-03 0.0000000000000000e+00  2.1582351467921347e-04 6.0903399368190227e-03 0.0000000000000000e+00  2.0837579079511844e-04 6.1121678470846159e-03 0.0000000000000000e+00  2.0130377427354313e-04 6.1347933417008615e-03 0.0000000000000000e+00  1.9443192151448899e-04 6.1580155513619329e-03 0.0000000000000000e+00  1.9500757781086472e-04 6.2091243279412730e-03 0.0000000000000000e+00  1.9562781659226186e-04 6.2607062406502979e-03 0.0000000000000000e+00  1.9500938668026087e-04 6.3127681884674559e-03 0.0000000000000000e+00  2.9761261443067799e-04 5.9214211141306247e-03 0.0000000000000000e+00  2.8844015408879489e-04 5.9360479951662158e-03 0.0000000000000000e+00  2.7906071703981622e-04 5.9498130191883722e-03 0.0000000000000000e+00  2.6948598725252092e-04 5.9630655651089735e-03 0.0000000000000000e+00  2.5975294356283548e-04 5.9761669689123173e-03 0.0000000000000000e+00  2.4993908567032377e-04 5.9894356175451049e-03 0.0000000000000000e+00  2.4014991342785220e-04 6.0030501143046328e-03 0.0000000000000000e+00  2.3046364479629815e-04 6.0171193880956151e-03 0.0000000000000000e+00  2.2091288469685972e-04 6.0317370605553564e-03 0.0000000000000000e+00  2.1149103984771376e-04 6.0470408411022964e-03 0.0000000000000000e+