<?xml version="1.0"?>
<VTKFile type="UnstructuredGrid"  version="0.1"  >
<UnstructuredGrid>
<Piece  NumberOfPoints="7161" NumberOfCells="13800">
<Points>
<DataArray  type="Float64"  NumberOfComponents="3"  format="ascii">0 0 0  0.01652173913043478 0 0  0.03304347826086956 0 0  0.04956521739130434 0 0  0.06608695652173913 0 0  0.08260869565217391 0 0  0.09913043478260869 0 0  0.1156521739130435 0 0  0.1321739130434783 0 0  0.148695652173913 0 0  0.1652173913043478 0 0  0.1817391304347826 0 0  0.1982608695652174 0 0  0.2147826086956522 0 0  0.2313043478260869 0 0  0.2478260869565218 0 0  0.2643478260869565 0 0  0.2808695652173913 0 0  0.2973913043478261 0 0  0.3139130434782609 0 0  0.3304347826086956 0 0  0.3469565217391304 0 0  0.3634782608695652 0 0  0.3799999999999999 0 0  0.3965217391304348 0 0  0.4130434782608696 0 0  0.4295652173913043 0 0  0.4460869565217391 0 0  0.4626086956521739 0 0  0.4791304347826086 0 0  0.4956521739130435 0 0  0.5121739130434783 0 0  0.528695652173913 0 0  0.5452173913043478 0 0  0.5617391304347825 0 0  0.5782608695652174 0 0  0.5947826086956521 0 0  0.6113043478260869 0 0  0.6278260869565218 0 0  0.6443478260869565 0 0  0.6608695652173913 0 0  0.677391304347826 0 0  0.6939130434782609 0 0  0.7104347826086956 0 0  0.7269565217391304 0 0  0.7434782608695653 0 0  0.7599999999999999 0 0  0.7765217391304348 0 0  0.7930434782608695 0 0  0.8095652173913043 0 0  0.8260869565217391 0 0  0.8426086956521739 0 0  0.8591304347826086 0 0  0.8756521739130434 0 0  0.8921739130434783 0 0  0.908695652173913 0 0  0.9252173913043478 0 0  0.9417391304347826 0 0  0.9582608695652173 0 0  0.9747826086956521 0 0  0.991304347826087 0 0  1.007826086956522 0 0  1.024347826086957 0 0  1.040869565217391 0 0  1.057391304347826 0 0  1.073913043478261 0 0  1.090434782608696 0 0  1.10695652173913 0 0  1.123478260869565 0 0  1.14 0 0  1.156521739130435 0 0  1.17304347826087 0 0  1.189565217391304 0 0  1.206086956521739 0 0  1.222608695652174 0 0  1.239130434782609 0 0  1.255652173913044 0 0  1.272173913043478 0 0  1.288695652173913 0 0  1.305217391304348 0 0  1.321739130434783 0 0  1.338260869565217 0 0  1.354782608695652 0 0  1.371304347826087 0 0  1.387826086956522 0 0  1.404347826086957 0 0  1.420869565217391 0 0  1.437391304347826 0 0  1.453913043478261 0 0  1.470434782608696 0 0  1.486956521739131 0 0  1.503478260869565 0 0  1.52 0 0  1.536521739130435 0 0  1.55304347826087 0 0  1.569565217391304 0 0  1.586086956521739 0 0  1.602608695652174 0 0  1.619130434782609 0 0  1.635652173913043 0 0  1.652173913043478 0 0  1.668695652173913 0 0  1.685217391304348 0 0  1.701739130434782 0 0  1.718260869565217 0 0  1.734782608695652 0 0  1.751304347826087 0 0  1.767826086956522 0 0  1.784347826086957 0 0  1.800869565217391 0 0  1.817391304347826 0 0  1.833913043478261 0 0  1.850434782608696 0 0  1.86695652173913 0 0  1.883478260869565 0 0  1.9 0 0  1.916521739130435 0 0  1.933043478260869 0 0  1.949565217391304 0 0  1.966086956521739 0 0  1.982608695652174 0 0  1.999130434782608 0 0  2.015652173913043 0 0  2.032173913043478 0 0  2.048695652173913 0 0  2.065217391304348 0 0  2.081739130434782 0 0  2.098260869565217 0 0  2.114782608695652 0 0  2.131304347826087 0 0  2.147826086956522 0 0  2.164347826086956 0 0  2.180869565217391 0 0  2.197391304347826 0 0  2.213913043478261 0 0  2.230434782608695 0 0  2.24695652173913 0 0  2.263478260869565 0 0  2.28 0 0  2.296521739130434 0 0  2.31304347826087 0 0  2.329565217391304 0 0  2.346086956521739 0 0  2.362608695652174 0 0  2.379130434782609 0 0  2.395652173913044 0 0  2.412173913043478 0 0  2.428695652173913 0 0  2.445217391304348 0 0  2.461739130434782 0 0  2.478260869565217 0 0  2.494782608695652 0 0  2.511304347826087 0 0  2.527826086956522 0 0  2.544347826086956 0 0  2.560869565217391 0 0  2.577391304347826 0 0  2.593913043478261 0 0  2.610434782608696 0 0  2.62695652173913 0 0  2.643478260869565 0 0  2.66 0 0  2.676521739130435 0 0  2.693043478260869 0 0  2.709565217391304 0 0  2.726086956521739 0 0  2.742608695652174 0 0  2.759130434782609 0 0  2.775652173913044 0 0  2.792173913043478 0 0  2.808695652173913 0 0  2.825217391304347 0 0  2.841739130434783 0 0  2.858260869565217 0 0  2.874782608695652 0 0  2.891304347826087 0 0  2.907826086956522 0 0  2.924347826086957 0 0  2.940869565217391 0 0  2.957391304347826 0 0  2.973913043478261 0 0  2.990434782608696 0 0  3.006956521739131 0 0  3.023478260869565 0 0  3.04 0 0  3.056521739130435 0 0  3.073043478260869 0 0  3.089565217391304 0 0  3.106086956521739 0 0  3.122608695652174 0 0  3.139130434782609 0 0  3.155652173913043 0 0  3.172173913043478 0 0  3.188695652173913 0 0  3.205217391304347 0 0  3.221739130434782 0 0  3.238260869565217 0 0  3.254782608695652 0 0  3.271304347826087 0 0  3.287826086956521 0 0  3.304347826086957 0 0  3.320869565217391 0 0  3.337391304347826 0 0  3.353913043478261 0 0  3.370434782608696 0 0  3.386956521739131 0 0  3.403478260869565 0 0  3.419999999999999 0 0  3.436521739130435 0 0  3.453043478260869 0 0  3.469565217391304 0 0  3.486086956521739 0 0  3.502608695652174 0 0  3.519130434782609 0 0  3.535652173913043 0 0  3.552173913043478 0 0  3.568695652173913 0 0  3.585217391304347 0 0  3.601739130434782 0 0  3.618260869565217 0 0  3.634782608695652 0 0  3.651304347826087 0 0  3.667826086956521 0 0  3.684347826086956 0 0  3.700869565217391 0 0  3.717391304347826 0 0  3.733913043478261 0 0  3.750434782608695 0 0  3.766956521739131 0 0  3.783478260869565 0 0  3.8 0 0  0 0.01666666666666667 0  0.01652173913043478 0.01666666666666667 0  0.03304347826086956 0.01666666666666667 0  0.04956521739130434 0.01666666666666667 0  0.06608695652173913 0.01666666666666667 0  0.08260869565217391 0.01666666666666667 0  0.09913043478260869 0.01666666666666667 0  0.1156521739130435 0.01666666666666667 0  0.1321739130434783 0.01666666666666667 0  0.148695652173913 0.01666666666666667 0  0.1652173913043478 0.01666666666666667 0  0.1817391304347826 0.01666666666666667 0  0.1982608695652174 0.01666666666666667 0  0.2147826086956522 0.01666666666666667 0  0.2313043478260869 0.01666666666666667 0  0.2478260869565218 0.01666666666666667 0  0.2643478260869565 0.01666666666666667 0  0.2808695652173913 0.01666666666666667 0  0.2973913043478261 0.01666666666666667 0  0.3139130434782609 0.01666666666666667 0  0.3304347826086956 0.01666666666666667 0  0.3469565217391304 0.01666666666666667 0  0.3634782608695652 0.01666666666666667 0  0.3799999999999999 0.01666666666666667 0  0.3965217391304348 0.01666666666666667 0  0.4130434782608696 0.01666666666666667 0  0.4295652173913043 0.01666666666666667 0  0.4460869565217391 0.01666666666666667 0  0.4626086956521739 0.01666666666666667 0  0.4791304347826086 0.01666666666666667 0  0.4956521739130435 0.01666666666666667 0  0.5121739130434783 0.01666666666666667 0  0.528695652173913 0.01666666666666667 0  0.5452173913043478 0.01666666666666667 0  0.5617391304347825 0.01666666666666667 0  0.5782608695652174 0.01666666666666667 0  0.5947826086956521 0.01666666666666667 0  0.6113043478260869 0.01666666666666667 0  0.6278260869565218 0.01666666666666667 0  0.6443478260869565 0.01666666666666667 0  0.6608695652173913 0.01666666666666667 0  0.677391304347826 0.01666666666666667 0  0.6939130434782609 0.01666666666666667 0  0.7104347826086956 0.01666666666666667 0  0.7269565217391304 0.01666666666666667 0  0.7434782608695653 0.01666666666666667 0  0.7599999999999999 0.01666666666666667 0  0.7765217391304348 0.01666666666666667 0  0.7930434782608695 0.01666666666666667 0  0.8095652173913043 0.01666666666666667 0  0.8260869565217391 0.01666666666666667 0  0.8426086956521739 0.01666666666666667 0  0.8591304347826086 0.01666666666666667 0  0.8756521739130434 0.01666666666666667 0  0.8921739130434783 0.01666666666666667 0  0.908695652173913 0.01666666666666667 0  0.9252173913043478 0.01666666666666667 0  0.9417391304347826 0.01666666666666667 0  0.9582608695652173 0.01666666666666667 0  0.9747826086956521 0.01666666666666667 0  0.991304347826087 0.01666666666666667 0  1.007826086956522 0.01666666666666667 0  1.024347826086957 0.01666666666666667 0  1.040869565217391 0.01666666666666667 0  1.057391304347826 0.01666666666666667 0  1.073913043478261 0.01666666666666667 0  1.090434782608696 0.01666666666666667 0  1.10695652173913 0.01666666666666667 0  1.123478260869565 0.01666666666666667 0  1.14 0.01666666666666667 0  1.156521739130435 0.01666666666666667 0  1.17304347826087 0.01666666666666667 0  1.189565217391304 0.01666666666666667 0  1.206086956521739 0.01666666666666667 0  1.222608695652174 0.01666666666666667 0  1.239130434782609 0.01666666666666667 0  1.255652173913044 0.01666666666666667 0  1.272173913043478 0.01666666666666667 0  1.288695652173913 0.01666666666666667 0  1.305217391304348 0.01666666666666667 0  1.321739130434783 0.01666666666666667 0  1.338260869565217 0.01666666666666667 0  1.354782608695652 0.01666666666666667 0  1.371304347826087 0.01666666666666667 0  1.387826086956522 0.01666666666666667 0  1.404347826086957 0.01666666666666667 0  1.420869565217391 0.01666666666666667 0  1.437391304347826 0.01666666666666667 0  1.453913043478261 0.01666666666666667 0  1.470434782608696 0.01666666666666667 0  1.486956521739131 0.01666666666666667 0  1.503478260869565 0.01666666666666667 0  1.52 0.01666666666666667 0  1.536521739130435 0.01666666666666667 0  1.55304347826087 0.01666666666666667 0  1.569565217391304 0.01666666666666667 0  1.586086956521739 0.01666666666666667 0  1.602608695652174 0.01666666666666667 0  1.619130434782609 0.01666666666666667 0  1.635652173913043 0.01666666666666667 0  1.652173913043478 0.01666666666666667 0  1.668695652173913 0.01666666666666667 0  1.685217391304348 0.01666666666666667 0  1.701739130434782 0.01666666666666667 0  1.718260869565217 0.01666666666666667 0  1.734782608695652 0.01666666666666667 0  1.751304347826087 0.01666666666666667 0  1.767826086956522 0.01666666666666667 0  1.784347826086957 0.01666666666666667 0  1.800869565217391 0.0166666666666666
[...]
<PointData  Scalars="rho"> 
<DataArray  type="Float64"  Name="rho"  format="ascii">9.9901230609697966e-01  9.9847182206327367e-01  9.9702275989196754e-01  9.9871667457051161e-01  1.0000000000000000e+00  1.0000000000000000e+00  1.0000000000000000e+00  1.0000000000000000e+00  9.9663346334360214e-01  9.7430931982587055e-01  9.5313736106253377e-01  9.3416785841298022e-01  9.2124092571140725e-01  9.1703215858065323e-01  9.2149198484910300e-01  9.3742706422557542e-01  9.4576810599871042e-01  9.5949534883501020e-01  9.7157131896853510e-01  9.8104210654346913e-01  9.8802397804594433e-01  9.9392071074625032e-01  9.9783132537532060e-01  9.9052283623761084e-01  9.7565234277142510e-01  9.0809599184887047e-01  8.5389929781834184e-01  7.6056374289568141e-01  7.1426011480594231e-01  7.0467952207593976e-01  7.2549291494923607e-01  7.7748175652423412e-01  8.2909887111712177e-01  9.3061171435433288e-01  9.9099515522449011e-01  1.0000000000000000e+00  1.0000000000000000e+00  1.0000000000000000e+00  9.9545249750973741e-01  9.9050176111924215e-01  9.8644859403135732e-01  9.9028875409113182e-01  9.8880972988981009e-01  9.8191586816819532e-01  9.8198935115150876e-01  9.8250206544001528e-01  9.8335884713446764e-01  9.8431183896361851e-01  9.8501936977079141e-01  9.8522277985005413e-01  9.8487562262333883e-01  9.8418356065405399e-01  9.8360393575008531e-01  9.8338975804587192e-01  9.8392479010863243e-01  9.8527070426359264e-01  9.8717094242567971e-01  9.8896361942400912e-01  9.9050215621342075e-01  9.9122122360195908e-01  9.9085540540518258e-01  9.8936207232985152e-01  9.8701162929770447e-01  9.8455636232728394e-01  9.8228091297997633e-01  9.8074102506387850e-01  9.7999419180433411e-01  9.7989737011216971e-01  9.8022399653912928e-01  9.8074891228502203e-01  9.8129773973359991e-01  9.8157905163323522e-01  9.8200767183470594e-01  9.8565034458883050e-01  9.8640720588531827e-01  9.8334636877447401e-01  9.6606255561884857e-01  9.4646326542751791e-01  9.3185781509114163e-01  9.3145593789793824e-01  9.2056167576017645e-01  9.4891786289782298e-01  9.7531320588387682e-01  9.8959174870766697e-01  9.9218797781531942e-01  9.9777246521885310e-01  1.0000000000000000e+00  1.0000000000000000e+00  1.0000000000000000e+00  9.9999913856129596e-01  9.9999600568768576e-01  9.5284840631898204e-01  9.3286605757137819e-01  8.7039241873790973e-01  8.3393241625210357e-01  8.4566553690496260e-01  9.0359240346538727e-01  9.4289151543230432e-01  9.8459774331852867e-01  9.9298878678433722e-01  9.9470951122800833e-01  9.7355028818121558e-01  9.5674191244004525e-01  9.3687824726547464e-01  9.2152249607857195e-01  9.1625975564974760e-01  9.2599738838766166e-01  9.5102745404098366e-01  9.8302677376661551e-01  9.9999999902545522e-01  9.9999999674242845e-01  9.9999999366633707e-01  9.9999998971599613e-01  9.8719815200103833e-01  9.6707099711902245e-01  9.2926289012918173e-01  9.3619242937924196e-01  9.4688892693058557e-01  8.8487602308916957e-01  8.4239128068245017e-01  7.3153515536484781e-01  6.9396482678921001e-01  7.1128772109811034e-01  7.6528879257415328e-01  8.0669855717702521e-01  8.3753000092474195e-01  8.8106417702646489e-01  9.0025060303706039e-01  9.0623599261595522e-01  9.7109618672177445e-01  9.6308734357791392e-01  9.4385992965553267e-01  9.2970129145255409e-01  9.1504049274197219e-01  9.0899752889159813e-01  9.0546869836587740e-01  9.0382674197202995e-01  9.0378774605496803e-01  9.0531440971894561e-01  9.0872800533953768e-01  9.1342753647015007e-01  9.1801945943116614e-01  9.1918222252857096e-01  8.8387537128100935e-01  8.3298375132994928e-01  8.7887381720367974e-01  8.5865637642694403e-01  8.3805449281142308e-01  8.2530564784421501e-01  8.1786717327296843e-01  8.1258608304577784e-01  8.0015874231627149e-01  8.0103327284612347e-01  8.1173930184255949e-01  8.1592676435576161e-01  8.2263444364880600e-01  8.3639466730618250e-01  8.5175816850673591e-01  8.8322293987893685e-01  8.4568317130116988e-01  8.7870939545674487e-01  9.0063118541044185e-01  9.0745663955949041e-01  9.0951111706056820e-01  9.0233925781411295e-01  8.9942499549861588e-01  8.8823361606533457e-01  8.9144291220588900e-01  9.8075601695253489e-01  8.9746737278537037e-01  9.2439149133808685e-01  9.5247254444563212e-01  7.7578809262446102e-01  7.7900178637758200e-01  7.7177981787203553e-01  7.8831704733886088e-01  7.6383116260248318e-01  9.2511116150618367e-01  8.9385673185688908e-01  8.3797612876044603e-01  8.1546772720757499e-01  8.1648111834304105e-01  8.5002271352354064e-01  7.5359857743790992e-01  7.2925401888198538e-01  7.0247833521867664e-01  5.6258214208237545e-01  5.3808791735356587e-01  5.1094505852352168e-01  4.7548550310138105e-01  4.3330305994905061e-01  3.8655067213669708e-01  3.4962950240732787e-01  2.8349347675380493e-01  1.8704570200710496e-01  1.2607447202684943e-01  1.2332229560602281e-01  6.4417721925647098e-02  2.3230785589872044e-02  1.8237592603128509e-02  1.5705248832960587e-02  4.6007056383858668e-03  2.2416444827954517e-03  2.3651724628215576e-03  1.9466080317395141e-03  1.5014254435909672e-03  1.1029772231097093e-03  7.7259978651366779e-04  5.1757311713395218e-04  4.5707272037390809e-04  6.9216555778141417e-04  4.4183451266725321e-04  2.6480840701170489e-04  4.6730948668584669e-05  6.2296073133549866e-06  5.0398659100579863e-09  4.0308465072316386e-09  2.4294210281593742e-09  1.6277597978830890e-09  1.0157218330432981e-09  5.8540833900348983e-10  3.9955151242743016e-09  9.2390760801437084e-09  1.1812085450824276e-08  1.2705432604957915e-08  1.2633381930112432e-08  1.2097553416656278e-08  1.1443498525844496e-08  1.0906036031132330e-08  1.0649125252503855e-08  3.5206328838048650e-09  9.9701067967182833e-01  9.9282727917583480e-01  9.8930919421991248e-01  9.9325837901338976e-01  9.9772624965041457e-01  1.0000000000000000e+00  1.0000000000000000e+00  1.0000000000000000e+00  9.9505490179673095e-01  9.5309500704738304e-01  9.1281232718863803e-01  8.7528307206604306e-01  8.4840636994095986e-01  8.3821135987114470e-01  8.4526350704537523e-01  8.7631353588497995e-01  9.1862144106616594e-01  9.3471937319299947e-01  9.5278172794528737e-01  9.6809046171695667e-01  9.7792183290285661e-01  9.8319542942218197e-01  9.8654598204939092e-01  9.8479221076122503e-01  9.7984590731759924e-01  9.6248273613496038e-01  9.1829233890818851e-01  8.4863938190856925e-01  7.4109436931200434e-01  6.9777963901729778e-01  6.8509258009108553e-01  7.2696276153899841e-01  8.0039105894861928e-01  8.1788410517691690e-01  8.9640738825416155e-01  9.3743137514845298e-01  8.8494746703665506e-01  9.6542606816309195e-01  9.7348368521328055e-01  9.7006425592165302e-01  9.6484354781880211e-01  9.5990895966317491e-01  9.5586149258858077e-01  9.5239126475836733e-01  9.4928819505657913e-01  9.4707248809330102e-01  9.4635331519825605e-01  9.4699105515989357e-01  9.4815975778647521e-01  9.4285779976598982e-01  9.4298017113651666e-01  9.4309020929141585e-01  9.4420440521798421e-01  9.4684436919123838e-01  9.5173262304238071e-01  9.5875441759935387e-01  9.4461047034829559e-01  9.4738281606280506e-01  9.4961802975547727e-01  9.5063759773656142e-01  9.4997655174375728e-01  9.4750138470701373e-01  9.4352884027544437e-01  9.5736332832903659e-01  9.4601998903364848e-01  9.3641470749769606e-01  9.2939818384622208e-01  9.2506205485235315e-01  9.2302859653217573e-01  9.2275326147620618e-01  9.2377603890358473e-01  9.2592153945705247e-01  9.2944804944444970e-01  9.3471944676920260e-01  9.4356005682076360e-01  9.4192312358368235e-01  9.4396734172728047e-01  9.4203430512630715e-01  9.3952387049827835e-01  9.4324869620623775e-01  9.3313665950300217e-01  9.4435243916564426e-01  9.4342584403866037e-01  9.4384715198478020e-01  9.4709523165771592e-01  9.5432358657011240e-01  9.6768663552959411e-01  9.8325942569265923e-01  9.9963259650580127e-01  9.8858812762065384e-01  9.5833297454628674e-01  9.0983118085736858e-01  8.3572028313630731e-01  7.5489744153631710e-01  6.9267612701744763e-01  7.2635207285204573e-01  8.2890917550231369e-01  9.0185538810926835e-01  9.7337492560336425e-01  9.8958970714186145e-01  9.9308549387591794e-01  9.6242231235052023e-01  9.3170733386795535e-01  8.9370278090435840e-01  8.6148494418493748e-01  8.4469266620599104e-01  8.5260178351973659e-01  8.8777935366963157e-01  9.4481832455413828e-01  9.7831382360388119e-01  9.9607649080957772e-01  9.9731342082655627e-01  9.8841388985305600e-01  9.8682186324013299e-01  9.8066398667769550e-01  9.4758792906801881e-01  9.7909264055691203e-01  9.9999984820326993e-01  9.9407092203523240e-01  9.4051141383915837e-01  8.3736437602867320e-01  6.5012244893030324e-01  6.0962341149987131e-01  6.8276692281161755e-01  7.6889769735167035e-01  8.0319895431104771e-01  8.3600553167099256e-01  8.7689606755849236e-01  8.8267371226498492e-01  8.7738902986749867e-01  9.0550288353842734e-01  8.8737514977562670e-01  8.7494921016938099e-01  8.8053396216783730e-01  8.7318789255783269e-01  8.6985614983363269e-01  8.6891973950014845e-01  8.7013920352626073e-01  8.7365587792156085e-01  8.7979757637453349e-01  8.8830689383735717e-01  8.5066671326108656e-01  8.5836311735681903e-01  8.0965218368838188e-01  7.7596440254623023e-01  7.8539624038807965e-01  7.9637904147808170e-01  7.7399895142620934e-01  7.6070751063627995e-01  7.5063117460203510e-01  7.4784520172496938e-01  7.2516849278870676e-01  7.2231473115278855e-01  7.4277684189480586e-01  7.6833195162548840e-01  8.1246001730012862e-01  8.2480073677423771e-01  8.4038288696095009e-01  8.6326019248115127e-01  8.3923522546730422e-01  8.5603250932920194e-01  8.6898995742611762e-01  8.7719743168726472e-01  8.8141744787905807e-01  8.7667422805245776e-01  8.7643210831400564e-01  8.6704143157926294e-01  8.7496497552667984e-01  8.9645819778700353e-01  8.8852044765850291e-01  9.2205738600268139e-01  7.5576466309351609e-01  7.9327532294352499e-01  8.0106288334155940e-01  7.9849328921161467e-01  7.8464678100630569e-01  7.8592032513896992e-01  7.6115459734222568e-01  7.4579697646147991e-01  7.1007523772159553e-01  6.9881506655546599e-01  7.1647414524616337e-01  7.1284270766132651e-01  6.9387034335627551e-01  6.5748377896022414e-01  6.4118026955043061e-01  6.1816241224769675e-01  5.9656597570190006e-01  5.4878932511297429e-01  5.3921114278135074e-01  5.0343093754492541e-01  4.4884901088582546e-01  4.0736957467452967e-01  3.6986419519053221e-01  3.2078254573576481e-01  2.0827356199583408e-01  1.5021717220430553e-01  7.9854335295784618e-02  4.3529924780474176e-02  4.0968870439928952e-02  2.9749930709398423e-02  2.0318315776053593e-02  5.1738879206998795e-03  5.2363029020945466e-03  4.3574584907308334e-03  3.3852529223880302e-03  2.5001618966386772e-03  1.7557657422437446e-03  1.1764929598786723e-03  1.0434509601871236e-03  1.5916960990851807e-03  1.0195354966420688e-03  6.1431757711051158e-04  1.0481405327073594e-04  9.3295506592675195e-06  1.2581048801628293e-08  9.7543907211173979e-09  5.7593526202332212e-09  3.7953137644802294e-09  2.3302057964269845e-09  1.3172035016508058e-09  1.1119701741998587e-08  2.2948017252351229e-08  2.8580469407382930e-08  3.0339987323931973e-08  2.9890792057324264e-08  2.8396768824404613e-08  2.6652656181195399e-08  2.5190690715838245e-08  2.4352429220353222e-08  1.1590351028035222e-08  9.9333214579249951e-01  9.8533265649350232e-01  9.8874486922320504e-01  9.8730864487923986e-01  9.9498731181742794e-01  1.0000000000000000e+00  1.0000000000000000e+00  1.0000000000000000e+00  9.8959028485603606e-01  9.3169623759784448e-01  8.7368822505935195e-01  8.4944822910532169e-01  7.4483242574113484e-01  7.0152290004284967e-01  6.8962430948911269e-01  7.2263642762822933e-01  7.5200704676680752e-01  8.0086102554214866e-01  8.5324736704910553e-01  8.9870072587853223e-01  9.3136822521999718e-01  9.5414368278147987e-01  9.6990278361144511e-01  9.8766751713416800e-01  1.0000000000000000e+00  9.4987350044797358e-01  8.7828605208091504e-01  8.1643226911786670e-01  6.9675570442720169e-01  5.6673270631214712e-01  4.7158795875126058e-01  4.4481798441921711e-01  4.7550538283999477e-01  5.4377440823045642e-01  6.1933894349436558e-01  6.7130180042587162e-01  7.1825867554646750e-01  7.6398665993787296e-01  7.9036527591773897e-01  7.8985099689286598e-01  8.1865786229599002e-01  8.2874473303564566e-01  8.2920994794096781e-01  7.7951092164217961e-01  8.1440040780799416e-01  8.1685556675439830e-01  8.0840788387802343e-01  7.5847844197808034e-01  7.5694229965171389e-01  7.5671566908902443e-01  7.5695812663746087e-01  7.5764484749610139e-01  7.5975421046088032e-01  7.6399427979019552e-01  7.7069428039203924e-01  7.7954600460491819e-01  7.8954060394902248e-01  7.9918957104859922e-01  8.0691359821146291e-01  8.1135736251159174e-01  8.1162024484187223e-01  8.0747369433891447e-01  7.9952074106903503e-01  8.2845798857611197e-01  8.1953565525986616e-01  8.0612203470550992e-01  7.9168899445342056e-01  7.7812385181912203e-01  7.6463282995528914e-01  7.5046969086541138e-01  7.3514252829537396e-01  7.1847653052858096e-01  7.0068437526111416e-01  6.9031719366662114e-01  6.7919073347735970e-01  6.6612134226135289e-01  6.5624612826917539e-01  6.3476620028430386e-01  6.3047087180018813e-01  6.2459568834775692e-01  6.1968511229046197e-01  6.2069725098086737e-01  6.3057925347343213e-01  6.4319476580140578e-01  6.5022237334794053e-01  6.6593546862970054e-01  6.7305356384424397e-01  6.7903987292023993e-01  6.6677157152031019e-01  6.3468781255210249e-01  6.3167270686892196e-01  5.8591705533441529e-01  5.0957244903623233e-01  4.3712069457345093e-01  5.8558534573574772e-01  3.9033383586892079e-01  6.4091141490018377e-01  8.4413010605231675e-01  8.9995583896395481e-01  9.3492990068826320e-01  9.6079549754516713e-01  9.6044690345440231e-01  8.7842850008913176e-01  8.0034946066263846e-01  6.7793069007088147e-01  6.1689766783345923e-01  5.8826994243958952e-01  5.8420311636205502e-01  6.0993791867490355e-01  6.3967316718359801e-01  6.8374201237274557e-01  7.0538386763434557e-01  7.2277907028075639e-01  7.3006528707523932e-01  7.3739616520693385e-01  7.2225301856845370e-01  7.6780937680376060e-01  8.4197159735739069e-01  7.9203140172111874e-01  7.2053046109617047e-01  6.5058939255831527e-01  4.9453766603077837e-01  2.5038003136356118e-01  2.7384910966631493e-01  3.4996814036418628e-01  4.2382708398578561e-01  4.6417886670879344e-01  4.8362641104186405e-01  4.7882218507038210e-01  4.7659963486541379e-01  4.7033327422484933e-01  4.6031163700025152e-01  4.5434255850846694e-01  4.4813888944031399e-01  4.4602453848565149e-01  4.4652790676904924e-01  4.4793037264320673e-01  4.5596221483066535e-01  4.5987416852994500e-01  4.5799094155842512e-01  4.6612794299705707e-01  4.7612850160769832e-01  4.7473635932098585e-01  4.8449867368242450e-01  4.9282539924929863e-01  4.8588978420016538e-01  4.8928738677407885e-01  4.8673268930601093e-01  4.7925537403602203e-01  4.6655101151463702e-01  4.6348629355428711e-01  4.3830600418660759e-01  4.3751512455592340e-01  4.2854573870377055e-01  4.2567124257924760e-01  4.3948995200438568e-01  4.4317306873396428e-01  4.5126025065079634e-01  4.5450674730722707e-01  4.7313764072638270e-01  4.8681978905045004e-01  4.9641494639310024e-01  5.0242675891379196e-01  5.0909827867284851e-01  5.1473434565423837e-01  5.2296083166632812e-01  5.1683107029622521e-01  5.2991157212493833e-01  5.3575745537393749e-01  5.6529970815946273e-01  4.8418661462430918e-01  5.1034468045593950e-01  5.3428170020527743e-01  5.6053157601193471e-01  5.6592088893949843e-01  5.6225308186869827e-01  5.6812687870265821e-01  5.5842898163719445e-01  5.4767863891972390e-01  5.5990888872768996e-01  5.4875586886887762e-01  5.5971073359411250e-01  5.4756794316242696e-01  5.3087040195372504e-01  5.2618722284843955e-01  5.4099911808416989e-01  5.1745104872819558e-01  5.0321461160500325e-01  4.9459139794141432e-01  5.0740330835035818e-01  5.0331152250757716e-01  4.8424929841087039e-01  4.7026300081861938e-01  4.4017977819420440e-01  4.1814714272805975e-01  3.8914129212864590e-01  3.5103082419759607e-01  3.1486817947270912e-01  1.5665363156928036e-01  6.6308520061723303e-02  5.0074827084467664e-02  3.5783492845450078e-02  1.6745168175648605e-02  8.0952301671891932e-03  6.5426897504930383e-03  4.9878136791216918e-03  3.2742056070187969e-03  2.2324083146533155e-03  1.8421250754744097e-03  3.0466598207805028e-03  2.0019224737821335e-03  1.2562382459852140e-03  7.3789151972294162e-04  7.1135262365684695e-05  2.6295107378042295e-08  2.0026684071163728e-08  1.4070041121424833e-08  7.7076092590938803e-09  4.7432349678332210e-09  2.7003831645778087e-09  5.8198184683538716e-09  3.0266736515012593e-08  4.2684258582201482e-08  4.7376548080717061e-08  4.7449915554748533e-08  4.5083278628663436e-08  4.1763864403296790e-08  3.8485907686416818e-08  3.5901459612101387e-08  3.4424586519996338e-08  1.5863622184292271e-08  9.8444797272299556e-01  9.6781511378446428e-01  9.7386021904441655e-01  9.8433277121551310e-01  9.9591378616339366e-01  9.9921407344743252e-01  1.0000000000000000e+00  9.9744699482580812e-01  9.8023947234233477e-01  8.6761136748435541e-01  7.4181315553091898e-01  5.4554453641755007e-01  3.9520678501514178e-01  3.0977082916807380e-01  2.9164033549624396e-01  3.4380150198441473e-01  4.0132305439542587e-01  4.9157207694915733e-01  5.9287659477716492e-01  6.6712052531104882e-01  7.2528264016834065e-01  7.6503287191472702e-01  7.9569685987356609e-01  8.2246321660749000e-01  8.3413068063811813e-01  8.3731971203941746e-01  7.9923724661868423e-01  7.2708616226667955e-01  6.2834986316252261e-01  4.5462693869596482e-01  2.9130811575784255e-01  1.2354365665850514e-01  7.0463854138967719e-02  7.0224844662990421e-02  1.0401714342689267e-01  1.3449735475602576e-01  1.5072477555565231e-01  1.5339649205542924e-01  1.4392493226081757e-01  1.2698812736483547e-01  1.0730666026020366e-01  8.8910606690678545e-02  7.3812408332138257e-02  6.3260342784910634e-02  5.4265232387455099e-02  1.2803392378783668e-01  1.3115371875035597e-01  1.4092901824015064e-01  1.5196235509812978e-01  1.2315900124029244e-01  1.4045663892963206e-01  1.4927985947776914e-01  1.5196759605258500e-01  1.5063326214593692e-01  1.4757069974172055e-01  1.2300355943366093e-01  1.0495193145389964e-01  8.7796844930152981e-02  7.3273115851869644e-02  6.1020377003506911e-02  5.3939955321344782e-02  5.0761305412019779e-02  5.1446032298974903e-02  5.6347806597767398e-02  8.1867474829103601e-02  8.8174652809361778e-02  9.7698455432438935e-02  1.1186158981333780e-01  1.2818219737705114e-01  1.4534751384826711e-01  1.6195515471443772e-01  1.7460109933845028e-01  1.8667108941447569e-01  1.9750324175175096e-01  2.0758831289772695e-01  2.1702312842092042e-01  2.7374912426305031e-01  2.6122630871192842e-01  2.7680657478545612e-01  2.7183914687079186e-01  2.5442051857167797e-01  2.4824499550835669e-01  2.3355071322226897e-01  2.2172190052853846e-01  2.0922894299367992e-01  2.1661772500693896e-01  2.0751854818879611e-01  2.5284745980707074e-01  1.8966421370067477e-01  1.5971601046293232e-01  1.2123863595963777e-01  6.9275687876560230e-02  1.2661309669952847e-02  8.0642925816450401e-03  1.7973659358222858e-03  1.4175658283239037e-01  2.4517130386859001e-01  4.9440851415456466e-01  5.6501994226019825e-01  5.4361181124199665e-01  5.5660541151007392e-01  5.2764734711823458e-01  4.1896026267741782e-01  2.7250759161998955e-01  1.8195298074279512e-01  1.1796845032651074e-01  7.4848074459962680e-02  4.5805145377691141e-02  5.1829813278559352e-02  1.0274558608204298e-01  1.5265355368352040e-01  2.0515352254463914e-01  2.8441632435299735e-01  3.2742893518927030e-01  3.6853417125739540e-01  4.1357850464155549e-01  5.5181357370084638e-01  5.8286611517834319e-01  5.4661805563730603e-01  4.6006246658718514e-01  3.6985767792666785e-01  3.1101692079492221e-01  1.2083216423612465e-01  3.5347497392558983e-05  4.4489443955259193e-05  5.1174754739077423e-05  7.0958152236315457e-03  4.6035697283181395e-02  4.8597800159600711e-02  4.9175693741964503e-02  4.5489155352089423e-02  4.1564781027605253e-02  4.0094391769496945e-02  3.5988240642403184e-02  3.5507083281469509e-02  3.6612025830254490e-02  3.4683095537220487e-0