<?xml version="1.0"?>
<VTKFile type="UnstructuredGrid"  version="0.1"  >
<UnstructuredGrid>
<Piece  NumberOfPoints="7161" NumberOfCells="13800">
<Points>
<DataArray  type="Float64"  NumberOfComponents="3"  format="ascii">0 0 0  0.01652173913043478 0 0  0.03304347826086956 0 0  0.04956521739130434 0 0  0.06608695652173913 0 0  0.08260869565217391 0 0  0.09913043478260869 0 0  0.1156521739130435 0 0  0.1321739130434783 0 0  0.148695652173913 0 0  0.1652173913043478 0 0  0.1817391304347826 0 0  0.1982608695652174 0 0  0.2147826086956522 0 0  0.2313043478260869 0 0  0.2478260869565218 0 0  0.2643478260869565 0 0  0.2808695652173913 0 0  0.2973913043478261 0 0  0.3139130434782609 0 0  0.3304347826086956 0 0  0.3469565217391304 0 0  0.3634782608695652 0 0  0.3799999999999999 0 0  0.3965217391304348 0 0  0.4130434782608696 0 0  0.4295652173913043 0 0  0.4460869565217391 0 0  0.4626086956521739 0 0  0.4791304347826086 0 0  0.4956521739130435 0 0  0.5121739130434783 0 0  0.528695652173913 0 0  0.5452173913043478 0 0  0.5617391304347825 0 0  0.5782608695652174 0 0  0.5947826086956521 0 0  0.6113043478260869 0 0  0.6278260869565218 0 0  0.6443478260869565 0 0  0.6608695652173913 0 0  0.677391304347826 0 0  0.6939130434782609 0 0  0.7104347826086956 0 0  0.7269565217391304 0 0  0.7434782608695653 0 0  0.7599999999999999 0 0  0.7765217391304348 0 0  0.7930434782608695 0 0  0.8095652173913043 0 0  0.8260869565217391 0 0  0.8426086956521739 0 0  0.8591304347826086 0 0  0.8756521739130434 0 0  0.8921739130434783 0 0  0.908695652173913 0 0  0.9252173913043478 0 0  0.9417391304347826 0 0  0.9582608695652173 0 0  0.9747826086956521 0 0  0.991304347826087 0 0  1.007826086956522 0 0  1.024347826086957 0 0  1.040869565217391 0 0  1.057391304347826 0 0  1.073913043478261 0 0  1.090434782608696 0 0  1.10695652173913 0 0  1.123478260869565 0 0  1.14 0 0  1.156521739130435 0 0  1.17304347826087 0 0  1.189565217391304 0 0  1.206086956521739 0 0  1.222608695652174 0 0  1.239130434782609 0 0  1.255652173913044 0 0  1.272173913043478 0 0  1.288695652173913 0 0  1.305217391304348 0 0  1.321739130434783 0 0  1.338260869565217 0 0  1.354782608695652 0 0  1.371304347826087 0 0  1.387826086956522 0 0  1.404347826086957 0 0  1.420869565217391 0 0  1.437391304347826 0 0  1.453913043478261 0 0  1.470434782608696 0 0  1.486956521739131 0 0  1.503478260869565 0 0  1.52 0 0  1.536521739130435 0 0  1.55304347826087 0 0  1.569565217391304 0 0  1.586086956521739 0 0  1.602608695652174 0 0  1.619130434782609 0 0  1.635652173913043 0 0  1.652173913043478 0 0  1.668695652173913 0 0  1.685217391304348 0 0  1.701739130434782 0 0  1.718260869565217 0 0  1.734782608695652 0 0  1.751304347826087 0 0  1.767826086956522 0 0  1.784347826086957 0 0  1.800869565217391 0 0  1.817391304347826 0 0  1.833913043478261 0 0  1.850434782608696 0 0  1.86695652173913 0 0  1.883478260869565 0 0  1.9 0 0  1.916521739130435 0 0  1.933043478260869 0 0  1.949565217391304 0 0  1.966086956521739 0 0  1.982608695652174 0 0  1.999130434782608 0 0  2.015652173913043 0 0  2.032173913043478 0 0  2.048695652173913 0 0  2.065217391304348 0 0  2.081739130434782 0 0  2.098260869565217 0 0  2.114782608695652 0 0  2.131304347826087 0 0  2.147826086956522 0 0  2.164347826086956 0 0  2.180869565217391 0 0  2.197391304347826 0 0  2.213913043478261 0 0  2.230434782608695 0 0  2.24695652173913 0 0  2.263478260869565 0 0  2.28 0 0  2.296521739130434 0 0  2.31304347826087 0 0  2.329565217391304 0 0  2.346086956521739 0 0  2.362608695652174 0 0  2.379130434782609 0 0  2.395652173913044 0 0  2.412173913043478 0 0  2.428695652173913 0 0  2.445217391304348 0 0  2.461739130434782 0 0  2.478260869565217 0 0  2.494782608695652 0 0  2.511304347826087 0 0  2.527826086956522 0 0  2.544347826086956 0 0  2.560869565217391 0 0  2.577391304347826 0 0  2.593913043478261 0 0  2.610434782608696 0 0  2.62695652173913 0 0  2.643478260869565 0 0  2.66 0 0  2.676521739130435 0 0  2.693043478260869 0 0  2.709565217391304 0 0  2.726086956521739 0 0  2.742608695652174 0 0  2.759130434782609 0 0  2.775652173913044 0 0  2.792173913043478 0 0  2.808695652173913 0 0  2.825217391304347 0 0  2.841739130434783 0 0  2.858260869565217 0 0  2.874782608695652 0 0  2.891304347826087 0 0  2.907826086956522 0 0  2.924347826086957 0 0  2.940869565217391 0 0  2.957391304347826 0 0  2.973913043478261 0 0  2.990434782608696 0 0  3.006956521739131 0 0  3.023478260869565 0 0  3.04 0 0  3.056521739130435 0 0  3.073043478260869 0 0  3.089565217391304 0 0  3.106086956521739 0 0  3.122608695652174 0 0  3.139130434782609 0 0  3.155652173913043 0 0  3.172173913043478 0 0  3.188695652173913 0 0  3.205217391304347 0 0  3.221739130434782 0 0  3.238260869565217 0 0  3.254782608695652 0 0  3.271304347826087 0 0  3.287826086956521 0 0  3.304347826086957 0 0  3.320869565217391 0 0  3.337391304347826 0 0  3.353913043478261 0 0  3.370434782608696 0 0  3.386956521739131 0 0  3.403478260869565 0 0  3.419999999999999 0 0  3.436521739130435 0 0  3.453043478260869 0 0  3.469565217391304 0 0  3.486086956521739 0 0  3.502608695652174 0 0  3.519130434782609 0 0  3.535652173913043 0 0  3.552173913043478 0 0  3.568695652173913 0 0  3.585217391304347 0 0  3.601739130434782 0 0  3.618260869565217 0 0  3.634782608695652 0 0  3.651304347826087 0 0  3.667826086956521 0 0  3.684347826086956 0 0  3.700869565217391 0 0  3.717391304347826 0 0  3.733913043478261 0 0  3.750434782608695 0 0  3.766956521739131 0 0  3.783478260869565 0 0  3.8 0 0  0 0.01666666666666667 0  0.01652173913043478 0.01666666666666667 0  0.03304347826086956 0.01666666666666667 0  0.04956521739130434 0.01666666666666667 0  0.06608695652173913 0.01666666666666667 0  0.08260869565217391 0.01666666666666667 0  0.09913043478260869 0.01666666666666667 0  0.1156521739130435 0.01666666666666667 0  0.1321739130434783 0.01666666666666667 0  0.148695652173913 0.01666666666666667 0  0.1652173913043478 0.01666666666666667 0  0.1817391304347826 0.01666666666666667 0  0.1982608695652174 0.01666666666666667 0  0.2147826086956522 0.01666666666666667 0  0.2313043478260869 0.01666666666666667 0  0.2478260869565218 0.01666666666666667 0  0.2643478260869565 0.01666666666666667 0  0.2808695652173913 0.01666666666666667 0  0.2973913043478261 0.01666666666666667 0  0.3139130434782609 0.01666666666666667 0  0.3304347826086956 0.01666666666666667 0  0.3469565217391304 0.01666666666666667 0  0.3634782608695652 0.01666666666666667 0  0.3799999999999999 0.01666666666666667 0  0.3965217391304348 0.01666666666666667 0  0.4130434782608696 0.01666666666666667 0  0.4295652173913043 0.01666666666666667 0  0.4460869565217391 0.01666666666666667 0  0.4626086956521739 0.01666666666666667 0  0.4791304347826086 0.01666666666666667 0  0.4956521739130435 0.01666666666666667 0  0.5121739130434783 0.01666666666666667 0  0.528695652173913 0.01666666666666667 0  0.5452173913043478 0.01666666666666667 0  0.5617391304347825 0.01666666666666667 0  0.5782608695652174 0.01666666666666667 0  0.5947826086956521 0.01666666666666667 0  0.6113043478260869 0.01666666666666667 0  0.6278260869565218 0.01666666666666667 0  0.6443478260869565 0.01666666666666667 0  0.6608695652173913 0.01666666666666667 0  0.677391304347826 0.01666666666666667 0  0.6939130434782609 0.01666666666666667 0  0.7104347826086956 0.01666666666666667 0  0.7269565217391304 0.01666666666666667 0  0.7434782608695653 0.01666666666666667 0  0.7599999999999999 0.01666666666666667 0  0.7765217391304348 0.01666666666666667 0  0.7930434782608695 0.01666666666666667 0  0.8095652173913043 0.01666666666666667 0  0.8260869565217391 0.01666666666666667 0  0.8426086956521739 0.01666666666666667 0  0.8591304347826086 0.01666666666666667 0  0.8756521739130434 0.01666666666666667 0  0.8921739130434783 0.01666666666666667 0  0.908695652173913 0.01666666666666667 0  0.9252173913043478 0.01666666666666667 0  0.9417391304347826 0.01666666666666667 0  0.9582608695652173 0.01666666666666667 0  0.9747826086956521 0.01666666666666667 0  0.991304347826087 0.01666666666666667 0  1.007826086956522 0.01666666666666667 0  1.024347826086957 0.01666666666666667 0  1.040869565217391 0.01666666666666667 0  1.057391304347826 0.01666666666666667 0  1.073913043478261 0.01666666666666667 0  1.090434782608696 0.01666666666666667 0  1.10695652173913 0.01666666666666667 0  1.123478260869565 0.01666666666666667 0  1.14 0.01666666666666667 0  1.156521739130435 0.01666666666666667 0  1.17304347826087 0.01666666666666667 0  1.189565217391304 0.01666666666666667 0  1.206086956521739 0.01666666666666667 0  1.222608695652174 0.01666666666666667 0  1.239130434782609 0.01666666666666667 0  1.255652173913044 0.01666666666666667 0  1.272173913043478 0.01666666666666667 0  1.288695652173913 0.01666666666666667 0  1.305217391304348 0.01666666666666667 0  1.321739130434783 0.01666666666666667 0  1.338260869565217 0.01666666666666667 0  1.354782608695652 0.01666666666666667 0  1.371304347826087 0.01666666666666667 0  1.387826086956522 0.01666666666666667 0  1.404347826086957 0.01666666666666667 0  1.420869565217391 0.01666666666666667 0  1.437391304347826 0.01666666666666667 0  1.453913043478261 0.01666666666666667 0  1.470434782608696 0.01666666666666667 0  1.486956521739131 0.01666666666666667 0  1.503478260869565 0.01666666666666667 0  1.52 0.01666666666666667 0  1.536521739130435 0.01666666666666667 0  1.55304347826087 0.01666666666666667 0  1.569565217391304 0.01666666666666667 0  1.586086956521739 0.01666666666666667 0  1.602608695652174 0.01666666666666667 0  1.619130434782609 0.01666666666666667 0  1.635652173913043 0.01666666666666667 0  1.652173913043478 0.01666666666666667 0  1.668695652173913 0.01666666666666667 0  1.685217391304348 0.01666666666666667 0  1.701739130434782 0.01666666666666667 0  1.718260869565217 0.01666666666666667 0  1.734782608695652 0.01666666666666667 0  1.751304347826087 0.01666666666666667 0  1.767826086956522 0.01666666666666667 0  1.784347826086957 0.01666666666666667 0  1.800869565217391 0.0166666666666666
[...]
<PointData  Vectors="Displacement"> 
<DataArray  type="Float64"  Name="Displacement"  NumberOfComponents="3" format="ascii">0.0000000000000000e+00 0.0000000000000000e+00 0.0000000000000000e+00  6.4868819479185314e-06 4.0477713559722955e-06 0.0000000000000000e+00  1.2353356286092573e-05 8.7020436581313236e-06 0.0000000000000000e+00  1.8033157385847947e-05 1.5254749084294704e-05 0.0000000000000000e+00  2.3589704765307092e-05 2.3872082848225030e-05 0.0000000000000000e+00  2.9043161405311903e-05 3.4647529898025201e-05 0.0000000000000000e+00  3.4367461016418500e-05 4.7675908627593582e-05 0.0000000000000000e+00  3.9490422192176249e-05 6.2966647258917504e-05 0.0000000000000000e+00  4.4411390635541349e-05 8.0534509082731155e-05 0.0000000000000000e+00  4.8989009997485751e-05 1.0043350295921496e-04 0.0000000000000000e+00  5.3043886800084429e-05 1.2243396023387746e-04 0.0000000000000000e+00  5.6168829437851086e-05 1.4589665627711437e-04 0.0000000000000000e+00  5.8018096160449374e-05 1.6920461699586483e-04 0.0000000000000000e+00  5.8526748496000283e-05 1.8998955814696609e-04 0.0000000000000000e+00  5.7827558290321864e-05 2.0627998749123941e-04 0.0000000000000000e+00  5.6047526879845783e-05 2.1628015399299951e-04 0.0000000000000000e+00  5.3595598869317517e-05 2.1884374274556623e-04 0.0000000000000000e+00  5.0917939829759969e-05 2.1478840349810661e-04 0.0000000000000000e+00  4.8250964158797120e-05 2.0559493723673931e-04 0.0000000000000000e+00  4.5680857060508965e-05 1.9226756338069277e-04 0.0000000000000000e+00  4.3299732861681422e-05 1.7543715627024755e-04 0.0000000000000000e+00  4.1158136345246557e-05 1.5576143557885589e-04 0.0000000000000000e+00  3.9295376821436192e-05 1.3381415956576436e-04 0.0000000000000000e+00  3.7736784554898376e-05 1.1003881765092802e-04 0.0000000000000000e+00  3.6508511890380537e-05 8.4806814478714671e-05 0.0000000000000000e+00  3.5665227758010427e-05 5.8400613913204489e-05 0.0000000000000000e+00  3.5320885750101100e-05 3.1053299723088622e-05 0.0000000000000000e+00  3.5650596806454055e-05 3.0336055076336385e-06 0.0000000000000000e+00  3.6880993493861160e-05 -2.5301262741914113e-05 0.0000000000000000e+00  3.9277773492256394e-05 -5.3444111093784513e-05 0.0000000000000000e+00  4.3127766445989075e-05 -8.0702342970378444e-05 0.0000000000000000e+00  4.8731970807779799e-05 -1.0616607012661578e-04 0.0000000000000000e+00  5.6447737344575449e-05 -1.2820701465479116e-04 0.0000000000000000e+00  6.6353914379813829e-05 -1.4465038852714364e-04 0.0000000000000000e+00  7.8605763335413769e-05 -1.5312269613914470e-04 0.0000000000000000e+00  9.2970919140598809e-05 -1.4989710473796387e-04 0.0000000000000000e+00  1.1018684224632800e-04 -1.2987627288940025e-04 0.0000000000000000e+00  1.2836512524097462e-04 -8.6376619614259180e-05 0.0000000000000000e+00  1.4983198813615028e-04 -1.6750234339354613e-05 0.0000000000000000e+00  1.7214863663951783e-04 8.8630177040494105e-05 0.0000000000000000e+00  1.9477360319948935e-04 2.3262497169723435e-04 0.0000000000000000e+00  2.1502027562802570e-04 4.1012041269200517e-04 0.0000000000000000e+00  2.3432761635786513e-04 6.1452896085256823e-04 0.0000000000000000e+00  2.5203201304969833e-04 8.4330245084797298e-04 0.0000000000000000e+00  2.6843943102205961e-04 1.0928568571560880e-03 0.0000000000000000e+00  2.8299565361221093e-04 1.3584819385486506e-03 0.0000000000000000e+00  2.9636578235742812e-04 1.6365336883188738e-03 0.0000000000000000e+00  3.0930140373159877e-04 1.9261734253960988e-03 0.0000000000000000e+00  3.2222734406025502e-04 2.2271952385388974e-03 0.0000000000000000e+00  3.3547920597449881e-04 2.5404496589471665e-03 0.0000000000000000e+00  3.4955820548874850e-04 2.8681055489405776e-03 0.0000000000000000e+00  3.6427659036911088e-04 3.2121243464894554e-03 0.0000000000000000e+00  3.7958563877204984e-04 3.5737827275853879e-03 0.0000000000000000e+00  3.9530885574920916e-04 3.9550034037461705e-03 0.0000000000000000e+00  4.1117208086520913e-04 4.3564085841241622e-03 0.0000000000000000e+00  4.2705896691630632e-04 4.7781473804606577e-03 0.0000000000000000e+00  4.4256168264718656e-04 5.2199466368532989e-03 0.0000000000000000e+00  4.5827142241204973e-04 5.6814660868856320e-03 0.0000000000000000e+00  4.7475560769480750e-04 6.1644409418339999e-03 0.0000000000000000e+00  4.9093481286968774e-04 6.6711772169609478e-03 0.0000000000000000e+00  5.0730953247646554e-04 7.2015636413881963e-03 0.0000000000000000e+00  5.2361681686016336e-04 7.7561917128165384e-03 0.0000000000000000e+00  5.3951412688740851e-04 8.3348350100615198e-03 0.0000000000000000e+00  5.5515799335794605e-04 8.9363853219049574e-03 0.0000000000000000e+00  5.7043978192941093e-04 9.5599183788982762e-03 0.0000000000000000e+00  5.8434839433302256e-04 1.0203440066356036e-02 0.0000000000000000e+00  5.9808824598385707e-04 1.0864291385492282e-02 0.0000000000000000e+00  6.1133919109909848e-04 1.1542171994626243e-02 0.0000000000000000e+00  6.2431807075508431e-04 1.2236753011522957e-02 0.0000000000000000e+00  6.3693441528287864e-04 1.2947684048671585e-02 0.0000000000000000e+00  6.4915652827128188e-04 1.3674464196050779e-02 0.0000000000000000e+00  6.6082524578733100e-04 1.4416337206330407e-02 0.0000000000000000e+00  6.7174625761963729e-04 1.5171808011434426e-02 0.0000000000000000e+00  6.8197842227370165e-04 1.5939352005695320e-02 0.0000000000000000e+00  6.9156103649606793e-04 1.6717671300197828e-02 0.0000000000000000e+00  7.0032091987442928e-04 1.7504670976382714e-02 0.0000000000000000e+00  7.0869177159014617e-04 1.8299026335785236e-02 0.0000000000000000e+00  7.1707077298336437e-04 1.9100497879652435e-02 0.0000000000000000e+00  7.2576618890151279e-04 1.9909891923497149e-02 0.0000000000000000e+00  7.3535756646711243e-04 2.0729411488771530e-02 0.0000000000000000e+00  7.4501575706081001e-04 2.1561162782698030e-02 0.0000000000000000e+00  7.5614805682724484e-04 2.2406430353325860e-02 0.0000000000000000e+00  7.6747591635957307e-04 2.3269898043491579e-02 0.0000000000000000e+00  7.7909436473507909e-04 2.4152770992421059e-02 0.0000000000000000e+00  7.8858712447642699e-04 2.5052291909593575e-02 0.0000000000000000e+00  7.9765574533123182e-04 2.5964058880011548e-02 0.0000000000000000e+00  8.0526813941046293e-04 2.6884903356949749e-02 0.0000000000000000e+00  8.1180702319530614e-04 2.7812005950796650e-02 0.0000000000000000e+00  8.1757809500654073e-04 2.8744028210203110e-02 0.0000000000000000e+00  8.2270861792763767e-04 2.9679978048486537e-02 0.0000000000000000e+00  8.2733969341508367e-04 3.0619381847660637e-02 0.0000000000000000e+00  8.3151164872644057e-04 3.1561750400575121e-02 0.0000000000000000e+00  8.3527384376883701e-04 3.2506610121364146e-02 0.0000000000000000e+00  8.3866459239611093e-04 3.3453590536553668e-02 0.0000000000000000e+00  8.4172200009141607e-04 3.4402385563469078e-02 0.0000000000000000e+00  8.4445900234999757e-04 3.5352710477526292e-02 0.0000000000000000e+00  8.4686474370057336e-04 3.6304317954435457e-02 0.0000000000000000e+00  8.4895238402423530e-04 3.7256933438336998e-02 0.0000000000000000e+00  8.5077513019836794e-04 3.8210302130124330e-02 0.0000000000000000e+00  8.5242301966591814e-04 3.9164240088636164e-02 0.0000000000000000e+00  8.5400191966719067e-04 4.0118671970143550e-02 0.0000000000000000e+00  8.5560317571220534e-04 4.1073631933588386e-02 0.0000000000000000e+00  8.5728653460369559e-04 4.2029226951318770e-02 0.0000000000000000e+00  8.5906454142546131e-04 4.2985600693914244e-02 0.0000000000000000e+00  8.6090896314793897e-04 4.3942876629006908e-02 0.0000000000000000e+00  8.6277952104709689e-04 4.4901125371355467e-02 0.0000000000000000e+00  8.6464511029937623e-04 4.5860349708440766e-02 0.0000000000000000e+00  8.6647097452671067e-04 4.6820576185972122e-02 0.0000000000000000e+00  8.6823354404005589e-04 4.7781765040084814e-02 0.0000000000000000e+00  8.6991905945594898e-04 4.8743865908569224e-02 0.0000000000000000e+00  8.7152326400197384e-04 4.9706829491040334e-02 0.0000000000000000e+00  8.7304266302204968e-04 5.0670607034111040e-02 0.0000000000000000e+00  8.7447849382548629e-04 5.1635149816050822e-02 0.0000000000000000e+00  8.7582586390721150e-04 5.2600412572497070e-02 0.0000000000000000e+00  8.7707099444258902e-04 5.3566337382158644e-02 0.0000000000000000e+00  8.7820193521624343e-04 5.4532848876713363e-02 0.0000000000000000e+00  8.7921686184129911e-04 5.5499840253512227e-02 0.0000000000000000e+00  8.8013943047204012e-04 5.6467205072766896e-02 0.0000000000000000e+00  8.8103461655865932e-04 5.7434857712490461e-02 0.0000000000000000e+00  8.8204787324954728e-04 5.8402821818922153e-02 0.0000000000000000e+00  8.8327188431290516e-04 5.9371378527720127e-02 0.0000000000000000e+00  8.8457527832303321e-04 6.0341004637523080e-02 0.0000000000000000e+00  8.8619564286418798e-04 6.1312343352350113e-02 0.0000000000000000e+00  8.8778213046234507e-04 6.2286283504262512e-02 0.0000000000000000e+00  8.8924971877194100e-04 6.3263277219956685e-02 0.0000000000000000e+00  8.9046332385490695e-04 6.4242336520079782e-02 0.0000000000000000e+00  8.9139975224866946e-04 6.5222366798304801e-02 0.0000000000000000e+00  8.9214986164661795e-04 6.6202720940109594e-02 0.0000000000000000e+00  8.9274799661159105e-04 6.7182980937197032e-02 0.0000000000000000e+00  8.9320420228431417e-04 6.8162781865779204e-02 0.0000000000000000e+00  8.9353537172542961e-04 6.9141816666075731e-02 0.0000000000000000e+00  8.9380076458536967e-04 7.0119846817632933e-02 0.0000000000000000e+00  8.9406346389566500e-04 7.1096738462928133e-02 0.0000000000000000e+00  8.9441124577213323e-04 7.2072734010123693e-02 0.0000000000000000e+00  8.9503355375130874e-04 7.3044909682229306e-02 0.0000000000000000e+00  9.1722711621700450e-04 7.3984950359518964e-02 0.0000000000000000e+00  -1.1369335702462824e-02 5.5249944064615010e-02 0.0000000000000000e+00  9.1207586353347234e-02 1.1603909191967426e-01 0.0000000000000000e+00  1.8198322853119919e-01 1.4478054397718715e-01 0.0000000000000000e+00  2.6759179726576304e-01 1.6064316018692854e-01 0.0000000000000000e+00  3.5015440409105358e-01 1.7142116213155592e-01 0.0000000000000000e+00  4.3058398555726163e-01 1.7955228405572596e-01 0.0000000000000000e+00  5.0967269301352880e-01 1.8584917827658221e-01 0.0000000000000000e+00  5.8823746540289346e-01 1.9058827210406817e-01 0.0000000000000000e+00  6.6710899178563177e-01 1.9388206354759560e-01 0.0000000000000000e+00  7.4711137868274935e-01 1.9581538629812181e-01 0.0000000000000000e+00  8.2905481326075992e-01 1.9649464023920446e-01 0.0000000000000000e+00  9.1374023158716910e-01 1.9606318301374237e-01 0.0000000000000000e+00  1.0019728383125077e+00 1.9470333792440728e-01 0.0000000000000000e+00  1.0945831821028933e+00 1.9263304921709118e-01 0.0000000000000000e+00  1.1924570171206559e+00 1.9010011966516077e-01 0.0000000000000000e+00  1.2965783501979278e+00 1.8737465837476827e-01 0.0000000000000000e+00  1.4080950330733553e+00 1.8473912767015319e-01 0.0000000000000000e+00  1.5284253530336689e+00 1.8247456545472523e-01 0.0000000000000000e+00  1.6594418766658177e+00 1.8084093041050761e-01 0.0000000000000000e+00  1.8038037640149587e+00 1.8004725724614135e-01 0.0000000000000000e+00  1.9655691315023007e+00 1.8018015084996838e-01 0.0000000000000000e+00  2.1511645579415557e+00 1.8067047143942727e-01 0.0000000000000000e+00  2.3907829538677774e+00 1.8238408871964221e-01 0.0000000000000000e+00  2.3988765803793877e+00 1.9330510861807948e-01 0.0000000000000000e+00  2.3991287381494684e+00 2.0230795390438328e-01 0.0000000000000000e+00  2.3993095095051231e+00 2.1125159010089012e-01 0.0000000000000000e+00  2.4234956741546338e+00 7.9187913437220786e-02 0.0000000000000000e+00  2.7911201615085406e+00 -7.3296522136269250e-03 0.0000000000000000e+00  3.1699929593207283e+00 -3.5059134993513397e-01 0.0000000000000000e+00  3.2563990076494713e+00 1.3154067816012400e+00 0.0000000000000000e+00  3.2610424375294853e+00 1.4365708146343272e+00 0.0000000000000000e+00  3.2610674850997659e+00 1.5969694668592633e+00 0.0000000000000000e+00  3.2610727381924387e+00 1.7574383165410778e+00 0.0000000000000000e+00  3.2610772844655846e+00 1.9179180390544281e+00 0.0000000000000000e+00  3.2610816093170345e+00 2.0784046937529230e+00 0.0000000000000000e+00  3.2610857906717814e+00 2.2388964102275155e+00 0.0000000000000000e+00  3.2610894236041865e+00 2.3993918861791612e+00 0.0000000000000000e+00  3.2610926003870189e+00 2.5598901192733696e+00 0.0000000000000000e+00  3.2610954607217342e+00 2.7203901920520468e+00 0.0000000000000000e+00  3.2610981372990988e+00 2.8808919872031655e+00 0.0000000000000000e+00  3.2611006532651996e+00 3.0413953237922406e+00 0.0000000000000000e+00  3.2611030529878633e+00 3.2019000269518267e+00 0.0000000000000000e+00  3.2611053901089400e+00 3.3624060301393714e+00 0.0000000000000000e+00  3.2611076831425079e+00 3.5229133664863967e+00 0.0000000000000000e+00  3.2611099014830418e+00 3.6834220743058501e+00 0.0000000000000000e+00  3.2611120053890827e+00 3.8439321023753559e+00 0.0000000000000000e+00  3.2611139585200024e+00 4.0044433429381430e+00 0.0000000000000000e+00  3.2611157483740234e+00 4.1649556690091414e+00 0.0000000000000000e+00  3.2611173696102282e+00 4.3254689506111097e+00 0.0000000000000000e+00  3.2611188493382515e+00 4.4859830882200615e+00 0.0000000000000000e+00  3.2611201349319114e+00 4.6464980258983282e+00 0.0000000000000000e+00  3.2611214390576069e+00 4.8070135543677868e+00 0.0000000000000000e+00  3.2611223786752723e+00 4.9675299151376455e+00 0.0000000000000000e+00  3.2611246637536886e+00 5.1280482497331645e+00 0.0000000000000000e+00  3.2611589969297370e+00 5.2886039796442601e+00 0.0000000000000000e+00  3.2374793750133142e+00 5.4274661213532571e+00 0.0000000000000000e+00  3.4627713008583436e+00 5.7588450972587637e+00 0.0000000000000000e+00  3.6442379241437073e+00 6.1472346796061039e+00 0.0000000000000000e+00  3.7893654440271609e+00 6.5034839056110547e+00 0.0000000000000000e+00  3.9123367335892487e+00 6.8432951701433744e+00 0.0000000000000000e+00  4.0196083671002523e+00 7.1739621685650015e+00 0.0000000000000000e+00  4.1145486818649974e+00 7.4990645933272226e+00 0.0000000000000000e+00  4.1991836006918843e+00 7.8204775862690017e+00 0.0000000000000000e+00  4.2748891609364223e+00 8.1391980797009467e+00 0.0000000000000000e+00  4.3426934739843457e+00 8.4557423544494981e+00 0.0000000000000000e+00  4.4034188467385009e+00 8.7703555184069675e+00 0.0000000000000000e+00  4.4577539418640582e+00 9.0831277609751258e+00 0.0000000000000000e+00  4.5062936851140103e+00 9.3940611962241611e+00 0.0000000000000000e+00  4.5495635136592005e+00 9.7031095319791305e+00 0.0000000000000000e+00  4.5880354951648323e+00 1.0010202500720158e+01 0.0000000000000000e+00  4.6221397846551842e+00 1.0315261667725686e+01 0.0000000000000000e+00  4.6522730040326730e+00 1.0618211322097936e+01 0.0000000000000000e+00  4.6788042428190604e+00 1.0918986484347053e+01 0.0000000000000000e+00  4.7020789760686625e+00 1.1217539057103439e+01 0.0000000000000000e+00  4.7224210506079967e+00 1.1513842514636941e+01 0.0000000000000000e+00  4.7401329003391499e+00 1.1807895128195847e+01 0.0000000000000000e+00  4.7554942615177893e+00 1.2099721490338315e+01 0.0000000000000000e+00  4.7687598323619831e+00 1.2389372005816933e+01 0.0000000000000000e+00  4.7801565210384753e+00 1.2676920054865171e+01 0.0000000000000000e+00  4.7898811108179453e+00 1.2962456706901859e+01 0.0000000000000000e+00  4.7980993048154676e+00 1.3246083150595688e+01 0.0000000000000000e+00  4.8049470947231594e+00 1.3527901500663516e+01 0.0000000000000000e+00  4.8105350307840471e+00 1.3808005406096774e+01 0.0000000000000000e+00  4.8149553234615228e+00 1.4086472316607692e+01 0.0000000000000000e+00  4.8182910866553970e+00 1.4363359058978171e+01 0.0000000000000000e+00  4.8206266632116321e+00 1.4638701775811167e+01 0.0000000000000000e+00  4.8220578611726701e+00 1.4912520675882741e+01 0.0000000000000000e+00  4.8227009384047443e+00 1.5184829648325302e+01 0.0000000000000000e+00  4.8226991512522606e+00 1.5455650593392027e+01 0.0000000000000000e+00  4.8222254973292298e+00 1.5725032213516741e+01 0.0000000000000000e+00  4.8214797948958070e+00 1.5993072796955586e+01 0.0000000000000000e+00  4.8206772438772667e+00 1.6259945783380495e+01 0.0000000000000000e+00  4.8200236727938091e+00 1.6525924350527454e+01 0.0000000000000000e+00  4.8196683756065628e+00 1.6791392020687514e+01 0.0000000000000000e+00  4.8196102853916774e+00 1.7056784929306740e+01 0.0000000000000000e+00  0.0000000000000000e+00 0.0000000000000000e+00 0.0000000000000000e+00  3.2122881352936443e-06 2.0549123047699853e-06 0.0000000000000000e+00  6.9558871936913019e-06 6.6944175334756494e-06 0.0000000000000000e+00  1.0520368988492231e-05 1.3303008412630831e-05 0.0000000000000000e+00  1.3931499528722014e-05 2.1964139744706585e-05 0.0000000000000000e+00  1.7215129515049286e-05 3.2781500565206733e-05 0.0000000000000000e+00  2.0346527514950275e-05 4.5854326418921771e-05 0.0000000000000000e+00  2.3332301470999487e-05 6.1202289251446106e-05 0.0000000000000000e+00  2.6156137693102290e-05 7.8845852458607875e-05 0.0000000000000000e+00  2.8735135853698715e-05 9.8741017974932126e-05 0.0000000000000000e+00  3.1464210164158716e-05 1.2078737867538058e-04 0.0000000000000000e+00  3.4330247888437443e-05 1.4428507861938581e-04 0.0000000000000000e+00  3.7767042927591169e-05 1.6778726859222550e-04 0.0000000000000000e+00  4.1706142101812857e-05 1.8877049460785640e-04 0.0000000000000000e+00  4.5984904681759376e-05 2.0531513317890109e-04 0.0000000000000000e+00  5.0498267333488296e-05 2.1585177524092211e-04 0.0000000000000000e+00  5.4461679902461709e-05 2.1887040999482590e-04 0.0000000000000000e+00  5.7389653721312070e-05 2.1504485077239460e-04 0.0000000000000000e+00  5.9338768079338223e-05 2.0598445160927042e-04 0.0000000000000000e+00  6.0544153718438167e-05 1.9272337217660039e-04 0.0000000000000000e+00  6.1290641043785076e-05 1.7590765233515767e-04 0.0000000000000000e+00  6.1702736474659510e-05 1.5621697035577288e-04 0.0000000000000000e+00  6.1892157126348848e-05 1.3423288697760643e-04 0.0000000000000000e+00  6.1961690965710374e-05 1.1039861726940774e-04 0.0000000000000000e+00  6.1994737761091140e-05 8.5092156162519159e-05 0.0000000000000000e+00  6.2076172057736446e-05 5.8585328127191395e-05 0.0000000000000000e+00  6.2311462371493218e-05 3.1089738681299471e-05 0.0000000000000000e+00  6.2820074272406949e-05 2.8603196108072619e-06 0.0000000000000000e+00  6.3723107176665803e-05 -2.5752463011481244e-05 0.0000000000000000e+00  6.5116177692229777e-05 -5.4232352370368674e-05 0.0000000000000000e+00  6.7050206413025388e-05 -8.1874756859333123e-05 0.0000000000000000e+00  6.9532685287472748e-05 -1.0775355327117788e-04 0.0000000000000000e+00  7.2240922886905405e-05 -1.3016540878645617e-04 0.0000000000000000e+00  7.4691594867229416e-05 -1.4681732757776433e-04 0.0000000000000000e+00  7.6379066387811029e-05 -1.5513541830181800e-04 0.0000000000000000e+00  7.6117756261067539e-05 -1.5163167992590635e-04 0.0000000000000000e+00  7.3389016681375612e-05 -1.3183573540296464e-04 0.0000000000000000e+00  6.8464444265198984e-05 -8.8107713775698176e-05 0.0000000000000000e+00  6.0398184031555952e-05 -1.8673643358281324e-05 0.0000000000000000e+00  4.7025264745571262e-05 8.6260124908501420e-05 0.0000000000000000e+00  3.3009416209634488e-05 2.2988723959533832e-04 0.0000000000000000e+00  2.3478812884633017e-05 4.0751344462078623e-04 0.0000000000000000e+00  1.7258424505115267e-05 6.1155877192850604e-04 0.0000000000000000e+00  1.3046906307674083e-05 8.3990097985071953e-04 0.0000000000000000e+00  1.0856446189318163e-05 1.0894266745808006e-03 0.0000000000000000e+00  1.0248251870914839e-05 1.3554437835742884e-03 0.0000000000000000e+00  1.0462276613232757e-05 1.6337304270126918e-03 0.0000000000000000e+00  1.0843551485770170e-05 1.9236493934372484e-03 0.0000000000000000e+00  1.0902641290854221e-05 2.2249906222548475e-03 0.0000000000000000e+00  1.0206096824493573e-05 2.5383801591601527e-03 0.0000000000000000e+00  8.6003782965911730e-06 2.8660756055032635e-03 0.0000000000000000e+00  6.1665242371362604e-06 3.2102838587579072e-03 0.0000000000000000e+00  2.8362670140781242e-06 3.5719037530637615