<?xml version="1.0"?>
<VTKFile type="UnstructuredGrid"  version="0.1"  >
<UnstructuredGrid>
<Piece  NumberOfPoints="7161" NumberOfCells="13800">
<Points>
<DataArray  type="Float64"  NumberOfComponents="3"  format="ascii">0 0 0  0.01652173913043478 0 0  0.03304347826086956 0 0  0.04956521739130434 0 0  0.06608695652173913 0 0  0.08260869565217391 0 0  0.09913043478260869 0 0  0.1156521739130435 0 0  0.1321739130434783 0 0  0.148695652173913 0 0  0.1652173913043478 0 0  0.1817391304347826 0 0  0.1982608695652174 0 0  0.2147826086956522 0 0  0.2313043478260869 0 0  0.2478260869565218 0 0  0.2643478260869565 0 0  0.2808695652173913 0 0  0.2973913043478261 0 0  0.3139130434782609 0 0  0.3304347826086956 0 0  0.3469565217391304 0 0  0.3634782608695652 0 0  0.3799999999999999 0 0  0.3965217391304348 0 0  0.4130434782608696 0 0  0.4295652173913043 0 0  0.4460869565217391 0 0  0.4626086956521739 0 0  0.4791304347826086 0 0  0.4956521739130435 0 0  0.5121739130434783 0 0  0.528695652173913 0 0  0.5452173913043478 0 0  0.5617391304347825 0 0  0.5782608695652174 0 0  0.5947826086956521 0 0  0.6113043478260869 0 0  0.6278260869565218 0 0  0.6443478260869565 0 0  0.6608695652173913 0 0  0.677391304347826 0 0  0.6939130434782609 0 0  0.7104347826086956 0 0  0.7269565217391304 0 0  0.7434782608695653 0 0  0.7599999999999999 0 0  0.7765217391304348 0 0  0.7930434782608695 0 0  0.8095652173913043 0 0  0.8260869565217391 0 0  0.8426086956521739 0 0  0.8591304347826086 0 0  0.8756521739130434 0 0  0.8921739130434783 0 0  0.908695652173913 0 0  0.9252173913043478 0 0  0.9417391304347826 0 0  0.9582608695652173 0 0  0.9747826086956521 0 0  0.991304347826087 0 0  1.007826086956522 0 0  1.024347826086957 0 0  1.040869565217391 0 0  1.057391304347826 0 0  1.073913043478261 0 0  1.090434782608696 0 0  1.10695652173913 0 0  1.123478260869565 0 0  1.14 0 0  1.156521739130435 0 0  1.17304347826087 0 0  1.189565217391304 0 0  1.206086956521739 0 0  1.222608695652174 0 0  1.239130434782609 0 0  1.255652173913044 0 0  1.272173913043478 0 0  1.288695652173913 0 0  1.305217391304348 0 0  1.321739130434783 0 0  1.338260869565217 0 0  1.354782608695652 0 0  1.371304347826087 0 0  1.387826086956522 0 0  1.404347826086957 0 0  1.420869565217391 0 0  1.437391304347826 0 0  1.453913043478261 0 0  1.470434782608696 0 0  1.486956521739131 0 0  1.503478260869565 0 0  1.52 0 0  1.536521739130435 0 0  1.55304347826087 0 0  1.569565217391304 0 0  1.586086956521739 0 0  1.602608695652174 0 0  1.619130434782609 0 0  1.635652173913043 0 0  1.652173913043478 0 0  1.668695652173913 0 0  1.685217391304348 0 0  1.701739130434782 0 0  1.718260869565217 0 0  1.734782608695652 0 0  1.751304347826087 0 0  1.767826086956522 0 0  1.784347826086957 0 0  1.800869565217391 0 0  1.817391304347826 0 0  1.833913043478261 0 0  1.850434782608696 0 0  1.86695652173913 0 0  1.883478260869565 0 0  1.9 0 0  1.916521739130435 0 0  1.933043478260869 0 0  1.949565217391304 0 0  1.966086956521739 0 0  1.982608695652174 0 0  1.999130434782608 0 0  2.015652173913043 0 0  2.032173913043478 0 0  2.048695652173913 0 0  2.065217391304348 0 0  2.081739130434782 0 0  2.098260869565217 0 0  2.114782608695652 0 0  2.131304347826087 0 0  2.147826086956522 0 0  2.164347826086956 0 0  2.180869565217391 0 0  2.197391304347826 0 0  2.213913043478261 0 0  2.230434782608695 0 0  2.24695652173913 0 0  2.263478260869565 0 0  2.28 0 0  2.296521739130434 0 0  2.31304347826087 0 0  2.329565217391304 0 0  2.346086956521739 0 0  2.362608695652174 0 0  2.379130434782609 0 0  2.395652173913044 0 0  2.412173913043478 0 0  2.428695652173913 0 0  2.445217391304348 0 0  2.461739130434782 0 0  2.478260869565217 0 0  2.494782608695652 0 0  2.511304347826087 0 0  2.527826086956522 0 0  2.544347826086956 0 0  2.560869565217391 0 0  2.577391304347826 0 0  2.593913043478261 0 0  2.610434782608696 0 0  2.62695652173913 0 0  2.643478260869565 0 0  2.66 0 0  2.676521739130435 0 0  2.693043478260869 0 0  2.709565217391304 0 0  2.726086956521739 0 0  2.742608695652174 0 0  2.759130434782609 0 0  2.775652173913044 0 0  2.792173913043478 0 0  2.808695652173913 0 0  2.825217391304347 0 0  2.841739130434783 0 0  2.858260869565217 0 0  2.874782608695652 0 0  2.891304347826087 0 0  2.907826086956522 0 0  2.924347826086957 0 0  2.940869565217391 0 0  2.957391304347826 0 0  2.973913043478261 0 0  2.990434782608696 0 0  3.006956521739131 0 0  3.023478260869565 0 0  3.04 0 0  3.056521739130435 0 0  3.073043478260869 0 0  3.089565217391304 0 0  3.106086956521739 0 0  3.122608695652174 0 0  3.139130434782609 0 0  3.155652173913043 0 0  3.172173913043478 0 0  3.188695652173913 0 0  3.205217391304347 0 0  3.221739130434782 0 0  3.238260869565217 0 0  3.254782608695652 0 0  3.271304347826087 0 0  3.287826086956521 0 0  3.304347826086957 0 0  3.320869565217391 0 0  3.337391304347826 0 0  3.353913043478261 0 0  3.370434782608696 0 0  3.386956521739131 0 0  3.403478260869565 0 0  3.419999999999999 0 0  3.436521739130435 0 0  3.453043478260869 0 0  3.469565217391304 0 0  3.486086956521739 0 0  3.502608695652174 0 0  3.519130434782609 0 0  3.535652173913043 0 0  3.552173913043478 0 0  3.568695652173913 0 0  3.585217391304347 0 0  3.601739130434782 0 0  3.618260869565217 0 0  3.634782608695652 0 0  3.651304347826087 0 0  3.667826086956521 0 0  3.684347826086956 0 0  3.700869565217391 0 0  3.717391304347826 0 0  3.733913043478261 0 0  3.750434782608695 0 0  3.766956521739131 0 0  3.783478260869565 0 0  3.8 0 0  0 0.01666666666666667 0  0.01652173913043478 0.01666666666666667 0  0.03304347826086956 0.01666666666666667 0  0.04956521739130434 0.01666666666666667 0  0.06608695652173913 0.01666666666666667 0  0.08260869565217391 0.01666666666666667 0  0.09913043478260869 0.01666666666666667 0  0.1156521739130435 0.01666666666666667 0  0.1321739130434783 0.01666666666666667 0  0.148695652173913 0.01666666666666667 0  0.1652173913043478 0.01666666666666667 0  0.1817391304347826 0.01666666666666667 0  0.1982608695652174 0.01666666666666667 0  0.2147826086956522 0.01666666666666667 0  0.2313043478260869 0.01666666666666667 0  0.2478260869565218 0.01666666666666667 0  0.2643478260869565 0.01666666666666667 0  0.2808695652173913 0.01666666666666667 0  0.2973913043478261 0.01666666666666667 0  0.3139130434782609 0.01666666666666667 0  0.3304347826086956 0.01666666666666667 0  0.3469565217391304 0.01666666666666667 0  0.3634782608695652 0.01666666666666667 0  0.3799999999999999 0.01666666666666667 0  0.3965217391304348 0.01666666666666667 0  0.4130434782608696 0.01666666666666667 0  0.4295652173913043 0.01666666666666667 0  0.4460869565217391 0.01666666666666667 0  0.4626086956521739 0.01666666666666667 0  0.4791304347826086 0.01666666666666667 0  0.4956521739130435 0.01666666666666667 0  0.5121739130434783 0.01666666666666667 0  0.528695652173913 0.01666666666666667 0  0.5452173913043478 0.01666666666666667 0  0.5617391304347825 0.01666666666666667 0  0.5782608695652174 0.01666666666666667 0  0.5947826086956521 0.01666666666666667 0  0.6113043478260869 0.01666666666666667 0  0.6278260869565218 0.01666666666666667 0  0.6443478260869565 0.01666666666666667 0  0.6608695652173913 0.01666666666666667 0  0.677391304347826 0.01666666666666667 0  0.6939130434782609 0.01666666666666667 0  0.7104347826086956 0.01666666666666667 0  0.7269565217391304 0.01666666666666667 0  0.7434782608695653 0.01666666666666667 0  0.7599999999999999 0.01666666666666667 0  0.7765217391304348 0.01666666666666667 0  0.7930434782608695 0.01666666666666667 0  0.8095652173913043 0.01666666666666667 0  0.8260869565217391 0.01666666666666667 0  0.8426086956521739 0.01666666666666667 0  0.8591304347826086 0.01666666666666667 0  0.8756521739130434 0.01666666666666667 0  0.8921739130434783 0.01666666666666667 0  0.908695652173913 0.01666666666666667 0  0.9252173913043478 0.01666666666666667 0  0.9417391304347826 0.01666666666666667 0  0.9582608695652173 0.01666666666666667 0  0.9747826086956521 0.01666666666666667 0  0.991304347826087 0.01666666666666667 0  1.007826086956522 0.01666666666666667 0  1.024347826086957 0.01666666666666667 0  1.040869565217391 0.01666666666666667 0  1.057391304347826 0.01666666666666667 0  1.073913043478261 0.01666666666666667 0  1.090434782608696 0.01666666666666667 0  1.10695652173913 0.01666666666666667 0  1.123478260869565 0.01666666666666667 0  1.14 0.01666666666666667 0  1.156521739130435 0.01666666666666667 0  1.17304347826087 0.01666666666666667 0  1.189565217391304 0.01666666666666667 0  1.206086956521739 0.01666666666666667 0  1.222608695652174 0.01666666666666667 0  1.239130434782609 0.01666666666666667 0  1.255652173913044 0.01666666666666667 0  1.272173913043478 0.01666666666666667 0  1.288695652173913 0.01666666666666667 0  1.305217391304348 0.01666666666666667 0  1.321739130434783 0.01666666666666667 0  1.338260869565217 0.01666666666666667 0  1.354782608695652 0.01666666666666667 0  1.371304347826087 0.01666666666666667 0  1.387826086956522 0.01666666666666667 0  1.404347826086957 0.01666666666666667 0  1.420869565217391 0.01666666666666667 0  1.437391304347826 0.01666666666666667 0  1.453913043478261 0.01666666666666667 0  1.470434782608696 0.01666666666666667 0  1.486956521739131 0.01666666666666667 0  1.503478260869565 0.01666666666666667 0  1.52 0.01666666666666667 0  1.536521739130435 0.01666666666666667 0  1.55304347826087 0.01666666666666667 0  1.569565217391304 0.01666666666666667 0  1.586086956521739 0.01666666666666667 0  1.602608695652174 0.01666666666666667 0  1.619130434782609 0.01666666666666667 0  1.635652173913043 0.01666666666666667 0  1.652173913043478 0.01666666666666667 0  1.668695652173913 0.01666666666666667 0  1.685217391304348 0.01666666666666667 0  1.701739130434782 0.01666666666666667 0  1.718260869565217 0.01666666666666667 0  1.734782608695652 0.01666666666666667 0  1.751304347826087 0.01666666666666667 0  1.767826086956522 0.01666666666666667 0  1.784347826086957 0.01666666666666667 0  1.800869565217391 0.0166666666666666
[...]
<PointData  Scalars="rho"> 
<DataArray  type="Float64"  Name="rho"  format="ascii">9.9997951384993733e-01  9.9996185482392630e-01  9.9994226708726053e-01  9.9990216663531406e-01  9.9982466364726186e-01  9.9968543371145990e-01  9.9946720619175478e-01  9.9674235353648977e-01  9.8983222583266650e-01  9.6949056368364495e-01  9.4827653482239971e-01  9.2896315507556326e-01  9.1505558412091548e-01  9.0927582313909983e-01  9.1211335338688748e-01  9.2168408433446580e-01  9.3439454745318007e-01  9.4748959783670594e-01  9.5877609373811179e-01  9.6760119891473739e-01  9.7451850969139808e-01  9.8100093358575347e-01  9.8592762120410105e-01  9.7979892210427211e-01  9.6604556221280968e-01  8.9932199835040194e-01  8.4540628869927836e-01  7.5186207479346046e-01  7.0476022472382838e-01  6.9418107000836160e-01  7.1398786232851019e-01  7.6522723128334647e-01  8.1593969367772523e-01  9.1685818972276645e-01  9.7778265545292131e-01  9.8866838918040323e-01  9.9087559830518557e-01  9.8908615435992764e-01  9.8522609494507962e-01  9.8066262718506436e-01  9.7714188507115207e-01  9.8132423060078966e-01  9.8004764812167222e-01  9.7327681625737961e-01  9.7343458031356167e-01  9.7400015764189218e-01  9.7487706994126577e-01  9.7583223698084853e-01  9.7655199914428514e-01  9.7680082573894877e-01  9.7654056079861629e-01  9.7596925392141542e-01  9.7544695678350957e-01  9.7536601902749165e-01  9.7601317729585546e-01  9.7744257454675243e-01  9.7940056851577650e-01  9.8123551632290029e-01  9.8281338377443961e-01  9.8358090546469257e-01  9.8328292808700468e-01  9.8188229672992411e-01  9.7964423725866945e-01  9.7730150709452224e-01  9.7511448507670617e-01  9.7362677108800499e-01  9.7289928377635515e-01  9.7280094059266697e-01  9.7311810022394840e-01  9.7363568628474961e-01  9.7418605399672664e-01  9.7448150395129363e-01  9.7493649698526375e-01  9.7861106093714523e-01  9.7939249542952422e-01  9.7633526433540141e-01  9.5902860496629294e-01  9.3939149561653479e-01  9.2476168122606939e-01  9.2438374330461581e-01  9.1358902705954392e-01  9.4212246348538908e-01  9.6873637451608641e-01  9.8320089178744496e-01  9.8584943301789907e-01  9.9123999754600056e-01  9.9386538067294639e-01  9.9389823118074372e-01  9.9386271046970931e-01  9.9367516955552349e-01  9.9323145842620819e-01  9.4138465688745709e-01  9.2293904416393779e-01  8.6335886297738684e-01  8.3052056327007406e-01  8.4505671835878826e-01  9.0416047615556205e-01  9.4309962798924907e-01  9.8364832662314572e-01  9.9034347919821586e-01  9.9033461047410554e-01  9.6783735032437268e-01  9.5034876980232674e-01  9.3047184259621307e-01  9.1565850197946219e-01  9.1088654131318403e-01  9.2031402870986556e-01  9.4387187503401904e-01  9.7359011664249906e-01  9.9732976934262174e-01  9.9824123320060765e-01  9.9615965591337352e-01  9.8807625249470821e-01  9.7331179426615522e-01  9.5473789180078239e-01  9.1900028960063751e-01  9.2834648910000817e-01  9.4160853612380668e-01  8.8245788884603371e-01  8.4250322084749485e-01  7.3482917126419123e-01  7.0054787787817940e-01  7.2025467976127422e-01  7.7537634530307276e-01  8.1706350294550778e-01  8.4834761617954890e-01  8.9279200463229424e-01  9.1310447948282736e-01  9.1999229562174023e-01  9.8558452341297564e-01  9.7786129181148052e-01  9.5847798622043956e-01  9.4379474282656772e-01  9.2835885787950267e-01  9.2143111506400766e-01  9.1705418073759337e-01  9.1470880242776842e-01  9.1412953284091991e-01  9.1535187477095470e-01  9.1836164816833887e-01  9.2263068015455763e-01  9.2673603348783551e-01  9.2732415179202365e-01  8.9130272273932887e-01  8.3953984509066948e-01  8.8450898226998809e-01  8.6502941240745035e-01  8.4374636780786871e-01  8.3032373544056048e-01  8.2022996534721626e-01  8.1399577333858608e-01  8.0061554382025824e-01  8.0068902954861310e-01  8.1084163661513176e-01  8.1470605683221542e-01  8.2262365458027598e-01  8.3600345808234144e-01  8.5100077897516291e-01  8.8221885776996334e-01  8.4450651459639825e-01  8.7743101808556689e-01  8.9928680761538260e-01  9.0603483056591594e-01  9.0795981438963080e-01  9.0057793883676907e-01  8.9735875754284444e-01  8.8576532644950745e-01  8.8847682489815805e-01  9.7721800243139545e-01  8.9329889479756241e-01  9.1967284798078308e-01  9.4744169899156394e-01  7.7074127604449494e-01  7.7401844026160904e-01  7.6733571436047199e-01  7.8465590308972510e-01  7.6104363204981273e-01  9.2300108938805792e-01  8.9250359111246258e-01  8.3710739500261822e-01  8.1475189313184970e-01  8.1561892388800139e-01  8.4901169239300900e-01  7.5270399661953458e-01  7.2865878295135178e-01  7.0237117421766726e-01  5.6296366088205885e-01  5.3875183731747911e-01  5.1007472594652481e-01  4.7396635832205913e-01  4.3357221012633940e-01  3.8905700743594096e-01  3.5322256687350778e-01  2.8604410436616629e-01  1.8808030379717819e-01  1.2596854666918542e-01  1.2240433042523230e-01  6.2967068160467085e-02  2.1539897720248644e-02  1.6443191584111040e-02  1.3974216645200566e-02  3.0507780452025349e-03  9.4138411872465367e-04  1.3333198425874882e-03  1.1726271571905829e-03  9.5438870014283815e-04  7.4167952594384205e-04  5.5357364490293403e-04  4.0069460545263345e-04  3.7423890438513513e-04  6.6346054988556985e-04  4.4507199272283222e-04  2.8470240793588105e-04  7.3444435020669224e-05  3.7371740335883945e-05  8.8281414918982887e-06  1.0109364232400924e-06  5.3529535174415747e-07  4.0399460952628422e-07  2.9945856633875621e-07  2.1811509081278423e-07  1.5620922497971580e-07  9.1741764774222147e-08  6.3688505346463382e-08  4.3618829617681482e-08  2.9555602766629250e-08  1.9941828480757477e-08  1.3599578033903230e-08  8.0783197703497050e-09  6.4095448273013199e-09  1.9974497790697740e-09  9.9996838995433424e-01  9.9992336793395464e-01  9.9989056571293322e-01  9.9982151106068851e-01  9.9967816819851574e-01  9.9939916717932797e-01  9.9894494892198227e-01  9.9344702004366348e-01  9.8244164789474098e-01  9.4505722645868429e-01  9.0519188627242153e-01  8.6784966622478077e-01  8.4010875065701285e-01  8.2802231228538981e-01  8.3316453253505318e-01  8.5195850306557830e-01  9.0581895050877814e-01  9.2107590364364289e-01  9.3654068776828781e-01  9.4866979206610369e-01  9.5643515173802174e-01  9.6125904169603693e-01  9.6540581369612843e-01  9.6515978358332477e-01  9.6198415053807440e-01  9.4619791301724554e-01  9.0285073174569297e-01  8.3332614601381882e-01  7.2495877317184465e-01  6.8056960535481570e-01  6.6743431876840498e-01  7.0846375437470610e-01  7.8065768786706624e-01  7.9661845412714927e-01  8.7574783869200989e-01  9.1704066878573243e-01  8.6542457084858171e-01  9.4706814568109554e-01  9.5629315613969534e-01  9.5319549770632339e-01  9.4879766725842540e-01  9.4439218092594912e-01  9.4065451807228673e-01  9.3737887570789225e-01  9.3442880766913383e-01  9.3232496834770939e-01  9.3165783382334832e-01  9.3230762779008380e-01  9.3350083021165653e-01  9.2828025666811909e-01  9.2855811505514196e-01  9.2888451166455599e-01  9.3006100058050012e-01  9.3293782255494495e-01  9.3802164950622724e-01  9.4518348603205526e-01  9.3113012940047879e-01  9.3396403926143268e-01  9.3625597045605435e-01  9.3735019743083914e-01  9.3680205465067279e-01  9.3449166758152236e-01  9.3073131328793068e-01  9.4479027831212581e-01  9.3363366969491457e-01  9.2415129456053413e-01  9.1719939241872872e-01  9.1289143129416883e-01  9.1087272469379732e-01  9.1061605328256789e-01  9.1167279831745163e-01  9.1387467981901327e-01  9.1748132912093672e-01  9.2284684816271279e-01  9.3177288411905346e-01  9.3018498150061846e-01  9.3222476848590141e-01  9.3024734878304038e-01  9.2770064108322325e-01  9.3146076144050804e-01  9.2151224498276696e-01  9.3303800291340055e-01  9.3251873409149133e-01  9.3332667694518656e-01  9.3677044624726213e-01  9.4380611704149220e-01  9.5640776560491536e-01  9.7056278945692998e-01  9.8522079869803669e-01  9.7208187311167982e-01  9.4027647580209295e-01  8.9172993449094418e-01  8.2004213229631495e-01  7.4394175334577284e-01  6.8810455835373341e-01  7.2683104924010811e-01  8.3146033752689430e-01  9.0341079549991377e-01  9.7252670165441724e-01  9.8545075620076583e-01  9.8561016320181016e-01  9.5241483345021538e-01  9.2047799446813516e-01  8.8255063401052725e-01  8.5175945660265395e-01  8.3647475655392101e-01  8.4437890159770390e-01  8.7711132997628727e-01  9.2989237261111524e-01  9.5921042101115184e-01  9.7241636489271999e-01  9.7171601758778625e-01  9.6271974691570072e-01  9.6243393207853378e-01  9.5866714801266806e-01  9.2892334481430561e-01  9.6449191605933426e-01  9.9467070458384022e-01  9.8909122792752191e-01  9.3966762453830677e-01  8.4188746848890583e-01  6.6011062485424077e-01  6.2344628701530980e-01  6.9776507741860683e-01  7.8419281329189283e-01  8.1895297601288886e-01  8.5343651620173144e-01  8.9675269290475335e-01  9.0465800147431319e-01  9.0117745594840792e-01  9.3013054113650639e-01  9.1187053731261203e-01  8.9851628100152270e-01  9.0264914580677325e-01  8.9361825943775097e-01  8.8866361214084277e-01  8.8640589235664691e-01  8.8666001275827033e-01  8.8944959035517734e-01  8.9492645828851880e-01  9.0270258357615352e-01  8.6448914383446152e-01  8.7119065574436971e-01  8.2126482265262990e-01  7.8606784684060116e-01  7.9388059555727242e-01  8.0342992002086944e-01  7.8295633673356402e-01  7.6866084054589157e-01  7.5749471129288393e-01  7.4969436340532114e-01  7.2552288381679320e-01  7.2140547999263127e-01  7.4103154405184279e-01  7.6943498827473067e-01  8.1291845768385751e-01  8.2471893292428533e-01  8.3974808934113898e-01  8.6226861706720337e-01  8.3799109828926199e-01  8.5464577401458808e-01  8.6752110137258032e-01  8.7562963748471390e-01  8.7952860438396685e-01  8.7446172519312815e-01  8.7385906631601373e-01  8.6379310720805236e-01  8.7086468990303856e-01  8.9133604738297567e-01  8.8232304740588763e-01  9.1490831417085983e-01  7.4814029782889324e-01  7.8570491721171687e-01  7.9370039445535989e-01  7.9203252540637903e-01  7.7950349345875858e-01  7.8224863828411328e-01  7.5855259812491138e-01  7.4455186801493489e-01  7.0974980644061292e-01  6.9879771282876935e-01  7.1601562303621791e-01  7.1214204548387017e-01  6.9338869382721047e-01  6.5766723115801551e-01  6.4236919897314404e-01  6.2053541593342443e-01  5.9987867882264179e-01  5.5224022297803510e-01  5.3874938820006657e-01  5.0205139445135061e-01  4.5206519930508676e-01  4.1225297350663559e-01  3.7436147558019434e-01  3.2343016141933834e-01  2.0907415222723330e-01  1.4948558620139318e-01  7.7951904546482681e-02  4.0932024232833798e-02  3.7888245752699334e-02  2.6540307425370609e-02  1.7273511226329127e-02  2.5047115599206079e-03  3.0456956649133936e-03  2.6739970477388845e-03  2.1765119171144737e-03  1.6956085179911599e-03  1.2684346569184555e-03  9.1998343036703062e-04  8.6253729633163688e-04  1.5344782173859288e-03  1.0346146820050107e-03  6.6630768097815211e-04  1.7109242217259660e-04  8.4316401086700240e-05  3.0772120673591009e-05  2.3754623472154901e-06  1.2557828104481503e-06  9.4581522876651737e-07  6.9940880637808469e-07  5.0808791355415801e-07  3.6286080140114252e-07  2.1247486211931524e-07  1.4703956453106584e-07  1.0035355789213346e-07  6.7718590950696010e-08  4.5429968499881073e-08  3.0699438771431395e-08  1.7937863149936072e-08  1.3827672336508243e-08  5.1668769902863946e-09  9.9996667038499931e-01  9.9991517317585032e-01  9.9988882341533158e-01  9.9983808356711956e-01  9.9970368964190703e-01  9.9937103281732886e-01  9.9876378878690131e-01  9.9076435450722977e-01  9.7363876715582176e-01  9.2188079894853736e-01  8.6532287084230397e-01  8.4244438521569243e-01  7.3754362017476305e-01  6.9211621433708548e-01  6.7801318686617373e-01  6.9535074146835596e-01  7.4236850309971869e-01  7.9133537490876737e-01  8.3882321623917366e-01  8.7735316946305730e-01  9.0563070691383807e-01  9.2718431428095216e-01  9.4370125327407361e-01  9.6324641790034593e-01  9.7918926289891695e-01  9.2991678462202676e-01  8.5980499519672249e-01  7.9825034801314154e-01  6.7723475585898252e-01  5.4630249126765829e-01  4.5209179344313083e-01  4.2567717210105199e-01  4.5481907180421038e-01  5.2131210390640492e-01  5.9687897359863840e-01  6.4881555037825944e-01  6.9660066128576004e-01  7.4358698193604300e-01  7.7124917651966240e-01  7.7105087358270463e-01  8.0073507857092230e-01  8.1136083238604073e-01  8.1211734930630874e-01  7.6258784538133328e-01  7.9763462511744498e-01  8.0022825716636925e-01  7.9184929777907809e-01  7.4192573367671655e-01  7.4040390938465517e-01  7.4026179488194332e-01  7.4045612721209375e-01  7.4140450421521797e-01  7.4381283821956523e-01  7.4833891369541228e-01  7.5527083564557163e-01  7.6428127319271133e-01  7.7436936660330646e-01  7.8407457424740035e-01  7.9184965019814968e-01  7.9636737392982671e-01  7.9675202124101197e-01  7.9279402479915650e-01  7.8509726582480543e-01  8.1432059937177237e-01  8.0564252271162473e-01  7.9239028609267936e-01  7.7804298050954168e-01  7.6451852936321962e-01  7.5105368694676811e-01  7.3692335281961463e-01  7.2164822571307596e-01  7.0506151768101977e-01  6.8737925722489546e-01  6.7714404921674021e-01  6.6614491777389406e-01  6.5316166541875798e-01  6.4330295824181516e-01  6.2177614618391475e-01  6.1742783906340970e-01  6.1157370088925622e-01  6.0683557854436099e-01  6.0821098644293259e-01  6.1860592689781402e-01  6.3175377044498915e-01  6.3913449736156891e-01  6.5478295819127197e-01  6.6118767362078068e-01  6.6568061547294599e-01  6.5123289395700157e-01  6.1706612120786086e-01  6.1226956706254099e-01  5.6646485997884444e-01  4.9293973911560252e-01  4.2620343817711415e-01  5.8304252577741800e-01  3.9518792833019256e-01  6.4780677221699978e-01  8.4820960303871218e-01  8.9982576085233901e-01  9.2933870117558393e-01  9.5029899465312317e-01  9.4666092087294607e-01  8.6380335620269666e-01  7.8639210800388049e-01  6.6668112074028185e-01  6.0846321798747338e-01  5.8070924956137804e-01  5.7410160133698707e-01  5.9436451361555476e-01  6.1821101260939593e-01  6.5598545274485698e-01  6.7476704858127823e-01  6.9169521593366445e-01  7.0016624714423581e-01  7.1013176200601413e-01  6.9907868909507120e-01  7.4972867698961509e-01  8.2934819331392229e-01  7.8547180680125950e-01  7.1864699948114807e-01  6.5419319013142530e-01  5.0431342295224768e-01  2.6474208380876568e-01  2.9050972861825164e-01  3.6690414996765913e-01  4.4160958444400306e-01  4.8356002402323295e-01  5.0518245477141077e-01  5.0298109658158408e-01  5.0268380887418407e-01  4.9727566761237740e-01  4.8661827549103165e-01  4.7953406567223017e-01  4.7209118172520376e-01  4.6815260524016372e-01  4.6692544205453840e-01  4.6694826478290336e-01  4.7402249745002689e-01  4.7725613229573355e-01  4.7477128638088872e-01  4.8222922967834780e-01  4.9143408480326095e-01  4.8910812747518989e-01  4.9806536135851903e-01  5.0502810328337899e-01  4.9646557072711744e-01  4.9840103138490904e-01  4.9469304972803119e-01  4.8617196129531531e-01  4.7501593634678235e-01  4.7076963225029794e-01  4.4423435284818352e-01  4.4207229308275220e-01  4.3188095819446420e-01  4.2800840898018894e-01  4.4102466066238843e-01  4.4394080509300798e-01  4.5146301930325139e-01  4.5424459104965315e-01  4.7253632452354594e-01  4.8601155415222241e-01  4.9548222139536291e-01  5.0122537278191481e-01  5.0769339576016714e-01  5.1297777137038769e-01  5.2066082553446302e-01  5.1377574444196938e-01  5.2605635394182226e-01  5.3074784318136536e-01  5.5902904069200710e-01  4.7675855086853097e-01  5.0237992525958919e-01  5.2646111919250616e-01  5.5340969549993857e-01  5.5978477870785703e-01  5.5709001150589144e-01  5.6461140597868620e-01  5.5659806287248903e-01  5.4743614288510400e-01  5.6085985576446651e-01  5.5011765628528453e-01  5.6008565365122776e-01  5.4765928618701931e-01  5.3142482333563479e-01  5.2740689598004076e-01  5.4373965712877159e-01  5.2295710122847250e-01  5.1075777065460282e-01  5.0276243021414102e-01  5.1387675151953194e-01  5.0284352997997206e-01  4.8453907919422712e-01  4.7079988870469835e-01  4.4201088545669659e-01  4.1959926715968660e-01  3.8935526535036491e-01  3.4994306470421060e-01  3.1225497795894630e-01  1.5316733052247133e-01  6.2170456995774885e-02  4.5771307038948286e-02  3.1720386286896995e-02  1.3190250757120761e-02  4.6468759679180469e-03  3.8540875124589030e-03  3.0470676589906438e-03  2.3007414615747500e-03  1.6855871053911371e-03  1.5957792119601841e-03  2.8925905208656288e-03  1.9966756926722124e-03  1.3304906182644062e-03  8.4626853791616502e-04  1.9939073294331119e-04  9.3101301375611196e-05  2.9291679662898578e-05  3.2776113743532404e-06  1.7142157522978104e-06  1.2757763516038242e-06  9.3145251313673971e-07  6.6772060123197899e-07  3.9200302194139328e-07  2.7165131371199893e-07  1.8535740050460416e-07  1.2470228002158204e-07  8.2911655777043463e-08  5.4768043398542635e-08  3.0335272006279340e-08  2.0910651714165237e-08  1.3235798728221496e-08  5.8142072523514816e-09  9.9996146030154509e-01  9.9988150673448417e-01  9.9986513707944213e-01  9.9987291746042295e-01  9.9980784485350704e-01  9.9944326999100130e-01  9.9851280629478822e-01  9.8559980242648271e-01  9.6027751899121594e-01  8.5568001798713289e-01  7.3227282529417581e-01  5.3875522276966914e-01  3.8917321769382002e-01  3.0193519215664816e-01  2.8139710405894353e-01  3.1708718492112359e-01  3.9388843298022885e-01  4.8689833075981065e-01  5.8334688282497371e-01  6.4624241062889587e-01  6.9589617793385339e-01  7.3234466810500609e-01  7.6284029783802676e-01  7.9125232348752050e-01  8.0571435738132791e-01  8.1187278984142897e-01  7.7620135222038089e-01  7.0515391750569911e-01  6.0497451712138683e-01  4.3001250540232661e-01  2.6900213313819105e-01  1.0402146690994545e-01  5.1490076653938392e-02  5.0376278405586936e-02  8.3512681669567698e-02  1.1464647985028661e-01  1.3126024109040085e-01  1.3476138746681568e-01  1.2556170780749787e-01  1.0967210477800010e-01  9.0784186213777776e-02  7.2707237035058506e-02  5.7926891512340331e-02  4.7558324431745784e-02  3.8688895480162258e-02  1.1255292736711123e-01  1.1573371428631446e-01  1.2553790059970088e-01  1.3660500134202658e-01  1.0788428467007390e-01  1.2533306356076165e-01  1.3437215449119977e-01  1.3731388355909313e-01  1.3623330410011947e-01  1.3338986710347647e-01  1.0898824608716277e-01  9.1048478911948436e-02  7.3969572304815129e-02  5.9512420426896695e-02  4.7341894431372017e-02  4.0380208263258791e-02  3.7370076614442541e-02  3.8271074269624658e-02  4.3411263380833315e-02  6.9147898008269454e-02  7.5617521048612704e-02  8.5243230299486078e-02  9.9464085893381349e-02  1.1582209489062380e-01  1.3302503997744547e-01  1.4968450546191939e-01  1.6240454495116291e-01  1.7457278142937430e-01  1.8551995520823505e-01  1.9571714047707120e-01  2.0523401897231433e-01  2.6199262972873855e-01  2.4946051328355709e-01  2.6502802796873959e-01  2.6010715526857558e-01  2.4285592138288017e-01  2.3700027427597037e-01  2.2275324790932896e-01  2.1140340989580125e-01  1.9926424634433257e-01  2.0668857801720328e-01  1.9712399889336191e-01  2.4139699402143946e-01  1.7668258085742011e-01  1.4540810280200231e-01  1.0598799434336266e-01  5.4590765329505152e-02  0.0000000000000000e+00  0.0000000000000000e+00  0.0000000000000000e+00  1.5037905948384289e-01  2.5721671890962494e-01  5.0235255322325600e-01  5.6615639334799006e-01  5.3643140718368287e-01  5.4086631935534391e-01  5.1026549400783561e-01  4.0123205701470865e-01  2.5632666876152238e-01  1.6911402296867950e-01  1.0865971388683847e-01  6.7002916317198194e-02  3.6426496854052165e-02  3.8007435875604165e-02  8.3774365074632665e-02  1.2735263867767246e-01  1.7572239028507514e-01  2.5281952428361254e-01  2.9521156530267417e-01  3.3733333366557600e-01  3.8572700373680835e-01  5.2930290235013133e-01  5.6689085092741265e-01  5.3654971197096857e-01  4.5578345949319349e-01  3.7027941879029119e-01  3.1789045545980421e-01  1.3234282805304248e-01  0.0000000000000000e+00  0.0000000000000000e+00  0.0000000000000000e+00  2.4201672309316167e-02  6.4689420817851465e-02  6.8851698743849846e-02  7.0621797056033178e-02  6.7139552883775364e-02  6.2974743579362447e-02  6.0636538564684421e-02  5.5282699801924864e-02  5.3710631824991410e-02  5.3519840048087311e-02  5.0525318981226357e-0