<?xml version="1.0"?>
<VTKFile type="UnstructuredGrid"  version="0.1"  >
<UnstructuredGrid>
<Piece  NumberOfPoints="7161" NumberOfCells="13800">
<Points>
<DataArray  type="Float64"  NumberOfComponents="3"  format="ascii">0 0 0  0.01652173913043478 0 0  0.03304347826086956 0 0  0.04956521739130434 0 0  0.06608695652173913 0 0  0.08260869565217391 0 0  0.09913043478260869 0 0  0.1156521739130435 0 0  0.1321739130434783 0 0  0.148695652173913 0 0  0.1652173913043478 0 0  0.1817391304347826 0 0  0.1982608695652174 0 0  0.2147826086956522 0 0  0.2313043478260869 0 0  0.2478260869565218 0 0  0.2643478260869565 0 0  0.2808695652173913 0 0  0.2973913043478261 0 0  0.3139130434782609 0 0  0.3304347826086956 0 0  0.3469565217391304 0 0  0.3634782608695652 0 0  0.3799999999999999 0 0  0.3965217391304348 0 0  0.4130434782608696 0 0  0.4295652173913043 0 0  0.4460869565217391 0 0  0.4626086956521739 0 0  0.4791304347826086 0 0  0.4956521739130435 0 0  0.5121739130434783 0 0  0.528695652173913 0 0  0.5452173913043478 0 0  0.5617391304347825 0 0  0.5782608695652174 0 0  0.5947826086956521 0 0  0.6113043478260869 0 0  0.6278260869565218 0 0  0.6443478260869565 0 0  0.6608695652173913 0 0  0.677391304347826 0 0  0.6939130434782609 0 0  0.7104347826086956 0 0  0.7269565217391304 0 0  0.7434782608695653 0 0  0.7599999999999999 0 0  0.7765217391304348 0 0  0.7930434782608695 0 0  0.8095652173913043 0 0  0.8260869565217391 0 0  0.8426086956521739 0 0  0.8591304347826086 0 0  0.8756521739130434 0 0  0.8921739130434783 0 0  0.908695652173913 0 0  0.9252173913043478 0 0  0.9417391304347826 0 0  0.9582608695652173 0 0  0.9747826086956521 0 0  0.991304347826087 0 0  1.007826086956522 0 0  1.024347826086957 0 0  1.040869565217391 0 0  1.057391304347826 0 0  1.073913043478261 0 0  1.090434782608696 0 0  1.10695652173913 0 0  1.123478260869565 0 0  1.14 0 0  1.156521739130435 0 0  1.17304347826087 0 0  1.189565217391304 0 0  1.206086956521739 0 0  1.222608695652174 0 0  1.239130434782609 0 0  1.255652173913044 0 0  1.272173913043478 0 0  1.288695652173913 0 0  1.305217391304348 0 0  1.321739130434783 0 0  1.338260869565217 0 0  1.354782608695652 0 0  1.371304347826087 0 0  1.387826086956522 0 0  1.404347826086957 0 0  1.420869565217391 0 0  1.437391304347826 0 0  1.453913043478261 0 0  1.470434782608696 0 0  1.486956521739131 0 0  1.503478260869565 0 0  1.52 0 0  1.536521739130435 0 0  1.55304347826087 0 0  1.569565217391304 0 0  1.586086956521739 0 0  1.602608695652174 0 0  1.619130434782609 0 0  1.635652173913043 0 0  1.652173913043478 0 0  1.668695652173913 0 0  1.685217391304348 0 0  1.701739130434782 0 0  1.718260869565217 0 0  1.734782608695652 0 0  1.751304347826087 0 0  1.767826086956522 0 0  1.784347826086957 0 0  1.800869565217391 0 0  1.817391304347826 0 0  1.833913043478261 0 0  1.850434782608696 0 0  1.86695652173913 0 0  1.883478260869565 0 0  1.9 0 0  1.916521739130435 0 0  1.933043478260869 0 0  1.949565217391304 0 0  1.966086956521739 0 0  1.982608695652174 0 0  1.999130434782608 0 0  2.015652173913043 0 0  2.032173913043478 0 0  2.048695652173913 0 0  2.065217391304348 0 0  2.081739130434782 0 0  2.098260869565217 0 0  2.114782608695652 0 0  2.131304347826087 0 0  2.147826086956522 0 0  2.164347826086956 0 0  2.180869565217391 0 0  2.197391304347826 0 0  2.213913043478261 0 0  2.230434782608695 0 0  2.24695652173913 0 0  2.263478260869565 0 0  2.28 0 0  2.296521739130434 0 0  2.31304347826087 0 0  2.329565217391304 0 0  2.346086956521739 0 0  2.362608695652174 0 0  2.379130434782609 0 0  2.395652173913044 0 0  2.412173913043478 0 0  2.428695652173913 0 0  2.445217391304348 0 0  2.461739130434782 0 0  2.478260869565217 0 0  2.494782608695652 0 0  2.511304347826087 0 0  2.527826086956522 0 0  2.544347826086956 0 0  2.560869565217391 0 0  2.577391304347826 0 0  2.593913043478261 0 0  2.610434782608696 0 0  2.62695652173913 0 0  2.643478260869565 0 0  2.66 0 0  2.676521739130435 0 0  2.693043478260869 0 0  2.709565217391304 0 0  2.726086956521739 0 0  2.742608695652174 0 0  2.759130434782609 0 0  2.775652173913044 0 0  2.792173913043478 0 0  2.808695652173913 0 0  2.825217391304347 0 0  2.841739130434783 0 0  2.858260869565217 0 0  2.874782608695652 0 0  2.891304347826087 0 0  2.907826086956522 0 0  2.924347826086957 0 0  2.940869565217391 0 0  2.957391304347826 0 0  2.973913043478261 0 0  2.990434782608696 0 0  3.006956521739131 0 0  3.023478260869565 0 0  3.04 0 0  3.056521739130435 0 0  3.073043478260869 0 0  3.089565217391304 0 0  3.106086956521739 0 0  3.122608695652174 0 0  3.139130434782609 0 0  3.155652173913043 0 0  3.172173913043478 0 0  3.188695652173913 0 0  3.205217391304347 0 0  3.221739130434782 0 0  3.238260869565217 0 0  3.254782608695652 0 0  3.271304347826087 0 0  3.287826086956521 0 0  3.304347826086957 0 0  3.320869565217391 0 0  3.337391304347826 0 0  3.353913043478261 0 0  3.370434782608696 0 0  3.386956521739131 0 0  3.403478260869565 0 0  3.419999999999999 0 0  3.436521739130435 0 0  3.453043478260869 0 0  3.469565217391304 0 0  3.486086956521739 0 0  3.502608695652174 0 0  3.519130434782609 0 0  3.535652173913043 0 0  3.552173913043478 0 0  3.568695652173913 0 0  3.585217391304347 0 0  3.601739130434782 0 0  3.618260869565217 0 0  3.634782608695652 0 0  3.651304347826087 0 0  3.667826086956521 0 0  3.684347826086956 0 0  3.700869565217391 0 0  3.717391304347826 0 0  3.733913043478261 0 0  3.750434782608695 0 0  3.766956521739131 0 0  3.783478260869565 0 0  3.8 0 0  0 0.01666666666666667 0  0.01652173913043478 0.01666666666666667 0  0.03304347826086956 0.01666666666666667 0  0.04956521739130434 0.01666666666666667 0  0.06608695652173913 0.01666666666666667 0  0.08260869565217391 0.01666666666666667 0  0.09913043478260869 0.01666666666666667 0  0.1156521739130435 0.01666666666666667 0  0.1321739130434783 0.01666666666666667 0  0.148695652173913 0.01666666666666667 0  0.1652173913043478 0.01666666666666667 0  0.1817391304347826 0.01666666666666667 0  0.1982608695652174 0.01666666666666667 0  0.2147826086956522 0.01666666666666667 0  0.2313043478260869 0.01666666666666667 0  0.2478260869565218 0.01666666666666667 0  0.2643478260869565 0.01666666666666667 0  0.2808695652173913 0.01666666666666667 0  0.2973913043478261 0.01666666666666667 0  0.3139130434782609 0.01666666666666667 0  0.3304347826086956 0.01666666666666667 0  0.3469565217391304 0.01666666666666667 0  0.3634782608695652 0.01666666666666667 0  0.3799999999999999 0.01666666666666667 0  0.3965217391304348 0.01666666666666667 0  0.4130434782608696 0.01666666666666667 0  0.4295652173913043 0.01666666666666667 0  0.4460869565217391 0.01666666666666667 0  0.4626086956521739 0.01666666666666667 0  0.4791304347826086 0.01666666666666667 0  0.4956521739130435 0.01666666666666667 0  0.5121739130434783 0.01666666666666667 0  0.528695652173913 0.01666666666666667 0  0.5452173913043478 0.01666666666666667 0  0.5617391304347825 0.01666666666666667 0  0.5782608695652174 0.01666666666666667 0  0.5947826086956521 0.01666666666666667 0  0.6113043478260869 0.01666666666666667 0  0.6278260869565218 0.01666666666666667 0  0.6443478260869565 0.01666666666666667 0  0.6608695652173913 0.01666666666666667 0  0.677391304347826 0.01666666666666667 0  0.6939130434782609 0.01666666666666667 0  0.7104347826086956 0.01666666666666667 0  0.7269565217391304 0.01666666666666667 0  0.7434782608695653 0.01666666666666667 0  0.7599999999999999 0.01666666666666667 0  0.7765217391304348 0.01666666666666667 0  0.7930434782608695 0.01666666666666667 0  0.8095652173913043 0.01666666666666667 0  0.8260869565217391 0.01666666666666667 0  0.8426086956521739 0.01666666666666667 0  0.8591304347826086 0.01666666666666667 0  0.8756521739130434 0.01666666666666667 0  0.8921739130434783 0.01666666666666667 0  0.908695652173913 0.01666666666666667 0  0.9252173913043478 0.01666666666666667 0  0.9417391304347826 0.01666666666666667 0  0.9582608695652173 0.01666666666666667 0  0.9747826086956521 0.01666666666666667 0  0.991304347826087 0.01666666666666667 0  1.007826086956522 0.01666666666666667 0  1.024347826086957 0.01666666666666667 0  1.040869565217391 0.01666666666666667 0  1.057391304347826 0.01666666666666667 0  1.073913043478261 0.01666666666666667 0  1.090434782608696 0.01666666666666667 0  1.10695652173913 0.01666666666666667 0  1.123478260869565 0.01666666666666667 0  1.14 0.01666666666666667 0  1.156521739130435 0.01666666666666667 0  1.17304347826087 0.01666666666666667 0  1.189565217391304 0.01666666666666667 0  1.206086956521739 0.01666666666666667 0  1.222608695652174 0.01666666666666667 0  1.239130434782609 0.01666666666666667 0  1.255652173913044 0.01666666666666667 0  1.272173913043478 0.01666666666666667 0  1.288695652173913 0.01666666666666667 0  1.305217391304348 0.01666666666666667 0  1.321739130434783 0.01666666666666667 0  1.338260869565217 0.01666666666666667 0  1.354782608695652 0.01666666666666667 0  1.371304347826087 0.01666666666666667 0  1.387826086956522 0.01666666666666667 0  1.404347826086957 0.01666666666666667 0  1.420869565217391 0.01666666666666667 0  1.437391304347826 0.01666666666666667 0  1.453913043478261 0.01666666666666667 0  1.470434782608696 0.01666666666666667 0  1.486956521739131 0.01666666666666667 0  1.503478260869565 0.01666666666666667 0  1.52 0.01666666666666667 0  1.536521739130435 0.01666666666666667 0  1.55304347826087 0.01666666666666667 0  1.569565217391304 0.01666666666666667 0  1.586086956521739 0.01666666666666667 0  1.602608695652174 0.01666666666666667 0  1.619130434782609 0.01666666666666667 0  1.635652173913043 0.01666666666666667 0  1.652173913043478 0.01666666666666667 0  1.668695652173913 0.01666666666666667 0  1.685217391304348 0.01666666666666667 0  1.701739130434782 0.01666666666666667 0  1.718260869565217 0.01666666666666667 0  1.734782608695652 0.01666666666666667 0  1.751304347826087 0.01666666666666667 0  1.767826086956522 0.01666666666666667 0  1.784347826086957 0.01666666666666667 0  1.800869565217391 0.0166666666666666
[...]
<PointData  Scalars="rho"> 
<DataArray  type="Float64"  Name="rho"  format="ascii">9.9902085612175640e-01  9.9848423375718609e-01  9.9703396090010132e-01  9.9872555883919845e-01  1.0000000000000000e+00  1.0000000000000000e+00  1.0000000000000000e+00  1.0000000000000000e+00  9.9659209549813377e-01  9.7424486732406224e-01  9.5304363110694723e-01  9.3404017328041011e-01  9.2108061305710420e-01  9.1684899608723436e-01  9.2130130466647941e-01  9.3724452848192363e-01  9.4560559834563451e-01  9.5935973592929180e-01  9.7146601278459177e-01  9.8096982981252645e-01  9.8798957522871311e-01  9.9393368116128589e-01  9.9792775261788014e-01  9.9071806926229911e-01  9.7599798439354479e-01  9.0867857792330453e-01  8.5486171197629701e-01  7.6213078381772226e-01  7.1675409904124265e-01  7.0848204303036599e-01  7.3086825707257830e-01  7.8436145719956218e-01  8.3708316981076059e-01  9.3913507034437993e-01  9.9952173669861544e-01  1.0000000000000000e+00  1.0000000000000000e+00  1.0000000000000000e+00  1.0000000000000000e+00  9.9656328811390305e-01  9.9223511703827449e-01  9.9589904902077142e-01  9.9430806088616153e-01  9.8733163120183109e-01  9.8733182504856132e-01  9.8778058783305267e-01  9.8858684207898717e-01  9.8949690156772507e-01  9.9015582679802994e-01  9.9029471385484003e-01  9.8986439639673929e-01  9.8907479964290523e-01  9.8839125304415232e-01  9.8807525344349056e-01  9.8851691184387358e-01  9.8977984836968180e-01  9.9160398076805178e-01  9.9332020544655897e-01  9.9477629200649798e-01  9.9540678196130050e-01  9.9494878780213603e-01  9.9336110010365497e-01  9.9091660351077204e-01  9.8837432543745329e-01  9.8602695027842813e-01  9.8443260069003080e-01  9.8364507113676369e-01  9.8351551188726705e-01  9.8381259960536860e-01  9.8430834536486411e-01  9.8482689754617747e-01  9.8507598084066350e-01  9.8547031635561855e-01  9.8907820801036561e-01  9.8980324965615873e-01  9.8671747566191392e-01  9.6941745941884094e-01  9.4980789282390543e-01  9.3519091960789691e-01  9.3476768422073542e-01  9.2383451178711617e-01  9.5213043845264889e-01  9.7844661932576094e-01  9.9263482403405412e-01  9.9514039697359236e-01  1.0000000000000000e+00  1.0000000000000000e+00  1.0000000000000000e+00  1.0000000000000000e+00  1.0000000000000000e+00  1.0000000000000000e+00  9.5384642112005347e-01  9.3371980792442810e-01  8.7093521945119567e-01  8.3399877041039772e-01  8.4559918592245364e-01  9.0259758812033342e-01  9.4152386243617237e-01  9.8371871893332008e-01  9.9210603605221737e-01  9.9393067054961493e-01  9.7296096495410389e-01  9.5607357906268808e-01  9.3688513024365661e-01  9.2170200754772103e-01  9.1680502607917536e-01  9.2683698752195920e-01  9.5139217290785061e-01  9.8355228953676288e-01  1.0000000000000000e+00  1.0000000000000000e+00  1.0000000000000000e+00  1.0000000000000000e+00  9.8739477816558774e-01  9.6722207533513527e-01  9.2949010633179419e-01  9.3647028760268225e-01  9.4729997940733501e-01  8.8550944124294495e-01  8.4330178672242451e-01  7.3217985614071246e-01  6.9504818129739177e-01  7.1296894322286497e-01  7.6754689010734467e-01  8.1302792467733187e-01  8.4369634222091849e-01  8.8713497551133291e-01  9.1273872013468027e-01  9.1654883036013823e-01  9.7959804777752779e-01  9.7033034618069480e-01  9.5043371242967034e-01  9.3608578207808568e-01  9.2067818980341709e-01  9.1471523263350574e-01  9.1110484362710165e-01  9.0914765839632761e-01  9.0856974634032717e-01  9.0944974995033068e-01  9.1268658245725265e-01  9.1677905206140164e-01  9.2085643094224690e-01  9.2058800193896917e-01  8.8473474945604713e-01  8.3317454283164849e-01  8.7870077006599456e-01  8.5820986126650312e-01  8.3736066077239568e-01  8.2458720321563328e-01  8.1734120370436414e-01  8.1238285087420570e-01  8.0029980148575441e-01  8.0146258369966106e-01  8.1237494725983284e-01  8.1717968248578043e-01  8.2407014776872589e-01  8.4040995489751802e-01  8.5587591547016872e-01  8.8741281799189697e-01  8.4992593402652883e-01  8.8299312392513218e-01  9.0496349314036362e-01  9.1187352571666724e-01  9.1147780493763242e-01  9.0446806018241543e-01  9.0177576740419174e-01  8.9084132628068013e-01  8.9426219507726135e-01  9.8358590007127245e-01  8.9987187457401541e-01  9.2568788542787228e-01  9.5179265993774276e-01  7.7608577495653785e-01  7.7896884230288266e-01  7.7139061944880005e-01  7.8526268746818528e-01  7.5001632349433145e-01  9.0737173858211206e-01  8.7343865112743446e-01  8.1714551370632305e-01  7.9694178149438832e-01  8.0215617675653372e-01  8.4702160132465698e-01  7.5333863463885187e-01  7.2954580512303080e-01  7.0347977343251311e-01  5.6428387627897247e-01  5.4128096337794751e-01  5.1583171312116771e-01  4.8198480137374966e-01  4.3617863594769618e-01  3.8934189973446620e-01  3.5541643008310653e-01  2.8742339131432176e-01  1.8798708545580120e-01  1.2664498098293059e-01  1.2366269430592799e-01  6.4927888356382885e-02  2.4065047228820018e-02  1.8744677652446719e-02  1.6028348996677995e-02  4.8192240360494703e-03  2.3846589765145363e-03  2.4728141759186840e-03  2.0306470754343680e-03  1.5685361308097662e-03  1.1572092701894422e-03  8.1601484754192932e-04  5.5271082253411307e-04  4.8550014516494109e-04  7.1516635951890482e-04  4.6046341811907738e-04  2.7991857983870454e-04  5.8163380106962472e-05  4.2256400511773543e-05  2.8341255702710564e-05  2.2678499851671080e-05  1.4933518439499763e-05  1.1618469729734313e-05  8.9070769967917054e-06  6.7281902253568955e-06  7.1997351520762384e-06  5.2855367741123007e-06  3.8303897986908183e-06  9.4231917851078296e-07  6.7072661601716362e-07  4.7761918057385296e-07  3.4565915834084389e-07  2.6212082105896120e-07  2.1881409083033155e-07  6.9262471295726442e-08  9.9702693320586511e-01  9.9285730482669055e-01  9.8933680538988822e-01  9.9328141547147708e-01  9.9774150189691369e-01  1.0000000000000000e+00  1.0000000000000000e+00  1.0000000000000000e+00  9.9496949407490121e-01  9.5295815711267728e-01  9.1260731616897983e-01  8.7499384411231207e-01  8.4803190652932470e-01  8.3777530691960933e-01  8.4480560943237082e-01  8.7587445625496341e-01  9.1823107245970403e-01  9.3439329255383174e-01  9.5252578868520588e-01  9.6790812796906522e-01  9.7782101747437145e-01  9.8319390690657515e-01  9.8667616172229400e-01  9.8516157207824506e-01  9.8051188852762949e-01  9.6361338761688531e-01  9.2017659397225338e-01  8.5176106549306851e-01  7.4621690312201594e-01  7.0594244250492322e-01  6.9710900282061261e-01  7.4272830618105556e-01  8.1895964644976793e-01  8.3785553532921364e-01  9.1640733299308663e-01  9.5648276716230984e-01  9.0257750292179439e-01  9.8158635097932290e-01  9.8838821765967932e-01  9.8402719167827390e-01  9.7816846499408583e-01  9.7283960612906395e-01  9.6855418569391760e-01  9.6490708050258189e-01  9.6163275803917603e-01  9.5926299693860906e-01  9.5842973237999951e-01  9.5898005451840207e-01  9.6004867635143931e-01  9.5460502837280181e-01  9.5453645644367224e-01  9.5441761805235747e-01  9.5528573843464470e-01  9.5768456147601433e-01  9.6235412291485345e-01  9.6918636841835604e-01  9.5487336099590525e-01  9.5747585300001670e-01  9.5952281442548415e-01  9.6033706712280031e-01  9.5946285736893600e-01  9.5676812270172462e-01  9.5257177938237525e-01  9.6619555908095556e-01  9.5467992897683107e-01  9.4494822643455656e-01  9.3784015877421534e-01  9.3343130212133751e-01  9.3133179392317522e-01  9.3099065248278545e-01  9.3194486728297876e-01  9.3401682866752633e-01  9.3746346615181364e-01  9.4265154891762559e-01  9.5141431515161057e-01  9.4971645999697807e-01  9.5172410724226830e-01  9.4977342181423363e-01  9.4724592894146131e-01  9.5093262377098908e-01  9.4074044207142293e-01  9.5182175258271551e-01  9.5071095231098712e-01  9.5091671919474108e-01  9.5394345791098867e-01  9.6097579528616905e-01  9.7420188020590626e-01  9.8971923693072539e-01  1.0000000000000000e+00  9.8958733018055534e-01  9.6076070234617750e-01  9.1220855642707621e-01  8.3783859605535049e-01  7.5636435178600470e-01  6.9302809391219500e-01  7.2624121548637821e-01  8.2158738544068599e-01  8.9186896600468801e-01  9.7124215792612822e-01  9.8743833569693007e-01  9.9116752470367697e-01  9.6094382773443532e-01  9.3081945800112120e-01  8.9367097429973574e-01  8.6186834838923387e-01  8.4594260966629387e-01  8.5459739177756311e-01  8.8906463541337100e-01  9.4609620164233155e-01  9.7910687353359038e-01  9.9674887050910987e-01  9.9785591282856834e-01  9.8901280795124014e-01  9.8727468038946953e-01  9.8099962801713414e-01  9.4803679934070184e-01  9.7963046904572615e-01  1.0000000000000000e+00  9.9530199398036678e-01  9.4222278525960113e-01  8.3855289880572126e-01  6.5215648263920423e-01  6.1287936975372026e-01  6.8729220205722608e-01  7.8205723765128221e-01  8.1635178901478833e-01  8.4934120395317048e-01  9.0490885730901094e-01  9.0580952838738737e-01  8.9630281025359215e-01  9.2138910724971756e-01  9.0159472063747004e-01  8.8867692479180405e-01  8.9267755081444611e-01  8.8560939320072374e-01  8.8221269417656589e-01  8.8070091113990245e-01  8.8079078161817337e-01  8.8286731111560601e-01  8.8860136053423611e-01  8.9575182305951051e-01  8.5698747409943687e-01  8.6161666392532632e-01  8.1177515402291656e-01  7.7668216633039433e-01  7.8514290259147357e-01  7.9543403262138213e-01  7.7237657001667448e-01  7.5813392317635775e-01  7.4878184659752378e-01  7.4722376299080207e-01  7.2536737632685155e-01  7.2320051746847547e-01  7.4415354451222693e-01  7.7108615764987265e-01  8.1563925867959319e-01  8.3370719577704322e-01  8.4953890226438278e-01  8.7260060766525904e-01  8.4872232786710855e-01  8.6563297570514541e-01  8.7870471551149865e-01  8.8709177478286860e-01  8.9163144898765390e-01  8.8140743376203634e-01  8.8168140526855543e-01  8.7294842621560120e-01  8.8152112967395979e-01  9.0331799361911780e-01  8.9476991652006355e-01  9.2617526073745260e-01  7.5589539923565985e-01  7.9406102142876689e-01  8.0120052203862391e-01  7.9790203971490870e-01  7.7887831851382094e-01  7.5895604842791342e-01  7.2617032601558418e-01  7.0509619358161313e-01  6.6793975507421377e-01  6.6084862140552703e-01  6.8681692519039328e-01  7.0654007886306736e-01  6.9327180591495863e-01  6.5789766840013653e-01  6.4287041418777546e-01  6.2100372365785239e-01  6.0210148422051080e-01  5.5720699550270214e-01  5.5017991369702290e-01  5.0834579651638756e-01  4.5379177802935800e-01  4.1157733605208113e-01  3.7289694441112653e-01  3.2275286098632577e-01  2.0948795662379535e-01  1.5094916696617944e-01  8.0952273458489266e-02  4.5333022562286392e-02  4.2074387094343683e-02  3.0462363056704481e-02  2.0806644356406105e-02  5.4979342668367804e-03  5.4830982586749673e-03  4.5518279128720371e-03  3.5413678584207417e-03  2.6267482564162987e-03  1.8572923806561643e-03  1.2587063414078148e-03  1.1099568854840603e-03  1.6454921999504422e-03  1.0631034554034189e-03  6.4966721500811790e-04  1.3158053658583250e-04  9.9346698583940661e-05  6.6630198366106558e-05  5.3297576276307898e-05  3.5069480679868934e-05  2.7254881266484985e-05  2.0865053670451012e-05  1.5734418835054518e-05  1.6804587704383298e-05  1.2309796512436587e-05  8.8987687196255914e-06  2.1828824775015779e-06  1.5480321995466283e-06  1.0965197315351060e-06  7.8688459554196732e-07  5.8820244305571783e-07  4.7958784302080872e-07  2.1851097211626665e-07  9.9335819945342341e-01  9.8537934676100403e-01  9.8878827281872061e-01  9.8734666664284487e-01  9.9501618185170682e-01  1.0000000000000000e+00  1.0000000000000000e+00  1.0000000000000000e+00  9.8947927706733541e-01  9.3151374546828114e-01  8.7340703876197212e-01  8.4903932953980799e-01  7.4429150575682224e-01  7.0088724547934000e-01  6.8895316966006770e-01  7.2198960455219774e-01  7.5143176691320668e-01  8.0038318831128663e-01  8.5287275914510297e-01  8.9842714625000464e-01  9.3120044256482182e-01  9.5410134963452420e-01  9.7002283609423767e-01  9.8807786193468516e-01  1.0000000000000000e+00  9.5114563715340128e-01  8.8041779650600471e-01  8.2005462148323593e-01  7.0300881250673752e-01  5.7723498333777479e-01  4.8739961862756270e-01  4.6529891898274672e-01  4.9938830307131737e-01  5.6951657068147588e-01  6.4521803185271920e-01  6.9594106766034292e-01  7.4096645542487505e-01  7.8470485524188716e-01  8.0941554732801380e-01  8.0768876389097932e-01  8.3569982592257175e-01  8.4531678358831330e-01  8.4552018314976896e-01  7.9563488959405637e-01  8.3031669574995659e-01  8.3256538355261944e-01  8.2396538336547953e-01  7.7393223999014060e-01  7.7227616049988679e-01  7.7186996405046282e-01  7.7186303689124047e-01  7.7224593968698874e-01  7.7402565660287259e-01  7.7794074850199713e-01  7.8434606030282117e-01  7.9294679400632340e-01  8.0272572843369983e-01  8.1216057383537466e-01  8.1963572014802988e-01  8.2379912703057490e-01  8.2377744006108511e-01  8.1934537359168569e-01  8.1110067328184554e-01  8.3975565664111662e-01  8.3060331270256993e-01  8.1702690465258099e-01  8.0248045779365418e-01  7.8882583977623333e-01  7.7525159939085531e-01  7.6100349261008637e-01  7.4558698466784312e-01  7.2882524709320506e-01  7.1092850559463472e-01  7.0045004629161078e-01  6.8921807054584827e-01  6.7606555410276470e-01  6.6614041078035613e-01  6.4463910015570736e-01  6.4032489981187213e-01  6.3440494616472454e-01  6.2939725023557969e-01  6.3024082699593864e-01  6.3988676922807197e-01  6.5222332112416959e-01  6.5896071747124063e-01  6.7440785668129566e-01  6.8132522630976244e-01  6.8720457373569965e-01  6.7491081673168785e-01  6.3592742347021702e-01  6.3465248769735227e-01  5.8878510064864631e-01  5.1208104342660599e-01  4.3881113595851845e-01  5.8580491014932834e-01  3.8849292451190065e-01  6.2845953754867045e-01  8.3441892144206209e-01  8.9640702782075099e-01  9.3146663684095077e-01  9.5775473451343440e-01  9.5813403026270705e-01  8.7704235489145821e-01  8.0024024917132830e-01  6.7839516425980684e-01  6.1851529061506350e-01  5.8970048808868503e-01  5.8745159274517911e-01  6.1165754704798903e-01  6.4071067477884158e-01  6.8463396724125669e-01  7.0610513309809009e-01  7.2357119687620286e-01  7.3065106286883308e-01  7.3780028476914561e-01  7.2255013818720393e-01  7.6812428134756983e-01  8.4293557802706098e-01  7.9348020477051828e-01  7.2244667052474409e-01  6.5318695054748033e-01  4.9648405179803734e-01  2.5337982379907426e-01  2.7789328935809182e-01  3.5487734682049599e-01  4.3703336827022776e-01  4.7715172031462871e-01  5.1292848486054965e-01  5.0340249883745536e-01  4.9664397119015508e-01  4.8690876380968895e-01  4.7482819233552398e-01  4.6811112108888092e-01  4.6020521484848881e-01  4.5837388223069908e-01  4.5883530524842614e-01  4.5973631016271538e-01  4.6671750063660644e-01  4.6919424137130006e-01  4.6689300670526696e-01  4.7364640961809917e-01  4.8250861312827470e-01  4.7806868806115665e-01  4.8672614391103808e-01  4.9368190247764088e-01  4.8569371873198830e-01  4.8809359665594987e-01  4.8491340998821569e-01  4.7611016783497118e-01  4.6405092503962891e-01  4.6262313303645863e-01  4.3840128657959054e-01  4.3840656956085433e-01  4.3000277621582378e-01  4.2865902475750384e-01  4.4296647577886467e-01  4.5290113133083809e-01  4.6132310075418903e-01  4.6483604996254668e-01  4.8370634868398193e-01  4.9760648915850009e-01  5.0741234363584709e-01  5.1368922661057026e-01  5.2076949175697995e-01  5.2014059758929410e-01  5.2899430822410420e-01  5.2372379364072497e-01  5.3778270366431125e-01  5.4433310457571016e-01  5.7360839074672298e-01  4.9029668352991418e-01  5.1202310753711799e-01  5.3355184482366258e-01  5.6083259126567142e-01  5.6536611687607830e-01  5.5573879490130518e-01  5.3638804144248176e-01  5.1590680330104766e-01  4.9697619774594631e-01  5.0614501358798880e-01  4.9987827030745841e-01  5.2254400140632007e-01  5.4001974974730638e-01  5.3019608884786951e-01  5.2659133981132700e-01  5.4265562332559714e-01  5.2332152151533462e-01  5.1748412051027814e-01  5.1779943466987199e-01  5.3793671814956001e-01  5.1557273939754589e-01  4.8890016714974271e-01  4.7427601612975739e-01  4.4319497233306826e-01  4.2014546667782743e-01  3.9037172545905946e-01  3.5177083235983142e-01  3.1784508071379924e-01  1.5845431157272177e-01  6.7458001469547987e-02  5.0859795526453574e-02  3.6308157248754400e-02  1.7149206169546235e-02  8.4172653616272786e-03  6.8041412947479436e-03  5.2016539593241901e-03  3.4492518693740909e-03  2.3731913936481954e-03  1.9561570354133945e-03  3.1388083074568997e-03  2.0763974564949198e-03  1.3116439294345572e-03  7.8328656462036870e-04  1.0844218788816929e-04  1.1561690570389375e-04  9.3296822158411456e-05  7.4214918992210826e-05  4.8496120451951803e-05  3.7390028836056955e-05  2.8369631751201125e-05  3.0455450611876757e-05  2.2397505141609747e-05  1.6231688703760322e-05  3.9825321955083667e-06  2.8151682930093257e-06  1.9735896879941516e-06  1.3816343160083769e-06  9.7975790406920630e-07  7.2414990580169684e-07  5.8529324130601000e-07  2.6055351896370971e-07  9.8449392347777820e-01  9.6789569240597229e-01  9.7393564929878185e-01  9.8440196678950864e-01  9.9597293728749292e-01  9.9925185884363932e-01  1.0000000000000000e+00  9.9738100558111187e-01  9.8009982428683595e-01  8.6738393138562997e-01  7.4146852467306046e-01  5.4504967401746407e-01  3.9456808431234824e-01  3.0903958326464653e-01  2.9086800693397186e-01  3.4302783515072055e-01  4.0059059288662580e-01  4.9092833323275903e-01  5.9235129256416363e-01  6.6671523929244147e-01  7.2500098618687114e-01  7.6490787987747921e-01  7.9578809284722707e-01  8.2294509051077513e-01  8.3502769872747351e-01  8.3880567145040763e-01  8.0167254592443915e-01  7.3123390772474894e-01  6.3572305118028205e-01  4.6719088897216948e-01  3.0911037994233498e-01  1.4344753854187386e-01  9.1108124772604895e-02  9.1455598111818609e-02  1.2556413934405972e-01  1.5576140714699679e-01  1.7107354043061676e-01  1.7250063347634587e-01  1.6178146161277779e-01  1.4379774235287002e-01  1.2333944053185818e-01  1.0441094456524284e-01  8.8956064310334551e-02  7.8150301993248586e-02  6.8960860221931361e-02  1.4257474955931759e-01  1.4554941171932259e-01  1.5517681500920882e-01  1.6604180621683767e-01  1.3703482962624886e-01  1.5409944017479513e-01  1.6266113974877225e-01  1.6506473224313040e-01  1.6343778942626808e-01  1.6008911189885749e-01  1.3525361482106471e-01  1.1695638187732077e-01  9.9562803629984042e-02  8.4778579740623375e-02  7.2235106897270182e-02  6.4863259272552556e-02  6.1409119277020800e-02  6.1837064417481907e-02  6.6506812226956480e-02  9.1829445657061040e-02  9.7976513115948904e-02  1.0737239383303665e-01  1.2143030765180905e-01  1.3765789939383782e-01  1.5473414583558120e-01  1.7125130812183895e-01  1.8380264828720302e-01  1.9577430029195514e-01  2.0650847938186859e-01  2.1650477245973226e-01  2.2587011016771091e-01  2.8254571992878169e-01  2.6997443209208577e-01  2.8549637484605012e-01  2.8044568163905759e-01  2.6290856990770128e-01  2.5657753347688861e-01  2.4169479989463810e-01  2.2965718954687203e-01  2.1695169428516806e-01  2.2413873777559790e-01  2.1485214911185951e-01  2.5998945798697320e-01  1.9655315548935340e-01  1.6210971931161142e-01  1.2342029126450912e-01  7.1085968430334795e-02  1.3832246146816515e-02  8.0456338760228011e-03  1.2420804235872770e-03  1.2887219534396493e-01  2.3198640861602823e-01  4.7601845171914720e-01  5.5850650804296298e-01  5.3746895515098447e-01  5.5126741802728030e-01  5.2364684385953975e-01  4.1652212292787505e-01  2.7149268948754290e-01  1.8215118665046967e-01  1.1889472348261064e-01  7.6695304876950948e-02  4.6704310900256785e-02  5.3186278737816346e-02  1.0364992401338001e-01  1.5348161223198015e-01  2.0588478772801061e-01  2.8528699011542491e-01  3.2811968069051750e-01  3.6900225677799825e-01  4.1373207864927569e-01  5.5225156161467170e-01  5.8346755468905342e-01  5.4868789287860587e-01  4.6219948388838539e-01  3.7226636518867562e-01  3.1496837577651388e-01  1.2329911574190955e-01  6.4570294957922610e-03  5.6982312432414181e-03  4.9814860025762216e-03  1.7122784741590905e-02  5.5150370392724142e-02  6.8087641793221521e-02  6.5035807677017596e-02  5.8459814677686704e-02  5.2616352802867514e-02  5.0140943554373520e-02  4.5661278307848378e-02  4.3906332677755601e-02  4.4835552168601037e-02  4.2506145618914769e-0