<?xml version="1.0"?>
<VTKFile type="UnstructuredGrid"  version="0.1"  >
<UnstructuredGrid>
<Piece  NumberOfPoints="7161" NumberOfCells="13800">
<Points>
<DataArray  type="Float64"  NumberOfComponents="3"  format="ascii">0 0 0  0.01652173913043478 0 0  0.03304347826086956 0 0  0.04956521739130434 0 0  0.06608695652173913 0 0  0.08260869565217391 0 0  0.09913043478260869 0 0  0.1156521739130435 0 0  0.1321739130434783 0 0  0.148695652173913 0 0  0.1652173913043478 0 0  0.1817391304347826 0 0  0.1982608695652174 0 0  0.2147826086956522 0 0  0.2313043478260869 0 0  0.2478260869565218 0 0  0.2643478260869565 0 0  0.2808695652173913 0 0  0.2973913043478261 0 0  0.3139130434782609 0 0  0.3304347826086956 0 0  0.3469565217391304 0 0  0.3634782608695652 0 0  0.3799999999999999 0 0  0.3965217391304348 0 0  0.4130434782608696 0 0  0.4295652173913043 0 0  0.4460869565217391 0 0  0.4626086956521739 0 0  0.4791304347826086 0 0  0.4956521739130435 0 0  0.5121739130434783 0 0  0.528695652173913 0 0  0.5452173913043478 0 0  0.5617391304347825 0 0  0.5782608695652174 0 0  0.5947826086956521 0 0  0.6113043478260869 0 0  0.6278260869565218 0 0  0.6443478260869565 0 0  0.6608695652173913 0 0  0.677391304347826 0 0  0.6939130434782609 0 0  0.7104347826086956 0 0  0.7269565217391304 0 0  0.7434782608695653 0 0  0.7599999999999999 0 0  0.7765217391304348 0 0  0.7930434782608695 0 0  0.8095652173913043 0 0  0.8260869565217391 0 0  0.8426086956521739 0 0  0.8591304347826086 0 0  0.8756521739130434 0 0  0.8921739130434783 0 0  0.908695652173913 0 0  0.9252173913043478 0 0  0.9417391304347826 0 0  0.9582608695652173 0 0  0.9747826086956521 0 0  0.991304347826087 0 0  1.007826086956522 0 0  1.024347826086957 0 0  1.040869565217391 0 0  1.057391304347826 0 0  1.073913043478261 0 0  1.090434782608696 0 0  1.10695652173913 0 0  1.123478260869565 0 0  1.14 0 0  1.156521739130435 0 0  1.17304347826087 0 0  1.189565217391304 0 0  1.206086956521739 0 0  1.222608695652174 0 0  1.239130434782609 0 0  1.255652173913044 0 0  1.272173913043478 0 0  1.288695652173913 0 0  1.305217391304348 0 0  1.321739130434783 0 0  1.338260869565217 0 0  1.354782608695652 0 0  1.371304347826087 0 0  1.387826086956522 0 0  1.404347826086957 0 0  1.420869565217391 0 0  1.437391304347826 0 0  1.453913043478261 0 0  1.470434782608696 0 0  1.486956521739131 0 0  1.503478260869565 0 0  1.52 0 0  1.536521739130435 0 0  1.55304347826087 0 0  1.569565217391304 0 0  1.586086956521739 0 0  1.602608695652174 0 0  1.619130434782609 0 0  1.635652173913043 0 0  1.652173913043478 0 0  1.668695652173913 0 0  1.685217391304348 0 0  1.701739130434782 0 0  1.718260869565217 0 0  1.734782608695652 0 0  1.751304347826087 0 0  1.767826086956522 0 0  1.784347826086957 0 0  1.800869565217391 0 0  1.817391304347826 0 0  1.833913043478261 0 0  1.850434782608696 0 0  1.86695652173913 0 0  1.883478260869565 0 0  1.9 0 0  1.916521739130435 0 0  1.933043478260869 0 0  1.949565217391304 0 0  1.966086956521739 0 0  1.982608695652174 0 0  1.999130434782608 0 0  2.015652173913043 0 0  2.032173913043478 0 0  2.048695652173913 0 0  2.065217391304348 0 0  2.081739130434782 0 0  2.098260869565217 0 0  2.114782608695652 0 0  2.131304347826087 0 0  2.147826086956522 0 0  2.164347826086956 0 0  2.180869565217391 0 0  2.197391304347826 0 0  2.213913043478261 0 0  2.230434782608695 0 0  2.24695652173913 0 0  2.263478260869565 0 0  2.28 0 0  2.296521739130434 0 0  2.31304347826087 0 0  2.329565217391304 0 0  2.346086956521739 0 0  2.362608695652174 0 0  2.379130434782609 0 0  2.395652173913044 0 0  2.412173913043478 0 0  2.428695652173913 0 0  2.445217391304348 0 0  2.461739130434782 0 0  2.478260869565217 0 0  2.494782608695652 0 0  2.511304347826087 0 0  2.527826086956522 0 0  2.544347826086956 0 0  2.560869565217391 0 0  2.577391304347826 0 0  2.593913043478261 0 0  2.610434782608696 0 0  2.62695652173913 0 0  2.643478260869565 0 0  2.66 0 0  2.676521739130435 0 0  2.693043478260869 0 0  2.709565217391304 0 0  2.726086956521739 0 0  2.742608695652174 0 0  2.759130434782609 0 0  2.775652173913044 0 0  2.792173913043478 0 0  2.808695652173913 0 0  2.825217391304347 0 0  2.841739130434783 0 0  2.858260869565217 0 0  2.874782608695652 0 0  2.891304347826087 0 0  2.907826086956522 0 0  2.924347826086957 0 0  2.940869565217391 0 0  2.957391304347826 0 0  2.973913043478261 0 0  2.990434782608696 0 0  3.006956521739131 0 0  3.023478260869565 0 0  3.04 0 0  3.056521739130435 0 0  3.073043478260869 0 0  3.089565217391304 0 0  3.106086956521739 0 0  3.122608695652174 0 0  3.139130434782609 0 0  3.155652173913043 0 0  3.172173913043478 0 0  3.188695652173913 0 0  3.205217391304347 0 0  3.221739130434782 0 0  3.238260869565217 0 0  3.254782608695652 0 0  3.271304347826087 0 0  3.287826086956521 0 0  3.304347826086957 0 0  3.320869565217391 0 0  3.337391304347826 0 0  3.353913043478261 0 0  3.370434782608696 0 0  3.386956521739131 0 0  3.403478260869565 0 0  3.419999999999999 0 0  3.436521739130435 0 0  3.453043478260869 0 0  3.469565217391304 0 0  3.486086956521739 0 0  3.502608695652174 0 0  3.519130434782609 0 0  3.535652173913043 0 0  3.552173913043478 0 0  3.568695652173913 0 0  3.585217391304347 0 0  3.601739130434782 0 0  3.618260869565217 0 0  3.634782608695652 0 0  3.651304347826087 0 0  3.667826086956521 0 0  3.684347826086956 0 0  3.700869565217391 0 0  3.717391304347826 0 0  3.733913043478261 0 0  3.750434782608695 0 0  3.766956521739131 0 0  3.783478260869565 0 0  3.8 0 0  0 0.01666666666666667 0  0.01652173913043478 0.01666666666666667 0  0.03304347826086956 0.01666666666666667 0  0.04956521739130434 0.01666666666666667 0  0.06608695652173913 0.01666666666666667 0  0.08260869565217391 0.01666666666666667 0  0.09913043478260869 0.01666666666666667 0  0.1156521739130435 0.01666666666666667 0  0.1321739130434783 0.01666666666666667 0  0.148695652173913 0.01666666666666667 0  0.1652173913043478 0.01666666666666667 0  0.1817391304347826 0.01666666666666667 0  0.1982608695652174 0.01666666666666667 0  0.2147826086956522 0.01666666666666667 0  0.2313043478260869 0.01666666666666667 0  0.2478260869565218 0.01666666666666667 0  0.2643478260869565 0.01666666666666667 0  0.2808695652173913 0.01666666666666667 0  0.2973913043478261 0.01666666666666667 0  0.3139130434782609 0.01666666666666667 0  0.3304347826086956 0.01666666666666667 0  0.3469565217391304 0.01666666666666667 0  0.3634782608695652 0.01666666666666667 0  0.3799999999999999 0.01666666666666667 0  0.3965217391304348 0.01666666666666667 0  0.4130434782608696 0.01666666666666667 0  0.4295652173913043 0.01666666666666667 0  0.4460869565217391 0.01666666666666667 0  0.4626086956521739 0.01666666666666667 0  0.4791304347826086 0.01666666666666667 0  0.4956521739130435 0.01666666666666667 0  0.5121739130434783 0.01666666666666667 0  0.528695652173913 0.01666666666666667 0  0.5452173913043478 0.01666666666666667 0  0.5617391304347825 0.01666666666666667 0  0.5782608695652174 0.01666666666666667 0  0.5947826086956521 0.01666666666666667 0  0.6113043478260869 0.01666666666666667 0  0.6278260869565218 0.01666666666666667 0  0.6443478260869565 0.01666666666666667 0  0.6608695652173913 0.01666666666666667 0  0.677391304347826 0.01666666666666667 0  0.6939130434782609 0.01666666666666667 0  0.7104347826086956 0.01666666666666667 0  0.7269565217391304 0.01666666666666667 0  0.7434782608695653 0.01666666666666667 0  0.7599999999999999 0.01666666666666667 0  0.7765217391304348 0.01666666666666667 0  0.7930434782608695 0.01666666666666667 0  0.8095652173913043 0.01666666666666667 0  0.8260869565217391 0.01666666666666667 0  0.8426086956521739 0.01666666666666667 0  0.8591304347826086 0.01666666666666667 0  0.8756521739130434 0.01666666666666667 0  0.8921739130434783 0.01666666666666667 0  0.908695652173913 0.01666666666666667 0  0.9252173913043478 0.01666666666666667 0  0.9417391304347826 0.01666666666666667 0  0.9582608695652173 0.01666666666666667 0  0.9747826086956521 0.01666666666666667 0  0.991304347826087 0.01666666666666667 0  1.007826086956522 0.01666666666666667 0  1.024347826086957 0.01666666666666667 0  1.040869565217391 0.01666666666666667 0  1.057391304347826 0.01666666666666667 0  1.073913043478261 0.01666666666666667 0  1.090434782608696 0.01666666666666667 0  1.10695652173913 0.01666666666666667 0  1.123478260869565 0.01666666666666667 0  1.14 0.01666666666666667 0  1.156521739130435 0.01666666666666667 0  1.17304347826087 0.01666666666666667 0  1.189565217391304 0.01666666666666667 0  1.206086956521739 0.01666666666666667 0  1.222608695652174 0.01666666666666667 0  1.239130434782609 0.01666666666666667 0  1.255652173913044 0.01666666666666667 0  1.272173913043478 0.01666666666666667 0  1.288695652173913 0.01666666666666667 0  1.305217391304348 0.01666666666666667 0  1.321739130434783 0.01666666666666667 0  1.338260869565217 0.01666666666666667 0  1.354782608695652 0.01666666666666667 0  1.371304347826087 0.01666666666666667 0  1.387826086956522 0.01666666666666667 0  1.404347826086957 0.01666666666666667 0  1.420869565217391 0.01666666666666667 0  1.437391304347826 0.01666666666666667 0  1.453913043478261 0.01666666666666667 0  1.470434782608696 0.01666666666666667 0  1.486956521739131 0.01666666666666667 0  1.503478260869565 0.01666666666666667 0  1.52 0.01666666666666667 0  1.536521739130435 0.01666666666666667 0  1.55304347826087 0.01666666666666667 0  1.569565217391304 0.01666666666666667 0  1.586086956521739 0.01666666666666667 0  1.602608695652174 0.01666666666666667 0  1.619130434782609 0.01666666666666667 0  1.635652173913043 0.01666666666666667 0  1.652173913043478 0.01666666666666667 0  1.668695652173913 0.01666666666666667 0  1.685217391304348 0.01666666666666667 0  1.701739130434782 0.01666666666666667 0  1.718260869565217 0.01666666666666667 0  1.734782608695652 0.01666666666666667 0  1.751304347826087 0.01666666666666667 0  1.767826086956522 0.01666666666666667 0  1.784347826086957 0.01666666666666667 0  1.800869565217391 0.0166666666666666
[...]
<PointData  Scalars="rho_bar"> 
<DataArray  type="Float64"  Name="rho_bar"  format="ascii">9.9961646866452769e-01  9.9913687370053428e-01  9.9873296857788785e-01  9.9800956437450239e-01  9.9731828633413788e-01  9.9693060074328133e-01  9.9708485996686913e-01  9.9774112547577742e-01  9.9869762498165093e-01  9.9972751272414084e-01  1.0005493208915976e+00  1.0008780854998134e+00  1.0006531203461342e+00  1.0000985927121984e+00  9.9947925272601645e-01  9.9885864489590026e-01  9.9812411514912713e-01  9.9722319785704905e-01  9.9636010097514793e-01  9.9594765281756636e-01  9.9629955464648290e-01  9.9723667898418644e-01  9.9812530087248552e-01  9.9855901690891036e-01  9.9866376130644219e-01  9.9872248651474393e-01  9.9859098008035074e-01  9.9783503799010664e-01  9.9743899103539724e-01  9.9748635210389092e-01  9.9424718014096369e-01  9.8636223981104998e-01  9.7793327074066427e-01  9.7243023730205358e-01  9.7010145639811285e-01  9.6995872748949630e-01  9.7101663345719813e-01  9.7246164072065200e-01  9.7371441987486773e-01  9.7454217821515943e-01  9.7491722358257504e-01  9.7493698656308159e-01  9.7483537779736762e-01  9.7481463772464083e-01  9.7482726498010541e-01  9.7468718872215576e-01  9.7435453827903451e-01  9.7395745995490546e-01  9.7365557263480607e-01  9.7352959338591349e-01  9.7354939848079114e-01  9.7361369624438032e-01  9.7360559930620016e-01  9.7342658779911417e-01  9.7303643154952435e-01  9.7246903764737380e-01  9.7181136387259259e-01  9.7117452911926017e-01  9.7066897769252003e-01  9.7039280401664951e-01  9.7042341230460394e-01  9.7078871570147474e-01  9.7139693834218033e-01  9.7203990847956490e-01  9.7254122438123058e-01  9.7286114963395176e-01  9.7303725642551930e-01  9.7311482869053556e-01  9.7312399820645346e-01  9.7308254771163871e-01  9.7300923512435655e-01  9.7292758396050727e-01  9.7284891318319289e-01  9.7275444552854706e-01  9.7257670045676881e-01  9.7220852707461369e-01  9.7160653430594712e-01  9.7085463929619853e-01  9.7010318063760836e-01  9.6949438389793807e-01  9.6910738539457664e-01  9.6890568146787426e-01  9.6872198915665786e-01  9.6835852928050759e-01  9.6764275765342966e-01  9.6639293615613431e-01  9.6443044895104879e-01  9.6179830866365246e-01  9.5893921977105334e-01  9.5666157224171178e-01  9.5629687408630626e-01  9.6008124879489698e-01  9.6924998247092664e-01  9.8016174863868244e-01  9.8789363846425915e-01  9.9248472993327086e-01  9.9551345132330005e-01  9.9717756328411122e-01  9.9763878035515985e-01  9.9714786078659090e-01  9.9693598243185266e-01  9.9846253813690167e-01  1.0009276135704155e+00  1.0016579223950803e+00  9.9880923265823818e-01  9.9267058670991504e-01  9.8491290299532308e-01  9.7738988479707012e-01  9.7150674416169402e-01  9.6827583322689625e-01  9.6867859294037673e-01  9.7327143285938100e-01  9.8043776520446502e-01  9.8656008502160430e-01  9.9013546400121510e-01  9.9261367768432751e-01  9.9467847651010810e-01  9.9579706338581475e-01  9.9582397079213825e-01  9.9601235331458082e-01  9.9614050040710966e-01  9.9033872810160473e-01  9.7553191678653273e-01  9.5716819513666995e-01  9.3976342474044150e-01  9.2463766967774341e-01  9.1413548255721944e-01  9.0951934490248709e-01  9.0951760195894804e-01  9.1191580427379382e-01  9.1459973027105557e-01  9.1640403686848937e-01  9.1708326920244965e-01  9.1679569483020229e-01  9.1580631396742473e-01  9.1440729475242299e-01  9.1281641467409325e-01  9.1105263745090104e-01  9.0884591208787113e-01  9.0565258963501016e-01  9.0064878006932025e-01  8.9277331991550679e-01  8.8095599593257845e-01  8.6455997952044450e-01  8.4516148765315680e-01  8.2497002069058722e-01  8.0485496556699543e-01  7.8589915791308262e-01  7.6954027024628702e-01  7.5634818171940332e-01  7.4604477690129767e-01  7.3939393566036460e-01  7.3888378521019793e-01  7.4511932419381854e-01  7.5632190995114368e-01  7.6982754494714545e-01  7.8298607663667952e-01  7.9489271716575716e-01  8.0548978144065797e-01  8.1562703913059587e-01  8.2685924343384887e-01  8.3816623745234320e-01  8.4793590946604158e-01  8.5547586237546103e-01  8.6091619137699849e-01  8.6494940151184463e-01  8.6860320365011334e-01  8.7282149524978558e-01  8.7736793696146553e-01  8.8088444960541512e-01  8.8218744642285996e-01  8.8187431603929711e-01  8.8238795154195759e-01  8.8546600709125400e-01  8.9030812044212138e-01  8.9553831103930948e-01  9.0047934844123634e-01  9.0458188082815227e-01  9.0654538807805041e-01  9.0611367061821313e-01  9.0360245034469089e-01  8.9887539646649262e-01  8.9076180370129954e-01  8.7763739843036459e-01  8.5812861934630424e-01  8.3062191862729606e-01  7.9429883491689812e-01  7.5347407415966539e-01  7.1076323907381900e-01  6.6053693126223578e-01  5.9050180722579582e-01  4.8819153936027093e-01  3.5105827642374454e-01  2.0382177679759078e-01  9.3662691240825866e-02  3.7623752145686591e-02  1.5203443892059547e-02  6.6504673269262441e-03  3.1904356011897136e-03  1.7180822765879959e-03  1.0006630628524012e-03  6.1331049666420287e-04  3.9564629415997935e-04  2.6227891785153079e-04  1.7757980225055532e-04  1.2215927868753363e-04  8.4800775916496257e-05  5.9277960156796710e-05  4.1603238570116612e-05  2.9270123932502711e-05  2.0620692569556181e-05  1.4535669696443405e-05  1.0248473963146488e-05  7.2259765827492378e-06  5.0951278726881465e-06  3.5932757716822281e-06  2.5351501800433164e-06  1.7898320951881898e-06  1.2648896159691853e-06  8.9506380901595908e-07  6.3437712157991055e-07  4.5047674014164215e-07  3.2064198177004118e-07  2.2894149546330387e-07  1.6423535392174525e-07  1.1875625401736185e-07  8.7129144925089712e-08  6.5679995976692037e-08  5.1993009770074876e-08  4.4644668119519340e-08  4.3246642171434871e-08  9.9786565269235461e-01  9.9887723373866366e-01  9.9924345351139288e-01  1.0002314639747962e+00  1.0012855186552705e+00  1.0018922183483683e+00  1.0013854054208333e+00  9.9953434802596164e-01  9.9661550981309543e-01  9.9304891277413854e-01  9.8930777786644719e-01  9.8603148821476716e-01  9.8375970356799869e-01  9.8260079484331209e-01  9.8241709687626566e-01  9.8322762606888436e-01  9.8523682611529972e-01  9.8847465842019200e-01  9.9243195438346832e-01  9.9606253513899379e-01  9.9826264251061103e-01  9.9865752079510461e-01  9.9811406226477950e-01  9.9788670118990241e-01  9.9816815237235001e-01  9.9840222826553171e-01  9.9816106239131841e-01  9.9799495237118263e-01  9.9729427717405827e-01  9.9184022459038512e-01  9.8346280651152596e-01  9.7887091033815632e-01  9.7705343630771557e-01  9.7494222138673270e-01  9.7341006856744083e-01  9.7310381665371537e-01  9.7364708894594287e-01  9.7467854671664000e-01  9.7579611340853500e-01  9.7678372613400288e-01  9.7759657454958859e-01  9.7822578716455344e-01  9.7858135781598310e-01  9.7855545212652906e-01  9.7834361862626640e-01  9.7825928080849789e-01  9.7832863596192821e-01  9.7837129611922424e-01  9.7829362593853919e-01  9.7810594439457044e-01  9.7791333905322997e-01  9.7781985504246627e-01  9.7786260551203719e-01  9.7803748414498493e-01  9.7829766499337012e-01  9.7854700996575006e-01  9.7869725241764804e-01  9.7872022217620014e-01  9.7862571660062370e-01  9.7844250337442429e-01  9.7820612175692379e-01  9.7794848299069548e-01  9.7772264043311885e-01  9.7762630509707082e-01  9.7765851880605714e-01  9.7772059987282489e-01  9.7772722465439466e-01  9.7766396160391589e-01  9.7755653701737955e-01  9.7743495835482863e-01  9.7731259103252410e-01  9.7718320842001283e-01  9.7703804820199680e-01  9.7687514375616880e-01  9.7667935389085470e-01  9.7646714844541860e-01  9.7625473434508814e-01  9.7596112883364639e-01  9.7558758838794890e-01  9.7521599937636361e-01  9.7493237498976459e-01  9.7482951613433777e-01  9.7487406485866257e-01  9.7495046068820945e-01  9.7491706997169836e-01  9.7465085988795519e-01  9.7404633292094767e-01  9.7279295091597784e-01  9.7022875179751522e-01  9.6610452403578739e-01  9.6152457303962247e-01  9.5869394765283922e-01  9.5954154233683575e-01  9.6567137578999829e-01  9.7719886948301926e-01  9.8846011984745852e-01  9.9406987192967045e-01  9.9609746843074520e-01  9.9717140787569836e-01  9.9855809949284047e-01  9.9986505351597499e-01  9.9781499917740590e-01  9.9114127306036359e-01  9.8362074921651765e-01  9.7992716945983915e-01  9.8102367876745311e-01  9.8423842672435502e-01  9.8599876173865064e-01  9.8434547973057507e-01  9.7992663698052140e-01  9.7504225384913978e-01  9.7142891761356209e-01  9.6989933126189121e-01  9.7254343775071483e-01  9.8025701434898849e-01  9.8826907467543668e-01  9.9252337208006725e-01  9.9421598081650076e-01  9.9504830270938349e-01  9.9456982262271976e-01  9.8897326537210661e-01  9.8090800765036334e-01  9.7739236870311508e-01  9.6708692821316411e-01  9.3778891173686052e-01  9.0104549193311745e-01  8.7440960353077679e-01  8.6347002267415307e-01  8.6431429156291506e-01  8.7103538706652672e-01  8.7830306240707667e-01  8.8285932009017121e-01  8.8409745603427681e-01  8.8258952852986328e-01  8.7919314169993923e-01  8.7486415092788417e-01  8.7027701511629996e-01  8.6536179573917460e-01  8.5913989446514960e-01  8.4997118885036360e-01  8.3572268038627806e-01  8.1441478647539411e-01  7.8561973644480398e-01  7.5094487341323957e-01  7.1546708025807537e-01  6.8370017527606752e-01  6.5657587776277915e-01  6.3456104471739883e-01  6.1829919233803243e-01  6.0702616418809752e-01  5.9875085125282768e-01  5.9305714927082542e-01  5.9261684371723167e-01  5.9847481321322904e-01  6.0903113689945299e-01  6.2187815572318805e-01  6.3418530696357378e-01  6.4556769155523663e-01  6.5696572054034530e-01  6.7001890535989206e-01  6.8689864368406262e-01  7.0589978308307666e-01  7.2373122441086613e-01  7.3843734897685698e-01  7.4958044455781569e-01  7.5822245113812636e-01  7.6666502704789996e-01  7.7707957316869736e-01  7.8858135841829324e-01  7.9762174791660390e-01  8.0225162588447185e-01  8.0497236462341704e-01  8.1117397725557594e-01  8.2210232223057567e-01  8.3510908663640193e-01  8.4739893285784573e-01  8.5784532305838712e-01  8.6580300273894695e-01  8.6972121322196405e-01  8.6909804978503458e-01  8.6469763085078166e-01  8.5679128322728648e-01  8.4419749523680165e-01  8.2573675463856233e-01  8.0144529298262546e-01  7.7192819664392942e-01  7.3839282384231120e-01  7.0533727593130768e-01  6.7531848311756371e-01  6.4253991752042794e-01  5.9405321180526249e-01  5.1593626347339905e-01  3.9975114328893691e-01  2.5675534873265760e-01  1.2975925050098147e-01  5.4709399813976420e-02  2.1837986846241698e-02  8.9899907919895120e-03  4.2223688881829870e-03  2.1796155550073402e-03  1.2029432438782190e-03  7.3035214268134024e-04  4.5942178920284089e-04  2.9921959550164516e-04  2.0082723345136294e-04  1.3663775528413561e-04  9.4265198963093091e-05  6.5535217046274117e-05  4.5804010221978616e-05  3.2125221329971340e-05  2.2574902745503978e-05  1.5882802221313323e-05  1.1181455439853767e-05  7.8749271437300514e-06  5.5481072924062684e-06  3.9105437527935246e-06  2.7580687404227347e-06  1.9469866903155794e-06  1.3760372850765966e-06  9.7394123538634600e-07  6.9053491195882722e-07  4.9058522083975479e-07  3.4937326570006775e-07  2.4959134557609761e-07  1.7914027998129408e-07  1.2959525140185371e-07  9.5119420297789184e-08  7.1728437790807829e-08  5.6773566303924590e-08  4.8610270045200156e-08  4.6311271471686225e-08  1.0027778452718250e+00  9.9894045793283837e-01  9.9789941617741540e-01  9.9440907650569998e-01  9.8973998448770573e-01  9.8499952909041133e-01  9.8247565193667874e-01  9.8380151563255513e-01  9.8862089744695425e-01  9.9541434320652944e-01  1.0025764802988122e+00  1.0080759263090515e+00  1.0099257411750704e+00  1.0081291556257057e+00  1.0049262267554386e+00  1.0024152066612724e+00  1.0005253792437632e+00  9.9756508777769892e-01  9.9251583204077520e-01  9.8666758723678150e-01  9.8312637876151843e-01  9.8448689036366066e-01  9.8994358951879935e-01  9.9505053350965522e-01  9.9689821102302656e-01  9.9694595101883743e-01  9.9675086566571247e-01  9.9637232525662789e-01  9.9154475830447331e-01  9.8656313981238597e-01  9.8495881142074715e-01  9.5096276151180514e-01  8.7820163387803285e-01  8.1096368170494004e-01  7.7425963694504585e-01  7.6375987529152267e-01  7.6854169627404634e-01  7.8022352421584051e-01  7.9201217739577889e-01  8.0030006789205688e-01  8.0461079595761120e-01  8.0515520190607626e-01  8.0308304570903855e-01  8.0086352354363366e-01  8.0090940650738529e-01  8.0162277687156691e-01  8.0021645982194611e-01  7.9661726448471570e-01  7.9279451914341237e-01  7.9039166669435401e-01  7.9008096694937568e-01  7.9105923519113519e-01  7.9204173434992442e-01  7.9184610233706076e-01  7.8959546987353235e-01  7.8510595895692603e-01  7.7903136402161210e-01  7.7245179333426217e-01  7.6651372564909281e-01  7.6224369276872006e-01  7.6051970065611918e-01  7.6197258333435325e-01  7.6671127121978877e-01  7.7354660102318518e-01  7.7978540039897404e-01  7.8394183141277030e-01  7.8625869151904260e-01  7.8744612631132227e-01  7.8799290750886497e-01  7.8809382250481508e-01  7.8780972641659708e-01  7.8727151705818887e-01  7.8672436643697174e-01  7.8628512462545375e-01  7.8568092250279964e-01  7.8430559332172367e-01  7.8105988482965627e-01  7.7549785187773024e-01  7.6902348728862424e-01  7.6298991257899196e-01  7.5854771960016409e-01  7.5614799171290292e-01  7.5486376753374751e-01  7.5295553465776965e-01  7.4877470423195003e-01  7.4101749058276223e-01  7.2802496573890141e-01  7.0763506667773224e-01  6.8013823159774034e-01  6.5225581708372304e-01  6.3625539357171657e-01  6.4891180111708335e-01  7.0959885014383994e-01  8.1783078584991065e-01  9.1973506019323448e-01  9.6546437950635011e-01  9.8178334258854449e-01  9.9074466696229235e-01  9.9424897170591109e-01  9.9386737236430955e-01  9.8799986039846266e-01  9.8452954430993567e-01  9.9399125946579170e-01  1.0094950121755855e+00  1.0102343864297456e+00  9.8202910809236665e-01  9.2639886514919090e-01  8.5595905660600691e-01  7.8771352025719521e-01  7.3855064149611993e-01  7.2222516860031849e-01  7.4652558565234162e-01  8.0868799041928729e-01  8.8633248450839308e-01  9.4293762103318601e-01  9.6687741186166898e-01  9.7838305811262682e-01  9.8609114504657591e-01  9.8862086027677465e-01  9.8597764010804079e-01  9.8216732644904736e-01  9.7869908178899567e-01  9.2008543871994619e-01  7.6654005525113733e-01  5.8795166684399269e-01  4.5703882388019479e-01  3.8412185476238303e-01  3.5219410568577003e-01  3.4405153049968573e-01  3.4804304867094049e-01  3.5556474870601829e-01  3.6040443931202154e-01  3.6018303110738714e-01  3.5555379840972967e-01  3.4826481555184058e-01  3.4017307239020228e-01  3.3261260442317847e-01  3.2561439243795381e-01  3.1769654742850961e-01  3.0686770805605934e-01  2.9135432051662968e-01  2.7035904705392300e-01  2.4559424052806697e-01  2.2074537725883581e-01  2.0019927554194553e-01  1.8648840232439082e-01  1.7912919817070844e-01  1.7712197404722060e-01  1.7960065194086849e-01  1.8496506542209154e-01  1.9052863225011435e-01  1.9387641479519646e-01  1.9544145108613656e-01  1.9564979229012164e-01  1.9419897538241132e-01  1.9103135543365909e-01  1.8626204138795571e-01  1.8119825097702230e-01  1.7768823081004229e-01  1.7741665991979116e-01  1.8153378722241445e-01  1.8904940607904050e-01  1.9808295079083704e-01  2.0721355747862741e-01  2.1534021093816250e-01  2.2221408832703066e-01  2.2921804638341575e-01  2.3883222225291662e-01  2.5141849510637715e-01  2.6383652996775708e-01  2.7381424990810144e-01  2.8510560796823681e-01  3.0275471586085428e-01  3.2738526331914802e-01  3.5478816908904653e-01  3.8110398095445719e-01  4.0470775946866111e-01  4.2490398518262606e-01  4.4105080424052961e-01  4.5330719985395518e-01  4.6295703435798263e-01  4.7143330447519416e-01  4.7882726178211010e-01  4.8539034557006028e-01  4.9260088882635317e-01  5.0162968808866260e-01  5.1352396753890961e-01  5.3060749031147436e-01  5.5336727727839397e-01  5.7594441280067987e-01  5.8587080624024779e-01  5.6985682983113450e-01  5.1674445177190187e-01  4.1705436850418709e-01  2.7736980852849535e-01  1.4174746015812414e-01  5.8713932277878349e-02  2.3828084859102660e-02  9.7100469535852021e-03  4.2102860269057846e-03  2.2281364795940181e-03  1.2069907120615684e-03  7.0556735294482543e-04  4.4437882500843304e-04  2.8399138140426509e-04  1.8879107609769279e-04  1.2743546698860481e-04  8.7201980683348758e-05  6.0263433760295960e-05  4.1879480820517546e-05  2.9234718849888948e-05  2.0460941179756327e-05  1.4348585359097140e-05  1.0076049754343521e-05  7.0840644245479797e-06  4.9861393663658194e-06  3.5138423962094045e-06  2.4797834855247319e-06  1.7529031741391890e-06  1.2413795286991452e-06  8.8093108887326759e-07  6.2653896658831378e-07  4.4673028645390342e-07  3.1951327786915804e-07  2.2955319492292674e-07  1.6617464431624200e-07  1.2199229226025349e-07  9.1952221852151497e-08  7.2691211000630705e-08  6.2097024278974336e-08  5.9027956722668397e-08  9.7534977307257553e-01  9.8732189208934162e-01  9.8836796229141566e-01  9.9578887936024485e-01  1.0069978052213058e+00  1.0189751710858879e+00  1.0234942593383443e+00  1.0105880498522597e+00  9.7606508767416678e-01  9.2286130482358952e-01  8.5475781984784682e-01  7.7583938689290721e-01  6.9605774898154193e-01  6.3101744567625240e-01  5.9463154758473613e-01  5.9367711975800708e-01  6.2797385598236233e-01  6.9179785250877168e-01  7.7474115468455551e-01  8.6136888427342206e-01  9.3366680236411081e-01  9.7770796254401460e-01  9.9078613798086435e-01  9.8655963313620687e-01  9.8488661827184365e-01  9.8908078862330862e-01  9.9137509671723167e-01  9.8972466114021518e-01  9.8273301291620252e-01  9.6997460511728739e-01  8.5599221999751729e-01  5.8697781039056496e-01  3.3855295835161325e-01  2.0298735268263912e-01  1.4241618932621822e-01  1.1730152456300179e-01  1.0887791320137499e-01  1.0847463084428918e-01  1.1087829437194677e-01  1.1279740689375184e-01  1.1303036348942537e-01  1.1140531916414530e-01  1.0849862427086075e-01  1.0584280806967135e-01  1.0524203531327474e-01  1.0622603207249708e-01  1.0608597222349490e-01  1.0414195886124201e-01  1.0159946352468147e-01  9.9729086726216776e-02  9.9358202982773494e-02  9.9997483862790143e-02  1.0064097911552175e-01  1.0038871858622103e-01  9.8594314822542703e-02  9.5120119588285604e-02  9.0606088991101369e-02  8.5912295413727330e-02  8.1800556514939851e-02  7.8850852802861832e-02  7.7497270552287431e-02  7.8033593349021657e-02  8.0567756367641422e-02  8.4734170891954036e-02  8.9238910160746240e-02  9.2761455906076401e-02  9.5155885987860747e-02  9.6831376363785832e-02  9.8110733933401750e-02  9.9106484308841877e-02  9.9818177345768269e-02  1.0028113589252029e-01  1.0065193151699821e-01  1.0107418315694805e-01  1.0150807693402944e-01  1.0172673473205465e-01  1.0111685435694437e-01  9.8841165102751996e-02  9.5689294343904302e-02  9.2474251379114789e-02  8.9798513050539000e-02  8.8040635160322386e-02  8.6903526115308646e-02  8.5700517753810046e-02  8.3683730933224690e-02  8.0365585038484982e-02  7.5358896733160291e-02  6.8257729053813956e-02  5.9619454289346112e-02  5.3107063607261723e-02  5.3258494864531214e-02  6.5678012870450220e-02  1.0243658638518709e-01  1.9684613006744506e-01  4.1278610999030757e-01  7.1877955172402119e-01  9.0980683382311844e-01  9.6400391879907010e-01  9.7906528810336702e-01  9.8168242268534289e-01  9.9076944788344168e-01  9.9962853700078058e-01  9.5247916394420873e-01  8.1433299575924478e-01  6.1922017245777849e-01  4.2600859236062838e-01  2.7351335218405542e-01  1.6986176435568784e-01  1.0798635802134351e-01  7.7844039544830393e-02  7.1843549007607269e-02  8.8999262484324909e-02  1.3943820951400807e-01  2.4977628665329571e-01  4.5173275461805829e-01  7.0571014223788220e-01  8.7898909386827206e-01  9.4066250235762217e-01  9.5957092768145558e-01  9.5810233031084635e-01  9.3694458602546327e-01  8.1972583280784816e-01  5.3718295770053270e-01  2.4564534227108692e-01  9.0256117159431062e-02  3.5401010423412781e-02  1.7931833743281923e-02  1.1481236923672800e-02  8.2102688881852733e-03  5.9721782591864022e-03  4.1363572779055348e-03  2.5569911059577536e-03  1.2715723844953337e-03  3.0760672954592880e-04  -3.3256153953337532e-04  -6.7794241850526534e-04  -8.06180257