<?xml version="1.0"?>
<VTKFile type="UnstructuredGrid"  version="0.1"  >
<UnstructuredGrid>
<Piece  NumberOfPoints="7161" NumberOfCells="13800">
<Points>
<DataArray  type="Float64"  NumberOfComponents="3"  format="ascii">0 0 0  0.01652173913043478 0 0  0.03304347826086956 0 0  0.04956521739130434 0 0  0.06608695652173913 0 0  0.08260869565217391 0 0  0.09913043478260869 0 0  0.1156521739130435 0 0  0.1321739130434783 0 0  0.148695652173913 0 0  0.1652173913043478 0 0  0.1817391304347826 0 0  0.1982608695652174 0 0  0.2147826086956522 0 0  0.2313043478260869 0 0  0.2478260869565218 0 0  0.2643478260869565 0 0  0.2808695652173913 0 0  0.2973913043478261 0 0  0.3139130434782609 0 0  0.3304347826086956 0 0  0.3469565217391304 0 0  0.3634782608695652 0 0  0.3799999999999999 0 0  0.3965217391304348 0 0  0.4130434782608696 0 0  0.4295652173913043 0 0  0.4460869565217391 0 0  0.4626086956521739 0 0  0.4791304347826086 0 0  0.4956521739130435 0 0  0.5121739130434783 0 0  0.528695652173913 0 0  0.5452173913043478 0 0  0.5617391304347825 0 0  0.5782608695652174 0 0  0.5947826086956521 0 0  0.6113043478260869 0 0  0.6278260869565218 0 0  0.6443478260869565 0 0  0.6608695652173913 0 0  0.677391304347826 0 0  0.6939130434782609 0 0  0.7104347826086956 0 0  0.7269565217391304 0 0  0.7434782608695653 0 0  0.7599999999999999 0 0  0.7765217391304348 0 0  0.7930434782608695 0 0  0.8095652173913043 0 0  0.8260869565217391 0 0  0.8426086956521739 0 0  0.8591304347826086 0 0  0.8756521739130434 0 0  0.8921739130434783 0 0  0.908695652173913 0 0  0.9252173913043478 0 0  0.9417391304347826 0 0  0.9582608695652173 0 0  0.9747826086956521 0 0  0.991304347826087 0 0  1.007826086956522 0 0  1.024347826086957 0 0  1.040869565217391 0 0  1.057391304347826 0 0  1.073913043478261 0 0  1.090434782608696 0 0  1.10695652173913 0 0  1.123478260869565 0 0  1.14 0 0  1.156521739130435 0 0  1.17304347826087 0 0  1.189565217391304 0 0  1.206086956521739 0 0  1.222608695652174 0 0  1.239130434782609 0 0  1.255652173913044 0 0  1.272173913043478 0 0  1.288695652173913 0 0  1.305217391304348 0 0  1.321739130434783 0 0  1.338260869565217 0 0  1.354782608695652 0 0  1.371304347826087 0 0  1.387826086956522 0 0  1.404347826086957 0 0  1.420869565217391 0 0  1.437391304347826 0 0  1.453913043478261 0 0  1.470434782608696 0 0  1.486956521739131 0 0  1.503478260869565 0 0  1.52 0 0  1.536521739130435 0 0  1.55304347826087 0 0  1.569565217391304 0 0  1.586086956521739 0 0  1.602608695652174 0 0  1.619130434782609 0 0  1.635652173913043 0 0  1.652173913043478 0 0  1.668695652173913 0 0  1.685217391304348 0 0  1.701739130434782 0 0  1.718260869565217 0 0  1.734782608695652 0 0  1.751304347826087 0 0  1.767826086956522 0 0  1.784347826086957 0 0  1.800869565217391 0 0  1.817391304347826 0 0  1.833913043478261 0 0  1.850434782608696 0 0  1.86695652173913 0 0  1.883478260869565 0 0  1.9 0 0  1.916521739130435 0 0  1.933043478260869 0 0  1.949565217391304 0 0  1.966086956521739 0 0  1.982608695652174 0 0  1.999130434782608 0 0  2.015652173913043 0 0  2.032173913043478 0 0  2.048695652173913 0 0  2.065217391304348 0 0  2.081739130434782 0 0  2.098260869565217 0 0  2.114782608695652 0 0  2.131304347826087 0 0  2.147826086956522 0 0  2.164347826086956 0 0  2.180869565217391 0 0  2.197391304347826 0 0  2.213913043478261 0 0  2.230434782608695 0 0  2.24695652173913 0 0  2.263478260869565 0 0  2.28 0 0  2.296521739130434 0 0  2.31304347826087 0 0  2.329565217391304 0 0  2.346086956521739 0 0  2.362608695652174 0 0  2.379130434782609 0 0  2.395652173913044 0 0  2.412173913043478 0 0  2.428695652173913 0 0  2.445217391304348 0 0  2.461739130434782 0 0  2.478260869565217 0 0  2.494782608695652 0 0  2.511304347826087 0 0  2.527826086956522 0 0  2.544347826086956 0 0  2.560869565217391 0 0  2.577391304347826 0 0  2.593913043478261 0 0  2.610434782608696 0 0  2.62695652173913 0 0  2.643478260869565 0 0  2.66 0 0  2.676521739130435 0 0  2.693043478260869 0 0  2.709565217391304 0 0  2.726086956521739 0 0  2.742608695652174 0 0  2.759130434782609 0 0  2.775652173913044 0 0  2.792173913043478 0 0  2.808695652173913 0 0  2.825217391304347 0 0  2.841739130434783 0 0  2.858260869565217 0 0  2.874782608695652 0 0  2.891304347826087 0 0  2.907826086956522 0 0  2.924347826086957 0 0  2.940869565217391 0 0  2.957391304347826 0 0  2.973913043478261 0 0  2.990434782608696 0 0  3.006956521739131 0 0  3.023478260869565 0 0  3.04 0 0  3.056521739130435 0 0  3.073043478260869 0 0  3.089565217391304 0 0  3.106086956521739 0 0  3.122608695652174 0 0  3.139130434782609 0 0  3.155652173913043 0 0  3.172173913043478 0 0  3.188695652173913 0 0  3.205217391304347 0 0  3.221739130434782 0 0  3.238260869565217 0 0  3.254782608695652 0 0  3.271304347826087 0 0  3.287826086956521 0 0  3.304347826086957 0 0  3.320869565217391 0 0  3.337391304347826 0 0  3.353913043478261 0 0  3.370434782608696 0 0  3.386956521739131 0 0  3.403478260869565 0 0  3.419999999999999 0 0  3.436521739130435 0 0  3.453043478260869 0 0  3.469565217391304 0 0  3.486086956521739 0 0  3.502608695652174 0 0  3.519130434782609 0 0  3.535652173913043 0 0  3.552173913043478 0 0  3.568695652173913 0 0  3.585217391304347 0 0  3.601739130434782 0 0  3.618260869565217 0 0  3.634782608695652 0 0  3.651304347826087 0 0  3.667826086956521 0 0  3.684347826086956 0 0  3.700869565217391 0 0  3.717391304347826 0 0  3.733913043478261 0 0  3.750434782608695 0 0  3.766956521739131 0 0  3.783478260869565 0 0  3.8 0 0  0 0.01666666666666667 0  0.01652173913043478 0.01666666666666667 0  0.03304347826086956 0.01666666666666667 0  0.04956521739130434 0.01666666666666667 0  0.06608695652173913 0.01666666666666667 0  0.08260869565217391 0.01666666666666667 0  0.09913043478260869 0.01666666666666667 0  0.1156521739130435 0.01666666666666667 0  0.1321739130434783 0.01666666666666667 0  0.148695652173913 0.01666666666666667 0  0.1652173913043478 0.01666666666666667 0  0.1817391304347826 0.01666666666666667 0  0.1982608695652174 0.01666666666666667 0  0.2147826086956522 0.01666666666666667 0  0.2313043478260869 0.01666666666666667 0  0.2478260869565218 0.01666666666666667 0  0.2643478260869565 0.01666666666666667 0  0.2808695652173913 0.01666666666666667 0  0.2973913043478261 0.01666666666666667 0  0.3139130434782609 0.01666666666666667 0  0.3304347826086956 0.01666666666666667 0  0.3469565217391304 0.01666666666666667 0  0.3634782608695652 0.01666666666666667 0  0.3799999999999999 0.01666666666666667 0  0.3965217391304348 0.01666666666666667 0  0.4130434782608696 0.01666666666666667 0  0.4295652173913043 0.01666666666666667 0  0.4460869565217391 0.01666666666666667 0  0.4626086956521739 0.01666666666666667 0  0.4791304347826086 0.01666666666666667 0  0.4956521739130435 0.01666666666666667 0  0.5121739130434783 0.01666666666666667 0  0.528695652173913 0.01666666666666667 0  0.5452173913043478 0.01666666666666667 0  0.5617391304347825 0.01666666666666667 0  0.5782608695652174 0.01666666666666667 0  0.5947826086956521 0.01666666666666667 0  0.6113043478260869 0.01666666666666667 0  0.6278260869565218 0.01666666666666667 0  0.6443478260869565 0.01666666666666667 0  0.6608695652173913 0.01666666666666667 0  0.677391304347826 0.01666666666666667 0  0.6939130434782609 0.01666666666666667 0  0.7104347826086956 0.01666666666666667 0  0.7269565217391304 0.01666666666666667 0  0.7434782608695653 0.01666666666666667 0  0.7599999999999999 0.01666666666666667 0  0.7765217391304348 0.01666666666666667 0  0.7930434782608695 0.01666666666666667 0  0.8095652173913043 0.01666666666666667 0  0.8260869565217391 0.01666666666666667 0  0.8426086956521739 0.01666666666666667 0  0.8591304347826086 0.01666666666666667 0  0.8756521739130434 0.01666666666666667 0  0.8921739130434783 0.01666666666666667 0  0.908695652173913 0.01666666666666667 0  0.9252173913043478 0.01666666666666667 0  0.9417391304347826 0.01666666666666667 0  0.9582608695652173 0.01666666666666667 0  0.9747826086956521 0.01666666666666667 0  0.991304347826087 0.01666666666666667 0  1.007826086956522 0.01666666666666667 0  1.024347826086957 0.01666666666666667 0  1.040869565217391 0.01666666666666667 0  1.057391304347826 0.01666666666666667 0  1.073913043478261 0.01666666666666667 0  1.090434782608696 0.01666666666666667 0  1.10695652173913 0.01666666666666667 0  1.123478260869565 0.01666666666666667 0  1.14 0.01666666666666667 0  1.156521739130435 0.01666666666666667 0  1.17304347826087 0.01666666666666667 0  1.189565217391304 0.01666666666666667 0  1.206086956521739 0.01666666666666667 0  1.222608695652174 0.01666666666666667 0  1.239130434782609 0.01666666666666667 0  1.255652173913044 0.01666666666666667 0  1.272173913043478 0.01666666666666667 0  1.288695652173913 0.01666666666666667 0  1.305217391304348 0.01666666666666667 0  1.321739130434783 0.01666666666666667 0  1.338260869565217 0.01666666666666667 0  1.354782608695652 0.01666666666666667 0  1.371304347826087 0.01666666666666667 0  1.387826086956522 0.01666666666666667 0  1.404347826086957 0.01666666666666667 0  1.420869565217391 0.01666666666666667 0  1.437391304347826 0.01666666666666667 0  1.453913043478261 0.01666666666666667 0  1.470434782608696 0.01666666666666667 0  1.486956521739131 0.01666666666666667 0  1.503478260869565 0.01666666666666667 0  1.52 0.01666666666666667 0  1.536521739130435 0.01666666666666667 0  1.55304347826087 0.01666666666666667 0  1.569565217391304 0.01666666666666667 0  1.586086956521739 0.01666666666666667 0  1.602608695652174 0.01666666666666667 0  1.619130434782609 0.01666666666666667 0  1.635652173913043 0.01666666666666667 0  1.652173913043478 0.01666666666666667 0  1.668695652173913 0.01666666666666667 0  1.685217391304348 0.01666666666666667 0  1.701739130434782 0.01666666666666667 0  1.718260869565217 0.01666666666666667 0  1.734782608695652 0.01666666666666667 0  1.751304347826087 0.01666666666666667 0  1.767826086956522 0.01666666666666667 0  1.784347826086957 0.01666666666666667 0  1.800869565217391 0.0166666666666666
[...]
<PointData  Scalars="rho"> 
<DataArray  type="Float64"  Name="rho"  format="ascii">9.9269860164166868e-01  9.8927104341703476e-01  9.8649482790449872e-01  9.8576767387156117e-01  9.9312106738820238e-01  9.8375859089149598e-01  9.7299073062744945e-01  9.5546939764922223e-01  9.3776333888506291e-01  8.9966871156837847e-01  8.6254384070480861e-01  8.2961899739538780e-01  8.0803498470204072e-01  8.0292981604756242e-01  8.1340241466181795e-01  8.3991112205288487e-01  8.6097056153052898e-01  8.8746386856881765e-01  9.1134141582739436e-01  9.3171013112489187e-01  9.4969130820058179e-01  9.6819894919907734e-01  9.9475425359982617e-01  9.9518522056117065e-01  9.9100156214099722e-01  9.3759191434575195e-01  8.8243575525727047e-01  8.6903879391470995e-01  8.5428914676422718e-01  8.7272819938160373e-01  9.1493504154355398e-01  9.7640812710729397e-01  1.0000000000000000e+00  1.0000000000000000e+00  1.0000000000000000e+00  9.6321560229030367e-01  8.8222416755387278e-01  8.6514318870647200e-01  7.9970707658371920e-01  7.9730346844528821e-01  7.9076526068638564e-01  8.3188953272832988e-01  8.8142204084858089e-01  9.4824322745401624e-01  1.0000000000000000e+00  1.0000000000000000e+00  1.0000000000000000e+00  1.0000000000000000e+00  1.0000000000000000e+00  9.9817794220410982e-01  9.8956797846907962e-01  9.7826967263297204e-01  9.6610014069497430e-01  9.5440061255431030e-01  9.4501460581815977e-01  9.3854913202226087e-01  9.3386305586974561e-01  9.2950755969366683e-01  9.2469872926056118e-01  9.2027107391387220e-01  9.1685979198564704e-01  9.1497811025215836e-01  9.1504099364725422e-01  9.1731728390750178e-01  9.2074555768507771e-01  9.2585497593736954e-01  9.3208834904079130e-01  9.3938200258601057e-01  9.4788638011649373e-01  9.0459440136452685e-01  9.2901760786641330e-01  9.5251048310317465e-01  9.7459041845404804e-01  9.9726127200336645e-01  1.0000000000000000e+00  1.0000000000000000e+00  1.0000000000000000e+00  9.8835453519807004e-01  9.6310190129165940e-01  9.4107320239152625e-01  8.8937391942754829e-01  8.6154127106713196e-01  8.4687393659823851e-01  8.7185345161510219e-01  9.3498629832669711e-01  1.0000000000000000e+00  9.9999997453811562e-01  9.9999836219839400e-01  9.9999679776491035e-01  9.9999553648965012e-01  9.9999457290822125e-01  9.9999390126319598e-01  9.9999355118036104e-01  9.9999351830494732e-01  9.9999368461148830e-01  9.9999384447831263e-01  9.9999380773116575e-01  9.9999338080481703e-01  9.9999231236597919e-01  9.9999029190218769e-01  9.9998701145762336e-01  9.9998231344073540e-01  9.9997645142488878e-01  9.9997040542103177e-01  9.9996593442675319e-01  9.9996485501756793e-01  9.9996761109738064e-01  9.9997270245037972e-01  9.9997799399847720e-01  9.9998199536541232e-01  9.9998395488410730e-01  9.9998359348063770e-01  9.9999252817066020e-01  9.9999105787487386e-01  9.9998770196098297e-01  8.9319433966579587e-01  8.4505658669826134e-01  9.1083584028417242e-01  8.7813665318066880e-01  8.0087368748637633e-01  6.9162811024495108e-01  6.6081619046402085e-01  6.9356113312699441e-01  7.8447147967862596e-01  8.3226613821095330e-01  8.5707696751759554e-01  8.9903360291668355e-01  9.2136993942931456e-01  9.2322147915701880e-01  9.8749802703507805e-01  9.8153345524323676e-01  9.6431777194917279e-01  9.5264271331252171e-01  9.3504107507331669e-01  9.5047196848260407e-01  9.3543478374764677e-01  9.1945432944376093e-01  9.0001320889364578e-01  8.5162847617443493e-01  7.9946311864369723e-01  8.5398588411162168e-01  8.2722087279303314e-01  8.0099478567937776e-01  7.5493601655741038e-01  7.0056220848715978e-01  7.4338037012527192e-01  7.2704536710076606e-01  7.6265754734529378e-01  7.4751753775850227e-01  7.3617862916187204e-01  7.3016436836892618e-01  7.0760023804260230e-01  7.1605716599523273e-01  7.4074611748300290e-01  7.5786177628735196e-01  7.8043191982145921e-01  8.1756514565243776e-01  8.6102134940845265e-01  9.0408056685650695e-01  9.1328920781532696e-01  8.8594277718920411e-01  8.9205086067479322e-01  8.8549283805933476e-01  8.6404563728321848e-01  7.8096139912521423e-01  7.7115474561648290e-01  7.5034841125909080e-01  7.6390001069893598e-01  8.7665714219845470e-01  8.7710530871164494e-01  9.4755238418116505e-01  9.7939332538156365e-01  8.3145361551844044e-01  9.2076478444633836e-01  9.2660566028251523e-01  9.5374461368619434e-01  9.3433798772872700e-01  9.9943750837006962e-01  9.8147193641986719e-01  9.2090340650730584e-01  8.9408265927319608e-01  8.9214672315797727e-01  9.2982382653900786e-01  8.3127055849361886e-01  8.0334108313557617e-01  7.4470603425514492e-01  6.0174079475297315e-01  5.7332259711749622e-01  5.4050415246684647e-01  4.9509378342859856e-01  4.3559347872488718e-01  3.6187529773167126e-01  3.1573678575059799e-01  2.4186422645846550e-01  1.4050503866694697e-01  7.7940921736353544e-02  1.6385526265108884e-02  2.3092033242922673e-02  1.1386334709943728e-04  8.7919866484052243e-05  6.8161998750554523e-05  5.2987508881390151e-05  4.1200813688654872e-05  3.1861276116190098e-05  2.4327859576751458e-05  1.8224582334303686e-05  1.3334477197572965e-05  9.5018932904424058e-06  6.5796983560627434e-06  4.4156247704866081e-06  2.8586213040959970e-06  1.7697605006462862e-06  8.5836452957644984e-07  3.7425841728625250e-07  1.6189112913126011e-07  3.4191264304771867e-08  0.0000000000000000e+00  0.0000000000000000e+00  0.0000000000000000e+00  0.0000000000000000e+00  0.0000000000000000e+00  0.0000000000000000e+00  0.0000000000000000e+00  0.0000000000000000e+00  0.0000000000000000e+00  0.0000000000000000e+00  0.0000000000000000e+00  0.0000000000000000e+00  0.0000000000000000e+00  0.0000000000000000e+00  0.0000000000000000e+00  9.8735558967481696e-01  9.7754292984053381e-01  9.7227188723505809e-01  9.7287624126336647e-01  9.7152782557312223e-01  9.7521944781497638e-01  9.5879892521619914e-01  9.4418566491527134e-01  9.0699490710249808e-01  8.4204990801353707e-01  7.7857546826722468e-01  7.2049284669342417e-01  6.8105585602058805e-01  6.7062768718473886e-01  6.8778242653540944e-01  7.3499747632055501e-01  7.9590274692349472e-01  8.3010683370595528e-01  8.6443786341342055e-01  8.9432676990942295e-01  9.1893677291050935e-01  9.4172149261437721e-01  9.7348308879226841e-01  9.8999683257790549e-01  1.0000000000000000e+00  1.0000000000000000e+00  9.5739984861267113e-01  9.8754465138192860e-01  9.1638249408757511e-01  9.0610062558224314e-01  9.2192015976007657e-01  9.7508072174556049e-01  1.0000000000000000e+00  1.0000000000000000e+00  1.0000000000000000e+00  9.0208593032120854e-01  7.4745848945961357e-01  8.0655000806444255e-01  7.9396239377845823e-01  7.8628985114198191e-01  7.7665467881346006e-01  7.7333037625698120e-01  7.8500716659579506e-01  9.1187807588252090e-01  1.0000000000000000e+00  1.0000000000000000e+00  1.0000000000000000e+00  9.7539251065223187e-01  9.7131225188656822e-01  9.5749462008319153e-01  9.4522960644665521e-01  9.2860085548693871e-01  9.1142363671308102e-01  8.9624890475343422e-01  8.8688878419537232e-01  8.8462071589703228e-01  8.6450668416199472e-01  8.6263545678749243e-01  8.5902644973433118e-01  8.5464751657749771e-01  8.4989127762635508e-01  8.4553095869810413e-01  8.4269841488134056e-01  8.6083186684965096e-01  8.5535494957637437e-01  8.5418550133640792e-01  8.5701547783102050e-01  8.6385265371312647e-01  8.7411913185097256e-01  8.8740322728006282e-01  8.4537422345066437e-01  8.8304266569276213e-01  9.1908756463481533e-01  9.5223909949057606e-01  9.8286352433301449e-01  9.9586312681191336e-01  1.0000000000000000e+00  1.0000000000000000e+00  9.8738540691815890e-01  9.6561839121150106e-01  8.9898060830398474e-01  8.1314314367958107e-01  7.1678515394388054e-01  7.1350864683485293e-01  8.0953762224591475e-01  9.4217621691620024e-01  9.9999999637885673e-01  9.9999636867300612e-01  9.9999264570145008e-01  9.9998963639971494e-01  9.9998732079679098e-01  9.9998564959909153e-01  9.9998475755924976e-01  9.9998472652541737e-01  9.7863061349088032e-01  9.9550168516353199e-01  9.9998604644166322e-01  9.9998543527353623e-01  9.9998346198568322e-01  9.9997934980314895e-01  9.9997221684643478e-01  9.9996137149396747e-01  9.9994696145493744e-01  9.9993104050253545e-01  9.9991829189070336e-01  9.9991444235639093e-01  9.9992146427599060e-01  9.9993497870374715e-01  9.9994883131589873e-01  9.9995928951756585e-01  9.9996469298406820e-01  9.9996448651976155e-01  9.9995854477067991e-01  9.9998067518262135e-01  9.9997344004163780e-01  9.2595080522256790e-01  8.5813262653554800e-01  9.4244432899050501e-01  9.7769435662548732e-01  9.0071544386581825e-01  8.0331258127213212e-01  6.2566563433414923e-01  5.9407280675073548e-01  6.9340291763307005e-01  7.9437480921047954e-01  8.1117967994071771e-01  8.3842169291311153e-01  8.8694214549801342e-01  8.8416478868461701e-01  8.7835195731106863e-01  9.1316609810173310e-01  9.0307850537098833e-01  8.9990516851446711e-01  9.0336775418143100e-01  9.1954271936297516e-01  9.0639671440758451e-01  8.9009135130050021e-01  8.7174159330779699e-01  8.1693791567843155e-01  7.5694913208066716e-01  8.1900474725706329e-01  7.4207682829529031e-01  6.9439085352887964e-01  6.3099455654171643e-01  5.9380184016551529e-01  5.9769078976845536e-01  6.0660757187105885e-01  6.0350287781830325e-01  6.3667015314603215e-01  6.1934825867988863e-01  6.1175681568747486e-01  5.9455056571024711e-01  5.7049470350218945e-01  6.0975691617186756e-01  6.6531492763968836e-01  7.2909670904487367e-01  7.8663666152999812e-01  8.5915091043829450e-01  9.0770189104387367e-01  9.1654763820211016e-01  8.5292592667698586e-01  8.5004842170263506e-01  8.4112298215062986e-01  8.2339681745908599e-01  6.9789155160349792e-01  6.9689716463516949e-01  6.7100830924529153e-01  6.9226104966524338e-01  7.4403964599729477e-01  8.6271701125483014e-01  9.7308822431381203e-01  8.0492986513272136e-01  9.6622477469854096e-01  9.9683330691616867e-01  9.9846117290561265e-01  9.9858671293814816e-01  9.9861865870409861e-01  9.9865937162602858e-01  8.9333907137620505e-01  8.4568194392490648e-01  8.2331644052594366e-01  8.3273599310589563e-01  8.3564191805107491e-01  8.1126672432082136e-01  7.6741736358002488e-01  7.4532004885599346e-01  6.8510604881391934e-01  6.5819019247258825e-01  6.0257933322638702e-01  5.7686964063116020e-01  5.1295186110448510e-01  4.2544302127454170e-01  3.6109389402821057e-01  3.0877478249934198e-01  2.5365824833544376e-01  6.7750395249855613e-02  1.0838375084694490e-02  1.7856975916558365e-02  2.6390188080362923e-04  2.4537666898584361e-04  1.5871140943863923e-04  1.2354827445813931e-04  9.6280422511313743e-05  7.4616793565567715e-05  5.7031505327555370e-05  4.2697186579700252e-05  3.1173403121216246e-05  2.2139420725730699e-05  1.5266048767316543e-05  1.0194186203479091e-05  6.5608650035825244e-06  4.0316398802523492e-06  1.9345831274414015e-06  8.2793594243853096e-07  3.4236042878942880e-07  5.2782135265075257e-08  0.0000000000000000e+00  0.0000000000000000e+00  0.0000000000000000e+00  0.0000000000000000e+00  0.0000000000000000e+00  0.0000000000000000e+00  0.0000000000000000e+00  0.0000000000000000e+00  0.0000000000000000e+00  0.0000000000000000e+00  0.0000000000000000e+00  0.0000000000000000e+00  0.0000000000000000e+00  0.0000000000000000e+00  0.0000000000000000e+00  9.8149622511283241e-01  9.6813103328581085e-01  9.7006372919365513e-01  9.6569803802743204e-01  9.6785544460206019e-01  9.8499465383947993e-01  9.5619477581650036e-01  9.3903959509944601e-01  8.9093014612883015e-01  8.0544003538576681e-01  7.1956677395181756e-01  6.7059432268794772e-01  5.5049774928457873e-01  5.0873681708671870e-01  5.1170823164084256e-01  5.6579355135360143e-01  6.1828385774908201e-01  6.8847307983388906e-01  7.5863556507513863e-01  8.1831475593733938e-01  8.6501770273788869e-01  9.0525719601405752e-01  9.4463968386015895e-01  9.9073560776684233e-01  1.0000000000000000e+00  9.8866038488253760e-01  9.4172153863788177e-01  9.5745703779158298e-01  8.7882819911065235e-01  7.8844337292943045e-01  7.2622889380795952e-01  7.1069502762397641e-01  7.4433728007732169e-01  7.8767292913502218e-01  7.7096304820815065e-01  5.9485799043774024e-01  5.6592849594000127e-01  5.9029704525750459e-01  6.1039651926376404e-01  6.1063851734641172e-01  6.3502823674157372e-01  6.4802145692176349e-01  6.4958071104774695e-01  7.6946997240770554e-01  8.9236898577224666e-01  9.2479963703308421e-01  9.1775162423628098e-01  7.9134276615813970e-01  7.8415780460681495e-01  7.7456995206845802e-01  7.6020706266351012e-01  7.4020003084461983e-01  7.1937874211363184e-01  7.0131388426223162e-01  6.9118609401899145e-01  6.9171369942740790e-01  6.9903905666131794e-01  7.0752321063781454e-01  7.1060706863123779e-01  7.0931749780588760e-01  7.0443560163228180e-01  6.9720732997324653e-01  6.8962436139888539e-01  7.2177786282710554e-01  7.2008162172733492e-01  7.1566095569859745e-01  7.1178362321633903e-01  7.1045610674668147e-01  7.1070136582433996e-01  7.1207485339359777e-01  7.1136960590284726e-01  6.7206274115886444e-01  6.9065781237565571e-01  7.1152462993303378e-01  7.2491505723718574e-01  7.2853629752982663e-01  7.2681559351989966e-01  7.0725500359951432e-01  6.9950302979744383e-01  6.5694167277445603e-01  5.9924027397737289e-01  4.7087546022013477e-01  3.7807034730576161e-01  3.6271924579231790e-01  4.2338094934286508e-01  5.9553407580940643e-01  7.4863975303788755e-01  8.3992826354084305e-01  7.7877110055177390e-01  7.7278258798662325e-01  8.6270249415325939e-01  8.6176165052182496e-01  8.2039400839581045e-01  7.6168368628331329e-01  9.0167726759880351e-01  6.8162813817474543e-01  8.4902765752113796e-01  9.8667725094159298e-01  9.9997858792331296e-01  9.9997349407559910e-01  9.9996353491058387e-01  9.9994682955912306e-01  9.9992237382458471e-01  9.9989272304819354e-01  8.9253537345183109e-01  9.0718051408193356e-01  8.9285930458311624e-01  9.0876410936185448e-01  9.7302834764599744e-01  9.2911816055547958e-01  9.6575355577596678e-01  9.7631990453325779e-01  9.7442975161405188e-01  9.6806909278463038e-01  8.3438942166923724e-01  6.7481916059940905e-01  6.3902264059025915e-01  8.0017237680864983e-01  7.9412923730451201e-01  6.8280396578557290e-01  6.2318156227532828e-01  4.7500439627941682e-01  2.3166715453662581e-01  2.3752347944062088e-01  3.6106808731955048e-01  4.2836074458638818e-01  4.6008395065315505e-01  4.8712003501513812e-01  4.7388860491159945e-01  4.7197038172996214e-01  4.7418475262292703e-01  4.7367169482259464e-01  5.1127760977841208e-01  4.6850806387783489e-01  4.9088838544888547e-01  4.7748549688541714e-01  4.6985133166237208e-01  4.5998885403164930e-01  4.0559777236148975e-01  3.3587765839943923e-01  3.9852525707808861e-01  3.6780555758965916e-01  3.0842228846852171e-01  3.0847699153572283e-01  3.1339893269457669e-01  3.0185530602622673e-01  3.0507702392657327e-01  3.2131648996419532e-01  3.5611625030621347e-01  3.4201522264368023e-01  3.4193541545542844e-01  3.1613251159455397e-01  2.9451907484993689e-01  2.9693007402189514e-01  3.1696473440809658e-01  3.4638459462913324e-01  3.9364329523366853e-01  4.5878898411229141e-01  4.9765643664905762e-01  5.5654509119957418e-01  5.5179235332289822e-01  4.6162605802874945e-01  4.6617595778472065e-01  4.5638975728266928e-01  4.3513977170271118e-01  3.3074242739189341e-01  3.3178597991992115e-01  3.3255917320450812e-01  3.7800624736456295e-01  5.3912373232650801e-01  5.4934627462950880e-01  5.5903060883975586e-01  7.1468592959139554e-01  7.6342610139535394e-01  8.0269513055039432e-01  8.3631783415229199e-01  8.6727513047379245e-01  8.5272287112849376e-01  7.2274569405667088e-01  7.1568513032835568e-01  6.8839627217475519e-01  6.8925444567510452e-01  6.8473012486642526e-01  6.6067570240968732e-01  6.4761816738800704e-01  6.5568525414164192e-01  5.9993349703883936e-01  5.9060231487117754e-01  5.7785101300870567e-01  5.7523915774483059e-01  5.2562344326732369e-01  4.6573831023838386e-01  4.2187357974861750e-01  3.7133928537465954e-01  3.3184349171907662e-01  2.2226155813591369e-01  2.6430821195786647e-01  2.4198835055183676e-01  9.5814472009535495e-02  1.7281782111468361e-02  1.1078710316412667e-02  4.3680411589236915e-03  1.3133986500567685e-04  1.0206546037861887e-04  7.7738439166491089e-05  5.7609444939975065e-05  4.1404970193380988e-05  2.8826968459555831e-05  1.9419602838890252e-05  1.2621511049422712e-05  7.8600338455994977e-06  4.5849828844514435e-06  1.7119118134162714e-06  7.7431332823086900e-07  2.0461349504713678e-07  0.0000000000000000e+00  0.0000000000000000e+00  0.0000000000000000e+00  0.0000000000000000e+00  0.0000000000000000e+00  0.0000000000000000e+00  0.0000000000000000e+00  0.0000000000000000e+00  0.0000000000000000e+00  0.0000000000000000e+00  0.0000000000000000e+00  0.0000000000000000e+00  0.0000000000000000e+00  0.0000000000000000e+00  0.0000000000000000e+00  0.0000000000000000e+00  9.6976651853021512e-01  9.4846409039777679e-01  9.5352255106082051e-01  9.6198017478478903e-01  9.6923086865016372e-01  9.7424162013119675e-01  9.6330693319910909e-01  9.2105114153358592e-01  8.7650833627927260e-01  7.3376328850888806e-01  5.7742920390125785e-01  3.5474359365524177e-01  1.8871805618119111e-01  1.0480189296147481e-01  1.0440737825560877e-01  1.7879588521764017e-01  2.6067196932454778e-01  3.7388925308433829e-01  4.9452069451986480e-01  5.8238603892180796e-01  6.5269454847186492e-01  7.1028587181598213e-01  7.6653579182094467e-01  8.2437410556849910e-01  8.5090858675036585e-01  8.7381927950704086e-01  8.6078217341918284e-01  9.5246707095979155e-01  8.1045684494406123e-01  6.8000612783216785e-01  5.5469711776983266e-01  3.9498879872440124e-01  3.3682614546865491e-01  3.1592394656322237e-01  2.7005207952371962e-01  1.1355197355277520e-01  5.0750635749663546e-05  6.4733071293632515e-05  8.0790982199491110e-05  9.9665905205596531e-05  1.2164598654532147e-04  1.4626030816667409e-04  1.7763565083667222e-04  2.5722431641655035e-02  1.1806562899752140e-01  2.2614810714087905e-01  2.3434431556431634e-01  1.6918710855774394e-01  1.7639673057494382e-01  1.4027507187352428e-01  1.4499433414278384e-01  1.3469505600997847e-01  1.1505418554449391e-01  9.0925262098081980e-02  6.9128022481123291e-02  3.4495621399155914e-02  1.4099836142913373e-02  3.4764546599857805e-05  3.5294824921263925e-05  2.9568903653136439e-05  2.2771560735766138e-05  1.8745180218809373e-05  1.7853076266308400e-05  1.9406100577497330e-05  2.1152647978412413e-05  1.9404940564476943e-05  1.9242937309445984e-02  4.4842171716712197e-02  7.4015315144760771e-02  1.0584592856260630e-01  1.3643160050620484e-01  1.2398896624520286e-01  1.7163686083187141e-01  2.1339307698262933e-01  2.4818675814495192e-01  2.7489110845112652e-01  3.4057965959749170e-01  3.2992043846392816e-01  3.4417809150735656e-01  3.0354252440105606e-01  2.5065808589374095e-01  1.4643546723505785e-01  2.8597224194490745e-05  1.1092849472271614e-05  2.0434993049309794e-02  1.5084235335319052e-01  2.6794286056615335e-01  4.0399358899771487e-01  3.7351932926497589e-01  2.4267304606071916e-01  3.3502818766799891e-01  3.2131064262153219e-01  2.9561157579380271e-01  3.0646038725136687e-01  3.0148615494577741e-01  4.1566102094848173e-01  4.4157755610424643e-01  6.0724322351619542e-01  6.4618338466102421e-01  6.0910569910088108e-01  6.4345417580225550e-01  6.6870940885853336e-01  6.3992346141735090e-01  5.3455317105282885e-01  3.9511829393442299e-01  3.9598520074956001e-01  3.6261075031161538e-01  3.4735712235180527e-01  3.3250017275874283e-01  3.8572577643358386e-01  4.3518357292805787e-01  4.8284626333904423e-01  5.4646739211557804e-01  5.8169094459348913e-01  4.6371845718995935e-01  3.8903191266629084e-01  4.1809080871026061e-01  4.1513057198244346e-01  5.5465444156785082e-01  4.2843061763090456e-01  3.5303904540533187e-01  2.9803632426366689e-01  9.1692731250892306e-02  1.2678857209515884e-04  1.3885499703431990e-04  2.1188749549496025e-02  3.2311957139772349e-02  4.4889531001585457e-02  5.5293054081308177e-02  5.5186646479101494e-02  5.6178012735954762e-02  5.7498126809726519e-02  6.1945101547082347e-02  5.6606479055610545e-02  7.8908084103129550e-02  7.2960913384482115e-02  5.4798462704223470e-0