<?xml version="1.0"?>
<VTKFile type="UnstructuredGrid"  version="0.1"  >
<UnstructuredGrid>
<Piece  NumberOfPoints="7161" NumberOfCells="13800">
<Points>
<DataArray  type="Float64"  NumberOfComponents="3"  format="ascii">0 0 0  0.01652173913043478 0 0  0.03304347826086956 0 0  0.04956521739130434 0 0  0.06608695652173913 0 0  0.08260869565217391 0 0  0.09913043478260869 0 0  0.1156521739130435 0 0  0.1321739130434783 0 0  0.148695652173913 0 0  0.1652173913043478 0 0  0.1817391304347826 0 0  0.1982608695652174 0 0  0.2147826086956522 0 0  0.2313043478260869 0 0  0.2478260869565218 0 0  0.2643478260869565 0 0  0.2808695652173913 0 0  0.2973913043478261 0 0  0.3139130434782609 0 0  0.3304347826086956 0 0  0.3469565217391304 0 0  0.3634782608695652 0 0  0.3799999999999999 0 0  0.3965217391304348 0 0  0.4130434782608696 0 0  0.4295652173913043 0 0  0.4460869565217391 0 0  0.4626086956521739 0 0  0.4791304347826086 0 0  0.4956521739130435 0 0  0.5121739130434783 0 0  0.528695652173913 0 0  0.5452173913043478 0 0  0.5617391304347825 0 0  0.5782608695652174 0 0  0.5947826086956521 0 0  0.6113043478260869 0 0  0.6278260869565218 0 0  0.6443478260869565 0 0  0.6608695652173913 0 0  0.677391304347826 0 0  0.6939130434782609 0 0  0.7104347826086956 0 0  0.7269565217391304 0 0  0.7434782608695653 0 0  0.7599999999999999 0 0  0.7765217391304348 0 0  0.7930434782608695 0 0  0.8095652173913043 0 0  0.8260869565217391 0 0  0.8426086956521739 0 0  0.8591304347826086 0 0  0.8756521739130434 0 0  0.8921739130434783 0 0  0.908695652173913 0 0  0.9252173913043478 0 0  0.9417391304347826 0 0  0.9582608695652173 0 0  0.9747826086956521 0 0  0.991304347826087 0 0  1.007826086956522 0 0  1.024347826086957 0 0  1.040869565217391 0 0  1.057391304347826 0 0  1.073913043478261 0 0  1.090434782608696 0 0  1.10695652173913 0 0  1.123478260869565 0 0  1.14 0 0  1.156521739130435 0 0  1.17304347826087 0 0  1.189565217391304 0 0  1.206086956521739 0 0  1.222608695652174 0 0  1.239130434782609 0 0  1.255652173913044 0 0  1.272173913043478 0 0  1.288695652173913 0 0  1.305217391304348 0 0  1.321739130434783 0 0  1.338260869565217 0 0  1.354782608695652 0 0  1.371304347826087 0 0  1.387826086956522 0 0  1.404347826086957 0 0  1.420869565217391 0 0  1.437391304347826 0 0  1.453913043478261 0 0  1.470434782608696 0 0  1.486956521739131 0 0  1.503478260869565 0 0  1.52 0 0  1.536521739130435 0 0  1.55304347826087 0 0  1.569565217391304 0 0  1.586086956521739 0 0  1.602608695652174 0 0  1.619130434782609 0 0  1.635652173913043 0 0  1.652173913043478 0 0  1.668695652173913 0 0  1.685217391304348 0 0  1.701739130434782 0 0  1.718260869565217 0 0  1.734782608695652 0 0  1.751304347826087 0 0  1.767826086956522 0 0  1.784347826086957 0 0  1.800869565217391 0 0  1.817391304347826 0 0  1.833913043478261 0 0  1.850434782608696 0 0  1.86695652173913 0 0  1.883478260869565 0 0  1.9 0 0  1.916521739130435 0 0  1.933043478260869 0 0  1.949565217391304 0 0  1.966086956521739 0 0  1.982608695652174 0 0  1.999130434782608 0 0  2.015652173913043 0 0  2.032173913043478 0 0  2.048695652173913 0 0  2.065217391304348 0 0  2.081739130434782 0 0  2.098260869565217 0 0  2.114782608695652 0 0  2.131304347826087 0 0  2.147826086956522 0 0  2.164347826086956 0 0  2.180869565217391 0 0  2.197391304347826 0 0  2.213913043478261 0 0  2.230434782608695 0 0  2.24695652173913 0 0  2.263478260869565 0 0  2.28 0 0  2.296521739130434 0 0  2.31304347826087 0 0  2.329565217391304 0 0  2.346086956521739 0 0  2.362608695652174 0 0  2.379130434782609 0 0  2.395652173913044 0 0  2.412173913043478 0 0  2.428695652173913 0 0  2.445217391304348 0 0  2.461739130434782 0 0  2.478260869565217 0 0  2.494782608695652 0 0  2.511304347826087 0 0  2.527826086956522 0 0  2.544347826086956 0 0  2.560869565217391 0 0  2.577391304347826 0 0  2.593913043478261 0 0  2.610434782608696 0 0  2.62695652173913 0 0  2.643478260869565 0 0  2.66 0 0  2.676521739130435 0 0  2.693043478260869 0 0  2.709565217391304 0 0  2.726086956521739 0 0  2.742608695652174 0 0  2.759130434782609 0 0  2.775652173913044 0 0  2.792173913043478 0 0  2.808695652173913 0 0  2.825217391304347 0 0  2.841739130434783 0 0  2.858260869565217 0 0  2.874782608695652 0 0  2.891304347826087 0 0  2.907826086956522 0 0  2.924347826086957 0 0  2.940869565217391 0 0  2.957391304347826 0 0  2.973913043478261 0 0  2.990434782608696 0 0  3.006956521739131 0 0  3.023478260869565 0 0  3.04 0 0  3.056521739130435 0 0  3.073043478260869 0 0  3.089565217391304 0 0  3.106086956521739 0 0  3.122608695652174 0 0  3.139130434782609 0 0  3.155652173913043 0 0  3.172173913043478 0 0  3.188695652173913 0 0  3.205217391304347 0 0  3.221739130434782 0 0  3.238260869565217 0 0  3.254782608695652 0 0  3.271304347826087 0 0  3.287826086956521 0 0  3.304347826086957 0 0  3.320869565217391 0 0  3.337391304347826 0 0  3.353913043478261 0 0  3.370434782608696 0 0  3.386956521739131 0 0  3.403478260869565 0 0  3.419999999999999 0 0  3.436521739130435 0 0  3.453043478260869 0 0  3.469565217391304 0 0  3.486086956521739 0 0  3.502608695652174 0 0  3.519130434782609 0 0  3.535652173913043 0 0  3.552173913043478 0 0  3.568695652173913 0 0  3.585217391304347 0 0  3.601739130434782 0 0  3.618260869565217 0 0  3.634782608695652 0 0  3.651304347826087 0 0  3.667826086956521 0 0  3.684347826086956 0 0  3.700869565217391 0 0  3.717391304347826 0 0  3.733913043478261 0 0  3.750434782608695 0 0  3.766956521739131 0 0  3.783478260869565 0 0  3.8 0 0  0 0.01666666666666667 0  0.01652173913043478 0.01666666666666667 0  0.03304347826086956 0.01666666666666667 0  0.04956521739130434 0.01666666666666667 0  0.06608695652173913 0.01666666666666667 0  0.08260869565217391 0.01666666666666667 0  0.09913043478260869 0.01666666666666667 0  0.1156521739130435 0.01666666666666667 0  0.1321739130434783 0.01666666666666667 0  0.148695652173913 0.01666666666666667 0  0.1652173913043478 0.01666666666666667 0  0.1817391304347826 0.01666666666666667 0  0.1982608695652174 0.01666666666666667 0  0.2147826086956522 0.01666666666666667 0  0.2313043478260869 0.01666666666666667 0  0.2478260869565218 0.01666666666666667 0  0.2643478260869565 0.01666666666666667 0  0.2808695652173913 0.01666666666666667 0  0.2973913043478261 0.01666666666666667 0  0.3139130434782609 0.01666666666666667 0  0.3304347826086956 0.01666666666666667 0  0.3469565217391304 0.01666666666666667 0  0.3634782608695652 0.01666666666666667 0  0.3799999999999999 0.01666666666666667 0  0.3965217391304348 0.01666666666666667 0  0.4130434782608696 0.01666666666666667 0  0.4295652173913043 0.01666666666666667 0  0.4460869565217391 0.01666666666666667 0  0.4626086956521739 0.01666666666666667 0  0.4791304347826086 0.01666666666666667 0  0.4956521739130435 0.01666666666666667 0  0.5121739130434783 0.01666666666666667 0  0.528695652173913 0.01666666666666667 0  0.5452173913043478 0.01666666666666667 0  0.5617391304347825 0.01666666666666667 0  0.5782608695652174 0.01666666666666667 0  0.5947826086956521 0.01666666666666667 0  0.6113043478260869 0.01666666666666667 0  0.6278260869565218 0.01666666666666667 0  0.6443478260869565 0.01666666666666667 0  0.6608695652173913 0.01666666666666667 0  0.677391304347826 0.01666666666666667 0  0.6939130434782609 0.01666666666666667 0  0.7104347826086956 0.01666666666666667 0  0.7269565217391304 0.01666666666666667 0  0.7434782608695653 0.01666666666666667 0  0.7599999999999999 0.01666666666666667 0  0.7765217391304348 0.01666666666666667 0  0.7930434782608695 0.01666666666666667 0  0.8095652173913043 0.01666666666666667 0  0.8260869565217391 0.01666666666666667 0  0.8426086956521739 0.01666666666666667 0  0.8591304347826086 0.01666666666666667 0  0.8756521739130434 0.01666666666666667 0  0.8921739130434783 0.01666666666666667 0  0.908695652173913 0.01666666666666667 0  0.9252173913043478 0.01666666666666667 0  0.9417391304347826 0.01666666666666667 0  0.9582608695652173 0.01666666666666667 0  0.9747826086956521 0.01666666666666667 0  0.991304347826087 0.01666666666666667 0  1.007826086956522 0.01666666666666667 0  1.024347826086957 0.01666666666666667 0  1.040869565217391 0.01666666666666667 0  1.057391304347826 0.01666666666666667 0  1.073913043478261 0.01666666666666667 0  1.090434782608696 0.01666666666666667 0  1.10695652173913 0.01666666666666667 0  1.123478260869565 0.01666666666666667 0  1.14 0.01666666666666667 0  1.156521739130435 0.01666666666666667 0  1.17304347826087 0.01666666666666667 0  1.189565217391304 0.01666666666666667 0  1.206086956521739 0.01666666666666667 0  1.222608695652174 0.01666666666666667 0  1.239130434782609 0.01666666666666667 0  1.255652173913044 0.01666666666666667 0  1.272173913043478 0.01666666666666667 0  1.288695652173913 0.01666666666666667 0  1.305217391304348 0.01666666666666667 0  1.321739130434783 0.01666666666666667 0  1.338260869565217 0.01666666666666667 0  1.354782608695652 0.01666666666666667 0  1.371304347826087 0.01666666666666667 0  1.387826086956522 0.01666666666666667 0  1.404347826086957 0.01666666666666667 0  1.420869565217391 0.01666666666666667 0  1.437391304347826 0.01666666666666667 0  1.453913043478261 0.01666666666666667 0  1.470434782608696 0.01666666666666667 0  1.486956521739131 0.01666666666666667 0  1.503478260869565 0.01666666666666667 0  1.52 0.01666666666666667 0  1.536521739130435 0.01666666666666667 0  1.55304347826087 0.01666666666666667 0  1.569565217391304 0.01666666666666667 0  1.586086956521739 0.01666666666666667 0  1.602608695652174 0.01666666666666667 0  1.619130434782609 0.01666666666666667 0  1.635652173913043 0.01666666666666667 0  1.652173913043478 0.01666666666666667 0  1.668695652173913 0.01666666666666667 0  1.685217391304348 0.01666666666666667 0  1.701739130434782 0.01666666666666667 0  1.718260869565217 0.01666666666666667 0  1.734782608695652 0.01666666666666667 0  1.751304347826087 0.01666666666666667 0  1.767826086956522 0.01666666666666667 0  1.784347826086957 0.01666666666666667 0  1.800869565217391 0.0166666666666666
[...]
<PointData  Scalars="rho_bar"> 
<DataArray  type="Float64"  Name="rho_bar"  format="ascii">1.0026001638750599e+00  1.0007425624080806e+00  1.0004264012691619e+00  9.9912407722180496e-01  9.9711582062784909e-01  9.9416001432629675e-01  9.9304963808554769e-01  9.9624039144137011e-01  1.0013815585183350e+00  1.0082964753241435e+00  1.0178358401418677e+00  1.0243173022435563e+00  1.0253338472777311e+00  1.0250193048900382e+00  1.0247074556596421e+00  1.0203693046492659e+00  1.0113079903603490e+00  1.0023898064690413e+00  9.9575810575802393e-01  9.9393645693887811e-01  9.9789744056549312e-01  1.0011003936999781e+00  1.0005532268630091e+00  9.9979145978159178e-01  1.0000178835870566e+00  9.9976963359226700e-01  1.0006459967071100e+00  9.9993549454213049e-01  9.9560754561389686e-01  1.0061082639951553e+00  1.0212444797699307e+00  1.0090509877360243e+00  9.8882325328970577e-01  9.8249996937446105e-01  9.8220222795909395e-01  9.8361903715228594e-01  9.8563127814982354e-01  9.8699757089785267e-01  9.8747734772059725e-01  9.8720224213196606e-01  9.8640834776434450e-01  9.8539358122094545e-01  9.8465296531335944e-01  9.8452175468286285e-01  9.8465693988070624e-01  9.8448574723707949e-01  9.8392688004356021e-01  9.8327947764915391e-01  9.8283894728521504e-01  9.8271463273599124e-01  9.8279641815899121e-01  9.8289705827714990e-01  9.8286251257717572e-01  9.8258395073807425e-01  9.8204538563098132e-01  9.8133136808164667e-01  9.8055496942788434e-01  9.7979910644613866e-01  9.7912268050092999e-01  9.7860129964792120e-01  9.7835369442166698e-01  9.7848199549499526e-01  9.7884786750580799e-01  9.7907285826269308e-01  9.7895781992289232e-01  9.7862542969992705e-01  9.7826172227624419e-01  9.7795876188372510e-01  9.7772044351694976e-01  9.7751852187679045e-01  9.7735505157494729e-01  9.7727896413407067e-01  9.7732907623930132e-01  9.7748465919942384e-01  9.7761037221051073e-01  9.7742880358130624e-01  9.7678793745077619e-01  9.7582351256684474e-01  9.7477963992410377e-01  9.7399167255438646e-01  9.7379644440854041e-01  9.7427587789622860e-01  9.7526234651569199e-01  9.7645708994883440e-01  9.7740812254386567e-01  9.7741419647033778e-01  9.7546267514226759e-01  9.7037134814621828e-01  9.6118645807508640e-01  9.4857362999454664e-01  9.3611229920866312e-01  9.3108531831616248e-01  9.4725887224851801e-01  9.8908065962155234e-01  1.0140964708480271e+00  1.0034244421463276e+00  9.9719726763145011e-01  1.0011347039151675e+00  1.0008908150862086e+00  9.9638059993368477e-01  9.9501471341365910e-01  1.0077404767391993e+00  1.0234483462734321e+00  1.0172341391811337e+00  9.9466337396704652e-01  9.7983272778275643e-01  9.7434064169716816e-01  9.7635826494189659e-01  9.8480674233090493e-01  9.9964842395666098e-01  1.0189253724044138e+00  1.0224157971617240e+00  1.0069450964502020e+00  9.9656986960265814e-01  9.9885998758538963e-01  1.0004730902379471e+00  1.0006949004651959e+00  9.9940753034664342e-01  9.9555676390981640e-01  1.0131822134668491e+00  1.0073657598115169e+00  9.2950143251018336e-01  9.4392988930712185e-01  1.0446566938750073e+00  1.0856498247921949e+00  1.0883543355553658e+00  1.0738167213270760e+00  1.0592060044223572e+00  1.0501087832830556e+00  1.0466665173988259e+00  1.0484217603510515e+00  1.0538381173405009e+00  1.0606915075929964e+00  1.0670829151148349e+00  1.0714762571448251e+00  1.0727148873659826e+00  1.0705652844841649e+00  1.0658629764755234e+00  1.0599269520941856e+00  1.0541140712874746e+00  1.0495966900472096e+00  1.0467573686617371e+00  1.0451350292334789e+00  1.0431848988270873e+00  1.0386671620311863e+00  1.0310518841981455e+00  1.0218967511328600e+00  1.0126024864459584e+00  1.0038013334446925e+00  9.9644619148755320e-01  9.9110809741121031e-01  9.8627933331509920e-01  9.7995086815455079e-01  9.7179738033117191e-01  9.6307505394053894e-01  9.5544225502231350e-01  9.4930191423722377e-01  9.4392646835638905e-01  9.3848960761508005e-01  9.3257900000854532e-01  9.2673523987304662e-01  9.2180420672246910e-01  9.1808719132502836e-01  9.1557707735174365e-01  9.1411781982243001e-01  9.1347287820214285e-01  9.1353225507175806e-01  9.1412357455299198e-01  9.1468932058847774e-01  9.1491088865949621e-01  9.1532196664219956e-01  9.1669200902699655e-01  9.1922877669216208e-01  9.2241408892019849e-01  9.2556070277878333e-01  9.2831267488606939e-01  9.3058365443605318e-01  9.3264021130284580e-01  9.3516901239886607e-01  9.3891726992611402e-01  9.4382890617578385e-01  9.4867600042915312e-01  9.5234757640907952e-01  9.5480012079567456e-01  9.5684281103782920e-01  9.5964847047261881e-01  9.6959108467169219e-01  9.9163468382190645e-01  1.0072594620031023e+00  9.8723633522215559e-01  1.0791251048988630e+00  4.9984073817973351e-01  -8.3386001519180613e-03  -1.1940392173858363e-02  -1.6098105378391646e-02  2.2241146642118922e-03  3.8857165260490871e-03  -7.9403480572586374e-04  -5.8691161626957895e-04  3.0402242847030734e-04  -1.7598565418156234e-05  -3.7817236952830147e-05  1.9570541707879499e-05  -4.4439406835125915e-06  -2.2527286156277981e-07  6.6248414393217880e-07  -3.3600829255646544e-07  1.1344958016395952e-07  -2.8308731307438323e-08  4.6216810839972341e-09  6.8500209137884436e-11  -4.4387167266985130e-10  2.3566693220334988e-10  -9.1536066219942677e-11  3.0833458979502960e-11  -9.5674560651369293e-12  2.8195749800316119e-12  -8.0222068957334919e-13  2.2307563704177806e-13  -6.0717809868058869e-14  1.6413280845887413e-14  -4.2573784834230726e-15  1.1603948072067205e-15  -2.2066990168426698e-16  5.5275187692711082e-17  -1.4130380161040913e-17  3.8155654592564943e-18  -1.1201460833625491e-18  3.1236780898824065e-19  -1.0141736672350160e-19  7.3947224235298175e-20  9.9299838391846351e-01  9.9792919908000788e-01  9.9832983111262885e-01  1.0004576452512404e+00  1.0033990121162482e+00  1.0086114801979658e+00  1.0138257474181414e+00  1.0118251353476748e+00  1.0022380918219889e+00  9.9134879874712167e-01  9.7415307466421497e-01  9.5603251265331057e-01  9.4943072789661320e-01  9.4989940677351359e-01  9.5002199401392429e-01  9.5316129614291445e-01  9.6772303654130909e-01  9.8697341911941650e-01  1.0023241052118856e+00  1.0122384425279927e+00  1.0091244122853584e+00  9.9966484027060887e-01  9.9780864476378672e-01  1.0000857478511971e+00  1.0002543175572434e+00  9.9991148498465021e-01  1.0004476740854398e+00  9.9776177172048452e-01  1.0043049734832052e+00  1.0058505103708835e+00  9.6739868463178835e-01  9.6128824539321855e-01  1.0065248652029986e+00  1.0312295053142859e+00  1.0357565842514811e+00  1.0345749350985824e+00  1.0306483501986621e+00  1.0271466386387464e+00  1.0253036710206047e+00  1.0251619078092002e+00  1.0262861320155645e+00  1.0281884983047007e+00  1.0300975710115805e+00  1.0309831830938792e+00  1.0307937956797983e+00  1.0307287636479803e+00  1.0315191675487951e+00  1.0328145840262848e+00  1.0339609567677694e+00  1.0345219109052657e+00  1.0345131817853275e+00  1.0342883470248410e+00  1.0341876271256394e+00  1.0344809302606064e+00  1.0353098227735951e+00  1.0365928193934950e+00  1.0381092074633222e+00  1.0396567642900501e+00  1.0411029966419227e+00  1.0423244539510428e+00  1.0431289703730748e+00  1.0432636764181151e+00  1.0426848733832790e+00  1.0419894252811417e+00  1.0418845246652668e+00  1.0423882527403623e+00  1.0431210281477199e+00  1.0437969701570637e+00  1.0443308273316523e+00  1.0447642753128619e+00  1.0451374071569950e+00  1.0453936254840184e+00  1.0454223021670157e+00  1.0452035197885827e+00  1.0448676415004321e+00  1.0448393771802114e+00  1.0456698909048348e+00  1.0473348582225654e+00  1.0494053271859329e+00  1.0513424040829025e+00  1.0523885173684757e+00  1.0520821854673277e+00  1.0505545837664132e+00  1.0482858365693175e+00  1.0460018410028411e+00  1.0448325433247816e+00  1.0464838863547927e+00  1.0532293370092565e+00  1.0673249212696709e+00  1.0896336706993037e+00  1.1159821592092589e+00  1.1358311491597801e+00  1.1292021344594976e+00  1.0689179212658748e+00  9.8315405518526500e-01  9.7830238037183803e-01  1.0057772588596250e+00  1.0003513519227651e+00  9.9720049361628227e-01  1.0013694089255487e+00  1.0115360268751208e+00  1.0013592943254133e+00  9.6618774484594283e-01  9.5097990385790410e-01  9.8826178596017655e-01  1.0292144517327046e+00  1.0467844622606439e+00  1.0520958360208081e+00  1.0392523609766360e+00  1.0183211957927367e+00  9.8086587136221048e-01  9.5132527056575844e-01  9.6849191336606721e-01  1.0011799166155233e+00  1.0062079223720819e+00  9.9869063289749815e-01  1.0001126519068346e+00  9.9786233625806242e-01  1.0057892404153963e+00  1.0012455957408550e+00  9.5774650010452389e-01  1.0488143176217668e+00  1.1870251823663418e+00  9.9360836558808285e-01  8.5057840828258369e-01  7.9963388196907248e-01  8.1749831787887284e-01  8.5428368016714462e-01  8.8183143069166758e-01  8.9629842853167385e-01  8.9839558287472565e-01  8.9023193608838691e-01  8.7615195554203207e-01  8.6071120282607583e-01  8.4769448202826114e-01  8.4055016143274974e-01  8.4135098933848074e-01  8.4944451225313977e-01  8.6199666991190727e-01  8.7576871058108086e-01  8.8772948308667354e-01  8.9595460117728321e-01  9.0077211409046165e-01  9.0406358965233369e-01  9.1043334895487249e-01  9.2366224027734223e-01  9.4199449059110896e-01  9.6156053816517073e-01  9.8052781629650565e-01  9.9757665288903685e-01  1.0105961815602449e+00  1.0203307291950143e+00  1.0314254501636047e+00  1.0463270842141139e+00  1.0639652705609657e+00  1.0809071033947106e+00  1.0947160572589452e+00  1.1061469978074245e+00  1.1168722392637318e+00  1.1283029634191080e+00  1.1404298049792110e+00  1.1514262076631294e+00  1.1601508895710606e+00  1.1664174170308921e+00  1.1703627976894455e+00  1.1724442319204371e+00  1.1730525400392404e+00  1.1723363983714092e+00  1.1710001493491906e+00  1.1702567664880643e+00  1.1698615626813600e+00  1.1682376008616686e+00  1.1642893470207079e+00  1.1583657433399779e+00  1.1519090521104920e+00  1.1459721941161658e+00  1.1409557494225329e+00  1.1367633373360697e+00  1.1323924071827070e+00  1.1262797108263380e+00  1.1174324682671106e+00  1.1072522260061466e+00  1.0986040231180823e+00  1.0925905859786336e+00  1.0883901494481756e+00  1.0838317771626296e+00  1.0739747996378493e+00  1.0415651366417396e+00  9.9502198331640368e-01  9.9351257651752067e-01  9.9914545502916730e-01  8.7280062528615887e-01  -1.3922795297761265e-01  5.4310715975179778e-03  4.3005105394831371e-02  1.0152294250637409e-02  -1.0718266855945884e-02  -1.6539104241058335e-03  2.3866136736998989e-03  -3.8087244839763232e-04  -2.2893970941717675e-04  1.4863281931218737e-04  -3.6167093552915931e-05  -1.4139415494114871e-06  5.0731297330717089e-06  -2.5065825887721601e-06  7.9977089881919102e-07  -1.7971278349611402e-07  2.1522617911142132e-08  4.3679864213718659e-09  -4.1128868900682952e-09  1.8184999207486143e-09  -6.3895595730137446e-10  1.9966755279526561e-10  -5.8303680206460882e-11  1.6359083084414511e-11  -4.4804563112098058e-12  1.2084823522861819e-12  -3.2184650349368237e-13  8.5006934518347253e-14  -2.1931830043225627e-14  5.5937568815690634e-15  -1.2753923504593576e-15  3.6629902878037320e-16  -6.3519345483814324e-17  1.8447562145898959e-17  -5.6017982387605920e-18  1.7803649831928349e-18  -4.8389336722750838e-19  1.5757166530583758e-19  -4.6477081747094730e-20  1.0259479101231079e+00  1.0088016121288617e+00  1.0089522520134473e+00  1.0015129532207785e+00  9.9446185343230753e-01  9.7983505036473617e-01  9.5999547353109271e-01  9.4940377293071732e-01  9.7429154299311194e-01  1.0114840105097638e+00  1.0543539490301763e+00  1.1272137569590863e+00  1.1708532174148363e+00  1.1769757905026816e+00  1.1738144710496423e+00  1.1732579845528739e+00  1.1449475889623335e+00  1.0769003388990108e+00  1.0175136815876293e+00  9.7118178209727124e-01  9.5424445151860593e-01  9.8727188716208381e-01  1.0088081781131744e+00  1.0029357441556757e+00  9.9814211963760202e-01  1.0005253987674774e+00  9.9951618247998719e-01  9.9970888598497054e-01  1.0083863448437538e+00  9.6662849183182453e-01  1.0248489713755111e+00  1.1762665348029986e+00  1.0517338985673907e+00  9.1807160588304393e-01  8.7859545587294852e-01  8.7273631232855287e-01  8.8404278048147222e-01  8.9822179134006130e-01  9.0804080423101452e-01  9.1139710760317894e-01  9.0948338702084686e-01  9.0385847383466267e-01  8.9660841589418872e-01  8.9108983587308332e-01  8.9027808839681333e-01  8.9139289200286131e-01  8.9009980930120736e-01  8.8602590773524359e-01  8.8137427458243567e-01  8.7815744576896815e-01  8.7730528318389156e-01  8.7789466247254033e-01  8.7861243028388392e-01  8.7838047148115350e-01  8.7638206947156150e-01  8.7248569474763182e-01  8.6732315073868393e-01  8.6170468233488673e-01  8.5623120462027036e-01  8.5131690302300622e-01  8.4751806156425846e-01  8.4567166322622334e-01  8.4654231251227152e-01  8.4933089293790309e-01  8.5097078140866145e-01  8.5007926037696557e-01  8.4765425388911453e-01  8.4500949382470514e-01  8.4280648562156957e-01  8.4107524462841043e-01  8.3960289721079862e-01  8.3839602082322651e-01  8.3782134510221185e-01  8.3819287552877364e-01  8.3928396103515301e-01  8.4025047865330571e-01  8.3900874755668420e-01  8.3422221338554114e-01  8.2724294986532165e-01  8.1956859082030742e-01  8.1370227075746027e-01  8.1226492988873722e-01  8.1579411398900115e-01  8.2300523137526926e-01  8.3173247337687661e-01  8.3867300938696854e-01  8.3873961933130337e-01  8.2460445279763217e-01  7.8728751776192896e-01  7.1928615270769858e-01  6.2057729985641708e-01  5.1393049000606161e-01  4.6154229238545752e-01  5.9258707594273174e-01  9.1853432573545868e-01  1.1304091211591494e+00  9.9329407717751361e-01  9.9276647309840749e-01  1.0038156752554408e+00  1.0092350813720639e+00  9.7654052871412034e-01  9.6011929155438125e-01  1.0512459642463339e+00  1.1680992095521940e+00  1.1308800498590363e+00  9.4727458391001740e-01  8.6629189816722629e-01  8.1206862731248919e-01  8.3115803896337825e-01  8.9706608716671066e-01  9.8687521638225006e-01  1.1393912610464776e+00  1.1619113151067950e+00  1.0452654995720108e+00  9.6943964093370472e-01  9.9801236818814654e-01  1.0041901770465014e+00  9.9741295069535385e-01  1.0094087081664649e+00  9.6178362205604362e-01  1.0584680579358001e+00  1.1244302112359550e+00  4.8187816042774800e-01  -2.5267500926924837e-02  -1.6554854701561411e-01  -1.6276421286402631e-01  -1.6101657717442672e-01  -1.6043869939619071e-01  -1.5756750684632287e-01  -1.5374506251253078e-01  -1.5217348713582629e-01  -1.5393341113888706e-01  -1.5733400678027112e-01  -1.6017231070938862e-01  -1.6169390299740843e-01  -1.6216178443813617e-01  -1.6205419528969550e-01  -1.6158038296054647e-01  -1.6059820842232667e-01  -1.5884489586907513e-01  -1.5639663279751495e-01  -1.5403468723400460e-01  -1.5232625689608936e-01  -1.5127044287085378e-01  -1.4986854511574960e-01  -1.4604541615334865e-01  -1.3856314825449986e-01  -1.2827748547991971e-01  -1.1646579845866011e-01  -1.0401962875163874e-01  -9.2742168084285537e-02  -8.4698514974884523e-02  -7.6848835504492993e-02  -6.5939781732727965e-02  -5.1061334289088954e-02  -3.4091235048951563e-02  -1.8561148763765717e-02  -5.1921296013328327e-03  7.4314396531007555e-03  2.1346160270671120e-02  3.8564035969591202e-02  5.8415490022497914e-02  7.9399593500033394e-02  1.0126628160753688e-01  1.2364446210368403e-01  1.4586120065711833e-01  1.6865010855800888e-01  1.9477200660561747e-01  2.2193794220187699e-01  2.4028556352214667e-01  2.4609064543042120e-01  2.5420284317000214e-01  2.7820965748471926e-01  3.1802309367240766e-01  3.6141164870404585e-01  3.9949592826483876e-01  4.3063514053890267e-01  4.5480482778499109e-01  4.7548430037063566e-01  4.9975117550081877e-01  5.3388982166086096e-01  5.7732771027863239e-01  6.1783549951961281e-01  6.4699877606779843e-01  6.6607654536268712e-01  6.8065971989771834e-01  7.0370291348708414e-01  7.6735016788885457e-01  9.3105046432130234e-01  1.0517668544531995e+00  9.8637192482480984e-01  1.0028513451855425e+00  9.0385812166832236e-01  2.5846768570547629e-01  -1.4062861186972514e-01  -1.0446076699575607e-01  2.5144719757261954e-02  2.4557041731004356e-02  -9.3935865686576459e-03  -1.5103643325090118e-03  1.9208144901211291e-03  -6.0136042125822243e-04  3.0086122763261538e-05  5.7944260082644169e-05  -3.3493246323761172e-05  1.1644206409659200e-05  -2.9148223605887148e-06  4.7601673926255139e-07  3.5253116350757967e-09  -4.2456972279710448e-08  2.2526437563187587e-08  -8.7257407283883306e-09  2.9419847133483563e-09  -9.1819190921124993e-10  2.7332895578725382e-10  -7.8821622716964636e-11  2.2191658736836030e-11  -6.1242093182135185e-12  1.6612921671085979e-12  -4.4240480536369451e-13  1.1525171708926584e-13  -2.8886562481136961e-14  7.0414750377183164e-15  -1.5860593543201053e-15  4.4687850919856756e-16  -1.1619044984225608e-16  3.3481413157767527e-17  -9.7837361525113362e-18  2.4918184834484216e-18  -7.1861665420776611e-19  9.2606669082598288e-20  9.0885137388181692e-01  9.6242977696939669e-01  9.5893280261331848e-01  9.8078008600467603e-01  1.0079406054904891e+00  1.0400835928926866e+00  1.1144382080506638e+00  1.1739124656490312e+00  1.1697236781948612e+00  1.0095411234369474e+00  8.9885101345911078e-01  6.6349571046549261e-01  3.3748639641735606e-01  1.5503611321788144e-01  1.1596718070322751e-01  1.3469908131088157e-01  2.5807812881499098e-01  5.5002391513991566e-01  8.4710415772197756e-01  1.0084636480220464e+00  1.1779873695555940e+00  1.1167200548438039e+00  9.8780603514932452e-01  9.7166372340713902e-01  1.0058771161046771e+00  1.0014689570628574e+00  9.9755454551822020e-01  1.0047549156993933e+00  9.9087979511337654e-01  9.9039800973009795e-01  1.1664364470487818e+00  5.5811917942219735e-01  2.3984273207282848e-02  -1.3904326975617495e-01  -1.7008298571846872e-01  -1.7204896235512404e-01  -1.7186820640699929e-01  -1.7007459192291863e-01  -1.6729979592533137e-01  -1.6555839711457357e-01  -1.6573177336680520e-01  -1.6734313904754400e-01  -1.6947544227301306e-01  -1.7113500940499701e-01  -1.7166415519706027e-01  -1.7136486592104944e-01  -1.7136360056274791e-01  -1.7199643864393488e-01  -1.7276693343387728e-01  -1.7329216341085601e-01  -1.7344904099805969e-01  -1.7339615208218054e-01  -1.7329622327785388e-01  -1.7327224247362660e-01  -1.7343010611728893e-01  -1.7379098501898532e-01  -1.7420233505988833e-01  -1.7452394950944944e-01  -1.7470327156392385e-01  -1.7475817307504285e-01  -1.7472571804589213e-01  -1.7465856487734296e-01  -1.7461755124575523e-01  -1.7460457052351805e-01  -1.7461036869423860e-01  -1.7464765594586587e-01  -1.7466055811697179e-01  -1.7462416736291694e-01  -1.7455818391076328e-01  -1.7448828031858526e-01  -1.7442379091367943e-01  -1.7436465952833571e-01  -1.7431557501701020e-01  -1.7429091536402275e-01  -1.7430132358917361e-01  -1.7433064949559365e-01  -1.7432161269179053e-01  -1.7426046181701724e-01  -1.7400606023258747e-01  -1.7356833028945326e-01  -1.7306052565825805e-01  -1.7272459689993533e-01  -1.7276666003140778e-01  -1.7314251990992824e-01  -1.7364511647387995e-01  -1.7403797181511096e-01  -1.7423390333297534e-01  -1.7414251826460286e-01  -1.7270209090404004e-01  -1.6704260559270367e-01  -1.5487146158845752e-01  -1.3612577955490435e-01  -1.1762222323479507e-01  -1.1943347750216428e-01  -1.8743636384516613e-01  -1.3677074290435502e-03  8.9382856701144331e-01  1.0364819776754444e+00  1.0036779916022547e+00  9.7387450983208579e-01  9.9178887549878669e-01  1.1667078768304462e+00  1.0318562611452302e+00  5.5500921220521138e-01  8.5649797698830854e-02  -8.2700525351157739e-02  -1.7838604746299250e-01  -1.7428228171537608e-01  -1.7256997490419382e-01  -1.7410351265146815e-01  -1.5844021798561164e-01  -4.5535146471321390e-02  1.0036054490527740e-01  5.3979566099347320e-01  1.0662702197400187e+00  1.0662086657139667e+00  9.6718713085781904e-01  1.0134431688551075e+00  9.9050524841298149e-01  9.9019433801264733e-01  1.1641873894789587e+00  4.0692869537458154e-01  -1.9048934922778613e-01  -5.5533372624001071e-02  3.5900401345925398e-02  4.5597515550939882e-02  4.3074216301154961e-02  4.3124747045403082e-02  4.2675295768279782e-02  4.1689950132226