<?xml version="1.0"?>
<VTKFile type="UnstructuredGrid"  version="0.1"  >
<UnstructuredGrid>
<Piece  NumberOfPoints="2477" NumberOfCells="4704">
<Points>
<DataArray  type="Float64"  NumberOfComponents="3"  format="ascii">1.52 0.2833333333333333 0  1.528260869565217 0.2833333333333333 0  1.528260869565217 0.2916666666666667 0  1.52 0.2916666666666667 0  1.536521739130435 0.2833333333333333 0  1.536521739130435 0.2916666666666667 0  1.544782608695652 0.2833333333333333 0  1.544782608695652 0.2916666666666667 0  1.55304347826087 0.2833333333333333 0  1.55304347826087 0.2916666666666667 0  1.561304347826087 0.2833333333333333 0  1.561304347826087 0.2916666666666667 0  1.569565217391304 0.2833333333333333 0  1.569565217391304 0.2916666666666667 0  1.577826086956522 0.2833333333333333 0  1.577826086956522 0.2916666666666667 0  1.586086956521739 0.2833333333333333 0  1.586086956521739 0.2916666666666667 0  1.594347826086957 0.2833333333333333 0  1.594347826086957 0.2916666666666667 0  1.602608695652174 0.2833333333333333 0  1.602608695652174 0.2916666666666667 0  1.610869565217391 0.2833333333333333 0  1.610869565217391 0.2916666666666667 0  1.619130434782609 0.2833333333333333 0  1.619130434782609 0.2916666666666667 0  1.627391304347826 0.2833333333333333 0  1.627391304347826 0.2916666666666667 0  1.635652173913043 0.2833333333333333 0  1.635652173913043 0.2916666666666667 0  1.643913043478261 0.2833333333333333 0  1.643913043478261 0.2916666666666667 0  1.652173913043478 0.2833333333333333 0  1.652173913043478 0.2916666666666667 0  1.660434782608696 0.2833333333333333 0  1.660434782608696 0.2916666666666667 0  1.668695652173913 0.2833333333333333 0  1.668695652173913 0.2916666666666667 0  1.67695652173913 0.2833333333333333 0  1.67695652173913 0.2916666666666667 0  1.685217391304348 0.2916666666666667 0  1.511739130434782 0.2916666666666667 0  1.52 0.3 0  1.511739130434782 0.3 0  1.528260869565217 0.3 0  1.536521739130435 0.3 0  1.544782608695652 0.3 0  1.55304347826087 0.3 0  1.561304347826087 0.3 0  1.569565217391304 0.3 0  1.577826086956522 0.3 0  1.586086956521739 0.3 0  1.594347826086957 0.3 0  1.602608695652174 0.3 0  1.610869565217391 0.3 0  1.619130434782609 0.3 0  1.627391304347826 0.3 0  1.635652173913043 0.3 0  1.643913043478261 0.3 0  1.652173913043478 0.3 0  1.660434782608696 0.3 0  1.668695652173913 0.3 0  1.67695652173913 0.3 0  1.685217391304348 0.3 0  1.693478260869565 0.2916666666666667 0  1.693478260869565 0.3 0  1.701739130434782 0.2916666666666667 0  1.701739130434782 0.3 0  1.71 0.2916666666666667 0  1.71 0.3 0  1.718260869565217 0.2916666666666667 0  1.718260869565217 0.3 0  1.726521739130435 0.2916666666666667 0  1.726521739130435 0.3 0  1.734782608695652 0.2916666666666667 0  1.734782608695652 0.3 0  1.743043478260869 0.2916666666666667 0  1.743043478260869 0.3 0  1.751304347826087 0.2916666666666667 0  1.751304347826087 0.3 0  1.759565217391304 0.2916666666666667 0  1.759565217391304 0.3 0  1.767826086956522 0.2916666666666667 0  1.767826086956522 0.3 0  1.776086956521739 0.2916666666666667 0  1.776086956521739 0.3 0  1.784347826086957 0.2916666666666667 0  1.784347826086957 0.3 0  1.792608695652174 0.2916666666666667 0  1.792608695652174 0.3 0  1.800869565217391 0.2916666666666667 0  1.800869565217391 0.3 0  1.809130434782608 0.2916666666666667 0  1.809130434782608 0.3 0  1.817391304347826 0.3 0  1.379565217391304 0.3 0  1.387826086956522 0.3 0  1.387826086956522 0.3083333333333333 0  1.379565217391304 0.3083333333333333 0  1.396086956521739 0.3 0  1.396086956521739 0.3083333333333333 0  1.404347826086957 0.3 0  1.404347826086957 0.3083333333333333 0  1.412608695652174 0.3 0  1.412608695652174 0.3083333333333333 0  1.420869565217391 0.3 0  1.420869565217391 0.3083333333333333 0  1.429130434782609 0.3 0  1.429130434782609 0.3083333333333333 0  1.437391304347826 0.3 0  1.437391304347826 0.3083333333333333 0  1.445652173913043 0.3 0  1.445652173913043 0.3083333333333333 0  1.453913043478261 0.3 0  1.453913043478261 0.3083333333333333 0  1.462173913043478 0.3 0  1.462173913043478 0.3083333333333333 0  1.470434782608696 0.3 0  1.470434782608696 0.3083333333333333 0  1.478695652173913 0.3 0  1.478695652173913 0.3083333333333333 0  1.486956521739131 0.3 0  1.486956521739131 0.3083333333333333 0  1.495217391304348 0.3 0  1.495217391304348 0.3083333333333333 0  1.503478260869565 0.3 0  1.503478260869565 0.3083333333333333 0  1.511739130434782 0.3083333333333333 0  1.52 0.3083333333333333 0  1.528260869565217 0.3083333333333333 0  1.536521739130435 0.3083333333333333 0  1.544782608695652 0.3083333333333333 0  1.55304347826087 0.3083333333333333 0  1.561304347826087 0.3083333333333333 0  1.569565217391304 0.3083333333333333 0  1.577826086956522 0.3083333333333333 0  1.586086956521739 0.3083333333333333 0  1.594347826086957 0.3083333333333333 0  1.602608695652174 0.3083333333333333 0  1.610869565217391 0.3083333333333333 0  1.619130434782609 0.3083333333333333 0  1.627391304347826 0.3083333333333333 0  1.635652173913043 0.3083333333333333 0  1.643913043478261 0.3083333333333333 0  1.652173913043478 0.3083333333333333 0  1.660434782608696 0.3083333333333333 0  1.668695652173913 0.3083333333333333 0  1.67695652173913 0.3083333333333333 0  1.685217391304348 0.3083333333333333 0  1.693478260869565 0.3083333333333333 0  1.701739130434782 0.3083333333333333 0  1.71 0.3083333333333333 0  1.718260869565217 0.3083333333333333 0  1.726521739130435 0.3083333333333333 0  1.734782608695652 0.3083333333333333 0  1.743043478260869 0.3083333333333333 0  1.751304347826087 0.3083333333333333 0  1.759565217391304 0.3083333333333333 0  1.767826086956522 0.3083333333333333 0  1.776086956521739 0.3083333333333333 0  1.784347826086957 0.3083333333333333 0  1.792608695652174 0.3083333333333333 0  1.800869565217391 0.3083333333333333 0  1.809130434782608 0.3083333333333333 0  1.817391304347826 0.3083333333333333 0  1.825652173913043 0.3083333333333333 0  1.338260869565217 0.3083333333333333 0  1.346521739130435 0.3083333333333333 0  1.346521739130435 0.3166666666666667 0  1.338260869565217 0.3166666666666667 0  1.354782608695652 0.3083333333333333 0  1.354782608695652 0.3166666666666667 0  1.36304347826087 0.3083333333333333 0  1.36304347826087 0.3166666666666667 0  1.371304347826087 0.3083333333333333 0  1.371304347826087 0.3166666666666667 0  1.379565217391304 0.3166666666666667 0  1.387826086956522 0.3166666666666667 0  1.396086956521739 0.3166666666666667 0  1.404347826086957 0.3166666666666667 0  1.412608695652174 0.3166666666666667 0  1.420869565217391 0.3166666666666667 0  1.429130434782609 0.3166666666666667 0  1.437391304347826 0.3166666666666667 0  1.445652173913043 0.3166666666666667 0  1.453913043478261 0.3166666666666667 0  1.462173913043478 0.3166666666666667 0  1.470434782608696 0.3166666666666667 0  1.478695652173913 0.3166666666666667 0  1.486956521739131 0.3166666666666667 0  1.495217391304348 0.3166666666666667 0  1.503478260869565 0.3166666666666667 0  1.511739130434782 0.3166666666666667 0  1.52 0.3166666666666667 0  1.528260869565217 0.3166666666666667 0  1.536521739130435 0.3166666666666667 0  1.544782608695652 0.3166666666666667 0  1.55304347826087 0.3166666666666667 0  1.561304347826087 0.3166666666666667 0  1.569565217391304 0.3166666666666667 0  1.577826086956522 0.3166666666666667 0  1.586086956521739 0.3166666666666667 0  1.594347826086957 0.3166666666666667 0  1.602608695652174 0.3166666666666667 0  1.610869565217391 0.3166666666666667 0  1.619130434782609 0.3166666666666667 0  1.627391304347826 0.3166666666666667 0  1.635652173913043 0.3166666666666667 0  1.643913043478261 0.3166666666666667 0  1.652173913043478 0.3166666666666667 0  1.660434782608696 0.3166666666666667 0  1.668695652173913 0.3166666666666667 0  1.67695652173913 0.3166666666666667 0  1.685217391304348 0.3166666666666667 0  1.693478260869565 0.3166666666666667 0  1.701739130434782 0.3166666666666667 0  1.71 0.3166666666666667 0  1.718260869565217 0.3166666666666667 0  1.726521739130435 0.3166666666666667 0  1.734782608695652 0.3166666666666667 0  1.743043478260869 0.3166666666666667 0  1.751304347826087 0.3166666666666667 0  1.759565217391304 0.3166666666666667 0  1.767826086956522 0.3166666666666667 0  1.776086956521739 0.3166666666666667 0  1.784347826086957 0.3166666666666667 0  1.792608695652174 0.3166666666666667 0  1.800869565217391 0.3166666666666667 0  1.809130434782608 0.3166666666666667 0  1.817391304347826 0.3166666666666667 0  1.825652173913043 0.3166666666666667 0  1.833913043478261 0.3166666666666667 0  1.040869565217391 0.3166666666666667 0  1.049130434782609 0.3166666666666667 0  1.049130434782609 0.325 0  1.040869565217391 0.325 0  1.057391304347826 0.3166666666666667 0  1.057391304347826 0.325 0  1.065652173913043 0.3166666666666667 0  1.065652173913043 0.325 0  1.073913043478261 0.3166666666666667 0  1.073913043478261 0.325 0  1.082173913043478 0.3166666666666667 0  1.082173913043478 0.325 0  1.090434782608696 0.3166666666666667 0  1.090434782608696 0.325 0  1.098695652173913 0.3166666666666667 0  1.098695652173913 0.325 0  1.10695652173913 0.3166666666666667 0  1.10695652173913 0.325 0  1.115217391304348 0.3166666666666667 0  1.115217391304348 0.325 0  1.123478260869565 0.3166666666666667 0  1.123478260869565 0.325 0  1.131739130434783 0.3166666666666667 0  1.131739130434783 0.325 0  1.14 0.3166666666666667 0  1.14 0.325 0  1.148260869565217 0.3166666666666667 0  1.148260869565217 0.325 0  1.156521739130435 0.3166666666666667 0  1.156521739130435 0.325 0  1.164782608695652 0.3166666666666667 0  1.164782608695652 0.325 0  1.17304347826087 0.3166666666666667 0  1.17304347826087 0.325 0  1.181304347826087 0.3166666666666667 0  1.181304347826087 0.325 0  1.189565217391304 0.3166666666666667 0  1.189565217391304 0.325 0  1.197826086956522 0.3166666666666667 0  1.197826086956522 0.325 0  1.206086956521739 0.3166666666666667 0  1.206086956521739 0.325 0  1.214347826086956 0.3166666666666667 0  1.214347826086956 0.32
[...]
<CellData  Scalars="rho"> 
<DataArray  type="Float64"  Name="rho"  format="ascii">3.4637566910564421e-01   3.4428797526499572e-01   3.3823616270128071e-01   3.3656435491412390e-01   3.1818753593755406e-01   3.1694483655570099e-01   3.0676737412680488e-01   3.0507230419885417e-01   2.9412283589891031e-01   2.9233592826991089e-01   2.8065189967280185e-01   2.7988078067662625e-01   2.6773387332792459e-01   2.9143222430027915e-01   2.8184361063713875e-01   2.8104379920492240e-01   2.6982901797411463e-01   2.6941857950276410e-01   2.5797185298336539e-01   2.5674907645477257e-01   2.4461144179493574e-01   2.4427167580942868e-01   2.3146019585227021e-01   2.3025352212817504e-01   2.1689608090629239e-01   2.1655557733314018e-01   2.0272553259845094e-01   2.0220526408867828e-01   1.8663326300329899e-01   1.8622042373089048e-01   1.7141334834081146e-01   1.7079908086595860e-01   1.5497651485896868e-01   1.5435738071047933e-01   1.3207803910439259e-01   1.0854767801631234e-01   8.8202488219418146e-02   8.7536944396720551e-02   1.0137056550715579e-01   3.3685240431775876e-01   3.3144106021956588e-01   3.2998136941448347e-01   3.2500290593497855e-01   3.1009258680858659e-01   3.0441063804839508e-01   2.9906477151077976e-01   2.9381905046527329e-01   2.8716414630774723e-01   3.0540866531776079e-01   2.9902093749901049e-01   2.9664058963945678e-01   2.8861605748560076e-01   2.8672138638596883e-01   2.7797505635356712e-01   2.7558672070489415e-01   2.6587635496030804e-01   2.6406560073607943e-01   2.5394751983815184e-01   2.5118551285548507e-01   2.4092061213375690e-01   2.3846136338521462e-01   2.2683103473557079e-01   2.2472052571934545e-01   2.1309939191369737e-01   2.1074148477314308e-01   1.9863654667172659e-01   1.9552006181246206e-01   1.8241408979534487e-01   1.7997291144697988e-01   1.6694503965566490e-01   1.6428748941348467e-01   1.5092880226295630e-01   1.5017344851116379e-01   1.0453857443642361e-01   9.3291955270414131e-02   1.1793915719545660e-01   7.2268195758990919e-02   1.0051535283971498e-01   5.0879859384884672e-02   8.2971007917747017e-02   2.9321030553650092e-02   1.0781991195432567e-02   7.8173580869549935e-03   0.0000000000000000e+00   0.0000000000000000e+00   0.0000000000000000e+00   0.0000000000000000e+00   0.0000000000000000e+00   0.0000000000000000e+00   0.0000000000000000e+00   0.0000000000000000e+00   0.0000000000000000e+00   0.0000000000000000e+00   0.0000000000000000e+00   0.0000000000000000e+00   0.0000000000000000e+00   0.0000000000000000e+00   0.0000000000000000e+00   0.0000000000000000e+00   0.0000000000000000e+00   0.0000000000000000e+00   0.0000000000000000e+00   0.0000000000000000e+00   0.0000000000000000e+00   0.0000000000000000e+00   0.0000000000000000e+00   0.0000000000000000e+00   0.0000000000000000e+00   0.0000000000000000e+00   0.0000000000000000e+00   0.0000000000000000e+00   4.2829907495607793e-03   3.7275274610516762e-01   3.6506924213054998e-01   3.6765515434851792e-01   3.5490497953868860e-01   3.5587664278293246e-01   3.4852946291841047e-01   3.5324763874011778e-01   3.4545794522851186e-01   3.4114728120585291e-01   3.3385810366910623e-01   3.4088222769544524e-01   3.2994184595468817e-01   3.3978685815078769e-01   3.2881396782552647e-01   3.3951121884730251e-01   3.2847829221872465e-01   3.3896849637958965e-01   3.2787625213654142e-01   3.3803254000535143e-01   3.2718917913971252e-01   3.3676483920358624e-01   3.2609193651657675e-01   3.3519243198182552e-01   3.2462634293795956e-01   3.3301746357904694e-01   3.2274169363376704e-01   3.3033341326403537e-01   3.2038919335254445e-01   3.2709859868585234e-01   3.1284026718669455e-01   3.1881490099720533e-01   3.0845865952237145e-01   2.9869371670336825e-01   3.0684417511302697e-01   3.1097871013458966e-01   3.0267438329348378e-01   3.0539213211317745e-01   2.9758050777203959e-01   2.9879523653250561e-01   2.9148564047636455e-01   2.9111148025704192e-01   2.8430942587171038e-01   2.8226335745656989e-01   2.7597017329729734e-01   2.6930411631830814e-01   2.6638861325206575e-01   2.5785318770940791e-01   2.5549126957507551e-01   2.4504813425817193e-01   2.4321430182291426e-01   2.3084501176305830e-01   2.2950677591396898e-01   2.1712911017952674e-01   2.1533133956469444e-01   2.0284681521338080e-01   1.9509932142056297e-01   1.3530757158459772e-01   1.8087935298976549e-01   1.6648945286169761e-01   1.5552539196338694e-01   1.4389414797537459e-01   1.2327281698057950e-01   1.0921845059638204e-01   1.0264820204740223e-01   8.8769063229467357e-02   8.2134558089858992e-02   6.7510363752422947e-02   6.1198776101177653e-02   4.5737800032270522e-02   3.9312519174474911e-02   2.3636792318676485e-02   1.7026531698182776e-02   1.4227398938718512e-03   4.8643557965037179e-02   0.0000000000000000e+00   3.1122747992391876e-02   1.8708083698415832e-02   1.6066682409657418e-02   2.7957395571562263e-03   0.0000000000000000e+00   0.0000000000000000e+00   0.0000000000000000e+00   0.0000000000000000e+00   0.0000000000000000e+00   0.0000000000000000e+00   0.0000000000000000e+00   0.0000000000000000e+00   0.0000000000000000e+00   0.0000000000000000e+00   0.0000000000000000e+00   0.0000000000000000e+00   0.0000000000000000e+00   0.0000000000000000e+00   0.0000000000000000e+00   0.0000000000000000e+00   0.0000000000000000e+00   0.0000000000000000e+00   0.0000000000000000e+00   0.0000000000000000e+00   0.0000000000000000e+00   0.0000000000000000e+00   0.0000000000000000e+00   0.0000000000000000e+00   0.0000000000000000e+00   1.4484624588284290e-03   0.0000000000000000e+00   0.0000000000000000e+00   3.8436148965927419e-01   3.7993265743839927e-01   3.6804185195328265e-01   3.6144983838510492e-01   3.5276007141624749e-01   3.4392936714804700e-01   3.3895159754734083e-01   3.2792181826442574e-01   3.2681744439137755e-01   3.1439834813009598e-01   3.1762069461996456e-01   3.0441754455016418e-01   3.2276105152687817e-01   2.9706452899373131e-01   3.1778615811565475e-01   2.8525681368420974e-01   3.0807174390101044e-01   2.8304293208419901e-01   3.0634134162110976e-01   2.8080744034693467e-01   3.0549436022129195e-01   2.7973290922761024e-01   3.0492345414621208e-01   2.7889070914345626e-01   3.0436982497688464e-01   2.7817561485499059e-01   3.0374166103404288e-01   2.7748597564050048e-01   3.0295430432214870e-01   2.7672642813679127e-01   3.0193020668702064e-01   2.7580847347485971e-01   3.0059798431924029e-01   2.7534942117148586e-01   2.9193165471210059e-01   2.8491391901400620e-01   2.9816925765483732e-01   2.8505827003119250e-01   2.8981879935369409e-01   2.7552696991233838e-01   2.8742028660179320e-01   2.7354851076991971e-01   2.8420478811874023e-01   2.7078199889536919e-01   2.8009059106902429e-01   2.6714032966017709e-01   2.7275714038131815e-01   2.6253231417330547e-01   2.6659445943368537e-01   2.5686392165736321e-01   2.5927884111430211e-01   2.6348950711581642e-01   2.5072157352811519e-01   2.5737001793743630e-01   2.5409151022328746e-01   2.3239915654507579e-01   2.2777100594604774e-01   2.2234791473253854e-01   2.1571381092389261e-01   2.0259010969220528e-01   2.0167926563645053e-01   1.8809828981654009e-01   1.7750094711756664e-01   1.5805007877617866e-01   1.4667569425601937e-01   1.3784752239569090e-01   1.2715418602488573e-01   1.1777857408623327e-01   1.0685006760770006e-01   1.4129702363409058e-01   8.6442147545952697e-02   1.2522041427987785e-01   6.6022454142716125e-02   1.0874595521533001e-01   9.5800266404799883e-02   9.6240740836315425e-02   7.8738783021341754e-02   7.9142148677065774e-02   6.1185137646923626e-02   6.1159806933799202e-02   4.3315047804597440e-02   4.2769279727954988e-02   3.9608553403802371e-02   2.4171279025064569e-02   1.3526964786513582e-02   7.5361748892441727e-03   0.0000000000000000e+00   0.0000000000000000e+00   0.0000000000000000e+00   0.0000000000000000e+00   0.0000000000000000e+00   0.0000000000000000e+00   0.0000000000000000e+00   0.0000000000000000e+00   0.0000000000000000e+00   0.0000000000000000e+00   0.0000000000000000e+00   0.0000000000000000e+00   0.0000000000000000e+00   0.0000000000000000e+00   0.0000000000000000e+00   0.0000000000000000e+00   0.0000000000000000e+00   0.0000000000000000e+00   0.0000000000000000e+00   0.0000000000000000e+00   0.0000000000000000e+00   0.0000000000000000e+00   0.0000000000000000e+00   0.0000000000000000e+00   0.0000000000000000e+00   0.0000000000000000e+00   0.0000000000000000e+00   0.0000000000000000e+00   0.0000000000000000e+00   0.0000000000000000e+00   0.0000000000000000e+00   0.0000000000000000e+00   0.0000000000000000e+00   0.0000000000000000e+00   0.0000000000000000e+00   0.0000000000000000e+00   0.0000000000000000e+00   0.0000000000000000e+00   0.0000000000000000e+00   0.0000000000000000e+00   0.0000000000000000e+00   0.0000000000000000e+00   0.0000000000000000e+00   0.0000000000000000e+00   0.0000000000000000e+00   0.0000000000000000e+00   0.0000000000000000e+00   0.0000000000000000e+00   0.0000000000000000e+00   0.0000000000000000e+00   0.0000000000000000e+00   0.0000000000000000e+00   0.0000000000000000e+00   0.0000000000000000e+00   0.0000000000000000e+00   0.0000000000000000e+00   0.0000000000000000e+00   0.0000000000000000e+00   0.0000000000000000e+00   0.0000000000000000e+00   0.0000000000000000e+00   0.0000000000000000e+00   0.0000000000000000e+00   0.0000000000000000e+00   0.0000000000000000e+00   0.0000000000000000e+00   0.0000000000000000e+00   0.0000000000000000e+00   0.0000000000000000e+00   0.0000000000000000e+00   0.0000000000000000e+00   0.0000000000000000e+00   0.0000000000000000e+00   0.0000000000000000e+00   0.0000000000000000e+00   2.8324500631261813e-02   2.4499687892420477e-02   6.9213610335437062e-02   6.6109604387788332e-02   1.0266155747772616e-01   1.0161694388931440e-01   1.3458992732017222e-01   1.3344641537827279e-01   2.5428232990909022e-01   1.9541621207765034e-01   5.4973198637746379e-01   3.0188582955049892e-01   6.2843030115268284e-01   6.1105019469930466e-01   6.7605311816693603e-01   6.6038982482652619e-01   6.9614283621950190e-01   6.8596223708641291e-01   6.8251441113550870e-01   6.8249523725342964e-01   6.5188552523433219e-01   6.5134647664757039e-01   5.7483721905007845e-01   6.0580140608128985e-01   4.8474590663475625e-01   5.2311436666204558e-01   4.1309715319696705e-01   4.0694946026772333e-01   3.8255311092860661e-01   3.7228522342516668e-01   3.4352782028976320e-01   3.3133524506728501e-01   3.2119500551722097e-01   3.0654008253110870e-01   3.0029452130402756e-01   2.8306693219734980e-01   2.8698831895083271e-01   2.6573654205533564e-01   2.7669606544407971e-01   2.5904226413144932e-01   2.6276817302334299e-01   2.4760949906013652e-01   2.5937212265152204e-01   2.4191579381584352e-01   2.5556538472686330e-01   2.3806616312497164e-01   2.5321029040152254e-01   2.3499625641504254e-01   2.4907368280293513e-01   2.3261407843949594e-01   2.4771996079958558e-01   2.3080828163747277e-01   2.4671793230025757e-01   2.2945726898751440e-01   2.4594890285291165e-01   2.2782342708486947e-01   2.4501720175036631e-01   2.2961435116919499e-01   2.4690370040675416e-01   2.2753982973102921e-01   2.4525313987402309e-01   2.2907324282986902e-01   2.3520055536380827e-01   2.1577748078202633e-01   2.3525956980541560e-01   2.2786515526930343e-01   2.3478840567119041e-01   2.3006600424499521e-01   2.3368803211748851e-01   2.3166826924449371e-01   2.4571684636006966e-01   2.3038420107376228e-01   2.4532540641921854e-01   2.3030190981287590e-01   2.4395058629477612e-01   2.2888167818908473e-01   2.4148219345784736e-01   2.0005046345378047e-01   2.1083238140720745e-01   2.1602896617332543e-01   2.0393102835482696e-01   2.1166036334179558e-01   1.9551749519787331e-01   2.0579834188039448e-01   1.7247626088964343e-01   1.9834693708741838e-01   1.9678380078658558e-01   1.8922354012561118e-01   1.8535160520794375e-01   1.7836181545386304e-01   1.7215327750680323e-01   1.6571496220835405e-01   1.5717356033682470e-01   1.5125956877147748e-01   1.4042291839902682e-01   1.3499785385465768e-01   1.2366118370778757e-01   1.1794267667252616e-01   1.0728287618721707e-01   1.0084475578768999e-01   9.0448768374787547e-02   8.4054881939369858e-02   8.3725555204890167e-02   6.6862398002024398e-02   6.6516689054877093e-02   4.9952434022686856e-02   4.8561204992560822e-02   3.2037771485289149e-02   3.0075436235865054e-02   1.3535804977735993e-02   1.1249196077610837e-02   0.0000000000000000e+00   0.0000000000000000e+00   0.0000000000000000e+00   0.0000000000000000e+00   0.0000000000000000e+00   0.0000000000000000e+00   0.0000000000000000e+00   0.0000000000000000e+00   0.0000000000000000e+00   0.0000000000000000e+00   0.0000000000000000e+00   0.0000000000000000e+00   0.0000000000000000e+00   0.0000000000000000e+00   0.0000000000000000e+00   0.0000000000000000e+00   0.0000000000000000e+00   0.0000000000000000e+00   0.0000000000000000e+00   0.0000000000000000e+00   0.0000000000000000e+00   0.0000000000000000e+00   0.0000000000000000e+00   0.0000000000000000e+00   0.0000000000000000e+00   0.0000000000000000e+00   0.0000000000000000e+00   0.0000000000000000e+00   0.0000000000000000e+00   0.0000000000000000e+00   0.0000000000000000e+00   0.0000000000000000e+00   0.0000000000000000e+00   0.0000000000000000e+00   0.0000000000000000e+00   0.0000000000000000e+00   0.0000000000000000e+00   0.0000000000000000e+00   0.0000000000000000e+00   0.0000000000000000e+00   0.0000000000000000e+00   0.0000000000000000e+00   0.0000000000000000e+00   0.0000000000000000e+00   0.0000000000000000e+00   0.0000000000000000e+00   0.0000000000000000e+00   0.0000000000000000e+00   0.0000000000000000e+00   0.0000000000000000e+00   0.0000000000000000e+00   0.0000000000000000e+00   0.0000000000000000e+00   0.0000000000000000e+00   0.0000000000000000e+00   0.0000000000000000e+00   0.0000000000000000e+00   0.0000000000000000e+00   0.0000000000000000e+00   0.0000000000000000e+00   0.0000000000000000e+00   0.0000000000000000e+00   0.0000000000000000e+00   0.0000000000000000e+00   0.0000000000000000e+00   0.0000000000000000e+00   0.0000000000000000e+00   0.0000000000000000e+00   0.0000000000000000e+00   0.0000000000000000e+00   0.0000000000000000e+00   0.0000000000000000e+00   0.0000000000000000e+00   0.0000000000000000e+00   0.0000000000000000e+00   0.0000000000000000e+00   0.0000000000000000e+00   0.0000000000000000e+00   0.0000000000000000e+00   0.0000000000000000e+00   1.4303200681335308e-02   7.9224147308820034e-03   5.4945201325400018e-02   3.2036477420765874e-02   9.4986957674104089e-02   8.8257116118037965e-02   1.2829167389290488e-01   1.2408506295830508e-01   1.5911045579552874e-01   1.5548285723202560e-01   2.1624030030922206e-01   1.9133668283064342e-01   3.5015418892319206e-01   3.1209172102782146e-01   6.1575764542927891e-01   5.9008674149882012e-01   6.5260694836846633e-01   6.8507416863140136e-01   6.6290506625344303e-01   6.3619805677590868e-01   6.3249671371337612e-01   6.2048015905558884e-01   5.8952562569880795e-01   5.7184857049156368e-01   5.0499864832748653e-01   4.8725622664098667e-01   3.8587450160531211e-01   3.6839956856293421e-01   3.3598558939581491e-01   3.1816662842936355e-01   2.4043999203998878e-01   2.8902427910525152e-01   2.7504959125212075e-01   2.5892247737127305e-01   2.5491713380432701e-01   2.3394951696116320e-01   2.3911256994389510e-01   1.9278801809309151e-01   2.2489983654034970e-01   1.8517796640748219e-01   2.1637424064165303e-01   1.7998021321447233e-01   2.0993454656118327e-01   1.7547561941366499e-01   2.0451495177468693e-01   1.6972873838473462e-01   2.0008468697061849e-01   1.6784917356594492e-01   1.9396986023167592e-01   1.6693635259054643e-01   1.8551119857254972e-01   1.6795434632682388e-01   1.8791432879694775e-01   1.6603232520242506e-01   1.8873618415198101e-01   1.6856253251412961e-01   1.9205663419372984e-01   1.5727993784943314e-01   1.8199881331780790e-01   1.6049864309359141e-01   1.8545811022081368e-01   1.6387760345319241e-01   1.8878754582391613e-01   1.6723210484740461e-01   1.9182796067351890e-01   1.7039077712020267e-01   1.9443059774420057e-01   1.7319361103726735e-01   1.9645434094189843e-01   1.7548936376819255e-01   1.9776418739636709e-01   1.2819127566853122e-01   1.5481200335494272e-01   1.3056973479109288e-01   1.5243506817176594e-01   1.3221840803618495e-01   1.4877335870526653e-01   1.3300241011612335e-01   1.4369890580810890e-01   1.3279052253933923e-01   1.3708638792564459e-01   1.3145746127951480e-01   1.3109046763037718e-01   1.2888524076036298e-01   1.2656412789047367e-01   1.2496549499644331e-01   1.2058647194476271e-01   1.1960158540076027e-01   1.1308277538882450e-01   1.1271152185661903e-01   1.0399503787010642e-01   1.0422997641255041e-01   9.3285283525630383e-02   9.4111066371441982e-02   8.0938173763768217e-02   8.2331281717725191e-02   6.6963267375054300e-02   6.8891993916214811e-02   5.2548240599433096e-02   5.3820949702565013e-02   3.8816213199178773e-02   4.0492222666866418e-02   2.5636971949953419e-02   2.7315916204556943e-02   1.2607812474564913e-02   1.4421163581927555e-02   0.0000000000000000e+00   9.0633453980222881e-04   0.0000000000000000e+00   0.0000000000000000e+00   0.0000000000000000e+00   0.0000000000000000e+00   0.0000000000000000e+00   0.0000000000000000e+00   0.0000000000000000e+00   0.0000000000000000e+00   0.0000000000000000e+00   0.0000000000000000e+00   0.0000000000000000e+00   0.0000000000000000e+00   0.0000000000000000e+00   0.0000000000000000e+00   0.0000000000000000e+00   0.0000000000000000e+00   0.0000000000000000e+00   0.0000000000000000e+00   0.0000000000000000e+00   0.0000000000000000e+00   0.0000000000000000e+00   0.0000000000000000e+00   0.0000000000000000e+00   0.0000000000000000e+00   0.0000000000000000e+00   0.0000000000000000e+00   0.0000000000000000e+00   0.0000000000000000e+00   0.0000000000000000e+00   0.0000000000000000e+00   0.0000000000000000e+00   0.0000000000000000e+00   0.0000000000000000e+00   0.0000000000000000e+00   0.0000000000000000e+00   0.0000000000000000e+00   0.0000000000000000e+00   0.0000000000000000e+00   0.0000000000000000e+00   0.0000000000000000e+00   0.0000000000000000e+00   0.0000000000000000e+00   0.0000000000000000e+00   0.0000000000000000e+00   0.0000000000000000e+00   0.0000000000000000e+00   0.0000000000000000e+00   0.0000000000000000e+00   0.0000000000000000e+00   0.0000000000000000e+00   0.0000000000000000e+00   0.0000000000000000e+00   0.0000000000000000e+00   0.0000000000000000e+00   0.0000000000000000e+00   0.0000000000000000e+00   0.0000000000000000e+00   0.0000000000000000e+00   0.0000000000000000e+00   0.0000000000000000e+00   0.0000000000000000e+00   0.0000000000000000e+00   0.0000000000000000e+00   0.0000000000000000e+00   0.0000000000000000e+00   0.0000000000000000e+00   0.0000000000000000e+00   0.0000000000000000e+00   0.0000000000000000e+00   0.0000000000000000e+00   0.0000000000000000e+00   0.0000000000000000e+00   0.0000000000000000e+00   0.0000000000000000e+00   0.0000000000000000e+00   0.0000000000000000e+00   0.0000000000000000e+00   0.0000000000000000e+00   0.0000000000000000e+00   0.0000000000000000e+00   0.0000000000000000e+00   0.0000000000000000e+00   0.0000000000000000e+00   0.0000000000000000e+00   0.0000000000000000e+00   0.0000000000000000e+00   1.9565425414281114e-02   1.3509126943946261e-02   7.1221135220294496e-02   3.4987205235111785e-02   1.1139872439370058e-01   1.0136031048124255e-01   1.4438791296379336e-01   1.3705223901220998e-01   1.7353633372182056e-01   1.6610529097053472e-01   2.0452500030255166e-01   1.9536297406517966e-01   3.2007419745000920e-01   2.3589159603014637e-01   3.4692003759659329e-01   3.3129453942841297e-01   5.8732600139813940e-01   3.4499738018472376e-01   5.6932195958240384e-01   5.4631234598632117e-01   5.7441286644824341e-01   5.0625926479326733e-01   4.4547899601703966e-01   4.1878113420047858e-01   3.3402384918071987e-01   3.1304927898790835e-01   2.8637817648672648e-01   2.6190258952802747e-01   2.1244823069435553e-01   2.3037409122268118e-01   1.9824253830828506e-01   1.9736538028292763