<?xml version="1.0"?>
<VTKFile type="UnstructuredGrid"  version="0.1"  >
<UnstructuredGrid>
<Piece  NumberOfPoints="2384" NumberOfCells="4572">
<Points>
<DataArray  type="Float64"  NumberOfComponents="3"  format="ascii">0.9169565217391303 0 0  0.9252173913043478 0 0  0.9252173913043478 0.008333333333333333 0  0.9169565217391303 0.008333333333333333 0  0.9334782608695652 0 0  0.9334782608695652 0.008333333333333333 0  0.9417391304347826 0 0  0.9417391304347826 0.008333333333333333 0  0.95 0 0  0.95 0.008333333333333333 0  0.9582608695652173 0 0  0.9582608695652173 0.008333333333333333 0  0.9665217391304347 0 0  0.9665217391304347 0.008333333333333333 0  0.9747826086956521 0 0  0.9747826086956521 0.008333333333333333 0  0.9830434782608696 0 0  0.9830434782608696 0.008333333333333333 0  0.991304347826087 0 0  0.991304347826087 0.008333333333333333 0  0.9995652173913042 0 0  0.9995652173913042 0.008333333333333333 0  1.007826086956522 0 0  1.007826086956522 0.008333333333333333 0  1.016086956521739 0 0  1.016086956521739 0.008333333333333333 0  1.024347826086957 0 0  1.024347826086957 0.008333333333333333 0  1.032608695652174 0 0  1.032608695652174 0.008333333333333333 0  1.040869565217391 0 0  1.040869565217391 0.008333333333333333 0  1.049130434782609 0 0  1.049130434782609 0.008333333333333333 0  0.9252173913043478 0.01666666666666667 0  0.9169565217391303 0.01666666666666667 0  0.9334782608695652 0.01666666666666667 0  0.9417391304347826 0.01666666666666667 0  0.95 0.01666666666666667 0  0.9582608695652173 0.01666666666666667 0  0.9665217391304347 0.01666666666666667 0  0.9747826086956521 0.01666666666666667 0  0.9830434782608696 0.01666666666666667 0  0.991304347826087 0.01666666666666667 0  0.9995652173913042 0.01666666666666667 0  1.007826086956522 0.01666666666666667 0  1.016086956521739 0.01666666666666667 0  1.024347826086957 0.01666666666666667 0  1.032608695652174 0.01666666666666667 0  1.040869565217391 0.01666666666666667 0  1.049130434782609 0.01666666666666667 0  1.057391304347826 0.01666666666666667 0  0.9252173913043478 0.025 0  0.9169565217391303 0.025 0  0.9334782608695652 0.025 0  0.9417391304347826 0.025 0  0.95 0.025 0  0.9582608695652173 0.025 0  0.9665217391304347 0.025 0  0.9747826086956521 0.025 0  0.9830434782608696 0.025 0  0.991304347826087 0.025 0  0.9995652173913042 0.025 0  1.007826086956522 0.025 0  1.016086956521739 0.025 0  1.024347826086957 0.025 0  1.032608695652174 0.025 0  1.040869565217391 0.025 0  1.049130434782609 0.025 0  1.057391304347826 0.025 0  1.065652173913043 0.025 0  0.9252173913043478 0.03333333333333333 0  0.9169565217391303 0.03333333333333333 0  0.9334782608695652 0.03333333333333333 0  0.9417391304347826 0.03333333333333333 0  0.95 0.03333333333333333 0  0.9582608695652173 0.03333333333333333 0  0.9665217391304347 0.03333333333333333 0  0.9747826086956521 0.03333333333333333 0  0.9830434782608696 0.03333333333333333 0  0.991304347826087 0.03333333333333333 0  0.9995652173913042 0.03333333333333333 0  1.007826086956522 0.03333333333333333 0  1.016086956521739 0.03333333333333333 0  1.024347826086957 0.03333333333333333 0  1.032608695652174 0.03333333333333333 0  1.040869565217391 0.03333333333333333 0  1.049130434782609 0.03333333333333333 0  1.057391304347826 0.03333333333333333 0  1.065652173913043 0.03333333333333333 0  1.073913043478261 0.03333333333333333 0  0.9252173913043478 0.04166666666666666 0  0.9169565217391303 0.04166666666666666 0  0.9334782608695652 0.04166666666666666 0  0.9417391304347826 0.04166666666666666 0  0.95 0.04166666666666666 0  0.9582608695652173 0.04166666666666666 0  0.9665217391304347 0.04166666666666666 0  0.9747826086956521 0.04166666666666666 0  0.9830434782608696 0.04166666666666666 0  0.991304347826087 0.04166666666666666 0  0.9995652173913042 0.04166666666666666 0  1.007826086956522 0.04166666666666666 0  1.016086956521739 0.04166666666666666 0  1.024347826086957 0.04166666666666666 0  1.032608695652174 0.04166666666666666 0  1.040869565217391 0.04166666666666666 0  1.049130434782609 0.04166666666666666 0  1.057391304347826 0.04166666666666666 0  1.065652173913043 0.04166666666666666 0  1.073913043478261 0.04166666666666666 0  1.082173913043478 0.04166666666666666 0  0.9252173913043478 0.05 0  0.9169565217391303 0.05 0  0.9334782608695652 0.05 0  0.9417391304347826 0.05 0  0.95 0.05 0  0.9582608695652173 0.05 0  0.9665217391304347 0.05 0  0.9747826086956521 0.05 0  0.9830434782608696 0.05 0  0.991304347826087 0.05 0  0.9995652173913042 0.05 0  1.007826086956522 0.05 0  1.016086956521739 0.05 0  1.024347826086957 0.05 0  1.032608695652174 0.05 0  1.040869565217391 0.05 0  1.049130434782609 0.05 0  1.057391304347826 0.05 0  1.065652173913043 0.05 0  1.073913043478261 0.05 0  1.082173913043478 0.05 0  1.090434782608696 0.05 0  0.9252173913043478 0.05833333333333333 0  0.9169565217391303 0.05833333333333333 0  0.9334782608695652 0.05833333333333333 0  0.9417391304347826 0.05833333333333333 0  0.95 0.05833333333333333 0  0.9582608695652173 0.05833333333333333 0  0.9665217391304347 0.05833333333333333 0  0.9747826086956521 0.05833333333333333 0  0.9830434782608696 0.05833333333333333 0  0.991304347826087 0.05833333333333333 0  0.9995652173913042 0.05833333333333333 0  1.007826086956522 0.05833333333333333 0  1.016086956521739 0.05833333333333333 0  1.024347826086957 0.05833333333333333 0  1.032608695652174 0.05833333333333333 0  1.040869565217391 0.05833333333333333 0  1.049130434782609 0.05833333333333333 0  1.057391304347826 0.05833333333333333 0  1.065652173913043 0.05833333333333333 0  1.073913043478261 0.05833333333333333 0  1.082173913043478 0.05833333333333333 0  1.090434782608696 0.05833333333333333 0  1.098695652173913 0.05833333333333333 0  0.9252173913043478 0.06666666666666667 0  0.9169565217391303 0.06666666666666667 0  0.9334782608695652 0.06666666666666667 0  0.9417391304347826 0.06666666666666667 0  0.95 0.06666666666666667 0  0.9582608695652173 0.06666666666666667 0  0.9665217391304347 0.06666666666666667 0  0.9747826086956521 0.06666666666666667 0  0.9830434782608696 0.06666666666666667 0  0.991304347826087 0.06666666666666667 0  0.9995652173913042 0.06666666666666667 0  1.007826086956522 0.06666666666666667 0  1.016086956521739 0.06666666666666667 0  1.024347826086957 0.06666666666666667 0  1.032608695652174 0.06666666666666667 0  1.040869565217391 0.06666666666666667 0  1.049130434782609 0.06666666666666667 0  1.057391304347826 0.06666666666666667 0  1.065652173913043 0.06666666666666667 0  1.073913043478261 0.06666666666666667 0  1.082173913043478 0.06666666666666667 0  1.090434782608696 0.06666666666666667 0  1.098695652173913 0.06666666666666667 0  1.10695652173913 0.06666666666666667 0  0.9252173913043478 0.075 0  0.9169565217391303 0.075 0  0.9334782608695652 0.075 0  0.9417391304347826 0.075 0  0.95 0.075 0  0.9582608695652173 0.075 0  0.9665217391304347 0.075 0  0.9747826086956521 0.075 0  0.9830434782608696 0.075 0  0.991304347826087 0.075 0  0.9995652173913042 0.075 0  1.007826086956522 0.075 0  1.016086956521739 0.075 0  1.024347826086957 0.075 0  1.032608695652174 0.075 0  1.040869565217391 0.075 0  1.049130434782609 0.075 0  1.057391304347826 0.075 0  1.065652173913043 0.075 0  1.073913043478261 0.075 0  1.082173913043478 0.075 0  1.090434782608696 0.075 0  1.098695652173913 0.075 0  1.10695652173913 0.075 0  1.115217391304348 0.075 0  0.9252173913043478 0.08333333333333333 0  0.9169565217391303 0.08333333333333333 0  0.9334782608695652 0.08333333333333333 0  0.9417391304347826 0.08333333333333333 0  0.95 0.08333333333333333 0  0.9582608695652173 0.08333333333333333 0  0.9665217391304347 0.08333333333333333 0  0.9747826086956521 0.08333333333333333 0  0.9830434782608696 0.08333333333333333 0  0.991304347826087 0.08333333333333333 0  0.9995652173913042 0.08333333333333333 0  1.007826086956522 0.08333333333333333 0  1.016086956521739 0.08333333333333333 0  1.024347826086957 0.08333333333333333 0  1.032608695652174 0.08333333333333333 0  1.040869565217391 0.08333333333333333 0  1.049130434782609 0.08333333333333333 0  1.057391304347826 0.08333333333333333 0  1.065652173913043 0.08333333333333333 0  1.073913043478261 0.08333333333333333 0  1.082173913043478 0.08333333333333333 0  1.090434782608696 0.08333333333333333 0  1.098695652173913 0.08333333333333333 0  1.10695652173913 0.08333333333333333 0  1.115217391304348 0.08333333333333333 0  1.123478260869565 0.08333333333333333 0  0.9252173913043478 0.09166666666666666 0  0.9169565217391303 0.09166666666666666 0  0.9334782608695652 0.09166666666666666 0  0.9417391304347826 0.09166666666666666 0  0.95 0.09166666666666666 0  0.9582608695652173 0.09166666666666666 0  0.9665217391304347 0.09166666666666666 0  0.9747826086956521 0.09166666666666666 0  0.9830434782608696 0.09166666666666666 0  0.991304347826087 0.09166666666666666 0  0.9995652173913042 0.09166666666666666 0  1.007826086956522 0.09166666666666666 0  1.016086956521739 0.09166666666666666 0  1.024347826086957 0.09166666666666666 0  1.032608695652174 0.09166666666666666 0  1.040869565217391 0.09166666666666666 0  1.049130434782609 0.09166666666666666 0  1.057391304347826 0.09166666666666666 0  1.065652173913043 0.09166666666666666 0  1.073913043478261 0.09166666666666666 0  1.082173913043478 0.09166666666666666 0  1.090434782608696 0.09166666666666666 0  1.098695652173913 0.09166666666666666 0  1.10695652173913 0.09166666666666666 0  1.115217391304348 0.09166666666666666 0  1.123478260869565 0.09166666666666666 0  1.131739130434783 0.09166666666666666 0  0.9252173913043478 0.1 0  0.9169565217391303 0.1 0  0.9334782608695652 0.1 0  0.9417391304347826 0.1 0  0.95 0.1 0  0.9582608695652173 0.1 0  0.9665217391304347 0.1 0  0.9747826086956521 0.1 0  0.9830434782608696 0.1 0  0.991304347826087 0.1 0  0.9995652173913042 0.1 0  1.007826086956522 0.1 0  1.016086956521739 0.1 0  1.024347826086957 0.1 0  1.032608695652174 0.1 0  1.040869565217391 0.1 0  1.049130434782609 0.1 0  1.057391304347826 0.1 0  1.
[...]
<CellData  Scalars="rho"> 
<DataArray  type="Float64"  Name="rho"  format="ascii">3.4687156362779087e-01   3.4952979038072285e-01   3.4654183955341383e-01   3.4920229016481219e-01   3.4621525884677123e-01   3.4887838114439634e-01   3.4589109112463468e-01   3.4855886323929491e-01   3.4557075908830531e-01   3.4824249082934861e-01   3.4525384940103349e-01   3.4793114319583757e-01   3.4494039011394689e-01   3.4762222812045368e-01   3.4463161176084828e-01   3.4731851280581588e-01   3.4432514426699978e-01   3.4701495739321636e-01   3.4402104862848826e-01   3.4671587335245968e-01   3.4372037337974448e-01   3.4641811919517151e-01   3.4342186109388112e-01   3.4612459080238434e-01   3.4312661741925171e-01   3.4583236603649176e-01   3.4283432466351416e-01   3.4554500993782167e-01   3.4254415134050664e-01   3.4525750219046220e-01   3.4225575442904649e-01   3.4497405615575238e-01   3.4197004623049027e-01   3.4469086881385702e-01   3.4168625893780913e-01   3.4441111365511023e-01   3.4140440238606878e-01   3.4413159006775584e-01   3.4112505943046206e-01   3.4385603876968152e-01   3.4084641499260648e-01   3.4357928525245857e-01   3.4056917053070263e-01   3.4330587051713174e-01   3.4029317254041364e-01   3.4303140602685822e-01   3.4001854609593918e-01   3.4275954594452562e-01   3.3974464176291264e-01   3.4248665481925533e-01   3.3947209863314076e-01   3.4221706397479429e-01   3.3919963796672786e-01   3.4194527474856468e-01   3.3892769234562953e-01   3.4167652712641544e-01   3.3865631457880291e-01   3.4140530336405200e-01   3.3838567315183565e-01   3.4113665289015604e-01   3.3811479149740997e-01   3.4086528025365820e-01   3.3784479346072771e-01   3.4059735082747866e-01   3.3757376112043680e-01   3.4032568772956551e-01   3.3730274485946199e-01   3.4005703483933480e-01   3.3703144191092477e-01   3.3978497094188176e-01   3.3676059658750168e-01   3.3951538085763733e-01   3.3648874546563667e-01   3.3924233643352886e-01   3.3621781055941319e-01   3.3897210157293067e-01   3.3594483937652503e-01   3.3869779184236953e-01   3.3567186797306098e-01   3.3842548585889459e-01   3.3539757157030586e-01   3.3814995606239712e-01   3.3512357520151920e-01   3.3787568809560437e-01   3.3484801771128875e-01   3.3759841567888993e-01   3.3457297696998889e-01   3.3732327823155223e-01   3.3429581847388673e-01   3.3704411510786092e-01   3.3401842195150633e-01   3.3676650288316834e-01   3.3373939720941198e-01   3.3648551864319654e-01   3.3346064344385773e-01   3.3620561533027560e-01   3.3317983376093502e-01   3.3592225259302111e-01   3.3289952578118298e-01   3.3564164504020577e-01   3.3261670547829070e-01   3.3535608956591062e-01   3.3233364503137247e-01   3.3507261402243327e-01   3.3204880409109483e-01   3.3478531379144533e-01   3.3176439009497805e-01   3.3449941769130076e-01   3.3147759587075953e-01   3.3421002198221278e-01   3.3119181147706767e-01   3.3392316507127762e-01   3.3090302464465271e-01   3.3363123492024921e-01   3.3061410580043615e-01   3.3334139686190650e-01   3.3032310206679516e-01   3.3304738137625151e-01   3.3003251382168081e-01   3.3275483989466609e-01   3.2973950759987203e-01   3.3245872803178328e-01   3.2944746107296929e-01   3.3216558628151466e-01   3.2915262190981437e-01   3.3186699345485221e-01   3.2885740693762849e-01   3.3157071726350501e-01   3.2856028389261421e-01   3.3127001244483484e-01   3.2826361671271304e-01   3.3097101837398651e-01   3.2796445010487280e-01   3.3066787896288713e-01   3.2766639699669914e-01   3.3036907311724673e-01   3.2736520203392155e-01   3.3006350761268732e-01   3.2706378641560213e-01   3.2976114962166420e-01   3.2676042401590288e-01   3.2945405837117892e-01   3.2645783304024273e-01   3.2914879053641044e-01   3.2615260034178090e-01   3.2883982142438484e-01   3.2584893098544432e-01   3.2853439777243876e-01   3.2554182390156861e-01   3.2822298799169697e-01   3.2523462680957405e-01   3.2791456754033760e-01   3.2492553084557507e-01   3.2760120473905641e-01   3.2461706436419702e-01   3.2728994029487701e-01   3.2430617358424385e-01   3.2697455006263032e-01   3.2399653151646279e-01   3.2666342101567480e-01   3.2368389650316509e-01   3.2634563035957181e-01   3.2337076178288410e-01   3.2603177198973865e-01   3.2305605580240893e-01   3.2571211363992081e-01   3.2274215281561369e-01   3.2539560972920484e-01   3.2242559041946239e-01   3.2507393083163993e-01   3.2211077953164002e-01   3.2475743202826568e-01   3.2179218326275860e-01   3.2443318316388142e-01   3.2147370376040924e-01   3.2411404663375054e-01   3.2115318504098389e-01   3.2378948361309157e-01   3.2083396114703255e-01   3.2346480981693382e-01   3.2051198437028267e-01   3.2313907475758330e-01   3.2019144332303029e-01   3.2281539425001698e-01   3.1986857722950285e-01   3.2248540707776485e-01   3.1954255269460596e-01   3.2216140428665940e-01   3.1921771259781406e-01   3.2182830855869088e-01   3.1889257256547254e-01   3.2150172109419750e-01   3.1856476812948753e-01   3.2116740585150849e-01   3.1823950005332463e-01   3.2084024809196177e-01   3.1791041273794252e-01   3.2050355090013816e-01   3.1758009456082131e-01   3.2017426077899397e-01   3.1724904737879378e-01   3.1983496255373201e-01   3.1691968824869005e-01   3.1950295953651997e-01   3.1658579575166423e-01   3.1916268337697790e-01   3.1625620262055704e-01   3.1883182469839111e-01   3.1592118989638490e-01   3.1848927382330178e-01   3.1558565469192340e-01   3.1815236471192038e-01   3.1524868520354071e-01   3.1780806437561399e-01   3.1491483837585399e-01   3.1747361458105344e-01   3.1457633435455645e-01   3.1712619598616720e-01   3.1424132605350646e-01   3.1678843264795670e-01   3.1389936881816499e-01   3.1644180923756671e-01   3.1356126031629294e-01   3.4821732641088071e-01   3.4512364824970426e-01   3.4787356168657052e-01   3.4478107395447471e-01   3.4753286391545263e-01   3.4444073343360965e-01   3.4719533150243348e-01   3.4410411586898376e-01   3.4686108722089559e-01   3.4376857095310304e-01   3.4653137562695974e-01   3.4343861778837775e-01   3.4620484310315758e-01   3.4311186634665003e-01   3.4588068356973634e-01   3.4278929808685105e-01   3.4556043017976024e-01   3.4246892908861976e-01   3.4524352427998456e-01   3.4215226959131201e-01   3.4493015430252322e-01   3.4183774061814720e-01   3.4462138819383914e-01   3.4152748059521837e-01   3.4431495884283553e-01   3.4121998261630992e-01   3.4401087376683004e-01   3.4091582171760287e-01   3.4371022600236018e-01   3.4061448740206263e-01   3.4341172611512982e-01   3.4031608171122885e-01   3.4311652283395738e-01   3.4001933640055437e-01   3.4282424432613517e-01   3.3972625122226485e-01   3.4253409636044979e-01   3.3943476099056735e-01   3.4224570448612790e-01   3.3914620505610066e-01   3.4196000285600803e-01   3.3885945695942271e-01   3.4167621968436368e-01   3.3857533248739469e-01   3.4139438078124684e-01   3.3829217575692810e-01   3.4111504017402783e-01   3.3801173773248372e-01   3.4083640058763753e-01   3.3773199861926223e-01   3.4055914230072520e-01   3.3745420547233168e-01   3.4028313555848289e-01   3.3717761940654178e-01   3.4000849004818873e-01   3.3690226886918467e-01   3.3973458781645627e-01   3.3662756162558988e-01   3.3946202096485656e-01   3.3635416680746971e-01   3.3918955400024853e-01   3.3608105987899722e-01   3.3891757405771672e-01   3.3580876682121319e-01   3.3864617552297527e-01   3.3553703017923048e-01   3.3837549766469260e-01   3.3526566935152025e-01   3.3810460719118091e-01   3.3499433406277263e-01   3.3783456567582026e-01   3.3472349430588888e-01   3.3756352272417300e-01   3.3445246322795719e-01   3.3729245292729559e-01   3.3418128043846196e-01   3.3702112561342057e-01   3.3391021244152969e-01   3.3675022996921111e-01   3.3363886225298217e-01   3.3647836504554351e-01   3.3336700299895500e-01   3.3620737553323421e-01   3.3309532013076387e-01   3.3593439170943573e-01   3.3282275338237632e-01   3.3566135023946903e-01   3.3254982716799353e-01   3.3538703419772448e-01   3.3227650686456323e-01   3.3511296951382913e-01   3.3200237025098106e-01   3.3483740038202997e-01   3.3172742833164498e-01   3.3456229041497582e-01   3.3145227558512330e-01   3.3428512129031879e-01   3.3117602211247332e-01   3.3400764279022177e-01   3.3089919454011341e-01   3.3372860167294505e-01   3.3062171288978043e-01   3.3344976840864465e-01   3.3034316234586480e-01   3.3316895514982847e-01   3.3006348298826022e-01   3.3288856561827662e-01   3.2978337112899203e-01   3.3260574131229181e-01   3.2950215045977532e-01   3.3232259109883677e-01   3.2921994826767881e-01   3.3203773958330413e-01   3.2893727760744501e-01   3.3175324381726812e-01   3.2865339599555649e-01   3.3146645468516356e-01   3.2836804273579995e-01   3.3118059096612079e-01   3.2808261051803650e-01   3.3089180083089487e-01   3.2779535808103544e-01   3.3060278953942618e-01   3.2750772866671524e-01   3.3031177554103314e-01   3.2721923999735458e-01   3.3002109837234306e-01   3.2692968619700291e-01   3.2972810339972275e-01   3.2663852152690814e-01   3.2943597120094981e-01   3.2634740637503706e-01   3.2914113769067321e-01   3.2605442002133045e-01   3.2884582230467396e-01   3.2576123303301768e-01   3.2854869550011506e-01   3.2546687248477119e-01   3.2825193023146526e-01   3.2517170279877156e-01   3.2795278969884400e-01   3.2487464432390106e-01   3.2765463962857794e-01   3.2457769045305429e-01   3.2735346259967052e-01   3.2427913799502700e-01   3.2705193865614196e-01   3.2397983449480472e-01   3.2674858287930586e-01   3.2367996971284019e-01   3.2644589413154212e-01   3.2337903699574455e-01   3.2614069724411565e-01   3.2307623970698746e-01   3.2583693755485954e-01   3.2277384252301533e-01   3.2552984523660222e-01   3.2246920612580726e-01   3.2522254497526709e-01   3.2216455873129451e-01   3.2491344632441505e-01   3.2185913015945300e-01   3.2460488605025689e-01   3.2155270160235705e-01   3.2429402282201142e-01   3.2124451409483695e-01   3.2398429187652250e-01   3.2093678687854510e-01   3.2367167229730431e-01   3.2062693224459454e-01   3.2335843500307793e-01   3.2031711675255542e-01   3.2304372759582206e-01   3.2000624050048543e-01   3.2272972981651604e-01   3.1969460512488185e-01   3.2241320575077748e-01   3.1938110038432038e-01   3.2209830157158942e-01   3.1906804801330213e-01   3.2177972803759575e-01   3.1875286070382253e-01   3.2146113448928360e-01   3.1843733205711444e-01   3.2114064167699724e-01   3.1812187108340539e-01   3.2082132526252560e-01   3.1780470803977012e-01   3.2049940014035627e-01   3.1748688966461680e-01   3.2017876613046864e-01   3.1716892869628471e-01   3.1985590014071136e-01   3.1684762644776349e-01   3.1952976123422994e-01   3.1652873793449593e-01   3.1920492213883150e-01   3.1620506120907804e-01   3.1887968105316694e-01   3.1588458886700277e-01   3.1855191854785936e-01   3.1556003953920769e-01   3.1822656128731330e-01   3.1523782421269131e-01   3.1789749474103307e-01   3.1491162673036166e-01   3.1756706180782518e-01   3.1458786456208515e-01   3.1723604153037471e-01   3.1426030235216829e-01   3.1690657949380158e-01   3.1393443498763834e-01   3.1657273779104678e-01   3.1360497315180230e-01   3.1624305493210420e-01   3.1327748193452498e-01   3.1590806519004372e-01   3.1294653619989971e-01   3.1557242437761585e-01   3.1261713708894917e-01   3.1523548536447399e-01   3.1228389168679849e-01   3.1490155530759584e-01   3.1195347102975296e-01   3.1456307689126650e-01   3.1161950450556719e-01   3.1422797555819315e-01   3.1128715626155595e-01   3.1388601341550565e-01   3.1095228838636313e-01   3.1354786478289276e-01   3.1061642526389899e-01   3.1028000261316879e-01   3.4510332379665776e-01   3.4190134632801311e-01   3.4476076901967062e-01   3.4155823934439788e-01   3.4442054206925382e-01   3.4122096556961540e-01   3.4408403004868676e-01   3.4088400356901449e-01   3.4374861863968637e-01   3.4055062481162701e-01   3.4341876589271036e-01   3.4021967914509543e-01   3.4309214074893779e-01   3.3989384554102853e-01   3.4276965522045660e-01   3.3957033894922517e-01   3.4244941377887100e-01   3.3925178030978154e-01   3.4213285799186083e-01   3.3893387303520833e-01   3.4181844256232963e-01   3.3862118031941724e-01   3.4150827928574207e-01   3.3831008366932297e-01   3.4120088909013796e-01   3.3800314920760599e-01   3.4089681692517015e-01   3.3769805114200807e-01   3.4059556560274606e-01   3.3739700675851014e-01   3.4029723451852828e-01   3.3709797616064685e-01   3.4000056401438511e-01   3.3680210620792711e-01   3.3970754636332184e-01   3.3650827404084593e-01   3.3941613214116395e-01   3.3621727074811664e-01   3.3912763236074506e-01   3.3592766665027063e-01   3.3884093564262607e-01   3.3564116713450770e-01   3.3855684954469423e-01   3.3535630321512161e-01   3.3827373638756619e-01   3.3507381939231468e-01   3.3799332589993447e-01   3.3479260072034606e-01   3.3771362683754191e-01   3.3451343684290014e-01   3.3743585186665165e-01   3.3423450475458016e-01   3.3715927846837984e-01   3.3395804597616524e-01   3.3688393221170609e-01   3.3368224195843393e-01   3.3660922841598390e-01   3.3340790210116550e-01   3.3633582557001301e-01   3.3313440785785936e-01   3.3606272143888422e-01   3.3286173749061837e-01   3.3579041149907474e-01   3.3258891623613024e-01   3.3551865376543671e-01   3.3231742661111541e-01   3.3524726617326972e-01   3.3204579570551856e-01   3.3497590490790713e-01   3.3177492857179153e-01   3.3470502547970443e-01   3.3150416786468312e-01   3.3443397255312762e-01   3.3123358892460431e-01   3.3416274741359503e-01   3.3096252674521437e-01   3.3389163719136178e-01   3.3069180688797994e-01   3.3362023466488816e-01   3.3042074144607841e-01   3.3334833515810214e-01   3.3014966383341937e-01   3.3307658606729851e-01   3.2987822684852636e-01   3.3280398936290051e-01   3.2960667828414036e-01   3.3253099270004510e-01   3.2933389207252600e-01   3.3225762843789797e-01   3.2906141699041858e-01   3.3198341471155068e-01   3.2878796700185903e-01   3.3170843179154674e-01   3.2851429400968696e-01   3.3143319095255414e-01   3.2823995187688360e-01   3.3115690926656699e-01   3.2796522436593256e-01   3.3087999085383840e-01   3.2768887382842909e-01   3.3060246478657723e-01   3.2741284840433654e-01   3.3032382311486280e-01   3.2713516052172992e-01   3.3004410199113476e-01   3.2685743610252049e-01   3.2976389412944679e-01   3.2657840635892027e-01   3.2948264396123489e-01   3.2629912593059035e-01   3.2920035333116182e-01   3.2601795570629905e-01   3.2891763598940316e-01   3.2573702438589452e-01   3.2863366310136011e-01   3.2545426167454505e-01   3.2834826920978966e-01   3.2517153228958706e-01   3.2806274253241996e-01   3.2488710969137036e-01   3.2777546384253170e-01   3.2460278655475239e-01   3.2748774550105170e-01   3.2431585955379200e-01   3.2719921533082652e-01   3.2402971346514631e-01   3.2690956684377587e-01   3.2374162380916238e-01   3.2661836903467623e-01   3.2345345355791483e-01   3.2632715484960639e-01   3.2316405644206186e-01   3.2603415746808245e-01   3.2287436854179896e-01   3.2574086934909502e-01   3.2258211128612996e-01   3.2544647557351342e-01   3.2229087093244990e-01   3.2515120396766256e-01   3.2199710543052867e-01   3.2485411819344501e-01   3.2170386457741418e-01   3.2455706452880878e-01   3.2140869798753008e-01   3.2425850495910019e-01   3.2111373587631420e-01   3.2395911144231804e-01   3.2081597464267259e-01   3.2365921092993910e-01   3.2051928472631613e-01   3.2335818494819796e-01   3.2022022458389132e-01   3.2305536060242040e-01   3.1992171973226541e-01   3.2275287108721917e-01   3.1962109991185961e-01   3.2244822634936698e-01   3.1932104657103300e-01   3.2214349762539096e-01   3.1901764920235925e-01   3.2183803157968810e-01   3.1871586609691627e-01   3.2153151811669667e-01   3.1841172015483066e-01   3.2122330275615235e-01   3.1810789157650365e-01   3.2091548321056629e-01   3.1780283791231334e-01   3.2060563044700108e-01   3.1749758138686590e-01   3.2029572665527017e-01   3.1718954373553093e-01   3.1998481889025315e-01   3.1688286527926318e-01   3.1967309569609953e-01   3.1657355343514676e-01   3.1935956931953913e-01   3.1626487113784996e-01   3.1904642073196388e-01   3.1595454121198668e-01   3.1873123283539867e-01   3.1564416546405644e-01   3.1841562857608863e-01   3.1533145095429344e-01   3.1810014078834586e-01   3.1501946040366779e-01   3.1778291590167163e-01   3.1470622846221236e-01   3.1746509363288272e-01   3.1439237536157366e-01   3.1714703699248892e-01   3.1407745346013771e-01   3.1682574820753445e-01   3.1376275075042848e-01   3.1650671637702782e-01   3.1344430405654689e-01   3.1618305517824369e-01   3.1312832632164767e-01   3.1586246696785608e-01   3.1280892946017541e-01   3.1553793865523488e-01   3.1249116000643767e-01   3.1521560025910922e-01   3.1217120539899812e-01   3.1488944584674272e-01   3.1185183960275054e-01   3.1456555942098768e-01   3.1152994285791130e-01   3.1423800808181418e-01   3.1120972887323517e-01   3.1391203382809968e-01   3.1088556746864404e-01   3.1358258663676197e-01   3.1056306874087725e-01   3.1325497151586779e-01   3.1023779243857480e-01   3.1292406478328838e-01   3.0991357269788589e-01   3.1259457076085456e-01   3.0958657793898398e-01   3.1226133166598002e-01   3.0926113945473005e-01   3.1193081508203507e-01   3.0893338526788600e-01   3.1159689055773276e-01   3.0860716646445574e-01   3.1126441541230176e-01   3.0827634972692486e-01   3.1092953910106774e-01   3.0794815207849857e-01   3.1059362824046444e-01   3.0761650748989267e-01   3.1025720857713246e-01   3.0728652304212245e-01   3.0695359099353153e-01   3.4186993834084101e-01   3.4152705034615261e-01   3.3821433959439678e-01   3.4118989249997567e-01   3.3787847834841855e-01   3.4085311549769531e-01   3.3754345347933362e-01   3.4051997605984852e-01   3.3721156651402279e-01   3.4018920877748154e-01   3.3688147928350731e-01   3.3986356903656706e-01   3.3655671596403658e-01   3.3954027565690920e-01   3.3623423508666944e-01   3.3922187753649014e-01   3.3591424870627651e-01   3.3890418815493767e-01   3.3559911025369016e-01   3.3859167816322178e-01   3.3528559381530237e-01   3.3828077314372362e-01   3.3497653816958384e-01   3.3797401267217020e-01   3.3466915307624701e-01   3.3766906616699677e-01   3.3436586998942669e-01   3.3736818043596839e-01   3.3406443015390641e-01   3.3706929015774795e-01   3.3376667794358450e-01   3.3677357085761500e-01   3.3347073384602494e-01   3.3647986556647630e-01   3.3317792125005541e-01   3.3618899323440787e-01   3.3288698005613904e-01   3.3589949036040856e-01   3.3259874082185936e-01   3.3561309437353221e-01   3.3231204203722681e-01   3.3532832151147290e-01   3.3202806517258987e-01   3.3504591965040559e-01   3.3174554017315033e-01   3.3476477273310862e-01   3.3146523855785254e-01   3.3448567306200666e-01   3.3118604889879144e-01   3.3420678212202232e-01   3.3090876281045395e-01   3.3393036265477677e-01   3.3063209158497420e-01   3.3365459343216342e-01   3.3035722068234724e-01   3.3338027637836931e-01   3.3008301957478564e-01   3.3310679665369713e-01   3.2981017407909963e-01   3.3283413264512163e-01   3.2953800350047174e-01   3.3256129748965041e-01   3.2926663478497742e-01   3.3228979458281721e-01   3.2899533944764381e-01   3.3201814365050958e-01   3.2872484324686280e-01   3.3174725575594866e-01   3.2845429344522714e-01   3.3147645825546890e-01   3.2818437919904986e-01   3.3120585106594158e-01   3.2791458348119429e-01   3.3093473211250213e-01   3.2764489320247242e-01   3.3066396659134401e-01   3.2737489914058243e-01   3.3039284358473131e-01   3.2710495254114008e-01   3.3012171645051602e-01   3.2683467933058657e-01   3.2985020889500866e-01   3.2656436560412888e-01   3.2957860750332202e-01   3.2629382718973582e-01   3.2930573455494760e-01   3.2602294571216917e-01   3.2903319200207720e-01   3.2575132257581807e-01   3.2875966113028116e-01   3.2547945069815987e-01   3.2848592184710318e-01   3.2520699657894070e-01   3.2821148909535808e-01   3.2493410520339044e-01   3.2793669422089844e-01   3.2466079594570491e-01   3.2766024069031396e-01   3.2438683820641917e-01   3.2738413340150446e-01   3.2411184036427032e-01   3.2710635332415883e-01   3.2383645949953466e-01   3.2682855354615681e-01   3.2356000107333205e-01   3.2654942423610650