<?xml version="1.0"?>
<VTKFile type="UnstructuredGrid"  version="0.1"  >
<UnstructuredGrid>
<Piece  NumberOfPoints="7161" NumberOfCells="13800">
<Points>
<DataArray  type="Float64"  NumberOfComponents="3"  format="ascii">0 0 0  0.01652173913043478 0 0  0.03304347826086956 0 0  0.04956521739130434 0 0  0.06608695652173913 0 0  0.08260869565217391 0 0  0.09913043478260869 0 0  0.1156521739130435 0 0  0.1321739130434783 0 0  0.148695652173913 0 0  0.1652173913043478 0 0  0.1817391304347826 0 0  0.1982608695652174 0 0  0.2147826086956522 0 0  0.2313043478260869 0 0  0.2478260869565218 0 0  0.2643478260869565 0 0  0.2808695652173913 0 0  0.2973913043478261 0 0  0.3139130434782609 0 0  0.3304347826086956 0 0  0.3469565217391304 0 0  0.3634782608695652 0 0  0.3799999999999999 0 0  0.3965217391304348 0 0  0.4130434782608696 0 0  0.4295652173913043 0 0  0.4460869565217391 0 0  0.4626086956521739 0 0  0.4791304347826086 0 0  0.4956521739130435 0 0  0.5121739130434783 0 0  0.528695652173913 0 0  0.5452173913043478 0 0  0.5617391304347825 0 0  0.5782608695652174 0 0  0.5947826086956521 0 0  0.6113043478260869 0 0  0.6278260869565218 0 0  0.6443478260869565 0 0  0.6608695652173913 0 0  0.677391304347826 0 0  0.6939130434782609 0 0  0.7104347826086956 0 0  0.7269565217391304 0 0  0.7434782608695653 0 0  0.7599999999999999 0 0  0.7765217391304348 0 0  0.7930434782608695 0 0  0.8095652173913043 0 0  0.8260869565217391 0 0  0.8426086956521739 0 0  0.8591304347826086 0 0  0.8756521739130434 0 0  0.8921739130434783 0 0  0.908695652173913 0 0  0.9252173913043478 0 0  0.9417391304347826 0 0  0.9582608695652173 0 0  0.9747826086956521 0 0  0.991304347826087 0 0  1.007826086956522 0 0  1.024347826086957 0 0  1.040869565217391 0 0  1.057391304347826 0 0  1.073913043478261 0 0  1.090434782608696 0 0  1.10695652173913 0 0  1.123478260869565 0 0  1.14 0 0  1.156521739130435 0 0  1.17304347826087 0 0  1.189565217391304 0 0  1.206086956521739 0 0  1.222608695652174 0 0  1.239130434782609 0 0  1.255652173913044 0 0  1.272173913043478 0 0  1.288695652173913 0 0  1.305217391304348 0 0  1.321739130434783 0 0  1.338260869565217 0 0  1.354782608695652 0 0  1.371304347826087 0 0  1.387826086956522 0 0  1.404347826086957 0 0  1.420869565217391 0 0  1.437391304347826 0 0  1.453913043478261 0 0  1.470434782608696 0 0  1.486956521739131 0 0  1.503478260869565 0 0  1.52 0 0  1.536521739130435 0 0  1.55304347826087 0 0  1.569565217391304 0 0  1.586086956521739 0 0  1.602608695652174 0 0  1.619130434782609 0 0  1.635652173913043 0 0  1.652173913043478 0 0  1.668695652173913 0 0  1.685217391304348 0 0  1.701739130434782 0 0  1.718260869565217 0 0  1.734782608695652 0 0  1.751304347826087 0 0  1.767826086956522 0 0  1.784347826086957 0 0  1.800869565217391 0 0  1.817391304347826 0 0  1.833913043478261 0 0  1.850434782608696 0 0  1.86695652173913 0 0  1.883478260869565 0 0  1.9 0 0  1.916521739130435 0 0  1.933043478260869 0 0  1.949565217391304 0 0  1.966086956521739 0 0  1.982608695652174 0 0  1.999130434782608 0 0  2.015652173913043 0 0  2.032173913043478 0 0  2.048695652173913 0 0  2.065217391304348 0 0  2.081739130434782 0 0  2.098260869565217 0 0  2.114782608695652 0 0  2.131304347826087 0 0  2.147826086956522 0 0  2.164347826086956 0 0  2.180869565217391 0 0  2.197391304347826 0 0  2.213913043478261 0 0  2.230434782608695 0 0  2.24695652173913 0 0  2.263478260869565 0 0  2.28 0 0  2.296521739130434 0 0  2.31304347826087 0 0  2.329565217391304 0 0  2.346086956521739 0 0  2.362608695652174 0 0  2.379130434782609 0 0  2.395652173913044 0 0  2.412173913043478 0 0  2.428695652173913 0 0  2.445217391304348 0 0  2.461739130434782 0 0  2.478260869565217 0 0  2.494782608695652 0 0  2.511304347826087 0 0  2.527826086956522 0 0  2.544347826086956 0 0  2.560869565217391 0 0  2.577391304347826 0 0  2.593913043478261 0 0  2.610434782608696 0 0  2.62695652173913 0 0  2.643478260869565 0 0  2.66 0 0  2.676521739130435 0 0  2.693043478260869 0 0  2.709565217391304 0 0  2.726086956521739 0 0  2.742608695652174 0 0  2.759130434782609 0 0  2.775652173913044 0 0  2.792173913043478 0 0  2.808695652173913 0 0  2.825217391304347 0 0  2.841739130434783 0 0  2.858260869565217 0 0  2.874782608695652 0 0  2.891304347826087 0 0  2.907826086956522 0 0  2.924347826086957 0 0  2.940869565217391 0 0  2.957391304347826 0 0  2.973913043478261 0 0  2.990434782608696 0 0  3.006956521739131 0 0  3.023478260869565 0 0  3.04 0 0  3.056521739130435 0 0  3.073043478260869 0 0  3.089565217391304 0 0  3.106086956521739 0 0  3.122608695652174 0 0  3.139130434782609 0 0  3.155652173913043 0 0  3.172173913043478 0 0  3.188695652173913 0 0  3.205217391304347 0 0  3.221739130434782 0 0  3.238260869565217 0 0  3.254782608695652 0 0  3.271304347826087 0 0  3.287826086956521 0 0  3.304347826086957 0 0  3.320869565217391 0 0  3.337391304347826 0 0  3.353913043478261 0 0  3.370434782608696 0 0  3.386956521739131 0 0  3.403478260869565 0 0  3.419999999999999 0 0  3.436521739130435 0 0  3.453043478260869 0 0  3.469565217391304 0 0  3.486086956521739 0 0  3.502608695652174 0 0  3.519130434782609 0 0  3.535652173913043 0 0  3.552173913043478 0 0  3.568695652173913 0 0  3.585217391304347 0 0  3.601739130434782 0 0  3.618260869565217 0 0  3.634782608695652 0 0  3.651304347826087 0 0  3.667826086956521 0 0  3.684347826086956 0 0  3.700869565217391 0 0  3.717391304347826 0 0  3.733913043478261 0 0  3.750434782608695 0 0  3.766956521739131 0 0  3.783478260869565 0 0  3.8 0 0  0 0.01666666666666667 0  0.01652173913043478 0.01666666666666667 0  0.03304347826086956 0.01666666666666667 0  0.04956521739130434 0.01666666666666667 0  0.06608695652173913 0.01666666666666667 0  0.08260869565217391 0.01666666666666667 0  0.09913043478260869 0.01666666666666667 0  0.1156521739130435 0.01666666666666667 0  0.1321739130434783 0.01666666666666667 0  0.148695652173913 0.01666666666666667 0  0.1652173913043478 0.01666666666666667 0  0.1817391304347826 0.01666666666666667 0  0.1982608695652174 0.01666666666666667 0  0.2147826086956522 0.01666666666666667 0  0.2313043478260869 0.01666666666666667 0  0.2478260869565218 0.01666666666666667 0  0.2643478260869565 0.01666666666666667 0  0.2808695652173913 0.01666666666666667 0  0.2973913043478261 0.01666666666666667 0  0.3139130434782609 0.01666666666666667 0  0.3304347826086956 0.01666666666666667 0  0.3469565217391304 0.01666666666666667 0  0.3634782608695652 0.01666666666666667 0  0.3799999999999999 0.01666666666666667 0  0.3965217391304348 0.01666666666666667 0  0.4130434782608696 0.01666666666666667 0  0.4295652173913043 0.01666666666666667 0  0.4460869565217391 0.01666666666666667 0  0.4626086956521739 0.01666666666666667 0  0.4791304347826086 0.01666666666666667 0  0.4956521739130435 0.01666666666666667 0  0.5121739130434783 0.01666666666666667 0  0.528695652173913 0.01666666666666667 0  0.5452173913043478 0.01666666666666667 0  0.5617391304347825 0.01666666666666667 0  0.5782608695652174 0.01666666666666667 0  0.5947826086956521 0.01666666666666667 0  0.6113043478260869 0.01666666666666667 0  0.6278260869565218 0.01666666666666667 0  0.6443478260869565 0.01666666666666667 0  0.6608695652173913 0.01666666666666667 0  0.677391304347826 0.01666666666666667 0  0.6939130434782609 0.01666666666666667 0  0.7104347826086956 0.01666666666666667 0  0.7269565217391304 0.01666666666666667 0  0.7434782608695653 0.01666666666666667 0  0.7599999999999999 0.01666666666666667 0  0.7765217391304348 0.01666666666666667 0  0.7930434782608695 0.01666666666666667 0  0.8095652173913043 0.01666666666666667 0  0.8260869565217391 0.01666666666666667 0  0.8426086956521739 0.01666666666666667 0  0.8591304347826086 0.01666666666666667 0  0.8756521739130434 0.01666666666666667 0  0.8921739130434783 0.01666666666666667 0  0.908695652173913 0.01666666666666667 0  0.9252173913043478 0.01666666666666667 0  0.9417391304347826 0.01666666666666667 0  0.9582608695652173 0.01666666666666667 0  0.9747826086956521 0.01666666666666667 0  0.991304347826087 0.01666666666666667 0  1.007826086956522 0.01666666666666667 0  1.024347826086957 0.01666666666666667 0  1.040869565217391 0.01666666666666667 0  1.057391304347826 0.01666666666666667 0  1.073913043478261 0.01666666666666667 0  1.090434782608696 0.01666666666666667 0  1.10695652173913 0.01666666666666667 0  1.123478260869565 0.01666666666666667 0  1.14 0.01666666666666667 0  1.156521739130435 0.01666666666666667 0  1.17304347826087 0.01666666666666667 0  1.189565217391304 0.01666666666666667 0  1.206086956521739 0.01666666666666667 0  1.222608695652174 0.01666666666666667 0  1.239130434782609 0.01666666666666667 0  1.255652173913044 0.01666666666666667 0  1.272173913043478 0.01666666666666667 0  1.288695652173913 0.01666666666666667 0  1.305217391304348 0.01666666666666667 0  1.321739130434783 0.01666666666666667 0  1.338260869565217 0.01666666666666667 0  1.354782608695652 0.01666666666666667 0  1.371304347826087 0.01666666666666667 0  1.387826086956522 0.01666666666666667 0  1.404347826086957 0.01666666666666667 0  1.420869565217391 0.01666666666666667 0  1.437391304347826 0.01666666666666667 0  1.453913043478261 0.01666666666666667 0  1.470434782608696 0.01666666666666667 0  1.486956521739131 0.01666666666666667 0  1.503478260869565 0.01666666666666667 0  1.52 0.01666666666666667 0  1.536521739130435 0.01666666666666667 0  1.55304347826087 0.01666666666666667 0  1.569565217391304 0.01666666666666667 0  1.586086956521739 0.01666666666666667 0  1.602608695652174 0.01666666666666667 0  1.619130434782609 0.01666666666666667 0  1.635652173913043 0.01666666666666667 0  1.652173913043478 0.01666666666666667 0  1.668695652173913 0.01666666666666667 0  1.685217391304348 0.01666666666666667 0  1.701739130434782 0.01666666666666667 0  1.718260869565217 0.01666666666666667 0  1.734782608695652 0.01666666666666667 0  1.751304347826087 0.01666666666666667 0  1.767826086956522 0.01666666666666667 0  1.784347826086957 0.01666666666666667 0  1.800869565217391 0.0166666666666666
[...]
<PointData  Scalars="rho"> 
<DataArray  type="Float64"  Name="rho"  format="ascii">9.9999018428882780e-01  9.9998465505357625e-01  9.9998323372661535e-01  9.9998108699351951e-01  9.9997803243050698e-01  9.9997368711739665e-01  9.9996745274488275e-01  9.9682815216077858e-01  9.8645113911480709e-01  9.7259289519176206e-01  9.5787183810931453e-01  9.4516729261963417e-01  9.3665604989942530e-01  9.3495275932298894e-01  9.3906342284425359e-01  9.4806496800958895e-01  9.7083303414510491e-01  9.8039350564782779e-01  9.8968943394951647e-01  9.9195949778440629e-01  9.9140833475331858e-01  9.9041904632879552e-01  9.8779813346157708e-01  9.8176566814150212e-01  9.7717672899061225e-01  9.0290646631360394e-01  8.0575410188777907e-01  7.3585135011556857e-01  6.9182341513285950e-01  6.8665276404465903e-01  7.1558947490879032e-01  7.6023033145727825e-01  8.2811029936025915e-01  9.0814998746935649e-01  9.6502437581665079e-01  9.9379838665573395e-01  9.9253800841976081e-01  9.9095257609459464e-01  9.8823631405057355e-01  9.8593861816793782e-01  9.8313253095651598e-01  9.8088161004706709e-01  9.7936900124224235e-01  9.7856694585390624e-01  9.7827776445303360e-01  9.7750434825501709e-01  9.7744395631981473e-01  9.7729172835874523e-01  9.7703212403694351e-01  9.7650898814251119e-01  9.7622205317436228e-01  9.7608874540841528e-01  9.7625191536218159e-01  9.7685535289488623e-01  9.7799394617328139e-01  9.7962353281169756e-01  9.8147283657806583e-01  9.8309311645024067e-01  9.8406509898624972e-01  9.8415272361240602e-01  9.8333014789561191e-01  9.8181023797970923e-01  9.7999165060497473e-01  9.7823642199200578e-01  9.7745072097287711e-01  9.7648486562857406e-01  9.7608945858137608e-01  9.8006833080889133e-01  9.8070998748367011e-01  9.8174699869243087e-01  9.8308780147354635e-01  9.8415720019827213e-01  9.8580446603846317e-01  9.8854781484510812e-01  9.7393944905697749e-01  9.6448260777072048e-01  9.5356956029789286e-01  9.5727699112673370e-01  9.6453949660316596e-01  9.7384585062150764e-01  9.8728048672209079e-01  9.8760144180363096e-01  9.9079150337147359e-01  9.9596119388055848e-01  9.9999999020335628e-01  9.9999998923243172e-01  9.9999998793052425e-01  9.9999998657834721e-01  9.9926410987284320e-01  9.5705956781976798e-01  9.0369951253028602e-01  8.5566171127770962e-01  8.2401363058966215e-01  9.0293670953007044e-01  9.6805881310460662e-01  9.8152194220173672e-01  9.9485764913458885e-01  9.9914992589634666e-01  9.9946463500235494e-01  9.9800540987422537e-01  9.7917985128892904e-01  9.6553690227946731e-01  9.4848950482886374e-01  9.5082730704384821e-01  9.5827501512689028e-01  9.5154320767773293e-01  9.5382344431215837e-01  9.5125568749995693e-01  9.3691577029975925e-01  9.2419429049902901e-01  9.1936840739817538e-01  9.1126457432129704e-01  9.0289090465772304e-01  8.8995154814945832e-01  8.7123411561776687e-01  8.4350466974718974e-01  8.0969928696311799e-01  7.7285535222603963e-01  7.1907788860567390e-01  6.9732946107492966e-01  7.1764210964175279e-01  7.5159520381034350e-01  7.9146418822263642e-01  8.2099960182585707e-01  8.4010653010392278e-01  8.5599635425718934e-01  8.4728115567974904e-01  8.4324565465969414e-01  8.3829959691557887e-01  8.8626984896209660e-01  8.7692971418897747e-01  8.7546481812140220e-01  8.0921499185201495e-01  8.0853798719635983e-01  8.5527085527553648e-01  8.5530953310938163e-01  8.4605489241110077e-01  8.4897598088501125e-01  8.3779148340640675e-01  8.3192247094577387e-01  8.2559255067344439e-01  8.2634440260748454e-01  7.8280715487314989e-01  7.6695351245692278e-01  7.4301113759502968e-01  7.5336289137641055e-01  7.7087508638227542e-01  7.7100748739120351e-01  7.7649671448625235e-01  7.5245839878617338e-01  7.5605351757376182e-01  7.4133348928371212e-01  7.4505805298475292e-01  7.5045886180868482e-01  7.6478830371250106e-01  7.6026694555939167e-01  7.6370875162273388e-01  7.5632197951969449e-01  7.6033578846725958e-01  8.2648621933644950e-01  8.3919488360421901e-01  8.5363792044303133e-01  8.3715555656303342e-01  8.4080465340788324e-01  8.4918161622763921e-01  9.7718146588766042e-01  9.7848176380001928e-01  9.8098417136483518e-01  9.6320366104570865e-01  9.5605089761323547e-01  9.4556138665207690e-01  9.1535853699313630e-01  9.0846940125849496e-01  8.9848753497434186e-01  8.8880529967247335e-01  8.7785519810770296e-01  8.6617658498254835e-01  8.6245525575115189e-01  8.6554694397097665e-01  8.7370503986509995e-01  9.5210448430495354e-01  7.3361755276399909e-01  7.0179792795366391e-01  6.6955345404689492e-01  6.8047032821842024e-01  6.1594018540139173e-01  5.7057688810959828e-01  5.3742210805028423e-01  5.1216568641120763e-01  4.4900176882770315e-01  3.9506171465689299e-01  3.5699445670853208e-01  3.1406134233201743e-01  2.7011876032780174e-01  2.2847472855127021e-01  1.5266772238127937e-01  7.3742232333293425e-02  2.2605996956978633e-03  1.9471313322742228e-03  1.1918861676848849e-03  2.4976413715507330e-03  4.5230565893252250e-03  4.2276564653519928e-03  3.6321130168415093e-03  2.9477868281902091e-03  1.2350388849781872e-03  9.5813150322242259e-04  6.7461222498755896e-04  4.5786777665714770e-04  3.0407523108263589e-04  1.9375389706491976e-04  1.1745003471962305e-04  6.7113759832175090e-05  3.3321916121670659e-05  1.2425285440864306e-05  4.6287518781031447e-06  2.5683946158607302e-06  7.1123524439687455e-07  1.2520394718355941e-07  3.2480203325707666e-09  3.7170290549851153e-09  4.2503687280723197e-09  4.8318582243553250e-09  5.4424175901746006e-09  6.0613610106154005e-09  6.6654902872331923e-09  7.2308313382768245e-09  7.7339461561793338e-09  8.1551061026537724e-09  8.4882499216955097e-09  2.8538757169845565e-09  9.9998243301967105e-01  9.9996518622394348e-01  9.9996222222900433e-01  9.9995763835053475e-01  9.9995121154481881e-01  9.9994210830188268e-01  9.9992851002750005e-01  9.9574147455958650e-01  9.7390434405597159e-01  9.4375317724449936e-01  9.1102463805311062e-01  8.8200749152465996e-01  8.6192926824341409e-01  8.5731405465740074e-01  8.9180090847970461e-01  8.9697509974701906e-01  9.2106120262952573e-01  9.3882166983164794e-01  9.5632003506576480e-01  9.6937836709114023e-01  9.7570765023587513e-01  9.8087656507335674e-01  9.8377713077924056e-01  9.8176439575625529e-01  9.7149780719905021e-01  9.4060919774348817e-01  8.4958721735447063e-01  7.6559369260377064e-01  7.0009015325579615e-01  6.6834210380995218e-01  6.8090559412967644e-01  7.2256968527865817e-01  7.7960925584871854e-01  8.5995303903504328e-01  9.1611380077347426e-01  9.2685761782992626e-01  9.4948779941833139e-01  9.5624818617539953e-01  9.5924302031021957e-01  9.5726935845400751e-01  9.4755769589725780e-01  9.3922853463276923e-01  9.3175662419852356e-01  9.2643040758860340e-01  9.2355150767393257e-01  9.2100882110585791e-01  9.2147716205145136e-01  9.2292792729059892e-01  9.2512309321263886e-01  9.2749083034234248e-01  9.3099482340884299e-01  9.3528295204237033e-01  9.4055887931142124e-01  9.4703742320606155e-01  9.5477908413217671e-01  9.5972027681186556e-01  9.4793263057053245e-01  9.5090529104377663e-01  9.5266288758948292e-01  9.5272033829289049e-01  9.1487293698045380e-01  9.4796667417486236e-01  9.5259402342455890e-01  9.4071945628966758e-01  9.3014803427078518e-01  9.2376615144510099e-01  9.1941802026149988e-01  9.1898465465550971e-01  9.2207900113190577e-01  9.2848115601749293e-01  9.3746046555985507e-01  9.4444506540460471e-01  9.5666870650242941e-01  9.5849764510052349e-01  9.6027329022190344e-01  9.6053444810701660e-01  9.6153549680870676e-01  9.6117917501941574e-01  9.5976349468521838e-01  9.5832578271107927e-01  9.5825537017414142e-01  9.6078004289969343e-01  9.6673306266081638e-01  9.7165981759071629e-01  9.8281159002030427e-01  9.9546544807728421e-01  9.9999997233998905e-01  9.1726153189772208e-01  9.4838404046269886e-01  8.6953562114517202e-01  8.2374998225896257e-01  7.4245661231256943e-01  6.8925338850889439e-01  8.2108058317373189e-01  9.4133399007430696e-01  9.7002868049901059e-01  9.9507536228148818e-01  9.9908651213630895e-01  9.9879887256256450e-01  9.9619411300657534e-01  9.6327595091107465e-01  9.1894776259310196e-01  8.9755291530744430e-01  9.0568309091497468e-01  8.9342223932808917e-01  8.9761639867925580e-01  9.0695910620149434e-01  9.2317010248824960e-01  9.3032239678901418e-01  9.3879043782656413e-01  9.2812070861880525e-01  9.3807851892610716e-01  9.6252521396417845e-01  9.8493866353543535e-01  9.7870148605814278e-01  9.5585122337112605e-01  9.1695644465383319e-01  8.0272782851044788e-01  7.4723105634592046e-01  6.5436747534299611e-01  6.5207834036376744e-01  7.0597997852476324e-01  7.5813861681658612e-01  7.9597352832770507e-01  8.2308426670703794e-01  8.4005127096630394e-01  8.1913216355897123e-01  8.1237281911236903e-01  8.0550424375942553e-01  7.9473717708282476e-01  7.8989103459704790e-01  8.3723836989875877e-01  8.3634044712492006e-01  7.7127157262348955e-01  7.6813696635609785e-01  8.1259970683591276e-01  8.0482685690954636e-01  8.1570902128534217e-01  7.9691989470259827e-01  7.7305114544431408e-01  7.6527022774439024e-01  7.7450597280711997e-01  7.3746245144328892e-01  7.1085165550774965e-01  6.7693469205544643e-01  7.0195908742490065e-01  7.3801627120432334e-01  7.2699587427652246e-01  7.3219729472855377e-01  7.0476189285321911e-01  7.1516680501159036e-01  7.2653752200812771e-01  7.2189462631079737e-01  7.2227843087021371e-01  7.5280873494537026e-01  7.4348007028225482e-01  7.3797064901374843e-01  7.1792879270477117e-01  7.1669263706021424e-01  7.2547078709050361e-01  7.9441281741110215e-01  8.1367103163362231e-01  7.9560056739991070e-01  8.3294219914654077e-01  8.2416927545928831e-01  8.2036315798461978e-01  8.1735320843238002e-01  8.1507038483057959e-01  8.1428217747216591e-01  7.9214186543550202e-01  9.1510920813102048e-01  9.1146496206186900e-01  9.1280250606964131e-01  9.0386718560496204e-01  8.9220096121756276e-01  8.4993903737281729e-01  8.3639872860146003e-01  8.3953429072548325e-01  8.4779789116547233e-01  8.5577724552220591e-01  8.7445879297791962e-01  7.2131601464063377e-01  7.2455558675105369e-01  6.9328656997820948e-01  6.9185829370792040e-01  6.7246683294145104e-01  6.2481699206836461e-01  5.9353048572585276e-01  5.7067497929919009e-01  5.1001777126224423e-01  4.4857640423484513e-01  4.0072684153889865e-01  3.5834620420594143e-01  3.2598589860327631e-01  2.8017932718730282e-01  2.1711800323074459e-01  1.0730490282878158e-01  1.4520611482506184e-02  6.1638054706982916e-03  3.0243366551795012e-03  5.6362192062831230e-03  9.8672338790607387e-03  9.3793101250779116e-03  8.1659454000245560e-03  6.6920504126163956e-03  2.8253015776030007e-03  2.1991850364846280e-03  1.5493485713590611e-03  1.0502669987635875e-03  6.9819894334352181e-04  4.4429026122634022e-04  2.6896286540572172e-04  1.5369638836037339e-04  7.6459362182047666e-05  2.8959565696347623e-05  1.0404734810585499e-05  4.6489887043096164e-06  2.1085541683105530e-06  1.5029987834947025e-07  7.3621252791284161e-09  8.4476847524302370e-09  9.6892207069577660e-09  1.1048595225420680e-08  1.2483703367308278e-08  1.3945247959800622e-08  1.5379737534204064e-08  1.6729148865042795e-08  1.7934311561266620e-08  1.8940918161326095e-08  1.9698975817256333e-08  9.5426599473997923e-09  9.9997463247361873e-01  9.9995088901031326e-01  9.9994667093659984e-01  9.9994023087462680e-01  9.9993187332798417e-01  9.9992061294619772e-01  9.9990191452519184e-01  9.9415117110314377e-01  9.6341352569710281e-01  9.1920901309906566e-01  8.9696991876946075e-01  8.0258054588255334e-01  7.3141036362284328e-01  6.8942777306918546e-01  6.9068061903706890e-01  7.2334696126556375e-01  7.9007105273389466e-01  8.4289114450648828e-01  8.8846911252168803e-01  9.2344900686461795e-01  9.4493081859976291e-01  9.6421144794728431e-01  9.8117884173644432e-01  9.9414774645989856e-01  9.9952315325459984e-01  9.4696276701102566e-01  8.6517731635256923e-01  7.3806562348257221e-01  6.2168559744887664e-01  5.2876783803621985e-01  4.7196925160682468e-01  4.4422873492773396e-01  4.7582633303579430e-01  5.8897007345891528e-01  6.2904039339046669e-01  6.7885567237624767e-01  7.1702795318107471e-01  7.4534280397531105e-01  7.6788066033703495e-01  7.8587693943854642e-01  8.0088689091246723e-01  8.1467610647228805e-01  8.2730652999832865e-01  8.3137452821673763e-01  7.8515652227944543e-01  7.8087375475255960e-01  7.8012405863576295e-01  7.8177489135269196e-01  7.8357020372414254e-01  7.8574397012547037e-01  7.8949311305321723e-01  7.9424336217022529e-01  8.0012137030348962e-01  8.0729071117582951e-01  8.1218435792870447e-01  8.2118103832790823e-01  8.2738275302501796e-01  8.3360820028119698e-01  8.3589074331868185e-01  8.3332553062418224e-01  8.2612563059026589e-01  8.1805677478335925e-01  8.0715302309856407e-01  7.9059852995734325e-01  7.7579910720780099e-01  8.1183411519136561e-01  7.9822239691746011e-01  7.8097403863075088e-01  7.6575058695700704e-01  7.5242821525877013e-01  7.3427341440271088e-01  7.1898083218292708e-01  7.0671375975083472e-01  6.9730376964984042e-01  6.8649060417611363e-01  6.9072776011189208e-01  6.6757590835293334e-01  6.6866097571828986e-01  6.7044028003988532e-01  6.7259331332381944e-01  6.7752002153076707e-01  6.8517485680831591e-01  6.9954674733724254e-01  7.0819518099123124e-01  7.1941668705198980e-01  7.2327222659881207e-01  7.2343194324348159e-01  7.1033022168010529e-01  6.6318109012790838e-01  6.1039152025720145e-01  5.4184802663446507e-01  4.5670542171923673e-01  4.2960129063318364e-01  6.5750637198684103e-01  8.4131734476893105e-01  8.8335712246241649e-01  9.2623740812123656e-01  9.3942512614700779e-01  9.3319616236897363e-01  9.0956855589666852e-01  8.1776085632581008e-01  7.7017678361013653e-01  7.0293514241415211e-01  6.5023358581733615e-01  6.0879893486408998e-01  5.9305350069886864e-01  6.0436613387481330e-01  6.2459512526840655e-01  6.4552296158434075e-01  6.6661441568803892e-01  6.9131169185440533e-01  7.1096466649721579e-01  7.4391721740886119e-01  7.6515245315258618e-01  7.7196390174150065e-01  7.5121747633888958e-01  7.0560365386804691e-01  6.4636674703060037e-01  5.8192512980054090e-01  3.6791120995712767e-01  3.3620755219942627e-01  3.6395769346812418e-01  4.2648966051382975e-01  4.6036575966844295e-01  4.7957051061451522e-01  4.8543406264289052e-01  4.6186739751113698e-01  4.5585560667831082e-01  4.5322961733138623e-01  4.6223873854641323e-01  4.6824606198702279e-01  4.7167402071576853e-01  4.7589773723826073e-01  4.7823608068829443e-01  4.6272918198487473e-01  4.6339972845398231e-01  4.6256098628966613e-01  4.7601724192969352e-01  4.6348450778926603e-01  4.4226061308709613e-01  4.3757561591500133e-01  4.4899115368768905e-01  4.5049221267588785e-01  4.2932723556987157e-01  4.1294117032826122e-01  4.6402430853107474e-01  4.8938524446568571e-01  4.6156946451319580e-01  4.5935629757676610e-01  4.7917928450825981e-01  4.9870685974473600e-01  5.1201564926884802e-01  4.8718418208417419e-01  4.7705425717042188e-01  4.5539796038689295e-01  4.5376760343527961e-01  4.4558246236179239e-01  4.1977325930762555e-01  4.1760791003445524e-01  4.2202687448150888e-01  4.3877018223984243e-01  4.5688137904292420e-01  4.8415572547053587e-01  4.9558534149989980e-01  4.8713856426719893e-01  4.8972747246810050e-01  4.8571952433163695e-01  4.9009059410648903e-01  4.9841593339397861e-01  4.9113699985689768e-01  5.0847344127677829e-01  5.1973509447860100e-01  5.3161934460417559e-01  5.3244179050642282e-01  5.3215226193402143e-01  5.3382777158206285e-01  5.3103435390528608e-01  5.4764332027550144e-01  5.6696056933840178e-01  5.8758394842089001e-01  5.3501857610172332e-01  5.6035424073253726e-01  5.7624368357234446e-01  5.6970592188042624e-01  5.5262522344494625e-01  5.4626692912587138e-01  5.2700938482673121e-01  5.1791334717685500e-01  5.0052695725119678e-01  5.0206335905392163e-01  4.9301698055340426e-01  4.6037709350529166e-01  4.3775699484225811e-01  4.2353711776621195e-01  3.9794163450452896e-01  3.5934173757252824e-01  2.7095288413929708e-01  1.5346171859257088e-01  6.4875376547162134e-02  2.2795314839458736e-02  1.5514311182846114e-02  1.5345098370642084e-02  1.3811314896050361e-02  1.1628129149433043e-02  5.1170036925443250e-03  3.9968965368771857e-03  2.8868254413239799e-03  1.9823559431570493e-03  1.3318278516664540e-03  8.6105839139749422e-04  5.3353060900089772e-04  3.1713280569667152e-04  1.7086763798314803e-04  8.0418002844361182e-05  2.2605567456445559e-05  1.1670585616701806e-05  4.2963188422277437e-06  5.9962404591233392e-07  9.2377427582326586e-09  1.0613399386512415e-08  1.2267359395625237e-08  1.4151379840791571e-08  1.6212311605142946e-08  1.8386561141389727e-08  2.0602467761175029e-08  2.2777194234979051e-08  2.4820845169095730e-08  2.6641315168064130e-08  2.8147589292713066e-08  2.9258706302532888e-08  1.3710837575228329e-08  9.9995984090060963e-01  9.9992299428859133e-01  9.9991595135867362e-01  9.9990526678852121e-01  9.9989334794714524e-01  9.9988100324499751e-01  9.9985960982062183e-01  9.9377727430179696e-01  9.5066995593858628e-01  8.2911414783179938e-01  7.2442345729647550e-01  5.4556482588663557e-01  4.2256027192892481e-01  3.6080719669673289e-01  3.6090264929149507e-01  4.1195853982984010e-01  5.1400351134958555e-01  6.0609387231322975e-01  6.9083231899868769e-01  7.5467278452702269e-01  8.0164044482914876e-01  8.3117107041733451e-01  8.5387842105805289e-01  8.6215918263059854e-01  8.6101642458916772e-01  8.2981380035533581e-01  7.6715186128318491e-01  6.8147381068252022e-01  5.1135914462507037e-01  3.5510823296876998e-01  3.0450995060227370e-01  2.0109015052628360e-01  1.5428699733883589e-01  1.5072845866538692e-01  1.5725194622085653e-01  1.6921822870363329e-01  1.8280302623114400e-01  1.8361869674630737e-01  1.7394740286104440e-01  1.6873620352497726e-01  1.6190939102047197e-01  1.5690841837034131e-01  1.5531415174474711e-01  1.5782546351151241e-01  1.6362879807160996e-01  1.6855946694509641e-01  1.7420874199142372e-01  1.7668512780651843e-01  1.7489927996341953e-01  1.6813443268692874e-01  1.5833137707357703e-01  1.4656835089938458e-01  1.3509629627275127e-01  1.2639516013776783e-01  1.2265115615126973e-01  1.2514601565814093e-01  1.3352876147652798e-01  3.2351647735497584e-02  5.3775975561721270e-02  7.4096638870428749e-02  9.1487453742246275e-02  1.0557204631268757e-01  1.3571616934513528e-01  1.4012895408213563e-01  1.4694351388758684e-01  1.5077172466277464e-01  1.6018756064543621e-01  1.7056539278504665e-01  1.8320589479604960e-01  1.9048353486863850e-01  2.0162386723177980e-01  2.1255840499993520e-01  2.2181115099143239e-01  2.2668887178095443e-01  2.4842915174871738e-01  2.5423936170091471e-01  2.3520242680934147e-01  2.3817327923122492e-01  2.3183634017065774e-01  2.7757688588946594e-01  2.7285832338558696e-01  2.5449369844583836e-01  2.2605825806085755e-01  2.2643688052223548e-01  2.2594104630903517e-01  2.1501380932263012e-01  1.9937559392417872e-01  1.7002472186811857e-01  1.0844740485729983e-01  4.5447156872355579e-02  1.7279365732270503e-02  1.4312693117508766e-02  1.0753636502097118e-02  2.3675150027567346e-01  4.4173620893807042e-01  5.2951186807458683e-01  5.8770189736394152e-01  6.0711388579135128e-01  5.8227694356372073e-01  5.4335964194098385e-01  4.2574982595795896e-01  3.5869427492900186e-01  2.6769897336862525e-01  1.5806479897259565e-01  1.0422033754763582e-01  7.5965025585192497e-02  8.7004914352205531e-02  1.1890745506776229e-01  1.6857862186053924e-01  2.4954007437444706e-01  3.2936165342183210e-01  3.7869486550488451e-01  4.4590154801933557e-01  4.9720935604093380e-01  5.2338461752031495e-01  5.1799467667287036e-01  4.6925971880264439e-01  4.1066752139692242e-01  3.4143633082954122e-01  2.0592957097796624e-01  1.1698712298599565e-01  1.8886288736126963e-02  5.3182689015585989e-02  1.0636143873144902e-01  1.1895166792266172e-01  1.2364369186888825e-01  1.3108941370775698e-01  1.3882850344916747e-01  1.3731391257906306e-01  1.3504670728840723e-01  1.3478384149604108e-01  1.3612769208877928e-01  1.4026999646952246e-01  1.4302998365398062e-01  1.4654030882913249e-01  1.4805958927098622e-01  1.5696974244592191e-0