<?xml version="1.0"?>
<VTKFile type="UnstructuredGrid"  version="0.1"  >
<UnstructuredGrid>
<Piece  NumberOfPoints="7161" NumberOfCells="13800">
<Points>
<DataArray  type="Float64"  NumberOfComponents="3"  format="ascii">0 0 0  0.01652173913043478 0 0  0.03304347826086956 0 0  0.04956521739130434 0 0  0.06608695652173913 0 0  0.08260869565217391 0 0  0.09913043478260869 0 0  0.1156521739130435 0 0  0.1321739130434783 0 0  0.148695652173913 0 0  0.1652173913043478 0 0  0.1817391304347826 0 0  0.1982608695652174 0 0  0.2147826086956522 0 0  0.2313043478260869 0 0  0.2478260869565218 0 0  0.2643478260869565 0 0  0.2808695652173913 0 0  0.2973913043478261 0 0  0.3139130434782609 0 0  0.3304347826086956 0 0  0.3469565217391304 0 0  0.3634782608695652 0 0  0.3799999999999999 0 0  0.3965217391304348 0 0  0.4130434782608696 0 0  0.4295652173913043 0 0  0.4460869565217391 0 0  0.4626086956521739 0 0  0.4791304347826086 0 0  0.4956521739130435 0 0  0.5121739130434783 0 0  0.528695652173913 0 0  0.5452173913043478 0 0  0.5617391304347825 0 0  0.5782608695652174 0 0  0.5947826086956521 0 0  0.6113043478260869 0 0  0.6278260869565218 0 0  0.6443478260869565 0 0  0.6608695652173913 0 0  0.677391304347826 0 0  0.6939130434782609 0 0  0.7104347826086956 0 0  0.7269565217391304 0 0  0.7434782608695653 0 0  0.7599999999999999 0 0  0.7765217391304348 0 0  0.7930434782608695 0 0  0.8095652173913043 0 0  0.8260869565217391 0 0  0.8426086956521739 0 0  0.8591304347826086 0 0  0.8756521739130434 0 0  0.8921739130434783 0 0  0.908695652173913 0 0  0.9252173913043478 0 0  0.9417391304347826 0 0  0.9582608695652173 0 0  0.9747826086956521 0 0  0.991304347826087 0 0  1.007826086956522 0 0  1.024347826086957 0 0  1.040869565217391 0 0  1.057391304347826 0 0  1.073913043478261 0 0  1.090434782608696 0 0  1.10695652173913 0 0  1.123478260869565 0 0  1.14 0 0  1.156521739130435 0 0  1.17304347826087 0 0  1.189565217391304 0 0  1.206086956521739 0 0  1.222608695652174 0 0  1.239130434782609 0 0  1.255652173913044 0 0  1.272173913043478 0 0  1.288695652173913 0 0  1.305217391304348 0 0  1.321739130434783 0 0  1.338260869565217 0 0  1.354782608695652 0 0  1.371304347826087 0 0  1.387826086956522 0 0  1.404347826086957 0 0  1.420869565217391 0 0  1.437391304347826 0 0  1.453913043478261 0 0  1.470434782608696 0 0  1.486956521739131 0 0  1.503478260869565 0 0  1.52 0 0  1.536521739130435 0 0  1.55304347826087 0 0  1.569565217391304 0 0  1.586086956521739 0 0  1.602608695652174 0 0  1.619130434782609 0 0  1.635652173913043 0 0  1.652173913043478 0 0  1.668695652173913 0 0  1.685217391304348 0 0  1.701739130434782 0 0  1.718260869565217 0 0  1.734782608695652 0 0  1.751304347826087 0 0  1.767826086956522 0 0  1.784347826086957 0 0  1.800869565217391 0 0  1.817391304347826 0 0  1.833913043478261 0 0  1.850434782608696 0 0  1.86695652173913 0 0  1.883478260869565 0 0  1.9 0 0  1.916521739130435 0 0  1.933043478260869 0 0  1.949565217391304 0 0  1.966086956521739 0 0  1.982608695652174 0 0  1.999130434782608 0 0  2.015652173913043 0 0  2.032173913043478 0 0  2.048695652173913 0 0  2.065217391304348 0 0  2.081739130434782 0 0  2.098260869565217 0 0  2.114782608695652 0 0  2.131304347826087 0 0  2.147826086956522 0 0  2.164347826086956 0 0  2.180869565217391 0 0  2.197391304347826 0 0  2.213913043478261 0 0  2.230434782608695 0 0  2.24695652173913 0 0  2.263478260869565 0 0  2.28 0 0  2.296521739130434 0 0  2.31304347826087 0 0  2.329565217391304 0 0  2.346086956521739 0 0  2.362608695652174 0 0  2.379130434782609 0 0  2.395652173913044 0 0  2.412173913043478 0 0  2.428695652173913 0 0  2.445217391304348 0 0  2.461739130434782 0 0  2.478260869565217 0 0  2.494782608695652 0 0  2.511304347826087 0 0  2.527826086956522 0 0  2.544347826086956 0 0  2.560869565217391 0 0  2.577391304347826 0 0  2.593913043478261 0 0  2.610434782608696 0 0  2.62695652173913 0 0  2.643478260869565 0 0  2.66 0 0  2.676521739130435 0 0  2.693043478260869 0 0  2.709565217391304 0 0  2.726086956521739 0 0  2.742608695652174 0 0  2.759130434782609 0 0  2.775652173913044 0 0  2.792173913043478 0 0  2.808695652173913 0 0  2.825217391304347 0 0  2.841739130434783 0 0  2.858260869565217 0 0  2.874782608695652 0 0  2.891304347826087 0 0  2.907826086956522 0 0  2.924347826086957 0 0  2.940869565217391 0 0  2.957391304347826 0 0  2.973913043478261 0 0  2.990434782608696 0 0  3.006956521739131 0 0  3.023478260869565 0 0  3.04 0 0  3.056521739130435 0 0  3.073043478260869 0 0  3.089565217391304 0 0  3.106086956521739 0 0  3.122608695652174 0 0  3.139130434782609 0 0  3.155652173913043 0 0  3.172173913043478 0 0  3.188695652173913 0 0  3.205217391304347 0 0  3.221739130434782 0 0  3.238260869565217 0 0  3.254782608695652 0 0  3.271304347826087 0 0  3.287826086956521 0 0  3.304347826086957 0 0  3.320869565217391 0 0  3.337391304347826 0 0  3.353913043478261 0 0  3.370434782608696 0 0  3.386956521739131 0 0  3.403478260869565 0 0  3.419999999999999 0 0  3.436521739130435 0 0  3.453043478260869 0 0  3.469565217391304 0 0  3.486086956521739 0 0  3.502608695652174 0 0  3.519130434782609 0 0  3.535652173913043 0 0  3.552173913043478 0 0  3.568695652173913 0 0  3.585217391304347 0 0  3.601739130434782 0 0  3.618260869565217 0 0  3.634782608695652 0 0  3.651304347826087 0 0  3.667826086956521 0 0  3.684347826086956 0 0  3.700869565217391 0 0  3.717391304347826 0 0  3.733913043478261 0 0  3.750434782608695 0 0  3.766956521739131 0 0  3.783478260869565 0 0  3.8 0 0  0 0.01666666666666667 0  0.01652173913043478 0.01666666666666667 0  0.03304347826086956 0.01666666666666667 0  0.04956521739130434 0.01666666666666667 0  0.06608695652173913 0.01666666666666667 0  0.08260869565217391 0.01666666666666667 0  0.09913043478260869 0.01666666666666667 0  0.1156521739130435 0.01666666666666667 0  0.1321739130434783 0.01666666666666667 0  0.148695652173913 0.01666666666666667 0  0.1652173913043478 0.01666666666666667 0  0.1817391304347826 0.01666666666666667 0  0.1982608695652174 0.01666666666666667 0  0.2147826086956522 0.01666666666666667 0  0.2313043478260869 0.01666666666666667 0  0.2478260869565218 0.01666666666666667 0  0.2643478260869565 0.01666666666666667 0  0.2808695652173913 0.01666666666666667 0  0.2973913043478261 0.01666666666666667 0  0.3139130434782609 0.01666666666666667 0  0.3304347826086956 0.01666666666666667 0  0.3469565217391304 0.01666666666666667 0  0.3634782608695652 0.01666666666666667 0  0.3799999999999999 0.01666666666666667 0  0.3965217391304348 0.01666666666666667 0  0.4130434782608696 0.01666666666666667 0  0.4295652173913043 0.01666666666666667 0  0.4460869565217391 0.01666666666666667 0  0.4626086956521739 0.01666666666666667 0  0.4791304347826086 0.01666666666666667 0  0.4956521739130435 0.01666666666666667 0  0.5121739130434783 0.01666666666666667 0  0.528695652173913 0.01666666666666667 0  0.5452173913043478 0.01666666666666667 0  0.5617391304347825 0.01666666666666667 0  0.5782608695652174 0.01666666666666667 0  0.5947826086956521 0.01666666666666667 0  0.6113043478260869 0.01666666666666667 0  0.6278260869565218 0.01666666666666667 0  0.6443478260869565 0.01666666666666667 0  0.6608695652173913 0.01666666666666667 0  0.677391304347826 0.01666666666666667 0  0.6939130434782609 0.01666666666666667 0  0.7104347826086956 0.01666666666666667 0  0.7269565217391304 0.01666666666666667 0  0.7434782608695653 0.01666666666666667 0  0.7599999999999999 0.01666666666666667 0  0.7765217391304348 0.01666666666666667 0  0.7930434782608695 0.01666666666666667 0  0.8095652173913043 0.01666666666666667 0  0.8260869565217391 0.01666666666666667 0  0.8426086956521739 0.01666666666666667 0  0.8591304347826086 0.01666666666666667 0  0.8756521739130434 0.01666666666666667 0  0.8921739130434783 0.01666666666666667 0  0.908695652173913 0.01666666666666667 0  0.9252173913043478 0.01666666666666667 0  0.9417391304347826 0.01666666666666667 0  0.9582608695652173 0.01666666666666667 0  0.9747826086956521 0.01666666666666667 0  0.991304347826087 0.01666666666666667 0  1.007826086956522 0.01666666666666667 0  1.024347826086957 0.01666666666666667 0  1.040869565217391 0.01666666666666667 0  1.057391304347826 0.01666666666666667 0  1.073913043478261 0.01666666666666667 0  1.090434782608696 0.01666666666666667 0  1.10695652173913 0.01666666666666667 0  1.123478260869565 0.01666666666666667 0  1.14 0.01666666666666667 0  1.156521739130435 0.01666666666666667 0  1.17304347826087 0.01666666666666667 0  1.189565217391304 0.01666666666666667 0  1.206086956521739 0.01666666666666667 0  1.222608695652174 0.01666666666666667 0  1.239130434782609 0.01666666666666667 0  1.255652173913044 0.01666666666666667 0  1.272173913043478 0.01666666666666667 0  1.288695652173913 0.01666666666666667 0  1.305217391304348 0.01666666666666667 0  1.321739130434783 0.01666666666666667 0  1.338260869565217 0.01666666666666667 0  1.354782608695652 0.01666666666666667 0  1.371304347826087 0.01666666666666667 0  1.387826086956522 0.01666666666666667 0  1.404347826086957 0.01666666666666667 0  1.420869565217391 0.01666666666666667 0  1.437391304347826 0.01666666666666667 0  1.453913043478261 0.01666666666666667 0  1.470434782608696 0.01666666666666667 0  1.486956521739131 0.01666666666666667 0  1.503478260869565 0.01666666666666667 0  1.52 0.01666666666666667 0  1.536521739130435 0.01666666666666667 0  1.55304347826087 0.01666666666666667 0  1.569565217391304 0.01666666666666667 0  1.586086956521739 0.01666666666666667 0  1.602608695652174 0.01666666666666667 0  1.619130434782609 0.01666666666666667 0  1.635652173913043 0.01666666666666667 0  1.652173913043478 0.01666666666666667 0  1.668695652173913 0.01666666666666667 0  1.685217391304348 0.01666666666666667 0  1.701739130434782 0.01666666666666667 0  1.718260869565217 0.01666666666666667 0  1.734782608695652 0.01666666666666667 0  1.751304347826087 0.01666666666666667 0  1.767826086956522 0.01666666666666667 0  1.784347826086957 0.01666666666666667 0  1.800869565217391 0.0166666666666666
[...]
<PointData  Scalars="rho"> 
<DataArray  type="Float64"  Name="rho"  format="ascii">1.0000000000000000e+00  1.0000000000000000e+00  1.0000000000000000e+00  1.0000000000000000e+00  1.0000000000000000e+00  1.0000000000000000e+00  1.0000000000000000e+00  9.9723042086909786e-01  9.8696277842882496e-01  9.7322540864418949e-01  9.5862742612280116e-01  9.4603554023595715e-01  9.3760276160903311e-01  9.3591488781723742e-01  9.3997017765563806e-01  9.4886239272585227e-01  9.7149829963384471e-01  9.8093042091884897e-01  9.9011614518701430e-01  9.9229693974706090e-01  9.9167478298647227e-01  9.9062818238814976e-01  9.8795550328207415e-01  9.8186422787851169e-01  9.7719711917723906e-01  9.0281908226700824e-01  8.0552043246981742e-01  7.3542947392271274e-01  6.9119009963965750e-01  6.8586091504984070e-01  7.1480333161509146e-01  7.5962710892095386e-01  8.2777506033353854e-01  9.0809656019898166e-01  9.6522065971353288e-01  9.9418273642254529e-01  9.9304903055293237e-01  9.9156076987957298e-01  9.8893407345605933e-01  9.8617098674523185e-01  9.8340238724133300e-01  9.8117969580937936e-01  9.7968555292623904e-01  9.7889973986729795e-01  9.7862808260411716e-01  9.7859727395632945e-01  9.7858313426161581e-01  9.7846529506042312e-01  9.7822154518318349e-01  9.7769348826249647e-01  9.7738095873645070e-01  9.7720069345140970e-01  9.7729402196309256e-01  9.7780454318048049e-01  9.7882983940263713e-01  9.8033302368175712e-01  9.8205305895668260e-01  9.8354997778719333e-01  9.8441113299568872e-01  9.8440447870220082e-01  9.8350371096778255e-01  9.8191665746618417e-01  9.8003400555026332e-01  9.7820875295629917e-01  9.7733820291393980e-01  9.7626397114101926e-01  9.7572819537407829e-01  9.7952814356830198e-01  9.7994931499334925e-01  9.8072502634380843e-01  9.8176700858699151e-01  9.8250360633784406e-01  9.8378505502231006e-01  9.8612668381055446e-01  9.7107931832654171e-01  9.6116437140754440e-01  9.4982926404252688e-01  9.5321995297445339e-01  9.6029314123906218e-01  9.6948706281804276e-01  9.8280482436550964e-01  9.8293779923089974e-01  9.8581235928527589e-01  9.9048033399134627e-01  9.9638254521586489e-01  9.9635621177999534e-01  9.9718501291078943e-01  9.9694400551407203e-01  9.9046880611479138e-01  9.4822289376177959e-01  9.0043254689240892e-01  8.5296225670743042e-01  8.2210952872378817e-01  9.0183118345117075e-01  9.6757924467795942e-01  9.8145473129059957e-01  9.9500773133968889e-01  1.0000000000000000e+00  1.0000000000000000e+00  9.9834201114641807e-01  9.7794135825316431e-01  9.6164903152700665e-01  9.4379827133036509e-01  9.4581141339100006e-01  9.5422286212251495e-01  9.4853938566810014e-01  9.5153941885696014e-01  9.4970888274125953e-01  9.3646565694278328e-01  9.2424946310877432e-01  9.1998308567903897e-01  9.1164421176857813e-01  9.0348617649112795e-01  8.9074372923698586e-01  8.7215458570166826e-01  8.4449776522858633e-01  8.1068906065374702e-01  7.7374220707643138e-01  7.1977319915881222e-01  6.9778335019980986e-01  7.1785448369684313e-01  7.5126130078308817e-01  7.9100209284650314e-01  8.2052726530782971e-01  8.3969926297369912e-01  8.5567718552916050e-01  8.4658893909806143e-01  8.4279552927978774e-01  8.3805656324870759e-01  8.8624663468959619e-01  8.7695705953756675e-01  8.7549468831299770e-01  8.0927267097849021e-01  8.0864125540641774e-01  8.5544253361358169e-01  8.5560759326282698e-01  8.4760492146990651e-01  8.5162699269519648e-01  8.4721984697792130e-01  8.4378061684288752e-01  8.4046963895437599e-01  8.4409828936177478e-01  8.0607216236055201e-01  8.0034824609622879e-01  7.8876593760063241e-01  7.8578800580762631e-01  7.8238435718614974e-01  7.7629903562046443e-01  7.6858995206485725e-01  7.3138260227663676e-01  7.2848519611722307e-01  7.1649476985636473e-01  7.2026649207434557e-01  7.3847463937371483e-01  7.4811501510800138e-01  7.5419520976731436e-01  7.6898882556907489e-01  7.7261192293731584e-01  7.8468511454171130e-01  8.5400144932182231e-01  8.6506076192788905e-01  8.7518823170706894e-01  8.7868712254012804e-01  8.6972023753495498e-01  8.5919288634125768e-01  9.8637829258295839e-01  9.8770858689234831e-01  9.8943445705398725e-01  9.8246295400139905e-01  9.7138209269631548e-01  9.5729653781162205e-01  9.2450670642581156e-01  9.1597173538117449e-01  9.0475645158738904e-01  8.9384971212491238e-01  8.8158198473263238e-01  8.6902313435034939e-01  8.6399325910601721e-01  8.6600581044198477e-01  8.7384227734918096e-01  9.5206331668435284e-01  7.3349581814526954e-01  7.0165562699714534e-01  6.6923829578163063e-01  6.8030649922945552e-01  6.1598086142403052e-01  5.7161021434514658e-01  5.3938238001734562e-01  5.1547643735033100e-01  4.5475760309325264e-01  4.0503645853546638e-01  3.6961482491231817e-01  3.2462460772262702e-01  2.7801887565457473e-01  2.3423319548440624e-01  1.5674069982080205e-01  7.6560694884811917e-02  4.1681969175073703e-03  3.2095368365816419e-03  2.0062485241120354e-03  3.0075010459639328e-03  4.8311203266612965e-03  4.4059835325187570e-03  3.7300328156540143e-03  2.9980615031614116e-03  1.2586349780307671e-03  9.6787100832912139e-04  6.7790700347245252e-04  4.5870018039611014e-04  3.0437140850880350e-04  1.9428854708196001e-04  1.1840965480533820e-04  6.8425352443983079e-05  3.4830257846434108e-05  1.3978223920636033e-05  6.1105279505165598e-06  3.9060172406068739e-06  1.8687621098755120e-06  1.0940614430843724e-06  6.0608670477893219e-07  3.0349627561397509e-07  1.4870705930693521e-07  1.0774310909740094e-07  7.4330743522529635e-08  4.7774189045531156e-08  1.4333191804904005e-08  1.2038148341685819e-08  2.1271752111504519e-08  1.4036891077618619e-08  1.0597610373671341e-08  3.8812490979855374e-09  1.0000000000000000e+00  1.0000000000000000e+00  1.0000000000000000e+00  1.0000000000000000e+00  1.0000000000000000e+00  1.0000000000000000e+00  1.0000000000000000e+00  9.9662963893524470e-01  9.7505080798114652e-01  9.4518737675051745e-01  9.1275796967335443e-01  8.8403074441891438e-01  8.6417414154483474e-01  8.5961895494816298e-01  8.9397750362232653e-01  8.9887887716264969e-01  9.2263601731302924e-01  9.4008249421363066e-01  9.5731743501416355e-01  9.7016596769212371e-01  9.7633072644630625e-01  9.8137191877079455e-01  9.8416449399128714e-01  9.8203041490568221e-01  9.7159850440949125e-01  9.4047679223337388e-01  8.4912787209154583e-01  7.6468569096208727e-01  6.9861356001499864e-01  6.6636494050648187e-01  6.7888462931779314e-01  7.2102389292552083e-01  7.7873872483053508e-01  8.5978244936045201e-01  9.1656295848006797e-01  9.2775976621462575e-01  9.5066764632783107e-01  9.5763953642582067e-01  9.6084252911550860e-01  9.5780510207794889e-01  9.4818375179687098e-01  9.3992126780031093e-01  9.3249045205111181e-01  9.2719876971380610e-01  9.2435932145510946e-01  9.2353570536451957e-01  9.2412248157864096e-01  9.2566338497227474e-01  9.2790275111223774e-01  9.3026464735675918e-01  9.3371566798025318e-01  9.3790228709090939e-01  9.4302249573020991e-01  9.4928860526242897e-01  9.5676485396350219e-01  9.6140507533191910e-01  9.4930857075669339e-01  9.5198602646250441e-01  9.5347859915391053e-01  9.5331322660550410e-01  9.1528541291974130e-01  9.4822888860683463e-01  9.5271640623639453e-01  9.4069041984518842e-01  9.2993535266411598e-01  9.2331722912618464e-01  9.1865876440900085e-01  9.1782352016341362e-01  9.2041642562158077e-01  9.2621976756880664e-01  9.3451250555559751e-01  9.4073407127372954e-01  9.5212243580733191e-01  9.5303220447934633e-01  9.5378213452522709e-01  9.5293057685967542e-01  9.5287474067641686e-01  9.5173745916927321e-01  9.4990533408391864e-01  9.4827383611198379e-01  9.4800578396375057e-01  9.5017642583530537e-01  9.5549885417074187e-01  9.5935500032714005e-01  9.6882253342867464e-01  9.7927643434845280e-01  9.8986147453963458e-01  8.9783476569699283e-01  9.2788069117571137e-01  8.4854973877225259e-01  8.0374198093905724e-01  7.3584853046236043e-01  6.8467557861827677e-01  8.1850984514700564e-01  9.4028960405262996e-01  9.6997639074591857e-01  9.9556811996741312e-01  1.0000000000000000e+00  1.0000000000000000e+00  1.0000000000000000e+00  9.6100702730328458e-01  9.1000215491226610e-01  8.8633637981984537e-01  8.9436069729768641e-01  8.8376706793073723e-01  8.9047746373447645e-01  9.0150472494278033e-01  9.1937271467017723e-01  9.2910901214736563e-01  9.3872655499407420e-01  9.2934846270500926e-01  9.3890210248683670e-01  9.6386819296879400e-01  9.8675611244777561e-01  9.8083113650459341e-01  9.5818007627160473e-01  9.1932107866910096e-01  8.0487421186153274e-01  7.4893137836018397e-01  6.5549976178692670e-01  6.5264429101485077e-01  7.0535791511364410e-01  7.5717189408565866e-01  7.9493472428197076e-01  8.2217597117715824e-01  8.3933482487861011e-01  8.1759690971207699e-01  8.1134587053882257e-01  8.0493665289096117e-01  7.9466820868484100e-01  7.8992642590607098e-01  8.3729135869439952e-01  8.3644674597117352e-01  7.7146461756749474e-01  7.6844952665500099e-01  8.1313569396206131e-01  8.0764894331447212e-01  8.2070098161790195e-01  8.1546780441416611e-01  7.9883029516532988e-01  7.9590509701050527e-01  8.1076481709114290e-01  7.8334619689065232e-01  7.7597852911087994e-01  7.6647939095005002e-01  7.6650184724712722e-01  7.6149055581673519e-01  7.5031838481787150e-01  7.3915727451103364e-01  6.9031679210504315e-01  6.8574654421601955e-01  6.9511205842969015e-01  6.8369281580106545e-01  7.0410838585692570e-01  7.2798987570540308e-01  7.3672253569886825e-01  7.4971066616241600e-01  7.4868646998464572e-01  7.6272810905082200e-01  7.7910885949192121e-01  8.4666133742582894e-01  8.5846935931372625e-01  8.6916745677572937e-01  8.5768033134700106e-01  8.4526758005592895e-01  8.4016408726869929e-01  8.3776934628324928e-01  8.3412061970330242e-01  8.3090702589095833e-01  8.2694462686923587e-01  9.4146492675233118e-01  9.3201646699292406e-01  9.3002751797744276e-01  9.1863801190427807e-01  9.0427491144325889e-01  8.5891034103545438e-01  8.4316451807063442e-01  8.4307519563031164e-01  8.4880140040926788e-01  8.5603032945816393e-01  8.7430937095394112e-01  7.2099363451177889e-01  7.2419386312008316e-01  6.9247406972245629e-01  6.9138042865189464e-01  6.7244535412169604e-01  6.2678642058417267e-01  5.9730085364630148e-01  5.7666125520948641e-01  5.1957596118996197e-01  4.6453044144534805e-01  4.2444545520770927e-01  3.8170466744376519e-01  3.4425587940095609e-01  2.9353721859169873e-01  2.2651616978840200e-01  1.1379333629953751e-01  1.8898211346673504e-02  9.0516635683001116e-03  4.8793615282505627e-03  6.7908019716295190e-03  1.0559132784071609e-02  9.7752271165352754e-03  8.3797604152329071e-03  6.7991060363121261e-03  2.8735137712782195e-03  2.2175774174199212e-03  1.5544615560772336e-03  1.0507978221437437e-03  6.9820311550885009e-04  4.4527217546010427e-04  2.7116072631904018e-04  1.5681986205781117e-04  8.0078110696049794e-05  3.2683400271067856e-05  1.3947989690152660e-05  7.8366961931442014e-06  4.8576520036562910e-06  2.4438642634266586e-06  1.3411132347062162e-06  6.5925405865648747e-07  3.5005100327335630e-07  2.5340466753611184e-07  1.7443234775197131e-07  1.1162555831548112e-07  3.2983318380926870e-08  2.7709974995185058e-08  4.7251224423474502e-08  3.0638772920071408e-08  2.6825737883758817e-08  1.1937487145970899e-08  1.0000000000000000e+00  1.0000000000000000e+00  1.0000000000000000e+00  1.0000000000000000e+00  1.0000000000000000e+00  1.0000000000000000e+00  1.0000000000000000e+00  9.9539875893278806e-01  9.6507639975908399e-01  9.2132088805871615e-01  8.9953942998132275e-01  8.0557980072465363e-01  7.3474734925539154e-01  6.9284904812834036e-01  6.9391805654361793e-01  7.2615049089833728e-01  7.9232442581914531e-01  8.4464281653178164e-01  8.8983624946040851e-01  9.2452488033678359e-01  9.4578265831728159e-01  9.6490425766914090e-01  9.8175876570528131e-01  9.9458906346221010e-01  9.9982422058706710e-01  9.4687569342742517e-01  8.6463077542483335e-01  7.3682396991670818e-01  6.1936323711415397e-01  5.2537237299489814e-01  4.6854245851882287e-01  4.4184368542880831e-01  4.7457097082990124e-01  5.8874406384343658e-01  6.2969801299302097e-01  6.8015014973235854e-01  7.1863005552579862e-01  7.4716665079953815e-01  7.6997232857057041e-01  7.8659380963786441e-01  8.0172705341941020e-01  8.1559785297326970e-01  8.2828127440626431e-01  8.3238233053051780e-01  7.8620698918686782e-01  7.8416170853053591e-01  7.8358718037808472e-01  7.8537325359536825e-01  7.8723329595559355e-01  7.8939770630402983e-01  7.9307659048308676e-01  7.9769854993735989e-01  8.0337757958455158e-01  8.1027027839987642e-01  8.1480876580241535e-01  8.2338979224981734e-01  8.2916542784750569e-01  8.3499054820924201e-01  8.3691796492129344e-01  8.3406106725905715e-01  8.2663529558158200e-01  8.1838745270801294e-01  8.0732193430913379e-01  7.9059092032246414e-01  7.7557277146887305e-01  8.1132205789367162e-01  7.9732745402803473e-01  7.7957215514209743e-01  7.6370570900794821e-01  7.4960879820014625e-01  7.3056424052802760e-01  7.1428753878114226e-01  7.0095326574871752e-01  6.9037801350282590e-01  6.7824771834207787e-01  6.8098245717516792e-01  6.5631090752353050e-01  6.5626440991624069e-01  6.5753768934105272e-01  6.5958446171991369e-01  6.6437609675108378e-01  6.7165368814235549e-01  6.8530486376589439e-01  6.9268063313715766e-01  7.0175600507553981e-01  7.0246232653248886e-01  6.9958758200864635e-01  6.8534280154281202e-01  6.3703973894288235e-01  5.8354907139865742e-01  5.1566814435825747e-01  4.4790808368624718e-01  4.2366685081297178e-01  6.5464118255156323e-01  8.4062716593411602e-01  8.8396513273481803e-01  9.2754101533666111e-01  9.4100830667133140e-01  9.3458498199162732e-01  9.1008840988956008e-01  8.1614252063630766e-01  7.5772788639312094e-01  6.8655752454069774e-01  6.3429400926422974e-01  5.9593592743824164e-01  5.8381652680235696e-01  5.9747214663886683e-01  6.1979181908259606e-01  6.4274393039667932e-01  6.6651328091881190e-01  6.9306980748310876e-01  7.1222225086930557e-01  7.4600341809846327e-01  7.6796335148193795e-01  7.7522139753666308e-01  7.5481684829942108e-01  7.0932518217874074e-01  6.4967988290261580e-01  5.8602252349243111e-01  3.6955389638334973e-01  3.3707988492237090e-01  3.6362716411104407e-01  4.2573281107462374e-01  4.5941498797923680e-01  4.7868649802157848e-01  4.8471691168587006e-01  4.6031781078554740e-01  4.5481883939062900e-01  4.5265611681517315e-01  4.6201196526610394e-01  4.6827383524668353e-01  4.7172265521138063e-01  4.7599641025032735e-01  4.7841750926710047e-01  4.6301647679053265e-01  4.6387997138470877e-01  4.6341034331335007e-01  4.8043846847441585e-01  4.7996613631060631e-01  4.6594711874570682e-01  4.6478752574110588e-01  4.8555817426693682e-01  4.9663172946624673e-01  4.9281275879178410e-01  4.9915087562985405e-01  5.0133801017693702e-01  5.0226209767523211e-01  4.9548612093086986e-01  4.7248580182487493e-01  4.6951632966988749e-01  4.7193179985894007e-01  4.8112174792454071e-01  4.6546321152964087e-01  4.7099654083686654e-01  4.4363261342806465e-01  4.5725666388449854e-01  4.6479320626731885e-01  4.5571509283880968e-01  4.6739030123540959e-01  4.7939928658345882e-01  4.9492665884128945e-01  5.0543360789251401e-01  5.1805289100247387e-01  5.2225519800664144e-01  5.1004075623634848e-01  5.1204659538677655e-01  5.0973481678353627e-01  5.1327341235213564e-01  5.1882304962119208e-01  5.3343800883676973e-01  5.3916618154170370e-01  5.4308228373646361e-01  5.5189585592699708e-01  5.5074273792719020e-01  5.4749057307632309e-01  5.4711935794046485e-01  5.3933098347874664e-01  5.5153523500690926e-01  5.6787299169014460e-01  5.8760516087315706e-01  5.3461048469145045e-01  5.5980046852385612e-01  5.7570376734337636e-01  5.6852400777786694e-01  5.5187860235436681e-01  5.4615225161624747e-01  5.2965237807533627e-01  5.2267067382765553e-01  5.0691423213063325e-01  5.1050247564674212e-01  5.0505604884810651e-01  4.7779238950810887e-01  4.5933824920421051e-01  4.4428256252490422e-01  4.1442367422170251e-01  3.7118380535157885e-01  2.7912146911618085e-01  1.5886188688260450e-01  6.8370546682208072e-02  2.4984827766839735e-02  1.6832734735254557e-02  1.6100410735780085e-02  1.4217024087708998e-02  1.1827458383668233e-02  5.2022966397014068e-03  4.0247520107453798e-03  2.8897391279402778e-03  1.9774289664468473e-03  1.3269595300641368e-03  8.5907466280862876e-04  5.3474842855698833e-04  3.2083595905428277e-04  1.7608186067235104e-04  8.6267771585917533e-05  2.8439572722427236e-05  1.7071684323287703e-05  9.0422384146897400e-06  4.6101187450628590e-06  2.5795018855131707e-06  1.3219501962697488e-06  6.4221144887796637e-07  4.7745438004607445e-07  3.3973245586839930e-07  2.2753078672962160e-07  6.8221764137144697e-08  3.8156940258783047e-08  8.4122551028234233e-08  5.1603681419426500e-08  3.9890626273085529e-08  2.9707449029284172e-08  1.3032519700146637e-08  1.0000000000000000e+00  1.0000000000000000e+00  1.0000000000000000e+00  1.0000000000000000e+00  1.0000000000000000e+00  1.0000000000000000e+00  1.0000000000000000e+00  9.9552397653001568e-01  9.5303195516624772e-01  8.3207198133140758e-01  7.2795286900441258e-01  5.4955852732271182e-01  4.2683945788532940e-01  3.6505948135870231e-01  3.6495104891981811e-01  4.1565136119310447e-01  5.1705934258936215e-01  6.0846753330164871e-01  6.9271285386390602e-01  7.5620786214977342e-01  8.0289819685648545e-01  8.3223729273563696e-01  8.5486325641760152e-01  8.6299143175689674e-01  8.6154053680347820e-01  8.2988330616502481e-01  7.6656763590148880e-01  6.7986126552300585e-01  5.0791712009231393e-01  3.4948697372482829e-01  2.9899072819236178e-01  1.9766581822937968e-01  1.5257907259829140e-01  1.5021303796430271e-01  1.5764062864653661e-01  1.7029765899076282e-01  1.8426393044957176e-01  1.8531868229176987e-01  1.7591763685380968e-01  1.6941452093026657e-01  1.6271559849316222e-01  1.5780150354966174e-01  1.5626270840206383e-01  1.5880251416196475e-01  1.6462972073088758e-01  1.7166425211015626e-01  1.7746477684892611e-01  1.8007351333113095e-01  1.7835772475979858e-01  1.7158747102540284e-01  1.6171482975346541e-01  1.4983019688829405e-01  1.3817743443507782e-01  1.2922837380046451e-01  1.2516455474583674e-01  1.2727325495420364e-01  1.3523886630862733e-01  3.3669779358029908e-02  5.4754997433092402e-02  7.4797183912135634e-02  9.1972089536058108e-02  1.0588807351817399e-01  1.3588380605946729e-01  1.4013830219427983e-01  1.4675809698690306e-01  1.5033232202041688e-01  1.5940999295868610e-01  1.6934122834521428e-01  1.8141378469662148e-01  1.8800391489197973e-01  1.9835030155494879e-01  2.0840239586824408e-01  2.1669705188100358e-01  2.2053677081579973e-01  2.4113081125414881e-01  2.4565394365254728e-01  2.2525965702486539e-01  2.2708326790992103e-01  2.2007237705228014e-01  2.6553327225169127e-01  2.6054964064889113e-01  2.4168403392663348e-01  2.1240679289660477e-01  2.1148001496303973e-01  2.0904517407703696e-01  1.9550353518070496e-01  1.7716949878873195e-01  1.4676775830945679e-01  8.5933573405861524e-02  3.6607735858341574e-02  9.1727231153981553e-03  7.6152266114983321e-03  6.0773822849351424e-03  2.3461538953337788e-01  4.4217313100734984e-01  5.3160151335117622e-01  5.9067005530446826e-01  6.1063192661756927e-01  5.8579789258013748e-01  5.4600565995202843e-01  4.2659339938294516e-01  3.5524117939647798e-01  2.5023254553274737e-01  1.4210248661648017e-01  9.1137254110753574e-02  6.7431974988521007e-02  8.1195829534377109e-02  1.1504671019264874e-01  1.6736741095138408e-01  2.4985769610033254e-01  3.3200080860457221e-01  3.8065173099421579e-01  4.4940946465710790e-01  5.0204384565469073e-01  5.2881226107646806e-01  5.2401413766012506e-01  4.8007148084010409e-01  4.1980813490682078e-01  3.4782387702325673e-01  2.0975178633966909e-01  1.1831743698634489e-01  1.9533309338329093e-02  5.2988337135407210e-02  1.0592931067174212e-01  1.1846601239660837e-01  1.2321325069298432e-01  1.3005273136843065e-01  1.3812544748910666e-01  1.3699816252678645e-01  1.3500771697472921e-01  1.3481489929734145e-01  1.3624318765967727e-01  1.4034759822547480e-01  1.4317047194942714e-01  1.4676751281814102e-01  1.4843402720295273e-01  1.5759946635438715e-0