<?xml version="1.0"?>
<VTKFile type="UnstructuredGrid"  version="0.1"  >
<UnstructuredGrid>
<Piece  NumberOfPoints="7161" NumberOfCells="13800">
<Points>
<DataArray  type="Float64"  NumberOfComponents="3"  format="ascii">0 0 0  0.01652173913043478 0 0  0.03304347826086956 0 0  0.04956521739130434 0 0  0.06608695652173913 0 0  0.08260869565217391 0 0  0.09913043478260869 0 0  0.1156521739130435 0 0  0.1321739130434783 0 0  0.148695652173913 0 0  0.1652173913043478 0 0  0.1817391304347826 0 0  0.1982608695652174 0 0  0.2147826086956522 0 0  0.2313043478260869 0 0  0.2478260869565218 0 0  0.2643478260869565 0 0  0.2808695652173913 0 0  0.2973913043478261 0 0  0.3139130434782609 0 0  0.3304347826086956 0 0  0.3469565217391304 0 0  0.3634782608695652 0 0  0.3799999999999999 0 0  0.3965217391304348 0 0  0.4130434782608696 0 0  0.4295652173913043 0 0  0.4460869565217391 0 0  0.4626086956521739 0 0  0.4791304347826086 0 0  0.4956521739130435 0 0  0.5121739130434783 0 0  0.528695652173913 0 0  0.5452173913043478 0 0  0.5617391304347825 0 0  0.5782608695652174 0 0  0.5947826086956521 0 0  0.6113043478260869 0 0  0.6278260869565218 0 0  0.6443478260869565 0 0  0.6608695652173913 0 0  0.677391304347826 0 0  0.6939130434782609 0 0  0.7104347826086956 0 0  0.7269565217391304 0 0  0.7434782608695653 0 0  0.7599999999999999 0 0  0.7765217391304348 0 0  0.7930434782608695 0 0  0.8095652173913043 0 0  0.8260869565217391 0 0  0.8426086956521739 0 0  0.8591304347826086 0 0  0.8756521739130434 0 0  0.8921739130434783 0 0  0.908695652173913 0 0  0.9252173913043478 0 0  0.9417391304347826 0 0  0.9582608695652173 0 0  0.9747826086956521 0 0  0.991304347826087 0 0  1.007826086956522 0 0  1.024347826086957 0 0  1.040869565217391 0 0  1.057391304347826 0 0  1.073913043478261 0 0  1.090434782608696 0 0  1.10695652173913 0 0  1.123478260869565 0 0  1.14 0 0  1.156521739130435 0 0  1.17304347826087 0 0  1.189565217391304 0 0  1.206086956521739 0 0  1.222608695652174 0 0  1.239130434782609 0 0  1.255652173913044 0 0  1.272173913043478 0 0  1.288695652173913 0 0  1.305217391304348 0 0  1.321739130434783 0 0  1.338260869565217 0 0  1.354782608695652 0 0  1.371304347826087 0 0  1.387826086956522 0 0  1.404347826086957 0 0  1.420869565217391 0 0  1.437391304347826 0 0  1.453913043478261 0 0  1.470434782608696 0 0  1.486956521739131 0 0  1.503478260869565 0 0  1.52 0 0  1.536521739130435 0 0  1.55304347826087 0 0  1.569565217391304 0 0  1.586086956521739 0 0  1.602608695652174 0 0  1.619130434782609 0 0  1.635652173913043 0 0  1.652173913043478 0 0  1.668695652173913 0 0  1.685217391304348 0 0  1.701739130434782 0 0  1.718260869565217 0 0  1.734782608695652 0 0  1.751304347826087 0 0  1.767826086956522 0 0  1.784347826086957 0 0  1.800869565217391 0 0  1.817391304347826 0 0  1.833913043478261 0 0  1.850434782608696 0 0  1.86695652173913 0 0  1.883478260869565 0 0  1.9 0 0  1.916521739130435 0 0  1.933043478260869 0 0  1.949565217391304 0 0  1.966086956521739 0 0  1.982608695652174 0 0  1.999130434782608 0 0  2.015652173913043 0 0  2.032173913043478 0 0  2.048695652173913 0 0  2.065217391304348 0 0  2.081739130434782 0 0  2.098260869565217 0 0  2.114782608695652 0 0  2.131304347826087 0 0  2.147826086956522 0 0  2.164347826086956 0 0  2.180869565217391 0 0  2.197391304347826 0 0  2.213913043478261 0 0  2.230434782608695 0 0  2.24695652173913 0 0  2.263478260869565 0 0  2.28 0 0  2.296521739130434 0 0  2.31304347826087 0 0  2.329565217391304 0 0  2.346086956521739 0 0  2.362608695652174 0 0  2.379130434782609 0 0  2.395652173913044 0 0  2.412173913043478 0 0  2.428695652173913 0 0  2.445217391304348 0 0  2.461739130434782 0 0  2.478260869565217 0 0  2.494782608695652 0 0  2.511304347826087 0 0  2.527826086956522 0 0  2.544347826086956 0 0  2.560869565217391 0 0  2.577391304347826 0 0  2.593913043478261 0 0  2.610434782608696 0 0  2.62695652173913 0 0  2.643478260869565 0 0  2.66 0 0  2.676521739130435 0 0  2.693043478260869 0 0  2.709565217391304 0 0  2.726086956521739 0 0  2.742608695652174 0 0  2.759130434782609 0 0  2.775652173913044 0 0  2.792173913043478 0 0  2.808695652173913 0 0  2.825217391304347 0 0  2.841739130434783 0 0  2.858260869565217 0 0  2.874782608695652 0 0  2.891304347826087 0 0  2.907826086956522 0 0  2.924347826086957 0 0  2.940869565217391 0 0  2.957391304347826 0 0  2.973913043478261 0 0  2.990434782608696 0 0  3.006956521739131 0 0  3.023478260869565 0 0  3.04 0 0  3.056521739130435 0 0  3.073043478260869 0 0  3.089565217391304 0 0  3.106086956521739 0 0  3.122608695652174 0 0  3.139130434782609 0 0  3.155652173913043 0 0  3.172173913043478 0 0  3.188695652173913 0 0  3.205217391304347 0 0  3.221739130434782 0 0  3.238260869565217 0 0  3.254782608695652 0 0  3.271304347826087 0 0  3.287826086956521 0 0  3.304347826086957 0 0  3.320869565217391 0 0  3.337391304347826 0 0  3.353913043478261 0 0  3.370434782608696 0 0  3.386956521739131 0 0  3.403478260869565 0 0  3.419999999999999 0 0  3.436521739130435 0 0  3.453043478260869 0 0  3.469565217391304 0 0  3.486086956521739 0 0  3.502608695652174 0 0  3.519130434782609 0 0  3.535652173913043 0 0  3.552173913043478 0 0  3.568695652173913 0 0  3.585217391304347 0 0  3.601739130434782 0 0  3.618260869565217 0 0  3.634782608695652 0 0  3.651304347826087 0 0  3.667826086956521 0 0  3.684347826086956 0 0  3.700869565217391 0 0  3.717391304347826 0 0  3.733913043478261 0 0  3.750434782608695 0 0  3.766956521739131 0 0  3.783478260869565 0 0  3.8 0 0  0 0.01666666666666667 0  0.01652173913043478 0.01666666666666667 0  0.03304347826086956 0.01666666666666667 0  0.04956521739130434 0.01666666666666667 0  0.06608695652173913 0.01666666666666667 0  0.08260869565217391 0.01666666666666667 0  0.09913043478260869 0.01666666666666667 0  0.1156521739130435 0.01666666666666667 0  0.1321739130434783 0.01666666666666667 0  0.148695652173913 0.01666666666666667 0  0.1652173913043478 0.01666666666666667 0  0.1817391304347826 0.01666666666666667 0  0.1982608695652174 0.01666666666666667 0  0.2147826086956522 0.01666666666666667 0  0.2313043478260869 0.01666666666666667 0  0.2478260869565218 0.01666666666666667 0  0.2643478260869565 0.01666666666666667 0  0.2808695652173913 0.01666666666666667 0  0.2973913043478261 0.01666666666666667 0  0.3139130434782609 0.01666666666666667 0  0.3304347826086956 0.01666666666666667 0  0.3469565217391304 0.01666666666666667 0  0.3634782608695652 0.01666666666666667 0  0.3799999999999999 0.01666666666666667 0  0.3965217391304348 0.01666666666666667 0  0.4130434782608696 0.01666666666666667 0  0.4295652173913043 0.01666666666666667 0  0.4460869565217391 0.01666666666666667 0  0.4626086956521739 0.01666666666666667 0  0.4791304347826086 0.01666666666666667 0  0.4956521739130435 0.01666666666666667 0  0.5121739130434783 0.01666666666666667 0  0.528695652173913 0.01666666666666667 0  0.5452173913043478 0.01666666666666667 0  0.5617391304347825 0.01666666666666667 0  0.5782608695652174 0.01666666666666667 0  0.5947826086956521 0.01666666666666667 0  0.6113043478260869 0.01666666666666667 0  0.6278260869565218 0.01666666666666667 0  0.6443478260869565 0.01666666666666667 0  0.6608695652173913 0.01666666666666667 0  0.677391304347826 0.01666666666666667 0  0.6939130434782609 0.01666666666666667 0  0.7104347826086956 0.01666666666666667 0  0.7269565217391304 0.01666666666666667 0  0.7434782608695653 0.01666666666666667 0  0.7599999999999999 0.01666666666666667 0  0.7765217391304348 0.01666666666666667 0  0.7930434782608695 0.01666666666666667 0  0.8095652173913043 0.01666666666666667 0  0.8260869565217391 0.01666666666666667 0  0.8426086956521739 0.01666666666666667 0  0.8591304347826086 0.01666666666666667 0  0.8756521739130434 0.01666666666666667 0  0.8921739130434783 0.01666666666666667 0  0.908695652173913 0.01666666666666667 0  0.9252173913043478 0.01666666666666667 0  0.9417391304347826 0.01666666666666667 0  0.9582608695652173 0.01666666666666667 0  0.9747826086956521 0.01666666666666667 0  0.991304347826087 0.01666666666666667 0  1.007826086956522 0.01666666666666667 0  1.024347826086957 0.01666666666666667 0  1.040869565217391 0.01666666666666667 0  1.057391304347826 0.01666666666666667 0  1.073913043478261 0.01666666666666667 0  1.090434782608696 0.01666666666666667 0  1.10695652173913 0.01666666666666667 0  1.123478260869565 0.01666666666666667 0  1.14 0.01666666666666667 0  1.156521739130435 0.01666666666666667 0  1.17304347826087 0.01666666666666667 0  1.189565217391304 0.01666666666666667 0  1.206086956521739 0.01666666666666667 0  1.222608695652174 0.01666666666666667 0  1.239130434782609 0.01666666666666667 0  1.255652173913044 0.01666666666666667 0  1.272173913043478 0.01666666666666667 0  1.288695652173913 0.01666666666666667 0  1.305217391304348 0.01666666666666667 0  1.321739130434783 0.01666666666666667 0  1.338260869565217 0.01666666666666667 0  1.354782608695652 0.01666666666666667 0  1.371304347826087 0.01666666666666667 0  1.387826086956522 0.01666666666666667 0  1.404347826086957 0.01666666666666667 0  1.420869565217391 0.01666666666666667 0  1.437391304347826 0.01666666666666667 0  1.453913043478261 0.01666666666666667 0  1.470434782608696 0.01666666666666667 0  1.486956521739131 0.01666666666666667 0  1.503478260869565 0.01666666666666667 0  1.52 0.01666666666666667 0  1.536521739130435 0.01666666666666667 0  1.55304347826087 0.01666666666666667 0  1.569565217391304 0.01666666666666667 0  1.586086956521739 0.01666666666666667 0  1.602608695652174 0.01666666666666667 0  1.619130434782609 0.01666666666666667 0  1.635652173913043 0.01666666666666667 0  1.652173913043478 0.01666666666666667 0  1.668695652173913 0.01666666666666667 0  1.685217391304348 0.01666666666666667 0  1.701739130434782 0.01666666666666667 0  1.718260869565217 0.01666666666666667 0  1.734782608695652 0.01666666666666667 0  1.751304347826087 0.01666666666666667 0  1.767826086956522 0.01666666666666667 0  1.784347826086957 0.01666666666666667 0  1.800869565217391 0.0166666666666666
[...]
<PointData  Scalars="rho_bar"> 
<DataArray  type="Float64"  Name="rho_bar"  format="ascii">8.8119781863599278e-01  8.7825981167717071e-01  8.7605890009327392e-01  8.7358230096523504e-01  8.7053457453340410e-01  8.6687276019880610e-01  8.6265954414192647e-01  8.5800840585602189e-01  8.5306198998906435e-01  8.4800144178078252e-01  8.4307738866765070e-01  8.3860292131822756e-01  8.3488445749837026e-01  8.3215596393390590e-01  8.3054944125259111e-01  8.3009850132761720e-01  8.3075000524932407e-01  8.3236314785792087e-01  8.3470379086601521e-01  8.3744389291619348e-01  8.4018273055030035e-01  8.4249207561319750e-01  8.4395568004715338e-01  8.4420116317164240e-01  8.4298682785290158e-01  8.4027516587406359e-01  8.3624671656932825e-01  8.3121179525626787e-01  8.2555000318901184e-01  8.1967594012378364e-01  8.1399672388490552e-01  8.0887937464426096e-01  8.0458961888809633e-01  8.0115049375452374e-01  7.9836520489889173e-01  7.9612926859481237e-01  7.9446255558371737e-01  7.9347992588882332e-01  7.9326883384467739e-01  7.9381939858779871e-01  7.9501474366254754e-01  7.9664917838567761e-01  7.9847510572294478e-01  8.0024825955144074e-01  8.0174300671898235e-01  8.0276136519530206e-01  8.0315058976972797e-01  8.0282057653392025e-01  8.0174245828299207e-01  7.9992013580506260e-01  7.9737530004188129e-01  7.9414377588975626e-01  7.9026905886616994e-01  7.8578919482968701e-01  7.8073724423269819e-01  7.7519580829559942e-01  7.6937559937342426e-01  7.6360831503891169e-01  7.5824702219311224e-01  7.5357811930355123e-01  7.4982387173500187e-01  7.4713323978826074e-01  7.4553861420854317e-01  7.4496881126893399e-01  7.4528129094906737e-01  7.4628651275667890e-01  7.4776241002882593e-01  7.4946709307097925e-01  7.5115040866765004e-01  7.5258343875011902e-01  7.5360476898804896e-01  7.5409550128390423e-01  7.5398725255010468e-01  7.5325507614830500e-01  7.5190165288279764e-01  7.4993813338297188e-01  7.4733618058882278e-01  7.4404556539426348e-01  7.4019388323381330e-01  7.3601098425301681e-01  7.3173728841252794e-01  7.2760677942155805e-01  7.2381897240282844e-01  7.2050126335101039e-01  7.1770300204960280e-01  7.1540910179618522e-01  7.1355913688417949e-01  7.1206449334822797e-01  7.1082245180205406e-01  7.0972670930388637e-01  7.0867598402498844e-01  7.0758039793456950e-01  7.0636628750689490e-01  7.0497858859228280e-01  7.0338162975879170e-01  7.0155773525885368e-01  6.9950460603795961e-01  6.9723122664388415e-01  6.9475455289304167e-01  6.9209759373001090e-01  6.8928866367763342e-01  6.8635907815362474e-01  6.8334047177901391e-01  6.8026216714219279e-01  6.7715012890223969e-01  6.7402678605438027e-01  6.7091197976414885e-01  6.6782282325646203e-01  6.6477198483781186e-01  6.6176488113647092e-01  6.5879894155496499e-01  6.5586428799548235e-01  6.5294564159676727e-01  6.5002386437565096e-01  6.4707767681859074e-01  6.4408492261296091e-01  6.4102460942621176e-01  6.3787963027263572e-01  6.3464168754460404e-01  6.3132260503172843e-01  6.2796966379950336e-01  6.2462937247879036e-01  6.2132050479023204e-01  6.1805980851561648e-01  6.1488540500514055e-01  6.1184266871346127e-01  6.0894370615535043e-01  6.0616654154775484e-01  6.0347110417255934e-01  6.0077409401389514e-01  5.9797773433541812e-01  5.9503875242373117e-01  5.9195709253085149e-01  5.8874741748280479e-01  5.8542540844423896e-01  5.8200706261774782e-01  5.7850542988379960e-01  5.7493620821063829e-01  5.7132483068085194e-01  5.6770788390056770e-01  5.6412746737708130e-01  5.6061604884123217e-01  5.5717447373547835e-01  5.5375769520050289e-01  5.5029228871621561e-01  5.4672421655281078e-01  5.4308070962677923e-01  5.3943414523744404e-01  5.3577680773493730e-01  5.3204560451042371e-01  5.2817831760721201e-01  5.2419701297175669e-01  5.2025807299605964e-01  5.1643678474609833e-01  5.1272798539186792e-01  5.0911312423790533e-01  5.0558294644894008e-01  5.0212095866008166e-01  4.9867898713105885e-01  4.9520537072458748e-01  4.9169252738631647e-01  4.8818113566398869e-01  4.8473914942519614e-01  4.8142916247383000e-01  4.7827378594722841e-01  4.7522560686408205e-01  4.7216588808435239e-01  4.6902810209926898e-01  4.6576557496485588e-01  4.6228778346953198e-01  4.5844975224536544e-01  4.5417409340762593e-01  4.4961653241030947e-01  4.4508273221790740e-01  4.4086870547880408e-01  4.3710744642415633e-01  4.3364616326548810e-01  4.2996441961090398e-01  4.2515298988276168e-01  4.1812147610044120e-01  4.0839375720902876e-01  3.9745599632683820e-01  3.8810969498701503e-01  3.8082321653362505e-01  3.7447618512219250e-01  3.6793499546542302e-01  3.6049311952379459e-01  3.5180528652133686e-01  3.4172528780885048e-01  3.3016049556122762e-01  3.1697041714718877e-01  3.0194597021517317e-01  2.8489831558546719e-01  2.6569886772958162e-01  2.4428868851453742e-01  2.2086216757666435e-01  1.9619699226170556e-01  1.7134226640353534e-01  1.4701153373291767e-01  1.2404918497505181e-01  1.0361110306483935e-01  8.5775487190118960e-02  6.9840895875834613e-02  5.5965134773283000e-02  4.4377524335210937e-02  3.4969960884130236e-02  2.7450538987997260e-02  2.1488994571066213e-02  1.6780827078033165e-02  1.3069746572022065e-02  1.0150308632946119e-02  7.8598781845473052e-03  6.0690264702963487e-03  4.6739819271851713e-03  3.5912760122077622e-03  2.7538571979492804e-03  2.1081044897463836e-03  1.6114010047019675e-03  1.2301149947205622e-03  9.3789603143959639e-04  7.1424833796662160e-04  5.4333184180543328e-04  4.1297797115131906e-04  3.1388410685421835e-04  2.3897721956039216e-04  1.8291391189647322e-04  1.4170459301356050e-04  1.1243578842737767e-04  9.3091044127684410e-05  8.2493591379093561e-05  8.0565750945280933e-05  8.6314807841283869e-01  8.6191313100563405e-01  8.5999357715755664e-01  8.5735895456374778e-01  8.5395042919234765e-01  8.4980523001636021e-01  8.4502795830829247e-01  8.3976273800394940e-01  8.3417300808053196e-01  8.2845490505920139e-01  8.2288856454135062e-01  8.1784120208354316e-01  8.1367181698507329e-01  8.1064922488437130e-01  8.0891962922400218e-01  8.0851730917904630e-01  8.0938491322748130e-01  8.1137367799645821e-01  8.1423490318271052e-01  8.1761589905681109e-01  8.2107990491511362e-01  8.2415446575391904e-01  8.2637659414576370e-01  8.2732508626200529e-01  8.2671612781465709e-01  8.2448337728641496e-01  8.2076451507759685e-01  8.1583801977432502e-01  8.1007158743985774e-01  8.0388791208618426e-01  7.9770749934056406e-01  7.9191708855870657e-01  7.8683157116575575e-01  7.8254438422630324e-01  7.7891066804171061e-01  7.7586583205127235e-01  7.7347220423331964e-01  7.7186009727906468e-01  7.7113188663494237e-01  7.7128700472116429e-01  7.7220887704741492e-01  7.7368247581542071e-01  7.7543608717768830e-01  7.7719353618357556e-01  7.7869473612626905e-01  7.7970622406689316e-01  7.8004159546207508e-01  7.7958735030852000e-01  7.7830707890094752e-01  7.7620339107502323e-01  7.7329961466136488e-01  7.6963863085105688e-01  7.6527545703928290e-01  7.6025958280861727e-01  7.5462391102407911e-01  7.4844519163312340e-01  7.4195885385662430e-01  7.3555999356573865e-01  7.2966538859410490e-01  7.2458667394798448e-01  7.2055457944445078e-01  7.1773018061769078e-01  7.1614171553217842e-01  7.1570472194980372e-01  7.1626239353730747e-01  7.1761432519068802e-01  7.1953090322726898e-01  7.2176346488283982e-01  7.2405327852637347e-01  7.2615356986347968e-01  7.2786503421407489e-01  7.2902900889359823e-01  7.2953822981105743e-01  7.2933542515407024e-01  7.2839437403729845e-01  7.2669297191344773e-01  7.2420216421222461e-01  7.2089501284082980e-01  7.1690821560518858e-01  7.1248481367440486e-01  7.0787501291319110e-01  7.0333794166176389e-01  6.9910790147648627e-01  6.9533807596646979e-01  6.9209421742598298e-01  6.8937229670297662e-01  6.8711927225142200e-01  6.8525135447409002e-01  6.8366795724393292e-01  6.8226282456182408e-01  6.8093281123668348e-01  6.7958551107260301e-01  6.7814454890145770e-01  6.7655295643773961e-01  6.7477393126289598e-01  6.7278989241589726e-01  6.7059915878720489e-01  6.6821149878158204e-01  6.6564368706740029e-01  6.6291834163346974e-01  6.6006362856311240e-01  6.5711114124400982e-01  6.5409223207358602e-01  6.5103538534250882e-01  6.4796474149470684e-01  6.4490064867352304e-01  6.4186085949095506e-01  6.3886126326965809e-01  6.3591314948243216e-01  6.3301967957100869e-01  6.3017474142781682e-01  6.2736457328540507e-01  6.2456980977208476e-01  6.2176774060075235e-01  6.1893378712584446e-01  6.1604330284419107e-01  6.1307369813577461e-01  6.1000878112077606e-01  6.0684407898501702e-01  6.0359259240992102e-01  6.0029325062345018e-01  5.9699496899966986e-01  5.9372018472495880e-01  5.9048706068867418e-01  5.8733987232938523e-01  5.8433523904525186e-01  5.8148333805563235e-01  5.7875135075999240e-01  5.7610348614342499e-01  5.7345792539904072e-01  5.7070276049541258e-01  5.6779540634950731e-01  5.6474352794231586e-01  5.6156835685028472e-01  5.5828813707668057e-01  5.5491833980909411e-01  5.5147305488564302e-01  5.4796939116195065e-01  5.4443421284147353e-01  5.4090673394717548e-01  5.3743325843337897e-01  5.3405207289515411e-01  5.3076697350671609e-01  5.2752805937387015e-01  5.2425570450259684e-01  5.2089389149338583e-01  5.1745317917052536e-01  5.1400314618011589e-01  5.1054044213821448e-01  5.0700890047961944e-01  5.0335835852207478e-01  4.9960058481146308e-01  4.9584626866531878e-01  4.9217704818121932e-01  4.8860009101685226e-01  4.8510571067535468e-01  4.8169128407304657e-01  4.7834542426624166e-01  4.7501340201102726e-01  4.7163122380917016e-01  4.6819222830174012e-01  4.6474658698642796e-01  4.6137308162208418e-01  4.5814072624232027e-01  4.5506785856642978e-01  4.5211437669191540e-01  4.4920105586555953e-01  4.4626903581721128e-01  4.4326156010116685e-01  4.4006531761046447e-01  4.3653076395121948e-01  4.3258112115853070e-01  4.2838438185443789e-01  4.2426274341203846e-01  4.2050812765973872e-01  4.1722654187555891e-01  4.1423978445236609e-01  4.1105278043213361e-01  4.0687109025496349e-01  4.0077724597191877e-01  3.9243425444516233e-01  3.8301937870341685e-01  3.7490158930405831e-01  3.6867911598208347e-01  3.6334123770106497e-01  3.5780055331762906e-01  3.5139241259336934e-01  3.4380483823417940e-01  3.3491343079713426e-01  3.2463194332553058e-01  3.1281169760378186e-01  2.9922176903147668e-01  2.8363361962148070e-01  2.6588604842395119e-01  2.4590348550142838e-01  2.2381582821378290e-01  2.0023317910807359e-01  1.7616877120133251e-01  1.5236798291648609e-01  1.2949455768160090e-01  1.0873519428855119e-01  9.0473145270853192e-02  7.4086649309869634e-02  5.9625165650812384e-02  4.7418418310447394e-02  3.7448552352355127e-02  2.9449186090484445e-02  2.3088907898186475e-02  1.8053247681742070e-02  1.4074735340419618e-02  1.0938915035064129e-02  8.4753782159906164e-03  6.5474576593081450e-03  5.0447570679802659e-03  3.8779996977161999e-03  2.9752348119081698e-03  2.2788197593621240e-03  1.7429042561712077e-03  1.3312904470876123e-03  1.0156217668736080e-03  7.7384458001005256e-04  5.8892367034855475e-04  4.4777220643987375e-04  3.4038775868326432e-04  2.5915971084155827e-04  1.9833562498343223e-04  1.5361239876627875e-04  1.2183810601974224e-04  1.0079512700991903e-04  8.9041476645656758e-05  8.5700823962295633e-05  8.0939605190182573e-01  8.0860283621988638e-01  8.0660412516684310e-01  8.0323464984910209e-01  7.9859431676240078e-01  7.9285742103152701e-01  7.8624671736358487e-01  7.7900856984641464e-01  7.7137836683575167e-01  7.6359378939087141e-01  7.5601583829968200e-01  7.4918680406397209e-01  7.4363380056652806e-01  7.3973124535323920e-01  7.3766733191669720e-01  7.3747520239004583e-01  7.3908449441306057e-01  7.4232906284919487e-01  7.4692730529166951e-01  7.5245665263720685e-01  7.5837126162594615e-01  7.6406952422150343e-01  7.6894674685251063e-01  7.7243451481478453e-01  7.7409154299194249e-01  7.7373078842845444e-01  7.7136691402195590e-01  7.6716219155910248e-01  7.6142604572429939e-01  7.5459914714081222e-01  7.4714153744968470e-01  7.3948631340167981e-01  7.3207742721096314e-01  7.2520378386003526e-01  7.1887920926987314e-01  7.1318663881010202e-01  7.0832787447976864e-01  7.0452530997492713e-01  7.0193649516051937e-01  7.0059320778274814e-01  7.0038365760898902e-01  7.0106741290568719e-01  7.0231671887925207e-01  7.0377296257680644e-01  7.0508104170620567e-01  7.0590607502423364e-01  7.0596089712074206e-01  7.0504835876559824e-01  7.0309248114826695e-01  7.0008256046372075e-01  6.9604551723746388e-01  6.9104866593639536e-01  6.8518921827169688e-01  6.7855903106638438e-01  6.7120510911142539e-01  6.6319032677326306e-01  6.5482093739020075e-01  6.4668694733255050e-01  6.3940146706235390e-01  6.3333588108272598e-01  6.2870865372125950e-01  6.2568612952053215e-01  6.2427676761401640e-01  6.2435852315883189e-01  6.2574137042404843e-01  6.2820238871260337e-01  6.3150177483231862e-01  6.3538384790339697e-01  6.3956860417114070e-01  6.4375969227613039e-01  6.4766734995954922e-01  6.5101486598957126e-01  6.5357064601438297e-01  6.5516452631991851e-01  6.5567498294453930e-01  6.5499899423216257e-01  6.5306192611650304e-01  6.4989688179554872e-01  6.4570297506762464e-01  6.4076098471370191e-01  6.3533128628594726e-01  6.2973729742988438e-01  6.2431946649947800e-01  6.1930610597940305e-01  6.1481116364729493e-01  6.1086537038395727e-01  6.0744239642643638e-01  6.0447800905588422e-01  6.0188409152905964e-01  5.9955940918138240e-01  5.9740006361151210e-01  5.9530950013558215e-01  5.9320663570326648e-01  5.9103083002985268e-01  5.8874404449832807e-01  5.8632990041169453e-01  5.8378980543218750e-01  5.8113559721443231e-01  5.7838253367152104e-01  5.7554962720298930e-01  5.7266347209582114e-01  5.6975485970726381e-01  5.6685326954454363e-01  5.6398276926426749e-01  5.6116079395686214e-01  5.5839947673212387e-01  5.5570954380595849e-01  5.5310287525646029e-01  5.5058748688306069e-01  5.4815924643959013e-01  5.4580141747207533e-01  5.4348815051608945e-01  5.4118849941102343e-01  5.3886926886498787e-01  5.3649705813925008e-01  5.3403980137731422e-01  5.3146963958625970e-01  5.2876998280191911e-01  5.2594533247088404e-01  5.2301853941423615e-01  5.2002194977746341e-01  5.1699361615705497e-01  5.1395991761084914e-01  5.1094558880706564e-01  5.0800594692650924e-01  5.0522733882930715e-01  5.0261821064771617e-01  5.0010439719509547e-01  4.9765131001138324e-01  4.9520338231625094e-01  4.9263399584062867e-01  4.8990077307484037e-01  4.8702682287340887e-01  4.8404565753743867e-01  4.8098125445072709e-01  4.7784912768224042e-01  4.7466498685519887e-01  4.7144924957031681e-01  4.6823307352097399e-01  4.6506236417778624e-01  4.6199513290849853e-01  4.5908678519678420e-01  4.5635180207358561e-01  4.5372147899088627e-01  4.5109016571605126e-01  4.4840788386967761e-01  4.4567876800803330e-01  4.4292803983609291e-01  4.4013674486726406e-01  4.3725806351836011e-01  4.3426075030459899e-01  4.3115493602933425e-01  4.2800081631412856e-01  4.2485474843836935e-01  4.2173964047010065e-01  4.1866745448650999e-01  4.1565414600614320e-01  4.1270151836051155e-01  4.0974070659938983e-01  4.0667084925520813e-01  4.0348899197541510e-01  4.0027207000178538e-01  3.9712893983887826e-01  3.9415564783911450e-01  3.9137744287270576e-01  3.8875736938494942e-01  3.8628126461601331e-01  3.8394823557762042e-01  3.8169393284753511e-01  3.7932092965012942e-01  3.7660876143284638e-01  3.7351876596793715e-01  3.7028808123645268e-01  3.6729584760784195e-01  3.6483202340874293e-01  3.6292954688862261e-01  3.6132523139922512e-01  3.5955271987472220e-01  3.5705959087926964e-01  3.5330981954330537e-01  3.4817795763468157e-01  3.4266751633872844e-01  3.3810499822198969e-01  3.3484057759714742e-01  3.3214771559716033e-01  3.2918801265672459e-01  3.2545865859670431e-01  3.2074943671599837e-01  3.1499506432722862e-01  3.0813583712306125e-01  3.0000747603279115e-01  2.9033701780336801e-01  2.7882132516786345e-01  2.6520247871768199e-01  2.4930845694312079e-01  2.3110878022460410e-01  2.1088854278712618e-01  1.8936601682801615e-01  1.6726079165027433e-01  1.4515203691589210e-01  1.2403240028786874e-01  1.0469886001214843e-01  8.6961463016218613e-02  7.0916751837586070e-02  5.6975430621239255e-02  4.5336059614573120e-02  3.5859928197717834e-02  2.8247398227810541e-02  2.2170113639493172e-02  1.7333594602583012e-02  1.3500246867594198e-02  1.0477348034220414e-02  8.1058308103720937e-03  6.2542178942902255e-03  4.8146365701479329e-03  3.6994184115586048e-03  2.8380215900386733e-03  2.1742009635375864e-03  1.6635053435192957e-03  1.2711008026564754e-03  9.6990946486666678e-04  7.3902165310972708e-04  5.6237991849528851e-04  4.2770089305402227e-04  3.2562657835833050e-04  2.4906252011773153e-04  1.9268394920257263e-04  1.5256742965507239e-04  1.2592802629689476e-04  1.1092280251358355e-04  1.0649336309671261e-04  7.0293348917324772e-01  7.0298446552683114e-01  7.0069882727787025e-01  6.9587042126187315e-01  6.8894104314578863e-01  6.8035907410725960e-01  6.7059599840348461e-01  6.6011916276034266e-01  6.4931675794238330e-01  6.3851674890135535e-01  6.2815280479634972e-01  6.1897566200522014e-01  6.1171894092039181e-01  6.0686940675273271e-01  6.0465072672354070e-01  6.0509325289356841e-01  6.0812293091111025e-01  6.1359955055421767e-01  6.2127262693454999e-01  6.3067742495446411e-01  6.4112827201396183e-01  6.5185266807095388e-01  6.6206092091487101e-01  6.7096316558000779e-01  6.7783278205741682e-01  6.8213669636892438e-01  6.8356097135551541e-01  6.8198790247385410e-01  6.7755090535080387e-01  6.7067613795508130e-01  6.6190942341652947e-01  6.5177078678289135e-01  6.4088847528155091e-01  6.2986547625671852e-01  6.1907497322410843e-01  6.0886783837496017e-01  5.9966562523854128e-01  5.9185590660035536e-01  5.8570742953633737e-01  5.8132051426858256e-01  5.7860799100508953e-01  5.7730562368737903e-01  5.7701854170819022e-01  5.7729139114297268e-01  5.7765410505835468e-01  5.7764512679272317e-01  5.7685105244767476e-01  5.7495665998347001e-01  5.7178644568513048e-01  5.6728362927801024e-01  5.6148565689841823e-01  5.5451812680946388e-01  5.4657266341247956e-01  5.3784247939917129e-01  5.2843443686505298e-01  5.1842498118445624e-01  5.0820745142244961e-01  4.9856495279438973e-01  4.9028737570872927e-01  4.8376114879736998e-01  4.7911881805805751e-01  4.7642869986302944e-01  4.7565845624958719e-01  4.7666641269657140e-01  4.7926261606534037e-01  4.8324865108288739e-01  4.8843612794961289e-01  4.9463484232880134e-01  5.0159954310855526e-01  5.0899011907074065e-01  5.1639620959473875e-01  5.2336487181579405e-01  5.2945356969976043e-01  5.3426632899678628e-01  5.3750627291986586e-01  5.3893390887906489e-01  5.3844138303235933e-01  5.3610035827840663e-01  5.3217869086012659e-01  5.2703613697370344e-01  5.2096184235146470e-01  5.1433941684113160e-01  5.0764583553177489e-01  5.0121847154280363e-01  4.9524209391150087e-01  4.8980284329086105e-01  4.8492113140971826e-01  4.8057144908827953e-01  4.7669455988916526e-01  4.7320637110445835e-01  4.7000980237951490e-01  4.6700936023598738e-01  4.6412290695387698e-01  4.6128915425844613e-01  4.5847123415674101e-01  4.5565652736128975e-01  4.5285202430186317e-01  4.5007266349387842e-01  4.4732740216571953e-01  4.4462397121929603e-01  4.4198317725469299e-01  4.3943224959446731e-01  4.3699510759768262e-01  4.3468686180271487e-01  4.3251265819426427e-01  4.3047038078579741e-01  4.2855861675572476e-01  4.2678497790862874e-01  4.2515597691211643e-01  4.2365789752472005e-01  4.2225866146434504e-01  4.2091604358619017e-01  4.1958426122306908e-01  4.1821783339569613e-01  4.1677360096496058e-01  4.1521182150280173e-01  4.1349811241549200e-01  4.1161179136089782e-01  4.0956509953515197e-01  4.0739575558407753e-01  4.0513264816605549e-01  4.0280020691579083e-01  4.0042120144366733e-01  3.9802541934124108e-01  3.9566871278199411e-01  3.9343779888230657e-01  3.9136486684085925e-01  3.8933838750504851e-01  3.8730511448949817e-01  3.8524050659473169e-01  3.8307492732255477e-01  3.8077252134333245e-01  3.7835533030280022e-01  3.7585804616530744e-01  3.7330702923266862e-01  3.7071850055019523e-01  3.68110757998