<?xml version="1.0"?>
<VTKFile type="UnstructuredGrid"  version="0.1"  >
<UnstructuredGrid>
<Piece  NumberOfPoints="7161" NumberOfCells="13800">
<Points>
<DataArray  type="Float64"  NumberOfComponents="3"  format="ascii">0 0 0  0.01652173913043478 0 0  0.03304347826086956 0 0  0.04956521739130434 0 0  0.06608695652173913 0 0  0.08260869565217391 0 0  0.09913043478260869 0 0  0.1156521739130435 0 0  0.1321739130434783 0 0  0.148695652173913 0 0  0.1652173913043478 0 0  0.1817391304347826 0 0  0.1982608695652174 0 0  0.2147826086956522 0 0  0.2313043478260869 0 0  0.2478260869565218 0 0  0.2643478260869565 0 0  0.2808695652173913 0 0  0.2973913043478261 0 0  0.3139130434782609 0 0  0.3304347826086956 0 0  0.3469565217391304 0 0  0.3634782608695652 0 0  0.3799999999999999 0 0  0.3965217391304348 0 0  0.4130434782608696 0 0  0.4295652173913043 0 0  0.4460869565217391 0 0  0.4626086956521739 0 0  0.4791304347826086 0 0  0.4956521739130435 0 0  0.5121739130434783 0 0  0.528695652173913 0 0  0.5452173913043478 0 0  0.5617391304347825 0 0  0.5782608695652174 0 0  0.5947826086956521 0 0  0.6113043478260869 0 0  0.6278260869565218 0 0  0.6443478260869565 0 0  0.6608695652173913 0 0  0.677391304347826 0 0  0.6939130434782609 0 0  0.7104347826086956 0 0  0.7269565217391304 0 0  0.7434782608695653 0 0  0.7599999999999999 0 0  0.7765217391304348 0 0  0.7930434782608695 0 0  0.8095652173913043 0 0  0.8260869565217391 0 0  0.8426086956521739 0 0  0.8591304347826086 0 0  0.8756521739130434 0 0  0.8921739130434783 0 0  0.908695652173913 0 0  0.9252173913043478 0 0  0.9417391304347826 0 0  0.9582608695652173 0 0  0.9747826086956521 0 0  0.991304347826087 0 0  1.007826086956522 0 0  1.024347826086957 0 0  1.040869565217391 0 0  1.057391304347826 0 0  1.073913043478261 0 0  1.090434782608696 0 0  1.10695652173913 0 0  1.123478260869565 0 0  1.14 0 0  1.156521739130435 0 0  1.17304347826087 0 0  1.189565217391304 0 0  1.206086956521739 0 0  1.222608695652174 0 0  1.239130434782609 0 0  1.255652173913044 0 0  1.272173913043478 0 0  1.288695652173913 0 0  1.305217391304348 0 0  1.321739130434783 0 0  1.338260869565217 0 0  1.354782608695652 0 0  1.371304347826087 0 0  1.387826086956522 0 0  1.404347826086957 0 0  1.420869565217391 0 0  1.437391304347826 0 0  1.453913043478261 0 0  1.470434782608696 0 0  1.486956521739131 0 0  1.503478260869565 0 0  1.52 0 0  1.536521739130435 0 0  1.55304347826087 0 0  1.569565217391304 0 0  1.586086956521739 0 0  1.602608695652174 0 0  1.619130434782609 0 0  1.635652173913043 0 0  1.652173913043478 0 0  1.668695652173913 0 0  1.685217391304348 0 0  1.701739130434782 0 0  1.718260869565217 0 0  1.734782608695652 0 0  1.751304347826087 0 0  1.767826086956522 0 0  1.784347826086957 0 0  1.800869565217391 0 0  1.817391304347826 0 0  1.833913043478261 0 0  1.850434782608696 0 0  1.86695652173913 0 0  1.883478260869565 0 0  1.9 0 0  1.916521739130435 0 0  1.933043478260869 0 0  1.949565217391304 0 0  1.966086956521739 0 0  1.982608695652174 0 0  1.999130434782608 0 0  2.015652173913043 0 0  2.032173913043478 0 0  2.048695652173913 0 0  2.065217391304348 0 0  2.081739130434782 0 0  2.098260869565217 0 0  2.114782608695652 0 0  2.131304347826087 0 0  2.147826086956522 0 0  2.164347826086956 0 0  2.180869565217391 0 0  2.197391304347826 0 0  2.213913043478261 0 0  2.230434782608695 0 0  2.24695652173913 0 0  2.263478260869565 0 0  2.28 0 0  2.296521739130434 0 0  2.31304347826087 0 0  2.329565217391304 0 0  2.346086956521739 0 0  2.362608695652174 0 0  2.379130434782609 0 0  2.395652173913044 0 0  2.412173913043478 0 0  2.428695652173913 0 0  2.445217391304348 0 0  2.461739130434782 0 0  2.478260869565217 0 0  2.494782608695652 0 0  2.511304347826087 0 0  2.527826086956522 0 0  2.544347826086956 0 0  2.560869565217391 0 0  2.577391304347826 0 0  2.593913043478261 0 0  2.610434782608696 0 0  2.62695652173913 0 0  2.643478260869565 0 0  2.66 0 0  2.676521739130435 0 0  2.693043478260869 0 0  2.709565217391304 0 0  2.726086956521739 0 0  2.742608695652174 0 0  2.759130434782609 0 0  2.775652173913044 0 0  2.792173913043478 0 0  2.808695652173913 0 0  2.825217391304347 0 0  2.841739130434783 0 0  2.858260869565217 0 0  2.874782608695652 0 0  2.891304347826087 0 0  2.907826086956522 0 0  2.924347826086957 0 0  2.940869565217391 0 0  2.957391304347826 0 0  2.973913043478261 0 0  2.990434782608696 0 0  3.006956521739131 0 0  3.023478260869565 0 0  3.04 0 0  3.056521739130435 0 0  3.073043478260869 0 0  3.089565217391304 0 0  3.106086956521739 0 0  3.122608695652174 0 0  3.139130434782609 0 0  3.155652173913043 0 0  3.172173913043478 0 0  3.188695652173913 0 0  3.205217391304347 0 0  3.221739130434782 0 0  3.238260869565217 0 0  3.254782608695652 0 0  3.271304347826087 0 0  3.287826086956521 0 0  3.304347826086957 0 0  3.320869565217391 0 0  3.337391304347826 0 0  3.353913043478261 0 0  3.370434782608696 0 0  3.386956521739131 0 0  3.403478260869565 0 0  3.419999999999999 0 0  3.436521739130435 0 0  3.453043478260869 0 0  3.469565217391304 0 0  3.486086956521739 0 0  3.502608695652174 0 0  3.519130434782609 0 0  3.535652173913043 0 0  3.552173913043478 0 0  3.568695652173913 0 0  3.585217391304347 0 0  3.601739130434782 0 0  3.618260869565217 0 0  3.634782608695652 0 0  3.651304347826087 0 0  3.667826086956521 0 0  3.684347826086956 0 0  3.700869565217391 0 0  3.717391304347826 0 0  3.733913043478261 0 0  3.750434782608695 0 0  3.766956521739131 0 0  3.783478260869565 0 0  3.8 0 0  0 0.01666666666666667 0  0.01652173913043478 0.01666666666666667 0  0.03304347826086956 0.01666666666666667 0  0.04956521739130434 0.01666666666666667 0  0.06608695652173913 0.01666666666666667 0  0.08260869565217391 0.01666666666666667 0  0.09913043478260869 0.01666666666666667 0  0.1156521739130435 0.01666666666666667 0  0.1321739130434783 0.01666666666666667 0  0.148695652173913 0.01666666666666667 0  0.1652173913043478 0.01666666666666667 0  0.1817391304347826 0.01666666666666667 0  0.1982608695652174 0.01666666666666667 0  0.2147826086956522 0.01666666666666667 0  0.2313043478260869 0.01666666666666667 0  0.2478260869565218 0.01666666666666667 0  0.2643478260869565 0.01666666666666667 0  0.2808695652173913 0.01666666666666667 0  0.2973913043478261 0.01666666666666667 0  0.3139130434782609 0.01666666666666667 0  0.3304347826086956 0.01666666666666667 0  0.3469565217391304 0.01666666666666667 0  0.3634782608695652 0.01666666666666667 0  0.3799999999999999 0.01666666666666667 0  0.3965217391304348 0.01666666666666667 0  0.4130434782608696 0.01666666666666667 0  0.4295652173913043 0.01666666666666667 0  0.4460869565217391 0.01666666666666667 0  0.4626086956521739 0.01666666666666667 0  0.4791304347826086 0.01666666666666667 0  0.4956521739130435 0.01666666666666667 0  0.5121739130434783 0.01666666666666667 0  0.528695652173913 0.01666666666666667 0  0.5452173913043478 0.01666666666666667 0  0.5617391304347825 0.01666666666666667 0  0.5782608695652174 0.01666666666666667 0  0.5947826086956521 0.01666666666666667 0  0.6113043478260869 0.01666666666666667 0  0.6278260869565218 0.01666666666666667 0  0.6443478260869565 0.01666666666666667 0  0.6608695652173913 0.01666666666666667 0  0.677391304347826 0.01666666666666667 0  0.6939130434782609 0.01666666666666667 0  0.7104347826086956 0.01666666666666667 0  0.7269565217391304 0.01666666666666667 0  0.7434782608695653 0.01666666666666667 0  0.7599999999999999 0.01666666666666667 0  0.7765217391304348 0.01666666666666667 0  0.7930434782608695 0.01666666666666667 0  0.8095652173913043 0.01666666666666667 0  0.8260869565217391 0.01666666666666667 0  0.8426086956521739 0.01666666666666667 0  0.8591304347826086 0.01666666666666667 0  0.8756521739130434 0.01666666666666667 0  0.8921739130434783 0.01666666666666667 0  0.908695652173913 0.01666666666666667 0  0.9252173913043478 0.01666666666666667 0  0.9417391304347826 0.01666666666666667 0  0.9582608695652173 0.01666666666666667 0  0.9747826086956521 0.01666666666666667 0  0.991304347826087 0.01666666666666667 0  1.007826086956522 0.01666666666666667 0  1.024347826086957 0.01666666666666667 0  1.040869565217391 0.01666666666666667 0  1.057391304347826 0.01666666666666667 0  1.073913043478261 0.01666666666666667 0  1.090434782608696 0.01666666666666667 0  1.10695652173913 0.01666666666666667 0  1.123478260869565 0.01666666666666667 0  1.14 0.01666666666666667 0  1.156521739130435 0.01666666666666667 0  1.17304347826087 0.01666666666666667 0  1.189565217391304 0.01666666666666667 0  1.206086956521739 0.01666666666666667 0  1.222608695652174 0.01666666666666667 0  1.239130434782609 0.01666666666666667 0  1.255652173913044 0.01666666666666667 0  1.272173913043478 0.01666666666666667 0  1.288695652173913 0.01666666666666667 0  1.305217391304348 0.01666666666666667 0  1.321739130434783 0.01666666666666667 0  1.338260869565217 0.01666666666666667 0  1.354782608695652 0.01666666666666667 0  1.371304347826087 0.01666666666666667 0  1.387826086956522 0.01666666666666667 0  1.404347826086957 0.01666666666666667 0  1.420869565217391 0.01666666666666667 0  1.437391304347826 0.01666666666666667 0  1.453913043478261 0.01666666666666667 0  1.470434782608696 0.01666666666666667 0  1.486956521739131 0.01666666666666667 0  1.503478260869565 0.01666666666666667 0  1.52 0.01666666666666667 0  1.536521739130435 0.01666666666666667 0  1.55304347826087 0.01666666666666667 0  1.569565217391304 0.01666666666666667 0  1.586086956521739 0.01666666666666667 0  1.602608695652174 0.01666666666666667 0  1.619130434782609 0.01666666666666667 0  1.635652173913043 0.01666666666666667 0  1.652173913043478 0.01666666666666667 0  1.668695652173913 0.01666666666666667 0  1.685217391304348 0.01666666666666667 0  1.701739130434782 0.01666666666666667 0  1.718260869565217 0.01666666666666667 0  1.734782608695652 0.01666666666666667 0  1.751304347826087 0.01666666666666667 0  1.767826086956522 0.01666666666666667 0  1.784347826086957 0.01666666666666667 0  1.800869565217391 0.0166666666666666
[...]
<PointData  Vectors="Displacement"> 
<DataArray  type="Float64"  Name="Displacement"  NumberOfComponents="3" format="ascii">0.0000000000000000e+00 0.0000000000000000e+00 0.0000000000000000e+00  5.4625294188870540e-06 3.2836191872494237e-06 0.0000000000000000e+00  1.0467589019616100e-05 6.7328015083921637e-06 0.0000000000000000e+00  1.5397476779615827e-05 1.1566017836865520e-05 0.0000000000000000e+00  2.0316647517766229e-05 1.8012712347996125e-05 0.0000000000000000e+00  2.5221013658282074e-05 2.6199459303372982e-05 0.0000000000000000e+00  3.0102157744092647e-05 3.6213202745638021e-05 0.0000000000000000e+00  3.4921497013036758e-05 4.8179823357187985e-05 0.0000000000000000e+00  3.9600478355865546e-05 6.2090478314583291e-05 0.0000000000000000e+00  4.4053599085902265e-05 7.7922320625175881e-05 0.0000000000000000e+00  4.8222708553940632e-05 9.5526375066366087e-05 0.0000000000000000e+00  5.2027513235572384e-05 1.1472170790669161e-04 0.0000000000000000e+00  5.5388407228594994e-05 1.3523463381354738e-04 0.0000000000000000e+00  5.8252426163516596e-05 1.5667761636211264e-04 0.0000000000000000e+00  6.0596946439156200e-05 1.7860679709182702e-04 0.0000000000000000e+00  6.2443871594721457e-05 2.0057788573114822e-04 0.0000000000000000e+00  6.3874823120648930e-05 2.2222005685723924e-04 0.0000000000000000e+00  6.4985302027156528e-05 2.4333743266880244e-04 0.0000000000000000e+00  6.5847865136087520e-05 2.6386277705499074e-04 0.0000000000000000e+00  6.6520236559849976e-05 2.8377448862509756e-04 0.0000000000000000e+00  6.7035829039472378e-05 3.0309548741234033e-04 0.0000000000000000e+00  6.7429734751568596e-05 3.2181310183513744e-04 0.0000000000000000e+00  6.7755559115165046e-05 3.3993023451054407e-04 0.0000000000000000e+00  6.8064880482817438e-05 3.5750780514635103e-04 0.0000000000000000e+00  6.8404948119210249e-05 3.7462127666643342e-04 0.0000000000000000e+00  6.8840063058083371e-05 3.9133539518822669e-04 0.0000000000000000e+00  6.9459814076130617e-05 4.0774311728915123e-04 0.0000000000000000e+00  7.0354622880597670e-05 4.2401833467732152e-04 0.0000000000000000e+00  7.1571429666498259e-05 4.4037902208033373e-04 0.0000000000000000e+00  7.3077667073919708e-05 4.5710456258337128e-04 0.0000000000000000e+00  7.4697968874947739e-05 4.7445001676334084e-04 0.0000000000000000e+00  7.6229186864574017e-05 4.9215203130134329e-04 0.0000000000000000e+00  7.7653826670051758e-05 5.0975778141310805e-04 0.0000000000000000e+00  7.9016748594870531e-05 5.2705273748840939e-04 0.0000000000000000e+00  8.0352329362985377e-05 5.4399436439416882e-04 0.0000000000000000e+00  8.1674948543771704e-05 5.6056337425965325e-04 0.0000000000000000e+00  8.2996870745704262e-05 5.7673839180015203e-04 0.0000000000000000e+00  8.4331279839284005e-05 5.9253616410065305e-04 0.0000000000000000e+00  8.5680308194381805e-05 6.0799811981211412e-04 0.0000000000000000e+00  8.7041757406687873e-05 6.2315050072162502e-04 0.0000000000000000e+00  8.8412763654957866e-05 6.3800403116106392e-04 0.0000000000000000e+00  8.9791665592491978e-05 6.5256590501900984e-04 0.0000000000000000e+00  9.1177943173980673e-05 6.6684295090707884e-04 0.0000000000000000e+00  9.2571351238426031e-05 6.8084186279565768e-04 0.0000000000000000e+00  9.3971848449512726e-05 6.9456940674147624e-04 0.0000000000000000e+00  9.5379170494634764e-05 7.0803224239160488e-04 0.0000000000000000e+00  9.6792835257809102e-05 7.2123557375494121e-04 0.0000000000000000e+00  9.8212899633287612e-05 7.3418367808840033e-04 0.0000000000000000e+00  9.9639774681892771e-05 7.4688217989112449e-04 0.0000000000000000e+00  1.0107380029430004e-04 7.5933834552749369e-04 0.0000000000000000e+00  1.0251514160904959e-04 7.7155996096991422e-04 0.0000000000000000e+00  1.0396378016196522e-04 7.8355468429885554e-04 0.0000000000000000e+00  1.0541960178206125e-04 7.9532984044174625e-04 0.0000000000000000e+00  1.0688249066509079e-04 8.0689238433704193e-04 0.0000000000000000e+00  1.0835232062419692e-04 8.1824902201710239e-04 0.0000000000000000e+00  1.0982909839958267e-04 8.2940638230684317e-04 0.0000000000000000e+00  1.1131290569282425e-04 8.4037160537555114e-04 0.0000000000000000e+00  1.1280231859055356e-04 8.5115013522654086e-04 0.0000000000000000e+00  1.1429669488202965e-04 8.6174190018231689e-04 0.0000000000000000e+00  1.1579786486707820e-04 8.7214976750027201e-04 0.0000000000000000e+00  1.1730672456578009e-04 8.8238353313625372e-04 0.0000000000000000e+00  1.1882344533202218e-04 8.9245401480758950e-04 0.0000000000000000e+00  1.2034766103707949e-04 9.0236965295965345e-04 0.0000000000000000e+00  1.2187899445445786e-04 9.1213742796901855e-04 0.0000000000000000e+00  1.2341726415281999e-04 9.2176390169197795e-04 0.0000000000000000e+00  1.2496239365780397e-04 9.3125555999188996e-04 0.0000000000000000e+00  1.2651434487732609e-04 9.4061886939106733e-04 0.0000000000000000e+00  1.2807309232865403e-04 9.4986026820572072e-04 0.0000000000000000e+00  1.2963860253922406e-04 9.5898614595257793e-04 0.0000000000000000e+00  1.3121082459098367e-04 9.6800279706306543e-04 0.0000000000000000e+00  1.3278969303777023e-04 9.7691638299194977e-04 0.0000000000000000e+00  1.3437518485065814e-04 9.8573302560396895e-04 0.0000000000000000e+00  1.3596715979421377e-04 9.9445895599919055e-04 0.0000000000000000e+00  1.3756579548120161e-04 1.0031007468153054e-03 0.0000000000000000e+00  1.3917069892962152e-04 1.0116659387443569e-03 0.0000000000000000e+00  1.4077615103801750e-04 1.0201532714755009e-03 0.0000000000000000e+00  1.4237643742931843e-04 1.0285372906703556e-03 0.0000000000000000e+00  1.4397833088988394e-04 1.0367914394137372e-03 0.0000000000000000e+00  1.4559269422195702e-04 1.0449298250549569e-03 0.0000000000000000e+00  1.4722189707499147e-04 1.0529930087481904e-03 0.0000000000000000e+00  1.4886374221654094e-04 1.0610098163211506e-03 0.0000000000000000e+00  1.5051549590990777e-04 1.0689930871864135e-03 0.0000000000000000e+00  1.5217531560065092e-04 1.0769504771853515e-03 0.0000000000000000e+00  1.5384120787248682e-04 1.0848888523083029e-03 0.0000000000000000e+00  1.5551636299527036e-04 1.0928158475386530e-03 0.0000000000000000e+00  1.5719642536258892e-04 1.1007488269371586e-03 0.0000000000000000e+00  1.5886595432884431e-04 1.1086675520685832e-03 0.0000000000000000e+00  1.6053344788842831e-04 1.1165325872915365e-03 0.0000000000000000e+00  1.6217364989413628e-04 1.1243147082456082e-03 0.0000000000000000e+00  1.6376609576404806e-04 1.1318765728820374e-03 0.0000000000000000e+00  1.6536296359874513e-04 1.1391003681681126e-03 0.0000000000000000e+00  1.6702728361167287e-04 1.1461056307139031e-03 0.0000000000000000e+00  1.6877680797414900e-04 1.1532197733565503e-03 0.0000000000000000e+00  1.7058146941440421e-04 1.1606522164882066e-03 0.0000000000000000e+00  1.7243531551771146e-04 1.1684957289772181e-03 0.0000000000000000e+00  1.7439683443737903e-04 1.1766275187928047e-03 0.0000000000000000e+00  1.7666499170933470e-04 1.1850379600987612e-03 0.0000000000000000e+00  1.7945019728651221e-04 1.1939836328565582e-03 0.0000000000000000e+00  1.8290055597737127e-04 1.2038946628587963e-03 0.0000000000000000e+00  1.8707440936250618e-04 1.2153428975708288e-03 0.0000000000000000e+00  1.9198542719013771e-04 1.2289866417509680e-03 0.0000000000000000e+00  1.9764223530594133e-04 1.2455344209873242e-03 0.0000000000000000e+00  2.0394067773730427e-04 1.2658540650811981e-03 0.0000000000000000e+00  2.1072120830840400e-04 1.2907024210253183e-03 0.0000000000000000e+00  2.1767685585518315e-04 1.3204916695020383e-03 0.0000000000000000e+00  2.2479293714743233e-04 1.3551864282982870e-03 0.0000000000000000e+00  2.3194040954702748e-04 1.3954002264252542e-03 0.0000000000000000e+00  2.3895934610373518e-04 1.4409341442564799e-03 0.0000000000000000e+00  2.4571836922590676e-04 1.4916325266146368e-03 0.0000000000000000e+00  2.5215365321996431e-04 1.5468483877226920e-03 0.0000000000000000e+00  2.5825645298987857e-04 1.6064292005813100e-03 0.0000000000000000e+00  2.6388188847785269e-04 1.6699391950987926e-03 0.0000000000000000e+00  2.6899128149286889e-04 1.7367289902637066e-03 0.0000000000000000e+00  2.7362292310122713e-04 1.8061220269823103e-03 0.0000000000000000e+00  2.7793865927501981e-04 1.8776732424237933e-03 0.0000000000000000e+00  2.8214963855598704e-04 1.9511135463527983e-03 0.0000000000000000e+00  2.8655353217925964e-04 2.0265925893111756e-03 0.0000000000000000e+00  2.9129221973688902e-04 2.1045824619414276e-03 0.0000000000000000e+00  2.9651936311948389e-04 2.1857052976998999e-03 0.0000000000000000e+00  3.0214883870829175e-04 2.2711046925309843e-03 0.0000000000000000e+00  3.0825560305430279e-04 2.3619764600666194e-03 0.0000000000000000e+00  3.1452273286669200e-04 2.4595937699747870e-03 0.0000000000000000e+00  3.2071312202906484e-04 2.5639166648444289e-03 0.0000000000000000e+00  3.2667408569959667e-04 2.6746248479244329e-03 0.0000000000000000e+00  3.3239479757267990e-04 2.7913717881769104e-03 0.0000000000000000e+00  3.3785829480523824e-04 2.9138202019386877e-03 0.0000000000000000e+00  3.4306478181194604e-04 3.0416320975447555e-03 0.0000000000000000e+00  3.4800854812663432e-04 3.1744788644832832e-03 0.0000000000000000e+00  3.5266126426718305e-04 3.3120486682950653e-03 0.0000000000000000e+00  3.5700399229669831e-04 3.4539995354398384e-03 0.0000000000000000e+00  3.6098445123102592e-04 3.5997899198862821e-03 0.0000000000000000e+00  3.6462729263138718e-04 3.7486646434561569e-03 0.0000000000000000e+00  3.6788906628865402e-04 3.8999629287706557e-03 0.0000000000000000e+00  3.7086305941058428e-04 4.0532003559159251e-03 0.0000000000000000e+00  3.7361378844766600e-04 4.2081772429761457e-03 0.0000000000000000e+00  3.7613134931079950e-04 4.3646120970908297e-03 0.0000000000000000e+00  3.7847664603014191e-04 4.5223273965704852e-03 0.0000000000000000e+00  3.8065606665524713e-04 4.6812024248444606e-03 0.0000000000000000e+00  3.8266912159118800e-04 4.8410965309680356e-03 0.0000000000000000e+00  3.8452911040303485e-04 5.0018948379119349e-03 0.0000000000000000e+00  3.8621127496564039e-04 5.1634355343510192e-03 0.0000000000000000e+00  3.8770618700690132e-04 5.3255355424189034e-03 0.0000000000000000e+00  3.8899829358429597e-04 5.4879924574513812e-03 0.0000000000000000e+00  3.9007308109885604e-04 5.6505491022607627e-03 0.0000000000000000e+00  3.9094836053097623e-04 5.8129492124275777e-03 0.0000000000000000e+00  3.9163811634902051e-04 5.9750043077161008e-03 0.0000000000000000e+00  3.9214971455246017e-04 6.1365679332135549e-03 0.0000000000000000e+00  3.9248014213938729e-04 6.2974853254925316e-03 0.0000000000000000e+00  3.9262077163384638e-04 6.4575830052140855e-03 0.0000000000000000e+00  3.9255721715331977e-04 6.6166676260676601e-03 0.0000000000000000e+00  3.9226126126279501e-04 6.7745091831596330e-03 0.0000000000000000e+00  3.9168794062102578e-04 6.9307840121491243e-03 0.0000000000000000e+00  3.9079926691623309e-04 7.0850172848395936e-03 0.0000000000000000e+00  3.8958370996941815e-04 7.2367201216807335e-03 0.0000000000000000e+00  3.8807136781705235e-04 7.3855632908391674e-03 0.0000000000000000e+00  3.8613488621816548e-04 7.5310340631522359e-03 0.0000000000000000e+00  3.8378719034920126e-04 7.6721219315995914e-03 0.0000000000000000e+00  3.8112446191647810e-04 7.8081632926678751e-03 0.0000000000000000e+00  3.7820963570290542e-04 7.9387199409772253e-03 0.0000000000000000e+00  3.7524364236039761e-04 8.0636893147225022e-03 0.0000000000000000e+00  3.7228210968562775e-04 8.1835506544622686e-03 0.0000000000000000e+00  3.6930419034647772e-04 8.2985489315426826e-03 0.0000000000000000e+00  3.6629365448164603e-04 8.4087549873686183e-03 0.0000000000000000e+00  3.6329397560521672e-04 8.5144902280479117e-03 0.0000000000000000e+00  3.6025613833680299e-04 8.6159890757205298e-03 0.0000000000000000e+00  3.5712761952742225e-04 8.7133018632205503e-03 0.0000000000000000e+00  3.5386949914899230e-04 8.8063636694599573e-03 0.0000000000000000e+00  3.5045897278374190e-04 8.8950540232270552e-03 0.0000000000000000e+00  3.4688422678240464e-04 8.9792259127535780e-03 0.0000000000000000e+00  3.4313865282818343e-04 9.0587191774550487e-03 0.0000000000000000e+00  3.3923597636981623e-04 9.1333641453802527e-03 0.0000000000000000e+00  3.3517211302041075e-04 9.2030159608711033e-03 0.0000000000000000e+00  3.3101758751825732e-04 9.2676263181413077e-03 0.0000000000000000e+00  3.2675559379029604e-04 9.3272580062785729e-03 0.0000000000000000e+00  3.2245706269488380e-04 9.3818117340612218e-03 0.0000000000000000e+00  3.1820623242862677e-04 9.4316290644449463e-03 0.0000000000000000e+00  3.1409186222253378e-04 9.4771897509856196e-03 0.0000000000000000e+00  3.1004336064619149e-04 9.5190369603682847e-03 0.0000000000000000e+00  3.0592549734405626e-04 9.5571104491740371e-03 0.0000000000000000e+00  3.0178382036305230e-04 9.5912652596423266e-03 0.0000000000000000e+00  2.9777175981152631e-04 9.6215133320943138e-03 0.0000000000000000e+00  2.9404382129195850e-04 9.6482491202761964e-03 0.0000000000000000e+00  2.9067868871245837e-04 9.6720217237635589e-03 0.0000000000000000e+00  2.8772674808038326e-04 9.6933347555006807e-03 0.0000000000000000e+00  2.8524170761620233e-04 9.7126788085546267e-03 0.0000000000000000e+00  2.8328182107310098e-04 9.7304856644441409e-03 0.0000000000000000e+00  2.8186998595109764e-04 9.7472075826900637e-03 0.0000000000000000e+00  2.8096168638764066e-04 9.7632803039335667e-03 0.0000000000000000e+00  2.8046882037578605e-04 9.7790354170716170e-03 0.0000000000000000e+00  2.8024100056388659e-04 9.7946585412315018e-03 0.0000000000000000e+00  2.8019126437671643e-04 9.8102849437987430e-03 0.0000000000000000e+00  2.8017010081868207e-04 9.8258735608037460e-03 0.0000000000000000e+00  2.7975526805162248e-04 9.8415057730783500e-03 0.0000000000000000e+00  2.9250947018288729e-04 9.8639723288430209e-03 0.0000000000000000e+00  2.9539562196127757e-04 9.8834326427230876e-03 0.0000000000000000e+00  2.9982113156591260e-04 9.9052349332198180e-03 0.0000000000000000e+00  3.0445189384350265e-04 9.9268144885252992e-03 0.0000000000000000e+00  3.0883877386040238e-04 9.9493635307454191e-03 0.0000000000000000e+00  3.1249309330184672e-04 9.9732288072593243e-03 0.0000000000000000e+00  3.1526881323255015e-04 9.9977894126005249e-03 0.0000000000000000e+00  3.1716922152895226e-04 1.0022859359892312e-02 0.0000000000000000e+00  3.1820407990933657e-04 1.0048293966034546e-02 0.0000000000000000e+00  3.1847494528168232e-04 1.0073787379018434e-02 0.0000000000000000e+00  3.1810128115211022e-04 1.0099236001741599e-02 0.0000000000000000e+00  3.1717105094061511e-04 1.0124584247897988e-02 0.0000000000000000e+00  3.1575913201229339e-04 1.0149750960392815e-02 0.0000000000000000e+00  3.1394677935376648e-04 1.0174644652320423e-02 0.0000000000000000e+00  3.1182242256333541e-04 1.0199192260631131e-02 0.0000000000000000e+00  3.0947334468095570e-04 1.0223349540817874e-02 0.0000000000000000e+00  3.0697903598316808e-04 1.0247096124488838e-02 0.0000000000000000e+00  3.0440891397101133e-04 1.0270427769245709e-02 0.0000000000000000e+00  3.0182285029135375e-04 1.0293350808778414e-02 0.0000000000000000e+00  2.9927254239352008e-04 1.0315879369006253e-02 0.0000000000000000e+00  2.9680263401825200e-04 1.0338034235456473e-02 0.0000000000000000e+00  2.9445133146409835e-04 1.0359842226917297e-02 0.0000000000000000e+00  2.9225061413776574e-04 1.0381335588826365e-02 0.0000000000000000e+00  2.9022622717150316e-04 1.0402551189224745e-02 0.0000000000000000e+00  2.8839765236166471e-04 1.0423529450557400e-02 0.0000000000000000e+00  2.8677818644969901e-04 1.0444313123605872e-02 0.0000000000000000e+00  2.8537515409592085e-04 1.0464946068701009e-02 0.0000000000000000e+00  2.8419020903760469e-04 1.0485472153437630e-02 0.0000000000000000e+00  2.8321965148039857e-04 1.0505934287151301e-02 0.0000000000000000e+00  2.8245469560023460e-04 1.0526373547320306e-02 0.0000000000000000e+00  2.8188163936957149e-04 1.0546828309015998e-02 0.0000000000000000e+00  2.8148191554610473e-04 1.0567333245195491e-02 0.0000000000000000e+00  2.8123204350366895e-04 1.0587918011705966e-02 0.0000000000000000e+00  2.8110357100330160e-04 1.0608605358445593e-02 0.0000000000000000e+00  2.8106322696021371e-04 1.0629408308487163e-02 0.0000000000000000e+00  2.8107378506247619e-04 1.0650325949003161e-02 0.0000000000000000e+00  2.8109684341294023e-04 1.0671337620854138e-02 0.0000000000000000e+00  2.8110194011962328e-04 1.0692399644313927e-02 0.0000000000000000e+00  0.0000000000000000e+00 0.0000000000000000e+00 0.0000000000000000e+00  2.9597163586723015e-06 1.5626926832332182e-06 0.0000000000000000e+00  6.3919084859137596e-06 4.9636455363860457e-06 0.0000000000000000e+00  9.7130728947676892e-06 9.8180958178101138e-06 0.0000000000000000e+00  1.2925106089208552e-05 1.6281753428023341e-05 0.0000000000000000e+00  1.6046753859226554e-05 2.4478510070626600e-05 0.0000000000000000e+00  1.9107523310143464e-05 3.4505472058005379e-05 0.0000000000000000e+00  2.2062937278572700e-05 4.6505066518691193e-05 0.0000000000000000e+00  2.4905660966471767e-05 6.0452560877329413e-05 0.0000000000000000e+00  2.7638652095387984e-05 7.6360361135259156e-05 0.0000000000000000e+00  3.0227513997086145e-05 9.4049346666822575e-05 0.0000000000000000e+00  3.2667883814678789e-05 1.1334553910491409e-04 0.0000000000000000e+00  3.4977306737873810e-05 1.3399278855422193e-04 0.0000000000000000e+00  3.7143653639981950e-05 1.5558769667703011e-04 0.0000000000000000e+00  3.9168597899337362e-05 1.7768379770266305e-04 0.0000000000000000e+00  4.1034699892477226e-05 1.9981461496173996e-04 0.0000000000000000e+00  4.2748412800309944e-05 2.2158408762751574e-04 0.0000000000000000e+00  4.4312292002976329e-05 2.4280780948664411e-04 0.0000000000000000e+00  4.5699115428036281e-05 2.6341921536826069e-04 0.0000000000000000e+00  4.6927176888179993e-05 2.8340305348761575e-04 0.0000000000000000e+00  4.7998235504104706e-05 3.0279200636704103e-04 0.0000000000000000e+00  4.8932037718004899e-05 3.2156407021817913e-04 0.0000000000000000e+00  4.9759820413374751e-05 3.3971250132559377e-04 0.0000000000000000e+00  5.0510250974099748e-05 3.5730645134114881e-04 0.0000000000000000e+00  5.1206922263701888e-05 3.7442194298405559e-04 0.0000000000000000e+00  5.1891281649576811e-05 3.9110940536324156e-04 0.0000000000000000e+00  5.2629117125227628e-05 4.0744859965431875e-04 0.0000000000000000e+00  5.3485599231532992e-05 4.2361310591535292e-04 0.0000000000000000e+00  5.4527528851818019e-05 4.3982906347218024e-04 0.0000000000000000e+00  5.5777333762627546e-05 4.5644321739459468e-04 0.0000000000000000e+00  5.7103099898139211e-05 4.7373524983482267e-04 0.0000000000000000e+00  5.8581970086433607e-05 4.9146996769232159e-04 0.0000000000000000e+00  6.0165330912813851e-05 5.0910132110873214e-04 0.0000000000000000e+00  6.1800446049956138e-05 5.2639874865239623e-04 0.0000000000000000e+00  6.3469909686251252e-05 5.4333877968596074e-04 0.0000000000000000e+00  6.5161684943799088e-05 5.5991106912904175e-04 0.0000000000000000e+00  6.6860471861278397e-05 5.7609106390337634e-04 0.0000000000000000e+00  6.8544995961616537e-05 5.9188510050861001e-04 0.0000000000000000e+00  7.0222268271050359e-05 6.0734334806952534e-04 0.0000000000000000e+00  7.1895953627298102e-05 6.2249385433006807e-04 0.0000000000000000e+00  7.3567059084576758e-05 6.3734561809166389e-04 0.0000000000000000e+00  7.5237679060082590e-05 6.5190590057423404e-04 0.0000000000000000e+00  7.6908269560051028e-05 6.6618135039095883e-04 0.0000000000000000e+00  7.8579097408831321e-05 6.8017864043578766e-04 0.0000000000000000e+00  8.0250337327232864e-05 6.9390445632813410e-04 0.0000000000000000e+00  8.1922214880488937e-05 7.0736548559246755e-04 0.0000000000000000e+00  8.3595471984176164e-05 7.2056743161196229e-04 0.0000000000000000e+00  8.5269648090129021e-05 7.3351429350086662e-04 0.0000000000000000e+00  8.6943965036802813e-05 7.4621136032175940e-04 0.0000000000000000e+00  8.8618209007252719e-05 7.5866600956177625e-04 0.0000000000000000e+00  9.0292266756821502e-05 7.7088606759423352e-04 0.0000000000000000e+00  9.1966190151830202e-05 7.8287920805469500e-04 0.0000000000000000e+00  9.3640140276952209e-05 7.9465278574416349e-04 0.0000000000000000e+