<?xml version="1.0"?>
<VTKFile type="UnstructuredGrid"  version="0.1"  >
<UnstructuredGrid>
<Piece  NumberOfPoints="7161" NumberOfCells="13800">
<Points>
<DataArray  type="Float64"  NumberOfComponents="3"  format="ascii">0 0 0  0.01652173913043478 0 0  0.03304347826086956 0 0  0.04956521739130434 0 0  0.06608695652173913 0 0  0.08260869565217391 0 0  0.09913043478260869 0 0  0.1156521739130435 0 0  0.1321739130434783 0 0  0.148695652173913 0 0  0.1652173913043478 0 0  0.1817391304347826 0 0  0.1982608695652174 0 0  0.2147826086956522 0 0  0.2313043478260869 0 0  0.2478260869565218 0 0  0.2643478260869565 0 0  0.2808695652173913 0 0  0.2973913043478261 0 0  0.3139130434782609 0 0  0.3304347826086956 0 0  0.3469565217391304 0 0  0.3634782608695652 0 0  0.3799999999999999 0 0  0.3965217391304348 0 0  0.4130434782608696 0 0  0.4295652173913043 0 0  0.4460869565217391 0 0  0.4626086956521739 0 0  0.4791304347826086 0 0  0.4956521739130435 0 0  0.5121739130434783 0 0  0.528695652173913 0 0  0.5452173913043478 0 0  0.5617391304347825 0 0  0.5782608695652174 0 0  0.5947826086956521 0 0  0.6113043478260869 0 0  0.6278260869565218 0 0  0.6443478260869565 0 0  0.6608695652173913 0 0  0.677391304347826 0 0  0.6939130434782609 0 0  0.7104347826086956 0 0  0.7269565217391304 0 0  0.7434782608695653 0 0  0.7599999999999999 0 0  0.7765217391304348 0 0  0.7930434782608695 0 0  0.8095652173913043 0 0  0.8260869565217391 0 0  0.8426086956521739 0 0  0.8591304347826086 0 0  0.8756521739130434 0 0  0.8921739130434783 0 0  0.908695652173913 0 0  0.9252173913043478 0 0  0.9417391304347826 0 0  0.9582608695652173 0 0  0.9747826086956521 0 0  0.991304347826087 0 0  1.007826086956522 0 0  1.024347826086957 0 0  1.040869565217391 0 0  1.057391304347826 0 0  1.073913043478261 0 0  1.090434782608696 0 0  1.10695652173913 0 0  1.123478260869565 0 0  1.14 0 0  1.156521739130435 0 0  1.17304347826087 0 0  1.189565217391304 0 0  1.206086956521739 0 0  1.222608695652174 0 0  1.239130434782609 0 0  1.255652173913044 0 0  1.272173913043478 0 0  1.288695652173913 0 0  1.305217391304348 0 0  1.321739130434783 0 0  1.338260869565217 0 0  1.354782608695652 0 0  1.371304347826087 0 0  1.387826086956522 0 0  1.404347826086957 0 0  1.420869565217391 0 0  1.437391304347826 0 0  1.453913043478261 0 0  1.470434782608696 0 0  1.486956521739131 0 0  1.503478260869565 0 0  1.52 0 0  1.536521739130435 0 0  1.55304347826087 0 0  1.569565217391304 0 0  1.586086956521739 0 0  1.602608695652174 0 0  1.619130434782609 0 0  1.635652173913043 0 0  1.652173913043478 0 0  1.668695652173913 0 0  1.685217391304348 0 0  1.701739130434782 0 0  1.718260869565217 0 0  1.734782608695652 0 0  1.751304347826087 0 0  1.767826086956522 0 0  1.784347826086957 0 0  1.800869565217391 0 0  1.817391304347826 0 0  1.833913043478261 0 0  1.850434782608696 0 0  1.86695652173913 0 0  1.883478260869565 0 0  1.9 0 0  1.916521739130435 0 0  1.933043478260869 0 0  1.949565217391304 0 0  1.966086956521739 0 0  1.982608695652174 0 0  1.999130434782608 0 0  2.015652173913043 0 0  2.032173913043478 0 0  2.048695652173913 0 0  2.065217391304348 0 0  2.081739130434782 0 0  2.098260869565217 0 0  2.114782608695652 0 0  2.131304347826087 0 0  2.147826086956522 0 0  2.164347826086956 0 0  2.180869565217391 0 0  2.197391304347826 0 0  2.213913043478261 0 0  2.230434782608695 0 0  2.24695652173913 0 0  2.263478260869565 0 0  2.28 0 0  2.296521739130434 0 0  2.31304347826087 0 0  2.329565217391304 0 0  2.346086956521739 0 0  2.362608695652174 0 0  2.379130434782609 0 0  2.395652173913044 0 0  2.412173913043478 0 0  2.428695652173913 0 0  2.445217391304348 0 0  2.461739130434782 0 0  2.478260869565217 0 0  2.494782608695652 0 0  2.511304347826087 0 0  2.527826086956522 0 0  2.544347826086956 0 0  2.560869565217391 0 0  2.577391304347826 0 0  2.593913043478261 0 0  2.610434782608696 0 0  2.62695652173913 0 0  2.643478260869565 0 0  2.66 0 0  2.676521739130435 0 0  2.693043478260869 0 0  2.709565217391304 0 0  2.726086956521739 0 0  2.742608695652174 0 0  2.759130434782609 0 0  2.775652173913044 0 0  2.792173913043478 0 0  2.808695652173913 0 0  2.825217391304347 0 0  2.841739130434783 0 0  2.858260869565217 0 0  2.874782608695652 0 0  2.891304347826087 0 0  2.907826086956522 0 0  2.924347826086957 0 0  2.940869565217391 0 0  2.957391304347826 0 0  2.973913043478261 0 0  2.990434782608696 0 0  3.006956521739131 0 0  3.023478260869565 0 0  3.04 0 0  3.056521739130435 0 0  3.073043478260869 0 0  3.089565217391304 0 0  3.106086956521739 0 0  3.122608695652174 0 0  3.139130434782609 0 0  3.155652173913043 0 0  3.172173913043478 0 0  3.188695652173913 0 0  3.205217391304347 0 0  3.221739130434782 0 0  3.238260869565217 0 0  3.254782608695652 0 0  3.271304347826087 0 0  3.287826086956521 0 0  3.304347826086957 0 0  3.320869565217391 0 0  3.337391304347826 0 0  3.353913043478261 0 0  3.370434782608696 0 0  3.386956521739131 0 0  3.403478260869565 0 0  3.419999999999999 0 0  3.436521739130435 0 0  3.453043478260869 0 0  3.469565217391304 0 0  3.486086956521739 0 0  3.502608695652174 0 0  3.519130434782609 0 0  3.535652173913043 0 0  3.552173913043478 0 0  3.568695652173913 0 0  3.585217391304347 0 0  3.601739130434782 0 0  3.618260869565217 0 0  3.634782608695652 0 0  3.651304347826087 0 0  3.667826086956521 0 0  3.684347826086956 0 0  3.700869565217391 0 0  3.717391304347826 0 0  3.733913043478261 0 0  3.750434782608695 0 0  3.766956521739131 0 0  3.783478260869565 0 0  3.8 0 0  0 0.01666666666666667 0  0.01652173913043478 0.01666666666666667 0  0.03304347826086956 0.01666666666666667 0  0.04956521739130434 0.01666666666666667 0  0.06608695652173913 0.01666666666666667 0  0.08260869565217391 0.01666666666666667 0  0.09913043478260869 0.01666666666666667 0  0.1156521739130435 0.01666666666666667 0  0.1321739130434783 0.01666666666666667 0  0.148695652173913 0.01666666666666667 0  0.1652173913043478 0.01666666666666667 0  0.1817391304347826 0.01666666666666667 0  0.1982608695652174 0.01666666666666667 0  0.2147826086956522 0.01666666666666667 0  0.2313043478260869 0.01666666666666667 0  0.2478260869565218 0.01666666666666667 0  0.2643478260869565 0.01666666666666667 0  0.2808695652173913 0.01666666666666667 0  0.2973913043478261 0.01666666666666667 0  0.3139130434782609 0.01666666666666667 0  0.3304347826086956 0.01666666666666667 0  0.3469565217391304 0.01666666666666667 0  0.3634782608695652 0.01666666666666667 0  0.3799999999999999 0.01666666666666667 0  0.3965217391304348 0.01666666666666667 0  0.4130434782608696 0.01666666666666667 0  0.4295652173913043 0.01666666666666667 0  0.4460869565217391 0.01666666666666667 0  0.4626086956521739 0.01666666666666667 0  0.4791304347826086 0.01666666666666667 0  0.4956521739130435 0.01666666666666667 0  0.5121739130434783 0.01666666666666667 0  0.528695652173913 0.01666666666666667 0  0.5452173913043478 0.01666666666666667 0  0.5617391304347825 0.01666666666666667 0  0.5782608695652174 0.01666666666666667 0  0.5947826086956521 0.01666666666666667 0  0.6113043478260869 0.01666666666666667 0  0.6278260869565218 0.01666666666666667 0  0.6443478260869565 0.01666666666666667 0  0.6608695652173913 0.01666666666666667 0  0.677391304347826 0.01666666666666667 0  0.6939130434782609 0.01666666666666667 0  0.7104347826086956 0.01666666666666667 0  0.7269565217391304 0.01666666666666667 0  0.7434782608695653 0.01666666666666667 0  0.7599999999999999 0.01666666666666667 0  0.7765217391304348 0.01666666666666667 0  0.7930434782608695 0.01666666666666667 0  0.8095652173913043 0.01666666666666667 0  0.8260869565217391 0.01666666666666667 0  0.8426086956521739 0.01666666666666667 0  0.8591304347826086 0.01666666666666667 0  0.8756521739130434 0.01666666666666667 0  0.8921739130434783 0.01666666666666667 0  0.908695652173913 0.01666666666666667 0  0.9252173913043478 0.01666666666666667 0  0.9417391304347826 0.01666666666666667 0  0.9582608695652173 0.01666666666666667 0  0.9747826086956521 0.01666666666666667 0  0.991304347826087 0.01666666666666667 0  1.007826086956522 0.01666666666666667 0  1.024347826086957 0.01666666666666667 0  1.040869565217391 0.01666666666666667 0  1.057391304347826 0.01666666666666667 0  1.073913043478261 0.01666666666666667 0  1.090434782608696 0.01666666666666667 0  1.10695652173913 0.01666666666666667 0  1.123478260869565 0.01666666666666667 0  1.14 0.01666666666666667 0  1.156521739130435 0.01666666666666667 0  1.17304347826087 0.01666666666666667 0  1.189565217391304 0.01666666666666667 0  1.206086956521739 0.01666666666666667 0  1.222608695652174 0.01666666666666667 0  1.239130434782609 0.01666666666666667 0  1.255652173913044 0.01666666666666667 0  1.272173913043478 0.01666666666666667 0  1.288695652173913 0.01666666666666667 0  1.305217391304348 0.01666666666666667 0  1.321739130434783 0.01666666666666667 0  1.338260869565217 0.01666666666666667 0  1.354782608695652 0.01666666666666667 0  1.371304347826087 0.01666666666666667 0  1.387826086956522 0.01666666666666667 0  1.404347826086957 0.01666666666666667 0  1.420869565217391 0.01666666666666667 0  1.437391304347826 0.01666666666666667 0  1.453913043478261 0.01666666666666667 0  1.470434782608696 0.01666666666666667 0  1.486956521739131 0.01666666666666667 0  1.503478260869565 0.01666666666666667 0  1.52 0.01666666666666667 0  1.536521739130435 0.01666666666666667 0  1.55304347826087 0.01666666666666667 0  1.569565217391304 0.01666666666666667 0  1.586086956521739 0.01666666666666667 0  1.602608695652174 0.01666666666666667 0  1.619130434782609 0.01666666666666667 0  1.635652173913043 0.01666666666666667 0  1.652173913043478 0.01666666666666667 0  1.668695652173913 0.01666666666666667 0  1.685217391304348 0.01666666666666667 0  1.701739130434782 0.01666666666666667 0  1.718260869565217 0.01666666666666667 0  1.734782608695652 0.01666666666666667 0  1.751304347826087 0.01666666666666667 0  1.767826086956522 0.01666666666666667 0  1.784347826086957 0.01666666666666667 0  1.800869565217391 0.0166666666666666
[...]
<PointData  Vectors="Displacement"> 
<DataArray  type="Float64"  Name="Displacement"  NumberOfComponents="3" format="ascii">0.0000000000000000e+00 0.0000000000000000e+00 0.0000000000000000e+00  5.1448540765884909e-06 3.1486631235321296e-06 0.0000000000000000e+00  9.8291680320427056e-06 6.3491086508860877e-06 0.0000000000000000e+00  1.4418405180027352e-05 1.0763098588674767e-05 0.0000000000000000e+00  1.8960314644601929e-05 1.6589387398400058e-05 0.0000000000000000e+00  2.3465870913516224e-05 2.3899944586356201e-05 0.0000000000000000e+00  2.7924173518058031e-05 3.2772288444198665e-05 0.0000000000000000e+00  3.2301610277679873e-05 4.3260965812941080e-05 0.0000000000000000e+00  3.6547049475354749e-05 5.5408117950204490e-05 0.0000000000000000e+00  4.0584308013746117e-05 6.9147538612253574e-05 0.0000000000000000e+00  4.4335854967768567e-05 8.4347359150995033e-05 0.0000000000000000e+00  4.7748125126323715e-05 1.0082569944968401e-04 0.0000000000000000e+00  5.0747268190227520e-05 1.1831334854722437e-04 0.0000000000000000e+00  5.3291523100723201e-05 1.3646856069901876e-04 0.0000000000000000e+00  5.5378637798740150e-05 1.5491385099333850e-04 0.0000000000000000e+00  5.7052536299641112e-05 1.7329591237857255e-04 0.0000000000000000e+00  5.8393482707588637e-05 1.9138417391629855e-04 0.0000000000000000e+00  5.9463769844700225e-05 2.0908498640855261e-04 0.0000000000000000e+00  6.0313173192205969e-05 2.2634030199973482e-04 0.0000000000000000e+00  6.0961223022694721e-05 2.4313490357307025e-04 0.0000000000000000e+00  6.1437948193923688e-05 2.5939019134177535e-04 0.0000000000000000e+00  6.1803304527857173e-05 2.7505862291379683e-04 0.0000000000000000e+00  6.2117951289984355e-05 2.9017182026195524e-04 0.0000000000000000e+00  6.2425630077121174e-05 3.0480270555336195e-04 0.0000000000000000e+00  6.2772258674551507e-05 3.1900562907363609e-04 0.0000000000000000e+00  6.3219796573520801e-05 3.3284597341880277e-04 0.0000000000000000e+00  6.3845160165065031e-05 3.4642097963331295e-04 0.0000000000000000e+00  6.4724665336322954e-05 3.5988256393952616e-04 0.0000000000000000e+00  6.5900767239050642e-05 3.7342865924851713e-04 0.0000000000000000e+00  6.7334170081143521e-05 3.8729151918377941e-04 0.0000000000000000e+00  6.8896775991591092e-05 4.0166271944651517e-04 0.0000000000000000e+00  7.0431513703450482e-05 4.1648295595737882e-04 0.0000000000000000e+00  7.1869905185258440e-05 4.3144351240921992e-04 0.0000000000000000e+00  7.3221922338599101e-05 4.4629593278564146e-04 0.0000000000000000e+00  7.4502567980636318e-05 4.6084794182143254e-04 0.0000000000000000e+00  7.5745329061115569e-05 4.7498616596524610e-04 0.0000000000000000e+00  7.6969248718809248e-05 4.8866777214673124e-04 0.0000000000000000e+00  7.8203071946854531e-05 5.0188428100576203e-04 0.0000000000000000e+00  7.9481266527523854e-05 5.1473852593248868e-04 0.0000000000000000e+00  8.0802789713124609e-05 5.2738338519706367e-04 0.0000000000000000e+00  8.2156120832836728e-05 5.3990200107962465e-04 0.0000000000000000e+00  8.3528110899438427e-05 5.5232251119252413e-04 0.0000000000000000e+00  8.4909570998750354e-05 5.6465519664559906e-04 0.0000000000000000e+00  8.6299525252514763e-05 5.7690512581672201e-04 0.0000000000000000e+00  8.7693572557281320e-05 5.8908133244882680e-04 0.0000000000000000e+00  8.9073046826011553e-05 6.0115501644871384e-04 0.0000000000000000e+00  9.0427398494666620e-05 6.1303778590186743e-04 0.0000000000000000e+00  9.1763828994566998e-05 6.2464906973959324e-04 0.0000000000000000e+00  9.3095718138139520e-05 6.3596332803991448e-04 0.0000000000000000e+00  9.4435509647122843e-05 6.4699461245806909e-04 0.0000000000000000e+00  9.5792239747350831e-05 6.5777943870001896e-04 0.0000000000000000e+00  9.7172219548456655e-05 6.6837248683591119e-04 0.0000000000000000e+00  9.8576236823558905e-05 6.7883569649049866e-04 0.0000000000000000e+00  9.9999648576836405e-05 6.8921750013993077e-04 0.0000000000000000e+00  1.0143789983948537e-04 6.9954643556146266e-04 0.0000000000000000e+00  1.0288917030885174e-04 7.0984485260159713e-04 0.0000000000000000e+00  1.0433324023695284e-04 7.2011124160839307e-04 0.0000000000000000e+00  1.0574661514690785e-04 7.3025562385653790e-04 0.0000000000000000e+00  1.0713389821989339e-04 7.4016155595708281e-04 0.0000000000000000e+00  1.0851156008138991e-04 7.4977720271044660e-04 0.0000000000000000e+00  1.0990531267076611e-04 7.5912962651029773e-04 0.0000000000000000e+00  1.1133010974597638e-04 7.6830770848993835e-04 0.0000000000000000e+00  1.1278350266842097e-04 7.7740007209291088e-04 0.0000000000000000e+00  1.1425705786400441e-04 7.8645381033906722e-04 0.0000000000000000e+00  1.1574352051393070e-04 7.9548659100001930e-04 0.0000000000000000e+00  1.1723930892868935e-04 8.0450915245674354e-04 0.0000000000000000e+00  1.1874253376413412e-04 8.1353094572671647e-04 0.0000000000000000e+00  1.2025117909786443e-04 8.2255753522595450e-04 0.0000000000000000e+00  1.2176160086642595e-04 8.3158582385836708e-04 0.0000000000000000e+00  1.2326924196595255e-04 8.4059960768001344e-04 0.0000000000000000e+00  1.2477109859505809e-04 8.4957228467490186e-04 0.0000000000000000e+00  1.2626674433874197e-04 8.5847649220002634e-04 0.0000000000000000e+00  1.2775647877900866e-04 8.6728978445091203e-04 0.0000000000000000e+00  1.2923744335484143e-04 8.7598772174679650e-04 0.0000000000000000e+00  1.3070557703543926e-04 8.8453123413687496e-04 0.0000000000000000e+00  1.3216237796499563e-04 8.9287519600672008e-04 0.0000000000000000e+00  1.3361408140498841e-04 9.0099101005002686e-04 0.0000000000000000e+00  1.3506414358893551e-04 9.0886742469149795e-04 0.0000000000000000e+00  1.3651982244404531e-04 9.1649804677102690e-04 0.0000000000000000e+00  1.3800451454295268e-04 9.2392519745272878e-04 0.0000000000000000e+00  1.3952938380615767e-04 9.3126980053839488e-04 0.0000000000000000e+00  1.4108634018578268e-04 9.3863487982996576e-04 0.0000000000000000e+00  1.4266411722705481e-04 9.4606653153483174e-04 0.0000000000000000e+00  1.4425950617167791e-04 9.5358437459462533e-04 0.0000000000000000e+00  1.4586177741499038e-04 9.6121326651835506e-04 0.0000000000000000e+00  1.4743769868416387e-04 9.6890099283962906e-04 0.0000000000000000e+00  1.4898171531415948e-04 9.7651846267346150e-04 0.0000000000000000e+00  1.5050532803841072e-04 9.8397765687874652e-04 0.0000000000000000e+00  1.5202417603703177e-04 9.9125818381117468e-04 0.0000000000000000e+00  1.5352812998535489e-04 9.9834536026164656e-04 0.0000000000000000e+00  1.5505808940192989e-04 1.0052115009721902e-03 0.0000000000000000e+00  1.5665533588875074e-04 1.0120613705766677e-03 0.0000000000000000e+00  1.5831078909242413e-04 1.0190602518976904e-03 0.0000000000000000e+00  1.6003332067808160e-04 1.0263714216910632e-03 0.0000000000000000e+00  1.6179885164275092e-04 1.0340359550578464e-03 0.0000000000000000e+00  1.6367756326165315e-04 1.0419536083438234e-03 0.0000000000000000e+00  1.6583132683350930e-04 1.0501580243362626e-03 0.0000000000000000e+00  1.6842287463322109e-04 1.0588559694356397e-03 0.0000000000000000e+00  1.7159703044820242e-04 1.0683799153644001e-03 0.0000000000000000e+00  1.7543295477244163e-04 1.0792104344869732e-03 0.0000000000000000e+00  1.7991864939688514e-04 1.0919447587484916e-03 0.0000000000000000e+00  1.8497455877758759e-04 1.1071524865755378e-03 0.0000000000000000e+00  1.9057660754394094e-04 1.1253170890132772e-03 0.0000000000000000e+00  1.9668798309596138e-04 1.1470770740760359e-03 0.0000000000000000e+00  2.0317402301685356e-04 1.1730906466881255e-03 0.0000000000000000e+00  2.0982237068197456e-04 1.2037745300213661e-03 0.0000000000000000e+00  2.1646672285839780e-04 1.2391322813394832e-03 0.0000000000000000e+00  2.2301474702849413e-04 1.2790914679723568e-03 0.0000000000000000e+00  2.2939172817587554e-04 1.3235545626031106e-03 0.0000000000000000e+00  2.3546127472000365e-04 1.3723615216120883e-03 0.0000000000000000e+00  2.4108043084081633e-04 1.4250446305492253e-03 0.0000000000000000e+00  2.4618814810376894e-04 1.4810023703787927e-03 0.0000000000000000e+00  2.5080697885095771e-04 1.5396005590592081e-03 0.0000000000000000e+00  2.5503663048148434e-04 1.6003307573349609e-03 0.0000000000000000e+00  2.5902337813788422e-04 1.6628773878572677e-03 0.0000000000000000e+00  2.6293070676306998e-04 1.7271397105100132e-03 0.0000000000000000e+00  2.6692358157601940e-04 1.7931609282615581e-03 0.0000000000000000e+00  2.7122192869665667e-04 1.8612617063994983e-03 0.0000000000000000e+00  2.7583346276558964e-04 1.9320091585498665e-03 0.0000000000000000e+00  2.8078842016480878e-04 2.0058698698946385e-03 0.0000000000000000e+00  2.8603717665533364e-04 2.0837780492514147e-03 0.0000000000000000e+00  2.9144062071682805e-04 2.1664411111614501e-03 0.0000000000000000e+00  2.9685417723922621e-04 2.2542384846806693e-03 0.0000000000000000e+00  3.0208475224330290e-04 2.3469324834310616e-03 0.0000000000000000e+00  3.0711842136770001e-04 2.4442681010802061e-03 0.0000000000000000e+00  3.1193008098729622e-04 2.5459887491913365e-03 0.0000000000000000e+00  3.1652975164635894e-04 2.6518380278218040e-03 0.0000000000000000e+00  3.2087471491654954e-04 2.7615758149791042e-03 0.0000000000000000e+00  3.2496150403798802e-04 2.8749459646001023e-03 0.0000000000000000e+00  3.2880930156027046e-04 2.9915841772382603e-03 0.0000000000000000e+00  3.3232518515130408e-04 3.1109198811076757e-03 0.0000000000000000e+00  3.3551979526170962e-04 3.2324349965689924e-03 0.0000000000000000e+00  3.3849714291329231e-04 3.3558983156067902e-03 0.0000000000000000e+00  3.4121604488491656e-04 3.4810578408292687e-03 0.0000000000000000e+00  3.4369532658799529e-04 3.6075594080403656e-03 0.0000000000000000e+00  3.4600889241697498e-04 3.7352870058100364e-03 0.0000000000000000e+00  3.4815009827556562e-04 3.8641134778738921e-03 0.0000000000000000e+00  3.5014941198591306e-04 3.9939190014213546e-03 0.0000000000000000e+00  3.5200867878641185e-04 4.1246184872289924e-03 0.0000000000000000e+00  3.5371946896524419e-04 4.2560847180678034e-03 0.0000000000000000e+00  3.5527436560531218e-04 4.3882025974700352e-03 0.0000000000000000e+00  3.5664836448373117e-04 4.5207814068404656e-03 0.0000000000000000e+00  3.5783889821575999e-04 4.6536243239190013e-03 0.0000000000000000e+00  3.5884503305692503e-04 4.7865493790354187e-03 0.0000000000000000e+00  3.5966909698011812e-04 4.9193842176315549e-03 0.0000000000000000e+00  3.6031161425957180e-04 5.0519573297523046e-03 0.0000000000000000e+00  3.6077290044977549e-04 5.1840975752967949e-03 0.0000000000000000e+00  3.6105310321277357e-04 5.3156339297674802e-03 0.0000000000000000e+00  3.6115229742888128e-04 5.4463954823829727e-03 0.0000000000000000e+00  3.6107049655962595e-04 5.5762114846854179e-03 0.0000000000000000e+00  3.6080762118071834e-04 5.7049114379196459e-03 0.0000000000000000e+00  3.6036304128666635e-04 5.8323257173052761e-03 0.0000000000000000e+00  3.5973707540982102e-04 5.9582861144014459e-03 0.0000000000000000e+00  3.5892579823390975e-04 6.0826356506079073e-03 0.0000000000000000e+00  3.5792008711042468e-04 6.2052347104041006e-03 0.0000000000000000e+00  3.5664669182126896e-04 6.3258639837301157e-03 0.0000000000000000e+00  3.5502173486573675e-04 6.4439440388436211e-03 0.0000000000000000e+00  3.5302862399791581e-04 6.5586256960901111e-03 0.0000000000000000e+00  3.5084184615072702e-04 6.6694310588108277e-03 0.0000000000000000e+00  3.4864884691713084e-04 6.7767097976925480e-03 0.0000000000000000e+00  3.4644172006204174e-04 6.8808691319191843e-03 0.0000000000000000e+00  3.4413995284040774e-04 6.9819920951764312e-03 0.0000000000000000e+00  3.4169073302769048e-04 7.0799429588675319e-03 0.0000000000000000e+00  3.3907497216563968e-04 7.1745585170800846e-03 0.0000000000000000e+00  3.3628378679637810e-04 7.2656702576055368e-03 0.0000000000000000e+00  3.3331435256534663e-04 7.3531085029782169e-03 0.0000000000000000e+00  3.3016563561562295e-04 7.4367031884961460e-03 0.0000000000000000e+00  3.2683736131738325e-04 7.5162837715555004e-03 0.0000000000000000e+00  3.2333084620054354e-04 7.5916788569732217e-03 0.0000000000000000e+00  3.1964206367062555e-04 7.6627129957153933e-03 0.0000000000000000e+00  3.1578223582380077e-04 7.7291879874205474e-03 0.0000000000000000e+00  3.1175897653748329e-04 7.7908923658956825e-03 0.0000000000000000e+00  3.0767836813207650e-04 7.8477327896320573e-03 0.0000000000000000e+00  3.0367915160416293e-04 7.9001005529266664e-03 0.0000000000000000e+00  2.9980229735899328e-04 7.9485721059344046e-03 0.0000000000000000e+00  2.9594186969648245e-04 7.9934970121809928e-03 0.0000000000000000e+00  2.9202258802399974e-04 8.0347931819294595e-03 0.0000000000000000e+00  2.8805810551427749e-04 8.0723651053660073e-03 0.0000000000000000e+00  2.8414798276193227e-04 8.1062029648239827e-03 0.0000000000000000e+00  2.8041963634073354e-04 8.1365430826915303e-03 0.0000000000000000e+00  2.7694518266252206e-04 8.1637483054960280e-03 0.0000000000000000e+00  2.7375433025384935e-04 8.1882929228576425e-03 0.0000000000000000e+00  2.7086334545538580e-04 8.2104998914725984e-03 0.0000000000000000e+00  2.6831493222449320e-04 8.2307413751521452e-03 0.0000000000000000e+00  2.6618601934298806e-04 8.2493492405077869e-03 0.0000000000000000e+00  2.6453692221647523e-04 8.2666941901460376e-03 0.0000000000000000e+00  2.6337949293011941e-04 8.2831919605595213e-03 0.0000000000000000e+00  2.6266138553837035e-04 8.2992017513086325e-03 0.0000000000000000e+00  2.6229064996431857e-04 8.3149833760249470e-03 0.0000000000000000e+00  2.6213879259823263e-04 8.3306811226590578e-03 0.0000000000000000e+00  2.6211467185273906e-04 8.3463734683275701e-03 0.0000000000000000e+00  2.6211148320221965e-04 8.3620452069985869e-03 0.0000000000000000e+00  2.6051742308333279e-04 8.3761447294204237e-03 0.0000000000000000e+00  2.6311429293255950e-04 8.3961825038781582e-03 0.0000000000000000e+00  2.7074120253740315e-04 8.4163253835255764e-03 0.0000000000000000e+00  2.7379620579721394e-04 8.4350199204464970e-03 0.0000000000000000e+00  2.7690113541794088e-04 8.4549614001751382e-03 0.0000000000000000e+00  2.7964882605508590e-04 8.4751252281181182e-03 0.0000000000000000e+00  2.8193305783027724e-04 8.4957568529081436e-03 0.0000000000000000e+00  2.8368734860269415e-04 8.5167357821816173e-03 0.0000000000000000e+00  2.8491346567189615e-04 8.5379288545978042e-03 0.0000000000000000e+00  2.8570795813774997e-04 8.5591465797191495e-03 0.0000000000000000e+00  2.8612527365034840e-04 8.5804570631849708e-03 0.0000000000000000e+00  2.8618359212384732e-04 8.6018338705027078e-03 0.0000000000000000e+00  2.8592312770166212e-04 8.6231752224583159e-03 0.0000000000000000e+00  2.8539490629929761e-04 8.6444224778535386e-03 0.0000000000000000e+00  2.8464526223141088e-04 8.6655375692918143e-03 0.0000000000000000e+00  2.8371615847956041e-04 8.6864860517993775e-03 0.0000000000000000e+00  2.8264937083253617e-04 8.7072356911223683e-03 0.0000000000000000e+00  2.8148895415267239e-04 8.7277603181652348e-03 0.0000000000000000e+00  2.8028065815569758e-04 8.7480450978185513e-03 0.0000000000000000e+00  2.7906694583203239e-04 8.7680931136532702e-03 0.0000000000000000e+00  2.7788256834760766e-04 8.7879212320746379e-03 0.0000000000000000e+00  2.7675344315929596e-04 8.8075530649129197e-03 0.0000000000000000e+00  2.7569777504341713e-04 8.8270141506032306e-03 0.0000000000000000e+00  2.7472781774546770e-04 8.8463296649599725e-03 0.0000000000000000e+00  2.7385141365626379e-04 8.8655236527410784e-03 0.0000000000000000e+00  2.7307307571519608e-04 8.8846189184892278e-03 0.0000000000000000e+00  2.7239466465246655e-04 8.9036371018694025e-03 0.0000000000000000e+00  2.7181579127058889e-04 8.9225987313637737e-03 0.0000000000000000e+00  2.7133406072631945e-04 8.9415231930205907e-03 0.0000000000000000e+00  2.7094523554277395e-04 8.9604286177481490e-03 0.0000000000000000e+00  2.7064335447868885e-04 8.9793317075146269e-03 0.0000000000000000e+00  2.7042081826615189e-04 8.9982475071160358e-03 0.0000000000000000e+00  2.7026844243591212e-04 9.0171891033637135e-03 0.0000000000000000e+00  2.7017548074486400e-04 9.0361672034986410e-03 0.0000000000000000e+00  2.7012964374019594e-04 9.0551895058402047e-03 0.0000000000000000e+00  2.7011718807464278e-04 9.0742597275633250e-03 0.0000000000000000e+00  2.7012326607818421e-04 9.0933761119642055e-03 0.0000000000000000e+00  2.7013301080429809e-04 9.1125293450490842e-03 0.0000000000000000e+00  2.7013509690229642e-04 9.1317015621663767e-03 0.0000000000000000e+00  0.0000000000000000e+00 0.0000000000000000e+00 0.0000000000000000e+00  2.8340539015764073e-06 1.5181675067398886e-06 0.0000000000000000e+00  6.1232776025934518e-06 4.6755540401253481e-06 0.0000000000000000e+00  9.3023864429066698e-06 9.1142518634169254e-06 0.0000000000000000e+00  1.2372015470883717e-05 1.4969043740975970e-05 0.0000000000000000e+00  1.5350277845634951e-05 2.2300750278176270e-05 0.0000000000000000e+00  1.8246472295880676e-05 3.1192843193896346e-05 0.0000000000000000e+00  2.1065593143282143e-05 4.1707456513122564e-05 0.0000000000000000e+00  2.3786632661498560e-05 5.3907118106619859e-05 0.0000000000000000e+00  2.6379217683543381e-05 6.7705905128693909e-05 0.0000000000000000e+00  2.8865103019508948e-05 8.2987072966432562e-05 0.0000000000000000e+00  3.1224219872329834e-05 9.9574163519275491e-05 0.0000000000000000e+00  3.3422624058556661e-05 1.1718537479878639e-04 0.0000000000000000e+00  3.5483380477912664e-05 1.3549094755203677e-04 0.0000000000000000e+00  3.7377192098555980e-05 1.5408436100044842e-04 0.0000000000000000e+00  3.9118640089704697e-05 1.7259707002248258e-04 0.0000000000000000e+00  4.0709297475205750e-05 1.9079426005229715e-04 0.0000000000000000e+00  4.2125858497002573e-05 2.0858272536923757e-04 0.0000000000000000e+00  4.3395947197361419e-05 2.2591578467870833e-04 0.0000000000000000e+00  4.4508848284061492e-05 2.4279147020729382e-04 0.0000000000000000e+00  4.5481097880271942e-05 2.5911650531570214e-04 0.0000000000000000e+00  4.6337961235366396e-05 2.7482719377761120e-04 0.0000000000000000e+00  4.7111172440051628e-05 2.8996346047911118e-04 0.0000000000000000e+00  4.7818482127015606e-05 3.0460756762585569e-04 0.0000000000000000e+00  4.8486854552269824e-05 3.1880628132911271e-04 0.0000000000000000e+00  4.9157483748481828e-05 3.3261563826183160e-04 0.0000000000000000e+00  4.9885572206034814e-05 3.4612498297997043e-04 0.0000000000000000e+00  5.0729209720518710e-05 3.5948603158238325e-04 0.0000000000000000e+00  5.1738915952141979e-05 3.7290508241907453e-04 0.0000000000000000e+00  5.2933016395549919e-05 3.8666290156427513e-04 0.0000000000000000e+00  5.4233249267719374e-05 4.0100469866176397e-04 0.0000000000000000e+00  5.5547937099530253e-05 4.1582056663637352e-04 0.0000000000000000e+00  5.6981724082970614e-05 4.3079611332777934e-04 0.0000000000000000e+00  5.8500342021084000e-05 4.4565618351423208e-04 0.0000000000000000e+00  6.0096292368906410e-05 4.6022144045771736e-04 0.0000000000000000e+00  6.1727187379641317e-05 4.7436699946514475e-04 0.0000000000000000e+00  6.3368743455836262e-05 4.8806169232234266e-04 0.0000000000000000e+00  6.4995548969071790e-05 5.0129666881173498e-04 0.0000000000000000e+00  6.6545020215720910e-05 5.1413912112267682e-04 0.0000000000000000e+00  6.8056969863343310e-05 5.2677428153891819e-04 0.0000000000000000e+00  6.9548705948221638e-05 5.3928910985430467e-04 0.0000000000000000e+00  7.1027543825531370e-05 5.5170526364315970e-04 0.0000000000000000e+00  7.2506664426842335e-05 5.6403466440158913e-04 0.0000000000000000e+00  7.3990546613457976e-05 5.7627758595914344e-04 0.0000000000000000e+00  7.5486452122784038e-05 5.8843951049622652e-04 0.0000000000000000e+00  7.7024686117555579e-05 6.0050998590296793e-04 0.0000000000000000e+00  7.8605537776206091e-05 6.1240052724766396e-04 0.0000000000000000e+00  8.0204538555551493e-05 6.2401737584324133e-04 0.0000000000000000e+00  8.1807222367442193e-05 6.3533575690342568e-04 0.0000000000000000e+00  8.3399320603351124e-05 6.4637044406882442e-04 0.0000000000000000e+00  8.4970196757229373e-05 6.5715735771013626e-04 0.0000000000000000e+00  8.6513120264692902e-05 6.6774886841062349e-04 0.0000000000000000e+00  8.8031185453995813e-05 6.7820768835459219e-04 0.0000000000000000e+