<?xml version="1.0"?>
<VTKFile type="UnstructuredGrid"  version="0.1"  >
<UnstructuredGrid>
<Piece  NumberOfPoints="7161" NumberOfCells="13800">
<Points>
<DataArray  type="Float64"  NumberOfComponents="3"  format="ascii">0 0 0  0.01652173913043478 0 0  0.03304347826086956 0 0  0.04956521739130434 0 0  0.06608695652173913 0 0  0.08260869565217391 0 0  0.09913043478260869 0 0  0.1156521739130435 0 0  0.1321739130434783 0 0  0.148695652173913 0 0  0.1652173913043478 0 0  0.1817391304347826 0 0  0.1982608695652174 0 0  0.2147826086956522 0 0  0.2313043478260869 0 0  0.2478260869565218 0 0  0.2643478260869565 0 0  0.2808695652173913 0 0  0.2973913043478261 0 0  0.3139130434782609 0 0  0.3304347826086956 0 0  0.3469565217391304 0 0  0.3634782608695652 0 0  0.3799999999999999 0 0  0.3965217391304348 0 0  0.4130434782608696 0 0  0.4295652173913043 0 0  0.4460869565217391 0 0  0.4626086956521739 0 0  0.4791304347826086 0 0  0.4956521739130435 0 0  0.5121739130434783 0 0  0.528695652173913 0 0  0.5452173913043478 0 0  0.5617391304347825 0 0  0.5782608695652174 0 0  0.5947826086956521 0 0  0.6113043478260869 0 0  0.6278260869565218 0 0  0.6443478260869565 0 0  0.6608695652173913 0 0  0.677391304347826 0 0  0.6939130434782609 0 0  0.7104347826086956 0 0  0.7269565217391304 0 0  0.7434782608695653 0 0  0.7599999999999999 0 0  0.7765217391304348 0 0  0.7930434782608695 0 0  0.8095652173913043 0 0  0.8260869565217391 0 0  0.8426086956521739 0 0  0.8591304347826086 0 0  0.8756521739130434 0 0  0.8921739130434783 0 0  0.908695652173913 0 0  0.9252173913043478 0 0  0.9417391304347826 0 0  0.9582608695652173 0 0  0.9747826086956521 0 0  0.991304347826087 0 0  1.007826086956522 0 0  1.024347826086957 0 0  1.040869565217391 0 0  1.057391304347826 0 0  1.073913043478261 0 0  1.090434782608696 0 0  1.10695652173913 0 0  1.123478260869565 0 0  1.14 0 0  1.156521739130435 0 0  1.17304347826087 0 0  1.189565217391304 0 0  1.206086956521739 0 0  1.222608695652174 0 0  1.239130434782609 0 0  1.255652173913044 0 0  1.272173913043478 0 0  1.288695652173913 0 0  1.305217391304348 0 0  1.321739130434783 0 0  1.338260869565217 0 0  1.354782608695652 0 0  1.371304347826087 0 0  1.387826086956522 0 0  1.404347826086957 0 0  1.420869565217391 0 0  1.437391304347826 0 0  1.453913043478261 0 0  1.470434782608696 0 0  1.486956521739131 0 0  1.503478260869565 0 0  1.52 0 0  1.536521739130435 0 0  1.55304347826087 0 0  1.569565217391304 0 0  1.586086956521739 0 0  1.602608695652174 0 0  1.619130434782609 0 0  1.635652173913043 0 0  1.652173913043478 0 0  1.668695652173913 0 0  1.685217391304348 0 0  1.701739130434782 0 0  1.718260869565217 0 0  1.734782608695652 0 0  1.751304347826087 0 0  1.767826086956522 0 0  1.784347826086957 0 0  1.800869565217391 0 0  1.817391304347826 0 0  1.833913043478261 0 0  1.850434782608696 0 0  1.86695652173913 0 0  1.883478260869565 0 0  1.9 0 0  1.916521739130435 0 0  1.933043478260869 0 0  1.949565217391304 0 0  1.966086956521739 0 0  1.982608695652174 0 0  1.999130434782608 0 0  2.015652173913043 0 0  2.032173913043478 0 0  2.048695652173913 0 0  2.065217391304348 0 0  2.081739130434782 0 0  2.098260869565217 0 0  2.114782608695652 0 0  2.131304347826087 0 0  2.147826086956522 0 0  2.164347826086956 0 0  2.180869565217391 0 0  2.197391304347826 0 0  2.213913043478261 0 0  2.230434782608695 0 0  2.24695652173913 0 0  2.263478260869565 0 0  2.28 0 0  2.296521739130434 0 0  2.31304347826087 0 0  2.329565217391304 0 0  2.346086956521739 0 0  2.362608695652174 0 0  2.379130434782609 0 0  2.395652173913044 0 0  2.412173913043478 0 0  2.428695652173913 0 0  2.445217391304348 0 0  2.461739130434782 0 0  2.478260869565217 0 0  2.494782608695652 0 0  2.511304347826087 0 0  2.527826086956522 0 0  2.544347826086956 0 0  2.560869565217391 0 0  2.577391304347826 0 0  2.593913043478261 0 0  2.610434782608696 0 0  2.62695652173913 0 0  2.643478260869565 0 0  2.66 0 0  2.676521739130435 0 0  2.693043478260869 0 0  2.709565217391304 0 0  2.726086956521739 0 0  2.742608695652174 0 0  2.759130434782609 0 0  2.775652173913044 0 0  2.792173913043478 0 0  2.808695652173913 0 0  2.825217391304347 0 0  2.841739130434783 0 0  2.858260869565217 0 0  2.874782608695652 0 0  2.891304347826087 0 0  2.907826086956522 0 0  2.924347826086957 0 0  2.940869565217391 0 0  2.957391304347826 0 0  2.973913043478261 0 0  2.990434782608696 0 0  3.006956521739131 0 0  3.023478260869565 0 0  3.04 0 0  3.056521739130435 0 0  3.073043478260869 0 0  3.089565217391304 0 0  3.106086956521739 0 0  3.122608695652174 0 0  3.139130434782609 0 0  3.155652173913043 0 0  3.172173913043478 0 0  3.188695652173913 0 0  3.205217391304347 0 0  3.221739130434782 0 0  3.238260869565217 0 0  3.254782608695652 0 0  3.271304347826087 0 0  3.287826086956521 0 0  3.304347826086957 0 0  3.320869565217391 0 0  3.337391304347826 0 0  3.353913043478261 0 0  3.370434782608696 0 0  3.386956521739131 0 0  3.403478260869565 0 0  3.419999999999999 0 0  3.436521739130435 0 0  3.453043478260869 0 0  3.469565217391304 0 0  3.486086956521739 0 0  3.502608695652174 0 0  3.519130434782609 0 0  3.535652173913043 0 0  3.552173913043478 0 0  3.568695652173913 0 0  3.585217391304347 0 0  3.601739130434782 0 0  3.618260869565217 0 0  3.634782608695652 0 0  3.651304347826087 0 0  3.667826086956521 0 0  3.684347826086956 0 0  3.700869565217391 0 0  3.717391304347826 0 0  3.733913043478261 0 0  3.750434782608695 0 0  3.766956521739131 0 0  3.783478260869565 0 0  3.8 0 0  0 0.01666666666666667 0  0.01652173913043478 0.01666666666666667 0  0.03304347826086956 0.01666666666666667 0  0.04956521739130434 0.01666666666666667 0  0.06608695652173913 0.01666666666666667 0  0.08260869565217391 0.01666666666666667 0  0.09913043478260869 0.01666666666666667 0  0.1156521739130435 0.01666666666666667 0  0.1321739130434783 0.01666666666666667 0  0.148695652173913 0.01666666666666667 0  0.1652173913043478 0.01666666666666667 0  0.1817391304347826 0.01666666666666667 0  0.1982608695652174 0.01666666666666667 0  0.2147826086956522 0.01666666666666667 0  0.2313043478260869 0.01666666666666667 0  0.2478260869565218 0.01666666666666667 0  0.2643478260869565 0.01666666666666667 0  0.2808695652173913 0.01666666666666667 0  0.2973913043478261 0.01666666666666667 0  0.3139130434782609 0.01666666666666667 0  0.3304347826086956 0.01666666666666667 0  0.3469565217391304 0.01666666666666667 0  0.3634782608695652 0.01666666666666667 0  0.3799999999999999 0.01666666666666667 0  0.3965217391304348 0.01666666666666667 0  0.4130434782608696 0.01666666666666667 0  0.4295652173913043 0.01666666666666667 0  0.4460869565217391 0.01666666666666667 0  0.4626086956521739 0.01666666666666667 0  0.4791304347826086 0.01666666666666667 0  0.4956521739130435 0.01666666666666667 0  0.5121739130434783 0.01666666666666667 0  0.528695652173913 0.01666666666666667 0  0.5452173913043478 0.01666666666666667 0  0.5617391304347825 0.01666666666666667 0  0.5782608695652174 0.01666666666666667 0  0.5947826086956521 0.01666666666666667 0  0.6113043478260869 0.01666666666666667 0  0.6278260869565218 0.01666666666666667 0  0.6443478260869565 0.01666666666666667 0  0.6608695652173913 0.01666666666666667 0  0.677391304347826 0.01666666666666667 0  0.6939130434782609 0.01666666666666667 0  0.7104347826086956 0.01666666666666667 0  0.7269565217391304 0.01666666666666667 0  0.7434782608695653 0.01666666666666667 0  0.7599999999999999 0.01666666666666667 0  0.7765217391304348 0.01666666666666667 0  0.7930434782608695 0.01666666666666667 0  0.8095652173913043 0.01666666666666667 0  0.8260869565217391 0.01666666666666667 0  0.8426086956521739 0.01666666666666667 0  0.8591304347826086 0.01666666666666667 0  0.8756521739130434 0.01666666666666667 0  0.8921739130434783 0.01666666666666667 0  0.908695652173913 0.01666666666666667 0  0.9252173913043478 0.01666666666666667 0  0.9417391304347826 0.01666666666666667 0  0.9582608695652173 0.01666666666666667 0  0.9747826086956521 0.01666666666666667 0  0.991304347826087 0.01666666666666667 0  1.007826086956522 0.01666666666666667 0  1.024347826086957 0.01666666666666667 0  1.040869565217391 0.01666666666666667 0  1.057391304347826 0.01666666666666667 0  1.073913043478261 0.01666666666666667 0  1.090434782608696 0.01666666666666667 0  1.10695652173913 0.01666666666666667 0  1.123478260869565 0.01666666666666667 0  1.14 0.01666666666666667 0  1.156521739130435 0.01666666666666667 0  1.17304347826087 0.01666666666666667 0  1.189565217391304 0.01666666666666667 0  1.206086956521739 0.01666666666666667 0  1.222608695652174 0.01666666666666667 0  1.239130434782609 0.01666666666666667 0  1.255652173913044 0.01666666666666667 0  1.272173913043478 0.01666666666666667 0  1.288695652173913 0.01666666666666667 0  1.305217391304348 0.01666666666666667 0  1.321739130434783 0.01666666666666667 0  1.338260869565217 0.01666666666666667 0  1.354782608695652 0.01666666666666667 0  1.371304347826087 0.01666666666666667 0  1.387826086956522 0.01666666666666667 0  1.404347826086957 0.01666666666666667 0  1.420869565217391 0.01666666666666667 0  1.437391304347826 0.01666666666666667 0  1.453913043478261 0.01666666666666667 0  1.470434782608696 0.01666666666666667 0  1.486956521739131 0.01666666666666667 0  1.503478260869565 0.01666666666666667 0  1.52 0.01666666666666667 0  1.536521739130435 0.01666666666666667 0  1.55304347826087 0.01666666666666667 0  1.569565217391304 0.01666666666666667 0  1.586086956521739 0.01666666666666667 0  1.602608695652174 0.01666666666666667 0  1.619130434782609 0.01666666666666667 0  1.635652173913043 0.01666666666666667 0  1.652173913043478 0.01666666666666667 0  1.668695652173913 0.01666666666666667 0  1.685217391304348 0.01666666666666667 0  1.701739130434782 0.01666666666666667 0  1.718260869565217 0.01666666666666667 0  1.734782608695652 0.01666666666666667 0  1.751304347826087 0.01666666666666667 0  1.767826086956522 0.01666666666666667 0  1.784347826086957 0.01666666666666667 0  1.800869565217391 0.0166666666666666
[...]
<PointData  Scalars="rho_bar"> 
<DataArray  type="Float64"  Name="rho_bar"  format="ascii">1.0024002872680897e+00  1.0017861594912090e+00  1.0019461162215677e+00  1.0003384978275476e+00  9.9831040210003019e-01  9.9512575044593898e-01  9.9180958245974637e-01  9.9404748623030648e-01  9.9990856093601777e-01  1.0028276612175833e+00  1.0093504175643644e+00  1.0181003741093628e+00  1.0209461464899352e+00  1.0183805164634514e+00  1.0100682982847091e+00  1.0018266558165907e+00  9.9599074981200741e-01  9.9198259596608029e-01  9.9374453950825281e-01  9.9846358894939202e-01  1.0014779145347619e+00  1.0011505714319398e+00  9.9978913551985105e-01  9.9987678361184040e-01  1.0000384695408637e+00  9.9978056685076189e-01  1.0008869232578022e+00  9.9890287567263014e-01  9.9592129444384458e-01  1.0107638921950466e+00  1.0256074941296620e+00  1.0137530310633049e+00  9.9695670460010533e-01  9.8950025277195452e-01  9.8724409448568717e-01  9.8662011656974080e-01  9.9140538732127936e-01  1.0044583765190018e+00  1.0115395857548883e+00  1.0115545140758087e+00  1.0118488089055893e+00  1.0114460724980705e+00  1.0112977849677247e+00  1.0096999420307025e+00  1.0024923123071301e+00  9.9481110897631986e-01  9.9279425239691210e-01  9.9417456778325419e-01  9.9659007672698385e-01  1.0002988480624788e+00  1.0049381856910515e+00  1.0087528244335742e+00  1.0103824328543831e+00  1.0108924620078199e+00  1.0108728610888860e+00  1.0046833525030958e+00  9.9366997251946776e-01  9.8890484144750157e-01  9.9112509212210775e-01  9.9753800031228390e-01  1.0053815495098213e+00  1.0090622667467517e+00  1.0094271572164344e+00  1.0096589369813029e+00  1.0100741494808110e+00  1.0100964174273532e+00  1.0093517939084142e+00  1.0075012708650724e+00  1.0046520675710442e+00  1.0017235806728597e+00  9.9941144413382155e-01  9.9732009255906839e-01  9.9424577068350506e-01  9.9031347190958652e-01  9.8765599515400748e-01  9.8709293678432730e-01  9.8668162755961730e-01  9.8820142097845676e-01  9.9722236464293290e-01  1.0078709775947154e+00  1.0111713019175659e+00  1.0106089857971712e+00  1.0118048700946443e+00  1.0091656789211212e+00  9.9681313833897467e-01  9.8702665257391686e-01  9.8628888479282606e-01  9.8754853916436269e-01  9.8395137550244338e-01  9.9594005898626570e-01  1.0205309519596644e+00  1.0119103149112627e+00  9.9595141115139807e-01  9.9986155830707502e-01  1.0005781543541574e+00  9.9928955746403403e-01  1.0011883413831262e+00  1.0009899028707734e+00  9.9634562925813674e-01  9.9338605288780724e-01  9.9809818380909909e-01  1.0099041383640897e+00  1.0219329365690648e+00  1.0272215457173270e+00  1.0277551448097979e+00  1.0277946360223600e+00  1.0278504242440949e+00  1.0263925175269271e+00  1.0205385053360299e+00  1.0089059429391061e+00  9.9804522781360727e-01  9.9342732310684201e-01  9.9214290983496456e-01  9.9211119908268508e-01  9.9495145666501927e-01  1.0011846714476853e+00  1.0202627297047984e+00  1.0285564318546296e+00  9.9949804748496107e-01  9.5799254060362338e-01  9.2926515945732058e-01  9.2529852791691303e-01  9.2916817645580341e-01  9.2799746008337614e-01  9.2804704186483955e-01  9.2893086789073265e-01  9.2630484061575935e-01  9.2737827904251879e-01  9.5637813075348310e-01  9.8732632109752017e-01  9.8764407284500533e-01  9.9989946807540753e-01  1.0276610007406177e+00  1.0303631023255790e+00  1.0265309095821322e+00  1.0269450878152753e+00  1.0292222067268022e+00  1.0286052433162316e+00  1.0107916870847022e+00  9.9336903686213918e-01  9.8702761156521646e-01  9.8626627700332914e-01  9.8702353410920407e-01  9.8681220890296950e-01  9.8684550629292211e-01  9.8684405739213221e-01  9.8684324055752382e-01  9.8684352490373983e-01  9.8684520048350144e-01  9.8682703998591148e-01  9.8693422043936585e-01  9.8648856482635450e-01  9.8763254958332780e-01  9.8749493252329978e-01  9.7623477973387141e-01  9.4943461965088372e-01  9.3318933584726849e-01  9.5401471056649612e-01  9.8088996469641321e-01  9.8794210909370728e-01  9.8708471525239105e-01  9.8667183309643791e-01  9.8689465984493518e-01  9.8683312305067383e-01  9.8684484852521903e-01  9.8684400405171879e-01  9.8684915857322419e-01  9.8679710460789904e-01  9.8710274345090709e-01  9.8601883295688320e-01  9.8731880650569859e-01  9.9930568464487557e-01  1.0175784700642276e+00  1.0283109492623606e+00  1.0287968914685652e+00  1.0268068241950943e+00  1.0250985456190636e+00  1.0201915179287928e+00  1.0100719257430626e+00  1.0013868222908340e+00  9.9559270114514331e-01  9.9450212326215515e-01  9.9945611759074848e-01  1.0009802728690076e+00  9.9973876320750998e-01  1.0000224538775144e+00  9.9989888299085095e-01  9.9933131079155380e-01  1.0103549993527317e+00  9.2839957310142862e-01  1.3152073045660826e+00  -3.9462420734055113e-02  7.2489034571230453e-03  -7.5479223341443392e-03  9.6057096273867160e-03  6.9498853260837207e-05  -1.3042212188571964e-03  -3.0895878848897379e-06  2.3201609003867612e-04  -7.7060249967520055e-05  -1.2941875825218925e-05  1.8240238088430893e-05  -6.6866048756738762e-06  7.7600068022736216e-07  4.8537663203353560e-07  -3.6324637250386326e-07  1.4438264906502871e-07  -3.9634106422853502e-08  6.3177235138505316e-09  7.7729322735918518e-10  -1.1436962497061477e-09  5.8049045700586117e-10  -2.1738821578995079e-10  6.7359843603965866e-11  -1.7908446325480550e-11  4.1334179967933278e-12  -8.2154798154003466e-13  1.3089602051567702e-13  -9.7059792992606339e-15  -4.6581154986201885e-15  3.3563546478570630e-15  -1.5209689056173883e-15  6.0912669976279042e-16  -2.3912930901058677e-16  9.3651674431189401e-17  -3.4840186862686029e-17  1.1775892725574693e-17  -3.0439148455394147e-18  6.1235330924902600e-19  -1.3562265890169398e-19  -1.0654794387283955e-19  9.9459648241821441e-01  9.9700810450910049e-01  9.9546021527243600e-01  9.9763910740347495e-01  1.0012171399530745e+00  1.0061195296100833e+00  1.0134432267722036e+00  1.0165414075104258e+00  1.0054570621007652e+00  9.9637968136722876e-01  9.9050784572982209e-01  9.7097688391360359e-01  9.5957371173115014e-01  9.5934740351262926e-01  9.7000382470968594e-01  9.8968769429615822e-01  1.0018028142057047e+00  1.0133203104669293e+00  1.0158642569746923e+00  1.0076790320428066e+00  9.9931897408750225e-01  9.9644020211753759e-01  9.9947455855932843e-01  1.0006443573592196e+00  9.9981148927489472e-01  1.0002444268712054e+00  9.9995117617716989e-01  9.9804633278772015e-01  1.0068409313435573e+00  1.0005618013910611e+00  9.5638212773703668e-01  9.5453692824479319e-01  9.9292187920039954e-01  1.0145813650816453e+00  1.0248174770595881e+00  1.0253900548124952e+00  1.0254248545747908e+00  1.0048197369169909e+00  9.8033264698791256e-01  9.7704215045000820e-01  9.7660010999231861e-01  9.7635317000396504e-01  9.7773531556516158e-01  9.7779832226726993e-01  9.8620680300318719e-01  1.0040607345719055e+00  1.0138626561471078e+00  1.0132617482823612e+00  1.0095223838059202e+00  1.0034706780902534e+00  9.9486864651328655e-01  9.8579096016552470e-01  9.8029025726102781e-01  9.7873980095511670e-01  9.7795516604978150e-01  9.8163834342809442e-01  1.0020401822584322e+00  1.0201558032078584e+00  1.0207321401288412e+00  1.0126711626249332e+00  9.9646151562224505e-01  9.8409370231876658e-01  9.8131514407784204e-01  9.8104278240882081e-01  9.8022975329863959e-01  9.7967012105459272e-01  9.8032765496872953e-01  9.8281811915980610e-01  9.8767613750524086e-01  9.9375523401265253e-01  9.9904226811633090e-01  1.0032015628662341e+00  1.0080095520478911e+00  1.0154363536672577e+00  1.0226723476852202e+00  1.0256564625057927e+00  1.0258959157844074e+00  1.0264120226553424e+00  1.0170317183080047e+00  9.9326498847660405e-01  9.7892524545899440e-01  9.7832086709235710e-01  9.7836408951001808e-01  9.7633396784689530e-01  9.9185999117292556e-01  1.0196044280626244e+00  1.0277646026497178e+00  1.0260811471026565e+00  1.0261531052566126e+00  1.0302484691607361e+00  9.7969019014940562e-01  9.5479176702283075e-01  1.0012361066878435e+00  1.0050237232487866e+00  9.9712681907720169e-01  1.0015631599747645e+00  9.9968491976448537e-01  9.9661032591872456e-01  1.0016529801483169e+00  1.0121221541979764e+00  1.0104977806049789e+00  9.9356257234176826e-01  9.6670945237687389e-01  9.4892889587521645e-01  9.4456242628336262e-01  9.4466404841739438e-01  9.4414925898857116e-01  9.4520589150449208e-01  9.5142209112465825e-01  9.6931316263422851e-01  9.9467714197362567e-01  1.0100205415625709e+00  1.0146034202926084e+00  1.0161985891077279e+00  1.0139206303942212e+00  1.0045770643455292e+00  9.8426182812649732e-01  9.4007943110794212e-01  9.6437088473328347e-01  1.0438604865827010e+00  1.1177802881352827e+00  1.1527786992324804e+00  1.1421090490602095e+00  1.1437384275722293e+00  1.1436615830173111e+00  1.1437331274011098e+00  1.1422983276863872e+00  1.1506325769996995e+00  1.1258911001881164e+00  1.0476222074814063e+00  1.0183877274267827e+00  1.0250671594517302e+00  9.6758189952922746e-01  9.3430381304841803e-01  9.4751092481346144e-01  9.4424225136970641e-01  9.4704592702999280e-01  9.3751228722383950e-01  9.5666503592170538e-01  9.9997276273499403e-01  1.0210104773536210e+00  1.0280890310179875e+00  1.0260865651348063e+00  1.0263035895844248e+00  1.0263252635055957e+00  1.0263100844680786e+00  1.0263133699302946e+00  1.0263131172491895e+00  1.0263120875190701e+00  1.0263170285855914e+00  1.0263121409952314e+00  1.0262273952805305e+00  1.0270235252290512e+00  1.0230870773461316e+00  1.0324944604253614e+00  1.0703364242859235e+00  1.1266476589708487e+00  1.1220596683786468e+00  1.0588565496500175e+00  1.0274951464306334e+00  1.0246911863138335e+00  1.0267476968339140e+00  1.0262471163280986e+00  1.0263164260635329e+00  1.0263144505993604e+00  1.0263124402737773e+00  1.0263085440218389e+00  1.0263234259286713e+00  1.0263093092355575e+00  1.0259744916293221e+00  1.0287582345217188e+00  1.0166230871602979e+00  9.8301122062010315e-01  9.5044505223358833e-01  9.4143441921292559e-01  9.4461601965264397e-01  9.4801578921825091e-01  9.5318940286260745e-01  9.6865080766994338e-01  9.9034424499104623e-01  1.0026629746923399e+00  1.0126144490957285e+00  1.0063547717498502e+00  9.9753567741231364e-01  9.9992606358152691e-01  1.0003562834226745e+00  9.9975753184559391e-01  1.0008689368473103e+00  9.9601018960622878e-01  1.0090593703890760e+00  1.0429607583472220e+00  2.9064223236136932e-01  -3.0499986767973570e-02  3.2258447930703392e-02  -1.8041987470525891e-02  -7.0359296711926976e-03  2.6766889071453887e-03  1.2027701167382277e-03  -6.5739878867430025e-04  1.4254374844791523e-06  1.2021820531135355e-04  -5.1982571896152388e-05  7.0760979813061059e-06  3.4755972613865629e-06  -2.7029851802484570e-06  1.0404781302860865e-06  -2.6561865332379841e-07  3.3910945592065936e-08  9.6411873870563409e-09  -9.1659513308605537e-09  4.2470580167107848e-09  -1.4948611097748986e-09  4.3393197150536393e-10  -1.0569247444041685e-10  2.1261274686237429e-11  -3.2825665101746420e-12  2.4730967330511758e-13  8.5177262660448458e-14  -6.2238343787844685e-14  2.8237329177097509e-14  -1.1088170355535022e-14  4.1086486140827351e-15  -1.5284825710404952e-15  5.8115157906608572e-16  -2.1515283913132435e-16  7.1182563774388781e-17  -1.9375786764713964e-17  2.9901594421025999e-18  -5.2537922896094001e-20  -1.9475325263038020e-19  3.4871854664737308e-19  1.0199761774942349e+00  1.0080142158550864e+00  1.0156940126403498e+00  1.0131652080996707e+00  1.0020381782048449e+00  9.8825144513556129e-01  9.6693485793268008e-01  9.4280951140789415e-01  9.5318468596651718e-01  1.0071958053849042e+00  1.0158249764275231e+00  1.0615933051307547e+00  1.1350130422529123e+00  1.1381738793346452e+00  1.1368375001953466e+00  1.0656556389895810e+00  1.0125166022167684e+00  9.7584110215730813e-01  9.3859661808262307e-01  9.5949136208514241e-01  9.8704308613816860e-01  1.0129823316923101e+00  1.0069544369889203e+00  9.9817394522654923e-01  9.9900794365221079e-01  1.0013190833152807e+00  9.9763265361378695e-01  1.0037020395556946e+00  1.0014380572668133e+00  9.6408405037657707e-01  1.0626368955575580e+00  1.2076002220596447e+00  1.0765136763411842e+00  9.8612701946656056e-01  9.2218847641150847e-01  9.1219089407917120e-01  9.1136223435603991e-01  9.2785334257469942e-01  1.0416069705203592e+00  1.0785372979112680e+00  1.0791829425777464e+00  1.0844177540329616e+00  1.0798329189820972e+00  1.0768598378898928e+00  1.0714103829397028e+00  1.0172974878641572e+00  9.6096522427065734e-01  9.5093099461918484e-01  9.5914465555344297e-01  9.7622397072817335e-01  1.0016720056216275e+00  1.0346174432893365e+00  1.0617868818185670e+00  1.0728055562066594e+00  1.0752353198896172e+00  1.0748902163317662e+00  1.0397281611994633e+00  9.4788327359141822e-01  9.2583477080717813e-01  9.3691548901736887e-01  9.8120078704754454e-01  1.0403457044531712e+00  1.0628716056775593e+00  1.0656116211646027e+00  1.0675006928082422e+00  1.0706747974743829e+00  1.0705765010225152e+00  1.0655211176149280e+00  1.0527133101787685e+00  1.0325031731812009e+00  1.0118713688773984e+00  9.9578320073903803e-01  9.8122406520643546e-01  9.6051484273014498e-01  9.3162589294009679e-01  9.1327773771192566e-01  9.0946629184534489e-01  9.0931516394311895e-01  9.1440201749433347e-01  9.7830687590429022e-01  1.0610528872314278e+00  1.0747675049333536e+00  1.0762376698287452e+00  1.0765091022800666e+00  1.0742924609398439e+00  9.7263037885297832e-01  9.0627866803572843e-01  9.0813260353392466e-01  9.0762538198660836e-01  9.0762645554350851e-01  9.2514799959733773e-01  1.1951996123767175e+00  1.0626822217781138e+00  9.6222392176053750e-01  1.0134578435232144e+00  9.9675464612878251e-01  9.9718694336274327e-01  1.0060521533096853e+00  1.0107697470112575e+00  9.7324435985322066e-01  9.5214027205967255e-01  9.8770408107379393e-01  1.0657109297205434e+00  1.1597038128680679e+00  1.1862964509339955e+00  1.1977593565460836e+00  1.1899948868454506e+00  1.1995945590347676e+00  1.1793558000540187e+00  1.1506615761963448e+00  1.0579157666248544e+00  9.8773650658386825e-01  9.5138713085401316e-01  9.4920298377822165e-01  9.4082732197092289e-01  9.6781058646277718e-01  1.0104084408306138e+00  1.1179166938044365e+00  1.2441548451286897e+00  9.5762544944137218e-01  7.3956987010483044e-01  4.6984106625317495e-01  4.9851756771307171e-01  4.9727818638809118e-01  4.9718379178510136e-01  4.9719685683136805e-01  4.9732364693739645e-01  4.9915235026138766e-01  4.7514263961719255e-01  6.8749883708016235e-01  9.3878463821179003e-01  9.0322923635184804e-01  9.7285463906133685e-01  1.2347225224471114e+00  1.1863376718534870e+00  1.1931567029398971e+00  1.1933569396009915e+00  1.1864456650834139e+00  1.2269421985788114e+00  1.0561856055311787e+00  9.6214158083667889e-01  9.0333711286124874e-01  9.0773776997384181e-01  9.0806040750236106e-01  9.0787048333850362e-01  9.0790654637951718e-01  9.0790474969105872e-01  9.0790453106024405e-01  9.0790454253398034e-01  9.0790406112956445e-01  9.0789729837316391e-01  9.0792417136403769e-01  9.0795300546276581e-01  9.0647025612657528e-01  9.2036181203558454e-01  8.2751821152236338e-01  6.6565172334038791e-01  4.9944226125504981e-01  6.9549145913958621e-01  8.6690975227682887e-01  9.1573955938524676e-01  9.0684365512109633e-01  9.0797531288464906e-01  9.0791137330793426e-01  9.0790072048778991e-01  9.0790573800283358e-01  9.0790777315635385e-01  9.0791193388521296e-01  9.0788339410423025e-01  9.0806298486561310e-01  9.0790094519337805e-01  9.0361442942409032e-01  9.9825310132171918e-01  1.1197272808546654e+00  1.2072673465841754e+00  1.1919572255210977e+00  1.1952927324681959e+00  1.1669017398928769e+00  1.1520051824954225e+00  1.0622928799593967e+00  1.0128691196981332e+00  9.7121481462506420e-01  9.5398591995106552e-01  1.0037770821888747e+00  1.0042916275461007e+00  9.9754099405322216e-01  1.0008764928985763e+00  9.9943175888949665e-01  1.0003567047924060e+00  1.0039675401895394e+00  9.6395071706838265e-01  1.2010466961893362e+00  7.0430634155688718e-02  -1.7811787568981152e-01  3.3408181221112915e-02  4.7563438049288934e-02  3.4223006060034723e-04  -9.3344815834218477e-03  1.4058815712634850e-03  1.1053891044058236e-03  -7.3171698602090510e-04  1.5096701435719841e-04  2.8335751463844298e-05  -3.3838997929672183e-05  1.4522905755741820e-05  -4.0824473781845225e-06  6.8605217051065469e-07  5.2134396992826736e-08  -1.0437114725065582e-07  5.5095411576116063e-08  -2.1082965735929134e-08  6.6278330986470183e-09  -1.7764506355134863e-09  4.1031014948069027e-10  -8.1320176843809122e-11  1.3276172398490039e-11  -1.3143293682975568e-12  -2.8400943927226268e-13  2.7852649481663544e-13  -1.3970106514353409e-13  5.7967699022207907e-14  -2.2482893829415451e-14  8.6122693292548806e-15  -3.2193318903060570e-15  1.1060604353291818e-15  -3.2199990880230406e-16  7.0621664483508481e-17  -5.4753729746047219e-18  -1.7692368704361851e-18  1.7206197546309622e-18  -1.3250115129472501e-18  9.3025603805083523e-01  9.6963099142767473e-01  9.5500893637989659e-01  9.3717924404169994e-01  9.7299799383915797e-01  1.0145000363399781e+00  1.0796815871459653e+00  1.1680855523321998e+00  1.2249532010385971e+00  1.0839348967583002e+00  9.0204386507022738e-01  9.4732963875191289e-01  5.7078778162619903e-01  4.8878667601887543e-01  4.9102963982661524e-01  5.5467515561924774e-01  9.4234538021216796e-01  9.4956775683846228e-01  1.2291492852456545e+00  1.1747539745745244e+00  1.1191148596763225e+00  9.7915492358689749e-01  9.5319438692710212e-01  9.9800795354364069e-01  1.0068670785373763e+00  9.9913638437340424e-01  9.9625260232280255e-01  1.0127347500751140e+00  9.6798479274521365e-01  1.0507135095903486e+00  1.0933045025911914e+00  4.0214762116641428e-01  -2.3734354013164181e-02  -7.0677779731827581e-02  -1.9458005784647264e-01  -1.8505584152980192e-01  -1.8874342425920068e-01  -1.9362250066193856e-01  -1.5113166336995038e-01  -6.4234554309706218e-02  -7.7322302313616628e-02  -6.9110245949119561e-02  -6.9054047369307370e-02  -7.5069363847501569e-02  -7.5577410601751091e-02  -8.6489360635752480e-02  -1.4741045846534115e-01  -1.6324679141069307e-01  -1.6111181490686216e-01  -1.5210689745085557e-01  -1.3812822686324625e-01  -1.1733825199087318e-01  -9.3168580975869345e-02  -8.0615647298603668e-02  -7.7842112399111735e-02  -7.8783509988058942e-02  -7.2525035476618288e-02  -1.4009024510814957e-01  -1.8209558087811004e-01  -1.7856331213271986e-01  -1.6495133933962605e-01  -1.1680288967968541e-01  -8.7198166385155193e-02  -8.4597247247919838e-02  -8.4278452202892651e-02  -8.1544934318162024e-02  -8.0164669312152007e-02  -8.1620109836102669e-02  -8.7090855119988000e-02  -9.9146369436874729e-02  -1.1448468727647559e-01  -1.2706970309602797e-01  -1.3629150824027675e-01  -1.4667677814128302e-01  -1.6512093266549796e-01  -1.8554722980978994e-01  -1.9029108198195183e-01  -1.9059272219972337e-01  -1.9004873015066456e-01  -1.8629665520302699e-01  -9.8152465927885360e-02  -7.7996105036205576e-02  -7.7381096112339509e-02  -7.6847331061944926e-02  -7.6560231209483257e-02  -8.2674940559760088e-02  -2.0443358497889300e-01  -1.8867076592117335e-01  -1.9163798266058021e-01  -1.8865446327116445e-01  -2.1324447695259499e-01  -7.5439914860688143e-02  2.2771741651344085e-01  1.1951248226231208e+00  9.4913175157568452e-01  1.0089920770697123e+00  1.0011452802196570e+00  1.0116781804261541e+00  9.4775696365851581e-01  1.0100647350439844e+00  1.1737839524194569e+00  1.1298060394925311e+00  9.2205791933773340e-01  5.7599654830916114e-01  2.3764553981583419e-01  6.7295021018416001e-02  9.4140276902947198e-02  9.3180468983551409e-02  6.9262480664349188e-02  2.9017410866209520e-01  6.2153998172950620e-01  9.2857702917647167e-01  1.1310033503052461e+00  1.1991104123533960e+00  1.1826552227519935e+00  1.2252480556795120e+00  9.9815496800252512e-01  8.6482821427454448e-01  1.5439045170735408e-01  2.2124823138556875e-03  -2.1816867015521918e-01  -1.5049550395752093e-01  -1.2540525535856728e-01  -1.3467740194175640e-01  -1.3304347580035519e-01  -1.3325163394784639e-01  -1.3306623124576264e-01  -1.3459842405499789e-01  -1.2641828269958455e-01  -1.5231602488872950e-01  -1.7535646545543282e-01  -1.95