<?xml version="1.0"?>
<VTKFile type="UnstructuredGrid"  version="0.1"  >
<UnstructuredGrid>
<Piece  NumberOfPoints="40501" NumberOfCells="80000">
<Points>
<DataArray  type="Float64"  NumberOfComponents="3"  format="ascii">0 0 0  0.0095 0 0  0.019 0 0  0.0285 0 0  0.038 0 0  0.0475 0 0  0.057 0 0  0.06649999999999999 0 0  0.076 0 0  0.08549999999999999 0 0  0.095 0 0  0.1045 0 0  0.114 0 0  0.1235 0 0  0.133 0 0  0.1425 0 0  0.152 0 0  0.1615 0 0  0.171 0 0  0.1805 0 0  0.19 0 0  0.1995 0 0  0.209 0 0  0.2185 0 0  0.228 0 0  0.2375 0 0  0.247 0 0  0.2565 0 0  0.266 0 0  0.2755 0 0  0.285 0 0  0.2945 0 0  0.304 0 0  0.3135 0 0  0.323 0 0  0.3325 0 0  0.342 0 0  0.3515 0 0  0.361 0 0  0.3705 0 0  0.38 0 0  0.3895 0 0  0.399 0 0  0.4085 0 0  0.418 0 0  0.4275 0 0  0.4369999999999999 0 0  0.4465 0 0  0.456 0 0  0.4655 0 0  0.475 0 0  0.4844999999999999 0 0  0.494 0 0  0.5034999999999999 0 0  0.513 0 0  0.5225 0 0  0.5319999999999999 0 0  0.5415 0 0  0.5509999999999999 0 0  0.5605 0 0  0.57 0 0  0.5794999999999999 0 0  0.589 0 0  0.5984999999999999 0 0  0.608 0 0  0.6175 0 0  0.627 0 0  0.6365 0 0  0.6459999999999999 0 0  0.6555 0 0  0.665 0 0  0.6745 0 0  0.6839999999999999 0 0  0.6934999999999999 0 0  0.703 0 0  0.7125 0 0  0.722 0 0  0.7314999999999999 0 0  0.741 0 0  0.7504999999999999 0 0  0.76 0 0  0.7695000000000001 0 0  0.7789999999999999 0 0  0.7885 0 0  0.7979999999999999 0 0  0.8075 0 0  0.8170000000000001 0 0  0.8264999999999999 0 0  0.836 0 0  0.8454999999999999 0 0  0.855 0 0  0.8645 0 0  0.8739999999999999 0 0  0.8835 0 0  0.893 0 0  0.9025 0 0  0.9119999999999999 0 0  0.9214999999999999 0 0  0.9309999999999999 0 0  0.9405 0 0  0.95 0 0  0.9594999999999999 0 0  0.9689999999999999 0 0  0.9784999999999999 0 0  0.988 0 0  0.9975000000000001 0 0  1.007 0 0  1.0165 0 0  1.026 0 0  1.0355 0 0  1.045 0 0  1.0545 0 0  1.064 0 0  1.0735 0 0  1.083 0 0  1.0925 0 0  1.102 0 0  1.1115 0 0  1.121 0 0  1.1305 0 0  1.14 0 0  1.1495 0 0  1.159 0 0  1.1685 0 0  1.178 0 0  1.1875 0 0  1.197 0 0  1.2065 0 0  1.216 0 0  1.2255 0 0  1.235 0 0  1.2445 0 0  1.254 0 0  1.2635 0 0  1.273 0 0  1.2825 0 0  1.292 0 0  1.3015 0 0  1.311 0 0  1.3205 0 0  1.33 0 0  1.3395 0 0  1.349 0 0  1.3585 0 0  1.368 0 0  1.3775 0 0  1.387 0 0  1.3965 0 0  1.406 0 0  1.4155 0 0  1.425 0 0  1.4345 0 0  1.444 0 0  1.4535 0 0  1.463 0 0  1.4725 0 0  1.482 0 0  1.4915 0 0  1.501 0 0  1.5105 0 0  1.52 0 0  1.5295 0 0  1.539 0 0  1.5485 0 0  1.558 0 0  1.5675 0 0  1.577 0 0  1.5865 0 0  1.596 0 0  1.6055 0 0  1.615 0 0  1.6245 0 0  1.634 0 0  1.6435 0 0  1.653 0 0  1.6625 0 0  1.672 0 0  1.6815 0 0  1.691 0 0  1.7005 0 0  1.71 0 0  1.7195 0 0  1.729 0 0  1.7385 0 0  1.748 0 0  1.7575 0 0  1.767 0 0  1.7765 0 0  1.786 0 0  1.7955 0 0  1.805 0 0  1.8145 0 0  1.824 0 0  1.8335 0 0  1.843 0 0  1.8525 0 0  1.862 0 0  1.8715 0 0  1.881 0 0  1.8905 0 0  1.9 0 0  1.9095 0 0  1.919 0 0  1.9285 0 0  1.938 0 0  1.9475 0 0  1.957 0 0  1.9665 0 0  1.976 0 0  1.9855 0 0  1.995 0 0  2.0045 0 0  2.014 0 0  2.0235 0 0  2.033 0 0  2.0425 0 0  2.052 0 0  2.0615 0 0  2.071 0 0  2.0805 0 0  2.09 0 0  2.0995 0 0  2.109 0 0  2.1185 0 0  2.128 0 0  2.1375 0 0  2.147 0 0  2.1565 0 0  2.166 0 0  2.1755 0 0  2.185 0 0  2.1945 0 0  2.204 0 0  2.2135 0 0  2.223 0 0  2.2325 0 0  2.242 0 0  2.2515 0 0  2.261 0 0  2.2705 0 0  2.28 0 0  2.2895 0 0  2.299 0 0  2.3085 0 0  2.318 0 0  2.3275 0 0  2.337 0 0  2.3465 0 0  2.356 0 0  2.3655 0 0  2.375 0 0  2.3845 0 0  2.394 0 0  2.4035 0 0  2.413 0 0  2.4225 0 0  2.432 0 0  2.4415 0 0  2.451 0 0  2.4605 0 0  2.47 0 0  2.4795 0 0  2.489 0 0  2.4985 0 0  2.508 0 0  2.5175 0 0  2.527 0 0  2.5365 0 0  2.546 0 0  2.5555 0 0  2.565 0 0  2.5745 0 0  2.584 0 0  2.5935 0 0  2.603 0 0  2.6125 0 0  2.622 0 0  2.6315 0 0  2.641 0 0  2.6505 0 0  2.66 0 0  2.6695 0 0  2.679 0 0  2.688499999999999 0 0  2.698 0 0  2.7075 0 0  2.717 0 0  2.7265 0 0  2.736 0 0  2.7455 0 0  2.755 0 0  2.7645 0 0  2.774 0 0  2.7835 0 0  2.793 0 0  2.8025 0 0  2.812 0 0  2.8215 0 0  2.831 0 0  2.8405 0 0  2.85 0 0  2.8595 0 0  2.869 0 0  2.8785 0 0  2.888 0 0  2.8975 0 0  2.907 0 0  2.9165 0 0  2.926 0 0  2.9355 0 0  2.945 0 0  2.9545 0 0  2.964 0 0  2.9735 0 0  2.983 0 0  2.9925 0 0  3.002 0 0  3.0115 0 0  3.020999999999999 0 0  3.0305 0 0  3.04 0 0  3.0495 0 0  3.059 0 0  3.0685 0 0  3.078 0 0  3.0875 0 0  3.097 0 0  3.1065 0 0  3.116 0 0  3.1255 0 0  3.135 0 0  3.1445 0 0  3.154 0 0  3.1635 0 0  3.173 0 0  3.1825 0 0  3.192 0 0  3.2015 0 0  3.211 0 0  3.2205 0 0  3.23 0 0  3.2395 0 0  3.249 0 0  3.2585 0 0  3.268 0 0  3.2775 0 0  3.287 0 0  3.2965 0 0  3.306 0 0  3.3155 0 0  3.325 0 0  3.3345 0 0  3.344 0 0  3.353499999999999 0 0  3.363 0 0  3.3725 0 0  3.382 0 0  3.3915 0 0  3.401 0 0  3.4105 0 0  3.42 0 0  3.4295 0 0  3.439 0 0  3.4485 0 0  3.458 0 0  3.4675 0 0  3.477 0 0  3.4865 0 0  3.496 0 0  3.5055 0 0  3.515 0 0  3.5245 0 0  3.534 0 0  3.5435 0 0  3.553 0 0  3.5625 0 0  3.572 0 0  3.5815 0 0  3.591 0 0  3.6005 0 0  3.61 0 0  3.6195 0 0  3.629 0 0  3.6385 0 0  3.648 0 0  3.6575 0 0  3.667 0 0  3.6765 0 0  3.685999999999999 0 0  3.6955 0 0  3.705 0 0  3.7145 0 0  3.724 0 0  3.7335 0 0  3.742999999999999 0 0  3.7525 0 0  3.762 0 0  3.7715 0 0  3.781 0 0  3.7905 0 0  3.8 0 0  0 0.005 0  0.0095 0.005 0  0.019 0.005 0  0.0285 0.005 0  0.038 0.005 0  0.0475 0.005 0  0.057 0.005 0  0.06649999999999999 0.005 0  0.076 0.005 0  0.08549999999999999 0.005 0  0.095 0.005 0  0.1045 0.005 0  0.114 0.005 0  0.1235 0.005 0  0.133 0.005 0  0.1425 0.005 0  0.152 0.005 0  0.1615 0.005 0  0.171 0.005 0  0.1805 0.005 0  0.19 0.005 0  0.1995 0.005 0  0.209 0.005 0  0.2185 0.005 0  0.228 0.005 0  0.2375 0.005 0  0.247 0.005 0  0.2565 0.005 0  0.266 0.005 0  0.2755 0.005 0  0.285 0.005 0  0.2945 0.005 0  0.304 0.005 0  0.3135 0.005 0  0.323 0.005 0  0.3325 0.005 0  0.342 0.005 0  0.3515 0.005 0  0.361 0.005 0  0.3705 0.005 0  0.38 0.005 0  0.3895 0.005 0  0.399 0.005 0  0.4085 0.005 0  0.418 0.005 0  0.4275 0.005 0  0.4369999999999999 0.005 0  0.4465 0.005 0  0.456 0.005 0  0.4655 0.005 0  0.475 0.005 0  0.4844999999999999 0.005 0  0.494 0.005 0  0.5034999999999999 0.005 0  0.513 0.005 0  0.5225 0.005 0  0.5319999999999999 0.005 0  0.5415 0.005 0  0.5509999999999999 0.005 0  0.5605 0.005 0  0.57 0.005 0  0.5794999999999999 0.005 0  0.589 0.005 0  0.5984999999999999 0.005 0  0.608 0.005 0  0.6175 0.005 0  0.627 0.005 0  0.6365 0.005 0  0.6459999999999999 0.005 0  0.6555 0.005 0  0.665 0.005 0  0.6745 0.005 0  0.6839999999999999 0.005 0  0.6934999999999999 0.005 0  0.703 0.005 0  0.7125 0.005 0  0.722 0.005 0  0.7314999999999999 0.005 0  0.741 0.005 0  0.7504999999999999 0.005 0  0.76 0.005 0  0.7695000000000001 0.005 0  0.7789999999999999 0.005 0  0.7885 0.005 0  0.7979999999999999 0.005 0  0.8075 0.005 0  0.8170000000000001 0.005 0  0.8264999999999999 0.005 0  0.836 0.005 0  0.8454999999999999 0.005 0  0.855 0.005 0  0.8645 0.005 0  0.8739999999999999 0.005 0  0.8835 0.005 0  0.893 0.005 0  0.9025 0.005 0  0.9119999999999999 0.005 0  0.9214999999999999 0.005 0  0.9309999999999999 0.005 0  0.9405 0.005 0  0.95 0.005 0  0.9594999999999999 0.005 0  0.9689999999999999 0.005 0  0.9784999999999999 0.005 0  0.988 0.005 0  0.9975000000000001 0.005 0  1.007 0.005 0  1.0165 0.005 0  1.026 0.005 0  1.0355 0.005 0  1.045 0.005 0  1.0545 0.005 0  1.064 0.005 0  1.0735 0.005 0  1.083 0.005 0  1.0925 0.005 0  1.102 0.005 0  1.1115 0.005 0  1.121 0.005 0  1.1305 0.005 0  1.14 0.005 0  1.1495 0.005 0  1.159 0.005 0  1.1685 0.005 0  1.178 0.005 0  1.1875 0.005 0  1.197 0.005 0  1.2065 0.005 0  1.216 0.005 0  1.2255 0.005 0  1.235 0.005 0  1.2445 0.005 0  1.254 0.005 0  1.2635 0.005 0  1.273 0.005 0  1.2825 0.005 0  1.292 0.005 0  1.3015 0.005 0  1.311 0.005 0  1.3205 0.005 0  1.33 0.005 0  1.3395 0.005 0  1.349 0.005 0  1.3585 0.005 0  1.368 0.005 0  1.3775 0.005 0  1.387 0.005 0  1.3965 0.005 0  1.406 0.005 0  1.4155 0.005 0  1.425 0.005 0  1.4345 0.005 0  1.444 0.005 0  1.4535 0.005 0  1.463 0.005 0  1.4725 0.005 0  1.482 0.005 0  1.4915 0.005 0  1.501 0.005 0  1.5105 0.005 0  1.52 0.005 0  1.5295 0.005 0  1.539 0.005 0  1.5485 0.005 0  1.558 0.005 0  1.5675 0.005 0  1.577 0.005 0  1.5865 0.005 0  1.596 0.005 0  1.6055 0.005 0  1.615 0.005 0  1.6245 0.005 0  1.634 0.005 0  1.6435 0.005 0  1.653 0.005 0  1.6625 0.005 0  1.672 0.005 0  1.6815 0.005 0  1.691 0.005 0  1.7005 0.005 0  1.71 0.005 0  1.7195 0.005 0  1.729 0.005 0  1.7385 0.005 0  1.748 0.005 0  1.7575 0.005 0  1.767 0.005 0  1.7765 0.005 0  1.786 0.005 0  1.7955 0.005 0  1.805 0.005 0  1.8145 0.005 0  1.824 0.005 0  1.8335 0.005 0  1.843 0.005 0  1.8525 0.005 0  1.862 0.005 0  1.8715 0.005 0  1.881 0.005 0  1.8905 0.005 0  1.9 0.005 0  1.9095 0.005 0  1.919 0.005 0  1.9285 0.005 0  1.938 0.005 0  1.9475 0.005 0  1.957 0.005 0  1.9665 0.005 0  1.976 0.005 0  1.9855 0.005 0  1.995 0.005 0  2.0045 0.005 0  2.014 0.005 0  2.0235 0.005 0  2.033 0.005 0  2.0425 0.005 0  2.052 0.005 0  2.0615 0.005 0  2.071 0.005 0  2.0805 0.005 0  2.09 0.005 0  2.0995 0.005 0  2.109 0.005 0  2.1185 0.005 0  2.128 0.005 0  2.1375 0.005 0  2.147 0.005 0  2.1565 0.005 0  2.166 0.005 0  2.1755 0.005 0  2.185 0.005 0  2.1945 0.005 0  2.204 0.005 0  2.2135 0.005 0  2.223 0.005 0  2.2325 0.005 0  2.242 0.005 0  2.2515 0.005 0  2.261 0.005 0  2.2705 0.005 0  2.28 0.005 0  2.2895 0.005 0  2.299 0.005 0  2.3085 0.005 0  2.318 0.005 0  2.3275 0.005 0  2.337 0.005 0  2.3465 0.005 0  2.356 0.005 0  2.3655 0.005 0  2.375 0.005 0  2.3845 0.005 0  2.394 0.005 0  2.4035 0.005 0  2.413 0.005 0  2.4225 0.005 0  2.432 0.005 0  2.4415 0.005 0  2.451 0.005 0  2.4605 0.005 0  2.47 0.005 0  2.4795 0.005 0  2.489 0.005 0  2.4985 0.005 0  2.508 0.005 0  2.5175 0.005 0  2.527 0.005 0  2.5365 0.005 0  2.546 0.005 0  2.5555 0.005 0  2.565 0.005 0  2.5745 0.005 0  2.584 0.005 0  2.5935 0.005 0  2.603 0.005 0  2.6125 0.005 0  2.622 0.005 0  2.6315 0.005 0  2.641 0.005 0  2.6505 0.005 0  2.66 0.005 0  2.6695 0.005 0  2.679 0.005 0  2.688499999999999 0.005 0  2.698 0.005 0  2.7075 0.005 0  2.717 0.00
[...]
<PointData  Scalars="rho_bar"> 
<DataArray  type="Float64"  Name="rho_bar"  format="ascii">9.9861179896635799e-01  9.9859694679478717e-01  9.9857400540775654e-01  9.9853876172344525e-01  9.9848981567480366e-01  9.9842598492437240e-01  9.9834590628138165e-01  9.9824790930361540e-01  9.9812996081320060e-01  9.9798961617357063e-01  9.9782400710399710e-01  9.9762985014933614e-01  9.9740352518981146e-01  9.9714122838936936e-01  9.9683926248495169e-01  9.9649447705922789e-01  9.9610492876090950e-01  9.9567073335268330e-01  9.9519511534565863e-01  9.9468549543834628e-01  9.9415444527192165e-01  9.9362014458599823e-01  9.9310603631287697e-01  9.9263934880727078e-01  9.9224847943673145e-01  9.9195944988924112e-01  9.9179213948905343e-01  9.9175716214799026e-01  9.9185431147806280e-01  9.9207292958393656e-01  9.9239410354299595e-01  9.9279398390325291e-01  9.9324739297685594e-01  9.9373083604365164e-01  9.9422449125390100e-01  9.9471304662889093e-01  9.9518564304654278e-01  9.9563520860526145e-01  9.9605754361275878e-01  9.9645036156298472e-01  9.9681247976074638e-01  9.9714319967001686e-01  9.9744193666275272e-01  9.9770804124563972e-01  9.9794077380693935e-01  9.9813932391605475e-01  9.9830280753684830e-01  9.9843013515547352e-01  9.9851970501769016e-01  9.9856890730106251e-01  9.9857344235214640e-01  9.9852634181952016e-01  9.9841664045529654e-01  9.9822764816098797e-01  9.9793496221405475e-01  9.9750472912111177e-01  9.9689354659560359e-01  9.9605203556079269e-01  9.9493421296959772e-01  9.9351230785340272e-01  9.9179273638988796e-01  9.8982753788133904e-01  9.8771227442435083e-01  9.8556845727326781e-01  9.8351757161094522e-01  9.8165702038749802e-01  9.8004695180872803e-01  9.7870915607341835e-01  9.7763433847632386e-01  9.7679288290732558e-01  9.7614544620965049e-01  9.7565153239694036e-01  9.7527542624025743e-01  9.7498937045872724e-01  9.7477391536460400e-01  9.7461607958409302e-01  9.7450695692772826e-01  9.7443980806900909e-01  9.7440899247446822e-01  9.7440935421826846e-01  9.7443590486014875e-01  9.7448364099792051e-01  9.7454765315093794e-01  9.7462341511055262e-01  9.7470729008567125e-01  9.7479697498106643e-01  9.7489170652620694e-01  9.7499182728976330e-01  9.7509799169280253e-01  9.7521039861230674e-01  9.7532836843725157e-01  9.7545010673269106e-01  9.7557274994060383e-01  9.7569257175199653e-01  9.7580544021862992e-01  9.7590737105577496e-01  9.7599528483893860e-01  9.7606771310315610e-01  9.7612520119972290e-01  9.7617010410931249e-01  9.7620601249072325e-01  9.7623685644689040e-01  9.7626596428928603e-01  9.7629522920837175e-01  9.7632489641527831e-01  9.7635383948397414e-01  9.7638002726248507e-01  9.7640063597622861e-01  9.7641204847638352e-01  9.7641010602521205e-01  9.7639095254826180e-01  9.7635214740472209e-01  9.7629368882982515e-01  9.7621842012664939e-01  9.7613173992977254e-01  9.7604062033057193e-01  9.7595244222296385e-01  9.7587379963010012e-01  9.7580964804568671e-01  9.7576284520623580e-01  9.7573413768054362e-01  9.7572231705087176e-01  9.7572461347829853e-01  9.7573706829250639e-01  9.7575479436903068e-01  9.7577218101928864e-01  9.7578346628761337e-01  9.7578345309466052e-01  9.7576804093294245e-01  9.7573417070517499e-01  9.7567947387623011e-01  9.7560185149410739e-01  9.7549935470898852e-01  9.7537037333860788e-01  9.7521435277376933e-01  9.7503305973999255e-01  9.7483246197818541e-01  9.7462471917650517e-01  9.7442999496949101e-01  9.7427763026857750e-01  9.7420653994926287e-01  9.7426446788185572e-01  9.7450583089332887e-01  9.7498778622324478e-01  9.7576440595311065e-01  9.7687826502416897e-01  9.7834935009703039e-01  9.8016277465714852e-01  9.8225907271967683e-01  9.8453266783565085e-01  9.8684462011220619e-01  9.8904908496640564e-01  9.9102436924940862e-01  9.9269577586037883e-01  9.9404118587998014e-01  9.9507967213474924e-01  9.9585249065950532e-01  9.9640622684713875e-01  9.9678268025131911e-01  9.9701479142063698e-01  9.9712612639164311e-01  9.9713189866774299e-01  9.9704045282937548e-01  9.9685471597217878e-01  9.9657348476806218e-01  9.9619250009420857e-01  9.9570534271811051e-01  9.9510412697132988e-01  9.9438004694108972e-01  9.9352379487526932e-01  9.9252602608441909e-01  9.9137803592923812e-01  9.9007299084838141e-01  9.8860790637144680e-01  9.8698656123329143e-01  9.8522322740090107e-01  9.8334710784400103e-01  9.8140687404178151e-01  9.7947414712910530e-01  9.7764372388121745e-01  9.7602833530363597e-01  9.7474663701933528e-01  9.7390559236483298e-01  9.7358084669887723e-01  9.7380057651748331e-01  9.7453812132705298e-01  9.7571673695605221e-01  9.7722458522984890e-01  9.7893418642438712e-01  9.8072023615361636e-01  9.8247249336707587e-01  9.8410284083875699e-01  9.8554723442619463e-01  9.8676322040022801e-01  9.8772276163355155e-01  9.8840294067754753e-01  9.8878046329428948e-01  9.8882650417683426e-01  9.8850124140390405e-01  9.8774992866020950e-01  9.8650122019911435e-01  9.8467146124220173e-01  9.8217739449769081e-01  9.7896085118319265e-01  9.7502683601425577e-01  9.7048853896071097e-01  9.6558873334391937e-01  9.6066923789657643e-01  9.5608525700668545e-01  9.5211567663650043e-01  9.4895390222993115e-01  9.4672211289213759e-01  9.4547909599712165e-01  9.4523544844684937e-01  9.4596690382825543e-01  9.4761805839590441e-01  9.5010188952434060e-01  9.5328987380393060e-01  9.5699336682084646e-01  9.6097002753600946e-01  9.6495456622800346e-01  9.6869858689071242e-01  9.7200926554355283e-01  9.7476780488877302e-01  9.7692538025636144e-01  9.7848295739822100e-01  9.7946707135255939e-01  9.7991058404584275e-01  9.7984180914316987e-01  9.7928071004686601e-01  9.7824112651514139e-01  9.7673747197903915e-01  9.7479651064457307e-01  9.7247392877356009e-01  9.6987324959946963e-01  9.6716041606468395e-01  9.6456683269946486e-01  9.6236804318475588e-01  9.6083235478420403e-01  9.6015419894254772e-01  9.6039940922907596e-01  9.6148454765173275e-01  9.6319848725833146e-01  9.6525636332539844e-01  9.6735979528701899e-01  9.6924049040736249e-01  9.7067764098599907e-01  9.7149157076294412e-01  9.7152290164501232e-01  9.7060770026761312e-01  9.6855804636148479e-01  9.6515446659472381e-01  9.6015381072521622e-01  9.5333700908898877e-01  9.4460474994163690e-01  9.3409979111554464e-01  9.2229337293278268e-01  9.0995907438644352e-01  8.9803377221675584e-01  8.8739720175637171e-01  8.7865584365871419e-01  8.7203553331197703e-01  8.6741982224901881e-01  8.6446731292983769e-01  8.6279803874989258e-01  8.6206766882250541e-01  8.6197020539515401e-01  8.6224625670128396e-01  8.6268392963211271e-01  8.6312204789092428e-01  8.6345314251364103e-01  8.6362117709850106e-01  8.6361220908063285e-01  8.6344474032187057e-01  8.6316227860589478e-01  8.6282414993073431e-01  8.6249043906363798e-01  8.6220538147186765e-01  8.6199010352763616e-01  8.6184568310837606e-01  8.6176005108398257e-01  8.6171313432665597e-01  8.6168354716824980e-01  8.6166085375880574e-01  8.6165805517702776e-01  8.6171333885432244e-01  8.6187422150426185e-01  8.6216943342447361e-01  8.6259037192363308e-01  8.6310142427674263e-01  8.6366901206154001e-01  8.6427973329721031e-01  8.6494151331149405e-01  8.6567404861901598e-01  8.6649602726634478e-01  8.6741495427342841e-01  8.6842348399027036e-01  8.6950110352446985e-01  8.7061750249314107e-01  8.7173892037382839e-01  8.7283975015541526e-01  8.7391559835376942e-01  8.7498886743817161e-01  8.7610642925611459e-01  8.7734136242271599e-01  8.7879860594918691e-01  8.8061357225641435e-01  8.8293477595495828e-01  8.8590188167225326e-01  8.8963430981280744e-01  8.9421003438446345e-01  8.9962801725856623e-01  9.0579486816027277e-01  9.1251476148853994e-01  9.1947045311703857e-01  9.2628492760531800e-01  9.3261505018710278e-01  9.3820131226581704e-01  9.4287140081005261e-01  9.4650822514175914e-01  9.4902342077985535e-01  9.5031912374936311e-01  9.5023439321104330e-01  9.4851772534844414e-01  9.4480384238316273e-01  9.3857787328474873e-01  9.2905709905457079e-01  9.1485826080339816e-01  8.9361497693951131e-01  8.6138848942367630e-01  8.1171150470675102e-01  7.3507220783108529e-01  6.2152390442147021e-01  4.7241346231111997e-01  3.1559745691686480e-01  1.8942641627879006e-01  1.0778595832101820e-01  6.0986777436687484e-02  3.5280357155591267e-02  2.1133073334488366e-02  1.3164189006487536e-02  8.5271945753015860e-03  5.7308003619109971e-03  3.9829813182288070e-03  2.8525677972207689e-03  2.0978063628588665e-03  1.5789036157389102e-03  1.2125317822208183e-03  9.4755473079353894e-04  7.5171821127225421e-04  6.0414745155666519e-04  4.9100480354367145e-04  4.0291017320969098e-04  3.3337207539749155e-04  2.7781060811077308e-04  2.3293640847288157e-04  1.9634738311699745e-04  1.6626236870086766e-04  1.4134147532782402e-04  1.2056347620300168e-04  1.0314029639049566e-04  8.8456874561933881e-05  7.6027982150959935e-05  6.5467162054012640e-05  5.6463667099888714e-05  4.8765631073566727e-05  4.2167243354489641e-05  3.6499172932245961e-05  3.1621132673683720e-05  2.7416280541005313e-05  2.3786689662734211e-05  2.0649957892853868e-05  1.7936403757239237e-05  1.5586901258947412e-05  1.3551081737114443e-05  1.1785948793771293e-05  1.0254659974741012e-05  8.9256166101733771e-06  7.7716453019079771e-06  6.7693610762855659e-06  5.8985993112948008e-06  5.1419790066172570e-06  4.4844862407342870e-06  3.9131680719583195e-06  3.4168387119949435e-06  2.9858477389827230e-06  2.6118661637617631e-06  2.2877217658895928e-06  2.0072325636137839e-06  1.7650908966034437e-06  1.5567430390373343e-06  1.3783003545088489e-06  1.2264519291653040e-06  1.0984022344317022e-06  9.9180610086483427e-07  9.0472757128113929e-07  8.3559891025455347e-07  7.8319728495016330e-07  7.4663800918820394e-07  7.2545297940528418e-07  7.2021927902035532e-07  9.9858642061788305e-01  9.9857568388066575e-01  9.9855281633491166e-01  9.9851696433374348e-01  9.9846705390834234e-01  9.9840192449676446e-01  9.9832018384336851e-01  9.9822011501654451e-01  9.9809961972871009e-01  9.9795617223870137e-01  9.9778679999690001e-01  9.9758809413429950e-01  9.9735628192723913e-01  9.9708738602109270e-01  9.9677751413009541e-01  9.9642331897292202e-01  9.9602267317517801e-01  9.9557556454911511e-01  9.9508518522782552e-01  9.9455908763636991e-01  9.9401018871876878e-01  9.9345728630784935e-01  9.9292471057222875e-01  9.9244081485409330e-01  9.9203523605536814e-01  9.9173519555195255e-01  9.9156151171263673e-01  9.9152531832820845e-01  9.9162639504034822e-01  9.9185357227192639e-01  9.9218702511869006e-01  9.9260179280236305e-01  9.9307156422939513e-01  9.9357186255045360e-01  9.9408210274641184e-01  9.9458646278792040e-01  9.9507378618186104e-01  9.9553687779078592e-01  9.9597152078899787e-01  9.9637547992251785e-01  9.9674764229426882e-01  9.9708738074274916e-01  9.9739416209920262e-01  9.9766737387678750e-01  9.9790629745403325e-01  9.9811014269644460e-01  9.9827804575825518e-01  9.9840894479403275e-01  9.9850126417808394e-01  9.9855240853379390e-01  9.9855805443914236e-01  9.9851114080521652e-01  9.9840048024864669e-01  9.9820894543166927e-01  9.9791133502497498e-01  9.9747245153976694e-01  9.9684682204931852e-01  9.9598230073027227e-01  9.9482989149532974e-01  9.9335961603895062e-01  9.9157756886906334e-01  9.8953798317670449e-01  9.8734107574074070e-01  9.8511438428381859e-01  9.8298525531564329e-01  9.8105549009228521e-01  9.7938749427361582e-01  9.7800341933946422e-01  9.7689294536027749e-01  9.7602470975755273e-01  9.7535733394798474e-01  9.7484842063253596e-01  9.7446069206283625e-01  9.7416541705334392e-01  9.7394266837160171e-01  9.7377931169205301e-01  9.7366632684045196e-01  9.7359686553783154e-01  9.7356512393555072e-01  9.7356580520075653e-01  9.7359373013690687e-01  9.7364370866001004e-01  9.7371058646593733e-01  9.7378961257826124e-01  9.7387692714013741e-01  9.7397011738440553e-01  9.7406840761525981e-01  9.7417226236241672e-01  9.7428243604154630e-01  9.7439921167362020e-01  9.7452190361658220e-01  9.7464867306263703e-01  9.7477650770943414e-01  9.7490150246711005e-01  9.7501927367494523e-01  9.7512559465642312e-01  9.7521714854039365e-01  9.7529236946234499e-01  9.7535182556002631e-01  9.7539805555181125e-01  9.7543488311600168e-01  9.7546652465996120e-01  9.7549652227549766e-01  9.7552689144736515e-01  9.7555783609748847e-01  9.7558814913972569e-01  9.7561568955592792e-01  9.7563754284641491e-01  9.7564990584864397e-01  9.7564837393659909e-01  9.7562877984146323e-01  9.7558847269202509e-01  9.7552737313410198e-01  9.7544848641329640e-01  9.7535752898391659e-01  9.7526191424955211e-01  9.7516944073860989e-01  9.7508708235875097e-01  9.7502002187830072e-01  9.7497124381593603e-01  9.7494148995269925e-01  9.7492948567370896e-01  9.7493230057275626e-01  9.7494582294383025e-01  9.7496494080599616e-01  9.7498377520291524e-01  9.7499622800394137e-01  9.7499684534623265e-01  9.7498134850394025e-01  9.7494662258380949e-01  9.7489024609558061e-01  9.7481007635184147e-01  9.7470405423646311e-01  9.7457044191539233e-01  9.7440849034894583e-01  9.7421982679612096e-01  9.7401039249784804e-01  9.7379262197003125e-01  9.7358730228035895e-01  9.7342486517819993e-01  9.7334573541858016e-01  9.7339963249465578e-01  9.7364326166254789e-01  9.7413628503086402e-01  9.7493528744320823e-01  9.7608517635584291e-01  9.7760758259671587e-01  9.7948801395258334e-01  9.8166539961897592e-01  9.8402998826357524e-01  9.8643624315819600e-01  9.8873064497072849e-01  9.9078470403370666e-01  9.9251965722893043e-01  9.9391271055770636e-01  9.9498488258860485e-01  9.9578047353525301e-01  9.9634899329744486e-01  9.9673450012899301e-01  9.9697149026287046e-01  9.9708449806340749e-01  9.9708927430038019e-01  9.9699438281040609e-01  9.9680274917108358e-01  9.9651300375478524e-01  9.9612061126503026e-01  9.9561879080074711e-01  9.9499923959572123e-01  9.9425268046476045e-01  9.9336929224755310e-01  9.9233916019295931e-01  9.9115297488555687e-01  9.8980328187500666e-01  9.8828656293410178e-01  9.8660626311514410e-01  9.8477671997888394e-01  9.8282779359425421e-01  9.8080972396993493e-01  9.7879688176332491e-01  9.7688821270559145e-01  9.7520182141361089e-01  9.7386244335341510e-01  9.7298281219077609e-01  9.7264295475805596e-01  9.7287294854083473e-01  9.7364501727057606e-01  9.7487847180501797e-01  9.7645576709505999e-01  9.7824311173566614e-01  9.8010931446545313e-01  9.8193921040950749e-01  9.8364104405076636e-01  9.8514836885965651e-01  9.8641736246951262e-01  9.8741937511784117e-01  9.8813132651041691e-01  9.8852977829576361e-01  9.8858551794557659e-01  9.8825766983204810e-01  9.8748947376056073e-01  9.8620630150226096e-01  9.8431984324057353e-01  9.8174140260112530e-01  9.7840793448025587e-01  9.7432182683320800e-01  9.6959803584891602e-01  9.6448768206456281e-01  9.5934766341472766e-01  9.5455302109355977e-01  9.5040028545059474e-01  9.4709269748036107e-01  9.4475774633130161e-01  9.4345574774449892e-01  9.4319695624057487e-01  9.4395630945741926e-01  9.4567675001619889e-01  9.4826742363307748e-01  9.5159443034968250e-01  9.5546180916427903e-01  9.5961659170247893e-01  9.6378050451799413e-01  9.6769176121727052e-01  9.7114729134528488e-01  9.7402284581994580e-01  9.7626848314650527e-01  9.7788690034514603e-01  9.7890741048679697e-01  9.7936547320426448e-01  9.7929111797467538e-01  9.7870516743864544e-01  9.7762169171071911e-01  9.7605511369482134e-01  9.7403253739561246e-01  9.7161118931028179e-01  9.6889825129634866e-01  9.6606664402139109e-01  9.6335838914801974e-01  9.6106247003816292e-01  9.5946075823086741e-01  9.5875777959471986e-01  9.5902280040758170e-01  9.6016842046288509e-01  9.6197326616148815e-01  9.6413877928963898e-01  9.6635260267517564e-01  9.6833466599979345e-01  9.6985541035276235e-01  9.7072904274780936e-01  9.7079135054528110e-01  9.6987334293618432e-01  9.6778015040047516e-01  9.6428279150606799e-01  9.5912617049128412e-01  9.5207793877260782e-01  9.4302828127911742e-01  9.3211927688536189e-01  9.1983850878386042e-01  9.0699251877598908e-01  8.9455868318160259e-01  8.8345615822493417e-01  8.7432060067801309e-01  8.6739011501627594e-01  8.6254905876917454e-01  8.5944811309763203e-01  8.5768898562563611e-01  8.5691155025950183e-01  8.5679641113452598e-01  8.5707304064982526e-01  8.5751949711694031e-01  8.5796660753958487e-01  8.5830158241179422e-01  8.5846621729780082e-01  8.5844609646894598e-01  8.5826056210771440e-01  8.5795510333149072e-01  8.5759261095835038e-01  8.5723701797602680e-01  8.5693506378459894e-01  8.5670826424493385e-01  8.5655708709742073e-01  8.5646840438026572e-01  8.5642074864342510e-01  8.5639044573933099e-01  8.5636518740591261e-01  8.5635789680378405e-01  8.5640972593529308e-01  8.5657287617241151e-01  8.5687944970525642e-01  8.5731965623190065e-01  8.5785363499468903e-01  8.5844453636505569e-01  8.5907843232178827e-01  8.5976454903502186e-01  8.6052486861754474e-01  8.6137996234385128e-01  8.6233828465540441e-01  8.6339213337721010e-01  8.6452010969831627e-01  8.6569014396708777e-01  8.6686606635498964e-01  8.6801980807870860e-01  8.6914633289607690e-01  8.7026936077215122e-01  8.7143791176361285e-01  8.7272764049813278e-01  8.7424793120796296e-01  8.7614113944851935e-01  8.7856387176269257e-01  8.8166208618871744e-01  8.8556124880396814e-01  8.9034575237604885e-01  8.9601614709870836e-01  9.0247284509058734e-01  9.0950999122573695e-01  9.1679669683783493e-01  9.2393707247126722e-01  9.3057076957589202e-01  9.3642703481776057e-01  9.4132875768842694e-01  9.4515713492495823e-01  9.4782401096727464e-01  9.4923386426230560e-01  9.4923082255080682e-01  9.4756930312072840e-01  9.4389127891693703e-01  9.3768852065892916e-01  9.2818474834378928e-01  9.1401717295224516e-01  8.9285315762465822e-01  8.6081297522917311e-01  8.1154654691419859e-01  7.3572715897772833e-01  6.2363934533518139e-01  4.7629318809188137e-01  3.1993396993763407e-01  1.9269994673747920e-01  1.0985911411240128e-01  6.2212933850381492e-02  3.5984185674233019e-02  2.1537579678102138e-02  1.3400636632099942e-02  8.6688662979696393e-03  5.8181474434859824e-03  4.0384631737986126e-03  2.8888647130195025e-03  2.1222361437508146e-03  1.5957927093486937e-03  1.2245025721510593e-03  9.5623651462122222e-04  7.5814795365494562e-04  6.0900062484171228e-04  4.9473117100269778e-04  4.0581554655915348e-04  3.3566851366845322e-04  2.7964789539507655e-04  2.3442219910986911e-04  1.9756033590343655e-04  1.6726082082957675e-04  1.4216934159763789e-04  1.2125425013047554e-04  1.0371985651097750e-04  8.8945450334961687e-05  7.6441573415603339e-05  6.5818535479178874e-05  5.6763119739930785e-05  4.9021527015783807e-05  4.2386437489590057e-05  3.6687317339216072e-05  3.1782923809269094e-05  2.7555633367652890e-05  2.3906890604095613e-05  2.0753770409190205e-05  1.8026167947673641e-05  1.5664598302346398e-05  1.3618401514940239e-05  1.1844328544406635e-05  1.0305330139798720e-05  8.9696276705803042e-06  7.8099010271570594e-06  6.8026350035532759e-06  5.9275598911595404e-06  5.1671998718166062e-06  4.5064640532917418e-06  3.9323299840046104e-06  3.4335568944626949e-06  3.0004430815276503e-06  2.6246201466116046e-06  2.2988784043711327e-06  2.0170065014089133e-06  1.7736695775580290e-06  1.5642930702488518e-06  1.3849683865224099e-06  1.2323698631793902e-06  1.1036877499690303e-06  9.9656606549532512e-07  9.0905880382292550e-07  8.3959057776383524e-07  7.8692947744035509e-07  7.5017448052691315e-07  7.2876634249441472e-07  7.2242720285325838e-07  9.9852055828174890e-01  9.9851114538252062e-01  9.9848755870006101e-01  9.9844972445278390e-01  9.9839681074532705e-01  9.9832764180890010e-01  9.9824072869917735e-01  9.9813420047811263e-01  9.9800575690010318e-01  9.9785260799927711e-01  9.9767145350199604e-01  9.9745847532001675e-01  9.9720941522147211e-01  9.9691972432046305e-01  9.9658488251427213e-01  9.9620088374780613e-01  9.9576499668674101e-01  9.9527675781779124e-01  9.9473923789895802e-01  9.9416037118176404e-01  9.9355418863671718e-01  9.9294146619873791e-01  9.9234943793532171e-01  9.9181010882776122e-01  9.9135718810221307e-01  9.9102178682432085e-01  9.9082779715421165e-01  9.90787983180