<?xml version="1.0"?>
<VTKFile type="UnstructuredGrid"  version="0.1"  >
<UnstructuredGrid>
<Piece  NumberOfPoints="40501" NumberOfCells="80000">
<Points>
<DataArray  type="Float64"  NumberOfComponents="3"  format="ascii">0 0 0  0.0095 0 0  0.019 0 0  0.0285 0 0  0.038 0 0  0.0475 0 0  0.057 0 0  0.06649999999999999 0 0  0.076 0 0  0.08549999999999999 0 0  0.095 0 0  0.1045 0 0  0.114 0 0  0.1235 0 0  0.133 0 0  0.1425 0 0  0.152 0 0  0.1615 0 0  0.171 0 0  0.1805 0 0  0.19 0 0  0.1995 0 0  0.209 0 0  0.2185 0 0  0.228 0 0  0.2375 0 0  0.247 0 0  0.2565 0 0  0.266 0 0  0.2755 0 0  0.285 0 0  0.2945 0 0  0.304 0 0  0.3135 0 0  0.323 0 0  0.3325 0 0  0.342 0 0  0.3515 0 0  0.361 0 0  0.3705 0 0  0.38 0 0  0.3895 0 0  0.399 0 0  0.4085 0 0  0.418 0 0  0.4275 0 0  0.4369999999999999 0 0  0.4465 0 0  0.456 0 0  0.4655 0 0  0.475 0 0  0.4844999999999999 0 0  0.494 0 0  0.5034999999999999 0 0  0.513 0 0  0.5225 0 0  0.5319999999999999 0 0  0.5415 0 0  0.5509999999999999 0 0  0.5605 0 0  0.57 0 0  0.5794999999999999 0 0  0.589 0 0  0.5984999999999999 0 0  0.608 0 0  0.6175 0 0  0.627 0 0  0.6365 0 0  0.6459999999999999 0 0  0.6555 0 0  0.665 0 0  0.6745 0 0  0.6839999999999999 0 0  0.6934999999999999 0 0  0.703 0 0  0.7125 0 0  0.722 0 0  0.7314999999999999 0 0  0.741 0 0  0.7504999999999999 0 0  0.76 0 0  0.7695000000000001 0 0  0.7789999999999999 0 0  0.7885 0 0  0.7979999999999999 0 0  0.8075 0 0  0.8170000000000001 0 0  0.8264999999999999 0 0  0.836 0 0  0.8454999999999999 0 0  0.855 0 0  0.8645 0 0  0.8739999999999999 0 0  0.8835 0 0  0.893 0 0  0.9025 0 0  0.9119999999999999 0 0  0.9214999999999999 0 0  0.9309999999999999 0 0  0.9405 0 0  0.95 0 0  0.9594999999999999 0 0  0.9689999999999999 0 0  0.9784999999999999 0 0  0.988 0 0  0.9975000000000001 0 0  1.007 0 0  1.0165 0 0  1.026 0 0  1.0355 0 0  1.045 0 0  1.0545 0 0  1.064 0 0  1.0735 0 0  1.083 0 0  1.0925 0 0  1.102 0 0  1.1115 0 0  1.121 0 0  1.1305 0 0  1.14 0 0  1.1495 0 0  1.159 0 0  1.1685 0 0  1.178 0 0  1.1875 0 0  1.197 0 0  1.2065 0 0  1.216 0 0  1.2255 0 0  1.235 0 0  1.2445 0 0  1.254 0 0  1.2635 0 0  1.273 0 0  1.2825 0 0  1.292 0 0  1.3015 0 0  1.311 0 0  1.3205 0 0  1.33 0 0  1.3395 0 0  1.349 0 0  1.3585 0 0  1.368 0 0  1.3775 0 0  1.387 0 0  1.3965 0 0  1.406 0 0  1.4155 0 0  1.425 0 0  1.4345 0 0  1.444 0 0  1.4535 0 0  1.463 0 0  1.4725 0 0  1.482 0 0  1.4915 0 0  1.501 0 0  1.5105 0 0  1.52 0 0  1.5295 0 0  1.539 0 0  1.5485 0 0  1.558 0 0  1.5675 0 0  1.577 0 0  1.5865 0 0  1.596 0 0  1.6055 0 0  1.615 0 0  1.6245 0 0  1.634 0 0  1.6435 0 0  1.653 0 0  1.6625 0 0  1.672 0 0  1.6815 0 0  1.691 0 0  1.7005 0 0  1.71 0 0  1.7195 0 0  1.729 0 0  1.7385 0 0  1.748 0 0  1.7575 0 0  1.767 0 0  1.7765 0 0  1.786 0 0  1.7955 0 0  1.805 0 0  1.8145 0 0  1.824 0 0  1.8335 0 0  1.843 0 0  1.8525 0 0  1.862 0 0  1.8715 0 0  1.881 0 0  1.8905 0 0  1.9 0 0  1.9095 0 0  1.919 0 0  1.9285 0 0  1.938 0 0  1.9475 0 0  1.957 0 0  1.9665 0 0  1.976 0 0  1.9855 0 0  1.995 0 0  2.0045 0 0  2.014 0 0  2.0235 0 0  2.033 0 0  2.0425 0 0  2.052 0 0  2.0615 0 0  2.071 0 0  2.0805 0 0  2.09 0 0  2.0995 0 0  2.109 0 0  2.1185 0 0  2.128 0 0  2.1375 0 0  2.147 0 0  2.1565 0 0  2.166 0 0  2.1755 0 0  2.185 0 0  2.1945 0 0  2.204 0 0  2.2135 0 0  2.223 0 0  2.2325 0 0  2.242 0 0  2.2515 0 0  2.261 0 0  2.2705 0 0  2.28 0 0  2.2895 0 0  2.299 0 0  2.3085 0 0  2.318 0 0  2.3275 0 0  2.337 0 0  2.3465 0 0  2.356 0 0  2.3655 0 0  2.375 0 0  2.3845 0 0  2.394 0 0  2.4035 0 0  2.413 0 0  2.4225 0 0  2.432 0 0  2.4415 0 0  2.451 0 0  2.4605 0 0  2.47 0 0  2.4795 0 0  2.489 0 0  2.4985 0 0  2.508 0 0  2.5175 0 0  2.527 0 0  2.5365 0 0  2.546 0 0  2.5555 0 0  2.565 0 0  2.5745 0 0  2.584 0 0  2.5935 0 0  2.603 0 0  2.6125 0 0  2.622 0 0  2.6315 0 0  2.641 0 0  2.6505 0 0  2.66 0 0  2.6695 0 0  2.679 0 0  2.688499999999999 0 0  2.698 0 0  2.7075 0 0  2.717 0 0  2.7265 0 0  2.736 0 0  2.7455 0 0  2.755 0 0  2.7645 0 0  2.774 0 0  2.7835 0 0  2.793 0 0  2.8025 0 0  2.812 0 0  2.8215 0 0  2.831 0 0  2.8405 0 0  2.85 0 0  2.8595 0 0  2.869 0 0  2.8785 0 0  2.888 0 0  2.8975 0 0  2.907 0 0  2.9165 0 0  2.926 0 0  2.9355 0 0  2.945 0 0  2.9545 0 0  2.964 0 0  2.9735 0 0  2.983 0 0  2.9925 0 0  3.002 0 0  3.0115 0 0  3.020999999999999 0 0  3.0305 0 0  3.04 0 0  3.0495 0 0  3.059 0 0  3.0685 0 0  3.078 0 0  3.0875 0 0  3.097 0 0  3.1065 0 0  3.116 0 0  3.1255 0 0  3.135 0 0  3.1445 0 0  3.154 0 0  3.1635 0 0  3.173 0 0  3.1825 0 0  3.192 0 0  3.2015 0 0  3.211 0 0  3.2205 0 0  3.23 0 0  3.2395 0 0  3.249 0 0  3.2585 0 0  3.268 0 0  3.2775 0 0  3.287 0 0  3.2965 0 0  3.306 0 0  3.3155 0 0  3.325 0 0  3.3345 0 0  3.344 0 0  3.353499999999999 0 0  3.363 0 0  3.3725 0 0  3.382 0 0  3.3915 0 0  3.401 0 0  3.4105 0 0  3.42 0 0  3.4295 0 0  3.439 0 0  3.4485 0 0  3.458 0 0  3.4675 0 0  3.477 0 0  3.4865 0 0  3.496 0 0  3.5055 0 0  3.515 0 0  3.5245 0 0  3.534 0 0  3.5435 0 0  3.553 0 0  3.5625 0 0  3.572 0 0  3.5815 0 0  3.591 0 0  3.6005 0 0  3.61 0 0  3.6195 0 0  3.629 0 0  3.6385 0 0  3.648 0 0  3.6575 0 0  3.667 0 0  3.6765 0 0  3.685999999999999 0 0  3.6955 0 0  3.705 0 0  3.7145 0 0  3.724 0 0  3.7335 0 0  3.742999999999999 0 0  3.7525 0 0  3.762 0 0  3.7715 0 0  3.781 0 0  3.7905 0 0  3.8 0 0  0 0.005 0  0.0095 0.005 0  0.019 0.005 0  0.0285 0.005 0  0.038 0.005 0  0.0475 0.005 0  0.057 0.005 0  0.06649999999999999 0.005 0  0.076 0.005 0  0.08549999999999999 0.005 0  0.095 0.005 0  0.1045 0.005 0  0.114 0.005 0  0.1235 0.005 0  0.133 0.005 0  0.1425 0.005 0  0.152 0.005 0  0.1615 0.005 0  0.171 0.005 0  0.1805 0.005 0  0.19 0.005 0  0.1995 0.005 0  0.209 0.005 0  0.2185 0.005 0  0.228 0.005 0  0.2375 0.005 0  0.247 0.005 0  0.2565 0.005 0  0.266 0.005 0  0.2755 0.005 0  0.285 0.005 0  0.2945 0.005 0  0.304 0.005 0  0.3135 0.005 0  0.323 0.005 0  0.3325 0.005 0  0.342 0.005 0  0.3515 0.005 0  0.361 0.005 0  0.3705 0.005 0  0.38 0.005 0  0.3895 0.005 0  0.399 0.005 0  0.4085 0.005 0  0.418 0.005 0  0.4275 0.005 0  0.4369999999999999 0.005 0  0.4465 0.005 0  0.456 0.005 0  0.4655 0.005 0  0.475 0.005 0  0.4844999999999999 0.005 0  0.494 0.005 0  0.5034999999999999 0.005 0  0.513 0.005 0  0.5225 0.005 0  0.5319999999999999 0.005 0  0.5415 0.005 0  0.5509999999999999 0.005 0  0.5605 0.005 0  0.57 0.005 0  0.5794999999999999 0.005 0  0.589 0.005 0  0.5984999999999999 0.005 0  0.608 0.005 0  0.6175 0.005 0  0.627 0.005 0  0.6365 0.005 0  0.6459999999999999 0.005 0  0.6555 0.005 0  0.665 0.005 0  0.6745 0.005 0  0.6839999999999999 0.005 0  0.6934999999999999 0.005 0  0.703 0.005 0  0.7125 0.005 0  0.722 0.005 0  0.7314999999999999 0.005 0  0.741 0.005 0  0.7504999999999999 0.005 0  0.76 0.005 0  0.7695000000000001 0.005 0  0.7789999999999999 0.005 0  0.7885 0.005 0  0.7979999999999999 0.005 0  0.8075 0.005 0  0.8170000000000001 0.005 0  0.8264999999999999 0.005 0  0.836 0.005 0  0.8454999999999999 0.005 0  0.855 0.005 0  0.8645 0.005 0  0.8739999999999999 0.005 0  0.8835 0.005 0  0.893 0.005 0  0.9025 0.005 0  0.9119999999999999 0.005 0  0.9214999999999999 0.005 0  0.9309999999999999 0.005 0  0.9405 0.005 0  0.95 0.005 0  0.9594999999999999 0.005 0  0.9689999999999999 0.005 0  0.9784999999999999 0.005 0  0.988 0.005 0  0.9975000000000001 0.005 0  1.007 0.005 0  1.0165 0.005 0  1.026 0.005 0  1.0355 0.005 0  1.045 0.005 0  1.0545 0.005 0  1.064 0.005 0  1.0735 0.005 0  1.083 0.005 0  1.0925 0.005 0  1.102 0.005 0  1.1115 0.005 0  1.121 0.005 0  1.1305 0.005 0  1.14 0.005 0  1.1495 0.005 0  1.159 0.005 0  1.1685 0.005 0  1.178 0.005 0  1.1875 0.005 0  1.197 0.005 0  1.2065 0.005 0  1.216 0.005 0  1.2255 0.005 0  1.235 0.005 0  1.2445 0.005 0  1.254 0.005 0  1.2635 0.005 0  1.273 0.005 0  1.2825 0.005 0  1.292 0.005 0  1.3015 0.005 0  1.311 0.005 0  1.3205 0.005 0  1.33 0.005 0  1.3395 0.005 0  1.349 0.005 0  1.3585 0.005 0  1.368 0.005 0  1.3775 0.005 0  1.387 0.005 0  1.3965 0.005 0  1.406 0.005 0  1.4155 0.005 0  1.425 0.005 0  1.4345 0.005 0  1.444 0.005 0  1.4535 0.005 0  1.463 0.005 0  1.4725 0.005 0  1.482 0.005 0  1.4915 0.005 0  1.501 0.005 0  1.5105 0.005 0  1.52 0.005 0  1.5295 0.005 0  1.539 0.005 0  1.5485 0.005 0  1.558 0.005 0  1.5675 0.005 0  1.577 0.005 0  1.5865 0.005 0  1.596 0.005 0  1.6055 0.005 0  1.615 0.005 0  1.6245 0.005 0  1.634 0.005 0  1.6435 0.005 0  1.653 0.005 0  1.6625 0.005 0  1.672 0.005 0  1.6815 0.005 0  1.691 0.005 0  1.7005 0.005 0  1.71 0.005 0  1.7195 0.005 0  1.729 0.005 0  1.7385 0.005 0  1.748 0.005 0  1.7575 0.005 0  1.767 0.005 0  1.7765 0.005 0  1.786 0.005 0  1.7955 0.005 0  1.805 0.005 0  1.8145 0.005 0  1.824 0.005 0  1.8335 0.005 0  1.843 0.005 0  1.8525 0.005 0  1.862 0.005 0  1.8715 0.005 0  1.881 0.005 0  1.8905 0.005 0  1.9 0.005 0  1.9095 0.005 0  1.919 0.005 0  1.9285 0.005 0  1.938 0.005 0  1.9475 0.005 0  1.957 0.005 0  1.9665 0.005 0  1.976 0.005 0  1.9855 0.005 0  1.995 0.005 0  2.0045 0.005 0  2.014 0.005 0  2.0235 0.005 0  2.033 0.005 0  2.0425 0.005 0  2.052 0.005 0  2.0615 0.005 0  2.071 0.005 0  2.0805 0.005 0  2.09 0.005 0  2.0995 0.005 0  2.109 0.005 0  2.1185 0.005 0  2.128 0.005 0  2.1375 0.005 0  2.147 0.005 0  2.1565 0.005 0  2.166 0.005 0  2.1755 0.005 0  2.185 0.005 0  2.1945 0.005 0  2.204 0.005 0  2.2135 0.005 0  2.223 0.005 0  2.2325 0.005 0  2.242 0.005 0  2.2515 0.005 0  2.261 0.005 0  2.2705 0.005 0  2.28 0.005 0  2.2895 0.005 0  2.299 0.005 0  2.3085 0.005 0  2.318 0.005 0  2.3275 0.005 0  2.337 0.005 0  2.3465 0.005 0  2.356 0.005 0  2.3655 0.005 0  2.375 0.005 0  2.3845 0.005 0  2.394 0.005 0  2.4035 0.005 0  2.413 0.005 0  2.4225 0.005 0  2.432 0.005 0  2.4415 0.005 0  2.451 0.005 0  2.4605 0.005 0  2.47 0.005 0  2.4795 0.005 0  2.489 0.005 0  2.4985 0.005 0  2.508 0.005 0  2.5175 0.005 0  2.527 0.005 0  2.5365 0.005 0  2.546 0.005 0  2.5555 0.005 0  2.565 0.005 0  2.5745 0.005 0  2.584 0.005 0  2.5935 0.005 0  2.603 0.005 0  2.6125 0.005 0  2.622 0.005 0  2.6315 0.005 0  2.641 0.005 0  2.6505 0.005 0  2.66 0.005 0  2.6695 0.005 0  2.679 0.005 0  2.688499999999999 0.005 0  2.698 0.005 0  2.7075 0.005 0  2.717 0.00
[...]
<PointData  Scalars="rho"> 
<DataArray  type="Float64"  Name="rho"  format="ascii">4.2284567421667829e-01  4.3148002071837138e-01  4.3125250449497893e-01  4.3095006710814576e-01  4.3060225158286625e-01  4.3023186087119331e-01  4.2985424084454132e-01  4.2947880821781304e-01  4.2911087444595758e-01  4.2875282543389764e-01  4.2840511494039613e-01  4.2806697892488710e-01  4.2773700351056365e-01  4.2741335260910618e-01  4.2709416831198160e-01  4.2677756821007429e-01  4.2646182801034005e-01  4.2614536639300032e-01  4.2582688841434368e-01  4.2550521847688988e-01  4.2517949944255817e-01  4.2484897769145646e-01  4.2451312197956903e-01  4.2417148658477988e-01  4.2382383462324397e-01  4.2346994058875231e-01  4.2310977935002192e-01  4.2274331473772997e-01  4.2237061359662498e-01  4.2199172907163512e-01  4.2160683475109301e-01  4.2121602830529731e-01  4.2081954569165636e-01  4.2041754396168091e-01  4.2001024682808141e-01  4.1959781434202892e-01  4.1918048549810411e-01  4.1875840113969043e-01  4.1833180819579513e-01  4.1790086381950475e-01  4.1746576643215616e-01  4.1702664883400076e-01  4.1658372148065703e-01  4.1613708979162362e-01  4.1568697341118171e-01  4.1523349667271681e-01  4.1477684175164892e-01  4.1431712166371870e-01  4.1385452508784515e-01  4.1338914624197848e-01  4.1292118719346937e-01  4.1245076590793306e-01  4.1197804978085445e-01  4.1150314772146301e-01  4.1102625416548261e-01  4.1054746777297446e-01  4.1006700922776929e-01  4.0958500972977757e-01  4.0910166986344876e-01  4.0861712379235093e-01  4.0813159076638400e-01  4.0764519764758506e-01  4.0715818449467400e-01  4.0667070789009463e-01  4.0618297767155659e-01  4.0569514378263233e-01  4.0520743973041173e-01  4.0472000279372022e-01  4.0423308868839436e-01  4.0374685782993996e-01  4.0326153832096251e-01  4.0277728398514706e-01  4.0229432769116091e-01  4.0181280134677372e-01  4.0133294237161771e-01  4.0085489614213132e-01  4.0037885121997285e-01  3.9990492831014557e-01  3.9943331972411744e-01  3.9896411371160195e-01  3.9849750485369723e-01  3.9803358411470086e-01  3.9757249881833184e-01  3.9711431393173152e-01  3.9665916350228048e-01  3.9620707319315018e-01  3.9575816408768572e-01  3.9531245899150258e-01  3.9487001518808296e-01  3.9443081663287477e-01  3.9399491324193359e-01  3.9356224676002655e-01  3.9313285984007745e-01  3.9270668955836141e-01  3.9228372603901374e-01  3.9186387618870128e-01  3.9144711645383073e-01  3.9103331582711054e-01  3.9062243983464867e-01  3.9021435928469472e-01  3.8980898286786869e-01  3.8940615095739467e-01  3.8900577614299214e-01  3.8860766979515837e-01  3.8821175085242232e-01  3.8781784193138469e-01  3.8742582696450506e-01  3.8703551681848747e-01  3.8664680200252893e-01  3.8625947673458383e-01  3.8587344147727293e-01  3.8548851387213157e-01  3.8510455991053422e-01  3.8472138878716583e-01  3.8433889202708710e-01  3.8395687163450404e-01  3.8357524558095218e-01  3.8319384634667741e-01  3.8281257579570160e-01  3.8243127214999567e-01  3.8204985965834365e-01  3.8166817509418832e-01  3.8128616588364556e-01  3.8090370301158127e-01  3.8052071024088635e-01  3.8013705911137963e-01  3.7975270499043579e-01  3.7936751834074334e-01  3.7898148491600508e-01  3.7859450742538325e-01  3.7820655753681165e-01  3.7781754447093785e-01  3.7742746041781017e-01  3.7703621191844039e-01  3.7664381214546883e-01  3.7625019694510947e-01  3.7585535294288086e-01  3.7545921283139555e-01  3.7506178826815600e-01  3.7466300623405679e-01  3.7426290322526135e-01  3.7386143137300204e-01  3.7345860811200265e-01  3.7305438702139271e-01  3.7264879866417944e-01  3.7224178881080666e-01  3.7183340399826798e-01  3.7142361183767386e-01  3.7101242851556826e-01  3.7059981449342755e-01  3.7018580416698110e-01  3.6977034847106838e-01  3.6935350233260755e-01  3.6893523611747758e-01  3.6851558294259129e-01  3.6809451204621568e-01  3.6767206456311285e-01  3.6724819962769528e-01  3.6682297224521293e-01  3.6639635857016262e-01  3.6596838270033749e-01  3.6553901277106404e-01  3.6510828698537501e-01  3.6467616317031709e-01  3.6424269855203961e-01  3.6380786721150260e-01  3.6337170462901475e-01  3.6293418379141018e-01  3.6249534529068078e-01  3.6205515208618355e-01  3.6161365867994061e-01  3.6117084198235794e-01  3.6072672712133058e-01  3.6028128396621562e-01  3.5983454902526679e-01  3.5938648268646767e-01  3.5893714026120183e-01  3.5848649627163903e-01  3.5803458564472057e-01  3.5758138296515035e-01  3.5712692613292485e-01  3.5667118075774340e-01  3.5621419946112076e-01  3.5575595917111003e-01  3.5529648552883436e-01  3.5483575006697332e-01  3.5437378734513569e-01  3.5391056077817323e-01  3.5344612379268459e-01  3.5298045191056454e-01  3.5251357996300098e-01  3.5204548501405752e-01  3.5157620275789286e-01  3.5110570262372237e-01  3.5063403597085913e-01  3.5016118076054348e-01  3.4968716411705647e-01  3.4921196044854919e-01  3.4873560317332813e-01  3.4825806014462257e-01  3.4777938367894629e-01  3.4729955150959879e-01  3.4681859935353493e-01  3.4633650804912736e-01  3.4585331187612200e-01  3.4536898550407791e-01  3.4488357981608264e-01  3.4439707491834626e-01  3.4390950045505303e-01  3.4342083493109243e-01  3.4293111137082549e-01  3.4244030341872839e-01  3.4194846290638520e-01  3.4145557086735451e-01  3.4096166469745448e-01  3.4046673017061235e-01  3.3997080071929092e-01  3.3947385754710979e-01  3.3897595160793892e-01  3.3847706611933759e-01  3.3797723407940966e-01  3.3747643918183057e-01  3.3697471462140982e-01  3.3647204105188444e-01  3.3596847026361581e-01  3.3546398752075118e-01  3.3495863252109825e-01  3.3445239699208945e-01  3.3394531394706056e-01  3.3343737228672349e-01  3.3292862343501051e-01  3.3241905456609755e-01  3.3190870274356227e-01  3.3139755782847025e-01  3.3088565366284034e-01  3.3037297908584340e-01  3.2985958623154837e-01  3.2934546552023625e-01  3.2883065957735608e-01  3.2831516708897268e-01  3.2779902110103842e-01  3.2728221939513302e-01  3.2676481431149679e-01  3.2624679785177146e-01  3.2572821191813933e-01  3.2520905355328961e-01  3.2468935776297575e-01  3.2416912278668997e-01  3.2364840149748153e-01  3.2312719044304072e-01  3.2260553580636292e-01  3.2208344430281599e-01  3.2156094947465014e-01  3.2103805925582646e-01  3.2051482734985454e-01  3.1999125155936092e-01  3.1946737941927478e-01  3.1894321626713434e-01  3.1841879885543456e-01  3.1789413610440992e-01  3.1736928207668030e-01  3.1684424045491827e-01  3.1631906163403439e-01  3.1579376143548465e-01  3.1526837441670458e-01  3.1474291990652631e-01  3.1421745341025970e-01  3.1369197947080096e-01  3.1316655199244070e-01  3.1264118561958271e-01  3.1211591939909367e-01  3.1159077412906167e-01  3.1106580544216472e-01  3.1054102508704712e-01  3.1001648824139938e-01  3.0949222073222765e-01  3.0896825856461430e-01  3.0844463348689927e-01  3.0792140310697780e-01  3.0739857940129273e-01  3.0687622314590229e-01  3.0635435896220398e-01  3.0583302843215132e-01  3.0531226497293046e-01  3.0479212573303172e-01  3.0427263094243651e-01  3.0375384054369459e-01  3.0323579063382783e-01  3.0271851841974390e-01  3.0220206831725616e-01  3.0168649948545911e-01  3.0117183116782326e-01  3.0065813046580731e-01  3.0014543157705709e-01  2.9963377774237243e-01  2.9912321441350365e-01  2.9861379889883150e-01  2.9810555881880990e-01  2.9759855729169715e-01  2.9709283918338697e-01  2.9658844097446024e-01  2.9608541795962262e-01  2.9558382831485347e-01  2.9508369617542757e-01  2.9458509209106748e-01  2.9408805688802786e-01  2.9359263217523390e-01  2.9309887209726015e-01  2.9260683010032906e-01  2.9211653713497959e-01  2.9162805497566080e-01  2.9114143239256357e-01  2.9065670015309614e-01  2.9017391886009208e-01  2.8969313996038770e-01  2.8921438632658336e-01  2.8873772593966773e-01  2.8826319932652023e-01  2.8779083897675389e-01  2.8732069963431273e-01  2.8685282268124379e-01  2.8638723607502869e-01  2.8592399310589450e-01  2.8546314201624856e-01  2.8500469592634486e-01  2.8454871858803510e-01  2.8409524299308891e-01  2.8364429712567041e-01  2.8319593564776646e-01  2.8275021463909122e-01  2.8230714036305127e-01  2.8186678149170147e-01  2.8142916620410874e-01  2.8099431918107964e-01  2.8056229003552158e-01  2.8013313683066815e-01  2.7970686755109320e-01  2.7928354976487690e-01  2.7886320948891563e-01  2.7844586967903739e-01  2.7803158050593924e-01  2.7762039573599284e-01  2.7721234035129405e-01  2.7680749104634439e-01  2.7640587674557809e-01  2.7600755724770815e-01  2.7561258408773370e-01  2.7522104635851796e-01  2.7483297071369450e-01  2.7444848336818473e-01  2.7406764764680980e-01  2.7369055348764743e-01  2.7331731160433431e-01  2.7294805439475639e-01  2.7258285402790650e-01  2.7222187569659567e-01  2.7186522949241060e-01  2.7151303993636738e-01  2.7116546263291819e-01  2.7082267204173077e-01  2.7048478846143104e-01  2.7015201109598819e-01  2.6982448436127704e-01  2.6950236204520961e-01  2.6918582454685575e-01  2.6887506111519655e-01  2.6857022208125542e-01  2.6827151985071573e-01  2.6797909327627112e-01  2.6769312091090541e-01  2.6741375148828311e-01  2.6714117157472039e-01  2.6687547850610188e-01  2.6661687253941541e-01  2.6636545387165317e-01  2.6612134508047747e-01  2.6588466448989190e-01  2.6565553985177143e-01  2.6543400972275999e-01  2.6522020117141742e-01  2.6501415456466620e-01  2.6481592095942913e-01  2.6462556901093109e-01  2.6444318499706104e-01  2.6426879688689975e-01  2.6410252616516983e-01  2.6394444362245467e-01  2.6379466314381139e-01  2.6365335486508101e-01  2.6352074479497040e-01  2.6339707744251589e-01  2.6328272380782541e-01  2.6317805178752823e-01  2.6308356584134296e-01  2.6299981878516687e-01  2.6292749616107663e-01  2.6286726191300280e-01  2.6281996146150083e-01  2.6278632507170074e-01  2.6276712562275434e-01  2.9795898783850422e-01  4.3145943488413635e-01  4.4243588063543587e-01  4.4223307770102332e-01  4.4194804069182531e-01  4.4161193242520597e-01  4.4124896261769625e-01  4.4087570356761635e-01  4.4050248410585946e-01  4.4013533544446254e-01  4.3977711684986975e-01  4.3942867877967096e-01  4.3908946715376906e-01  4.3875825486528802e-01  4.3843327929627801e-01  4.3811275538636124e-01  4.3779479354940670e-01  4.3747770534381925e-01  4.3715985715590749e-01  4.3683996126625235e-01  4.3651678536728494e-01  4.3618946420479621e-01  4.3585718422838893e-01  4.3551941362467811e-01  4.3517564742190784e-01  4.3482564583445188e-01  4.3446913575256846e-01  4.3410608887396063e-01  4.3373642173161053e-01  4.3336021689867460e-01  4.3297747489848110e-01  4.3258838489004087e-01  4.3219300293127683e-01  4.3179157634243232e-01  4.3138422237078899e-01  4.3097118453485983e-01  4.3055258414183689e-01  4.3012867653347409e-01  4.2969957156002592e-01  4.2926552922446920e-01  4.2882667306044259e-01  4.2838322951076396e-01  4.2793528956687632e-01  4.2748308867614704e-01  4.2702669782520969e-01  4.2656635515788943e-01  4.2610215107764510e-01  4.2563429224555105e-01  4.2516285800933507e-01  4.2468805651977209e-01  4.2420995410002638e-01  4.2372876907376700e-01  4.2324458886220001e-01  4.2275761087650182e-01  4.2226790638398187e-01  4.2177569718045571e-01  4.2128105087817957e-01  4.2078420967516939e-01  4.2028527571906177e-01  4.1978447687137194e-01  4.1928192001329967e-01  4.1877784776194421e-01  4.1827236638494708e-01  4.1776573773188552e-01  4.1725809581516132e-01  4.1674968634780191e-01  4.1624063039824977e-01  4.1573119747999193e-01  4.1522150188036261e-01  4.1471183026902819e-01  4.1420232353349662e-01  4.1369324651123252e-01  4.1318473488877600e-01  4.1267705524505888e-01  4.1217032822588534e-01  4.1166482368579205e-01  4.1116067347061525e-01  4.1065811207412228e-01  4.1015723906951218e-01  4.0965829222797034e-01  4.0916134341120186e-01  4.0866662649290197e-01  4.0817421867833020e-01  4.0768431069686611e-01  4.0719695323571997e-01  4.0671231874009361e-01  4.0623042374521157e-01  4.0575142448001583e-01  4.0527533074793992e-01  4.0480224605783621e-01  4.0433213130346091e-01  4.0386508001347926e-01  4.0340101354338398e-01  4.0294001003473806e-01  4.0248198697838028e-01  4.0202697185461239e-01  4.0157484918602743e-01  4.0112562594421536e-01  4.0067915221646844e-01  4.0023541920038519e-01  3.9979427379160970e-01  3.9935565970977216e-01  3.9891938183610676e-01  3.9848538452261273e-01  3.9805344561819078e-01  3.9762350740168229e-01  3.9719535974076253e-01  3.9676891144463028e-01  3.9634393767784742e-01  3.9592034751946364e-01  3.9549790352846736e-01  3.9507652064532806e-01  3.9465598120128165e-01  3.9423617558673918e-01  3.9381686709347624e-01  3.9339797008184568e-01  3.9297924394280437e-01  3.9256062282183390e-01  3.9214189937165317e-01  3.9172299444649733e-01  3.9130370499993467e-01  3.9088396994350000e-01  3.9046359017525600e-01  3.9004252531817257e-01  3.8962060898871764e-01  3.8919778781384234e-01  3.8877388669097829e-01  3.8834888398645412e-01  3.8792260757511765e-01  3.8749506087062413e-01  3.8706610826084104e-01  3.8663574222432079e-01  3.8620383293533661e-01  3.8577039013160802e-01  3.8533528662342809e-01  3.8489855116800736e-01  3.8446008546270538e-01  3.8401990172924744e-01  3.8357788946491128e-01  3.8313408659295822e-01  3.8268838032333397e-01  3.8224082832842848e-01  3.8179134771002887e-01  3.8133997944721465e-01  3.8088664123443206e-01  3.8043138419032790e-01  3.7997412244623824e-01  3.7951492099392137e-01  3.7905371591896631e-01  3.7859055055382890e-01  3.7812534464592668e-01  3.7765816057740398e-01  3.7718891090625933e-01  3.7671767351025587e-01  3.7624438542464944e-01  3.7576910408753406e-01  3.7529176437313655e-01  3.7481242901817530e-01  3.7433102583392835e-01  3.7384762924987219e-01  3.7336218484293077e-01  3.7287474348975491e-01  3.7238523357142811e-01  3.7189372122714698e-01  3.7140012583040183e-01  3.7090452776172017e-01  3.7040686817094792e-01  3.6990720617003342e-01  3.6940548079269669e-01  3.6890175400463282e-01  3.6839595671646380e-01  3.6788816274372976e-01  3.6737831852994374e-01  3.6686647458413185e-01  3.6635256136307753e-01  3.6583664236975511e-01  3.6531863890890548e-01  3.6479862893824166e-01  3.6427655403777381e-01  3.6375247142778633e-01  3.6322632189308135e-01  3.6269816395413601e-01  3.6216793019708277e-01  3.6163569205276741e-01  3.6110139597447399e-01  3.6056509117358382e-01  3.6002671015534082e-01  3.5948631318301677e-01  3.5894382399612773e-01  3.5839931792609586e-01  3.5785273763759567e-01  3.5730413868179750e-01  3.5675346465722640e-01  3.5620077095303604e-01  3.5564599313275275e-01  3.5508920076000272e-01  3.5453034151229329e-01  3.5396946410906982e-01  3.5340650462976264e-01  3.5284152076459607e-01  3.5227444037065930e-01  3.5170533687541256e-01  3.5113415553403204e-01  3.5056095113526287e-01  3.4998567175247736e-01  3.4940837039308054e-01  3.4882898730897188e-01  3.4824759100634645e-01  3.4766413183964562e-01  3.4707865901013674e-01  3.4649111387460224e-01  3.4590155221550328e-01  3.4530990778920512e-01  3.4471625274217943e-01  3.4412053644496943e-01  3.4352281368790011e-01  3.4292303870675850e-01  3.4232126268318258e-01  3.4171743229836282e-01  3.4111161561452552e-01  3.4050376711116748e-01  3.3989393729988099e-01  3.3928207455724813e-01  3.3866823328770207e-01  3.3805235497484210e-01  3.3743451098402905e-01  3.3681465632866159e-01  3.3619284647107361e-01  3.3556904352366718e-01  3.3494329733323258e-01  3.3431556281208541e-01  3.3368590812577215e-01  3.3305429338070025e-01  3.3242077121649477e-01  3.3178529885294306e-01  3.3114792987128744e-01  3.3050861548671284e-01  3.2986742686052722e-01  3.2922432638525317e-01  3.2857937103794088e-01  3.2793253275831641e-01  3.2728386074061605e-01  3.2663332021759633e-01  3.2598098024744232e-01  3.2532680835744382e-01  3.2467086041007087e-01  3.2401310465589267e-01  3.2335359463493762e-01  3.2269229369397751e-01  3.2202927357548217e-01  3.2136450617895923e-01  3.2069805107243221e-01  3.2002989242456809e-01  3.1936007969744468e-01  3.1868859103981434e-01  3.1801549745051366e-01  3.1734077617198964e-01  3.1666448771906913e-01  3.1598661410727391e-01  3.1530720998750150e-01  3.1462625380113768e-01  3.1394381903164026e-01  3.1325988972278157e-01  3.1257452950236242e-01  3.1188773766916639e-01  3.1119956528924747e-01  3.1051000654415750e-01  3.0981913578654535e-01  3.0912694275028668e-01  3.0843349441127943e-01  3.0773878972835966e-01  3.0704288600473595e-01  3.0634578024743925e-01  3.0564754921432824e-01  3.0494819221626362e-01  3.0424777882224063e-01  3.0354632678049442e-01  3.0284389048885757e-01  3.0214048368757662e-01  3.0143618584562804e-01  3.0073100230647704e-01  3.0002500860086551e-01  2.9931822409161501e-01  2.9861071042646903e-01  2.9790248684189524e-01  2.9719363488624123e-01  2.9648417231694590e-01  2.9577417636162368e-01  2.9506368644513337e-01  2.9435276170314922e-01  2.9364143872254284e-01  2.9292980329969837e-01  2.9221787904852425e-01  2.9150575139782686e-01  2.9079346283119489e-01  2.9008108008502470e-01  2.8936864724797018e-01  2.8865625089892272e-01  2.8794392901164173e-01  2.8723176655769189e-01  2.8651982602589188e-01  2.8580817075264081e-01  2.8509686126191586e-01  2.8438598843112678e-01  2.8367559415535371e-01  2.8296577216418067e-01  2.8225658752631871e-01  2.8154810951264675e-01  2.8084040604289756e-01  2.8013356513047705e-01  2.7942764251858471e-01  2.7872272668894710e-01  2.7801889960972231e-01  2.7731622357427360e-01  2.7661477840604615e-01  2.7591465359081158e-01  2.7521590324801060e-01  2.7451862238688590e-01  2.7382289167383522e-01  2.7312877400758906e-01  2.7243635214278716e-01  2.7174570520949870e-01  2.7105689913354647e-01  2.7037001571824887e-01  2.6968515206519666e-01  2.6900235457951038e-01  2.6832171877229916e-01  2.6764331867777380e-01  2.6696722550613300e-01  2.6629352253221139e-01  2.6562232236747862e-01  2.6495366559910366e-01  2.6428766021076378e-01  2.6362437721434884e-01  2.6296389258932573e-01  2.6230628713414728e-01  2.6165168323856214e-01  2.6100012325473659e-01  2.6035172684404112e-01  2.5970656393666680e-01  2.5906471967459910e-01  2.5842628132717660e-01  2.5779137955814935e-01  2.5716007691868970e-01  2.5653252529250331e-01  2.5590880423324969e-01  2.5528905805214425e-01  2.5467339044560361e-01  2.5406199442298694e-01  2.5345496110079391e-01  2.5285251171961232e-01  2.5225479327394229e-01  2.5166201142363542e-01  2.5107435885366053e-01  2.5049211439090141e-01  2.4991544830387899e-01  2.4934466552711360e-01  2.4877999897378991e-01  2.4822173430862438e-01  2.4767015236699125e-01  2.4712561909122066e-01  2.4658839349377817e-01  2.4605886560356457e-01  2.4553733975568581e-01  2.4502417557967240e-01  2.4451971390496893e-01  2.4402437243547645e-01  2.4353846101086932e-01  2.4306242088165037e-01  2.4259655829510243e-01  2.4214127689680259e-01  2.4169688290655550e-01  2.4126379017590249e-01  2.4084224395645201e-01  2.4043263751839489e-01  2.4003520823103103e-01  2.3965025295897294e-01  2.3927798717989396e-01  2.3891870226194131e-01  2.3857250204475516e-01  2.3823962053013428e-01  2.3792013753823227e-01  2.3761417471563009e-01  2.3732179213570415e-01  2.3704312478082112e-01  2.3677815529767601e-01  2.3652700740903249e-01  2.3628968445056728e-01  2.3606627679502776e-01  2.3585685963004599e-01  2.3566163360057985e-01  2.3548073308513795e-01  2.3531450300784454e-01  2.3516321090368095e-01  2.3502734314897364e-01  2.3490736892823011e-01  2.3480399060113519e-01  2.3471782978566763e-01  2.3464976470671159e-01  2.3460054272991462e-01  2.3457094246342547e-01  2.6276290293223054e-01  4.3114269644273095e-01  4.4216174907995109e-01  4.4197648587809235e-01  4.4170602476683929e-01  4.4138212137920158e-01  4.4102919930792245e-01  4.4066397286032366e-01  4.4029713948887139e-01  4.3993490573492877e-01  4.3958043892438003e-01  4.3923473561331472e-01  4.3889749931762306e-01  4.3856757806617758e-01  4.3824342871479738e-01  4.3792329021547161e-01  4.3760543224041448e-01  4.3728817030406647e-01  4.3697001105042260e-01  4.3664962576411259e-01  4.3632591948049670e-01  4.3599796159746118e-01  4.3566503991534500e-01  4.3532656729901148e-01  4.3498213177247685e-01  4.3463142094573787e-01  4.3427426118689610e-01  4.3391054195589113e-01  4.3354025728587237e-0