<?xml version="1.0"?>
<VTKFile type="UnstructuredGrid"  version="0.1"  >
<UnstructuredGrid>
<Piece  NumberOfPoints="40501" NumberOfCells="80000">
<Points>
<DataArray  type="Float64"  NumberOfComponents="3"  format="ascii">0 0 0  0.0095 0 0  0.019 0 0  0.0285 0 0  0.038 0 0  0.0475 0 0  0.057 0 0  0.06649999999999999 0 0  0.076 0 0  0.08549999999999999 0 0  0.095 0 0  0.1045 0 0  0.114 0 0  0.1235 0 0  0.133 0 0  0.1425 0 0  0.152 0 0  0.1615 0 0  0.171 0 0  0.1805 0 0  0.19 0 0  0.1995 0 0  0.209 0 0  0.2185 0 0  0.228 0 0  0.2375 0 0  0.247 0 0  0.2565 0 0  0.266 0 0  0.2755 0 0  0.285 0 0  0.2945 0 0  0.304 0 0  0.3135 0 0  0.323 0 0  0.3325 0 0  0.342 0 0  0.3515 0 0  0.361 0 0  0.3705 0 0  0.38 0 0  0.3895 0 0  0.399 0 0  0.4085 0 0  0.418 0 0  0.4275 0 0  0.4369999999999999 0 0  0.4465 0 0  0.456 0 0  0.4655 0 0  0.475 0 0  0.4844999999999999 0 0  0.494 0 0  0.5034999999999999 0 0  0.513 0 0  0.5225 0 0  0.5319999999999999 0 0  0.5415 0 0  0.5509999999999999 0 0  0.5605 0 0  0.57 0 0  0.5794999999999999 0 0  0.589 0 0  0.5984999999999999 0 0  0.608 0 0  0.6175 0 0  0.627 0 0  0.6365 0 0  0.6459999999999999 0 0  0.6555 0 0  0.665 0 0  0.6745 0 0  0.6839999999999999 0 0  0.6934999999999999 0 0  0.703 0 0  0.7125 0 0  0.722 0 0  0.7314999999999999 0 0  0.741 0 0  0.7504999999999999 0 0  0.76 0 0  0.7695000000000001 0 0  0.7789999999999999 0 0  0.7885 0 0  0.7979999999999999 0 0  0.8075 0 0  0.8170000000000001 0 0  0.8264999999999999 0 0  0.836 0 0  0.8454999999999999 0 0  0.855 0 0  0.8645 0 0  0.8739999999999999 0 0  0.8835 0 0  0.893 0 0  0.9025 0 0  0.9119999999999999 0 0  0.9214999999999999 0 0  0.9309999999999999 0 0  0.9405 0 0  0.95 0 0  0.9594999999999999 0 0  0.9689999999999999 0 0  0.9784999999999999 0 0  0.988 0 0  0.9975000000000001 0 0  1.007 0 0  1.0165 0 0  1.026 0 0  1.0355 0 0  1.045 0 0  1.0545 0 0  1.064 0 0  1.0735 0 0  1.083 0 0  1.0925 0 0  1.102 0 0  1.1115 0 0  1.121 0 0  1.1305 0 0  1.14 0 0  1.1495 0 0  1.159 0 0  1.1685 0 0  1.178 0 0  1.1875 0 0  1.197 0 0  1.2065 0 0  1.216 0 0  1.2255 0 0  1.235 0 0  1.2445 0 0  1.254 0 0  1.2635 0 0  1.273 0 0  1.2825 0 0  1.292 0 0  1.3015 0 0  1.311 0 0  1.3205 0 0  1.33 0 0  1.3395 0 0  1.349 0 0  1.3585 0 0  1.368 0 0  1.3775 0 0  1.387 0 0  1.3965 0 0  1.406 0 0  1.4155 0 0  1.425 0 0  1.4345 0 0  1.444 0 0  1.4535 0 0  1.463 0 0  1.4725 0 0  1.482 0 0  1.4915 0 0  1.501 0 0  1.5105 0 0  1.52 0 0  1.5295 0 0  1.539 0 0  1.5485 0 0  1.558 0 0  1.5675 0 0  1.577 0 0  1.5865 0 0  1.596 0 0  1.6055 0 0  1.615 0 0  1.6245 0 0  1.634 0 0  1.6435 0 0  1.653 0 0  1.6625 0 0  1.672 0 0  1.6815 0 0  1.691 0 0  1.7005 0 0  1.71 0 0  1.7195 0 0  1.729 0 0  1.7385 0 0  1.748 0 0  1.7575 0 0  1.767 0 0  1.7765 0 0  1.786 0 0  1.7955 0 0  1.805 0 0  1.8145 0 0  1.824 0 0  1.8335 0 0  1.843 0 0  1.8525 0 0  1.862 0 0  1.8715 0 0  1.881 0 0  1.8905 0 0  1.9 0 0  1.9095 0 0  1.919 0 0  1.9285 0 0  1.938 0 0  1.9475 0 0  1.957 0 0  1.9665 0 0  1.976 0 0  1.9855 0 0  1.995 0 0  2.0045 0 0  2.014 0 0  2.0235 0 0  2.033 0 0  2.0425 0 0  2.052 0 0  2.0615 0 0  2.071 0 0  2.0805 0 0  2.09 0 0  2.0995 0 0  2.109 0 0  2.1185 0 0  2.128 0 0  2.1375 0 0  2.147 0 0  2.1565 0 0  2.166 0 0  2.1755 0 0  2.185 0 0  2.1945 0 0  2.204 0 0  2.2135 0 0  2.223 0 0  2.2325 0 0  2.242 0 0  2.2515 0 0  2.261 0 0  2.2705 0 0  2.28 0 0  2.2895 0 0  2.299 0 0  2.3085 0 0  2.318 0 0  2.3275 0 0  2.337 0 0  2.3465 0 0  2.356 0 0  2.3655 0 0  2.375 0 0  2.3845 0 0  2.394 0 0  2.4035 0 0  2.413 0 0  2.4225 0 0  2.432 0 0  2.4415 0 0  2.451 0 0  2.4605 0 0  2.47 0 0  2.4795 0 0  2.489 0 0  2.4985 0 0  2.508 0 0  2.5175 0 0  2.527 0 0  2.5365 0 0  2.546 0 0  2.5555 0 0  2.565 0 0  2.5745 0 0  2.584 0 0  2.5935 0 0  2.603 0 0  2.6125 0 0  2.622 0 0  2.6315 0 0  2.641 0 0  2.6505 0 0  2.66 0 0  2.6695 0 0  2.679 0 0  2.688499999999999 0 0  2.698 0 0  2.7075 0 0  2.717 0 0  2.7265 0 0  2.736 0 0  2.7455 0 0  2.755 0 0  2.7645 0 0  2.774 0 0  2.7835 0 0  2.793 0 0  2.8025 0 0  2.812 0 0  2.8215 0 0  2.831 0 0  2.8405 0 0  2.85 0 0  2.8595 0 0  2.869 0 0  2.8785 0 0  2.888 0 0  2.8975 0 0  2.907 0 0  2.9165 0 0  2.926 0 0  2.9355 0 0  2.945 0 0  2.9545 0 0  2.964 0 0  2.9735 0 0  2.983 0 0  2.9925 0 0  3.002 0 0  3.0115 0 0  3.020999999999999 0 0  3.0305 0 0  3.04 0 0  3.0495 0 0  3.059 0 0  3.0685 0 0  3.078 0 0  3.0875 0 0  3.097 0 0  3.1065 0 0  3.116 0 0  3.1255 0 0  3.135 0 0  3.1445 0 0  3.154 0 0  3.1635 0 0  3.173 0 0  3.1825 0 0  3.192 0 0  3.2015 0 0  3.211 0 0  3.2205 0 0  3.23 0 0  3.2395 0 0  3.249 0 0  3.2585 0 0  3.268 0 0  3.2775 0 0  3.287 0 0  3.2965 0 0  3.306 0 0  3.3155 0 0  3.325 0 0  3.3345 0 0  3.344 0 0  3.353499999999999 0 0  3.363 0 0  3.3725 0 0  3.382 0 0  3.3915 0 0  3.401 0 0  3.4105 0 0  3.42 0 0  3.4295 0 0  3.439 0 0  3.4485 0 0  3.458 0 0  3.4675 0 0  3.477 0 0  3.4865 0 0  3.496 0 0  3.5055 0 0  3.515 0 0  3.5245 0 0  3.534 0 0  3.5435 0 0  3.553 0 0  3.5625 0 0  3.572 0 0  3.5815 0 0  3.591 0 0  3.6005 0 0  3.61 0 0  3.6195 0 0  3.629 0 0  3.6385 0 0  3.648 0 0  3.6575 0 0  3.667 0 0  3.6765 0 0  3.685999999999999 0 0  3.6955 0 0  3.705 0 0  3.7145 0 0  3.724 0 0  3.7335 0 0  3.742999999999999 0 0  3.7525 0 0  3.762 0 0  3.7715 0 0  3.781 0 0  3.7905 0 0  3.8 0 0  0 0.005 0  0.0095 0.005 0  0.019 0.005 0  0.0285 0.005 0  0.038 0.005 0  0.0475 0.005 0  0.057 0.005 0  0.06649999999999999 0.005 0  0.076 0.005 0  0.08549999999999999 0.005 0  0.095 0.005 0  0.1045 0.005 0  0.114 0.005 0  0.1235 0.005 0  0.133 0.005 0  0.1425 0.005 0  0.152 0.005 0  0.1615 0.005 0  0.171 0.005 0  0.1805 0.005 0  0.19 0.005 0  0.1995 0.005 0  0.209 0.005 0  0.2185 0.005 0  0.228 0.005 0  0.2375 0.005 0  0.247 0.005 0  0.2565 0.005 0  0.266 0.005 0  0.2755 0.005 0  0.285 0.005 0  0.2945 0.005 0  0.304 0.005 0  0.3135 0.005 0  0.323 0.005 0  0.3325 0.005 0  0.342 0.005 0  0.3515 0.005 0  0.361 0.005 0  0.3705 0.005 0  0.38 0.005 0  0.3895 0.005 0  0.399 0.005 0  0.4085 0.005 0  0.418 0.005 0  0.4275 0.005 0  0.4369999999999999 0.005 0  0.4465 0.005 0  0.456 0.005 0  0.4655 0.005 0  0.475 0.005 0  0.4844999999999999 0.005 0  0.494 0.005 0  0.5034999999999999 0.005 0  0.513 0.005 0  0.5225 0.005 0  0.5319999999999999 0.005 0  0.5415 0.005 0  0.5509999999999999 0.005 0  0.5605 0.005 0  0.57 0.005 0  0.5794999999999999 0.005 0  0.589 0.005 0  0.5984999999999999 0.005 0  0.608 0.005 0  0.6175 0.005 0  0.627 0.005 0  0.6365 0.005 0  0.6459999999999999 0.005 0  0.6555 0.005 0  0.665 0.005 0  0.6745 0.005 0  0.6839999999999999 0.005 0  0.6934999999999999 0.005 0  0.703 0.005 0  0.7125 0.005 0  0.722 0.005 0  0.7314999999999999 0.005 0  0.741 0.005 0  0.7504999999999999 0.005 0  0.76 0.005 0  0.7695000000000001 0.005 0  0.7789999999999999 0.005 0  0.7885 0.005 0  0.7979999999999999 0.005 0  0.8075 0.005 0  0.8170000000000001 0.005 0  0.8264999999999999 0.005 0  0.836 0.005 0  0.8454999999999999 0.005 0  0.855 0.005 0  0.8645 0.005 0  0.8739999999999999 0.005 0  0.8835 0.005 0  0.893 0.005 0  0.9025 0.005 0  0.9119999999999999 0.005 0  0.9214999999999999 0.005 0  0.9309999999999999 0.005 0  0.9405 0.005 0  0.95 0.005 0  0.9594999999999999 0.005 0  0.9689999999999999 0.005 0  0.9784999999999999 0.005 0  0.988 0.005 0  0.9975000000000001 0.005 0  1.007 0.005 0  1.0165 0.005 0  1.026 0.005 0  1.0355 0.005 0  1.045 0.005 0  1.0545 0.005 0  1.064 0.005 0  1.0735 0.005 0  1.083 0.005 0  1.0925 0.005 0  1.102 0.005 0  1.1115 0.005 0  1.121 0.005 0  1.1305 0.005 0  1.14 0.005 0  1.1495 0.005 0  1.159 0.005 0  1.1685 0.005 0  1.178 0.005 0  1.1875 0.005 0  1.197 0.005 0  1.2065 0.005 0  1.216 0.005 0  1.2255 0.005 0  1.235 0.005 0  1.2445 0.005 0  1.254 0.005 0  1.2635 0.005 0  1.273 0.005 0  1.2825 0.005 0  1.292 0.005 0  1.3015 0.005 0  1.311 0.005 0  1.3205 0.005 0  1.33 0.005 0  1.3395 0.005 0  1.349 0.005 0  1.3585 0.005 0  1.368 0.005 0  1.3775 0.005 0  1.387 0.005 0  1.3965 0.005 0  1.406 0.005 0  1.4155 0.005 0  1.425 0.005 0  1.4345 0.005 0  1.444 0.005 0  1.4535 0.005 0  1.463 0.005 0  1.4725 0.005 0  1.482 0.005 0  1.4915 0.005 0  1.501 0.005 0  1.5105 0.005 0  1.52 0.005 0  1.5295 0.005 0  1.539 0.005 0  1.5485 0.005 0  1.558 0.005 0  1.5675 0.005 0  1.577 0.005 0  1.5865 0.005 0  1.596 0.005 0  1.6055 0.005 0  1.615 0.005 0  1.6245 0.005 0  1.634 0.005 0  1.6435 0.005 0  1.653 0.005 0  1.6625 0.005 0  1.672 0.005 0  1.6815 0.005 0  1.691 0.005 0  1.7005 0.005 0  1.71 0.005 0  1.7195 0.005 0  1.729 0.005 0  1.7385 0.005 0  1.748 0.005 0  1.7575 0.005 0  1.767 0.005 0  1.7765 0.005 0  1.786 0.005 0  1.7955 0.005 0  1.805 0.005 0  1.8145 0.005 0  1.824 0.005 0  1.8335 0.005 0  1.843 0.005 0  1.8525 0.005 0  1.862 0.005 0  1.8715 0.005 0  1.881 0.005 0  1.8905 0.005 0  1.9 0.005 0  1.9095 0.005 0  1.919 0.005 0  1.9285 0.005 0  1.938 0.005 0  1.9475 0.005 0  1.957 0.005 0  1.9665 0.005 0  1.976 0.005 0  1.9855 0.005 0  1.995 0.005 0  2.0045 0.005 0  2.014 0.005 0  2.0235 0.005 0  2.033 0.005 0  2.0425 0.005 0  2.052 0.005 0  2.0615 0.005 0  2.071 0.005 0  2.0805 0.005 0  2.09 0.005 0  2.0995 0.005 0  2.109 0.005 0  2.1185 0.005 0  2.128 0.005 0  2.1375 0.005 0  2.147 0.005 0  2.1565 0.005 0  2.166 0.005 0  2.1755 0.005 0  2.185 0.005 0  2.1945 0.005 0  2.204 0.005 0  2.2135 0.005 0  2.223 0.005 0  2.2325 0.005 0  2.242 0.005 0  2.2515 0.005 0  2.261 0.005 0  2.2705 0.005 0  2.28 0.005 0  2.2895 0.005 0  2.299 0.005 0  2.3085 0.005 0  2.318 0.005 0  2.3275 0.005 0  2.337 0.005 0  2.3465 0.005 0  2.356 0.005 0  2.3655 0.005 0  2.375 0.005 0  2.3845 0.005 0  2.394 0.005 0  2.4035 0.005 0  2.413 0.005 0  2.4225 0.005 0  2.432 0.005 0  2.4415 0.005 0  2.451 0.005 0  2.4605 0.005 0  2.47 0.005 0  2.4795 0.005 0  2.489 0.005 0  2.4985 0.005 0  2.508 0.005 0  2.5175 0.005 0  2.527 0.005 0  2.5365 0.005 0  2.546 0.005 0  2.5555 0.005 0  2.565 0.005 0  2.5745 0.005 0  2.584 0.005 0  2.5935 0.005 0  2.603 0.005 0  2.6125 0.005 0  2.622 0.005 0  2.6315 0.005 0  2.641 0.005 0  2.6505 0.005 0  2.66 0.005 0  2.6695 0.005 0  2.679 0.005 0  2.688499999999999 0.005 0  2.698 0.005 0  2.7075 0.005 0  2.717 0.00
[...]
<PointData  Scalars="rho_bar"> 
<DataArray  type="Float64"  Name="rho_bar"  format="ascii">7.9624944109349105e-01  7.9588813609621201e-01  7.9570910322341504e-01  7.9554499294105763e-01  7.9535928012335766e-01  7.9513328269494288e-01  7.9486113524063196e-01  7.9453325192953639e-01  7.9414877202278600e-01  7.9370797830428064e-01  7.9321360639571648e-01  7.9266808230504804e-01  7.9208053490050034e-01  7.9145516910646818e-01  7.9080262874437635e-01  7.9013113048345740e-01  7.8945092856973942e-01  7.8876863198691205e-01  7.8809660588100106e-01  7.8743919967865827e-01  7.8680660941746450e-01  7.8620361170489073e-01  7.8563712782532369e-01  7.8510807343350764e-01  7.8462260528345429e-01  7.8417789386769576e-01  7.8377627445876152e-01  7.8341463990387195e-01  7.8309145395702218e-01  7.8279973400021641e-01  7.8253816361598383e-01  7.8229675064802207e-01  7.8207178142711986e-01  7.8185435610403742e-01  7.8163881178415306e-01  7.8141444857327280e-01  7.8117724143933776e-01  7.8091572876339055e-01  7.8062568877939897e-01  7.8029987501087505e-01  7.7993547493915716e-01  7.7952633252956094e-01  7.7907380722666952e-01  7.7857201495753103e-01  7.7802298504592926e-01  7.7742469611173393e-01  7.7677956000306803e-01  7.7608547531475636e-01  7.7534770485011051e-01  7.7456450566159407e-01  7.7374144273578238e-01  7.7288032784422411e-01  7.7198620428418163e-01  7.7105946845761331e-01  7.7010742536632204e-01  7.6912942800918371e-01  7.6813225415317765e-01  7.6711745499202855e-01  7.6609066893336142e-01  7.6505155003874370e-01  7.6400663442290029e-01  7.6295398094799083e-01  7.6189808964434946e-01  7.6083854142877105e-01  7.5977766842143335e-01  7.5871262571867948e-01  7.5764710629256271e-01  7.5657663935486164e-01  7.5550393970973806e-01  7.5442609554839457e-01  7.5334452365374571e-01  7.5225487309974037e-01  7.5115998278820884e-01  7.5005470283694364e-01  7.4894069241775085e-01  7.4781547058418230e-01  7.4667943772798506e-01  7.4552877934145378e-01  7.4436616453288773e-01  7.4318696994207789e-01  7.4199372515213624e-01  7.4078408073723057e-01  7.3955989699289493e-01  7.3831792172290223e-01  7.3706183469490250e-01  7.3578778520715693e-01  7.3449838762638486e-01  7.3319240668581909e-01  7.3187106179421146e-01  7.3053154982311674e-01  7.2917706006383942e-01  7.2780360860098869e-01  7.2641390284900953e-01  7.2500594719114930e-01  7.2358178460899825e-01  7.2213882950001396e-01  7.2068133145368229e-01  7.1920631227351206e-01  7.1771712763700846e-01  7.1621372735158950e-01  7.1469890860844176e-01  7.1317224189355000e-01  7.1163944298482196e-01  7.1009941462338211e-01  7.0855756872963516e-01  7.0701466065224283e-01  7.0547497865251418e-01  7.0393787138458741e-01  7.0240891500356228e-01  7.0088633324740157e-01  6.9937420266793970e-01  6.9787283392514043e-01  6.9638453824658242e-01  6.9490773695799934e-01  6.9344636523877712e-01  6.9199741046214913e-01  6.9056408776468459e-01  6.8914496916078671e-01  6.8774207626880091e-01  6.8635258970870827e-01  6.8497990670465003e-01  6.8362027054159979e-01  6.8227581983068575e-01  6.8094508708588042e-01  6.7962874451499566e-01  6.7832372315556166e-01  6.7703256809537671e-01  6.7575106786419381e-01  6.7448129599157935e-01  6.7322079387491329e-01  6.7197065033678460e-01  6.7072719763670285e-01  6.6949303592452103e-01  6.6826375618453837e-01  6.6704090135698235e-01  6.6582250397402498e-01  6.6460889722723726e-01  6.6339680005670387e-01  6.6218867372945522e-01  6.6098044749198814e-01  6.5977444996408507e-01  6.5856864622890554e-01  6.5736469957773869e-01  6.5615965216802019e-01  6.5495684188341097e-01  6.5375273068597684e-01  6.5254968289524806e-01  6.5134654079433996e-01  6.5014439579710903e-01  6.4894065938423229e-01  6.4773829286132245e-01  6.4653369273354022e-01  6.4532941761868978e-01  6.4412358887773014e-01  6.4291785492038567e-01  6.4170922052814228e-01  6.4050078421506662e-01  6.3928884987127665e-01  6.3807547707319812e-01  6.3685927466077774e-01  6.3564107341842813e-01  6.3441816822819919e-01  6.3319334817755546e-01  6.3196308603456641e-01  6.3072997858453539e-01  6.2949240464172840e-01  6.2825225266975004e-01  6.2700697361515445e-01  6.2575999869170129e-01  6.2450818762466753e-01  6.2325404202576695e-01  6.2199675983980718e-01  6.2073767908249200e-01  6.1947470880024647e-01  6.1821102781471693e-01  6.1694357915630971e-01  6.1567514557668779e-01  6.1440430853166994e-01  6.1313292110214412e-01  6.1185844363736641e-01  6.1058403446919818e-01  6.0930635442319880e-01  6.0802742727670422e-01  6.0674597149403953e-01  6.0546265174739122e-01  6.0417475903745932e-01  6.0288466911809724e-01  6.0158871463627639e-01  6.0028895769657242e-01  5.9898346220700893e-01  5.9767354458041821e-01  5.9635635649925001e-01  5.9503468546316518e-01  5.9370508795023613e-01  5.9236943633151262e-01  5.9102646917879731e-01  5.8967687717930239e-01  5.8831811912642562e-01  5.8695263116419116e-01  5.8557697587952762e-01  5.8419332933878854e-01  5.8280001403129389e-01  5.8139862667539388e-01  5.7998687085591227e-01  5.7856819235592549e-01  5.7714029340150497e-01  5.7570648818380310e-01  5.7426752639680922e-01  5.7282664416515094e-01  5.7138452429469277e-01  5.6994729591986915e-01  5.6851585279863792e-01  5.6709687271661091e-01  5.6569328724398771e-01  5.6431084279492194e-01  5.6295062272894880e-01  5.6161783982189573e-01  5.6031001843312311e-01  5.5902729982999244e-01  5.5776372895257309e-01  5.5651134545986192e-01  5.5525461661032927e-01  5.5397758765215388e-01  5.5265327977411050e-01  5.5125436563231067e-01  5.4974423725082067e-01  5.4808426949216427e-01  5.4622802436646978e-01  5.4413212065137928e-01  5.4174801304646381e-01  5.3903651094749172e-01  5.3596516591162935e-01  5.3252210343661932e-01  5.2872419644518032e-01  5.2464184096229505e-01  5.2041035007029424e-01  5.1625012029750073e-01  5.1239519790490151e-01  5.0896744927514537e-01  5.0597959613134647e-01  5.0339447703998497e-01  5.0114713196822458e-01  4.9917147399728296e-01  4.9740141365750212e-01  4.9577999548783602e-01  4.9425601330281854e-01  4.9279200697521669e-01  4.9135385695912986e-01  4.8992037516538089e-01  4.8847319773533271e-01  4.8700276355448685e-01  4.8550000087510298e-01  4.8396449691951332e-01  4.8239295216052008e-01  4.8078888742439413e-01  4.7915409240120738e-01  4.7749335830873152e-01  4.7580876872027561e-01  4.7410706519885393e-01  4.7238964247309750e-01  4.7066256796270783e-01  4.6892777049370454e-01  4.6718968877524553e-01  4.6544839414474548e-01  4.6370821009805607e-01  4.6196761402366682e-01  4.6022916446405165e-01  4.5849202862416066e-01  4.5675698940229748e-01  4.5502150441117017e-01  4.5328704681863941e-01  4.5154991964612268e-01  4.4981102323420463e-01  4.4806765635877960e-01  4.4631997678752822e-01  4.4456455201584144e-01  4.4280258008242102e-01  4.4103029503961338e-01  4.3924838506599961e-01  4.3745483322671613e-01  4.3564961566495708e-01  4.3382996176314431e-01  4.3199722688928671e-01  4.3014812273000252e-01  4.2828390148475820e-01  4.2640250630839288e-01  4.2450460457099676e-01  4.2258744932022524e-01  4.2065256254986999e-01  4.1869667084510098e-01  4.1672058689566543e-01  4.1472245232910598e-01  4.1270219883595011e-01  4.1065713808253629e-01  4.0858843592189531e-01  4.0649294040044553e-01  4.0437183768049345e-01  4.0222329150732333e-01  4.0004812727595518e-01  3.9784408969695917e-01  3.9561299160923380e-01  3.9335224899159377e-01  3.9106315373227196e-01  3.8874446668674845e-01  3.8639657942434202e-01  3.8401729244095389e-01  3.8160775629851318e-01  3.7916480914557193e-01  3.7668896253786488e-01  3.7417745721924783e-01  3.7162959098472337e-01  3.6904134818933454e-01  3.6641203303056286e-01  3.6373652172293341e-01  3.6101298525034076e-01  3.5823694596899119e-01  3.5540537748012690e-01  3.5251279349500425e-01  3.4955690008115003e-01  3.4653163660196279e-01  3.4343469377329877e-01  3.4026097348676698e-01  3.3700789592591779e-01  3.3367013381792854e-01  3.3024614057609325e-01  3.2673055003289897e-01  3.2312197533923653e-01  3.1941632703820122e-01  3.1561207664470914e-01  3.1170477588060047e-01  3.0769383422009666e-01  3.0357442166950577e-01  2.9934474910761255e-01  2.9499912322506355e-01  2.9053210019433184e-01  2.8593561450441851e-01  2.8120940032965530e-01  2.7635345432302932e-01  2.7137124515478472e-01  2.6626178116732202e-01  2.6102486920175466e-01  2.5565820282618879e-01  2.5016289177796952e-01  2.4453469358391702e-01  2.3876830358841566e-01  2.3285127801314009e-01  2.2677331963554120e-01  2.2052146813486728e-01  2.1408655513183858e-01  2.0745687019241621e-01  2.0062399897786790e-01  1.9357594666546057e-01  1.8630116921058931e-01  1.7878530355218317e-01  1.7102209356352949e-01  1.6301234579301560e-01  1.5476885554099937e-01  1.4631225730550715e-01  1.3767650750224025e-01  1.2890843534965718e-01  1.2007832880959597e-01  1.1128929731214063e-01  1.0268993287515137e-01  9.4444485210627024e-02  8.6666493666369693e-02  7.9408103342496622e-02  7.2681221075903163e-02  6.6471715416693722e-02  6.0752772765507265e-02  5.5489745088490521e-02  5.0647744422167580e-02  4.6191871468698395e-02  4.2090303536610113e-02  3.8313699227929952e-02  3.4836580957130978e-02  3.1635462964433078e-02  2.8690354721283069e-02  2.5982775597541391e-02  2.3496467198923683e-02  2.1216280576101351e-02  1.9128727197824963e-02  1.7220786456296495e-02  1.5480853522672785e-02  1.3897688148058553e-02  1.2460934841986463e-02  1.1160678930980768e-02  9.9878625518656106e-03  8.9336616920137127e-03  7.9902315899748593e-03  7.1500095151191493e-03  6.4061952905818771e-03  5.7523958278208834e-03  5.1829965005988389e-03  4.6927403388956320e-03  4.2772229491251446e-03  3.9324675207786609e-03  3.6552311536624236e-03  3.4428157116560307e-03  3.2933573297994683e-03  3.2059290984695907e-03  3.1829744767532782e-03  7.9511343153625669e-01  7.9493493289195449e-01  7.9477921330567891e-01  7.9461892462089712e-01  7.9443599388081920e-01  7.9421014478273233e-01  7.9393882016661588e-01  7.9360964472420759e-01  7.9322538316832403e-01  7.9278314539663508e-01  7.9228840596590477e-01  7.9174093510280230e-01  7.9115248358630363e-01  7.9052461744098634e-01  7.8987114165657935e-01  7.8919745341903680e-01  7.8851658601370356e-01  7.8783227629446706e-01  7.8715985311751180e-01  7.8650063625806010e-01  7.8586824648730302e-01  7.8526444871087109e-01  7.8469883418267750e-01  7.8416973383303057e-01  7.8368577497518077e-01  7.8324151872644532e-01  7.8284229704351160e-01  7.8248216877120025e-01  7.8216225530363881e-01  7.8187267605886990e-01  7.8161493449400243e-01  7.8137599627824228e-01  7.8115543089318540e-01  7.8094130441432852e-01  7.8073052342391680e-01  7.8050980698752037e-01  7.8027750314473843e-01  7.8001960056304198e-01  7.7973479061091233e-01  7.7941303333975609e-01  7.7905405235520087e-01  7.7864879063991588e-01  7.7820133041372808e-01  7.7770279723220992e-01  7.7715839901183759e-01  7.7656319672190821e-01  7.7592208604701896e-01  7.7523049575557079e-01  7.7449593799913774e-01  7.7371425674948768e-01  7.7289377430482942e-01  7.7203372739436493e-01  7.7114161196243924e-01  7.7021514919328204e-01  7.6926433254471327e-01  7.6828566740177429e-01  7.6728905565514993e-01  7.6627326057062506e-01  7.6524633990068525e-01  7.6420559515410147e-01  7.6315977271759861e-01  7.6210461063130619e-01  7.6104734394441875e-01  7.5998502552059222e-01  7.5892240292643165e-01  7.5785401916831763e-01  7.5678626704242880e-01  7.5571181736559823e-01  7.5463654322921325e-01  7.5355470633260080e-01  7.5247023012297143e-01  7.5137635830884864e-01  7.5027816113492662e-01  7.4916814676824894e-01  7.4805074801545279e-01  7.4692090439917058e-01  7.4578147994705857e-01  7.4462600995559891e-01  7.4345986598829983e-01  7.4227555997860606e-01  7.4107877529529009e-01  7.3986432565731020e-01  7.3863659703322726e-01  7.3738990948011418e-01  7.3613018875007652e-01  7.3485123212249903e-01  7.3355843780485552e-01  7.3224798505523658e-01  7.3092356314987472e-01  7.2957972438820040e-01  7.2822235912926614e-01  7.2684463805813759e-01  7.2545242328802384e-01  7.2404089881460754e-01  7.2261462980287172e-01  7.2116860932104465e-01  7.1970934057093372e-01  7.1823150643460032e-01  7.1674126051374865e-01  7.1523597904418967e-01  7.1372090583602743e-01  7.1219295093455481e-01  7.1066048163156670e-01  7.0911955296171236e-01  7.0757867130716734e-01  7.0603577269093765e-01  7.0449762500893209e-01  7.0296115691303551e-01  7.0143414557812411e-01  6.9991247249898325e-01  6.9840293235766804e-01  6.9690326883107001e-01  6.9541819321542064e-01  6.9394350918155245e-01  6.9248575519287081e-01  6.9103911550265551e-01  6.8960983185477986e-01  6.8819370137791092e-01  6.8679516259252038e-01  6.8540901106232222e-01  6.8404078852971262e-01  6.8268443649332888e-01  6.8134474086902019e-01  6.8001771961387247e-01  6.7870637849442550e-01  6.7740508333579796e-01  6.7611892077760893e-01  6.7484093319813532e-01  6.7357614696408441e-01  6.7231939175477451e-01  6.7107410811463242e-01  6.6983429985329668e-01  6.6860465575464523e-01  6.6737852331938785e-01  6.6616002468681035e-01  6.6494474783970037e-01  6.6373530103735856e-01  6.6252590974741010e-01  6.6132152833180924e-01  6.6011541670547325e-01  6.5891280392971441e-01  6.5770902822597388e-01  6.5650806727295197e-01  6.5530471636409171e-01  6.5410437370198016e-01  6.5290133624343227e-01  6.5170050789669109e-01  6.5049836647547798e-01  6.4929824381459267e-01  6.4809513179876765e-01  6.4689444430208365e-01  6.4568997660932548e-01  6.4448713535472368e-01  6.4328147594860119e-01  6.4207691739126671e-01  6.4086826876977987e-01  6.3966064767429320e-01  6.3844823946413576e-01  6.3723559475249669e-01  6.3601900512608467e-01  6.3480150286263148e-01  6.3357801128448099e-01  6.3235372816577973e-01  6.3112257836472241e-01  6.2988996028175948e-01  6.2865173880741254e-01  6.2741204108517223e-01  6.2616616684186310e-01  6.2491953363735520e-01  6.2366692351622721e-01  6.2241328654479400e-01  6.2115554372909065e-01  6.1989719840562985e-01  6.1863382799546707e-01  6.1737097118147710e-01  6.1610306332217468e-01  6.1483562553308191e-01  6.1356475698410684e-01  6.1229449471053443e-01  6.1102017150285914e-01  6.0974687949308770e-01  6.0846922840010265e-01  6.0719162863806386e-01  6.0591055264454452e-01  6.0462877572756024e-01  6.0334129157179639e-01  6.0205277917127731e-01  6.0075711049782310e-01  5.9945902817854224e-01  5.9815416873013461e-01  5.9684599375573222e-01  5.9552957947683649e-01  5.9420961648453652e-01  5.9288066369921666e-01  5.9154693937204339e-01  5.9020499507108304e-01  5.8885759643376889e-01  5.8749996225750079e-01  5.8613678569511563e-01  5.8476222280779910e-01  5.8338106376978194e-01  5.8198924858914014e-01  5.8059045437638479e-01  5.7918033813391967e-01  5.7776418163964838e-01  5.7633771166635006e-01  5.7490650385998066e-01  5.7346914709798658e-01  5.7203087331207048e-01  5.7059015775017752e-01  5.6915530999009722e-01  5.6772486450207149e-01  5.6630803899584192e-01  5.6490544243929297e-01  5.6352484915135570e-01  5.6216535608321794e-01  5.6083397317255090e-01  5.5952630960969463e-01  5.5824472984359441e-01  5.5698119120643574e-01  5.5572970950859901e-01  5.5447262220292248e-01  5.5319614403382789e-01  5.5187102873142513e-01  5.5047251327118596e-01  5.4896182048559372e-01  5.4730248594851660e-01  5.4544632641780699e-01  5.4335205006639975e-01  5.4096965042101008e-01  5.3826269400693683e-01  5.3519732190176750e-01  5.3176430043755385e-01  5.2797931628744332e-01  5.2391591662780923e-01  5.1970774720639723e-01  5.1557348481116694e-01  5.1173981885514475e-01  5.0833054652268850e-01  5.0535688955175728e-01  5.0278369377756216e-01  5.0054495247449060e-01  4.9857703473270892e-01  4.9681252186205122e-01  4.9519649851302477e-01  4.9367617538523462e-01  4.9221618107962406e-01  4.9078053020182122e-01  4.8935032645873072e-01  4.8790531494707956e-01  4.8643772228762899e-01  4.8493683138995697e-01  4.8340379774997966e-01  4.8183370971625927e-01  4.8023198999552974e-01  4.7859867412580132e-01  4.7694022384060725e-01  4.7525692404159636e-01  4.7355735635940521e-01  4.7184097291034199e-01  4.7011595927549155e-01  4.6838234945019752e-01  4.6664625357322409e-01  4.6490613376280332e-01  4.6316779471120795e-01  4.6142815734359349e-01  4.5969158915466335e-01  4.5795557372220491e-01  4.5622248615547401e-01  4.5448805784872609e-01  4.5275551623406013e-01  4.5101929778486505e-01  4.4928232306594262e-01  4.4754007104544158e-01  4.4579429690169714e-01  4.4404002532345949e-01  4.4227987317431566e-01  4.4050858518177244e-01  4.3872858528201736e-01  4.3693624758103422e-01  4.3513307939943729e-01  4.3331466364894194e-01  4.3148403964640242e-01  4.2963614163785857e-01  4.2777415997962814e-01  4.2589430684100299e-01  4.2399878368899702e-01  4.2208337749013503e-01  4.2015096710363803e-01  4.1819686185760474e-01  4.1622352485459285e-01  4.1422756686370499e-01  4.1221037245420517e-01  4.1016768890087379e-01  4.0810227498221824e-01  4.0600929482890213e-01  4.0389176441908797e-01  4.0174621567259899e-01  3.9957492271936129e-01  3.9737425514723645e-01  3.9514730469196224e-01  3.9289016410491678e-01  3.9060567240280952e-01  3.8829117107618688e-01  3.8594841406228975e-01  3.8357375391263504e-01  3.8116982967175167e-01  3.7873191920237043e-01  3.7626222551480576e-01  3.7375648140183559e-01  3.7121531051955142e-01  3.6863342642618219e-01  3.6601129162918405e-01  3.6334256092401163e-01  3.6062679179303231e-01  3.5785821047443178e-01  3.5503500879148570e-01  3.5215038093907641e-01  3.4920337073294710e-01  3.4618651298580327e-01  3.4309900429599904e-01  3.3993441877279307e-01  3.3669136304343045e-01  3.3336339658127118e-01  3.2994999756858517e-01  3.2644477195200294e-01  3.2284748617167736e-01  3.1915300279061437e-01  3.1536077153772529e-01  3.1146526741545433e-01  3.0746691274758053e-01  3.0335979978893157e-01  2.9914320903150327e-01  2.9481048870121546e-01  2.9035708919003417e-01  2.8577425091760911e-01  2.8106247324937667e-01  2.7622084034241279e-01  2.7125373838350803e-01  2.6615934992188178e-01  2.6093811105622350e-01  2.5558677558384946e-01  2.5010716735558941e-01  2.4449411202643179e-01  2.3874335306265601e-01  2.3284156271207426e-01  2.2677916810306273e-01  2.2054243775488336e-01  2.1412275830972066e-01  2.0750770486152462e-01  2.0068942330750733e-01  1.9365530764229316e-01  1.8639445357340931e-01  1.7889208324746378e-01  1.7114241492387011e-01  1.6314562805884020e-01  1.5491488645589063e-01  1.4647035718335244e-01  1.3784615184077600e-01  1.2908878186368339e-01  1.2026842979239501e-01  1.1148711026084993e-01  1.0289181209880095e-01  9.4646115614700696e-02  8.6865236532663093e-02  7.9602206315280491e-02  7.2869403687636433e-02  6.6652868809948210e-02  6.0926008170143701e-02  5.5654378105550663e-02  5.0803280156883984e-02  4.6338039895741465e-02  4.2226956278925712e-02  3.8440864132789104e-02  3.4954326629124566e-02  3.1744035629645104e-02  2.8790041313416559e-02  2.6073986646570180e-02  2.3579609483388140e-02  2.1291843335758832e-02  1.9197144296045233e-02  1.7282570273504709e-02  1.5536455767078733e-02  1.3947632000053096e-02  1.2505659087759335e-02  1.1200674528571352e-02  1.0023522175271667e-02  8.9654233009382502e-03  8.0184666322083691e-03  7.1751205410435131e-03  6.4285188796307591e-03  5.7722886534806138e-03  5.2007523322444666e-03  4.7086684107056362e-03  4.2915942937874589e-03  3.9455661573652859e-03  3.6672961941755502e-03  3.4540955735773778e-03  3.3040161272072217e-03  3.2158519523575917e-03  3.1891081389633234e-03  7.9221201868313107e-01  7.9211642603704779e-01  7.9198666937395068e-01  7.9183847968940935e-01  7.9165820400637521e-01  7.9143672447409186e-01  7.9116372118880141e-01  7.9083610577994790e-01  7.9044873556067863e-01  7.9000546764382262e-01  7.8950526265971999e-01  7.8895572134468706e-01  7.8836057188107489e-01  7.8772998889981771e-01  7.8707017791595213e-01  7.8639333719078319e-01  7.8570590954768060e-01  7.8501967788652105e-01  7.8434163504327248e-01  7.8368214653177415e-01  7.8304660529743542e-01  7.8244392527068130e-01  7.8187679494709572e-01  7.8135129272294612e-01  7.8086802150399059e-01  7.8042985032165635e-01  7.8003436235262191e-01  7.79682213219