<?xml version="1.0"?>
<VTKFile type="UnstructuredGrid"  version="0.1"  >
<UnstructuredGrid>
<Piece  NumberOfPoints="40501" NumberOfCells="80000">
<Points>
<DataArray  type="Float64"  NumberOfComponents="3"  format="ascii">0 0 0  0.0095 0 0  0.019 0 0  0.0285 0 0  0.038 0 0  0.0475 0 0  0.057 0 0  0.06649999999999999 0 0  0.076 0 0  0.08549999999999999 0 0  0.095 0 0  0.1045 0 0  0.114 0 0  0.1235 0 0  0.133 0 0  0.1425 0 0  0.152 0 0  0.1615 0 0  0.171 0 0  0.1805 0 0  0.19 0 0  0.1995 0 0  0.209 0 0  0.2185 0 0  0.228 0 0  0.2375 0 0  0.247 0 0  0.2565 0 0  0.266 0 0  0.2755 0 0  0.285 0 0  0.2945 0 0  0.304 0 0  0.3135 0 0  0.323 0 0  0.3325 0 0  0.342 0 0  0.3515 0 0  0.361 0 0  0.3705 0 0  0.38 0 0  0.3895 0 0  0.399 0 0  0.4085 0 0  0.418 0 0  0.4275 0 0  0.4369999999999999 0 0  0.4465 0 0  0.456 0 0  0.4655 0 0  0.475 0 0  0.4844999999999999 0 0  0.494 0 0  0.5034999999999999 0 0  0.513 0 0  0.5225 0 0  0.5319999999999999 0 0  0.5415 0 0  0.5509999999999999 0 0  0.5605 0 0  0.57 0 0  0.5794999999999999 0 0  0.589 0 0  0.5984999999999999 0 0  0.608 0 0  0.6175 0 0  0.627 0 0  0.6365 0 0  0.6459999999999999 0 0  0.6555 0 0  0.665 0 0  0.6745 0 0  0.6839999999999999 0 0  0.6934999999999999 0 0  0.703 0 0  0.7125 0 0  0.722 0 0  0.7314999999999999 0 0  0.741 0 0  0.7504999999999999 0 0  0.76 0 0  0.7695000000000001 0 0  0.7789999999999999 0 0  0.7885 0 0  0.7979999999999999 0 0  0.8075 0 0  0.8170000000000001 0 0  0.8264999999999999 0 0  0.836 0 0  0.8454999999999999 0 0  0.855 0 0  0.8645 0 0  0.8739999999999999 0 0  0.8835 0 0  0.893 0 0  0.9025 0 0  0.9119999999999999 0 0  0.9214999999999999 0 0  0.9309999999999999 0 0  0.9405 0 0  0.95 0 0  0.9594999999999999 0 0  0.9689999999999999 0 0  0.9784999999999999 0 0  0.988 0 0  0.9975000000000001 0 0  1.007 0 0  1.0165 0 0  1.026 0 0  1.0355 0 0  1.045 0 0  1.0545 0 0  1.064 0 0  1.0735 0 0  1.083 0 0  1.0925 0 0  1.102 0 0  1.1115 0 0  1.121 0 0  1.1305 0 0  1.14 0 0  1.1495 0 0  1.159 0 0  1.1685 0 0  1.178 0 0  1.1875 0 0  1.197 0 0  1.2065 0 0  1.216 0 0  1.2255 0 0  1.235 0 0  1.2445 0 0  1.254 0 0  1.2635 0 0  1.273 0 0  1.2825 0 0  1.292 0 0  1.3015 0 0  1.311 0 0  1.3205 0 0  1.33 0 0  1.3395 0 0  1.349 0 0  1.3585 0 0  1.368 0 0  1.3775 0 0  1.387 0 0  1.3965 0 0  1.406 0 0  1.4155 0 0  1.425 0 0  1.4345 0 0  1.444 0 0  1.4535 0 0  1.463 0 0  1.4725 0 0  1.482 0 0  1.4915 0 0  1.501 0 0  1.5105 0 0  1.52 0 0  1.5295 0 0  1.539 0 0  1.5485 0 0  1.558 0 0  1.5675 0 0  1.577 0 0  1.5865 0 0  1.596 0 0  1.6055 0 0  1.615 0 0  1.6245 0 0  1.634 0 0  1.6435 0 0  1.653 0 0  1.6625 0 0  1.672 0 0  1.6815 0 0  1.691 0 0  1.7005 0 0  1.71 0 0  1.7195 0 0  1.729 0 0  1.7385 0 0  1.748 0 0  1.7575 0 0  1.767 0 0  1.7765 0 0  1.786 0 0  1.7955 0 0  1.805 0 0  1.8145 0 0  1.824 0 0  1.8335 0 0  1.843 0 0  1.8525 0 0  1.862 0 0  1.8715 0 0  1.881 0 0  1.8905 0 0  1.9 0 0  1.9095 0 0  1.919 0 0  1.9285 0 0  1.938 0 0  1.9475 0 0  1.957 0 0  1.9665 0 0  1.976 0 0  1.9855 0 0  1.995 0 0  2.0045 0 0  2.014 0 0  2.0235 0 0  2.033 0 0  2.0425 0 0  2.052 0 0  2.0615 0 0  2.071 0 0  2.0805 0 0  2.09 0 0  2.0995 0 0  2.109 0 0  2.1185 0 0  2.128 0 0  2.1375 0 0  2.147 0 0  2.1565 0 0  2.166 0 0  2.1755 0 0  2.185 0 0  2.1945 0 0  2.204 0 0  2.2135 0 0  2.223 0 0  2.2325 0 0  2.242 0 0  2.2515 0 0  2.261 0 0  2.2705 0 0  2.28 0 0  2.2895 0 0  2.299 0 0  2.3085 0 0  2.318 0 0  2.3275 0 0  2.337 0 0  2.3465 0 0  2.356 0 0  2.3655 0 0  2.375 0 0  2.3845 0 0  2.394 0 0  2.4035 0 0  2.413 0 0  2.4225 0 0  2.432 0 0  2.4415 0 0  2.451 0 0  2.4605 0 0  2.47 0 0  2.4795 0 0  2.489 0 0  2.4985 0 0  2.508 0 0  2.5175 0 0  2.527 0 0  2.5365 0 0  2.546 0 0  2.5555 0 0  2.565 0 0  2.5745 0 0  2.584 0 0  2.5935 0 0  2.603 0 0  2.6125 0 0  2.622 0 0  2.6315 0 0  2.641 0 0  2.6505 0 0  2.66 0 0  2.6695 0 0  2.679 0 0  2.688499999999999 0 0  2.698 0 0  2.7075 0 0  2.717 0 0  2.7265 0 0  2.736 0 0  2.7455 0 0  2.755 0 0  2.7645 0 0  2.774 0 0  2.7835 0 0  2.793 0 0  2.8025 0 0  2.812 0 0  2.8215 0 0  2.831 0 0  2.8405 0 0  2.85 0 0  2.8595 0 0  2.869 0 0  2.8785 0 0  2.888 0 0  2.8975 0 0  2.907 0 0  2.9165 0 0  2.926 0 0  2.9355 0 0  2.945 0 0  2.9545 0 0  2.964 0 0  2.9735 0 0  2.983 0 0  2.9925 0 0  3.002 0 0  3.0115 0 0  3.020999999999999 0 0  3.0305 0 0  3.04 0 0  3.0495 0 0  3.059 0 0  3.0685 0 0  3.078 0 0  3.0875 0 0  3.097 0 0  3.1065 0 0  3.116 0 0  3.1255 0 0  3.135 0 0  3.1445 0 0  3.154 0 0  3.1635 0 0  3.173 0 0  3.1825 0 0  3.192 0 0  3.2015 0 0  3.211 0 0  3.2205 0 0  3.23 0 0  3.2395 0 0  3.249 0 0  3.2585 0 0  3.268 0 0  3.2775 0 0  3.287 0 0  3.2965 0 0  3.306 0 0  3.3155 0 0  3.325 0 0  3.3345 0 0  3.344 0 0  3.353499999999999 0 0  3.363 0 0  3.3725 0 0  3.382 0 0  3.3915 0 0  3.401 0 0  3.4105 0 0  3.42 0 0  3.4295 0 0  3.439 0 0  3.4485 0 0  3.458 0 0  3.4675 0 0  3.477 0 0  3.4865 0 0  3.496 0 0  3.5055 0 0  3.515 0 0  3.5245 0 0  3.534 0 0  3.5435 0 0  3.553 0 0  3.5625 0 0  3.572 0 0  3.5815 0 0  3.591 0 0  3.6005 0 0  3.61 0 0  3.6195 0 0  3.629 0 0  3.6385 0 0  3.648 0 0  3.6575 0 0  3.667 0 0  3.6765 0 0  3.685999999999999 0 0  3.6955 0 0  3.705 0 0  3.7145 0 0  3.724 0 0  3.7335 0 0  3.742999999999999 0 0  3.7525 0 0  3.762 0 0  3.7715 0 0  3.781 0 0  3.7905 0 0  3.8 0 0  0 0.005 0  0.0095 0.005 0  0.019 0.005 0  0.0285 0.005 0  0.038 0.005 0  0.0475 0.005 0  0.057 0.005 0  0.06649999999999999 0.005 0  0.076 0.005 0  0.08549999999999999 0.005 0  0.095 0.005 0  0.1045 0.005 0  0.114 0.005 0  0.1235 0.005 0  0.133 0.005 0  0.1425 0.005 0  0.152 0.005 0  0.1615 0.005 0  0.171 0.005 0  0.1805 0.005 0  0.19 0.005 0  0.1995 0.005 0  0.209 0.005 0  0.2185 0.005 0  0.228 0.005 0  0.2375 0.005 0  0.247 0.005 0  0.2565 0.005 0  0.266 0.005 0  0.2755 0.005 0  0.285 0.005 0  0.2945 0.005 0  0.304 0.005 0  0.3135 0.005 0  0.323 0.005 0  0.3325 0.005 0  0.342 0.005 0  0.3515 0.005 0  0.361 0.005 0  0.3705 0.005 0  0.38 0.005 0  0.3895 0.005 0  0.399 0.005 0  0.4085 0.005 0  0.418 0.005 0  0.4275 0.005 0  0.4369999999999999 0.005 0  0.4465 0.005 0  0.456 0.005 0  0.4655 0.005 0  0.475 0.005 0  0.4844999999999999 0.005 0  0.494 0.005 0  0.5034999999999999 0.005 0  0.513 0.005 0  0.5225 0.005 0  0.5319999999999999 0.005 0  0.5415 0.005 0  0.5509999999999999 0.005 0  0.5605 0.005 0  0.57 0.005 0  0.5794999999999999 0.005 0  0.589 0.005 0  0.5984999999999999 0.005 0  0.608 0.005 0  0.6175 0.005 0  0.627 0.005 0  0.6365 0.005 0  0.6459999999999999 0.005 0  0.6555 0.005 0  0.665 0.005 0  0.6745 0.005 0  0.6839999999999999 0.005 0  0.6934999999999999 0.005 0  0.703 0.005 0  0.7125 0.005 0  0.722 0.005 0  0.7314999999999999 0.005 0  0.741 0.005 0  0.7504999999999999 0.005 0  0.76 0.005 0  0.7695000000000001 0.005 0  0.7789999999999999 0.005 0  0.7885 0.005 0  0.7979999999999999 0.005 0  0.8075 0.005 0  0.8170000000000001 0.005 0  0.8264999999999999 0.005 0  0.836 0.005 0  0.8454999999999999 0.005 0  0.855 0.005 0  0.8645 0.005 0  0.8739999999999999 0.005 0  0.8835 0.005 0  0.893 0.005 0  0.9025 0.005 0  0.9119999999999999 0.005 0  0.9214999999999999 0.005 0  0.9309999999999999 0.005 0  0.9405 0.005 0  0.95 0.005 0  0.9594999999999999 0.005 0  0.9689999999999999 0.005 0  0.9784999999999999 0.005 0  0.988 0.005 0  0.9975000000000001 0.005 0  1.007 0.005 0  1.0165 0.005 0  1.026 0.005 0  1.0355 0.005 0  1.045 0.005 0  1.0545 0.005 0  1.064 0.005 0  1.0735 0.005 0  1.083 0.005 0  1.0925 0.005 0  1.102 0.005 0  1.1115 0.005 0  1.121 0.005 0  1.1305 0.005 0  1.14 0.005 0  1.1495 0.005 0  1.159 0.005 0  1.1685 0.005 0  1.178 0.005 0  1.1875 0.005 0  1.197 0.005 0  1.2065 0.005 0  1.216 0.005 0  1.2255 0.005 0  1.235 0.005 0  1.2445 0.005 0  1.254 0.005 0  1.2635 0.005 0  1.273 0.005 0  1.2825 0.005 0  1.292 0.005 0  1.3015 0.005 0  1.311 0.005 0  1.3205 0.005 0  1.33 0.005 0  1.3395 0.005 0  1.349 0.005 0  1.3585 0.005 0  1.368 0.005 0  1.3775 0.005 0  1.387 0.005 0  1.3965 0.005 0  1.406 0.005 0  1.4155 0.005 0  1.425 0.005 0  1.4345 0.005 0  1.444 0.005 0  1.4535 0.005 0  1.463 0.005 0  1.4725 0.005 0  1.482 0.005 0  1.4915 0.005 0  1.501 0.005 0  1.5105 0.005 0  1.52 0.005 0  1.5295 0.005 0  1.539 0.005 0  1.5485 0.005 0  1.558 0.005 0  1.5675 0.005 0  1.577 0.005 0  1.5865 0.005 0  1.596 0.005 0  1.6055 0.005 0  1.615 0.005 0  1.6245 0.005 0  1.634 0.005 0  1.6435 0.005 0  1.653 0.005 0  1.6625 0.005 0  1.672 0.005 0  1.6815 0.005 0  1.691 0.005 0  1.7005 0.005 0  1.71 0.005 0  1.7195 0.005 0  1.729 0.005 0  1.7385 0.005 0  1.748 0.005 0  1.7575 0.005 0  1.767 0.005 0  1.7765 0.005 0  1.786 0.005 0  1.7955 0.005 0  1.805 0.005 0  1.8145 0.005 0  1.824 0.005 0  1.8335 0.005 0  1.843 0.005 0  1.8525 0.005 0  1.862 0.005 0  1.8715 0.005 0  1.881 0.005 0  1.8905 0.005 0  1.9 0.005 0  1.9095 0.005 0  1.919 0.005 0  1.9285 0.005 0  1.938 0.005 0  1.9475 0.005 0  1.957 0.005 0  1.9665 0.005 0  1.976 0.005 0  1.9855 0.005 0  1.995 0.005 0  2.0045 0.005 0  2.014 0.005 0  2.0235 0.005 0  2.033 0.005 0  2.0425 0.005 0  2.052 0.005 0  2.0615 0.005 0  2.071 0.005 0  2.0805 0.005 0  2.09 0.005 0  2.0995 0.005 0  2.109 0.005 0  2.1185 0.005 0  2.128 0.005 0  2.1375 0.005 0  2.147 0.005 0  2.1565 0.005 0  2.166 0.005 0  2.1755 0.005 0  2.185 0.005 0  2.1945 0.005 0  2.204 0.005 0  2.2135 0.005 0  2.223 0.005 0  2.2325 0.005 0  2.242 0.005 0  2.2515 0.005 0  2.261 0.005 0  2.2705 0.005 0  2.28 0.005 0  2.2895 0.005 0  2.299 0.005 0  2.3085 0.005 0  2.318 0.005 0  2.3275 0.005 0  2.337 0.005 0  2.3465 0.005 0  2.356 0.005 0  2.3655 0.005 0  2.375 0.005 0  2.3845 0.005 0  2.394 0.005 0  2.4035 0.005 0  2.413 0.005 0  2.4225 0.005 0  2.432 0.005 0  2.4415 0.005 0  2.451 0.005 0  2.4605 0.005 0  2.47 0.005 0  2.4795 0.005 0  2.489 0.005 0  2.4985 0.005 0  2.508 0.005 0  2.5175 0.005 0  2.527 0.005 0  2.5365 0.005 0  2.546 0.005 0  2.5555 0.005 0  2.565 0.005 0  2.5745 0.005 0  2.584 0.005 0  2.5935 0.005 0  2.603 0.005 0  2.6125 0.005 0  2.622 0.005 0  2.6315 0.005 0  2.641 0.005 0  2.6505 0.005 0  2.66 0.005 0  2.6695 0.005 0  2.679 0.005 0  2.688499999999999 0.005 0  2.698 0.005 0  2.7075 0.005 0  2.717 0.00
[...]
<PointData  Scalars="rho_bar"> 
<DataArray  type="Float64"  Name="rho_bar"  format="ascii">9.9999999945501739e-01  1.0000000001864320e+00  1.0000000010334056e+00  1.0000000011422812e+00  9.9999999862552114e-01  9.9999999508323634e-01  9.9999999794679439e-01  1.0000000114154624e+00  1.0000000172591466e+00  9.9999998365007536e-01  9.9999993484134175e-01  9.9999998649690325e-01  1.0000001693786189e+00  1.0000001957883913e+00  9.9999974395731384e-01  9.9999920835928979e-01  9.9999961998264320e-01  1.0000012017072617e+00  1.0000025567092696e+00  1.0000021700958115e+00  1.0000002784641453e+00  9.9999848532859126e-01  9.9999801121051168e-01  9.9999879141338366e-01  9.9999972858003428e-01  9.9999972470876775e-01  9.9999887628816175e-01  9.9999827295153210e-01  9.9999848949230397e-01  9.9999906959206697e-01  9.9999946317115185e-01  9.9999962518399010e-01  9.9999972016511340e-01  9.9999981519910741e-01  9.9999989687955404e-01  9.9999994889071997e-01  9.9999997265669249e-01  9.9999998151610370e-01  9.9999998717926497e-01  9.9999999238976478e-01  9.9999999576786136e-01  9.9999999741165702e-01  9.9999999847730991e-01  9.9999999894400704e-01  9.9999999966734610e-01  9.9999999987448673e-01  9.9999999771418002e-01  1.0000000059630689e+00  9.9999999281444285e-01  9.9999998485887820e-01  1.0000000799939650e+00  9.9999989860236116e-01  9.9999977370612525e-01  1.0000008345139020e+00  1.0000002584501384e+00  9.9999622539231903e-01  9.9999788738448847e-01  1.0000104635091041e+00  1.0000210864458317e+00  1.0000195126419220e+00  1.0000111609859579e+00  1.0000008614616360e+00  9.9998695995663522e-01  9.9997065306073651e-01  9.9995682935587860e-01  9.9994866956777995e-01  9.9994609241991583e-01  9.9994736451742994e-01  9.9995070179936274e-01  9.9995482643774203e-01  9.9995888386926646e-01  9.9996233554933478e-01  9.9996494020357085e-01  9.9996668446587744e-01  9.9996765106698537e-01  9.9996793272629603e-01  9.9996763878503525e-01  9.9996692447927105e-01  9.9996597570741952e-01  9.9996497725468736e-01  9.9996409389111363e-01  9.9996343312575287e-01  9.9996300202882715e-01  9.9996272515588613e-01  9.9996251760230215e-01  9.9996233334010720e-01  9.9996216186793097e-01  9.9996200857718420e-01  9.9996187631750388e-01  9.9996175086209993e-01  9.9996161610746126e-01  9.9996148907050364e-01  9.9996140923390475e-01  9.9996138453917138e-01  9.9996137530260121e-01  9.9996132698993900e-01  9.9996119481407864e-01  9.9996094609599939e-01  9.9996056698589131e-01  9.9996008579095286e-01  9.9995958058265999e-01  9.9995912603259085e-01  9.9995873769145871e-01  9.9995842387413536e-01  9.9995826357762929e-01  9.9995834101937220e-01  9.9995862695292304e-01  9.9995899065460381e-01  9.9995929054906696e-01  9.9995942271332927e-01  9.9995933819974825e-01  9.9995905120852924e-01  9.9995861569286804e-01  9.9995808675112452e-01  9.9995750967120334e-01  9.9995693384824602e-01  9.9995642621914005e-01  9.9995606346380883e-01  9.9995589385274386e-01  9.9995590284737779e-01  9.9995603309237657e-01  9.9995622818741636e-01  9.9995642068986845e-01  9.9995649059664538e-01  9.9995629957664955e-01  9.9995578627440618e-01  9.9995500477218857e-01  9.9995407425867744e-01  9.9995311151457245e-01  9.9995220674258034e-01  9.9995144161842398e-01  9.9995090595178804e-01  9.9995069296543670e-01  9.9995089044955998e-01  9.9995156671373009e-01  9.9995273979831112e-01  9.9995434294812313e-01  9.9995621036862559e-01  9.9995808906824513e-01  9.9995959963504144e-01  9.9996003929918065e-01  9.9995808082552273e-01  9.9995172347342209e-01  9.9993908309493917e-01  9.9992063301895673e-01  9.9990202135578066e-01  9.9989199759032332e-01  9.9989387497066129e-01  9.9990424804954581e-01  9.9992231930833864e-01  9.9994855980127328e-01  9.9997486568328597e-01  9.9999125470438899e-01  9.9999766452425165e-01  9.9999947032324565e-01  9.9999989938970868e-01  9.9999997163623111e-01  9.9999999206632717e-01  1.0000000098043655e+00  9.9999999127159989e-01  9.9999995010512277e-01  1.0000000310278743e+00  1.0000001934764144e+00  9.9999999393170780e-01  9.9999937343904277e-01  9.9999936185905569e-01  1.0000008508043023e+00  1.0000026623630196e+00  1.0000020406812076e+00  9.9999770659822662e-01  9.9999217765772741e-01  9.9999051197950994e-01  9.9999590397770710e-01  1.0000060361521612e+00  1.0000143567587541e+00  1.0000154260898653e+00  1.0000086883801267e+00  9.9999735907692400e-01  9.9998497981086798e-01  9.9997347597951591e-01  9.9996344186685371e-01  9.9995535236797795e-01  9.9995062392295775e-01  9.9995161270745192e-01  9.9995955668492831e-01  9.9997183828823177e-01  9.9998309610186376e-01  9.9999026598793161e-01  9.9999435508900547e-01  9.9999704745244122e-01  9.9999869635510075e-01  9.9999945526643119e-01  9.9999976897879561e-01  9.9999991306920466e-01  9.9999997306427824e-01  9.9999996213120501e-01  9.9999999630363789e-01  1.0000001045976643e+00  9.9999981437575658e-01  9.9999965011489778e-01  1.0000010352163657e+00  1.0000013390870195e+00  9.9999654195995435e-01  9.9999248206255253e-01  9.9999966734994084e-01  1.0000152419487962e+00  1.0000245968563879e+00  1.0000176786019819e+00  9.9999290253730289e-01  9.9995197943625402e-01  9.9989979695967390e-01  9.9984457284208061e-01  9.9979201533015205e-01  9.9974607832224605e-01  9.9971965980375888e-01  9.9972955054349921e-01  9.9977840933000717e-01  9.9985186532750536e-01  9.9992409789855163e-01  9.9997154133869692e-01  9.9999178892362162e-01  9.9999782573784590e-01  9.9999939499060286e-01  9.9999984855157908e-01  1.0000001043321449e+00  9.9999956772174670e-01  9.9999974936116942e-01  1.0000021459377986e+00  9.9999889300242295e-01  9.9999176155419889e-01  1.0000057024944726e+00  1.0000279689100664e+00  1.0000001453546252e+00  9.9993269315098754e-01  9.9989878063830917e-01  9.9989393732227416e-01  9.9985441335581871e-01  9.9978481205564362e-01  9.9975005595909550e-01  9.9977993624071704e-01  9.9984918694091640e-01  9.9991991650152956e-01  9.9996753884748568e-01  9.9998914554370133e-01  9.9999652119209159e-01  9.9999896760536788e-01  9.9999965843463112e-01  9.9999998214611563e-01  9.9999982913444696e-01  9.9999966302678189e-01  1.0000012451534894e+00  9.9999943313885298e-01  9.9999461402211631e-01  1.0000058920051997e+00  1.0000197798146007e+00  9.9998859806079421e-01  9.9993260154404118e-01  9.9991515677733878e-01  9.9991266014506897e-01  9.9984227823947136e-01  9.9968258989731529e-01  9.9949264064726884e-01  9.9934642363155024e-01  9.9927896068477184e-01  9.9928065300035163e-01  9.9932219189917526e-01  9.9937710379695466e-01  9.9942929358361932e-01  9.9947150362077941e-01  9.9950174658504376e-01  9.9952063662987645e-01  9.9952994759675096e-01  9.9953187546244993e-01  9.9952853259490515e-01  9.9952173623475671e-01  9.9951316939666845e-01  9.9950448945565185e-01  9.9949707476603100e-01  9.9949170665472420e-01  9.9948853444642316e-01  9.9948729267430103e-01  9.9948753138776825e-01  9.9948876168976974e-01  9.9949054516101810e-01  9.9949250270855583e-01  9.9949431576570547e-01  9.9949580086343814e-01  9.9949689928788110e-01  9.9949750231069412e-01  9.9949739952939676e-01  9.9949647252586193e-01  9.9949485789697823e-01  9.9949294274876266e-01  9.9949132644880845e-01  9.9949077496190186e-01  9.9949206332144647e-01  9.9949575393351453e-01  9.9950203448421460e-01  9.9951055381029230e-01  9.9952021879369490e-01  9.9952918724951845e-01  9.9953518161204225e-01  9.9953592069554986e-01  9.9952957532283360e-01  9.9951525879925918e-01  9.9949336707250513e-01  9.9946556249454455e-01  9.9943402999980502e-01  9.9939966052888463e-01  9.9936381475053837e-01  9.9934124546819580e-01  9.9936701193980537e-01  9.9946768495948635e-01  9.9962555792333874e-01  9.9978795021654587e-01  9.9990720215010731e-01  9.9996947785817114e-01  9.9999205616473363e-01  9.9999804796303560e-01  9.9999952931341274e-01  9.9999987190493433e-01  9.9999995309915124e-01  9.9999998328007855e-01  9.9999998948169144e-01  9.9999999475529822e-01  9.9999988772564596e-01  1.0000007271622164e+00  9.9999600769243358e-01  1.0000157903580587e+00  9.9995690049843167e-01  1.0000191542667332e+00  1.0005979121238056e+00  9.9552826482255441e-01  1.0169368324100574e+00  8.7562480892952532e-01  9.5696523149255058e-02  1.2010432917714039e-03  2.3201729790093279e-04  8.7772002982352076e-05  -1.0958841116967816e-05  1.9398846104793297e-06  1.0186616520911001e-07  -4.5448412899607081e-08  1.6139945185069956e-08  -7.7014736879439485e-10  4.0533048325792997e-11  1.7020248106881119e-10  -9.0877053255008033e-12  1.4128376590949229e-11  3.0929110633215913e-12  1.8202697230315914e-12  9.7705948652289814e-13  5.2868047992822142e-13  3.2558624637816504e-13  2.0500236428287781e-13  1.3706157524004272e-13  9.4996221109963882e-14  6.8202944030124568e-14  5.0385699234637032e-14  3.8112088865694554e-14  2.9444093577205000e-14  2.3116837485767114e-14  1.8407306071089876e-14  1.4833975688244839e-14  1.2081344610950297e-14  9.9267137483151746e-15  8.2172356441812146e-15  6.8014790050196864e-15  5.7238472364141592e-15  4.7954365250979043e-15  4.0532705889362577e-15  3.4443433853566456e-15  2.9160208589651701e-15  2.4709514498079086e-15  2.1307379452156540e-15  1.8077369530361590e-15  1.5388731732469761e-15  1.3290208906246953e-15  1.1406873193012234e-15  9.7121245820791511e-16  8.3095551748529437e-16  7.2845503438667575e-16  6.0774846548833078e-16  5.3757462781757157e-16  4.7432302722229033e-16  4.0284441078662793e-16  3.4830373253151823e-16  2.9842651252304005e-16  2.6595886589587974e-16  2.2158711097463427e-16  2.1392930153734863e-16  1.5885583327496945e-16  1.8124730056261876e-16  1.2988144627110027e-16  1.0968536675106281e-16  1.1091641454043286e-16  1.1107934808603327e-16  1.1101141396553599e-16  1.1102340219249887e-16  1.1102233773638397e-16  1.1102217667765451e-16  1.0000000013357961e+00  1.0000000001922431e+00  9.9999999879077350e-01  9.9999999721184718e-01  9.9999999926688143e-01  1.0000000064284045e+00  1.0000000096428929e+00  9.9999999275532281e-01  9.9999996469683694e-01  9.9999998499598919e-01  1.0000000865149534e+00  1.0000001215635117e+00  9.9999986304495747e-01  9.9999953122434426e-01  9.9999991330633553e-01  1.0000011317043940e+00  1.0000015212315956e+00  9.9999933566240329e-01  9.9999581568973295e-01  9.9999451845364451e-01  9.9999694141966666e-01  1.0000007202233097e+00  1.0000025339596188e+00  1.0000011554234793e+00  9.9999798904402215e-01  9.9999584755716153e-01  9.9999632876511402e-01  9.9999814205599247e-01  9.9999915951884888e-01  9.9999913382733241e-01  9.9999907202601879e-01  9.9999936546893498e-01  9.9999971223167350e-01  9.9999989327372829e-01  9.9999993986980229e-01  9.9999994213511145e-01  9.9999995076904169e-01  9.9999997078502012e-01  9.9999998707638682e-01  9.9999999330672817e-01  9.9999999508551451e-01  9.9999999688124075e-01  9.9999999835879705e-01  9.9999999892716351e-01  9.9999999981545118e-01  9.9999999861339062e-01  1.0000000011694692e+00  1.0000000015727502e+00  9.9999998446467975e-01  1.0000000410718137e+00  9.9999996741669261e-01  9.9999985031461425e-01  1.0000005262995335e+00  9.9999978478936447e-01  9.9999769282016648e-01  1.0000029935901458e+00  1.0000092250785413e+00  9.9999361580591817e-01  9.9996472408601400e-01  9.9995323943139447e-01  9.9995679502851631e-01  9.9995165721891244e-01  9.9993314115832155e-01  9.9991238262395576e-01  9.9989833919812121e-01  9.9989344956904769e-01  9.9989580217295693e-01  9.9990196801086828e-01  9.9990891068744259e-01  9.9991468054483623e-01  9.9991852058925845e-01  9.9992054264098562e-01  9.9992115927253977e-01  9.9992072188297421e-01  9.9991951496301235e-01  9.9991786357429668e-01  9.9991611227977972e-01  9.9991450770455803e-01  9.9991315758365662e-01  9.9991208193885672e-01  9.9991123315212260e-01  9.9991050988591035e-01  9.9990984243649106e-01  9.9990925337656544e-01  9.9990879177363534e-01  9.9990845033559850e-01  9.9990817696131717e-01  9.9990792520672767e-01  9.9990767036863204e-01  9.9990741780027126e-01  9.9990719473582756e-01  9.9990698461256100e-01  9.9990668789514703e-01  9.9990620975575550e-01  9.9990554760808603e-01  9.9990475779280452e-01  9.9990389699909632e-01  9.9990303093286304e-01  9.9990225307007274e-01  9.9990165353717519e-01  9.9990125503467908e-01  9.9990102489041655e-01  9.9990098678749750e-01  9.9990121226998829e-01  9.9990161233113983e-01  9.9990190585119987e-01  9.9990188823288517e-01  9.9990156853896639e-01  9.9990102969260808e-01  9.9990033059484384e-01  9.9989952904829815e-01  9.9989868173818131e-01  9.9989783288062595e-01  9.9989704745590402e-01  9.9989642130213618e-01  9.9989603438715047e-01  9.9989589691298808e-01  9.9989592981831865e-01  9.9989599868296852e-01  9.9989598960679960e-01  9.9989582897892637e-01  9.9989541920156577e-01  9.9989463720415406e-01  9.9989347041184451e-01  9.9989208308886179e-01  9.9989068038622941e-01  9.9988936975456488e-01  9.9988820716859428e-01  9.9988731956164278e-01  9.9988693882303237e-01  9.9988731679755272e-01  9.9988861545910246e-01  9.9989085067160011e-01  9.9989385875514802e-01  9.9989725399979723e-01  9.9990044551203161e-01  9.9990274489603437e-01  9.9990351123747734e-01  9.9990224470425559e-01  9.9989864302463871e-01  9.9989283277929319e-01  9.9988589986386767e-01  9.9988037972161969e-01  9.9987981474567944e-01  9.9988631290760099e-01  9.9989592035575647e-01  9.9989746741570029e-01  9.9988650718394023e-01  9.9988038198719564e-01  9.9989928013384766e-01  9.9993658466103974e-01  9.9996997391994946e-01  9.9998909626460408e-01  9.9999711075628039e-01  9.9999946577279908e-01  9.9999987041993632e-01  9.9999996836194771e-01  1.0000000022349858e+00  9.9999998492419206e-01  9.9999997778315408e-01  1.0000000607008128e+00  1.0000000727692613e+00  9.9999975788221562e-01  9.9999964401797137e-01  1.0000005831180885e+00  1.0000016051759864e+00  1.0000001695181839e+00  9.9999620368906150e-01  9.9999421501191532e-01  9.9999911747536374e-01  1.0000097835264845e+00  1.0000175378212972e+00  1.0000123185021093e+00  9.9999196222138864e-01  9.9996518706095683e-01  9.9994381095970775e-01  9.9993228929007338e-01  9.9992594687333158e-01  9.9991823117847078e-01  9.9990801301817722e-01  9.9990066078222628e-01  9.9990347273439273e-01  9.9991932453086407e-01  9.9994302615619091e-01  9.9996413299013787e-01  9.9997587193350546e-01  9.9998117238979090e-01  9.9998654761274786e-01  9.9999276177152829e-01  9.9999684686090184e-01  9.9999851662453065e-01  9.9999930471902676e-01  9.9999974954755977e-01  9.9999991065347615e-01  9.9999994822020155e-01  9.9999998062817441e-01  1.0000000541494309e+00  9.9999987570059046e-01  9.9999987525708378e-01  1.0000007801408237e+00  9.9999981876450261e-01  9.9999654327040632e-01  1.0000005779127628e+00  1.0000127055248027e+00  1.0000112142384787e+00  9.9998422120984787e-01  9.9995244706268493e-01  9.9994084843636788e-01  9.9995319797468341e-01  9.9997933048843535e-01  1.0000037755674189e+00  1.0000052595837710e+00  9.9996697712835014e-01  9.9989433173603504e-01  9.9980976770260943e-01  9.9974257795619403e-01  9.9973617090358002e-01  9.9980848427727176e-01  9.9990533559009598e-01  9.9996616812779360e-01  9.9998986883258867e-01  9.9999748465876226e-01  9.9999938406247246e-01  9.9999989135222667e-01  9.9999972316413144e-01  9.9999985520286250e-01  1.0000013158370997e+00  9.9999843906521702e-01  9.9999565954593317e-01  1.0000105018164878e+00  1.0000115075337173e+00  9.9996047132499055e-01  9.9994945407770586e-01  1.0000586512909948e+00  1.0001551131930579e+00  1.0001106098895713e+00  9.9998912011502072e-01  9.9986346505713808e-01  9.9975313180681580e-01  9.9972351460163300e-01  9.9980080007437111e-01  9.9990295412893526e-01  9.9996210426423116e-01  9.9998620910511149e-01  9.9999602082118144e-01  9.9999888555193817e-01  9.9999962868870473e-01  9.9999987731381512e-01  9.9999970502000224e-01  1.0000006673263306e+00  9.9999962312583823e-01  9.9999694492187774e-01  1.0000066511371537e+00  1.0000065417561643e+00  9.9996784012049278e-01  9.9997313340281657e-01  1.0000753079374052e+00  1.0001356131944510e+00  1.0000472246081977e+00  9.9986948799405306e-01  9.9966658241067918e-01  9.9946815076011908e-01  9.9932168940509236e-01  9.9925865271065473e-01  9.9926800558023832e-01  9.9931882358490831e-01  9.9938379726720750e-01  9.9944650305266491e-01  9.9949944144976810e-01  9.9954031539088106e-01  9.9956928335011253e-01  9.9958733560053659e-01  9.9959551614990361e-01  9.9959507799286007e-01  9.9958808262952381e-01  9.9957736630075233e-01  9.9956573498612378e-01  9.9955527661086008e-01  9.9954725034000647e-01  9.9954225225191318e-01  9.9954025475212538e-01  9.9954061473608258e-01  9.9954227889061897e-01  9.9954420323380455e-01  9.9954580142939320e-01  9.9954718229791861e-01  9.9954878931107960e-01  9.9955072905727338e-01  9.9955257042660406e-01  9.9955375379313172e-01  9.9955394075891102e-01  9.9955305512309356e-01  9.9955126268171979e-01  9.9954896806975713e-01  9.9954672520037724e-01  9.9954519893718208e-01  9.9954518240323087e-01  9.9954743808862589e-01  9.9955229283962199e-01  9.9955945572534755e-01  9.9956818217955834e-01  9.9957737504250577e-01  9.9958544677366001e-01  9.9959001702471184e-01  9.9958738635210620e-01  9.9957217675586107e-01  9.9953790496348160e-01  9.9947972501973337e-01  9.9940134771357403e-01  9.9932487867365782e-01  9.9928660106792455e-01  9.9930909203663820e-01  9.9939403055621268e-01  9.9954289979844679e-01  9.9973042777840693e-01  9.9988487981992380e-01  9.9996353441954233e-01  9.9999019840540271e-01  9.9999780300854102e-01  9.9999950502913693e-01  9.9999982966299072e-01  9.9999995462407321e-01  9.9999996369580502e-01  9.9999998055970518e-01  9.9999997777252170e-01  1.0000000271946006e+00  9.9999986542412023e-01  9.9999987892972919e-01  1.0000035892086208e+00  9.9997193293504816e-01  1.0001375144373201e+00  9.9951408249349072e-01  1.0007774961371410e+00  1.0008764810144966e+00  9.1036400867170708e-01  1.2067378398046678e-01  -3.4861014735143420e-03  1.7716320379059475e-03  -1.4329814498224456e-04  9.2624995421407448e-06  3.7404470140285233e-06  -9.3344656671952248e-07  1.6883745891154736e-07  -4.1671897125969055e-09  -3.0278916973310150e-09  1.5754810020956448e-09  -2.1395020891506275e-10  5.5529621777777168e-11  8.7488378467960662e-12  2.6640515452683514e-12  2.2566771254554518e-12  8.8725213713454319e-13  5.6383535773564667e-13  3.2634575062846217e-13  2.0894111707049515e-13  1.3873350429653481e-13  9.6141534783487976e-14  6.8926857580535407e-14  5.0881739756005217e-14  3.8451091833492915e-14  2.9671326682515869e-14  2.3280679071691553e-14  1.8536594858853993e-14  1.4934304374954210e-14  1.2165753034355924e-14  9.9869427427426312e-15  8.2482312321927960e-15  6.8634858171816372e-15  5.7574541298038290e-15  4.8372142297134009e-15  4.0817904695183242e-15  3.4313751952501879e-15  2.9326989381624040e-15  2.4859995230671021e-15  2.1221018537196977e-15  1.8111655003103981e-15  1.5528399641755244e-15  1.3365785202387105e-15  1.1233034916379094e-15  9.8101978144173418e-16  8.4139824236764989e-16  7.1604652487850014e-16  6.1660127051644413e-16  5.5434182389247402e-16  4.7032332294066570e-16  3.9395174689826070e-16  3.4414173541220659e-16  3.0328868325316745e-16  2.7065731936430890e-16  2.1110988167105297e-16  2.1980597005621724e-16  1.5476835629121953e-16  1.7363020381412020e-16  1.3745997688765362e-16  1.0458546787983483e-16  1.1209331623632052e-16  1.1090889749894257e-16  1.1102295876508306e-16  1.1102523897415280e-16  1.1102149337250039e-16  1.1102251875838080e-16  9.9999999595335098e-01  9.9999999787441451e-01  1.0000000007555157e+00  1.0000000073900666e+00  1.0000000085558263e+00  9.9999999178409904e-01  9.9999996622047393e-01  9.9999998266192558e-01  1.0000000756823415e+00  1.0000001276883264e+00  9.9999990720374488e-01  9.9999954396535295e-01  9.9999984811659171e-01  1.0000011519578256e+00  1.0000014961432091e+00  9.9999837889783927e-01  9.9999436307450729e-01  9.9999705506931869e-01  1.0000084549173962e+00  1.0000183989664888e+00  1.0000157281858277e+00  1.0000024475291156e+00  9.9999037378915423e-01  9.9998806797012307e-01  9.9999511271469066e-01  1.0000037881840425e+00  1.0000055584154399e+00  1.0