<?xml version="1.0"?>
<VTKFile type="UnstructuredGrid"  version="0.1"  >
<UnstructuredGrid>
<Piece  NumberOfPoints="40501" NumberOfCells="80000">
<Points>
<DataArray  type="Float64"  NumberOfComponents="3"  format="ascii">0 0 0  0.0095 0 0  0.019 0 0  0.0285 0 0  0.038 0 0  0.0475 0 0  0.057 0 0  0.06649999999999999 0 0  0.076 0 0  0.08549999999999999 0 0  0.095 0 0  0.1045 0 0  0.114 0 0  0.1235 0 0  0.133 0 0  0.1425 0 0  0.152 0 0  0.1615 0 0  0.171 0 0  0.1805 0 0  0.19 0 0  0.1995 0 0  0.209 0 0  0.2185 0 0  0.228 0 0  0.2375 0 0  0.247 0 0  0.2565 0 0  0.266 0 0  0.2755 0 0  0.285 0 0  0.2945 0 0  0.304 0 0  0.3135 0 0  0.323 0 0  0.3325 0 0  0.342 0 0  0.3515 0 0  0.361 0 0  0.3705 0 0  0.38 0 0  0.3895 0 0  0.399 0 0  0.4085 0 0  0.418 0 0  0.4275 0 0  0.4369999999999999 0 0  0.4465 0 0  0.456 0 0  0.4655 0 0  0.475 0 0  0.4844999999999999 0 0  0.494 0 0  0.5034999999999999 0 0  0.513 0 0  0.5225 0 0  0.5319999999999999 0 0  0.5415 0 0  0.5509999999999999 0 0  0.5605 0 0  0.57 0 0  0.5794999999999999 0 0  0.589 0 0  0.5984999999999999 0 0  0.608 0 0  0.6175 0 0  0.627 0 0  0.6365 0 0  0.6459999999999999 0 0  0.6555 0 0  0.665 0 0  0.6745 0 0  0.6839999999999999 0 0  0.6934999999999999 0 0  0.703 0 0  0.7125 0 0  0.722 0 0  0.7314999999999999 0 0  0.741 0 0  0.7504999999999999 0 0  0.76 0 0  0.7695000000000001 0 0  0.7789999999999999 0 0  0.7885 0 0  0.7979999999999999 0 0  0.8075 0 0  0.8170000000000001 0 0  0.8264999999999999 0 0  0.836 0 0  0.8454999999999999 0 0  0.855 0 0  0.8645 0 0  0.8739999999999999 0 0  0.8835 0 0  0.893 0 0  0.9025 0 0  0.9119999999999999 0 0  0.9214999999999999 0 0  0.9309999999999999 0 0  0.9405 0 0  0.95 0 0  0.9594999999999999 0 0  0.9689999999999999 0 0  0.9784999999999999 0 0  0.988 0 0  0.9975000000000001 0 0  1.007 0 0  1.0165 0 0  1.026 0 0  1.0355 0 0  1.045 0 0  1.0545 0 0  1.064 0 0  1.0735 0 0  1.083 0 0  1.0925 0 0  1.102 0 0  1.1115 0 0  1.121 0 0  1.1305 0 0  1.14 0 0  1.1495 0 0  1.159 0 0  1.1685 0 0  1.178 0 0  1.1875 0 0  1.197 0 0  1.2065 0 0  1.216 0 0  1.2255 0 0  1.235 0 0  1.2445 0 0  1.254 0 0  1.2635 0 0  1.273 0 0  1.2825 0 0  1.292 0 0  1.3015 0 0  1.311 0 0  1.3205 0 0  1.33 0 0  1.3395 0 0  1.349 0 0  1.3585 0 0  1.368 0 0  1.3775 0 0  1.387 0 0  1.3965 0 0  1.406 0 0  1.4155 0 0  1.425 0 0  1.4345 0 0  1.444 0 0  1.4535 0 0  1.463 0 0  1.4725 0 0  1.482 0 0  1.4915 0 0  1.501 0 0  1.5105 0 0  1.52 0 0  1.5295 0 0  1.539 0 0  1.5485 0 0  1.558 0 0  1.5675 0 0  1.577 0 0  1.5865 0 0  1.596 0 0  1.6055 0 0  1.615 0 0  1.6245 0 0  1.634 0 0  1.6435 0 0  1.653 0 0  1.6625 0 0  1.672 0 0  1.6815 0 0  1.691 0 0  1.7005 0 0  1.71 0 0  1.7195 0 0  1.729 0 0  1.7385 0 0  1.748 0 0  1.7575 0 0  1.767 0 0  1.7765 0 0  1.786 0 0  1.7955 0 0  1.805 0 0  1.8145 0 0  1.824 0 0  1.8335 0 0  1.843 0 0  1.8525 0 0  1.862 0 0  1.8715 0 0  1.881 0 0  1.8905 0 0  1.9 0 0  1.9095 0 0  1.919 0 0  1.9285 0 0  1.938 0 0  1.9475 0 0  1.957 0 0  1.9665 0 0  1.976 0 0  1.9855 0 0  1.995 0 0  2.0045 0 0  2.014 0 0  2.0235 0 0  2.033 0 0  2.0425 0 0  2.052 0 0  2.0615 0 0  2.071 0 0  2.0805 0 0  2.09 0 0  2.0995 0 0  2.109 0 0  2.1185 0 0  2.128 0 0  2.1375 0 0  2.147 0 0  2.1565 0 0  2.166 0 0  2.1755 0 0  2.185 0 0  2.1945 0 0  2.204 0 0  2.2135 0 0  2.223 0 0  2.2325 0 0  2.242 0 0  2.2515 0 0  2.261 0 0  2.2705 0 0  2.28 0 0  2.2895 0 0  2.299 0 0  2.3085 0 0  2.318 0 0  2.3275 0 0  2.337 0 0  2.3465 0 0  2.356 0 0  2.3655 0 0  2.375 0 0  2.3845 0 0  2.394 0 0  2.4035 0 0  2.413 0 0  2.4225 0 0  2.432 0 0  2.4415 0 0  2.451 0 0  2.4605 0 0  2.47 0 0  2.4795 0 0  2.489 0 0  2.4985 0 0  2.508 0 0  2.5175 0 0  2.527 0 0  2.5365 0 0  2.546 0 0  2.5555 0 0  2.565 0 0  2.5745 0 0  2.584 0 0  2.5935 0 0  2.603 0 0  2.6125 0 0  2.622 0 0  2.6315 0 0  2.641 0 0  2.6505 0 0  2.66 0 0  2.6695 0 0  2.679 0 0  2.688499999999999 0 0  2.698 0 0  2.7075 0 0  2.717 0 0  2.7265 0 0  2.736 0 0  2.7455 0 0  2.755 0 0  2.7645 0 0  2.774 0 0  2.7835 0 0  2.793 0 0  2.8025 0 0  2.812 0 0  2.8215 0 0  2.831 0 0  2.8405 0 0  2.85 0 0  2.8595 0 0  2.869 0 0  2.8785 0 0  2.888 0 0  2.8975 0 0  2.907 0 0  2.9165 0 0  2.926 0 0  2.9355 0 0  2.945 0 0  2.9545 0 0  2.964 0 0  2.9735 0 0  2.983 0 0  2.9925 0 0  3.002 0 0  3.0115 0 0  3.020999999999999 0 0  3.0305 0 0  3.04 0 0  3.0495 0 0  3.059 0 0  3.0685 0 0  3.078 0 0  3.0875 0 0  3.097 0 0  3.1065 0 0  3.116 0 0  3.1255 0 0  3.135 0 0  3.1445 0 0  3.154 0 0  3.1635 0 0  3.173 0 0  3.1825 0 0  3.192 0 0  3.2015 0 0  3.211 0 0  3.2205 0 0  3.23 0 0  3.2395 0 0  3.249 0 0  3.2585 0 0  3.268 0 0  3.2775 0 0  3.287 0 0  3.2965 0 0  3.306 0 0  3.3155 0 0  3.325 0 0  3.3345 0 0  3.344 0 0  3.353499999999999 0 0  3.363 0 0  3.3725 0 0  3.382 0 0  3.3915 0 0  3.401 0 0  3.4105 0 0  3.42 0 0  3.4295 0 0  3.439 0 0  3.4485 0 0  3.458 0 0  3.4675 0 0  3.477 0 0  3.4865 0 0  3.496 0 0  3.5055 0 0  3.515 0 0  3.5245 0 0  3.534 0 0  3.5435 0 0  3.553 0 0  3.5625 0 0  3.572 0 0  3.5815 0 0  3.591 0 0  3.6005 0 0  3.61 0 0  3.6195 0 0  3.629 0 0  3.6385 0 0  3.648 0 0  3.6575 0 0  3.667 0 0  3.6765 0 0  3.685999999999999 0 0  3.6955 0 0  3.705 0 0  3.7145 0 0  3.724 0 0  3.7335 0 0  3.742999999999999 0 0  3.7525 0 0  3.762 0 0  3.7715 0 0  3.781 0 0  3.7905 0 0  3.8 0 0  0 0.005 0  0.0095 0.005 0  0.019 0.005 0  0.0285 0.005 0  0.038 0.005 0  0.0475 0.005 0  0.057 0.005 0  0.06649999999999999 0.005 0  0.076 0.005 0  0.08549999999999999 0.005 0  0.095 0.005 0  0.1045 0.005 0  0.114 0.005 0  0.1235 0.005 0  0.133 0.005 0  0.1425 0.005 0  0.152 0.005 0  0.1615 0.005 0  0.171 0.005 0  0.1805 0.005 0  0.19 0.005 0  0.1995 0.005 0  0.209 0.005 0  0.2185 0.005 0  0.228 0.005 0  0.2375 0.005 0  0.247 0.005 0  0.2565 0.005 0  0.266 0.005 0  0.2755 0.005 0  0.285 0.005 0  0.2945 0.005 0  0.304 0.005 0  0.3135 0.005 0  0.323 0.005 0  0.3325 0.005 0  0.342 0.005 0  0.3515 0.005 0  0.361 0.005 0  0.3705 0.005 0  0.38 0.005 0  0.3895 0.005 0  0.399 0.005 0  0.4085 0.005 0  0.418 0.005 0  0.4275 0.005 0  0.4369999999999999 0.005 0  0.4465 0.005 0  0.456 0.005 0  0.4655 0.005 0  0.475 0.005 0  0.4844999999999999 0.005 0  0.494 0.005 0  0.5034999999999999 0.005 0  0.513 0.005 0  0.5225 0.005 0  0.5319999999999999 0.005 0  0.5415 0.005 0  0.5509999999999999 0.005 0  0.5605 0.005 0  0.57 0.005 0  0.5794999999999999 0.005 0  0.589 0.005 0  0.5984999999999999 0.005 0  0.608 0.005 0  0.6175 0.005 0  0.627 0.005 0  0.6365 0.005 0  0.6459999999999999 0.005 0  0.6555 0.005 0  0.665 0.005 0  0.6745 0.005 0  0.6839999999999999 0.005 0  0.6934999999999999 0.005 0  0.703 0.005 0  0.7125 0.005 0  0.722 0.005 0  0.7314999999999999 0.005 0  0.741 0.005 0  0.7504999999999999 0.005 0  0.76 0.005 0  0.7695000000000001 0.005 0  0.7789999999999999 0.005 0  0.7885 0.005 0  0.7979999999999999 0.005 0  0.8075 0.005 0  0.8170000000000001 0.005 0  0.8264999999999999 0.005 0  0.836 0.005 0  0.8454999999999999 0.005 0  0.855 0.005 0  0.8645 0.005 0  0.8739999999999999 0.005 0  0.8835 0.005 0  0.893 0.005 0  0.9025 0.005 0  0.9119999999999999 0.005 0  0.9214999999999999 0.005 0  0.9309999999999999 0.005 0  0.9405 0.005 0  0.95 0.005 0  0.9594999999999999 0.005 0  0.9689999999999999 0.005 0  0.9784999999999999 0.005 0  0.988 0.005 0  0.9975000000000001 0.005 0  1.007 0.005 0  1.0165 0.005 0  1.026 0.005 0  1.0355 0.005 0  1.045 0.005 0  1.0545 0.005 0  1.064 0.005 0  1.0735 0.005 0  1.083 0.005 0  1.0925 0.005 0  1.102 0.005 0  1.1115 0.005 0  1.121 0.005 0  1.1305 0.005 0  1.14 0.005 0  1.1495 0.005 0  1.159 0.005 0  1.1685 0.005 0  1.178 0.005 0  1.1875 0.005 0  1.197 0.005 0  1.2065 0.005 0  1.216 0.005 0  1.2255 0.005 0  1.235 0.005 0  1.2445 0.005 0  1.254 0.005 0  1.2635 0.005 0  1.273 0.005 0  1.2825 0.005 0  1.292 0.005 0  1.3015 0.005 0  1.311 0.005 0  1.3205 0.005 0  1.33 0.005 0  1.3395 0.005 0  1.349 0.005 0  1.3585 0.005 0  1.368 0.005 0  1.3775 0.005 0  1.387 0.005 0  1.3965 0.005 0  1.406 0.005 0  1.4155 0.005 0  1.425 0.005 0  1.4345 0.005 0  1.444 0.005 0  1.4535 0.005 0  1.463 0.005 0  1.4725 0.005 0  1.482 0.005 0  1.4915 0.005 0  1.501 0.005 0  1.5105 0.005 0  1.52 0.005 0  1.5295 0.005 0  1.539 0.005 0  1.5485 0.005 0  1.558 0.005 0  1.5675 0.005 0  1.577 0.005 0  1.5865 0.005 0  1.596 0.005 0  1.6055 0.005 0  1.615 0.005 0  1.6245 0.005 0  1.634 0.005 0  1.6435 0.005 0  1.653 0.005 0  1.6625 0.005 0  1.672 0.005 0  1.6815 0.005 0  1.691 0.005 0  1.7005 0.005 0  1.71 0.005 0  1.7195 0.005 0  1.729 0.005 0  1.7385 0.005 0  1.748 0.005 0  1.7575 0.005 0  1.767 0.005 0  1.7765 0.005 0  1.786 0.005 0  1.7955 0.005 0  1.805 0.005 0  1.8145 0.005 0  1.824 0.005 0  1.8335 0.005 0  1.843 0.005 0  1.8525 0.005 0  1.862 0.005 0  1.8715 0.005 0  1.881 0.005 0  1.8905 0.005 0  1.9 0.005 0  1.9095 0.005 0  1.919 0.005 0  1.9285 0.005 0  1.938 0.005 0  1.9475 0.005 0  1.957 0.005 0  1.9665 0.005 0  1.976 0.005 0  1.9855 0.005 0  1.995 0.005 0  2.0045 0.005 0  2.014 0.005 0  2.0235 0.005 0  2.033 0.005 0  2.0425 0.005 0  2.052 0.005 0  2.0615 0.005 0  2.071 0.005 0  2.0805 0.005 0  2.09 0.005 0  2.0995 0.005 0  2.109 0.005 0  2.1185 0.005 0  2.128 0.005 0  2.1375 0.005 0  2.147 0.005 0  2.1565 0.005 0  2.166 0.005 0  2.1755 0.005 0  2.185 0.005 0  2.1945 0.005 0  2.204 0.005 0  2.2135 0.005 0  2.223 0.005 0  2.2325 0.005 0  2.242 0.005 0  2.2515 0.005 0  2.261 0.005 0  2.2705 0.005 0  2.28 0.005 0  2.2895 0.005 0  2.299 0.005 0  2.3085 0.005 0  2.318 0.005 0  2.3275 0.005 0  2.337 0.005 0  2.3465 0.005 0  2.356 0.005 0  2.3655 0.005 0  2.375 0.005 0  2.3845 0.005 0  2.394 0.005 0  2.4035 0.005 0  2.413 0.005 0  2.4225 0.005 0  2.432 0.005 0  2.4415 0.005 0  2.451 0.005 0  2.4605 0.005 0  2.47 0.005 0  2.4795 0.005 0  2.489 0.005 0  2.4985 0.005 0  2.508 0.005 0  2.5175 0.005 0  2.527 0.005 0  2.5365 0.005 0  2.546 0.005 0  2.5555 0.005 0  2.565 0.005 0  2.5745 0.005 0  2.584 0.005 0  2.5935 0.005 0  2.603 0.005 0  2.6125 0.005 0  2.622 0.005 0  2.6315 0.005 0  2.641 0.005 0  2.6505 0.005 0  2.66 0.005 0  2.6695 0.005 0  2.679 0.005 0  2.688499999999999 0.005 0  2.698 0.005 0  2.7075 0.005 0  2.717 0.00
[...]
<PointData  Scalars="rho_bar"> 
<DataArray  type="Float64"  Name="rho_bar"  format="ascii">9.9999999982752086e-01  1.0000000006550347e+00  1.0000000012644730e+00  1.0000000005699199e+00  9.9999999753639990e-01  9.9999999485217972e-01  9.9999999933518113e-01  1.0000000127808675e+00  1.0000000167151926e+00  9.9999998282067382e-01  9.9999993459249892e-01  9.9999998110039490e-01  1.0000001617486098e+00  1.0000002085983322e+00  9.9999977280919017e-01  9.9999920452659474e-01  9.9999962018111666e-01  1.0000013416315372e+00  1.0000026866972382e+00  1.0000016247960479e+00  9.9999842025697327e-01  9.9999528822187289e-01  9.9999381024910883e-01  9.9999404081715215e-01  9.9999547557801804e-01  9.9999732717319434e-01  9.9999841727469529e-01  9.9999822684866402e-01  9.9999763008627751e-01  9.9999769810460060e-01  9.9999841381603161e-01  9.9999911990345514e-01  9.9999949623501672e-01  9.9999965402997137e-01  9.9999975458383383e-01  9.9999984772910178e-01  9.9999992014865935e-01  9.9999995967447430e-01  9.9999997579889877e-01  9.9999998429696391e-01  9.9999999101501336e-01  9.9999999519609084e-01  9.9999999729530886e-01  9.9999999842523768e-01  9.9999999904104164e-01  1.0000000001299216e+00  9.9999999832084896e-01  1.0000000008310796e+00  1.0000000052860631e+00  9.9999997865648227e-01  1.0000000230594182e+00  1.0000000650714869e+00  9.9999976231428778e-01  9.9999999866374956e-01  1.0000011169638274e+00  9.9999966987671507e-01  9.9999548839279029e-01  9.9999655994877545e-01  1.0000057728741178e+00  1.0000144534226041e+00  1.0000156715834301e+00  1.0000104998222050e+00  1.0000016074067237e+00  9.9999089632116911e-01  9.9998080931043132e-01  9.9997337105825956e-01  9.9996911829781077e-01  9.9996751014260210e-01  9.9996769706079780e-01  9.9996891626999651e-01  9.9997056915933347e-01  9.9997222799683105e-01  9.9997365092328261e-01  9.9997475335004837e-01  9.9997552669456280e-01  9.9997596892861751e-01  9.9997608180173148e-01  9.9997590607984821e-01  9.9997552925942212e-01  9.9997506357101984e-01  9.9997462489499933e-01  9.9997430176395119e-01  9.9997411638791800e-01  9.9997402590866391e-01  9.9997397203675042e-01  9.9997392206691560e-01  9.9997387032475138e-01  9.9997382281511904e-01  9.9997378314330532e-01  9.9997374156316676e-01  9.9997368571027501e-01  9.9997363152467189e-01  9.9997362149109614e-01  9.9997367830673445e-01  9.9997378190174380e-01  9.9997389405954618e-01  9.9997397953493072e-01  9.9997400081777732e-01  9.9997391722820916e-01  9.9997371199376461e-01  9.9997341889072422e-01  9.9997309291794012e-01  9.9997275580178713e-01  9.9997242312295787e-01  9.9997217640444580e-01  9.9997212277404057e-01  9.9997228080875200e-01  9.9997256608049190e-01  9.9997286597435964e-01  9.9997308780883665e-01  9.9997317291012955e-01  9.9997310637387682e-01  9.9997290718899212e-01  9.9997260178155201e-01  9.9997221451477414e-01  9.9997177803487358e-01  9.9997134530412302e-01  9.9997098812274510e-01  9.9997076908521543e-01  9.9997070673208510e-01  9.9997078312564025e-01  9.9997098237151016e-01  9.9997128406967206e-01  9.9997161033149962e-01  9.9997182650915317e-01  9.9997182270273144e-01  9.9997157664959113e-01  9.9997113055579112e-01  9.9997052838960820e-01  9.9996979222197002e-01  9.9996895839440825e-01  9.9996811840825273e-01  9.9996741242521536e-01  9.9996699059364513e-01  9.9996697596022310e-01  9.9996743892550444e-01  9.9996838778624664e-01  9.9996977968351897e-01  9.9997154663607357e-01  9.9997357535611009e-01  9.9997555234664581e-01  9.9997672323932874e-01  9.9997578416189337e-01  9.9997148284329329e-01  9.9996433509991600e-01  9.9995701036793005e-01  9.9995134685299158e-01  9.9994797224048826e-01  9.9995036906061752e-01  9.9996187973023554e-01  9.9997800841197682e-01  9.9999050793765998e-01  9.9999678923434110e-01  9.9999914696751924e-01  9.9999981933971016e-01  9.9999995370474992e-01  9.9999998690081437e-01  9.9999999506925796e-01  1.0000000079058169e+00  1.0000000024719407e+00  9.9999995675875675e-01  9.9999998680529623e-01  1.0000001558498823e+00  1.0000001380371266e+00  9.9999962807904275e-01  9.9999919606824250e-01  9.9999991273074051e-01  1.0000017205567573e+00  1.0000028038037891e+00  1.0000011539798810e+00  9.9999674828394414e-01  9.9999209059839955e-01  9.9999053127365611e-01  9.9999365556716746e-01  9.9999988528036610e-01  1.0000056028961826e+00  1.0000077326388519e+00  1.0000053563792164e+00  9.9999937201880862e-01  9.9999126082566048e-01  9.9998232027881073e-01  9.9997373183228622e-01  9.9996709978119724e-01  9.9996476055554395e-01  9.9996851623429239e-01  9.9997695990906288e-01  9.9998561325047775e-01  9.9999137495909696e-01  9.9999478514904117e-01  9.9999718576581775e-01  9.9999873736539202e-01  9.9999946955913255e-01  9.9999977414845997e-01  9.9999991483072614e-01  9.9999997420047515e-01  9.9999996317330841e-01  9.9999999346638258e-01  1.0000001065416824e+00  9.9999982911216190e-01  9.9999962518337671e-01  1.0000009777422165e+00  1.0000014549262100e+00  9.9999682209840146e-01  9.9999237290532894e-01  9.9999881780942645e-01  1.0000142033814894e+00  1.0000243247393459e+00  1.0000191382450541e+00  9.9999775959359594e-01  9.9996302448590135e-01  9.9991948373873218e-01  9.9987374540820884e-01  9.9983481793796103e-01  9.9981399564760243e-01  9.9981736088052509e-01  9.9984046216561584e-01  9.9987768257730147e-01  9.9992352073802826e-01  9.9996391528190987e-01  9.9998711766233528e-01  9.9999603523918457e-01  9.9999887344610949e-01  9.9999967991948080e-01  9.9999986066003554e-01  1.0000001161377547e+00  9.9999986569229815e-01  9.9999936952410873e-01  1.0000012673478642e+00  1.0000015004775800e+00  9.9999383899063932e-01  9.9999553038473143e-01  1.0000194199984529e+00  1.0000239626028158e+00  9.9997658794786459e-01  9.9992125310761060e-01  9.9989858012541566e-01  9.9988739472962174e-01  9.9986691426598906e-01  9.9985203308047110e-01  9.9986374855114812e-01  9.9990313063307912e-01  9.9994929100598329e-01  9.9998022413551102e-01  9.9999340625346045e-01  9.9999791601123722e-01  9.9999942654888130e-01  9.9999977879039126e-01  9.9999998117649569e-01  1.0000000254281065e+00  9.9999956183544669e-01  1.0000005298130756e+00  1.0000012441269559e+00  9.9999594332340369e-01  9.9999723787736239e-01  1.0000162585518813e+00  1.0000155550605434e+00  9.9996759545303504e-01  9.9991877235774052e-01  9.9990337183904576e-01  9.9987640185616622e-01  9.9978609306664268e-01  9.9964062840852086e-01  9.9948925068760264e-01  9.9937669388650718e-01  9.9931916727926007e-01  9.9930778153399025e-01  9.9932409943386158e-01  9.9935162453686599e-01  9.9937951707044514e-01  9.9940204378761766e-01  9.9941696781045619e-01  9.9942416634510778e-01  9.9942462282900990e-01  9.9941969916853823e-01  9.9941086680963387e-01  9.9939983162250090e-01  9.9938849269793040e-01  9.9937849872045159e-01  9.9937083347034283e-01  9.9936577242811908e-01  9.9936309483506613e-01  9.9936229237091190e-01  9.9936272744784937e-01  9.9936379273338816e-01  9.9936501675298384e-01  9.9936613245598804e-01  9.9936710324599209e-01  9.9936795972991188e-01  9.9936853752579435e-01  9.9936849881958534e-01  9.9936763712120535e-01  9.9936607377061293e-01  9.9936424618192710e-01  9.9936286232872196e-01  9.9936284310677037e-01  9.9936516223516270e-01  9.9937062431987955e-01  9.9937964858580297e-01  9.9939199328187678e-01  9.9940648922460884e-01  9.9942108657532447e-01  9.9943328914258822e-01  9.9944070207770364e-01  9.9944154456538692e-01  9.9943507560560252e-01  9.9942175825727275e-01  9.9940324425335503e-01  9.9938197638561943e-01  9.9936052900631778e-01  9.9934654688531488e-01  9.9936300311850390e-01  9.9943809256198812e-01  9.9957169768391307e-01  9.9972727602289646e-01  9.9986036325507088e-01  9.9994520340068282e-01  9.9998391936741071e-01  9.9999616757071075e-01  9.9999912028283877e-01  9.9999981213478784e-01  9.9999995123350893e-01  9.9999998262581735e-01  9.9999999249505733e-01  9.9999999943612738e-01  9.9999998451501482e-01  9.9999999556377162e-01  1.0000003844448042e+00  9.9999649913329647e-01  1.0000216467933887e+00  9.9989111242207385e-01  1.0004705737367261e+00  9.9818481583181540e-01  1.0064367681164741e+00  9.7790582999335396e-01  1.0484768199497045e+00  2.0793174609583848e-01  -1.5436976110945041e-03  -2.4074525811501683e-04  2.8874262287697578e-04  -4.6967234804506926e-05  4.5439301931037255e-06  4.6130072094395210e-07  -2.3067026247625625e-07  4.9954703635426178e-08  -4.2525889914457247e-09  -2.5131308091126337e-10  3.1120598425993242e-10  -4.3963489718594300e-11  1.3768872190019545e-11  3.2234352137211455e-12  1.1749950762570753e-12  9.0265305990333046e-13  4.5102749268447113e-13  2.8814509961055049e-13  1.8513326740829586e-13  1.2498396534015155e-13  8.7787028973349637e-14  6.3614646325884564e-14  4.7399521709199342e-14  3.6083889104176179e-14  2.8025179795558118e-14  2.2114640558767614e-14  1.7693153979274417e-14  1.4313485836978308e-14  1.1683720849782828e-14  9.6339407070643200e-15  7.9868023417492540e-15  6.6478084850766873e-15  5.5858433091799833e-15  4.6777228087518186e-15  3.9824399715008876e-15  3.3791573148503179e-15  2.8538825431891920e-15  2.4267654983048391e-15  2.0641223691480796e-15  1.7865659375814610e-15  1.5208368975936418e-15  1.3022312417133103e-15  1.1459850662595963e-15  9.6574943792782793e-16  8.3722551214377647e-16  7.3030980414534165e-16  6.0339320543083919e-16  5.3589842792254198e-16  4.5400590931973527e-16  4.0476556532411877e-16  3.4832407443615443e-16  2.8860835699272390e-16  2.6863539904641952e-16  2.2078858673113989e-16  2.1413216949421798e-16  1.5881406331251529e-16  1.8125370621781495e-16  1.2988069877318341e-16  1.0968543218184114e-16  1.1091642608909954e-16  1.1107933347562071e-16  1.1101142128601668e-16  1.1102340175637904e-16  1.1102233830185539e-16  1.1102217813534551e-16  1.0000000010118297e+00  9.9999999932632588e-01  9.9999999787345550e-01  9.9999999740638912e-01  1.0000000011277839e+00  1.0000000081320723e+00  1.0000000083580900e+00  9.9999998915399846e-01  9.9999996358383292e-01  9.9999998721561978e-01  1.0000000868323680e+00  1.0000001246234387e+00  9.9999987942892654e-01  9.9999953302922084e-01  9.9999986098852867e-01  1.0000010907539640e+00  1.0000015556998518e+00  9.9999922690697796e-01  9.9999542944507469e-01  9.9999469647683170e-01  9.9999921343343501e-01  1.0000057647161524e+00  1.0000097767264751e+00  1.0000096870455188e+00  1.0000062168223067e+00  1.0000007628024843e+00  9.9999592406184612e-01  9.9999441900062747e-01  9.9999606834725141e-01  9.9999813236684321e-01  9.9999890382107692e-01  9.9999891904482097e-01  9.9999907697590629e-01  9.9999945458300288e-01  9.9999977062606460e-01  9.9999991174067215e-01  9.9999994001214709e-01  9.9999994562175920e-01  9.9999996391240586e-01  9.9999998297109038e-01  9.9999999155773489e-01  9.9999999443522181e-01  9.9999999679247620e-01  9.9999999828717256e-01  9.9999999929727668e-01  9.9999999934650363e-01  9.9999999880344981e-01  1.0000000041328294e+00  9.9999999055801270e-01  1.0000000031384479e+00  1.0000000461596057e+00  9.9999986226406901e-01  1.0000000492028505e+00  1.0000006310306748e+00  9.9999893144673224e-01  9.9999787846104637e-01  1.0000047926458742e+00  1.0000105591564770e+00  9.9999882012965524e-01  9.9997696662004709e-01  9.9996351558646435e-01  9.9995977791753787e-01  9.9995743048532393e-01  9.9995399550103314e-01  9.9995130213157979e-01  9.9995071386368095e-01  9.9995233214343482e-01  9.9995539838871017e-01  9.9995883687352738e-01  9.9996175235723705e-01  9.9996370494548847e-01  9.9996468293391993e-01  9.9996486265226714e-01  9.9996441356284338e-01  9.9996348073742747e-01  9.9996225789841631e-01  9.9996099375090386e-01  9.9995989780350003e-01  9.9995906525809797e-01  9.9995849215756416e-01  9.9995810598690704e-01  9.9995779093377390e-01  9.9995745872156816e-01  9.9995710995375187e-01  9.9995679528667281e-01  9.9995653748286673e-01  9.9995631660507178e-01  9.9995610249527755e-01  9.9995587502008554e-01  9.9995563694415102e-01  9.9995541329811533e-01  9.9995519972930580e-01  9.9995491612141696e-01  9.9995446716231562e-01  9.9995383077615518e-01  9.9995304603374924e-01  9.9995215826530703e-01  9.9995122384471913e-01  9.9995033871946448e-01  9.9994961455937048e-01  9.9994910258386205e-01  9.9994877313550334e-01  9.9994861094688814e-01  9.9994864998476873e-01  9.9994881517307665e-01  9.9994885406260159e-01  9.9994854997749838e-01  9.9994788925374467e-01  9.9994697132174415e-01  9.9994589732877270e-01  9.9994476377866037e-01  9.9994365719134892e-01  9.9994263661650773e-01  9.9994175581091904e-01  9.9994108022961825e-01  9.9994065919989150e-01  9.9994048556232318e-01  9.9994047429738386e-01  9.9994048239984168e-01  9.9994037947434966e-01  9.9994008750438967e-01  9.9993953015240633e-01  9.9993860357137920e-01  9.9993728355479128e-01  9.9993572774304562e-01  9.9993419174970211e-01  9.9993286510176060e-01  9.9993184298702931e-01  9.9993122453195571e-01  9.9993117840014012e-01  9.9993187704033504e-01  9.9993336232634622e-01  9.9993548010633271e-01  9.9993791129056109e-01  9.9994022337905997e-01  9.9994192062092635e-01  9.9994249942054492e-01  9.9994149342504002e-01  9.9993848273273567e-01  9.9993310001844182e-01  9.9992521071002449e-01  9.9991537611822678e-01  9.9990533653971714e-01  9.9989792561842328e-01  9.9989513786297268e-01  9.9989552890819344e-01  9.9989785714083623e-01  9.9990748524507089e-01  9.9992871182894627e-01  9.9995410842988464e-01  9.9997431843397633e-01  9.9998803541130832e-01  9.9999606048398237e-01  9.9999909482932570e-01  9.9999976003931057e-01  9.9999994992282937e-01  9.9999999125630956e-01  9.9999999972804043e-01  9.9999999527950789e-01  9.9999997348892067e-01  1.0000000322016036e+00  1.0000000996832414e+00  9.9999988061601075e-01  9.9999958582652082e-01  1.0000001027201433e+00  1.0000013363569895e+00  1.0000012853107858e+00  9.9999847401007991e-01  9.9999490209374187e-01  9.9999500090776350e-01  1.0000011753229312e+00  1.0000106194755425e+00  1.0000165472490674e+00  1.0000129332473373e+00  9.9999904538809392e-01  9.9997982075738734e-01  9.9996168518449013e-01  9.9994812397349009e-01  9.9993907626351242e-01  9.9993354082201202e-01  9.9993197999426531e-01  9.9993625392347818e-01  9.9994733792290147e-01  9.9996264296886694e-01  9.9997588949647176e-01  9.9998233750337040e-01  9.9998446200814972e-01  9.9998794718223105e-01  9.9999322894762832e-01  9.9999699592528413e-01  9.9999857061710773e-01  9.9999932068488551e-01  9.9999975455124068e-01  9.9999991315878478e-01  9.9999994957655858e-01  9.9999997970388610e-01  1.0000000552112449e+00  9.9999988291281439e-01  9.9999985705250083e-01  1.0000007662744865e+00  9.9999992952022221e-01  9.9999656064339515e-01  1.0000001042702971e+00  1.0000123428862184e+00  1.0000122146602481e+00  9.9998643672289689e-01  9.9995423980528475e-01  9.9994074078321682e-01  9.9994978201519846e-01  9.9997022059131446e-01  9.9998765917294830e-01  9.9998809859715510e-01  9.9996263455519674e-01  9.9991052244980627e-01  9.9984650426232502e-01  9.9981137688941146e-01  9.9983872947897223e-01  9.9990426431715151e-01  9.9995758741148311e-01  9.9998408901746627e-01  9.9999512986145600e-01  9.9999883131985445e-01  9.9999959608137834e-01  9.9999996580028871e-01  9.9999990233219571e-01  9.9999962835674916e-01  1.0000008968574001e+00  1.0000003303455203e+00  9.9999533298897314e-01  1.0000024707889352e+00  1.0000172250698824e+00  9.9998888555729470e-01  9.9994113066112045e-01  9.9998246422534043e-01  1.0000931533152380e+00  1.0001354323897793e+00  1.0000709891282247e+00  9.9995301795913494e-01  9.9984426873186638e-01  9.9981686855797081e-01  9.9987414173313072e-01  9.9994073093080427e-01  9.9997615714383958e-01  9.9999159632743517e-01  9.9999780079941247e-01  9.9999930191509900e-01  9.9999977582110355e-01  9.9999999792454952e-01  9.9999973458570679e-01  1.0000002328320399e+00  1.0000006971333368e+00  9.9999722418481696e-01  1.0000007065538046e+00  1.0000120534973584e+00  9.9998973089354171e-01  9.9995383785228409e-01  1.0000028157746756e+00  1.0001080267081690e+00  1.0001265011942460e+00  1.0000230900206406e+00  9.9985828342009231e-01  9.9967334789235862e-01  9.9950098369211615e-01  9.9937799033228980e-01  9.9931857289699555e-01  9.9931125198106419e-01  9.9933510984256568e-01  9.9937179140991961e-01  9.9940915712667611e-01  9.9944056117505276e-01  9.9946302200958970e-01  9.9947559045438883e-01  9.9947835470336699e-01  9.9947239044640623e-01  9.9946003847153198e-01  9.9944449504028099e-01  9.9942882080946527e-01  9.9941523874284555e-01  9.9940501195613218e-01  9.9939857955114131e-01  9.9939563112651586e-01  9.9939524333704211e-01  9.9939620098936943e-01  9.9939745549579617e-01  9.9939852666035411e-01  9.9939960302045749e-01  9.9940104240957650e-01  9.9940274896347592e-01  9.9940412516226640e-01  9.9940454252224631e-01  9.9940369717497335e-01  9.9940170043327115e-01  9.9939907950971130e-01  9.9939671634254379e-01  9.9939567203488600e-01  9.9939704135860508e-01  9.9940180327843331e-01  9.9941054242429350e-01  9.9942308591237550e-01  9.9943847439928402e-01  9.9945524271123654e-01  9.9947160380256816e-01  9.9948539963322591e-01  9.9949390903031055e-01  9.9949362205786718e-01  9.9948054666117814e-01  9.9945159040989529e-01  9.9940747102321814e-01  9.9935850694358541e-01  9.9932881760053249e-01  9.9934168832127179e-01  9.9940028209746623e-01  9.9950505042377780e-01  9.9965877870100317e-01  9.9982235406454911e-01  9.9993343413316438e-01  9.9998074894020328e-01  9.9999521596094965e-01  9.9999906736382482e-01  9.9999979011003981e-01  9.9999993489671180e-01  9.9999998641216015e-01  9.9999999280444507e-01  9.9999999803865125e-01  9.9999999318368571e-01  1.0000000397328515e+00  9.9999977339921808e-01  1.0000008055192751e+00  9.9999864617338463e-01  9.9999252407687000e-01  1.0000877378017214e+00  9.9946089519569514e-01  1.0025115173995527e+00  9.8960771247199042e-01  1.0220635598680132e+00  2.8339975376061299e-01  -2.4375243213115065e-02  5.4090229853896964e-03  -4.9324220831545871e-04  -1.2536896645732642e-06  1.5648891228728908e-05  -3.7084020094239666e-06  5.0174826309923198e-07  -7.0116888824007889e-09  -1.3262528988246342e-08  4.1199659710611621e-09  -5.6511418297246033e-10  4.6088786884084438e-11  2.0396935031505953e-11  -1.8176257470016037e-12  2.4905225862281812e-12  7.2493499641623624e-13  4.7352074533280910e-13  2.9543074519787592e-13  1.8668653702827492e-13  1.2687141212396069e-13  8.8779225047853081e-14  6.4291739636430025e-14  4.7831877463482760e-14  3.6417426602112658e-14  2.8252593905328345e-14  2.2296509644913200e-14  1.7813518864030795e-14  1.4401569798373970e-14  1.1751796255866155e-14  9.6803305124005416e-15  8.0140742156090682e-15  6.6946471440454441e-15  5.6168978890288489e-15  4.7237578823293773e-15  3.9900250623178406e-15  3.3797281274494184e-15  2.8801427562307778e-15  2.4499433947613774e-15  2.0852075330584448e-15  1.7988010364902689e-15  1.5268420772881786e-15  1.3011535788218713e-15  1.1377979804914320e-15  9.6675838630882955e-16  8.2168919394295754e-16  7.1874971458845585e-16  6.0737640422999620e-16  5.3532119064771226e-16  4.5877947244354086e-16  3.9987780490873599e-16  3.4260060178821936e-16  3.0536365284209232e-16  2.6677436925272877e-16  2.1227157221791871e-16  2.1960015168613009e-16  1.5478571789367300e-16  1.7363351529299648e-16  1.3745870717337424e-16  1.0458574454487764e-16  1.1209321125356770e-16  1.1090894242551238e-16  1.1102294823517721e-16  1.1102523506588278e-16  1.1102149464615397e-16  1.1102251527752735e-16  9.9999999506421422e-01  9.9999999989049082e-01  1.0000000041742645e+00  1.0000000092746799e+00  1.0000000047107842e+00  9.9999998400783474e-01  9.9999996425819837e-01  9.9999999275271834e-01  1.0000000864359659e+00  1.0000001236385938e+00  9.9999989938320921e-01  9.9999954467944252e-01  9.9999981656446690e-01  1.0000010913009534e+00  1.0000015736615908e+00  9.9999860814074959e-01  9.9999436518736307e-01  9.9999698784252145e-01  1.0000093657166749e+00  1.0000194245094431e+00  1.0000120646013841e+00  9.9998940050209628e-01  9.9996801157781867e-01  9.9995911126588899e-01  9.9996265033293419e-01  9.9997536274108889e-01  9.9999184089392046e-01