<?xml version="1.0"?>
<VTKFile type="UnstructuredGrid"  version="0.1"  >
<UnstructuredGrid>
<Piece  NumberOfPoints="40501" NumberOfCells="80000">
<Points>
<DataArray  type="Float64"  NumberOfComponents="3"  format="ascii">0 0 0  0.0095 0 0  0.019 0 0  0.0285 0 0  0.038 0 0  0.0475 0 0  0.057 0 0  0.06649999999999999 0 0  0.076 0 0  0.08549999999999999 0 0  0.095 0 0  0.1045 0 0  0.114 0 0  0.1235 0 0  0.133 0 0  0.1425 0 0  0.152 0 0  0.1615 0 0  0.171 0 0  0.1805 0 0  0.19 0 0  0.1995 0 0  0.209 0 0  0.2185 0 0  0.228 0 0  0.2375 0 0  0.247 0 0  0.2565 0 0  0.266 0 0  0.2755 0 0  0.285 0 0  0.2945 0 0  0.304 0 0  0.3135 0 0  0.323 0 0  0.3325 0 0  0.342 0 0  0.3515 0 0  0.361 0 0  0.3705 0 0  0.38 0 0  0.3895 0 0  0.399 0 0  0.4085 0 0  0.418 0 0  0.4275 0 0  0.4369999999999999 0 0  0.4465 0 0  0.456 0 0  0.4655 0 0  0.475 0 0  0.4844999999999999 0 0  0.494 0 0  0.5034999999999999 0 0  0.513 0 0  0.5225 0 0  0.5319999999999999 0 0  0.5415 0 0  0.5509999999999999 0 0  0.5605 0 0  0.57 0 0  0.5794999999999999 0 0  0.589 0 0  0.5984999999999999 0 0  0.608 0 0  0.6175 0 0  0.627 0 0  0.6365 0 0  0.6459999999999999 0 0  0.6555 0 0  0.665 0 0  0.6745 0 0  0.6839999999999999 0 0  0.6934999999999999 0 0  0.703 0 0  0.7125 0 0  0.722 0 0  0.7314999999999999 0 0  0.741 0 0  0.7504999999999999 0 0  0.76 0 0  0.7695000000000001 0 0  0.7789999999999999 0 0  0.7885 0 0  0.7979999999999999 0 0  0.8075 0 0  0.8170000000000001 0 0  0.8264999999999999 0 0  0.836 0 0  0.8454999999999999 0 0  0.855 0 0  0.8645 0 0  0.8739999999999999 0 0  0.8835 0 0  0.893 0 0  0.9025 0 0  0.9119999999999999 0 0  0.9214999999999999 0 0  0.9309999999999999 0 0  0.9405 0 0  0.95 0 0  0.9594999999999999 0 0  0.9689999999999999 0 0  0.9784999999999999 0 0  0.988 0 0  0.9975000000000001 0 0  1.007 0 0  1.0165 0 0  1.026 0 0  1.0355 0 0  1.045 0 0  1.0545 0 0  1.064 0 0  1.0735 0 0  1.083 0 0  1.0925 0 0  1.102 0 0  1.1115 0 0  1.121 0 0  1.1305 0 0  1.14 0 0  1.1495 0 0  1.159 0 0  1.1685 0 0  1.178 0 0  1.1875 0 0  1.197 0 0  1.2065 0 0  1.216 0 0  1.2255 0 0  1.235 0 0  1.2445 0 0  1.254 0 0  1.2635 0 0  1.273 0 0  1.2825 0 0  1.292 0 0  1.3015 0 0  1.311 0 0  1.3205 0 0  1.33 0 0  1.3395 0 0  1.349 0 0  1.3585 0 0  1.368 0 0  1.3775 0 0  1.387 0 0  1.3965 0 0  1.406 0 0  1.4155 0 0  1.425 0 0  1.4345 0 0  1.444 0 0  1.4535 0 0  1.463 0 0  1.4725 0 0  1.482 0 0  1.4915 0 0  1.501 0 0  1.5105 0 0  1.52 0 0  1.5295 0 0  1.539 0 0  1.5485 0 0  1.558 0 0  1.5675 0 0  1.577 0 0  1.5865 0 0  1.596 0 0  1.6055 0 0  1.615 0 0  1.6245 0 0  1.634 0 0  1.6435 0 0  1.653 0 0  1.6625 0 0  1.672 0 0  1.6815 0 0  1.691 0 0  1.7005 0 0  1.71 0 0  1.7195 0 0  1.729 0 0  1.7385 0 0  1.748 0 0  1.7575 0 0  1.767 0 0  1.7765 0 0  1.786 0 0  1.7955 0 0  1.805 0 0  1.8145 0 0  1.824 0 0  1.8335 0 0  1.843 0 0  1.8525 0 0  1.862 0 0  1.8715 0 0  1.881 0 0  1.8905 0 0  1.9 0 0  1.9095 0 0  1.919 0 0  1.9285 0 0  1.938 0 0  1.9475 0 0  1.957 0 0  1.9665 0 0  1.976 0 0  1.9855 0 0  1.995 0 0  2.0045 0 0  2.014 0 0  2.0235 0 0  2.033 0 0  2.0425 0 0  2.052 0 0  2.0615 0 0  2.071 0 0  2.0805 0 0  2.09 0 0  2.0995 0 0  2.109 0 0  2.1185 0 0  2.128 0 0  2.1375 0 0  2.147 0 0  2.1565 0 0  2.166 0 0  2.1755 0 0  2.185 0 0  2.1945 0 0  2.204 0 0  2.2135 0 0  2.223 0 0  2.2325 0 0  2.242 0 0  2.2515 0 0  2.261 0 0  2.2705 0 0  2.28 0 0  2.2895 0 0  2.299 0 0  2.3085 0 0  2.318 0 0  2.3275 0 0  2.337 0 0  2.3465 0 0  2.356 0 0  2.3655 0 0  2.375 0 0  2.3845 0 0  2.394 0 0  2.4035 0 0  2.413 0 0  2.4225 0 0  2.432 0 0  2.4415 0 0  2.451 0 0  2.4605 0 0  2.47 0 0  2.4795 0 0  2.489 0 0  2.4985 0 0  2.508 0 0  2.5175 0 0  2.527 0 0  2.5365 0 0  2.546 0 0  2.5555 0 0  2.565 0 0  2.5745 0 0  2.584 0 0  2.5935 0 0  2.603 0 0  2.6125 0 0  2.622 0 0  2.6315 0 0  2.641 0 0  2.6505 0 0  2.66 0 0  2.6695 0 0  2.679 0 0  2.688499999999999 0 0  2.698 0 0  2.7075 0 0  2.717 0 0  2.7265 0 0  2.736 0 0  2.7455 0 0  2.755 0 0  2.7645 0 0  2.774 0 0  2.7835 0 0  2.793 0 0  2.8025 0 0  2.812 0 0  2.8215 0 0  2.831 0 0  2.8405 0 0  2.85 0 0  2.8595 0 0  2.869 0 0  2.8785 0 0  2.888 0 0  2.8975 0 0  2.907 0 0  2.9165 0 0  2.926 0 0  2.9355 0 0  2.945 0 0  2.9545 0 0  2.964 0 0  2.9735 0 0  2.983 0 0  2.9925 0 0  3.002 0 0  3.0115 0 0  3.020999999999999 0 0  3.0305 0 0  3.04 0 0  3.0495 0 0  3.059 0 0  3.0685 0 0  3.078 0 0  3.0875 0 0  3.097 0 0  3.1065 0 0  3.116 0 0  3.1255 0 0  3.135 0 0  3.1445 0 0  3.154 0 0  3.1635 0 0  3.173 0 0  3.1825 0 0  3.192 0 0  3.2015 0 0  3.211 0 0  3.2205 0 0  3.23 0 0  3.2395 0 0  3.249 0 0  3.2585 0 0  3.268 0 0  3.2775 0 0  3.287 0 0  3.2965 0 0  3.306 0 0  3.3155 0 0  3.325 0 0  3.3345 0 0  3.344 0 0  3.353499999999999 0 0  3.363 0 0  3.3725 0 0  3.382 0 0  3.3915 0 0  3.401 0 0  3.4105 0 0  3.42 0 0  3.4295 0 0  3.439 0 0  3.4485 0 0  3.458 0 0  3.4675 0 0  3.477 0 0  3.4865 0 0  3.496 0 0  3.5055 0 0  3.515 0 0  3.5245 0 0  3.534 0 0  3.5435 0 0  3.553 0 0  3.5625 0 0  3.572 0 0  3.5815 0 0  3.591 0 0  3.6005 0 0  3.61 0 0  3.6195 0 0  3.629 0 0  3.6385 0 0  3.648 0 0  3.6575 0 0  3.667 0 0  3.6765 0 0  3.685999999999999 0 0  3.6955 0 0  3.705 0 0  3.7145 0 0  3.724 0 0  3.7335 0 0  3.742999999999999 0 0  3.7525 0 0  3.762 0 0  3.7715 0 0  3.781 0 0  3.7905 0 0  3.8 0 0  0 0.005 0  0.0095 0.005 0  0.019 0.005 0  0.0285 0.005 0  0.038 0.005 0  0.0475 0.005 0  0.057 0.005 0  0.06649999999999999 0.005 0  0.076 0.005 0  0.08549999999999999 0.005 0  0.095 0.005 0  0.1045 0.005 0  0.114 0.005 0  0.1235 0.005 0  0.133 0.005 0  0.1425 0.005 0  0.152 0.005 0  0.1615 0.005 0  0.171 0.005 0  0.1805 0.005 0  0.19 0.005 0  0.1995 0.005 0  0.209 0.005 0  0.2185 0.005 0  0.228 0.005 0  0.2375 0.005 0  0.247 0.005 0  0.2565 0.005 0  0.266 0.005 0  0.2755 0.005 0  0.285 0.005 0  0.2945 0.005 0  0.304 0.005 0  0.3135 0.005 0  0.323 0.005 0  0.3325 0.005 0  0.342 0.005 0  0.3515 0.005 0  0.361 0.005 0  0.3705 0.005 0  0.38 0.005 0  0.3895 0.005 0  0.399 0.005 0  0.4085 0.005 0  0.418 0.005 0  0.4275 0.005 0  0.4369999999999999 0.005 0  0.4465 0.005 0  0.456 0.005 0  0.4655 0.005 0  0.475 0.005 0  0.4844999999999999 0.005 0  0.494 0.005 0  0.5034999999999999 0.005 0  0.513 0.005 0  0.5225 0.005 0  0.5319999999999999 0.005 0  0.5415 0.005 0  0.5509999999999999 0.005 0  0.5605 0.005 0  0.57 0.005 0  0.5794999999999999 0.005 0  0.589 0.005 0  0.5984999999999999 0.005 0  0.608 0.005 0  0.6175 0.005 0  0.627 0.005 0  0.6365 0.005 0  0.6459999999999999 0.005 0  0.6555 0.005 0  0.665 0.005 0  0.6745 0.005 0  0.6839999999999999 0.005 0  0.6934999999999999 0.005 0  0.703 0.005 0  0.7125 0.005 0  0.722 0.005 0  0.7314999999999999 0.005 0  0.741 0.005 0  0.7504999999999999 0.005 0  0.76 0.005 0  0.7695000000000001 0.005 0  0.7789999999999999 0.005 0  0.7885 0.005 0  0.7979999999999999 0.005 0  0.8075 0.005 0  0.8170000000000001 0.005 0  0.8264999999999999 0.005 0  0.836 0.005 0  0.8454999999999999 0.005 0  0.855 0.005 0  0.8645 0.005 0  0.8739999999999999 0.005 0  0.8835 0.005 0  0.893 0.005 0  0.9025 0.005 0  0.9119999999999999 0.005 0  0.9214999999999999 0.005 0  0.9309999999999999 0.005 0  0.9405 0.005 0  0.95 0.005 0  0.9594999999999999 0.005 0  0.9689999999999999 0.005 0  0.9784999999999999 0.005 0  0.988 0.005 0  0.9975000000000001 0.005 0  1.007 0.005 0  1.0165 0.005 0  1.026 0.005 0  1.0355 0.005 0  1.045 0.005 0  1.0545 0.005 0  1.064 0.005 0  1.0735 0.005 0  1.083 0.005 0  1.0925 0.005 0  1.102 0.005 0  1.1115 0.005 0  1.121 0.005 0  1.1305 0.005 0  1.14 0.005 0  1.1495 0.005 0  1.159 0.005 0  1.1685 0.005 0  1.178 0.005 0  1.1875 0.005 0  1.197 0.005 0  1.2065 0.005 0  1.216 0.005 0  1.2255 0.005 0  1.235 0.005 0  1.2445 0.005 0  1.254 0.005 0  1.2635 0.005 0  1.273 0.005 0  1.2825 0.005 0  1.292 0.005 0  1.3015 0.005 0  1.311 0.005 0  1.3205 0.005 0  1.33 0.005 0  1.3395 0.005 0  1.349 0.005 0  1.3585 0.005 0  1.368 0.005 0  1.3775 0.005 0  1.387 0.005 0  1.3965 0.005 0  1.406 0.005 0  1.4155 0.005 0  1.425 0.005 0  1.4345 0.005 0  1.444 0.005 0  1.4535 0.005 0  1.463 0.005 0  1.4725 0.005 0  1.482 0.005 0  1.4915 0.005 0  1.501 0.005 0  1.5105 0.005 0  1.52 0.005 0  1.5295 0.005 0  1.539 0.005 0  1.5485 0.005 0  1.558 0.005 0  1.5675 0.005 0  1.577 0.005 0  1.5865 0.005 0  1.596 0.005 0  1.6055 0.005 0  1.615 0.005 0  1.6245 0.005 0  1.634 0.005 0  1.6435 0.005 0  1.653 0.005 0  1.6625 0.005 0  1.672 0.005 0  1.6815 0.005 0  1.691 0.005 0  1.7005 0.005 0  1.71 0.005 0  1.7195 0.005 0  1.729 0.005 0  1.7385 0.005 0  1.748 0.005 0  1.7575 0.005 0  1.767 0.005 0  1.7765 0.005 0  1.786 0.005 0  1.7955 0.005 0  1.805 0.005 0  1.8145 0.005 0  1.824 0.005 0  1.8335 0.005 0  1.843 0.005 0  1.8525 0.005 0  1.862 0.005 0  1.8715 0.005 0  1.881 0.005 0  1.8905 0.005 0  1.9 0.005 0  1.9095 0.005 0  1.919 0.005 0  1.9285 0.005 0  1.938 0.005 0  1.9475 0.005 0  1.957 0.005 0  1.9665 0.005 0  1.976 0.005 0  1.9855 0.005 0  1.995 0.005 0  2.0045 0.005 0  2.014 0.005 0  2.0235 0.005 0  2.033 0.005 0  2.0425 0.005 0  2.052 0.005 0  2.0615 0.005 0  2.071 0.005 0  2.0805 0.005 0  2.09 0.005 0  2.0995 0.005 0  2.109 0.005 0  2.1185 0.005 0  2.128 0.005 0  2.1375 0.005 0  2.147 0.005 0  2.1565 0.005 0  2.166 0.005 0  2.1755 0.005 0  2.185 0.005 0  2.1945 0.005 0  2.204 0.005 0  2.2135 0.005 0  2.223 0.005 0  2.2325 0.005 0  2.242 0.005 0  2.2515 0.005 0  2.261 0.005 0  2.2705 0.005 0  2.28 0.005 0  2.2895 0.005 0  2.299 0.005 0  2.3085 0.005 0  2.318 0.005 0  2.3275 0.005 0  2.337 0.005 0  2.3465 0.005 0  2.356 0.005 0  2.3655 0.005 0  2.375 0.005 0  2.3845 0.005 0  2.394 0.005 0  2.4035 0.005 0  2.413 0.005 0  2.4225 0.005 0  2.432 0.005 0  2.4415 0.005 0  2.451 0.005 0  2.4605 0.005 0  2.47 0.005 0  2.4795 0.005 0  2.489 0.005 0  2.4985 0.005 0  2.508 0.005 0  2.5175 0.005 0  2.527 0.005 0  2.5365 0.005 0  2.546 0.005 0  2.5555 0.005 0  2.565 0.005 0  2.5745 0.005 0  2.584 0.005 0  2.5935 0.005 0  2.603 0.005 0  2.6125 0.005 0  2.622 0.005 0  2.6315 0.005 0  2.641 0.005 0  2.6505 0.005 0  2.66 0.005 0  2.6695 0.005 0  2.679 0.005 0  2.688499999999999 0.005 0  2.698 0.005 0  2.7075 0.005 0  2.717 0.00
[...]
<PointData  Scalars="rho_bar"> 
<DataArray  type="Float64"  Name="rho_bar"  format="ascii">8.5911643500688606e-01  8.5862429325340828e-01  8.5805402882577086e-01  8.5724737620443514e-01  8.5618469288578780e-01  8.5486326472936824e-01  8.5329988973617288e-01  8.5150590174519525e-01  8.4950723553499807e-01  8.4732872397937298e-01  8.4500334514722819e-01  8.4256132910990122e-01  8.4004444893800045e-01  8.3748638183034263e-01  8.3493075126800886e-01  8.3241401879153221e-01  8.2997692939365364e-01  8.2765111843773764e-01  8.2547595564723464e-01  8.2347715254313603e-01  8.2168766822906447e-01  8.2012848511433012e-01  8.1882299640866907e-01  8.1778120922695796e-01  8.1701802188989003e-01  8.1653151893850007e-01  8.1632423534478393e-01  8.1638549235249191e-01  8.1670572953032727e-01  8.1726277513205037e-01  8.1804126546042666e-01  8.1901099141242018e-01  8.2015015768263155e-01  8.2142654016252159e-01  8.2281377310767123e-01  8.2427585948288384e-01  8.2578779983309303e-01  8.2731435336180481e-01  8.2883389948226882e-01  8.3032075049389953e-01  8.3175825969438844e-01  8.3312037383824267e-01  8.3438920089914581e-01  8.3553104885216323e-01  8.3652028317625327e-01  8.3731984993368458e-01  8.3789989556344191e-01  8.3822285790622464e-01  8.3826667268633448e-01  8.3800298248272376e-01  8.3742127257717702e-01  8.3651054216654974e-01  8.3527599545593034e-01  8.3372348467001556e-01  8.3188034033932012e-01  8.2977161202569027e-01  8.2744371822619400e-01  8.2494286676292550e-01  8.2233116967060949e-01  8.1966604250937825e-01  8.1701861377774254e-01  8.1444711768263456e-01  8.1201626554522766e-01  8.0977523799267082e-01  8.0777069093562437e-01  8.0602960918756472e-01  8.0457736913760070e-01  8.0341441441457340e-01  8.0253902127321342e-01  8.0192733212496370e-01  8.0155171251987767e-01  8.0136559238996929e-01  8.0132713634785790e-01  8.0138037047166988e-01  8.0148082795952247e-01  8.0157831561240001e-01  8.0163087686819146e-01  8.0159113144461358e-01  8.0142501542207734e-01  8.0109081122788672e-01  8.0056207250638955e-01  7.9980835183149024e-01  7.9881186517025415e-01  7.9755132205199208e-01  7.9602228053717627e-01  7.9421527542779324e-01  7.9213829800922275e-01  7.8979910522609997e-01  7.8721874126836400e-01  7.8441778250899552e-01  7.8143356368396955e-01  7.7829829735234168e-01  7.7505990878240238e-01  7.7176140654102510e-01  7.6845484554896948e-01  7.6518363029272030e-01  7.6199952749526634e-01  7.5893956065145496e-01  7.5604599416845142e-01  7.5334871383999624e-01  7.5087770014799171e-01  7.4865086559789795e-01  7.4669109318191085e-01  7.4500599967940662e-01  7.4360888884810206e-01  7.4250017620093078e-01  7.4168205299057621e-01  7.4114362436618386e-01  7.4087976821668089e-01  7.4087041449978708e-01  7.4110209678244365e-01  7.4155265696898232e-01  7.4220462385740205e-01  7.4303457925624006e-01  7.4403107961961645e-01  7.4517318297097657e-01  7.4644959835653601e-01  7.4783777258727113e-01  7.4931743923756999e-01  7.5085394625177793e-01  7.5241697476523062e-01  7.5395797509265228e-01  7.5543244444295743e-01  7.5678368654365513e-01  7.5795762586704063e-01  7.5889237254723185e-01  7.5953954477238461e-01  7.5984682856779995e-01  7.5978490934004150e-01  7.5932975957173143e-01  7.5847909855542706e-01  7.5723501629956835e-01  7.5562343585808656e-01  7.5367147145150115e-01  7.5142882142621481e-01  7.4894865570002889e-01  7.4630023420178304e-01  7.4355456443722800e-01  7.4080019553150400e-01  7.3811918091344808e-01  7.3560390728747094e-01  7.3333273338369898e-01  7.3137955377502728e-01  7.2979378807491735e-01  7.2861553389033473e-01  7.2785318262762799e-01  7.2750366958654200e-01  7.2753624929639915e-01  7.2790584416915582e-01  7.2854446369101133e-01  7.2938145594811266e-01  7.3032727088023908e-01  7.3129784293852995e-01  7.3220131631004792e-01  7.3295757011794038e-01  7.3348957905734835e-01  7.3374571481015849e-01  7.3367971973756285e-01  7.3327096466149788e-01  7.3250765060569911e-01  7.3139756152288549e-01  7.2995476584535313e-01  7.2821242138130682e-01  7.2619942622955591e-01  7.2395693817556406e-01  7.2151766785205418e-01  7.1891751992618558e-01  7.1618131407252994e-01  7.1334101544927386e-01  7.1041816336904129e-01  7.0744574153596829e-01  7.0445412130523588e-01  7.0148249860665068e-01  6.9856853278297615e-01  6.9576273153194690e-01  6.9310846574646856e-01  6.9065831501653052e-01  6.8845319418197226e-01  6.8653064265590713e-01  6.8490998909091061e-01  6.8360692912677834e-01  6.8261394301388545e-01  6.8192010165415085e-01  6.8149802702292306e-01  6.8131587345296596e-01  6.8132939750186072e-01  6.8149857468239461e-01  6.8177099087427473e-01  6.8210273523710196e-01  6.8244299699135225e-01  6.8274790623675341e-01  6.8296808986005408e-01  6.8306615176094043e-01  6.8299776153887493e-01  6.8273224444266278e-01  6.8223848166058720e-01  6.8149639996929956e-01  6.8048755224945046e-01  6.7921112318727483e-01  6.7766690451143741e-01  6.7587566193613491e-01  6.7386172035441494e-01  6.7166406121429767e-01  6.6932128176518135e-01  6.6688525783668551e-01  6.6439948815434069e-01  6.6191522211191478e-01  6.5947449057535878e-01  6.5711819809631888e-01  6.5487503094443689e-01  6.5277411756109827e-01  6.5082691094411449e-01  6.4904517628426139e-01  6.4742591349218748e-01  6.4596435453270007e-01  6.4464315693034047e-01  6.4344849327745812e-01  6.4235302055649179e-01  6.4133460982183810e-01  6.4036308795102292e-01  6.3940991213800813e-01  6.3844010693990172e-01  6.3742798156145941e-01  6.3634486014427782e-01  6.3518228250077424e-01  6.3393971360885693e-01  6.3263499516287891e-01  6.3128719870499161e-01  6.2992331961568737e-01  6.2855418662219087e-01  6.2718880047298953e-01  6.2582169733745840e-01  6.2444434278745498e-01  6.2304119239159039e-01  6.2160641042800591e-01  6.2013090025428230e-01  6.1861914518785532e-01  6.1707169230561787e-01  6.1549174968505316e-01  6.1387279825663033e-01  6.1221243139253534e-01  6.1049685203249582e-01  6.0871878368564736e-01  6.0686688759266172e-01  6.0493642726524866e-01  6.0292421900087234e-01  6.0084071062673305e-01  5.9869189833820047e-01  5.9649187667426973e-01  5.9424886234424856e-01  5.9197815683413946e-01  5.8969468433118710e-01  5.8742315459529360e-01  5.8517633155048665e-01  5.8296758257155712e-01  5.8079948446560203e-01  5.7867311979925551e-01  5.7658281417816559e-01  5.7452809734060295e-01  5.7250003781645864e-01  5.7049747260081674e-01  5.6851511163338608e-01  5.6655404885198435e-01  5.6461345498484095e-01  5.6270280376233539e-01  5.6082530828383004e-01  5.5898956804604139e-01  5.5719442603039671e-01  5.5543446950302777e-01  5.5369644377242488e-01  5.5197455409005791e-01  5.5025968271164361e-01  5.4855477218683224e-01  5.4686217530664982e-01  5.4519127827516467e-01  5.4354690595206767e-01  5.4193491126352045e-01  5.4034168072493205e-01  5.3874682128206997e-01  5.3711652065940563e-01  5.3541716181505306e-01  5.3361601369629863e-01  5.3169523440791566e-01  5.2964201895544871e-01  5.2746675294906287e-01  5.2519401035562108e-01  5.2286539917775687e-01  5.2052016856571148e-01  5.1820044892458439e-01  5.1593981577026227e-01  5.1377377967713467e-01  5.1171978429102827e-01  5.0977856479641903e-01  5.0793074212301059e-01  5.0615367891323093e-01  5.0442054353836918e-01  5.0272206725717816e-01  5.0105171660137438e-01  4.9939456366525398e-01  4.9770462608321309e-01  4.9591962995461175e-01  4.9396642239975874e-01  4.9178475266924054e-01  4.8932358265320802e-01  4.8655677003473963e-01  4.8349077826885789e-01  4.8017703584136096e-01  4.7669327606419887e-01  4.7314356414708059e-01  4.6962814342886677e-01  4.6626587180536871e-01  4.6316525306516226e-01  4.6035039557622931e-01  4.5775608617107155e-01  4.5527828395548942e-01  4.5279032990630091e-01  4.5017220155153587e-01  4.4732227089911830e-01  4.4415535334965967e-01  4.4055427552268378e-01  4.3638105422423579e-01  4.3147925955645561e-01  4.2570539412421027e-01  4.1894766161724317e-01  4.1117708381299395e-01  4.0245147211921672e-01  3.9287583988593072e-01  3.8249751834845930e-01  3.7133721112189094e-01  3.5938662180071557e-01  3.4659011560234870e-01  3.3286155351673702e-01  3.1814951081062792e-01  3.0246787826774196e-01  2.8592527728344141e-01  2.6870146171382003e-01  2.5101541523124077e-01  2.3306649118601577e-01  2.1510675230262052e-01  1.9740767770118001e-01  1.8027152549551154e-01  1.6398542800308757e-01  1.4876702747364218e-01  1.3471714911863153e-01  1.2185100909172175e-01  1.1012675261190435e-01  9.9478388347391339e-02  8.9824667971613606e-02  8.1082985284875314e-02  7.3170892607536772e-02  6.6012478126204477e-02  5.9535441088566295e-02  5.3675802665745738e-02  4.8374154900869444e-02  4.3577916738558306e-02  3.9238940502211210e-02  3.5314854158302982e-02  3.1766385608398562e-02  2.8559204736872852e-02  2.5661483970829322e-02  2.3044863623033488e-02  2.0683185694515945e-02  1.8553204399927241e-02  1.6633059916605155e-02  1.4903585969685683e-02  1.3346749334999996e-02  1.1946429085094397e-02  1.0687607959756958e-02  9.5569194561572306e-03  8.5417751503545341e-03  7.6311348805282158e-03  6.8146721961538682e-03  6.0831299552471223e-03  5.4279776231985124e-03  4.8416115691196342e-03  4.3169731431963289e-03  3.8478739036692891e-03  3.4286109759659230e-03  3.0540994485745111e-03  2.7196972941416582e-03  2.4213043995050740e-03  2.1551538232622044e-03  1.9179748170674005e-03  1.7067880951151153e-03  1.5189563539645488e-03  1.3521025616932793e-03  1.2041436063323007e-03  1.0731853123346765e-03  9.5761146295551185e-04  8.5595849871350493e-04  7.6696370076605473e-04  6.8949669783844149e-04  6.2259920775317105e-04  5.6541460356828962e-04  5.1724567544090432e-04  4.7748583207798273e-04  4.4565052646482542e-04  4.2134532440461379e-04  4.0430016431290970e-04  3.9437929874555432e-04  3.9190742790765933e-04  8.5802636437389390e-01  8.5771301812521727e-01  8.5716187043239400e-01  8.5635286532388022e-01  8.5528512897404685e-01  8.5395406295154963e-01  8.5238043275920916e-01  8.5057240416844171e-01  8.4856013758991533e-01  8.4636514132544649e-01  8.4402362960230504e-01  8.4156314388176900e-01  8.3902871092413156e-01  8.3645129615333136e-01  8.3387827881946230e-01  8.3134328946961356e-01  8.2889034246504478e-01  8.2654799729177952e-01  8.2435924085614642e-01  8.2234640654286628e-01  8.2054652556288155e-01  8.1897732744582241e-01  8.1766535801401019e-01  8.1661776575878109e-01  8.1585238829202389e-01  8.1536434050002271e-01  8.1515951216152482e-01  8.1522403846440150e-01  8.1555127630469892e-01  8.1611561249338727e-01  8.1690495950286368e-01  8.1788542748360971e-01  8.1903897069661358e-01  8.2032986892219584e-01  8.2173466952177321e-01  8.2321435993669012e-01  8.2474672871751420e-01  8.2629353768578606e-01  8.2783633548792912e-01  8.2934610723895741e-01  8.3080869593626816e-01  8.3219433492019290e-01  8.3348799130028561e-01  8.3465203431592605e-01  8.3566409296755184e-01  8.3648337953139251e-01  8.3708242441219705e-01  8.3742046998703723e-01  8.3747772349096727e-01  8.3722268354582152e-01  8.3664766809978119e-01  8.3573862417725187e-01  8.3450334836632645e-01  8.3294463089445858e-01  8.3109306244083259e-01  8.2897051650998677e-01  8.2662730871993095e-01  8.2410683274320840e-01  8.2147439084825791e-01  8.1878524530883257e-01  8.1611365223674937e-01  8.1351571612236484e-01  8.1105979203200118e-01  8.0879275829262709e-01  8.0676442641779544e-01  8.0499909987402629e-01  8.0352569106478533e-01  8.0234148188665433e-01  8.0144868336002573e-01  8.0082030537561766e-01  8.0043180605121644e-01  8.0023379665401251e-01  8.0018710187613418e-01  8.0023256658336461e-01  8.0032850715913118e-01  8.0042117016781789e-01  8.0047103925335983e-01  8.0042702268659305e-01  8.0025802806852808e-01  7.9991834830726627e-01  7.9938513852914128e-01  7.9862418081376874e-01  7.9762059832233834e-01  7.9634985460677221e-01  7.9481026476876049e-01  7.9298923670321719e-01  7.9089821816929695e-01  7.8854178556890808e-01  7.8594417617182288e-01  7.8312277122886353e-01  7.8011864888050964e-01  7.7696058368732435e-01  7.7370088240851820e-01  7.7037931654051361e-01  7.6705158254583350e-01  7.6375832540470889e-01  7.6055464182815269e-01  7.5747472773872426e-01  7.5456460808461001e-01  7.5185099722108606e-01  7.4936710515558214e-01  7.4712743512503799e-01  7.4515847917619260e-01  7.4346416221459100e-01  7.4206194672661130e-01  7.4094867181946289e-01  7.4012987428842125e-01  7.3959148002733610e-01  7.3933139343413778e-01  7.3932644677066361e-01  7.3956675766941771e-01  7.4002688272769168e-01  7.4069254934601869e-01  7.4153682384373609e-01  7.4255169417993450e-01  7.4371218463372357e-01  7.4501079935593728e-01  7.4642105800687775e-01  7.4792568393785241e-01  7.4948653565732104e-01  7.5107597227461864e-01  7.5264194658582462e-01  7.5414303640917879e-01  7.5551872280777010e-01  7.5671740332222726e-01  7.5767310265934895e-01  7.5834037953662192e-01  7.5866260600170199e-01  7.5861408231704741e-01  7.5816693567729743e-01  7.5732204559662486e-01  7.5607847702309228e-01  7.5446522165858598e-01  7.5250643219955105e-01  7.5025538765198296e-01  7.4776217673256518e-01  7.4509924383812876e-01  7.4233455042335750e-01  7.3956052548205264e-01  7.3685620140976216e-01  7.3431862153957628e-01  7.3202341035922147e-01  7.3004826637748022e-01  7.2844017655053073e-01  7.2724253584101539e-01  7.2646106810710442e-01  7.2609621171809569e-01  7.2611415828634451e-01  7.2647279252527452e-01  7.2710055709751009e-01  7.2792991210566682e-01  7.2886732438581703e-01  7.2983243408948040e-01  7.3072954495900144e-01  7.3148148407501168e-01  7.3200748797790149e-01  7.3225827247055164e-01  7.3218391077397627e-01  7.3176698530763618e-01  7.3099212469481412e-01  7.2987031028665683e-01  7.2841234484076389e-01  7.2665537173322980e-01  7.2462494118822618e-01  7.2236680196227132e-01  7.1991029778560889e-01  7.1729490110012883e-01  7.1454221354208358e-01  7.1168719232327893e-01  7.0874812062063319e-01  7.0576166029382492e-01  7.0275487336633435e-01  6.9977036035186158e-01  6.9684247649509767e-01  6.9402569657868929e-01  6.9136012846967043e-01  6.8890302257203995e-01  6.8669204274528306e-01  6.8476830786299625e-01  6.8314779079203791e-01  6.8184900816922012e-01  6.8086101535662746e-01  6.8017619726224954e-01  6.7976351244689559e-01  6.7959402367486621e-01  6.7961966406503604e-01  6.7980369357773029e-01  6.8008963259676369e-01  6.8043742409114427e-01  6.8079230602630669e-01  6.8111349114709852e-01  6.8134807253100793e-01  6.8146138974980552e-01  6.8140561337086114e-01  6.8115333001675349e-01  6.8066973183648005e-01  6.7993761908624351e-01  6.7893478507363136e-01  6.7766375316540595e-01  6.7612043469295435e-01  6.7432959564747419e-01  6.7231195869225735e-01  6.7010992541866410e-01  6.6775916400415014e-01  6.6531480251717634e-01  6.6281761234898107e-01  6.6032267619739660e-01  6.5786909776083002e-01  6.5550116205141584e-01  6.5324445092784011e-01  6.5113176749572155e-01  6.4917111155741536e-01  6.4737829864060148e-01  6.4574680277621355e-01  6.4427505542099395e-01  6.4294258166983698e-01  6.4173843974458811e-01  6.4063222753917182e-01  6.3960529705749680e-01  6.3862424909284232e-01  6.3766364296381750e-01  6.3668494773328266e-01  6.3566558915470117e-01  6.3457267344744006e-01  6.3340130028656905e-01  6.3214739204425963e-01  6.3083264978390108e-01  6.2947378133205767e-01  6.2810142757218423e-01  6.2672369129582595e-01  6.2535309333657418e-01  6.2398061968871577e-01  6.2260048849768801e-01  6.2119326896155469e-01  6.1975622939349340e-01  6.1827651980991438e-01  6.1676282735038301e-01  6.1521238335370365e-01  6.1363175471364406e-01  6.1201115082968227e-01  6.1035093805351415e-01  6.0863410671741858e-01  6.0685667925651565e-01  6.0500379426657958e-01  6.0307358765325159e-01  6.0105940996460716e-01  5.9897535672929125e-01  5.9682415634771779e-01  5.9462385672377926e-01  5.9237881163279293e-01  5.9010720038044251e-01  5.8782093231663191e-01  5.8554801659362121e-01  5.8329845505219691e-01  5.8108895451216058e-01  5.7891876799337072e-01  5.7679192584909700e-01  5.7469940711062473e-01  5.7264403874766012e-01  5.7061331132986071e-01  5.6860978063656431e-01  5.6662456606443590e-01  5.6466175916247296e-01  5.6271740853206631e-01  5.6080385633880037e-01  5.5892164038881464e-01  5.5708304279167453e-01  5.5528397291504605e-01  5.5352185382993435e-01  5.5177980314971153e-01  5.5005506417225813e-01  5.4833499099273586e-01  5.4662625767800210e-01  5.4492779001358027e-01  5.4325219457324991e-01  5.4160167872340903e-01  5.3998538197919499e-01  5.3838698443884259e-01  5.3678917807419169e-01  5.3515458718178333e-01  5.3345223534507979e-01  5.3164603026251112e-01  5.2972137405456532e-01  5.2766192487553809e-01  5.2548170599138133e-01  5.2320220418939700e-01  5.2086895281885326e-01  5.1851865683723886e-01  5.1619592970553818e-01  5.1393143115554851e-01  5.1176452785829041e-01  5.0970987386747202e-01  5.0777114610851004e-01  5.0592542974592980e-01  5.0415262381895598e-01  5.0242182847548778e-01  5.0072724788083334e-01  4.9906002457141801e-01  4.9740946962273347e-01  4.9572704473252061e-01  4.9395275556771584e-01  4.9201084906541748e-01  4.8984488252008918e-01  4.8740126800455680e-01  4.8465671167014207e-01  4.8161496701194556e-01  4.7833132875563950e-01  4.7488131761415109e-01  4.7137494816646863e-01  4.6790973665931024e-01  4.6460343658049486e-01  4.6155537564830318e-01  4.5879292178515274e-01  4.5625001527946391e-01  4.5382636262536669e-01  4.5139311532422938e-01  4.4883202029843400e-01  4.4603846395845587e-01  4.4293147248164599e-01  4.3939194794909003e-01  4.3528561371412533e-01  4.3045457429158746e-01  4.2475919854932814e-01  4.1808641089398801e-01  4.1040888380956059e-01  4.0177843132128455e-01  3.9229736402300897e-01  3.8201209906653538e-01  3.7094453346765371e-01  3.5908373888474360e-01  3.4637744689666106e-01  3.3273869332164763e-01  3.1811783954382145e-01  3.0252527166976323e-01  2.8606830343221851e-01  2.6892176195490286e-01  2.5130568468991799e-01  2.3341711692630168e-01  2.1550551978188637e-01  1.9784065360191180e-01  1.8072371118314759e-01  1.6444188119418723e-01  1.4921596990234834e-01  1.3515038397427770e-01  1.2226343370899335e-01  1.1051507040778383e-01  9.9840920513050865e-02  9.0160844562840833e-02  8.1393007604120521e-02  7.3455529957051721e-02  6.6272742727267825e-02  5.9772687413348076e-02  5.3891435104970596e-02  4.8569730132388376e-02  4.3754916401847942e-02  3.9398893936937261e-02  3.5459105425769105e-02  3.1896344613073759e-02  2.8676079060347654e-02  2.5766554480824332e-02  2.3139186877696415e-02  2.0767859729328972e-02  1.8629094173568891e-02  1.6701075114144225e-02  1.4964466054885623e-02  1.3401267954439884e-02  1.1995203094725307e-02  1.0731266211691510e-02  9.5959519903332582e-03  8.5766791556472141e-03  7.6623181958345105e-03  6.8425542461691769e-03  6.1080360701879491e-03  5.4502442188239433e-03  4.8614927304168748e-03  4.3347286521055028e-03  3.8637160509320044e-03  3.4427583267673434e-03  3.0667153590416408e-03  2.7309580268655982e-03  2.4313385708895556e-03  2.1640975631000239e-03  1.9259345744530893e-03  1.7138814810249957e-03  1.5252649159886900e-03  1.3577232293377367e-03  1.2091415189953456e-03  1.0776349452361034e-03  9.6157079422012502e-04  8.5949124802786841e-04  7.7011703851296350e-04  6.9232421440131378e-04  6.2514067433932705e-04  5.6771318859480705e-04  5.1933804231615313e-04  4.7941053243392230e-04  4.4743919412367172e-04  4.2303091359909001e-04  4.0590441975489009e-04  3.9588587814691115e-04  3.9290483374494853e-04  8.5524394216166066e-01  8.5500765211253871e-01  8.5447001779923359e-01  8.5365531033912168e-01  8.5256611499170121e-01  8.5121092721158143e-01  8.4960152052691307e-01  8.4775748655996774e-01  8.4569998157500204e-01  8.4345916333001936e-01  8.4106411086796129e-01  8.3855232190015394e-01  8.3596026769086729e-01  8.3332985894721812e-01  8.3070033806152421e-01  8.2811415498913632e-01  8.2560804118623965e-01  8.2322066449443665e-01  8.2098551121295338e-01  8.1893624436055790e-01  8.1710049316030486e-01  8.1550508928955101e-01  8.1416861066714907e-01  8.1310780862690335e-01  8.1233110294415578e-01  8.1184363736690235e-01  8.1164201652971923e-01  8.11720196274