<?xml version="1.0"?>
<VTKFile type="UnstructuredGrid"  version="0.1"  >
<UnstructuredGrid>
<Piece  NumberOfPoints="40501" NumberOfCells="80000">
<Points>
<DataArray  type="Float64"  NumberOfComponents="3"  format="ascii">0 0 0  0.0095 0 0  0.019 0 0  0.0285 0 0  0.038 0 0  0.0475 0 0  0.057 0 0  0.06649999999999999 0 0  0.076 0 0  0.08549999999999999 0 0  0.095 0 0  0.1045 0 0  0.114 0 0  0.1235 0 0  0.133 0 0  0.1425 0 0  0.152 0 0  0.1615 0 0  0.171 0 0  0.1805 0 0  0.19 0 0  0.1995 0 0  0.209 0 0  0.2185 0 0  0.228 0 0  0.2375 0 0  0.247 0 0  0.2565 0 0  0.266 0 0  0.2755 0 0  0.285 0 0  0.2945 0 0  0.304 0 0  0.3135 0 0  0.323 0 0  0.3325 0 0  0.342 0 0  0.3515 0 0  0.361 0 0  0.3705 0 0  0.38 0 0  0.3895 0 0  0.399 0 0  0.4085 0 0  0.418 0 0  0.4275 0 0  0.4369999999999999 0 0  0.4465 0 0  0.456 0 0  0.4655 0 0  0.475 0 0  0.4844999999999999 0 0  0.494 0 0  0.5034999999999999 0 0  0.513 0 0  0.5225 0 0  0.5319999999999999 0 0  0.5415 0 0  0.5509999999999999 0 0  0.5605 0 0  0.57 0 0  0.5794999999999999 0 0  0.589 0 0  0.5984999999999999 0 0  0.608 0 0  0.6175 0 0  0.627 0 0  0.6365 0 0  0.6459999999999999 0 0  0.6555 0 0  0.665 0 0  0.6745 0 0  0.6839999999999999 0 0  0.6934999999999999 0 0  0.703 0 0  0.7125 0 0  0.722 0 0  0.7314999999999999 0 0  0.741 0 0  0.7504999999999999 0 0  0.76 0 0  0.7695000000000001 0 0  0.7789999999999999 0 0  0.7885 0 0  0.7979999999999999 0 0  0.8075 0 0  0.8170000000000001 0 0  0.8264999999999999 0 0  0.836 0 0  0.8454999999999999 0 0  0.855 0 0  0.8645 0 0  0.8739999999999999 0 0  0.8835 0 0  0.893 0 0  0.9025 0 0  0.9119999999999999 0 0  0.9214999999999999 0 0  0.9309999999999999 0 0  0.9405 0 0  0.95 0 0  0.9594999999999999 0 0  0.9689999999999999 0 0  0.9784999999999999 0 0  0.988 0 0  0.9975000000000001 0 0  1.007 0 0  1.0165 0 0  1.026 0 0  1.0355 0 0  1.045 0 0  1.0545 0 0  1.064 0 0  1.0735 0 0  1.083 0 0  1.0925 0 0  1.102 0 0  1.1115 0 0  1.121 0 0  1.1305 0 0  1.14 0 0  1.1495 0 0  1.159 0 0  1.1685 0 0  1.178 0 0  1.1875 0 0  1.197 0 0  1.2065 0 0  1.216 0 0  1.2255 0 0  1.235 0 0  1.2445 0 0  1.254 0 0  1.2635 0 0  1.273 0 0  1.2825 0 0  1.292 0 0  1.3015 0 0  1.311 0 0  1.3205 0 0  1.33 0 0  1.3395 0 0  1.349 0 0  1.3585 0 0  1.368 0 0  1.3775 0 0  1.387 0 0  1.3965 0 0  1.406 0 0  1.4155 0 0  1.425 0 0  1.4345 0 0  1.444 0 0  1.4535 0 0  1.463 0 0  1.4725 0 0  1.482 0 0  1.4915 0 0  1.501 0 0  1.5105 0 0  1.52 0 0  1.5295 0 0  1.539 0 0  1.5485 0 0  1.558 0 0  1.5675 0 0  1.577 0 0  1.5865 0 0  1.596 0 0  1.6055 0 0  1.615 0 0  1.6245 0 0  1.634 0 0  1.6435 0 0  1.653 0 0  1.6625 0 0  1.672 0 0  1.6815 0 0  1.691 0 0  1.7005 0 0  1.71 0 0  1.7195 0 0  1.729 0 0  1.7385 0 0  1.748 0 0  1.7575 0 0  1.767 0 0  1.7765 0 0  1.786 0 0  1.7955 0 0  1.805 0 0  1.8145 0 0  1.824 0 0  1.8335 0 0  1.843 0 0  1.8525 0 0  1.862 0 0  1.8715 0 0  1.881 0 0  1.8905 0 0  1.9 0 0  1.9095 0 0  1.919 0 0  1.9285 0 0  1.938 0 0  1.9475 0 0  1.957 0 0  1.9665 0 0  1.976 0 0  1.9855 0 0  1.995 0 0  2.0045 0 0  2.014 0 0  2.0235 0 0  2.033 0 0  2.0425 0 0  2.052 0 0  2.0615 0 0  2.071 0 0  2.0805 0 0  2.09 0 0  2.0995 0 0  2.109 0 0  2.1185 0 0  2.128 0 0  2.1375 0 0  2.147 0 0  2.1565 0 0  2.166 0 0  2.1755 0 0  2.185 0 0  2.1945 0 0  2.204 0 0  2.2135 0 0  2.223 0 0  2.2325 0 0  2.242 0 0  2.2515 0 0  2.261 0 0  2.2705 0 0  2.28 0 0  2.2895 0 0  2.299 0 0  2.3085 0 0  2.318 0 0  2.3275 0 0  2.337 0 0  2.3465 0 0  2.356 0 0  2.3655 0 0  2.375 0 0  2.3845 0 0  2.394 0 0  2.4035 0 0  2.413 0 0  2.4225 0 0  2.432 0 0  2.4415 0 0  2.451 0 0  2.4605 0 0  2.47 0 0  2.4795 0 0  2.489 0 0  2.4985 0 0  2.508 0 0  2.5175 0 0  2.527 0 0  2.5365 0 0  2.546 0 0  2.5555 0 0  2.565 0 0  2.5745 0 0  2.584 0 0  2.5935 0 0  2.603 0 0  2.6125 0 0  2.622 0 0  2.6315 0 0  2.641 0 0  2.6505 0 0  2.66 0 0  2.6695 0 0  2.679 0 0  2.688499999999999 0 0  2.698 0 0  2.7075 0 0  2.717 0 0  2.7265 0 0  2.736 0 0  2.7455 0 0  2.755 0 0  2.7645 0 0  2.774 0 0  2.7835 0 0  2.793 0 0  2.8025 0 0  2.812 0 0  2.8215 0 0  2.831 0 0  2.8405 0 0  2.85 0 0  2.8595 0 0  2.869 0 0  2.8785 0 0  2.888 0 0  2.8975 0 0  2.907 0 0  2.9165 0 0  2.926 0 0  2.9355 0 0  2.945 0 0  2.9545 0 0  2.964 0 0  2.9735 0 0  2.983 0 0  2.9925 0 0  3.002 0 0  3.0115 0 0  3.020999999999999 0 0  3.0305 0 0  3.04 0 0  3.0495 0 0  3.059 0 0  3.0685 0 0  3.078 0 0  3.0875 0 0  3.097 0 0  3.1065 0 0  3.116 0 0  3.1255 0 0  3.135 0 0  3.1445 0 0  3.154 0 0  3.1635 0 0  3.173 0 0  3.1825 0 0  3.192 0 0  3.2015 0 0  3.211 0 0  3.2205 0 0  3.23 0 0  3.2395 0 0  3.249 0 0  3.2585 0 0  3.268 0 0  3.2775 0 0  3.287 0 0  3.2965 0 0  3.306 0 0  3.3155 0 0  3.325 0 0  3.3345 0 0  3.344 0 0  3.353499999999999 0 0  3.363 0 0  3.3725 0 0  3.382 0 0  3.3915 0 0  3.401 0 0  3.4105 0 0  3.42 0 0  3.4295 0 0  3.439 0 0  3.4485 0 0  3.458 0 0  3.4675 0 0  3.477 0 0  3.4865 0 0  3.496 0 0  3.5055 0 0  3.515 0 0  3.5245 0 0  3.534 0 0  3.5435 0 0  3.553 0 0  3.5625 0 0  3.572 0 0  3.5815 0 0  3.591 0 0  3.6005 0 0  3.61 0 0  3.6195 0 0  3.629 0 0  3.6385 0 0  3.648 0 0  3.6575 0 0  3.667 0 0  3.6765 0 0  3.685999999999999 0 0  3.6955 0 0  3.705 0 0  3.7145 0 0  3.724 0 0  3.7335 0 0  3.742999999999999 0 0  3.7525 0 0  3.762 0 0  3.7715 0 0  3.781 0 0  3.7905 0 0  3.8 0 0  0 0.005 0  0.0095 0.005 0  0.019 0.005 0  0.0285 0.005 0  0.038 0.005 0  0.0475 0.005 0  0.057 0.005 0  0.06649999999999999 0.005 0  0.076 0.005 0  0.08549999999999999 0.005 0  0.095 0.005 0  0.1045 0.005 0  0.114 0.005 0  0.1235 0.005 0  0.133 0.005 0  0.1425 0.005 0  0.152 0.005 0  0.1615 0.005 0  0.171 0.005 0  0.1805 0.005 0  0.19 0.005 0  0.1995 0.005 0  0.209 0.005 0  0.2185 0.005 0  0.228 0.005 0  0.2375 0.005 0  0.247 0.005 0  0.2565 0.005 0  0.266 0.005 0  0.2755 0.005 0  0.285 0.005 0  0.2945 0.005 0  0.304 0.005 0  0.3135 0.005 0  0.323 0.005 0  0.3325 0.005 0  0.342 0.005 0  0.3515 0.005 0  0.361 0.005 0  0.3705 0.005 0  0.38 0.005 0  0.3895 0.005 0  0.399 0.005 0  0.4085 0.005 0  0.418 0.005 0  0.4275 0.005 0  0.4369999999999999 0.005 0  0.4465 0.005 0  0.456 0.005 0  0.4655 0.005 0  0.475 0.005 0  0.4844999999999999 0.005 0  0.494 0.005 0  0.5034999999999999 0.005 0  0.513 0.005 0  0.5225 0.005 0  0.5319999999999999 0.005 0  0.5415 0.005 0  0.5509999999999999 0.005 0  0.5605 0.005 0  0.57 0.005 0  0.5794999999999999 0.005 0  0.589 0.005 0  0.5984999999999999 0.005 0  0.608 0.005 0  0.6175 0.005 0  0.627 0.005 0  0.6365 0.005 0  0.6459999999999999 0.005 0  0.6555 0.005 0  0.665 0.005 0  0.6745 0.005 0  0.6839999999999999 0.005 0  0.6934999999999999 0.005 0  0.703 0.005 0  0.7125 0.005 0  0.722 0.005 0  0.7314999999999999 0.005 0  0.741 0.005 0  0.7504999999999999 0.005 0  0.76 0.005 0  0.7695000000000001 0.005 0  0.7789999999999999 0.005 0  0.7885 0.005 0  0.7979999999999999 0.005 0  0.8075 0.005 0  0.8170000000000001 0.005 0  0.8264999999999999 0.005 0  0.836 0.005 0  0.8454999999999999 0.005 0  0.855 0.005 0  0.8645 0.005 0  0.8739999999999999 0.005 0  0.8835 0.005 0  0.893 0.005 0  0.9025 0.005 0  0.9119999999999999 0.005 0  0.9214999999999999 0.005 0  0.9309999999999999 0.005 0  0.9405 0.005 0  0.95 0.005 0  0.9594999999999999 0.005 0  0.9689999999999999 0.005 0  0.9784999999999999 0.005 0  0.988 0.005 0  0.9975000000000001 0.005 0  1.007 0.005 0  1.0165 0.005 0  1.026 0.005 0  1.0355 0.005 0  1.045 0.005 0  1.0545 0.005 0  1.064 0.005 0  1.0735 0.005 0  1.083 0.005 0  1.0925 0.005 0  1.102 0.005 0  1.1115 0.005 0  1.121 0.005 0  1.1305 0.005 0  1.14 0.005 0  1.1495 0.005 0  1.159 0.005 0  1.1685 0.005 0  1.178 0.005 0  1.1875 0.005 0  1.197 0.005 0  1.2065 0.005 0  1.216 0.005 0  1.2255 0.005 0  1.235 0.005 0  1.2445 0.005 0  1.254 0.005 0  1.2635 0.005 0  1.273 0.005 0  1.2825 0.005 0  1.292 0.005 0  1.3015 0.005 0  1.311 0.005 0  1.3205 0.005 0  1.33 0.005 0  1.3395 0.005 0  1.349 0.005 0  1.3585 0.005 0  1.368 0.005 0  1.3775 0.005 0  1.387 0.005 0  1.3965 0.005 0  1.406 0.005 0  1.4155 0.005 0  1.425 0.005 0  1.4345 0.005 0  1.444 0.005 0  1.4535 0.005 0  1.463 0.005 0  1.4725 0.005 0  1.482 0.005 0  1.4915 0.005 0  1.501 0.005 0  1.5105 0.005 0  1.52 0.005 0  1.5295 0.005 0  1.539 0.005 0  1.5485 0.005 0  1.558 0.005 0  1.5675 0.005 0  1.577 0.005 0  1.5865 0.005 0  1.596 0.005 0  1.6055 0.005 0  1.615 0.005 0  1.6245 0.005 0  1.634 0.005 0  1.6435 0.005 0  1.653 0.005 0  1.6625 0.005 0  1.672 0.005 0  1.6815 0.005 0  1.691 0.005 0  1.7005 0.005 0  1.71 0.005 0  1.7195 0.005 0  1.729 0.005 0  1.7385 0.005 0  1.748 0.005 0  1.7575 0.005 0  1.767 0.005 0  1.7765 0.005 0  1.786 0.005 0  1.7955 0.005 0  1.805 0.005 0  1.8145 0.005 0  1.824 0.005 0  1.8335 0.005 0  1.843 0.005 0  1.8525 0.005 0  1.862 0.005 0  1.8715 0.005 0  1.881 0.005 0  1.8905 0.005 0  1.9 0.005 0  1.9095 0.005 0  1.919 0.005 0  1.9285 0.005 0  1.938 0.005 0  1.9475 0.005 0  1.957 0.005 0  1.9665 0.005 0  1.976 0.005 0  1.9855 0.005 0  1.995 0.005 0  2.0045 0.005 0  2.014 0.005 0  2.0235 0.005 0  2.033 0.005 0  2.0425 0.005 0  2.052 0.005 0  2.0615 0.005 0  2.071 0.005 0  2.0805 0.005 0  2.09 0.005 0  2.0995 0.005 0  2.109 0.005 0  2.1185 0.005 0  2.128 0.005 0  2.1375 0.005 0  2.147 0.005 0  2.1565 0.005 0  2.166 0.005 0  2.1755 0.005 0  2.185 0.005 0  2.1945 0.005 0  2.204 0.005 0  2.2135 0.005 0  2.223 0.005 0  2.2325 0.005 0  2.242 0.005 0  2.2515 0.005 0  2.261 0.005 0  2.2705 0.005 0  2.28 0.005 0  2.2895 0.005 0  2.299 0.005 0  2.3085 0.005 0  2.318 0.005 0  2.3275 0.005 0  2.337 0.005 0  2.3465 0.005 0  2.356 0.005 0  2.3655 0.005 0  2.375 0.005 0  2.3845 0.005 0  2.394 0.005 0  2.4035 0.005 0  2.413 0.005 0  2.4225 0.005 0  2.432 0.005 0  2.4415 0.005 0  2.451 0.005 0  2.4605 0.005 0  2.47 0.005 0  2.4795 0.005 0  2.489 0.005 0  2.4985 0.005 0  2.508 0.005 0  2.5175 0.005 0  2.527 0.005 0  2.5365 0.005 0  2.546 0.005 0  2.5555 0.005 0  2.565 0.005 0  2.5745 0.005 0  2.584 0.005 0  2.5935 0.005 0  2.603 0.005 0  2.6125 0.005 0  2.622 0.005 0  2.6315 0.005 0  2.641 0.005 0  2.6505 0.005 0  2.66 0.005 0  2.6695 0.005 0  2.679 0.005 0  2.688499999999999 0.005 0  2.698 0.005 0  2.7075 0.005 0  2.717 0.00
[...]
<PointData  Scalars="rho_bar"> 
<DataArray  type="Float64"  Name="rho_bar"  format="ascii">8.8911995454559578e-01  8.8878671526104058e-01  8.8848474254744447e-01  8.8809122531180162e-01  8.8759038277116664e-01  8.8697635691592946e-01  8.8625953639167110e-01  8.8544252968425241e-01  8.8454021978666797e-01  8.8356412200130607e-01  8.8253223977229278e-01  8.8145786741510035e-01  8.8036454254921281e-01  8.7926666625215699e-01  8.7818781816012648e-01  8.7714396024855179e-01  8.7615566923426058e-01  8.7523449345355375e-01  8.7440074224671616e-01  8.7366230153074387e-01  8.7303626089127540e-01  8.7252989643234402e-01  8.7215619827726898e-01  8.7191756946638588e-01  8.7182505406074817e-01  8.7187638269242207e-01  8.7207736865548990e-01  8.7242348833312888e-01  8.7291446911371873e-01  8.7353912407853851e-01  8.7429474462713941e-01  8.7516466455230146e-01  8.7614084812832327e-01  8.7720424793776242e-01  8.7834107524067795e-01  8.7952619520305986e-01  8.8074315006920323e-01  8.8196211559170579e-01  8.8316200981009285e-01  8.8431224778811590e-01  8.8538816670267717e-01  8.8635619276920674e-01  8.8719419608964500e-01  8.8786957531008470e-01  8.8836282130716293e-01  8.8864826663647967e-01  8.8871147823333496e-01  8.8853292805480233e-01  8.8810873216068831e-01  8.8742899994937541e-01  8.8650005493090323e-01  8.8532593080490884e-01  8.8392348671325760e-01  8.8230637793551825e-01  8.8050418480540338e-01  8.7853907476547899e-01  8.7644764312929824e-01  8.7425955450534354e-01  8.7201355944279124e-01  8.6973865894991720e-01  8.6747334461505554e-01  8.6524204303169583e-01  8.6307628315747431e-01  8.6099557685222572e-01  8.5902220572822041e-01  8.5716598340618910e-01  8.5544368078743827e-01  8.5385721647546520e-01  8.5241641148675418e-01  8.5111892740574968e-01  8.4996739688020506e-01  8.4895186917188958e-01  8.4807003966238914e-01  8.4730467296462231e-01  8.4664562956660339e-01  8.4607205449050049e-01  8.4556694252697506e-01  8.4510351590028565e-01  8.4466436197407158e-01  8.4422060950607991e-01  8.4375466464876003e-01  8.4324102662104827e-01  8.4266328553912351e-01  8.4199747155854421e-01  8.4123249653910892e-01  8.4034801809874782e-01  8.3933676403279989e-01  8.3818683691313445e-01  8.3689596289629320e-01  8.3545764149044299e-01  8.3387976578150091e-01  8.3216323792848779e-01  8.3032420251992411e-01  8.2837413091204204e-01  8.2633597068984443e-01  8.2422668912780861e-01  8.2207661402032650e-01  8.1990644411148450e-01  8.1774863259629249e-01  8.1562900806730299e-01  8.1357994054070515e-01  8.1162590316004435e-01  8.0980073887561399e-01  8.0812556237586730e-01  8.0662997759339117e-01  8.0533222821896011e-01  8.0425478068971978e-01  8.0340775327255243e-01  8.0280826033199293e-01  8.0245813942779765e-01  8.0236517728138090e-01  8.0252548479136032e-01  8.0293598238237784e-01  8.0358076316905713e-01  8.0444850111769983e-01  8.0551097231686097e-01  8.0674494794655194e-01  8.0811328806702865e-01  8.0958123495283940e-01  8.1110074237018159e-01  8.1263122371675756e-01  8.1411809175208383e-01  8.1551605661973159e-01  8.1677320444838664e-01  8.1784624023895669e-01  8.1868920990080962e-01  8.1927399765476616e-01  8.1957087974233689e-01  8.1957221348678699e-01  8.1927337674484224e-01  8.1868807936507693e-01  8.1782985516891260e-01  8.1672930552884815e-01  8.1540917247716405e-01  8.1390409469604474e-01  8.1224166995901603e-01  8.1045514313028622e-01  8.0857019365025840e-01  8.0662246027943496e-01  8.0463665804488438e-01  8.0264702589529124e-01  8.0067734369295662e-01  7.9875485803524926e-01  7.9689375938077811e-01  7.9511314795586652e-01  7.9341565780825041e-01  7.9180814840046898e-01  7.9028527063326215e-01  7.8884225359713134e-01  7.8746338244323988e-01  7.8613963351747707e-01  7.8484989385303405e-01  7.8358280063597863e-01  7.8231956590654761e-01  7.8104953422336609e-01  7.7975594503960044e-01  7.7843499205578126e-01  7.7707578916849929e-01  7.7568183742623442e-01  7.7425531327051667e-01  7.7280910392913171e-01  7.7135385234833942e-01  7.6991198835532293e-01  7.6849478655578440e-01  7.6711971735024465e-01  7.6579007688626410e-01  7.6450802576256183e-01  7.6326049379837979e-01  7.6203918979170604e-01  7.6082316351991364e-01  7.5960210098201808e-01  7.5836270540074902e-01  7.5710199228135189e-01  7.5581699610881370e-01  7.5452111130118105e-01  7.5322359665296956e-01  7.5194738527685756e-01  7.5070830825364421e-01  7.4952626394989641e-01  7.4840950559210973e-01  7.4737169970079764e-01  7.4641195528066484e-01  7.4553541111278554e-01  7.4473837192086756e-01  7.4401994382828185e-01  7.4337156772660007e-01  7.4279281508984951e-01  7.4227238626576220e-01  7.4180786365901141e-01  7.4138823540824661e-01  7.4100687645999908e-01  7.4064741570732773e-01  7.4030075576444787e-01  7.3994525002693412e-01  7.3956699419632832e-01  7.3914530901484088e-01  7.3866438730612927e-01  7.3810364552219965e-01  7.3745394371451267e-01  7.3669985447892816e-01  7.3584016794023410e-01  7.3487156498428641e-01  7.3380170763476127e-01  7.3263545385494433e-01  7.3139068104599980e-01  7.3007761196686904e-01  7.2871678867586875e-01  7.2732287737028001e-01  7.2591375273424741e-01  7.2449948562925937e-01  7.2309582933300010e-01  7.2170531741654709e-01  7.2033550282308767e-01  7.1898267526344362e-01  7.1764451834247700e-01  7.1630813948703975e-01  7.1496658946361036e-01  7.1360089299215568e-01  7.1219947213528045e-01  7.1074446537938030e-01  7.0922188907145389e-01  7.0761284015581893e-01  7.0590894555537820e-01  7.0409780501527564e-01  7.0218523328360760e-01  7.0018225274901480e-01  6.9811593176986209e-01  6.9601234921770416e-01  6.9390485942999558e-01  6.9181021472720849e-01  6.8974371155219394e-01  6.8770577316473591e-01  6.8569359626562021e-01  6.8369643289120408e-01  6.8171251600714566e-01  6.7973498655508113e-01  6.7776910870005325e-01  6.7581427487564893e-01  6.7387148850074174e-01  6.7193073403320525e-01  6.6998593793165395e-01  6.6801918278784267e-01  6.6601966964887815e-01  6.6397287091693813e-01  6.6187172781209047e-01  6.5971106004539937e-01  6.5750039456793508e-01  6.5524552829148919e-01  6.5296211073291366e-01  6.5066097861217875e-01  6.4836108735079956e-01  6.4608094621635070e-01  6.4384943067382516e-01  6.4168340930437606e-01  6.3960074688010360e-01  6.3760774884827864e-01  6.3570800411640227e-01  6.3389614280264961e-01  6.3217011122567712e-01  6.3051671535340781e-01  6.2892873482901324e-01  6.2739269076766413e-01  6.2590007753436427e-01  6.2443879319528239e-01  6.2300651574022825e-01  6.2159365605679895e-01  6.2019649482603256e-01  6.1880204238162984e-01  6.1739414041949325e-01  6.1594919548463090e-01  6.1445182923266273e-01  6.1288306286618555e-01  6.1123677017776556e-01  6.0950647739940678e-01  6.0769378494847759e-01  6.0579643167442221e-01  6.0381523273038562e-01  6.0173300180642808e-01  5.9952832283369217e-01  5.9716791958545801e-01  5.9462050631821461e-01  5.9185706279200678e-01  5.8886602357446427e-01  5.8564308411770249e-01  5.8220999455320033e-01  5.7860381614465894e-01  5.7488015178680207e-01  5.7109364540081009e-01  5.6730357757754679e-01  5.6356063101697040e-01  5.5991723178472397e-01  5.5640623921061516e-01  5.5304196253834870e-01  5.4981528490193010e-01  5.4671018967434004e-01  5.4370168362762883e-01  5.4077799960892670e-01  5.3792553530806309e-01  5.3511926045682023e-01  5.3230034380781233e-01  5.2939195945110407e-01  5.2630440539452339e-01  5.2296008624964496e-01  5.1928992929161844e-01  5.1525026515822858e-01  5.1083044083339246e-01  5.0606618590428687e-01  5.0102098665271166e-01  4.9578690855843421e-01  4.9045403714449420e-01  4.8513316836513465e-01  4.7992666017446345e-01  4.7485526442548953e-01  4.6985332111683137e-01  4.6481990219517999e-01  4.5963521111685690e-01  4.5419028935415540e-01  4.4839847690132506e-01  4.4219473159920270e-01  4.3549099345110454e-01  4.2818858450257336e-01  4.2018236157717825e-01  4.1139234454127255e-01  4.0178361760669468e-01  3.9141472833545454e-01  3.8044021681549284e-01  3.6906457614691923e-01  3.5743436847074089e-01  3.4566174846172604e-01  3.3381766294705389e-01  3.2190550073064161e-01  3.0987344459191990e-01  2.9766927873824311e-01  2.8526457978894831e-01  2.7267388874709414e-01  2.5992626390817658e-01  2.4702245174178489e-01  2.3386196511487437e-01  2.2032704745057541e-01  2.0633139085385946e-01  1.9191577253903491e-01  1.7729195737708839e-01  1.6283321910585236e-01  1.4892339596203433e-01  1.3581699780489589e-01  1.2362799692882437e-01  1.1238492696072991e-01  1.0206208556690508e-01  9.2609126085802393e-02  8.3962279117681116e-02  7.6057688001507376e-02  6.8832194593579352e-02  6.2230379470048926e-02  5.6201452901408280e-02  5.0701607572144869e-02  4.5690808399665744e-02  4.1133689646628099e-02  3.6996117363587849e-02  3.3246977191864723e-02  2.9855593903728165e-02  2.6793067432343991e-02  2.4031269467232164e-02  2.1544063250202649e-02  1.9306020531354027e-02  1.7294199027058647e-02  1.5486721950813491e-02  1.3863812000476891e-02  1.2407049095312530e-02  1.1100031945187765e-02  9.9274413063719438e-03  8.8758988556210533e-03  7.9330310913623518e-03  7.0878417034634421e-03  6.3303054523112870e-03  5.6515634237417301e-03  5.0434643162488970e-03  4.4989086911262363e-03  4.0113950142575336e-03  3.5751571610423550e-03  3.1849506840475614e-03  2.8361557596796477e-03  2.5245311224724874e-03  2.2463949392443920e-03  1.9983878347316587e-03  1.7775316674550842e-03  1.5811337561215447e-03  1.4068268973018853e-03  1.2524480084475775e-03  1.1161430845917099e-03  9.9622385974475289e-04  8.9122656431273072e-04  7.9983407431537398e-04  7.2092397030481582e-04  6.5348801855952645e-04  5.9670124827462931e-04  5.4984291707929362e-04  5.1233494744670760e-04  4.8370520006736401e-04  4.6362810279910999e-04  4.5193538455738142e-04  4.4898852140666279e-04  8.8827069451910834e-01  8.8807482703132801e-01  8.8778874584022749e-01  8.8739512151751421e-01  8.8689317726403960e-01  8.8627492706503452e-01  8.8555429120659723e-01  8.8473087798051742e-01  8.8382336379285120e-01  8.8284011879911417e-01  8.8180196737822558e-01  8.8071962562070982e-01  8.7961947293137421e-01  8.7851331208717498e-01  8.7742800742963212e-01  8.7637683448185233e-01  8.7538319126891173e-01  8.7445569940665968e-01  8.7361786044025103e-01  8.7287433294518080e-01  8.7224581213030039e-01  8.7173652127961609e-01  8.7136220380431650e-01  8.7112263077513064e-01  8.7103148127186247e-01  8.7108378541608977e-01  8.7128842286889818e-01  8.7163804635092634e-01  8.7213505247838463e-01  8.7276519937334285e-01  8.7352881830577789e-01  8.7440591908118281e-01  8.7539188666999013e-01  8.7646449053178477e-01  8.7761248590944185e-01  8.7880795647998300e-01  8.8003684207521338e-01  8.8126648109362116e-01  8.8247857940324614e-01  8.8363958959661670e-01  8.8472723129117814e-01  8.8570473158137564e-01  8.8655273459608164e-01  8.8723520386551979e-01  8.8773579585325346e-01  8.8802563450275840e-01  8.8809264185347980e-01  8.8791458427227077e-01  8.8748989341806472e-01  8.8680604420533826e-01  8.8587220567438163e-01  8.8468983605240659e-01  8.8327839783691253e-01  8.8164890658041517e-01  8.7983411890361951e-01  8.7785333343779737e-01  8.7574681103265994e-01  8.7354156832664953e-01  8.7127923085345316e-01  8.6898661225189600e-01  8.6670492085278494e-01  8.6445628041648415e-01  8.6227532148591557e-01  8.6017901997868129e-01  8.5819230743114538e-01  8.5632218046704900e-01  8.5458848526266462e-01  8.5298990283434972e-01  8.5153978226031812e-01  8.5023266102729111e-01  8.4907393545978571e-01  8.4805094237391621e-01  8.4716389572510886e-01  8.4639280839318376e-01  8.4573050474003941e-01  8.4515313190697261e-01  8.4464622065466000e-01  8.4417975899823028e-01  8.4373930604321234e-01  8.4329241381344888e-01  8.4282495640515587e-01  8.4230800614940271e-01  8.4172788685186528e-01  8.4105765579710368e-01  8.4028877614565489e-01  8.3939797348477829e-01  8.3838108942687239e-01  8.3722316711582534e-01  8.3592469717979034e-01  8.3447600760458340e-01  8.3288827015255007e-01  8.3115892677858061e-01  8.2930798105133952e-01  8.2734365815037014e-01  8.2529206446648251e-01  8.2316743194850672e-01  8.2100306542768409e-01  8.1881694147464290e-01  8.1664503525331478e-01  8.1451028768468070e-01  8.1244820952371277e-01  8.1048025696908843e-01  8.0864384328683492e-01  8.0695670425766597e-01  8.0545245258277554e-01  8.0414600411184989e-01  8.0306297889854783e-01  8.0221056172328453e-01  8.0160873485439144e-01  8.0125643409212788e-01  8.0116483613769163e-01  8.0132696130634562e-01  8.0174268371313728e-01  8.0239278756076293e-01  8.0326926304299318e-01  8.0434017930907475e-01  8.0558600477556863e-01  8.0696591517279570e-01  8.0844795098125000e-01  8.0998073196726861e-01  8.1152616360198193e-01  8.1302630308715496e-01  8.1443879683302589e-01  8.1570813816541599e-01  8.1679347279133907e-01  8.1764509529206875e-01  8.1823785381317649e-01  8.1853810560539852e-01  8.1854193146839016e-01  8.1824129743069385e-01  8.1765318554341437e-01  8.1678847711691382e-01  8.1568096675203772e-01  8.1435077750590623e-01  8.1283616769304967e-01  8.1116182622638455e-01  8.0936405490774066e-01  8.0746543128640857e-01  8.0550511078970133e-01  8.0350447516403745e-01  8.0150188449272641e-01  7.9951796196804059e-01  7.9758322924057123e-01  7.9570906719045875e-01  7.9391748619427527e-01  7.9220823857429912e-01  7.9059154442568258e-01  7.8905890335323703e-01  7.8760840819762634e-01  7.8622093517066549e-01  7.8489066553963183e-01  7.8359272153668991e-01  7.8231947776585198e-01  7.8104851329465419e-01  7.7977216449565623e-01  7.7847049984113847e-01  7.7714245615884203e-01  7.7577403141970380e-01  7.7437208982609795e-01  7.7293560315380494e-01  7.7148062493996516e-01  7.7001471537262733e-01  7.6856410716326728e-01  7.6713678525634588e-01  7.6575448585457850e-01  7.6441708983506951e-01  7.6312990797602021e-01  7.6187650931522810e-01  7.6065116798592813e-01  7.5942950809106124e-01  7.5820443439192431e-01  7.5695915746180831e-01  7.5569363991666061e-01  7.5440143902122858e-01  7.5309952734104957e-01  7.5179371772177106e-01  7.5051132578485380e-01  7.4926487667896979e-01  7.4807769337266250e-01  7.4695493216071540e-01  7.4591319242397902e-01  7.4494842978635845e-01  7.4406924165633248e-01  7.4326856640740879e-01  7.4254857100448657e-01  7.4189721017823573e-01  7.4131752147483665e-01  7.4079446834636364e-01  7.4032967432806829e-01  7.3990850339110215e-01  7.3952757599697494e-01  7.3916729447704410e-01  7.3882144128175109e-01  7.3846512462795411e-01  7.3808783274935719e-01  7.3766539598579339e-01  7.3718497045675269e-01  7.3662234264060233e-01  7.3597171104264181e-01  7.3521376161357743e-01  7.3435125038530158e-01  7.3337718746887570e-01  7.3230254981190301e-01  7.3112910863491476e-01  7.2987786120731790e-01  7.2855609181288661e-01  7.2718808568204329e-01  7.2578536338260946e-01  7.2436910454876935e-01  7.2294608441836494e-01  7.2153569195855594e-01  7.2013683834561282e-01  7.1876115770577564e-01  7.1740126855071629e-01  7.1605805685677326e-01  7.1471533602950554e-01  7.1336901169164646e-01  7.1199685433963289e-01  7.1059074843412995e-01  7.0912941568164289e-01  7.0760196695185829e-01  7.0598587351608943e-01  7.0427599258429630e-01  7.0245580402142427e-01  7.0053493194521399e-01  6.9852084349444576e-01  6.9644445573382174e-01  6.9432937076803869e-01  6.9221255091035550e-01  6.9010794298386824e-01  6.8803443469544667e-01  6.8598887159704580e-01  6.8397127443819083e-01  6.8196703478047216e-01  6.7997761748756558e-01  6.7799243380749252e-01  6.7602107110195819e-01  6.7405958790093767e-01  6.7211241674976019e-01  6.7016624344488251e-01  6.6821781747213482e-01  6.6624593803146170e-01  6.6424318383783720e-01  6.6219143663263602e-01  6.6008659615897058e-01  6.5791995692841154e-01  6.5570475487427038e-01  6.5344341511064985e-01  6.5115566535996117e-01  6.4884844097257932e-01  6.4654372042544261e-01  6.4425694599745531e-01  6.4202038336417178e-01  6.3984808355241130e-01  6.3776144947410807e-01  6.3576341689468396e-01  6.3386068041013666e-01  6.3204443454044024e-01  6.3031603314953633e-01  6.2865855894214850e-01  6.2706863350331621e-01  6.2552901879808209e-01  6.2403430112458269e-01  6.2256910460200965e-01  6.2113406788439318e-01  6.1971674692136980e-01  6.1831723703254293e-01  6.1691942880551687e-01  6.1551016131625225e-01  6.1406208752424374e-01  6.1256304470749035e-01  6.1099035831630344e-01  6.0934185000498264e-01  6.0760746396902698e-01  6.0579220432557190e-01  6.0389105423737810e-01  6.0190826786198615e-01  5.9982380530334389e-01  5.9761953526132483e-01  5.9525843060742523e-01  5.9271191410573354e-01  5.8994731755239371e-01  5.8695630265157439e-01  5.8373073707248280e-01  5.8029613285154036e-01  5.7668641345874727e-01  5.7296127263221708e-01  5.6917271430967253e-01  5.6538259404546587e-01  5.6163856559544001e-01  5.5799696460964854e-01  5.5448773728991385e-01  5.5112818394605734e-01  5.4790557291343600e-01  5.4480649012157523e-01  5.4180179650899019e-01  5.3888327382598089e-01  5.3603489978193841e-01  5.3323589036961649e-01  5.3042479160768330e-01  5.2752707876903271e-01  5.2445032956133308e-01  5.2112074516018925e-01  5.1746655471439795e-01  5.1344691914377605e-01  5.0904834765496976e-01  5.0431044535863490e-01  4.9929435639813263e-01  4.9409816055630562e-01  4.8880915217716431e-01  4.8353716234872429e-01  4.7837538890645454e-01  4.7334795277988478e-01  4.6838830711609597e-01  4.6339948705322248e-01  4.5825959490164525e-01  4.5286181483993782e-01  4.4711685564553150e-01  4.4096411945424419e-01  4.3431363413252377e-01  4.2707039479266590e-01  4.1912764629725607e-01  4.1040904235737102e-01  4.0087812135100365e-01  3.9059462888750834e-01  3.7970679136783486e-01  3.6841597154790801e-01  3.5686762518821374e-01  3.4517484489577849e-01  3.3340610530689407e-01  3.2156812222260461e-01  3.0960875914998409e-01  2.9747785230297724e-01  2.8514427639951967e-01  2.7262198737017190e-01  2.5993605190313968e-01  2.4709000620483418e-01  2.3398566203330903e-01  2.2050725544225264e-01  2.0656782327194234e-01  1.9220600728229556e-01  1.7762665077754519e-01  1.6319646865908560e-01  1.4929824683007259e-01  1.3619238230089836e-01  1.2399599679822476e-01  1.1274014620743915e-01  1.0240072245035635e-01  9.2928747444504758e-02  8.4261358467689562e-02  7.6335396246280385e-02  6.9088317107782113e-02  6.2465141585751963e-02  5.6415514124770437e-02  5.0895916387085516e-02  4.5866580670630187e-02  4.1292201140847529e-02  3.7138828632399895e-02  3.3375247327978197e-02  2.9970873772508781e-02  2.6896608269493624e-02  2.4124323678600262e-02  2.1627635003750850e-02  1.9381122847953583e-02  1.7361650784931650e-02  1.5547351628674032e-02  1.3918280002259500e-02  1.2456009542415996e-02  1.1143994851471193e-02  9.9669188467815979e-03  8.9113114717664435e-03  7.9648122497812026e-03  7.1163286478809849e-03  6.3558493770432736e-03  5.6744302301227779e-03  5.0639300963258600e-03  4.5172001555149636e-03  4.0277486768599971e-03  3.5897519245657369e-03  3.1979810457755348e-03  2.8477652967111846e-03  2.5348733862292552e-03  2.2555910069406936e-03  2.0065720959791360e-03  1.7847990667688796e-03  1.5875963466659643e-03  1.4125613236501658e-03  1.2575415461186146e-03  1.1206640542288631e-03  1.0002471012185300e-03  8.9480800051167011e-04  8.0303660269754836e-04  7.2379451570562343e-04  6.5607722645173586e-04  5.9905196934325374e-04  5.5200010649054324e-04  5.1433531212143990e-04  4.8558699938601175e-04  4.6541644325557218e-04  4.5361216996997673e-04  4.5008586496606690e-04  8.8609608115069372e-01  8.8596055977887167e-01  8.8568761617232350e-01  8.8529547007862308e-01  8.8478436676292993e-01  8.8415788422157349e-01  8.8342115520668940e-01  8.8258419187733061e-01  8.8165700413881221e-01  8.8065566602340339e-01  8.7959400745267391e-01  8.7849163764454585e-01  8.7736653224716987e-01  8.7624023516179717e-01  8.7513167677441417e-01  8.7406186216885129e-01  8.7304707246015800e-01  8.7210495784029107e-01  8.7124975632112744e-01  8.7049625519942098e-01  8.6985606587670161e-01  8.6934151962283635e-01  8.6896074969419568e-01  8.6872226448436873e-01  8.6863089584851194e-01  8.6869092836043305e-01  8.6890276197645344e-01  8.69266395483