<?xml version="1.0"?>
<VTKFile type="UnstructuredGrid"  version="0.1"  >
<UnstructuredGrid>
<Piece  NumberOfPoints="40501" NumberOfCells="80000">
<Points>
<DataArray  type="Float64"  NumberOfComponents="3"  format="ascii">0 0 0  0.0095 0 0  0.019 0 0  0.0285 0 0  0.038 0 0  0.0475 0 0  0.057 0 0  0.06649999999999999 0 0  0.076 0 0  0.08549999999999999 0 0  0.095 0 0  0.1045 0 0  0.114 0 0  0.1235 0 0  0.133 0 0  0.1425 0 0  0.152 0 0  0.1615 0 0  0.171 0 0  0.1805 0 0  0.19 0 0  0.1995 0 0  0.209 0 0  0.2185 0 0  0.228 0 0  0.2375 0 0  0.247 0 0  0.2565 0 0  0.266 0 0  0.2755 0 0  0.285 0 0  0.2945 0 0  0.304 0 0  0.3135 0 0  0.323 0 0  0.3325 0 0  0.342 0 0  0.3515 0 0  0.361 0 0  0.3705 0 0  0.38 0 0  0.3895 0 0  0.399 0 0  0.4085 0 0  0.418 0 0  0.4275 0 0  0.4369999999999999 0 0  0.4465 0 0  0.456 0 0  0.4655 0 0  0.475 0 0  0.4844999999999999 0 0  0.494 0 0  0.5034999999999999 0 0  0.513 0 0  0.5225 0 0  0.5319999999999999 0 0  0.5415 0 0  0.5509999999999999 0 0  0.5605 0 0  0.57 0 0  0.5794999999999999 0 0  0.589 0 0  0.5984999999999999 0 0  0.608 0 0  0.6175 0 0  0.627 0 0  0.6365 0 0  0.6459999999999999 0 0  0.6555 0 0  0.665 0 0  0.6745 0 0  0.6839999999999999 0 0  0.6934999999999999 0 0  0.703 0 0  0.7125 0 0  0.722 0 0  0.7314999999999999 0 0  0.741 0 0  0.7504999999999999 0 0  0.76 0 0  0.7695000000000001 0 0  0.7789999999999999 0 0  0.7885 0 0  0.7979999999999999 0 0  0.8075 0 0  0.8170000000000001 0 0  0.8264999999999999 0 0  0.836 0 0  0.8454999999999999 0 0  0.855 0 0  0.8645 0 0  0.8739999999999999 0 0  0.8835 0 0  0.893 0 0  0.9025 0 0  0.9119999999999999 0 0  0.9214999999999999 0 0  0.9309999999999999 0 0  0.9405 0 0  0.95 0 0  0.9594999999999999 0 0  0.9689999999999999 0 0  0.9784999999999999 0 0  0.988 0 0  0.9975000000000001 0 0  1.007 0 0  1.0165 0 0  1.026 0 0  1.0355 0 0  1.045 0 0  1.0545 0 0  1.064 0 0  1.0735 0 0  1.083 0 0  1.0925 0 0  1.102 0 0  1.1115 0 0  1.121 0 0  1.1305 0 0  1.14 0 0  1.1495 0 0  1.159 0 0  1.1685 0 0  1.178 0 0  1.1875 0 0  1.197 0 0  1.2065 0 0  1.216 0 0  1.2255 0 0  1.235 0 0  1.2445 0 0  1.254 0 0  1.2635 0 0  1.273 0 0  1.2825 0 0  1.292 0 0  1.3015 0 0  1.311 0 0  1.3205 0 0  1.33 0 0  1.3395 0 0  1.349 0 0  1.3585 0 0  1.368 0 0  1.3775 0 0  1.387 0 0  1.3965 0 0  1.406 0 0  1.4155 0 0  1.425 0 0  1.4345 0 0  1.444 0 0  1.4535 0 0  1.463 0 0  1.4725 0 0  1.482 0 0  1.4915 0 0  1.501 0 0  1.5105 0 0  1.52 0 0  1.5295 0 0  1.539 0 0  1.5485 0 0  1.558 0 0  1.5675 0 0  1.577 0 0  1.5865 0 0  1.596 0 0  1.6055 0 0  1.615 0 0  1.6245 0 0  1.634 0 0  1.6435 0 0  1.653 0 0  1.6625 0 0  1.672 0 0  1.6815 0 0  1.691 0 0  1.7005 0 0  1.71 0 0  1.7195 0 0  1.729 0 0  1.7385 0 0  1.748 0 0  1.7575 0 0  1.767 0 0  1.7765 0 0  1.786 0 0  1.7955 0 0  1.805 0 0  1.8145 0 0  1.824 0 0  1.8335 0 0  1.843 0 0  1.8525 0 0  1.862 0 0  1.8715 0 0  1.881 0 0  1.8905 0 0  1.9 0 0  1.9095 0 0  1.919 0 0  1.9285 0 0  1.938 0 0  1.9475 0 0  1.957 0 0  1.9665 0 0  1.976 0 0  1.9855 0 0  1.995 0 0  2.0045 0 0  2.014 0 0  2.0235 0 0  2.033 0 0  2.0425 0 0  2.052 0 0  2.0615 0 0  2.071 0 0  2.0805 0 0  2.09 0 0  2.0995 0 0  2.109 0 0  2.1185 0 0  2.128 0 0  2.1375 0 0  2.147 0 0  2.1565 0 0  2.166 0 0  2.1755 0 0  2.185 0 0  2.1945 0 0  2.204 0 0  2.2135 0 0  2.223 0 0  2.2325 0 0  2.242 0 0  2.2515 0 0  2.261 0 0  2.2705 0 0  2.28 0 0  2.2895 0 0  2.299 0 0  2.3085 0 0  2.318 0 0  2.3275 0 0  2.337 0 0  2.3465 0 0  2.356 0 0  2.3655 0 0  2.375 0 0  2.3845 0 0  2.394 0 0  2.4035 0 0  2.413 0 0  2.4225 0 0  2.432 0 0  2.4415 0 0  2.451 0 0  2.4605 0 0  2.47 0 0  2.4795 0 0  2.489 0 0  2.4985 0 0  2.508 0 0  2.5175 0 0  2.527 0 0  2.5365 0 0  2.546 0 0  2.5555 0 0  2.565 0 0  2.5745 0 0  2.584 0 0  2.5935 0 0  2.603 0 0  2.6125 0 0  2.622 0 0  2.6315 0 0  2.641 0 0  2.6505 0 0  2.66 0 0  2.6695 0 0  2.679 0 0  2.688499999999999 0 0  2.698 0 0  2.7075 0 0  2.717 0 0  2.7265 0 0  2.736 0 0  2.7455 0 0  2.755 0 0  2.7645 0 0  2.774 0 0  2.7835 0 0  2.793 0 0  2.8025 0 0  2.812 0 0  2.8215 0 0  2.831 0 0  2.8405 0 0  2.85 0 0  2.8595 0 0  2.869 0 0  2.8785 0 0  2.888 0 0  2.8975 0 0  2.907 0 0  2.9165 0 0  2.926 0 0  2.9355 0 0  2.945 0 0  2.9545 0 0  2.964 0 0  2.9735 0 0  2.983 0 0  2.9925 0 0  3.002 0 0  3.0115 0 0  3.020999999999999 0 0  3.0305 0 0  3.04 0 0  3.0495 0 0  3.059 0 0  3.0685 0 0  3.078 0 0  3.0875 0 0  3.097 0 0  3.1065 0 0  3.116 0 0  3.1255 0 0  3.135 0 0  3.1445 0 0  3.154 0 0  3.1635 0 0  3.173 0 0  3.1825 0 0  3.192 0 0  3.2015 0 0  3.211 0 0  3.2205 0 0  3.23 0 0  3.2395 0 0  3.249 0 0  3.2585 0 0  3.268 0 0  3.2775 0 0  3.287 0 0  3.2965 0 0  3.306 0 0  3.3155 0 0  3.325 0 0  3.3345 0 0  3.344 0 0  3.353499999999999 0 0  3.363 0 0  3.3725 0 0  3.382 0 0  3.3915 0 0  3.401 0 0  3.4105 0 0  3.42 0 0  3.4295 0 0  3.439 0 0  3.4485 0 0  3.458 0 0  3.4675 0 0  3.477 0 0  3.4865 0 0  3.496 0 0  3.5055 0 0  3.515 0 0  3.5245 0 0  3.534 0 0  3.5435 0 0  3.553 0 0  3.5625 0 0  3.572 0 0  3.5815 0 0  3.591 0 0  3.6005 0 0  3.61 0 0  3.6195 0 0  3.629 0 0  3.6385 0 0  3.648 0 0  3.6575 0 0  3.667 0 0  3.6765 0 0  3.685999999999999 0 0  3.6955 0 0  3.705 0 0  3.7145 0 0  3.724 0 0  3.7335 0 0  3.742999999999999 0 0  3.7525 0 0  3.762 0 0  3.7715 0 0  3.781 0 0  3.7905 0 0  3.8 0 0  0 0.005 0  0.0095 0.005 0  0.019 0.005 0  0.0285 0.005 0  0.038 0.005 0  0.0475 0.005 0  0.057 0.005 0  0.06649999999999999 0.005 0  0.076 0.005 0  0.08549999999999999 0.005 0  0.095 0.005 0  0.1045 0.005 0  0.114 0.005 0  0.1235 0.005 0  0.133 0.005 0  0.1425 0.005 0  0.152 0.005 0  0.1615 0.005 0  0.171 0.005 0  0.1805 0.005 0  0.19 0.005 0  0.1995 0.005 0  0.209 0.005 0  0.2185 0.005 0  0.228 0.005 0  0.2375 0.005 0  0.247 0.005 0  0.2565 0.005 0  0.266 0.005 0  0.2755 0.005 0  0.285 0.005 0  0.2945 0.005 0  0.304 0.005 0  0.3135 0.005 0  0.323 0.005 0  0.3325 0.005 0  0.342 0.005 0  0.3515 0.005 0  0.361 0.005 0  0.3705 0.005 0  0.38 0.005 0  0.3895 0.005 0  0.399 0.005 0  0.4085 0.005 0  0.418 0.005 0  0.4275 0.005 0  0.4369999999999999 0.005 0  0.4465 0.005 0  0.456 0.005 0  0.4655 0.005 0  0.475 0.005 0  0.4844999999999999 0.005 0  0.494 0.005 0  0.5034999999999999 0.005 0  0.513 0.005 0  0.5225 0.005 0  0.5319999999999999 0.005 0  0.5415 0.005 0  0.5509999999999999 0.005 0  0.5605 0.005 0  0.57 0.005 0  0.5794999999999999 0.005 0  0.589 0.005 0  0.5984999999999999 0.005 0  0.608 0.005 0  0.6175 0.005 0  0.627 0.005 0  0.6365 0.005 0  0.6459999999999999 0.005 0  0.6555 0.005 0  0.665 0.005 0  0.6745 0.005 0  0.6839999999999999 0.005 0  0.6934999999999999 0.005 0  0.703 0.005 0  0.7125 0.005 0  0.722 0.005 0  0.7314999999999999 0.005 0  0.741 0.005 0  0.7504999999999999 0.005 0  0.76 0.005 0  0.7695000000000001 0.005 0  0.7789999999999999 0.005 0  0.7885 0.005 0  0.7979999999999999 0.005 0  0.8075 0.005 0  0.8170000000000001 0.005 0  0.8264999999999999 0.005 0  0.836 0.005 0  0.8454999999999999 0.005 0  0.855 0.005 0  0.8645 0.005 0  0.8739999999999999 0.005 0  0.8835 0.005 0  0.893 0.005 0  0.9025 0.005 0  0.9119999999999999 0.005 0  0.9214999999999999 0.005 0  0.9309999999999999 0.005 0  0.9405 0.005 0  0.95 0.005 0  0.9594999999999999 0.005 0  0.9689999999999999 0.005 0  0.9784999999999999 0.005 0  0.988 0.005 0  0.9975000000000001 0.005 0  1.007 0.005 0  1.0165 0.005 0  1.026 0.005 0  1.0355 0.005 0  1.045 0.005 0  1.0545 0.005 0  1.064 0.005 0  1.0735 0.005 0  1.083 0.005 0  1.0925 0.005 0  1.102 0.005 0  1.1115 0.005 0  1.121 0.005 0  1.1305 0.005 0  1.14 0.005 0  1.1495 0.005 0  1.159 0.005 0  1.1685 0.005 0  1.178 0.005 0  1.1875 0.005 0  1.197 0.005 0  1.2065 0.005 0  1.216 0.005 0  1.2255 0.005 0  1.235 0.005 0  1.2445 0.005 0  1.254 0.005 0  1.2635 0.005 0  1.273 0.005 0  1.2825 0.005 0  1.292 0.005 0  1.3015 0.005 0  1.311 0.005 0  1.3205 0.005 0  1.33 0.005 0  1.3395 0.005 0  1.349 0.005 0  1.3585 0.005 0  1.368 0.005 0  1.3775 0.005 0  1.387 0.005 0  1.3965 0.005 0  1.406 0.005 0  1.4155 0.005 0  1.425 0.005 0  1.4345 0.005 0  1.444 0.005 0  1.4535 0.005 0  1.463 0.005 0  1.4725 0.005 0  1.482 0.005 0  1.4915 0.005 0  1.501 0.005 0  1.5105 0.005 0  1.52 0.005 0  1.5295 0.005 0  1.539 0.005 0  1.5485 0.005 0  1.558 0.005 0  1.5675 0.005 0  1.577 0.005 0  1.5865 0.005 0  1.596 0.005 0  1.6055 0.005 0  1.615 0.005 0  1.6245 0.005 0  1.634 0.005 0  1.6435 0.005 0  1.653 0.005 0  1.6625 0.005 0  1.672 0.005 0  1.6815 0.005 0  1.691 0.005 0  1.7005 0.005 0  1.71 0.005 0  1.7195 0.005 0  1.729 0.005 0  1.7385 0.005 0  1.748 0.005 0  1.7575 0.005 0  1.767 0.005 0  1.7765 0.005 0  1.786 0.005 0  1.7955 0.005 0  1.805 0.005 0  1.8145 0.005 0  1.824 0.005 0  1.8335 0.005 0  1.843 0.005 0  1.8525 0.005 0  1.862 0.005 0  1.8715 0.005 0  1.881 0.005 0  1.8905 0.005 0  1.9 0.005 0  1.9095 0.005 0  1.919 0.005 0  1.9285 0.005 0  1.938 0.005 0  1.9475 0.005 0  1.957 0.005 0  1.9665 0.005 0  1.976 0.005 0  1.9855 0.005 0  1.995 0.005 0  2.0045 0.005 0  2.014 0.005 0  2.0235 0.005 0  2.033 0.005 0  2.0425 0.005 0  2.052 0.005 0  2.0615 0.005 0  2.071 0.005 0  2.0805 0.005 0  2.09 0.005 0  2.0995 0.005 0  2.109 0.005 0  2.1185 0.005 0  2.128 0.005 0  2.1375 0.005 0  2.147 0.005 0  2.1565 0.005 0  2.166 0.005 0  2.1755 0.005 0  2.185 0.005 0  2.1945 0.005 0  2.204 0.005 0  2.2135 0.005 0  2.223 0.005 0  2.2325 0.005 0  2.242 0.005 0  2.2515 0.005 0  2.261 0.005 0  2.2705 0.005 0  2.28 0.005 0  2.2895 0.005 0  2.299 0.005 0  2.3085 0.005 0  2.318 0.005 0  2.3275 0.005 0  2.337 0.005 0  2.3465 0.005 0  2.356 0.005 0  2.3655 0.005 0  2.375 0.005 0  2.3845 0.005 0  2.394 0.005 0  2.4035 0.005 0  2.413 0.005 0  2.4225 0.005 0  2.432 0.005 0  2.4415 0.005 0  2.451 0.005 0  2.4605 0.005 0  2.47 0.005 0  2.4795 0.005 0  2.489 0.005 0  2.4985 0.005 0  2.508 0.005 0  2.5175 0.005 0  2.527 0.005 0  2.5365 0.005 0  2.546 0.005 0  2.5555 0.005 0  2.565 0.005 0  2.5745 0.005 0  2.584 0.005 0  2.5935 0.005 0  2.603 0.005 0  2.6125 0.005 0  2.622 0.005 0  2.6315 0.005 0  2.641 0.005 0  2.6505 0.005 0  2.66 0.005 0  2.6695 0.005 0  2.679 0.005 0  2.688499999999999 0.005 0  2.698 0.005 0  2.7075 0.005 0  2.717 0.00
[...]
<PointData  Scalars="rho_bar"> 
<DataArray  type="Float64"  Name="rho_bar"  format="ascii">9.9999997605140845e-01  9.9999997699354259e-01  9.9999998012447411e-01  9.9999998577861360e-01  9.9999997882614211e-01  9.9999994463299058e-01  9.9999990753609513e-01  9.9999994098993095e-01  1.0000000447140345e+00  9.9999997819932784e-01  9.9999950396300952e-01  9.9999912402011482e-01  9.9999986781800720e-01  1.0000009231463365e+00  9.9999867629128281e-01  9.9999218580714488e-01  9.9998830308195918e-01  9.9999234905609857e-01  9.9999264294637136e-01  9.9996610347702686e-01  9.9990056496569268e-01  9.9979796420637346e-01  9.9965739623704941e-01  9.9947612350613113e-01  9.9927525104557202e-01  9.9911043897783014e-01  9.9904267197932117e-01  9.9909595500023651e-01  9.9924429517452951e-01  9.9943352595675938e-01  9.9961234451510383e-01  9.9975177263244930e-01  9.9984714309282563e-01  9.9990757757071158e-01  9.9994457721814256e-01  9.9996689510616266e-01  9.9998020877430349e-01  9.9998808605774581e-01  9.9999277051959257e-01  9.9999561334985321e-01  9.9999736119141180e-01  9.9999842649748694e-01  9.9999906799382743e-01  9.9999945257613077e-01  9.9999967245045107e-01  9.9999981685874506e-01  9.9999986054774437e-01  9.9999991111780318e-01  1.0000000873235668e+00  9.9999946521468941e-01  1.0000006126516656e+00  1.0000008179011377e+00  9.9999400438383357e-01  1.0000077159726395e+00  1.0000142233775005e+00  9.9994765726075385e-01  9.9996249893269118e-01  1.0001115242310712e+00  9.9995977292171301e-01  9.9901990283496200e-01  9.9652484463305524e-01  9.9108437752881495e-01  9.8251188351483243e-01  9.7314079077073079e-01  9.6593676749027768e-01  9.6226667394681242e-01  9.6172857755217045e-01  9.6314719091496470e-01  9.6540456439908162e-01  9.6774946645737026e-01  9.6977931531108774e-01  9.7132509904153164e-01  9.7235177243553772e-01  9.7289770937067366e-01  9.7304018169938600e-01  9.7287290689059225e-01  9.7249116501792676e-01  9.7198386024470118e-01  9.7143002063172423e-01  9.7089553384649629e-01  9.7042809958691700e-01  9.7005256205077739e-01  9.6977071514227198e-01  9.6956644605553199e-01  9.6941482135677048e-01  9.6929226374499566e-01  9.6918369567195117e-01  9.6908314590063593e-01  9.6898939383961635e-01  9.6890135975194125e-01  9.6881613827216972e-01  9.6872913577346476e-01  9.6863479792403406e-01  9.6852674223535629e-01  9.6839730525062728e-01  9.6823788804740318e-01  9.6804223063970984e-01  9.6781141150083272e-01  9.6755641949148141e-01  9.6729689672370500e-01  9.6705741553447433e-01  9.6686225102545309e-01  9.6672961085361775e-01  9.6666667448199350e-01  9.6666768824953608e-01  9.6671548191249979e-01  9.6678405143379897e-01  9.6683991431775795e-01  9.6684623963617911e-01  9.6677380604720486e-01  9.6661211040876227e-01  9.6637157509257721e-01  9.6607823720386088e-01  9.6576555658605168e-01  9.6546685416112410e-01  9.6520965384286306e-01  9.6501286353291182e-01  9.6488510133545868e-01  9.6482246046620490e-01  9.6480650766049225e-01  9.6480522075862452e-01  9.6477843023151377e-01  9.6468674478755390e-01  9.6450008102418971e-01  9.6420338876708589e-01  9.6380050836980791e-01  9.6331831440145066e-01  9.6280840137616264e-01  9.6234121579540621e-01  9.6199303897349275e-01  9.6183259173843283e-01  9.6191135523437554e-01  9.6225540967076784e-01  9.6285560425493899e-01  9.6365802847414328e-01  9.6456175567637792e-01  9.6542840784617567e-01  9.6609876775348846e-01  9.6640894185812776e-01  9.6619997938252411e-01  9.6532032570353710e-01  9.6362602939061659e-01  9.6098966952149567e-01  9.5733716968463178e-01  9.5274533007393403e-01  9.4764021934721032e-01  9.4309670145427738e-01  9.4110242360793472e-01  9.4432326880414608e-01  9.5456466162072451e-01  9.7011841913988583e-01  9.8520635663986655e-01  9.9469829173548108e-01  9.9859221107874752e-01  9.9969211091293642e-01  9.9993493489988761e-01  9.9998478815646963e-01  9.9999562377319962e-01  9.9999845386907393e-01  9.9999937202909950e-01  9.9999933377344530e-01  9.9999905122342292e-01  1.0000003023887896e+00  1.0000012464536840e+00  9.9999693371871079e-01  9.9999126610821021e-01  9.9999633740517069e-01  1.0000063004812647e+00  9.9998740221733595e-01  9.9991403529466683e-01  9.9979672941018649e-01  9.9963228247170122e-01  9.9930684628183253e-01  9.9856264693342012e-01  9.9707018121768776e-01  9.9452051460712576e-01  9.9068100117991265e-01  9.8551109636193324e-01  9.7940728424574808e-01  9.7338205413451107e-01  9.6886742348441279e-01  9.6712378012082434e-01  9.6862875200448784e-01  9.7286564179994506e-01  9.7862638992198225e-01  9.8459460023131229e-01  9.8981794791712174e-01  9.9384011503080372e-01  9.9659838105851828e-01  9.9828503894881460e-01  9.9920886132115327e-01  9.9966399614326096e-01  9.9986557761214567e-01  9.9994714836349563e-01  9.9997874964994593e-01  9.9999063940198984e-01  9.9999473379739134e-01  9.9999801955732637e-01  9.9999832884380657e-01  9.9999189130489352e-01  1.0000007736955130e+00  1.0000150701435875e+00  9.9996606142933375e-01  9.9990185058320558e-01  9.9992771672081315e-01  9.9980631253640284e-01  9.9896022383751104e-01  9.9671015507744698e-01  9.9200499124851249e-01  9.8321205674654288e-01  9.6871826127017735e-01  9.4790768464104547e-01  9.2200643039441510e-01  8.9487359898687580e-01  8.7348303522194282e-01  8.6686046015463447e-01  8.8203369531655018e-01  9.1695144332829581e-01  9.5633310482400424e-01  9.8321503133980015e-01  9.9500941860343028e-01  9.9870245878167974e-01  9.9965852762994534e-01  9.9989571911003716e-01  9.9996248631367923e-01  9.9998090619884483e-01  9.9997985181679561e-01  9.9999801273874600e-01  9.9999522448651990e-01  9.9990644967525122e-01  9.9995648096697698e-01  9.9997833866436314e-01  9.9916927372286946e-01  9.9728465455230109e-01  9.9225540468578299e-01  9.7689919784128920e-01  9.4405235761278150e-01  9.0157429800870215e-01  8.7454096203436837e-01  8.8116319278960820e-01  9.1536592362467539e-01  9.5440464388611845e-01  9.8087859689497114e-01  9.9337058986737037e-01  9.9794726436724257e-01  9.9938312407329433e-01  9.9980349026040249e-01  9.9992973920930683e-01  9.9997012304574273e-01  9.9997565507098396e-01  9.9999566497080128e-01  9.9999471557727337e-01  9.9991103892553890e-01  1.0000181307439548e+00  9.9999943233601385e-01  9.9916497794496262e-01  9.9763097336304407e-01  9.9181933986391302e-01  9.7017267354307613e-01  9.1957899058530912e-01  8.4596846624597222e-01  7.7582284103901533e-01  7.2945828797127765e-01  7.0992537013544965e-01  7.1065715859159051e-01  7.2320990637841009e-01  7.4060980313413471e-01  7.5818962475065110e-01  7.7334811222587130e-01  7.8495760258093117e-01  7.9279712098672850e-01  7.9714126617932624e-01  7.9851600424452518e-01  7.9758014807669331e-01  7.9507226038219692e-01  7.9176252803948377e-01  7.8836688961973533e-01  7.8543515698158839e-01  7.8328395902191150e-01  7.8200394985120847e-01  7.8151216112758670e-01  7.8161504714358776e-01  7.8207479406396163e-01  7.8268084499244872e-01  7.8330248565605320e-01  7.8389416414587643e-01  7.8445129989630535e-01  7.8494841673924554e-01  7.8530538849736364e-01  7.8541644480427386e-01  7.8521728611122388e-01  7.8472901638356263e-01  7.8406129241036060e-01  7.8339772822564857e-01  7.8297695065183726e-01  7.8306090074514811e-01  7.8388454279728892e-01  7.8558894793820844e-01  7.8814398639839300e-01  7.9128912481827007e-01  7.9452828847943402e-01  7.9718397934785767e-01  7.9847554960084277e-01  7.9759581515969447e-01  7.9380035914190483e-01  7.8652617371797917e-01  7.7557289499092397e-01  7.6140430977353379e-01  7.4559969321738717e-01  7.3141243142441292e-01  7.2423532985789896e-01  7.3146091615639663e-01  7.6076237915401435e-01  8.1532615158039323e-01  8.8549556752445024e-01  9.4694895138221169e-01  9.8194927331241944e-01  9.9517368042094068e-01  9.9884638011573634e-01  9.9971737019030249e-01  9.9991899297301345e-01  9.9997179717093487e-01  9.9998667531937313e-01  9.9999153137090779e-01  9.9999375312293270e-01  9.9998890215873359e-01  1.0000063542561899e+00  9.9990921433043767e-01  1.0002443858342469e+00  9.9876436486103848e-01  1.0035424476724566e+00  9.8120985604566335e-01  1.0041901149648680e+00  2.2061194206796675e-01  -4.4314471784620019e-03  -3.1967944754758532e-04  2.9129384919659431e-04  -5.5050800413365778e-05  5.3783724775017332e-06  3.3682100751594351e-07  -2.4939165747862636e-07  5.4236332317840686e-08  -6.0755511500441666e-09  -1.5113720125974018e-10  2.4193747808836703e-10  -5.8457835915618894e-11  7.7464787642288285e-12  -4.2916222609894695e-14  -2.2191190501209092e-13  7.2405237056247168e-14  -6.7771945827434618e-15  2.0110549056134566e-15  1.1439638346724141e-15  4.8524482650820077e-16  3.6337935755443719e-16  2.4472977383751024e-16  1.8231280366539256e-16  1.2728050962784644e-16  1.1903260342433557e-16  8.2041698405950038e-17  5.3648628151255184e-17  5.5347498216501822e-17  5.5596219656836135e-17  5.5494091097430418e-17  5.5511371515269062e-17  5.5538648113482059e-17  5.5328903313287050e-17  5.6430651493085521e-17  5.1519021926054345e-17  7.0317606601813032e-17  1.8761346691788685e-17  -1.3304916981624164e-18  -9.9534749909646321e-20  5.4006668810722173e-20  -1.0056659783356626e-20  9.2551949827569013e-22  6.3441501292161902e-23  -4.3423132444740399e-23  8.9936678690811525e-24  -9.2521508096866172e-25  -5.1437617962256723e-26  4.4061348253169065e-26  -1.0004173039926996e-26  1.2043866506026958e-27  1.1054217519984506e-29  -4.3079633441917295e-29  1.1154283464018258e-29  -1.5435096011195005e-30  3.8890032164334600e-32  4.1619266750817533e-32  -1.2509356509340401e-32  1.9568273362930989e-33  -1.0188873768208699e-34  -3.9416983451676737e-35  1.4226276153526018e-35  -2.5287367846171304e-36  2.0403871793277341e-37  3.0234781707455550e-38  -1.5138661698488222e-38  3.5412543457830255e-39  -9.4848003822386537e-40  9.9999998604957840e-01  9.9999998416301250e-01  9.9999997829371823e-01  9.9999995983866874e-01  9.9999994388693547e-01  9.9999996461565266e-01  1.0000000218839846e+00  1.0000000045259354e+00  9.9999977600583034e-01  9.9999953024341071e-01  9.9999986492431014e-01  1.0000006733820295e+00  9.9999998717431227e-01  9.9999650257441564e-01  9.9999457313630846e-01  1.0000001786260158e+00  1.0000056908441703e+00  9.9999011385553349e-01  9.9994897313172193e-01  9.9990740994578076e-01  9.9987921860635554e-01  9.9982982104474516e-01  9.9970664275379328e-01  9.9949507004113625e-01  9.9923498720000370e-01  9.9900361233061685e-01  9.9888588041724680e-01  9.9892966055118282e-01  9.9910912266496443e-01  9.9934262288168796e-01  9.9955463069069561e-01  9.9971416715403882e-01  9.9982356723585186e-01  9.9989439326917684e-01  9.9993773967882438e-01  9.9996311785639669e-01  9.9997781626275406e-01  9.9998654546028864e-01  9.9999188709537634e-01  9.9999514503800102e-01  9.9999709096484790e-01  9.9999826055828633e-01  9.9999897551487305e-01  9.9999940161318934e-01  9.9999964874380343e-01  9.9999979743869205e-01  9.9999984022809441e-01  9.9999999406090390e-01  9.9999981173080343e-01  9.9999987148966252e-01  1.0000010635110623e+00  9.9999662224711228e-01  1.0000031769581532e+00  1.0000097999241198e+00  9.9996127079263475e-01  1.0000133854824589e+00  1.0001358799621054e+00  9.9985524620771926e-01  9.9937805259109813e-01  9.9889762661353099e-01  9.9660717239852081e-01  9.9010877148875753e-01  9.7960601811705039e-01  9.6830712703708166e-01  9.5977201657058975e-01  9.5553121865871782e-01  9.5501666941765451e-01  9.5678805474724560e-01  9.5951380029799094e-01  9.6231589989629862e-01  9.6473167077392663e-01  9.6657031091055101e-01  9.6779352128446416e-01  9.6844700887649837e-01  9.6862204437445898e-01  9.6842976288255200e-01  9.6798253424524561e-01  9.6738487481148538e-01  9.6672994032558324e-01  9.6609661723449813e-01  9.6554274851827226e-01  9.6509910591155423e-01  9.6476838054511505e-01  9.6453125852429444e-01  9.6435683298323627e-01  9.6421582202945977e-01  9.6408978307477255e-01  9.6397230303938608e-01  9.6386266564021728e-01  9.6376016572415080e-01  9.6366137407786689e-01  9.6356085736907970e-01  9.6345202799025531e-01  9.6332794482804518e-01  9.6317989083537903e-01  9.6299731859129534e-01  9.6277149187542921e-01  9.6250266487608627e-01  9.6220313549124825e-01  9.6189607848677283e-01  9.6161075173334787e-01  9.6137681317912038e-01  9.6121691458960667e-01  9.6114046368340467e-01  9.6114067918624890e-01  9.6119780794260867e-01  9.6128237548773654e-01  9.6135551308213796e-01  9.6137189056084926e-01  9.6129433647785767e-01  9.6110866534330530e-01  9.6082696914429178e-01  9.6048043662600946e-01  9.6010957497306937e-01  9.5975443483000045e-01  9.5944801525446455e-01  9.5921286400200367e-01  9.5906005377087056e-01  9.5898610234709547e-01  9.5897040293577207e-01  9.5897521734277913e-01  9.5895231994414054e-01  9.5885382624872073e-01  9.5864325267914552e-01  9.5830134418725177e-01  9.5783051246139761e-01  9.5726038076604369e-01  9.5665180824184270e-01  9.5608944031850240e-01  9.5566518500486708e-01  9.5546096142858139e-01  9.5553829054144923e-01  9.5592945894774684e-01  9.5662661778056213e-01  9.5756923313871478e-01  9.5864089019197585e-01  9.5968000824836164e-01  9.6049993462262773e-01  9.6090761376161016e-01  9.6071468212757294e-01  9.5973839686819673e-01  9.5779914172557823e-01  9.5472654374186594e-01  9.5040332545341688e-01  9.4488928453832854e-01  9.3866874214076090e-01  9.3301467423338580e-01  9.3029766847901685e-01  9.3365433247378848e-01  9.4524687651182304e-01  9.6343422515014177e-01  9.8172066725912699e-01  9.9352048314701846e-01  9.9833215394997254e-01  9.9964522661705857e-01  9.9992691647589160e-01  9.9998326386765002e-01  9.9999552338384701e-01  9.9999834679049804e-01  9.9999903745772067e-01  9.9999929045517377e-01  1.0000004483677201e+00  9.9999988715510424e-01  9.9999593280123700e-01  9.9999712909603056e-01  1.0000076925384651e+00  1.0000052585004218e+00  9.9996947007720116e-01  9.9993040589508086e-01  9.9992996919038657e-01  9.9991228405104804e-01  9.9969905252125146e-01  9.9910510369800853e-01  9.9802512372414920e-01  9.9631980923970698e-01  9.9362689607044752e-01  9.8942821697496763e-01  9.8346476828052409e-01  9.7619563132216847e-01  9.6892443617993718e-01  9.6342847179277968e-01  9.6121932773209662e-01  9.6285300696551424e-01  9.6773276062264757e-01  9.7449023022558612e-01  9.8160995127106510e-01  9.8789961461595854e-01  9.9271426452121048e-01  9.9597700255915378e-01  9.9797326307352585e-01  9.9907417862888503e-01  9.9961135055749151e-01  9.9984565312318419e-01  9.9994045932590181e-01  9.9997643318315865e-01  9.9998941641017847e-01  9.9999526364817037e-01  9.9999739252075481e-01  9.9999401658165432e-01  1.0000015258703898e+00  1.0000076287533233e+00  9.9996387092285899e-01  9.9996358624367532e-01  1.0000713743678262e+00  9.9995759157859365e-01  9.9938195039545930e-01  9.9846291908743567e-01  9.9651450143982412e-01  9.9142166071208404e-01  9.8075291814708143e-01  9.6298429042324019e-01  9.3797156459248887e-01  9.0736069431158128e-01  8.7544695056960264e-01  8.4998217733968850e-01  8.4131463163886400e-01  8.5801811788278926e-01  8.9870620159760706e-01  9.4624637058826000e-01  9.7947656578981512e-01  9.9406078306046752e-01  9.9850087147588384e-01  9.9960964781613426e-01  9.9988840244929267e-01  9.9995790660506967e-01  9.9997529364876914e-01  9.9999108522712854e-01  9.9999553176211686e-01  9.9993719418949756e-01  1.0000009933608218e+00  1.0000581194484499e+00  9.9949913024796233e-01  9.9905138832643126e-01  9.9812136706795695e-01  9.9113418679254350e-01  9.7109025614265720e-01  9.3190125544719948e-01  8.8136599553454842e-01  8.4867647498755161e-01  8.5608502180359447e-01  8.9689668568040148e-01  9.4433300508104423e-01  9.7681202761541974e-01  9.9209310724694144e-01  9.9760101590933947e-01  9.9928995569711820e-01  9.9978049881512332e-01  9.9992283411559124e-01  9.9996336950584419e-01  9.9998238630587744e-01  9.9999742419908577e-01  9.9994107767910190e-01  1.0000161407987262e+00  1.0000622861597586e+00  9.9947963621981850e-01  9.9946125157707433e-01  9.9847375269873684e-01  9.8954930492314619e-01  9.6298784189124231e-01  9.0427219516753221e-01  8.1843036227349364e-01  7.3818445245802078e-01  6.8719983536453078e-01  6.6688115549485916e-01  6.6871565594509041e-01  6.8321350330680763e-01  7.0283301825868183e-01  7.2255102490316303e-01  7.3953878593864986e-01  7.5254716739641214e-01  7.6131923154131764e-01  7.6615482640114463e-01  7.6764080511381627e-01  7.6651969419853372e-01  7.6362747666364550e-01  7.5984091049997782e-01  7.5597686119634422e-01  7.5265978747100715e-01  7.5024197800573500e-01  7.4881825734296992e-01  7.4828802836053809e-01  7.4842831351281291e-01  7.4896491965015388e-01  7.4965630218998525e-01  7.5035450616591681e-01  7.5101417702487316e-01  7.5163796336412980e-01  7.5220330540906721e-01  7.5261776066355979e-01  7.5275474161563505e-01  7.5253483216624484e-01  7.5198008446989906e-01  7.5121312070550539e-01  7.5044037394647256e-01  7.4993044926029195e-01  7.4998169412730697e-01  7.5086489004166113e-01  7.5275073972751494e-01  7.5561882795203617e-01  7.5918704799524794e-01  7.6289996765568524e-01  7.6599173412590915e-01  7.6757489672776480e-01  7.6672903697824191e-01  7.6260363484506566e-01  7.5455624961072021e-01  7.4234899889316985e-01  7.2647413622299806e-01  7.0863374198160611e-01  6.9233325967567083e-01  6.8337604310648303e-01  6.8980366197683551e-01  7.2044579857167801e-01  7.8032055042184867e-01  8.6093003911887245e-01  9.3485204857003235e-01  9.7803687541522444e-01  9.9427580648445268e-01  9.9867475495465541e-01  9.9967661913194961e-01  9.9991312362158113e-01  9.9996850819190575e-01  9.9998585407613039e-01  9.9999144018789499e-01  9.9999307354850786e-01  9.9999201950459204e-01  9.9999111981671818e-01  9.9996465659806544e-01  1.0000318586596548e+00  9.9950540804265997e-01  1.0008768437254394e+00  9.9038037297077541e-01  9.7956526014763701e-01  2.8587262318674184e-01  -2.7855060578470359e-02  5.8017475235576229e-03  -6.0770421351885519e-04  6.0216727252176624e-06  1.5733203146857531e-05  -4.1128412932806216e-06  5.7939780587594546e-07  -2.1437561223540815e-08  -1.2726646475002857e-08  4.0558030973132877e-09  -6.5548462677877697e-10  4.1660058016462144e-11  1.0837443864628997e-11  -4.2150482493404128e-12  7.9628065898357201e-13  -6.0676852612831351e-14  -5.1941848917171540e-15  6.1507485594024460e-15  -4.3010744184797607e-18  6.6849398023040923e-16  3.6830708633771058e-16  2.4945862834264812e-16  1.7204564962100336e-16  1.3878715341016777e-16  1.0585473140496132e-16  9.8520169085304579e-17  4.6370978166333383e-17  5.7055446458760542e-17  5.5346542377773462e-17  5.5510911384837145e-17  5.5519927126904156e-17  5.5496496111917483e-17  5.5534329523443528e-17  5.5561218123496616e-17  5.4789772167661224e-17  6.0345940396811186e-17  2.6627962878912607e-17  -6.3832579427401255e-18  1.0438270662880825e-18  -1.0698030188329614e-19  -2.4399970236902808e-22  2.9478848979399944e-21  -7.2783425173483432e-22  9.6461564942866074e-23  -2.4097521892646368e-24  -2.3970776551249507e-24  7.0160777247126759e-25  -1.0671805222675859e-25  5.2549029683447375e-27  2.1247486995510715e-27  -7.4134924015565549e-28  1.2753307901532383e-28  -9.3984291815757275e-30  -1.7528496889613786e-30  7.8679174422843643e-31  -1.5251667353711458e-31  1.4468535457164234e-32  1.2714870273002238e-33  -8.3634641266845056e-34  1.8330744929400056e-34  -2.1225268174689886e-35  -4.8070016774275910e-37  8.5175308586455835e-37  -2.1461823820801131e-37  2.9463864968503151e-38  -9.3589789965774252e-40  -1.6442942693352950e-39  9.9999996223232823e-01  9.9999995507932804e-01  9.9999995257789065e-01  9.9999998414232438e-01  1.0000000379247882e+00  1.0000000180611284e+00  9.9999981965079754e-01  9.9999959791586068e-01  9.9999987280912717e-01  1.0000007335245316e+00  1.0000006090331222e+00  9.9999769282849293e-01  9.9999518941233001e-01  1.0000009003103394e+00  1.0000108697340377e+00  9.9999986466397150e-01  9.9995922032402917e-01  9.9994030645753540e-01  9.9999265547010774e-01  1.0000461569587284e+00  9.9995321556615246e-01  9.9967007302186894e-01  9.9928790007092749e-01  9.9888998155113951e-01  9.9850967827452131e-01  9.9822253