<?xml version="1.0"?>
<VTKFile type="UnstructuredGrid"  version="0.1"  >
<UnstructuredGrid>
<Piece  NumberOfPoints="330" NumberOfCells="589">
<Points>
<DataArray  type="Float64"  NumberOfComponents="3"  format="ascii">2.973913043478261 0 0  3.006956521739131 0 0  3.006956521739131 0.03333333333333333 0  2.973913043478261 0.03333333333333333 0  3.04 0 0  3.04 0.03333333333333333 0  3.073043478260869 0 0  3.073043478260869 0.03333333333333333 0  3.106086956521739 0 0  3.106086956521739 0.03333333333333333 0  3.139130434782609 0 0  3.139130434782609 0.03333333333333333 0  3.172173913043478 0 0  3.172173913043478 0.03333333333333333 0  3.205217391304347 0 0  3.205217391304347 0.03333333333333333 0  3.238260869565217 0 0  3.238260869565217 0.03333333333333333 0  3.271304347826087 0 0  3.271304347826087 0.03333333333333333 0  3.304347826086957 0 0  3.304347826086957 0.03333333333333333 0  3.337391304347826 0 0  3.337391304347826 0.03333333333333333 0  3.370434782608696 0 0  3.370434782608696 0.03333333333333333 0  3.403478260869565 0 0  3.403478260869565 0.03333333333333333 0  3.436521739130435 0 0  3.436521739130435 0.03333333333333333 0  3.469565217391304 0 0  3.469565217391304 0.03333333333333333 0  3.502608695652174 0 0  3.502608695652174 0.03333333333333333 0  3.535652173913043 0 0  3.535652173913043 0.03333333333333333 0  3.568695652173913 0 0  3.568695652173913 0.03333333333333333 0  3.601739130434782 0 0  3.601739130434782 0.03333333333333333 0  3.634782608695652 0 0  3.634782608695652 0.03333333333333333 0  3.667826086956521 0 0  3.667826086956521 0.03333333333333333 0  3.700869565217391 0 0  3.700869565217391 0.03333333333333333 0  3.733913043478261 0 0  3.733913043478261 0.03333333333333333 0  3.766956521739131 0 0  3.766956521739131 0.03333333333333333 0  3.8 0 0  3.8 0.03333333333333333 0  3.006956521739131 0.06666666666666667 0  3.04 0.06666666666666667 0  3.073043478260869 0.06666666666666667 0  3.106086956521739 0.06666666666666667 0  3.139130434782609 0.06666666666666667 0  3.172173913043478 0.06666666666666667 0  3.205217391304347 0.06666666666666667 0  3.238260869565217 0.06666666666666667 0  3.271304347826087 0.06666666666666667 0  3.304347826086957 0.06666666666666667 0  3.337391304347826 0.06666666666666667 0  3.370434782608696 0.06666666666666667 0  3.403478260869565 0.06666666666666667 0  3.436521739130435 0.06666666666666667 0  3.469565217391304 0.06666666666666667 0  3.502608695652174 0.06666666666666667 0  3.535652173913043 0.06666666666666667 0  3.568695652173913 0.06666666666666667 0  3.601739130434782 0.06666666666666667 0  3.634782608695652 0.06666666666666667 0  3.667826086956521 0.06666666666666667 0  3.700869565217391 0.06666666666666667 0  3.733913043478261 0.06666666666666667 0  3.766956521739131 0.06666666666666667 0  3.8 0.06666666666666667 0  3.04 0.1 0  3.073043478260869 0.1 0  3.106086956521739 0.1 0  3.139130434782609 0.1 0  3.172173913043478 0.1 0  3.205217391304347 0.1 0  3.238260869565217 0.1 0  3.271304347826087 0.1 0  3.304347826086957 0.1 0  3.337391304347826 0.1 0  3.370434782608696 0.1 0  3.403478260869565 0.1 0  3.436521739130435 0.1 0  3.469565217391304 0.1 0  3.502608695652174 0.1 0  3.535652173913043 0.1 0  3.568695652173913 0.1 0  3.601739130434782 0.1 0  3.634782608695652 0.1 0  3.667826086956521 0.1 0  3.700869565217391 0.1 0  3.733913043478261 0.1 0  3.766956521739131 0.1 0  3.8 0.1 0  3.073043478260869 0.1333333333333333 0  3.106086956521739 0.1333333333333333 0  3.139130434782609 0.1333333333333333 0  3.172173913043478 0.1333333333333333 0  3.205217391304347 0.1333333333333333 0  3.238260869565217 0.1333333333333333 0  3.271304347826087 0.1333333333333333 0  3.304347826086957 0.1333333333333333 0  3.337391304347826 0.1333333333333333 0  3.370434782608696 0.1333333333333333 0  3.403478260869565 0.1333333333333333 0  3.436521739130435 0.1333333333333333 0  3.469565217391304 0.1333333333333333 0  3.502608695652174 0.1333333333333333 0  3.535652173913043 0.1333333333333333 0  3.568695652173913 0.1333333333333333 0  3.601739130434782 0.1333333333333333 0  3.634782608695652 0.1333333333333333 0  3.667826086956521 0.1333333333333333 0  3.700869565217391 0.1333333333333333 0  3.733913043478261 0.1333333333333333 0  3.766956521739131 0.1333333333333333 0  3.8 0.1333333333333333 0  3.106086956521739 0.1666666666666667 0  3.139130434782609 0.1666666666666667 0  3.172173913043478 0.1666666666666667 0  3.205217391304347 0.1666666666666667 0  3.238260869565217 0.1666666666666667 0  3.271304347826087 0.1666666666666667 0  3.304347826086957 0.1666666666666667 0  3.337391304347826 0.1666666666666667 0  3.370434782608696 0.1666666666666667 0  3.403478260869565 0.1666666666666667 0  3.436521739130435 0.1666666666666667 0  3.469565217391304 0.1666666666666667 0  3.502608695652174 0.1666666666666667 0  3.535652173913043 0.1666666666666667 0  3.568695652173913 0.1666666666666667 0  3.601739130434782 0.1666666666666667 0  3.634782608695652 0.1666666666666667 0  3.667826086956521 0.1666666666666667 0  3.700869565217391 0.1666666666666667 0  3.733913043478261 0.1666666666666667 0  3.766956521739131 0.1666666666666667 0  3.8 0.1666666666666667 0  3.139130434782609 0.2 0  3.106086956521739 0.2 0  3.172173913043478 0.2 0  3.205217391304347 0.2 0  3.238260869565217 0.2 0  3.271304347826087 0.2 0  3.304347826086957 0.2 0  3.337391304347826 0.2 0  3.370434782608696 0.2 0  3.403478260869565 0.2 0  3.436521739130435 0.2 0  3.469565217391304 0.2 0  3.502608695652174 0.2 0  3.535652173913043 0.2 0  3.568695652173913 0.2 0  3.601739130434782 0.2 0  3.634782608695652 0.2 0  3.667826086956521 0.2 0  3.700869565217391 0.2 0  3.733913043478261 0.2 0  3.766956521739131 0.2 0  3.8 0.2 0  3.139130434782609 0.2333333333333333 0  3.172173913043478 0.2333333333333333 0  3.205217391304347 0.2333333333333333 0  3.238260869565217 0.2333333333333333 0  3.271304347826087 0.2333333333333333 0  3.304347826086957 0.2333333333333333 0  3.337391304347826 0.2333333333333333 0  3.370434782608696 0.2333333333333333 0  3.403478260869565 0.2333333333333333 0  3.436521739130435 0.2333333333333333 0  3.469565217391304 0.2333333333333333 0  3.502608695652174 0.2333333333333333 0  3.535652173913043 0.2333333333333333 0  3.568695652173913 0.2333333333333333 0  3.601739130434782 0.2333333333333333 0  3.634782608695652 0.2333333333333333 0  3.667826086956521 0.2333333333333333 0  3.700869565217391 0.2333333333333333 0  3.733913043478261 0.2333333333333333 0  3.766956521739131 0.2333333333333333 0  3.8 0.2333333333333333 0  3.172173913043478 0.2666666666666667 0  3.205217391304347 0.2666666666666667 0  3.238260869565217 0.2666666666666667 0  3.271304347826087 0.2666666666666667 0  3.304347826086957 0.2666666666666667 0  3.337391304347826 0.2666666666666667 0  3.370434782608696 0.2666666666666667 0  3.403478260869565 0.2666666666666667 0  3.436521739130435 0.2666666666666667 0  3.469565217391304 0.2666666666666667 0  3.502608695652174 0.2666666666666667 0  3.535652173913043 0.2666666666666667 0  3.568695652173913 0.2666666666666667 0  3.601739130434782 0.2666666666666667 0  3.634782608695652 0.2666666666666667 0  3.667826086956521 0.2666666666666667 0  3.700869565217391 0.2666666666666667 0  3.733913043478261 0.2666666666666667 0  3.766956521739131 0.2666666666666667 0  3.8 0.2666666666666667 0  3.205217391304347 0.3 0  3.238260869565217 0.3 0  3.271304347826087 0.3 0  3.304347826086957 0.3 0  3.337391304347826 0.3 0  3.370434782608696 0.3 0  3.403478260869565 0.3 0  3.436521739130435 0.3 0  3.469565217391304 0.3 0  3.502608695652174 0.3 0  3.535652173913043 0.3 0  3.568695652173913 0.3 0  3.601739130434782 0.3 0  3.634782608695652 0.3 0  3.667826086956521 0.3 0  3.700869565217391 0.3 0  3.733913043478261 0.3 0  3.766956521739131 0.3 0  3.8 0.3 0  3.238260869565217 0.3333333333333333 0  3.271304347826087 0.3333333333333333 0  3.304347826086957 0.3333333333333333 0  3.337391304347826 0.3333333333333333 0  3.370434782608696 0.3333333333333333 0  3.403478260869565 0.3333333333333333 0  3.436521739130435 0.3333333333333333 0  3.469565217391304 0.3333333333333333 0  3.502608695652174 0.3333333333333333 0  3.535652173913043 0.3333333333333333 0  3.568695652173913 0.3333333333333333 0  3.601739130434782 0.3333333333333333 0  3.634782608695652 0.3333333333333333 0  3.667826086956521 0.3333333333333333 0  3.700869565217391 0.3333333333333333 0  3.733913043478261 0.3333333333333333 0  3.766956521739131 0.3333333333333333 0  3.8 0.3333333333333333 0  3.271304347826087 0.3666666666666666 0  3.238260869565217 0.3666666666666666 0  3.304347826086957 0.3666666666666666 0  3.337391304347826 0.3666666666666666 0  3.370434782608696 0.3666666666666666 0  3.403478260869565 0.3666666666666666 0  3.436521739130435 0.3666666666666666 0  3.469565217391304 0.3666666666666666 0  3.502608695652174 0.3666666666666666 0  3.535652173913043 0.3666666666666666 0  3.568695652173913 0.3666666666666666 0  3.601739130434782 0.3666666666666666 0  3.634782608695652 0.3666666666666666 0  3.667826086956521 0.3666666666666666 0  3.700869565217391 0.3666666666666666 0  3.733913043478261 0.3666666666666666 0  3.766956521739131 0.3666666666666666 0  3.8 0.3666666666666666 0  3.271304347826087 0.4 0  3.238260869565217 0.4 0  3.304347826086957 0.4 0  3.337391304347826 0.4 0  3.370434782608696 0.4 0  3.403478260869565 0.4 0  3.436521739130435 0.4 0  3.469565217391304 0.4 0  3.502608695652174 0.4 0  3.535652173913043 0.4 0  3.568695652173913 0.4 0  3.601739130434782 0.4 0  3.634782608695652 0.4 0  3.667826086956521 0.4 0  3.700869565217391 0.4 0  3.733913043478261 0.4 0  3.766956521739131 0.4 0  3.8 0.4 0  3.271304347826087 0.4333333333333333 0  3.304347826086957 0.4333333333333333 0  3.337391304347826 0.4333333333333333 0  3.370434782608696 0.4333333333333333 0  3.403478260869565 0.4333333333333333 0  3.436521739130435 0.4333333333333333 0  3.469565217391304 0.4333333333333333 0  3.502608695652174 0.4333333333333333 0  3.535652173913043 0.4333333333333333 0  3.5686956521
[...]
<CellData  Scalars="sigma_m"> 
<DataArray  type="Float64"  Name="sigma_m"  format="ascii">2.9451385832006480e+06   1.6131980523611286e+06   3.4304956386251352e+06   1.5156769161627076e+06   3.8314996488092160e+06   1.5733013941640928e+06   3.4071118292979551e+06   2.0265637760874152e+06   2.5328274912634585e+06   2.1884618608984915e+06   1.5010709457097629e+06   1.8497492424628430e+06   7.4502001121909055e+05   2.0815173535000447e+06   0.0000000000000000e+00   0.0000000000000000e+00   0.0000000000000000e+00   0.0000000000000000e+00   0.0000000000000000e+00   0.0000000000000000e+00   0.0000000000000000e+00   0.0000000000000000e+00   0.0000000000000000e+00   0.0000000000000000e+00   0.0000000000000000e+00   0.0000000000000000e+00   0.0000000000000000e+00   0.0000000000000000e+00   0.0000000000000000e+00   0.0000000000000000e+00   0.0000000000000000e+00   0.0000000000000000e+00   0.0000000000000000e+00   0.0000000000000000e+00   0.0000000000000000e+00   0.0000000000000000e+00   0.0000000000000000e+00   0.0000000000000000e+00   0.0000000000000000e+00   0.0000000000000000e+00   0.0000000000000000e+00   0.0000000000000000e+00   0.0000000000000000e+00   0.0000000000000000e+00   0.0000000000000000e+00   0.0000000000000000e+00   0.0000000000000000e+00   0.0000000000000000e+00   0.0000000000000000e+00   0.0000000000000000e+00   1.5519835263862142e+06   1.6208214860181483e+06   1.1863302442322356e+05   1.5755685241393577e+06   9.3044317361378006e+05   1.1694766104546716e+06   3.0009777436628672e+06   1.1394115680132562e+06   2.8546415801843381e+06   1.1819020823808026e+06   1.4204368181886419e+06   1.6389763968513107e+06   1.9210918567535030e+06   3.3434236033808342e-05   3.3600770893595880e+06   0.0000000000000000e+00   0.0000000000000000e+00   0.0000000000000000e+00   0.0000000000000000e+00   0.0000000000000000e+00   0.0000000000000000e+00   0.0000000000000000e+00   0.0000000000000000e+00   0.0000000000000000e+00   0.0000000000000000e+00   0.0000000000000000e+00   0.0000000000000000e+00   0.0000000000000000e+00   0.0000000000000000e+00   0.0000000000000000e+00   0.0000000000000000e+00   0.0000000000000000e+00   0.0000000000000000e+00   0.0000000000000000e+00   0.0000000000000000e+00   0.0000000000000000e+00   0.0000000000000000e+00   0.0000000000000000e+00   0.0000000000000000e+00   0.0000000000000000e+00   0.0000000000000000e+00   0.0000000000000000e+00   0.0000000000000000e+00   0.0000000000000000e+00   0.0000000000000000e+00   0.0000000000000000e+00   0.0000000000000000e+00   0.0000000000000000e+00   0.0000000000000000e+00   9.4633014332586422e+05   2.5768947665146375e+06   2.1990523961564093e+06   4.0152010369126648e+06   3.8566106247911365e+06   2.9516863182356759e-04   0.0000000000000000e+00   5.1304419827941916e+05   3.9871637460027638e-08   6.8501958998374350e+05   4.5852213178136945e+05   1.6833199405368301e+06   1.7955972601834317e+06   6.4099625377865194e+05   2.5833570712207993e+06   0.0000000000000000e+00   3.9999032184729390e-05   0.0000000000000000e+00   0.0000000000000000e+00   0.0000000000000000e+00   0.0000000000000000e+00   0.0000000000000000e+00   0.0000000000000000e+00   0.0000000000000000e+00   0.0000000000000000e+00   0.0000000000000000e+00   0.0000000000000000e+00   0.0000000000000000e+00   0.0000000000000000e+00   0.0000000000000000e+00   0.0000000000000000e+00   0.0000000000000000e+00   0.0000000000000000e+00   0.0000000000000000e+00   0.0000000000000000e+00   0.0000000000000000e+00   0.0000000000000000e+00   0.0000000000000000e+00   0.0000000000000000e+00   0.0000000000000000e+00   0.0000000000000000e+00   0.0000000000000000e+00   0.0000000000000000e+00   0.0000000000000000e+00   0.0000000000000000e+00   0.0000000000000000e+00   0.0000000000000000e+00   4.8193051423151465e+06   0.0000000000000000e+00   0.0000000000000000e+00   0.0000000000000000e+00   0.0000000000000000e+00   0.0000000000000000e+00   0.0000000000000000e+00   5.0288590483530739e+05   0.0000000000000000e+00   4.5111466748058988e+05   2.4254658882034055e+05   1.3830790602517882e+06   1.4438819537556109e+06   2.3967390399031723e+06   2.9312592196207736e+06   0.0000000000000000e+00   2.8561091495029242e+06   0.0000000000000000e+00   0.0000000000000000e+00   0.0000000000000000e+00   0.0000000000000000e+00   0.0000000000000000e+00   0.0000000000000000e+00   0.0000000000000000e+00   0.0000000000000000e+00   0.0000000000000000e+00   0.0000000000000000e+00   0.0000000000000000e+00   0.0000000000000000e+00   0.0000000000000000e+00   0.0000000000000000e+00   0.0000000000000000e+00   0.0000000000000000e+00   0.0000000000000000e+00   0.0000000000000000e+00   0.0000000000000000e+00   0.0000000000000000e+00   0.0000000000000000e+00   0.0000000000000000e+00   0.0000000000000000e+00   0.0000000000000000e+00   0.0000000000000000e+00   0.0000000000000000e+00   0.0000000000000000e+00   0.0000000000000000e+00   0.0000000000000000e+00   0.0000000000000000e+00   0.0000000000000000e+00   0.0000000000000000e+00   0.0000000000000000e+00   0.0000000000000000e+00   0.0000000000000000e+00   0.0000000000000000e+00   0.0000000000000000e+00   5.7636457571743184e+05   7.7633382253187003e-06   1.6367864107292430e+06   1.5480122870066771e+06   2.6829258913016515e+06   3.1239115519299391e+06   0.0000000000000000e+00   4.0192481175315431e+06   0.0000000000000000e+00   0.0000000000000000e+00   0.0000000000000000e+00   0.0000000000000000e+00   0.0000000000000000e+00   0.0000000000000000e+00   0.0000000000000000e+00   0.0000000000000000e+00   0.0000000000000000e+00   0.0000000000000000e+00   0.0000000000000000e+00   0.0000000000000000e+00   0.0000000000000000e+00   0.0000000000000000e+00   0.0000000000000000e+00   0.0000000000000000e+00   0.0000000000000000e+00   0.0000000000000000e+00   0.0000000000000000e+00   0.0000000000000000e+00   0.0000000000000000e+00   0.0000000000000000e+00   0.0000000000000000e+00   0.0000000000000000e+00   0.0000000000000000e+00   0.0000000000000000e+00   0.0000000000000000e+00   0.0000000000000000e+00   0.0000000000000000e+00   0.0000000000000000e+00   0.0000000000000000e+00   0.0000000000000000e+00   0.0000000000000000e+00   0.0000000000000000e+00   0.0000000000000000e+00   0.0000000000000000e+00   6.6393513814229681e+05   0.0000000000000000e+00   1.3096067861428757e+06   1.0593769439886119e+06   2.9488475304235294e+06   3.3602023944846862e+06   3.8698484494727197e-07   3.8899594640199919e+06   0.0000000000000000e+00   0.0000000000000000e+00   0.0000000000000000e+00   0.0000000000000000e+00   0.0000000000000000e+00   0.0000000000000000e+00   0.0000000000000000e+00   0.0000000000000000e+00   0.0000000000000000e+00   0.0000000000000000e+00   0.0000000000000000e+00   0.0000000000000000e+00   0.0000000000000000e+00   0.0000000000000000e+00   0.0000000000000000e+00   0.0000000000000000e+00   0.0000000000000000e+00   0.0000000000000000e+00   0.0000000000000000e+00   0.0000000000000000e+00   0.0000000000000000e+00   0.0000000000000000e+00   0.0000000000000000e+00   0.0000000000000000e+00   0.0000000000000000e+00   0.0000000000000000e+00   0.0000000000000000e+00   0.0000000000000000e+00   0.0000000000000000e+00   0.0000000000000000e+00   0.0000000000000000e+00   0.0000000000000000e+00   0.0000000000000000e+00   0.0000000000000000e+00   0.0000000000000000e+00   5.3613493863574320e-05   0.0000000000000000e+00   9.8389672233686387e+05   1.8172840189593867e+05   2.2233167565823896e+06   2.2016356584727080e+06   3.0033201326310734e+05   1.7633078041401075e+06   0.0000000000000000e+00   7.2136681248654265e-04   0.0000000000000000e+00   0.0000000000000000e+00   0.0000000000000000e+00   0.0000000000000000e+00   0.0000000000000000e+00   0.0000000000000000e+00   0.0000000000000000e+00   0.0000000000000000e+00   0.0000000000000000e+00   0.0000000000000000e+00   0.0000000000000000e+00   0.0000000000000000e+00   0.0000000000000000e+00   0.0000000000000000e+00   0.0000000000000000e+00   0.0000000000000000e+00   0.0000000000000000e+00   0.0000000000000000e+00   0.0000000000000000e+00   0.0000000000000000e+00   0.0000000000000000e+00   0.0000000000000000e+00   0.0000000000000000e+00   0.0000000000000000e+00   0.0000000000000000e+00   0.0000000000000000e+00   0.0000000000000000e+00   0.0000000000000000e+00   0.0000000000000000e+00   0.0000000000000000e+00   0.0000000000000000e+00   0.0000000000000000e+00   0.0000000000000000e+00   2.2617851286460306e+06   1.9007944727193603e-08   2.6821641512844563e+06   2.4157380173420836e+06   1.7743455845781588e+06   1.9755919326725868e+06   0.0000000000000000e+00   1.2894233772461684e+06   0.0000000000000000e+00   0.0000000000000000e+00   0.0000000000000000e+00   0.0000000000000000e+00   0.0000000000000000e+00   0.0000000000000000e+00   0.0000000000000000e+00   0.0000000000000000e+00   0.0000000000000000e+00   0.0000000000000000e+00   0.0000000000000000e+00   0.0000000000000000e+00   0.0000000000000000e+00   0.0000000000000000e+00   0.0000000000000000e+00   0.0000000000000000e+00   0.0000000000000000e+00   0.0000000000000000e+00   0.0000000000000000e+00   0.0000000000000000e+00   0.0000000000000000e+00   0.0000000000000000e+00   0.0000000000000000e+00   0.0000000000000000e+00   0.0000000000000000e+00   0.0000000000000000e+00   0.0000000000000000e+00   0.0000000000000000e+00   0.0000000000000000e+00   0.0000000000000000e+00   0.0000000000000000e+00   2.2290177462840327e+06   0.0000000000000000e+00   2.2816157022640510e+06   2.0499001468957788e+06   1.9165820964002896e+06   1.9635134023506900e+06   2.9541100676283837e+04   1.0831872312985279e+06   0.0000000000000000e+00   5.2292517516739716e+00   0.0000000000000000e+00   0.0000000000000000e+00   0.0000000000000000e+00   0.0000000000000000e+00   0.0000000000000000e+00   0.0000000000000000e+00   0.0000000000000000e+00   0.0000000000000000e+00   0.0000000000000000e+00   0.0000000000000000e+00   0.0000000000000000e+00   0.0000000000000000e+00   0.0000000000000000e+00   0.0000000000000000e+00   0.0000000000000000e+00   0.0000000000000000e+00   0.0000000000000000e+00   0.0000000000000000e+00   0.0000000000000000e+00   0.0000000000000000e+00   0.0000000000000000e+00   0.0000000000000000e+00   0.0000000000000000e+00   0.0000000000000000e+00   0.0000000000000000e+00   0.0000000000000000e+00   0.0000000000000000e+00   1.0142464548905925e-01   0.0000000000000000e+00   2.2962904542718623e+06   1.0283181500998504e+06   2.1907580449455148e+06   2.2201437723081242e+06   6.9420471195937681e+05   1.0031814685515722e+06   0.0000000000000000e+00   2.1784818814351945e+06   0.0000000000000000e+00   0.0000000000000000e+00   0.0000000000000000e+00   0.0000000000000000e+00   0.0000000000000000e+00   0.0000000000000000e+00   0.0000000000000000e+00   0.0000000000000000e+00   0.0000000000000000e+00   0.0000000000000000e+00   0.0000000000000000e+00   0.0000000000000000e+00   0.0000000000000000e+00   0.0000000000000000e+00   0.0000000000000000e+00   0.0000000000000000e+00   0.0000000000000000e+00   0.0000000000000000e+00   0.0000000000000000e+00   0.0000000000000000e+00   0.0000000000000000e+00   0.0000000000000000e+00   0.0000000000000000e+00   0.0000000000000000e+00   0.0000000000000000e+00   0.0000000000000000e+00   0.0000000000000000e+00   0.0000000000000000e+00   4.5524593150868816e+06   3.2457328307897849e-08   3.6577620558931967e+06   3.1331453191752890e+06   7.5166897878011863e+05   1.0682213180983425e+06   8.9513157381978814e-08   1.3354413087283610e+06   0.0000000000000000e+00   0.0000000000000000e+00   0.0000000000000000e+00   0.0000000000000000e+00   0.0000000000000000e+00   0.0000000000000000e+00   0.0000000000000000e+00   0.0000000000000000e+00   0.0000000000000000e+00   0.0000000000000000e+00   0.0000000000000000e+00   0.0000000000000000e+00   0.0000000000000000e+00   0.0000000000000000e+00   0.0000000000000000e+00   0.0000000000000000e+00   0.0000000000000000e+00   0.0000000000000000e+00   0.0000000000000000e+00   0.0000000000000000e+00   0.0000000000000000e+00   0.0000000000000000e+00   0.0000000000000000e+00   0.0000000000000000e+00   0.0000000000000000e+00   0.0000000000000000e+00   0.0000000000000000e+00   0.0000000000000000e+00   5.1270158395164199e+06   0.0000000000000000e+00   2.9948989716103626e+06   2.6839872866912461e+06   1.0751012168203639e+06   1.0382909048427971e+06   0.0000000000000000e+00   1.0522445086683927e+06   0.0000000000000000e+00   0.0000000000000000e+00   0.0000000000000000e+00   0.0000000000000000e+00   0.0000000000000000e+00   0.0000000000000000e+00   0.0000000000000000e+00   0.0000000000000000e+00   0.0000000000000000e+00   0.0000000000000000e+00   0.0000000000000000e+00   0.0000000000000000e+00   0.0000000000000000e+00   0.0000000000000000e+00   0.0000000000000000e+00   0.0000000000000000e+00   0.0000000000000000e+00   0.0000000000000000e+00   0.0000000000000000e+00   0.0000000000000000e+00   0.0000000000000000e+00   0.0000000000000000e+00   0.0000000000000000e+00   0.0000000000000000e+00   0.0000000000000000e+00   0.0000000000000000e+00   0.0000000000000000e+00   2.3289665782720339e+06   3.0623364779347245e+01   1.3205734826513070e+06   1.3302011397375693e+06   1.8436316426873438e+06   2.1273139691763786e+06   0.0000000000000000e+00   6.4601670947018397e+02   0.0000000000000000e+00   0.0000000000000000e+00   0.0000000000000000e+00   0.0000000000000000e+00   0.0000000000000000e+00   0.0000000000000000e+00   0.0000000000000000e+00   0.0000000000000000e+00   0.0000000000000000e+00   0.0000000000000000e+00   0.0000000000000000e+00   0.0000000000000000e+00   0.0000000000000000e+00   0.0000000000000000e+00   2.5150049338897998e-09   0.0000000000000000e+00   4.8509665943287936e-08   0.0000000000000000e+00   1.5570286943507615e-07   0.0000000000000000e+00   6.0976117766140380e-05   8.1391971635870741e-01   7.2790202891637839e+05   8.2210986170876212e+05   1.2404917713531884e+06   3.5916242969193868e+05   1.0311664895635942e+06   9.6760535723967722e+05   1.3640104306922827e+06   2.2227654361442300e+06   2.5275530581638319e+06   2.0091252426967535e-10   3.5941971505457568e+06   0.0000000000000000e+00   9.9837243204297061e-07   0.0000000000000000e+00   0.0000000000000000e+00   4.1050068237409880e+06   3.9155004253100753e+06   3.6289690411561267e+06   3.5336628453753707e+06   3.6543139945666827e+06   2.4321195733076027e+06   3.6003320632978440e+06   1.8378345137100792e+06   3.4495783857735223e+06   1.7943435371488899e+06   3.3794083793521235e+06   1.7351710482999913e+06   3.4174593294165651e+06   1.7270967632832611e+06   3.4618162049788390e+06   1.4648196138064303e+06   3.4841741291862596e+06   1.1995572904030459e+06   3.3443885263551469e+06   1.2741439606587566e+06   3.0938886988220224e+06   1.1093994918092343e+06   2.8746649643843044e+06   8.3627091343033721e+05   2.5319274647791074e+06   9.4260845585411985e+05   1.4955199566669969e+06   2.3656080365648143e+02   1.4463442542933905e+06   </DataArray> 
</CellData> 
</Piece>
</UnstructuredGrid>
</VTKFile>