<?xml version="1.0"?>
<VTKFile type="UnstructuredGrid"  version="0.1"  >
<UnstructuredGrid>
<Piece  NumberOfPoints="330" NumberOfCells="589">
<Points>
<DataArray  type="Float64"  NumberOfComponents="3"  format="ascii">2.973913043478261 0 0  3.006956521739131 0 0  3.006956521739131 0.03333333333333333 0  2.973913043478261 0.03333333333333333 0  3.04 0 0  3.04 0.03333333333333333 0  3.073043478260869 0 0  3.073043478260869 0.03333333333333333 0  3.106086956521739 0 0  3.106086956521739 0.03333333333333333 0  3.139130434782609 0 0  3.139130434782609 0.03333333333333333 0  3.172173913043478 0 0  3.172173913043478 0.03333333333333333 0  3.205217391304347 0 0  3.205217391304347 0.03333333333333333 0  3.238260869565217 0 0  3.238260869565217 0.03333333333333333 0  3.271304347826087 0 0  3.271304347826087 0.03333333333333333 0  3.304347826086957 0 0  3.304347826086957 0.03333333333333333 0  3.337391304347826 0 0  3.337391304347826 0.03333333333333333 0  3.370434782608696 0 0  3.370434782608696 0.03333333333333333 0  3.403478260869565 0 0  3.403478260869565 0.03333333333333333 0  3.436521739130435 0 0  3.436521739130435 0.03333333333333333 0  3.469565217391304 0 0  3.469565217391304 0.03333333333333333 0  3.502608695652174 0 0  3.502608695652174 0.03333333333333333 0  3.535652173913043 0 0  3.535652173913043 0.03333333333333333 0  3.568695652173913 0 0  3.568695652173913 0.03333333333333333 0  3.601739130434782 0 0  3.601739130434782 0.03333333333333333 0  3.634782608695652 0 0  3.634782608695652 0.03333333333333333 0  3.667826086956521 0 0  3.667826086956521 0.03333333333333333 0  3.700869565217391 0 0  3.700869565217391 0.03333333333333333 0  3.733913043478261 0 0  3.733913043478261 0.03333333333333333 0  3.766956521739131 0 0  3.766956521739131 0.03333333333333333 0  3.8 0 0  3.8 0.03333333333333333 0  3.006956521739131 0.06666666666666667 0  3.04 0.06666666666666667 0  3.073043478260869 0.06666666666666667 0  3.106086956521739 0.06666666666666667 0  3.139130434782609 0.06666666666666667 0  3.172173913043478 0.06666666666666667 0  3.205217391304347 0.06666666666666667 0  3.238260869565217 0.06666666666666667 0  3.271304347826087 0.06666666666666667 0  3.304347826086957 0.06666666666666667 0  3.337391304347826 0.06666666666666667 0  3.370434782608696 0.06666666666666667 0  3.403478260869565 0.06666666666666667 0  3.436521739130435 0.06666666666666667 0  3.469565217391304 0.06666666666666667 0  3.502608695652174 0.06666666666666667 0  3.535652173913043 0.06666666666666667 0  3.568695652173913 0.06666666666666667 0  3.601739130434782 0.06666666666666667 0  3.634782608695652 0.06666666666666667 0  3.667826086956521 0.06666666666666667 0  3.700869565217391 0.06666666666666667 0  3.733913043478261 0.06666666666666667 0  3.766956521739131 0.06666666666666667 0  3.8 0.06666666666666667 0  3.04 0.1 0  3.073043478260869 0.1 0  3.106086956521739 0.1 0  3.139130434782609 0.1 0  3.172173913043478 0.1 0  3.205217391304347 0.1 0  3.238260869565217 0.1 0  3.271304347826087 0.1 0  3.304347826086957 0.1 0  3.337391304347826 0.1 0  3.370434782608696 0.1 0  3.403478260869565 0.1 0  3.436521739130435 0.1 0  3.469565217391304 0.1 0  3.502608695652174 0.1 0  3.535652173913043 0.1 0  3.568695652173913 0.1 0  3.601739130434782 0.1 0  3.634782608695652 0.1 0  3.667826086956521 0.1 0  3.700869565217391 0.1 0  3.733913043478261 0.1 0  3.766956521739131 0.1 0  3.8 0.1 0  3.073043478260869 0.1333333333333333 0  3.106086956521739 0.1333333333333333 0  3.139130434782609 0.1333333333333333 0  3.172173913043478 0.1333333333333333 0  3.205217391304347 0.1333333333333333 0  3.238260869565217 0.1333333333333333 0  3.271304347826087 0.1333333333333333 0  3.304347826086957 0.1333333333333333 0  3.337391304347826 0.1333333333333333 0  3.370434782608696 0.1333333333333333 0  3.403478260869565 0.1333333333333333 0  3.436521739130435 0.1333333333333333 0  3.469565217391304 0.1333333333333333 0  3.502608695652174 0.1333333333333333 0  3.535652173913043 0.1333333333333333 0  3.568695652173913 0.1333333333333333 0  3.601739130434782 0.1333333333333333 0  3.634782608695652 0.1333333333333333 0  3.667826086956521 0.1333333333333333 0  3.700869565217391 0.1333333333333333 0  3.733913043478261 0.1333333333333333 0  3.766956521739131 0.1333333333333333 0  3.8 0.1333333333333333 0  3.106086956521739 0.1666666666666667 0  3.139130434782609 0.1666666666666667 0  3.172173913043478 0.1666666666666667 0  3.205217391304347 0.1666666666666667 0  3.238260869565217 0.1666666666666667 0  3.271304347826087 0.1666666666666667 0  3.304347826086957 0.1666666666666667 0  3.337391304347826 0.1666666666666667 0  3.370434782608696 0.1666666666666667 0  3.403478260869565 0.1666666666666667 0  3.436521739130435 0.1666666666666667 0  3.469565217391304 0.1666666666666667 0  3.502608695652174 0.1666666666666667 0  3.535652173913043 0.1666666666666667 0  3.568695652173913 0.1666666666666667 0  3.601739130434782 0.1666666666666667 0  3.634782608695652 0.1666666666666667 0  3.667826086956521 0.1666666666666667 0  3.700869565217391 0.1666666666666667 0  3.733913043478261 0.1666666666666667 0  3.766956521739131 0.1666666666666667 0  3.8 0.1666666666666667 0  3.139130434782609 0.2 0  3.106086956521739 0.2 0  3.172173913043478 0.2 0  3.205217391304347 0.2 0  3.238260869565217 0.2 0  3.271304347826087 0.2 0  3.304347826086957 0.2 0  3.337391304347826 0.2 0  3.370434782608696 0.2 0  3.403478260869565 0.2 0  3.436521739130435 0.2 0  3.469565217391304 0.2 0  3.502608695652174 0.2 0  3.535652173913043 0.2 0  3.568695652173913 0.2 0  3.601739130434782 0.2 0  3.634782608695652 0.2 0  3.667826086956521 0.2 0  3.700869565217391 0.2 0  3.733913043478261 0.2 0  3.766956521739131 0.2 0  3.8 0.2 0  3.139130434782609 0.2333333333333333 0  3.172173913043478 0.2333333333333333 0  3.205217391304347 0.2333333333333333 0  3.238260869565217 0.2333333333333333 0  3.271304347826087 0.2333333333333333 0  3.304347826086957 0.2333333333333333 0  3.337391304347826 0.2333333333333333 0  3.370434782608696 0.2333333333333333 0  3.403478260869565 0.2333333333333333 0  3.436521739130435 0.2333333333333333 0  3.469565217391304 0.2333333333333333 0  3.502608695652174 0.2333333333333333 0  3.535652173913043 0.2333333333333333 0  3.568695652173913 0.2333333333333333 0  3.601739130434782 0.2333333333333333 0  3.634782608695652 0.2333333333333333 0  3.667826086956521 0.2333333333333333 0  3.700869565217391 0.2333333333333333 0  3.733913043478261 0.2333333333333333 0  3.766956521739131 0.2333333333333333 0  3.8 0.2333333333333333 0  3.172173913043478 0.2666666666666667 0  3.205217391304347 0.2666666666666667 0  3.238260869565217 0.2666666666666667 0  3.271304347826087 0.2666666666666667 0  3.304347826086957 0.2666666666666667 0  3.337391304347826 0.2666666666666667 0  3.370434782608696 0.2666666666666667 0  3.403478260869565 0.2666666666666667 0  3.436521739130435 0.2666666666666667 0  3.469565217391304 0.2666666666666667 0  3.502608695652174 0.2666666666666667 0  3.535652173913043 0.2666666666666667 0  3.568695652173913 0.2666666666666667 0  3.601739130434782 0.2666666666666667 0  3.634782608695652 0.2666666666666667 0  3.667826086956521 0.2666666666666667 0  3.700869565217391 0.2666666666666667 0  3.733913043478261 0.2666666666666667 0  3.766956521739131 0.2666666666666667 0  3.8 0.2666666666666667 0  3.205217391304347 0.3 0  3.238260869565217 0.3 0  3.271304347826087 0.3 0  3.304347826086957 0.3 0  3.337391304347826 0.3 0  3.370434782608696 0.3 0  3.403478260869565 0.3 0  3.436521739130435 0.3 0  3.469565217391304 0.3 0  3.502608695652174 0.3 0  3.535652173913043 0.3 0  3.568695652173913 0.3 0  3.601739130434782 0.3 0  3.634782608695652 0.3 0  3.667826086956521 0.3 0  3.700869565217391 0.3 0  3.733913043478261 0.3 0  3.766956521739131 0.3 0  3.8 0.3 0  3.238260869565217 0.3333333333333333 0  3.271304347826087 0.3333333333333333 0  3.304347826086957 0.3333333333333333 0  3.337391304347826 0.3333333333333333 0  3.370434782608696 0.3333333333333333 0  3.403478260869565 0.3333333333333333 0  3.436521739130435 0.3333333333333333 0  3.469565217391304 0.3333333333333333 0  3.502608695652174 0.3333333333333333 0  3.535652173913043 0.3333333333333333 0  3.568695652173913 0.3333333333333333 0  3.601739130434782 0.3333333333333333 0  3.634782608695652 0.3333333333333333 0  3.667826086956521 0.3333333333333333 0  3.700869565217391 0.3333333333333333 0  3.733913043478261 0.3333333333333333 0  3.766956521739131 0.3333333333333333 0  3.8 0.3333333333333333 0  3.271304347826087 0.3666666666666666 0  3.238260869565217 0.3666666666666666 0  3.304347826086957 0.3666666666666666 0  3.337391304347826 0.3666666666666666 0  3.370434782608696 0.3666666666666666 0  3.403478260869565 0.3666666666666666 0  3.436521739130435 0.3666666666666666 0  3.469565217391304 0.3666666666666666 0  3.502608695652174 0.3666666666666666 0  3.535652173913043 0.3666666666666666 0  3.568695652173913 0.3666666666666666 0  3.601739130434782 0.3666666666666666 0  3.634782608695652 0.3666666666666666 0  3.667826086956521 0.3666666666666666 0  3.700869565217391 0.3666666666666666 0  3.733913043478261 0.3666666666666666 0  3.766956521739131 0.3666666666666666 0  3.8 0.3666666666666666 0  3.271304347826087 0.4 0  3.238260869565217 0.4 0  3.304347826086957 0.4 0  3.337391304347826 0.4 0  3.370434782608696 0.4 0  3.403478260869565 0.4 0  3.436521739130435 0.4 0  3.469565217391304 0.4 0  3.502608695652174 0.4 0  3.535652173913043 0.4 0  3.568695652173913 0.4 0  3.601739130434782 0.4 0  3.634782608695652 0.4 0  3.667826086956521 0.4 0  3.700869565217391 0.4 0  3.733913043478261 0.4 0  3.766956521739131 0.4 0  3.8 0.4 0  3.271304347826087 0.4333333333333333 0  3.304347826086957 0.4333333333333333 0  3.337391304347826 0.4333333333333333 0  3.370434782608696 0.4333333333333333 0  3.403478260869565 0.4333333333333333 0  3.436521739130435 0.4333333333333333 0  3.469565217391304 0.4333333333333333 0  3.502608695652174 0.4333333333333333 0  3.535652173913043 0.4333333333333333 0  3.5686956521
[...]
<CellData  Scalars="rho"> 
<DataArray  type="Float64"  Name="rho"  format="ascii">8.2979813164508365e-01   5.1742493022224578e-01   6.1499433085835431e-01   5.4419094600421658e-01   5.8357992484588983e-01   5.6828776963516803e-01   4.3940525982230677e-01   5.2899856820889679e-01   5.3473078602417945e-01   4.9647839068949284e-01   4.4088079033030880e-01   4.8913213980841291e-01   1.2412196683386569e-01   4.1690055317809849e-01   8.2501439327574658e-02   1.1224353212012600e-01   3.8915719498389192e-02   6.5161506750309017e-02   2.0421313441829219e-02   2.6955603701696803e-02   1.0544490141891178e-02   1.3588412561247860e-02   5.5517814420700867e-03   7.1609508270512367e-03   2.8319534814567017e-03   3.6856227519082726e-03   1.3414213248226531e-03   1.7656691103634171e-03   2.3288078641201605e-04   3.0202008725510989e-04   1.1470257177769667e-04   1.4585999941599460e-04   5.8822580637203649e-05   7.3377082674119746e-05   3.3270103723695809e-05   4.1128520625659246e-05   1.8206637667578122e-05   2.2711446840907798e-05   1.0790104216948988e-05   1.3661486902361828e-05   3.6745654674596101e-07   7.9944079864087256e-06   2.4541753124830329e-07   3.0437980957420472e-07   1.6749675581976269e-07   2.0489976382136732e-07   1.2363518449282477e-07   1.4572825521326992e-07   1.0239621088923910e-06   1.1219621269774212e-06   4.0825112646400957e-01   4.4535009799543257e-01   3.9178246852272580e-01   4.4906025812102635e-01   4.5467399844344675e-01   4.1652099540180887e-01   4.2721826199404178e-01   4.7281784883498085e-01   4.3577432060626287e-01   5.7020688434865852e-01   5.6803043050023849e-01   6.9944104407144547e-01   7.8565579250796125e-01   2.6597785775383270e-01   9.7645741711721712e-01   1.0533711581111534e-01   1.9190596516917105e-01   2.4550258993402397e-02   5.2522154356522209e-02   1.3006582646674607e-02   1.7957366983963708e-02   6.7662076675290500e-03   9.5301824270372874e-03   3.2884308734944931e-03   4.7345166575850674e-03   5.4600054774810072e-04   7.8326145907356610e-04   2.5520978048054440e-04   3.5232091451390627e-04   1.2754078390681743e-04   1.6756066252003249e-04   6.9633522406232492e-05   8.9870027508836495e-05   3.9330719506112979e-05   1.8078638227635501e-05   2.4373024343871362e-05   3.3575466002914713e-05   1.4588777277243313e-05   2.0795509009721183e-05   5.3503548199308718e-07   7.5212742423212909e-07   3.5368784798054737e-07   4.9484281868104076e-07   2.3949378566289302e-07   3.2931958828000339e-07   1.4415113968830690e-06   1.9703591013645642e-06   1.4571433633850809e-06   1.7444930609570471e-06   4.4669515603511412e-01   4.6569320758194355e-01   4.8716266063924879e-01   4.1587318132193141e-01   4.4166078275767018e-01   3.4152809559835001e-01   3.7724704489542293e-01   6.3128110813853489e-01   4.0722063446143431e-01   1.0000000000000000e+00   9.8354830185717590e-01   1.0000000000000000e+00   1.0000000000000000e+00   7.1686740822388939e-01   1.0000000000000000e+00   9.4621388271689352e-02   4.1214892919759999e-01   1.9568259874196598e-02   3.1532298388321410e-02   1.0205130040169583e-02   1.5274545362907593e-02   1.7336171772778023e-03   2.7340647187368999e-03   6.9945989936568808e-04   1.0608297770018113e-03   3.0478508645514737e-04   4.1459086777453723e-04   9.7364176533395349e-05   1.0859918164172691e-04   2.6156775848679693e-05   1.8679943962840831e-05   1.4081079200165086e-05   1.5034663506290477e-05   4.3515590568485525e-05   6.3907843934665406e-05   1.5491186379890034e-06   3.9832491254998832e-05   1.0139609213048988e-06   1.4863847150935317e-06   6.6069896853703980e-07   9.6272523715717001e-07   4.4183760096761970e-07   6.3206204272060503e-07   2.9104541741506841e-06   4.0043406696081188e-06   2.8069123068704512e-07   3.5773256501603015e-07   5.6469665585628981e-01   4.1558175917845780e-01   4.7830830626506632e-01   2.5753150217800441e-01   3.2621317900392272e-01   1.4183580574438200e-02   1.4024369486629819e-03   9.5441925829075103e-01   1.4304649295746930e-02   9.9994379085295093e-01   9.9776500834154502e-01   9.9996959034262067e-01   9.9970037895792574e-01   9.8066687193632052e-01   9.9979117079122903e-01   8.9377280188048316e-02   9.0440916604511556e-01   9.5725911314683849e-03   3.2596727610686264e-02   2.3537321270001351e-03   4.0155035532895653e-03   6.8928824330202656e-04   1.1719175490067883e-03   1.2599063689943180e-04   7.1096077573253144e-05   1.3630159677731522e-05   1.9018026132842801e-05   1.0104355059286800e-05   1.4457652260916501e-05   2.0223324879069846e-05   2.6679361003608280e-05   9.0735809331965992e-05   1.3827123886351030e-04   3.2035642001266444e-06   4.7603130843274922e-06   2.0608776451876984e-06   3.0587672065102256e-06   1.3229389694953812e-06   1.9486683213834783e-06   1.4389958734512529e-05   2.2940986023729826e-05   2.3739055362234219e-06   4.2316572719907865e-06   1.6926275833100178e-06   3.1189476635836452e-06   4.0012927420546879e-01   1.5632278268001659e-02   9.1782694802934287e-02   4.0194352526070568e-03   3.0126573137263012e-03   4.4489087186140664e-03   1.6625086291204760e-03   2.9726498300474574e-01   3.0408911799021388e-03   9.9543207548733303e-01   4.7363966687501557e-01   1.0000000000000000e+00   9.9976822449445757e-01   1.0000000000000000e+00   1.0000000000000000e+00   4.7667430116761977e-01   1.0000000000000000e+00   2.4288604642530489e-03   1.3849880799710051e-01   4.8467615648572495e-05   6.6022249705420579e-05   3.7769218185022563e-05   5.1305477142589407e-05   2.9889190589660263e-05   4.1816640161252398e-05   2.2388994114740102e-05   3.2432327919047321e-05   3.1962910423320983e-04   4.9246498925189890e-04   1.0411656240960013e-05   3.8131437953763978e-05   6.6834151232110308e-06   9.9972354106579194e-06   4.2188668435656152e-06   6.2867754122715899e-06   5.3589148223480681e-05   3.0874678474229377e-05   3.4132262164435395e-05   2.5359318961026140e-06   2.4114829896699908e-05   3.2847714227844130e-05   8.2267890472523382e-06   2.7935586824099079e-05   9.5617819022671968e-03   9.1138843769341202e-03   2.1035233175227355e-03   1.5799062905576119e-03   1.3936686514874794e-03   8.4333189069033204e-04   2.4450593923890044e-03   1.8318189652473448e-03   3.5527952506105277e-02   3.6110922773300792e-03   7.0492817754452897e-01   3.4629473458369564e-01   1.0000000000000000e+00   1.0000000000000000e+00   1.0000000000000000e+00   1.0000000000000000e+00   8.1358583636971027e-01   9.9924258914665476e-01   9.5237595728506466e-05   6.1689759016418200e-01   8.3034370598138079e-05   1.0940666004640907e-04   6.8193064959283628e-05   9.5869716819066249e-05   1.1249111219661173e-03   7.4332216918090917e-05   7.7791745197280460e-04   1.2698633423170824e-03   2.2047526008481131e-05   7.9041885289606072e-05   1.3798840260885328e-05   2.0698272406145971e-05   8.5575310062542427e-06   1.2755824700928070e-05   9.5209093057906869e-05   2.3591606614123128e-05   6.1821429542774589e-05   8.2841542827351132e-05   5.0524769931254900e-05   6.6566153434100982e-05   4.8315094327309744e-05   6.2170320528480734e-05   3.6599829359256941e-03   8.0507875668822876e-04   2.3943559813552600e-03   7.6397266535484449e-04   2.3900201454379649e-04   1.6241878717249442e-03   1.0286337975959866e-03   3.5176279467381416e-03   2.1510867331203365e-03   2.8858325571575243e-02   1.2321646664190397e-02   5.6725339794661622e-01   2.1145434971101737e-01   1.0000000000000000e+00   7.5505557577581139e-01   9.9902171017732799e-01   9.9984462631144866e-01   9.1965680730142108e-01   9.9709288613855351e-01   1.8267655422364495e-04   8.1472125481706370e-01   1.5903733957581609e-04   2.1944167019826647e-04   3.1527000706781739e-03   5.1102697401184827e-03   5.5244122906646261e-04   1.5451512011676945e-03   4.5798125829079196e-05   6.9288018491049761e-05   2.7997912324596325e-05   4.1925818074646669e-05   3.3108638487886614e-05   2.5469658771966529e-05   1.5532128734549019e-04   1.5673418642540489e-05   1.2126303955462995e-04   3.8618139102860515e-04   1.0935599909639856e-04   2.6830932166664958e-04   1.7015999481268971e-04   2.1801801682951705e-04   1.5223894651317252e-04   3.4677823329194057e-04   7.8243129398952046e-05   8.3613182318462945e-04   4.6177176168651473e-04   1.8361550472536870e-03   1.0818084125753121e-03   8.7141434938742702e-03   1.5762900468299578e-03   2.5118011543699848e-02   1.1022998829548438e-02   3.9690789948252858e-01   3.3761265395543860e-02   9.9898114728074938e-01   4.7800505289159206e-01   9.9861822126599087e-01   9.9881755259250615e-01   9.9858691154588841e-01   9.9946536595393176e-01   5.1349588507991406e-01   9.5084192215416141e-01   5.0953140425724778e-03   1.2909738881597760e-01   7.7322362050577943e-04   3.0573893744400863e-03   9.2450175325532125e-05   1.3906027090358856e-04   5.5696072401003605e-05   8.2733291888540081e-05   3.3850384216037420e-05   5.0149777138473877e-05   8.0066387993754011e-04   1.1501652906360503e-03   5.2277435833249729e-04   7.4352394447458280e-04   3.8572813588044530e-04   5.3654307689531954e-04   3.5616396118593217e-04   4.5499072081962882e-04   1.7268133022530834e-05   3.2544524293027393e-04   1.2777883298012305e-05   6.8086250428458139e-04   3.3422168623852276e-04   4.5277312317008886e-03   2.1272247545834184e-03   6.9162357626395676e-03   3.2544011988052380e-03   2.4985843562357363e-02   7.3893913729642753e-03   1.7490830340691094e-01   3.3414845351594835e-02   9.5721937572762361e-01   3.0611923447282796e-01   1.0000000000000000e+00   1.0000000000000000e+00   1.0000000000000000e+00   1.0000000000000000e+00   8.0917769399539075e-01   1.0000000000000000e+00   2.9464857953943218e-04   5.8171656422998719e-01   1.7911839325523271e-04   2.5343968622700257e-04   1.0895048937809137e-04   1.5873451244531920e-04   5.2319343460934117e-04   9.8127269045814548e-05   6.7714270946705101e-04   9.8154791347515851e-04   1.0309308580169541e-03   1.4848038905489116e-03   7.9685071164902464e-04   1.2005046116163867e-03   7.6386202070924901e-04   9.7086850011773656e-04   1.0145444341170402e-05   1.3546841701315978e-05   1.1117881375821238e-05   2.0907158280940484e-04   6.0070390665297461e-05   1.6264077109926973e-03   2.0719039279338807e-04   4.4407682033713826e-03   1.9806010661928405e-03   1.3507858097268174e-02   7.0542414253766481e-03   9.8963758522240861e-02   2.4157087327672907e-02   5.5740481413586218e-01   2.3132158523367866e-01   1.0000000000000000e+00   5.9746097437613899e-01   9.9003856900628040e-01   1.0000000000000000e+00   9.9706717240320786e-01   9.5143795453797486e-01   9.0804056623715079e-01   9.9790385225122225e-01   2.0937220385742450e-04   8.1291147679031106e-01   2.1980289921385019e-03   3.3012894906672258e-03   3.1236364328221448e-03   5.0775656408051668e-03   2.2727160012655165e-03   2.9830860827446144e-03   1.6729620227220860e-03   2.1609542629087235e-03   1.7406486310646548e-03   2.1912932338302243e-03   1.2136356778197843e-05   1.1923898493035953e-05   8.0576306646297868e-05   3.2970302307334552e-05   1.7350016332602796e-04   1.0461115343871111e-04   1.4003921378839671e-03   2.3698914964577622e-04   2.6640339886339205e-03   2.1003413850124602e-03   1.7912633256021784e-02   4.7397507882420697e-03   6.8890321526271808e-02   2.1563319355994100e-02   3.0619074587500705e-01   1.6629877585844666e-01   6.3654293049523181e-01   3.1768165363218820e-01   1.0000000000000000e+00   9.2873905413543512e-01   1.0000000000000000e+00   1.0000000000000000e+00   8.2725142402660434e-01   1.0000000000000000e+00   5.6029421909932642e-01   6.8571945942565549e-01   7.0092324552329388e-03   1.1581167166506215e-02   4.2843725112461147e-03   6.0154447223857354e-03   3.6728485580777106e-03   4.2881788140736688e-03   3.3383417890054923e-03   4.1145861740445747e-03   1.7310474120418895e-05   2.0058803139180168e-05   2.1186893007625420e-05   2.3113645641871981e-05   2.8434899117134020e-05   2.8426783548068495e-05   1.0690006828663296e-04   3.8150043359146669e-05   8.6492897672128214e-04   1.5120012587550304e-04   3.5396377977680716e-03   1.6425570551669173e-03   1.0978894469853433e-02   2.9247957056811190e-03   2.2345802350062886e-02   1.1494590983751577e-02   1.8379719438760433e-01   3.6153903751327314e-02   3.6461367699645492e-01   1.8315843754238115e-01   8.8405172745554206e-01   4.5986756445988247e-01   1.0000000000000000e+00   8.9897063068853444e-01   6.2464719075262043e-01   6.1521436105722893e-01   8.1057907452420697e-02   4.5085729917199940e-01   5.3250283029585054e-03   7.5801882119034087e-03   6.2243304248187359e-03   3.0309198403027020e-03   9.8195261658902151e-03   1.8938518379451832e-02   3.4052190159146071e-05   3.7778692586537034e-05   4.5967599096459740e-05   4.3519437466967451e-05   5.0943250287964972e-05   5.3180647378244777e-05   5.8556859353083010e-05   7.0075649004726868e-05   7.1230070850298848e-05   6.8386546978722710e-04   9.2664016183518954e-05   9.2210090324132800e-04   8.1599496730115075e-04   2.1121966060523596e-03   1.3840550108561959e-03   4.7029111978021407e-03   1.3675972660255810e-03   6.9691080465247732e-02   7.3738960137984706e-03   1.9357753762547755e-01   8.2103789621849138e-02   4.8196681985347001e-01   3.4838674195685576e-01   4.8407307640127822e-01   4.4368263961701682e-01   3.5087893494863531e-01   4.1356373810651587e-01   4.1094506745922426e-04   2.2146336249986942e-01   3.3067962832658206e-02   2.3905114607756812e-02   4.1773681865238249e-02   5.3514991865521465e-02   5.6594850503827448e-04   3.2115817661613512e-04   4.6665285079069307e-01   8.5141947363989547e-05   4.2497450033780182e-01   9.8141796210003535e-05   4.2133762775190731e-01   5.7749665959094213e-04   4.1936843826590187e-01   1.5935274694900017e-03   4.4124354199998583e-01   2.0189671062140098e-03   4.0366287215416424e-01   2.6063450900585636e-02   3.7438188985251880e-01   3.8186371956294464e-02   3.1713436982813764e-01   1.6459369991666722e-01   3.1143455403163822e-01   3.5044946483647227e-01   3.8122812331962802e-01   4.6653640944493197e-01   4.8932463546065197e-01   4.4874060552127648e-01   5.6700906876728285e-01   3.7960072010228629e-01   5.1198919726721748e-01   2.4620752571715218e-01   4.7252835172607344e-01   1.2447268307099559e-01   2.7992427630861422e-01   9.8064875579994992e-01   9.8022199608236549e-01   9.8886306738748886e-01   9.7972484067933574e-01   9.8678359394180437e-01   9.8514428027171608e-01   9.9050186328828171e-01   9.7406691950895463e-01   9.9178810096109149e-01   8.8635421251115465e-01   9.9420033030642629e-01   7.0808838814464758e-01   9.8948679279540619e-01   5.9801088266330660e-01   8.4412186911882081e-01   5.7249869315864677e-01   6.9550799771730276e-01   6.1866902988998118e-01   7.1378996958784635e-01   7.4341045834565611e-01   7.5271105973353036e-01   8.1772827511265955e-01   9.2455756911122366e-01   7.0077223089318141e-01   8.6468804213327821e-01   6.7199846878004921e-01   9.0380761963675704e-01   6.1732889464597240e-01   8.5396312002750441e-01   </DataArray> 
</CellData> 
</Piece>
</UnstructuredGrid>
</VTKFile>