<?xml version="1.0"?>
<VTKFile type="UnstructuredGrid"  version="0.1"  >
<UnstructuredGrid>
<Piece  NumberOfPoints="323" NumberOfCells="575">
<Points>
<DataArray  type="Float64"  NumberOfComponents="3"  format="ascii">0.3965217391304348 0 0  0.4295652173913043 0 0  0.4295652173913043 0.03333333333333333 0  0.4626086956521739 0 0  0.4626086956521739 0.03333333333333333 0  0.4956521739130435 0 0  0.4956521739130435 0.03333333333333333 0  0.528695652173913 0 0  0.528695652173913 0.03333333333333333 0  0.5617391304347825 0 0  0.5617391304347825 0.03333333333333333 0  0.5947826086956521 0 0  0.5947826086956521 0.03333333333333333 0  0.6278260869565218 0 0  0.6278260869565218 0.03333333333333333 0  0.6608695652173913 0 0  0.6608695652173913 0.03333333333333333 0  0.6939130434782609 0 0  0.6939130434782609 0.03333333333333333 0  0.7269565217391304 0 0  0.7269565217391304 0.03333333333333333 0  0.7599999999999999 0 0  0.7599999999999999 0.03333333333333333 0  0.7930434782608695 0 0  0.7930434782608695 0.03333333333333333 0  0.8260869565217391 0 0  0.8260869565217391 0.03333333333333333 0  0.8591304347826086 0 0  0.8591304347826086 0.03333333333333333 0  0.8921739130434783 0 0  0.8921739130434783 0.03333333333333333 0  0.9252173913043478 0 0  0.9252173913043478 0.03333333333333333 0  0.9582608695652173 0 0  0.9582608695652173 0.03333333333333333 0  0.991304347826087 0 0  0.991304347826087 0.03333333333333333 0  1.024347826086957 0 0  1.024347826086957 0.03333333333333333 0  1.057391304347826 0 0  1.057391304347826 0.03333333333333333 0  1.090434782608696 0.03333333333333333 0  0.4626086956521739 0.06666666666666667 0  0.4956521739130435 0.06666666666666667 0  0.528695652173913 0.06666666666666667 0  0.5617391304347825 0.06666666666666667 0  0.5947826086956521 0.06666666666666667 0  0.6278260869565218 0.06666666666666667 0  0.6608695652173913 0.06666666666666667 0  0.6939130434782609 0.06666666666666667 0  0.7269565217391304 0.06666666666666667 0  0.7599999999999999 0.06666666666666667 0  0.7930434782608695 0.06666666666666667 0  0.8260869565217391 0.06666666666666667 0  0.8591304347826086 0.06666666666666667 0  0.8921739130434783 0.06666666666666667 0  0.9252173913043478 0.06666666666666667 0  0.9582608695652173 0.06666666666666667 0  0.991304347826087 0.06666666666666667 0  1.024347826086957 0.06666666666666667 0  1.057391304347826 0.06666666666666667 0  1.090434782608696 0.06666666666666667 0  1.123478260869565 0.06666666666666667 0  0.4956521739130435 0.1 0  0.528695652173913 0.1 0  0.5617391304347825 0.1 0  0.5947826086956521 0.1 0  0.6278260869565218 0.1 0  0.6608695652173913 0.1 0  0.6939130434782609 0.1 0  0.7269565217391304 0.1 0  0.7599999999999999 0.1 0  0.7930434782608695 0.1 0  0.8260869565217391 0.1 0  0.8591304347826086 0.1 0  0.8921739130434783 0.1 0  0.9252173913043478 0.1 0  0.9582608695652173 0.1 0  0.991304347826087 0.1 0  1.024347826086957 0.1 0  1.057391304347826 0.1 0  1.090434782608696 0.1 0  1.123478260869565 0.1 0  0.528695652173913 0.1333333333333333 0  0.5617391304347825 0.1333333333333333 0  0.5947826086956521 0.1333333333333333 0  0.6278260869565218 0.1333333333333333 0  0.6608695652173913 0.1333333333333333 0  0.6939130434782609 0.1333333333333333 0  0.7269565217391304 0.1333333333333333 0  0.7599999999999999 0.1333333333333333 0  0.7930434782608695 0.1333333333333333 0  0.8260869565217391 0.1333333333333333 0  0.8591304347826086 0.1333333333333333 0  0.8921739130434783 0.1333333333333333 0  0.9252173913043478 0.1333333333333333 0  0.9582608695652173 0.1333333333333333 0  0.991304347826087 0.1333333333333333 0  1.024347826086957 0.1333333333333333 0  1.057391304347826 0.1333333333333333 0  1.090434782608696 0.1333333333333333 0  1.123478260869565 0.1333333333333333 0  1.156521739130435 0.1333333333333333 0  0.5617391304347825 0.1666666666666667 0  0.5947826086956521 0.1666666666666667 0  0.6278260869565218 0.1666666666666667 0  0.6608695652173913 0.1666666666666667 0  0.6939130434782609 0.1666666666666667 0  0.7269565217391304 0.1666666666666667 0  0.7599999999999999 0.1666666666666667 0  0.7930434782608695 0.1666666666666667 0  0.8260869565217391 0.1666666666666667 0  0.8591304347826086 0.1666666666666667 0  0.8921739130434783 0.1666666666666667 0  0.9252173913043478 0.1666666666666667 0  0.9582608695652173 0.1666666666666667 0  0.991304347826087 0.1666666666666667 0  1.024347826086957 0.1666666666666667 0  1.057391304347826 0.1666666666666667 0  1.090434782608696 0.1666666666666667 0  1.123478260869565 0.1666666666666667 0  1.156521739130435 0.1666666666666667 0  1.189565217391304 0.1666666666666667 0  0.5947826086956521 0.2 0  0.6278260869565218 0.2 0  0.6608695652173913 0.2 0  0.6939130434782609 0.2 0  0.7269565217391304 0.2 0  0.7599999999999999 0.2 0  0.7930434782608695 0.2 0  0.8260869565217391 0.2 0  0.8591304347826086 0.2 0  0.8921739130434783 0.2 0  0.9252173913043478 0.2 0  0.9582608695652173 0.2 0  0.991304347826087 0.2 0  1.024347826086957 0.2 0  1.057391304347826 0.2 0  1.090434782608696 0.2 0  1.123478260869565 0.2 0  1.156521739130435 0.2 0  1.189565217391304 0.2 0  1.222608695652174 0.2 0  0.6278260869565218 0.2333333333333333 0  0.6608695652173913 0.2333333333333333 0  0.6939130434782609 0.2333333333333333 0  0.7269565217391304 0.2333333333333333 0  0.7599999999999999 0.2333333333333333 0  0.7930434782608695 0.2333333333333333 0  0.8260869565217391 0.2333333333333333 0  0.8591304347826086 0.2333333333333333 0  0.8921739130434783 0.2333333333333333 0  0.9252173913043478 0.2333333333333333 0  0.9582608695652173 0.2333333333333333 0  0.991304347826087 0.2333333333333333 0  1.024347826086957 0.2333333333333333 0  1.057391304347826 0.2333333333333333 0  1.090434782608696 0.2333333333333333 0  1.123478260869565 0.2333333333333333 0  1.156521739130435 0.2333333333333333 0  1.189565217391304 0.2333333333333333 0  1.222608695652174 0.2333333333333333 0  1.255652173913044 0.2333333333333333 0  0.6608695652173913 0.2666666666666667 0  0.6939130434782609 0.2666666666666667 0  0.7269565217391304 0.2666666666666667 0  0.7599999999999999 0.2666666666666667 0  0.7930434782608695 0.2666666666666667 0  0.8260869565217391 0.2666666666666667 0  0.8591304347826086 0.2666666666666667 0  0.8921739130434783 0.2666666666666667 0  0.9252173913043478 0.2666666666666667 0  0.9582608695652173 0.2666666666666667 0  0.991304347826087 0.2666666666666667 0  1.024347826086957 0.2666666666666667 0  1.057391304347826 0.2666666666666667 0  1.090434782608696 0.2666666666666667 0  1.123478260869565 0.2666666666666667 0  1.156521739130435 0.2666666666666667 0  1.189565217391304 0.2666666666666667 0  1.222608695652174 0.2666666666666667 0  1.255652173913044 0.2666666666666667 0  1.288695652173913 0.2666666666666667 0  0.6939130434782609 0.3 0  0.7269565217391304 0.3 0  0.7599999999999999 0.3 0  0.7930434782608695 0.3 0  0.8260869565217391 0.3 0  0.8591304347826086 0.3 0  0.8921739130434783 0.3 0  0.9252173913043478 0.3 0  0.9582608695652173 0.3 0  0.991304347826087 0.3 0  1.024347826086957 0.3 0  1.057391304347826 0.3 0  1.090434782608696 0.3 0  1.123478260869565 0.3 0  1.156521739130435 0.3 0  1.189565217391304 0.3 0  1.222608695652174 0.3 0  1.255652173913044 0.3 0  1.288695652173913 0.3 0  1.321739130434783 0.3 0  0.7269565217391304 0.3333333333333333 0  0.7599999999999999 0.3333333333333333 0  0.7930434782608695 0.3333333333333333 0  0.8260869565217391 0.3333333333333333 0  0.8591304347826086 0.3333333333333333 0  0.8921739130434783 0.3333333333333333 0  0.9252173913043478 0.3333333333333333 0  0.9582608695652173 0.3333333333333333 0  0.991304347826087 0.3333333333333333 0  1.024347826086957 0.3333333333333333 0  1.057391304347826 0.3333333333333333 0  1.090434782608696 0.3333333333333333 0  1.123478260869565 0.3333333333333333 0  1.156521739130435 0.3333333333333333 0  1.189565217391304 0.3333333333333333 0  1.222608695652174 0.3333333333333333 0  1.255652173913044 0.3333333333333333 0  1.288695652173913 0.3333333333333333 0  1.321739130434783 0.3333333333333333 0  1.354782608695652 0.3333333333333333 0  0.7599999999999999 0.3666666666666666 0  0.7930434782608695 0.3666666666666666 0  0.8260869565217391 0.3666666666666666 0  0.8591304347826086 0.3666666666666666 0  0.8921739130434783 0.3666666666666666 0  0.9252173913043478 0.3666666666666666 0  0.9582608695652173 0.3666666666666666 0  0.991304347826087 0.3666666666666666 0  1.024347826086957 0.3666666666666666 0  1.057391304347826 0.3666666666666666 0  1.090434782608696 0.3666666666666666 0  1.123478260869565 0.3666666666666666 0  1.156521739130435 0.3666666666666666 0  1.189565217391304 0.3666666666666666 0  1.222608695652174 0.3666666666666666 0  1.255652173913044 0.3666666666666666 0  1.288695652173913 0.3666666666666666 0  1.321739130434783 0.3666666666666666 0  1.354782608695652 0.3666666666666666 0  1.387826086956522 0.3666666666666666 0  0.7930434782608695 0.4 0  0.8260869565217391 0.4 0  0.8591304347826086 0.4 0  0.8921739130434783 0.4 0  0.9252173913043478 0.4 0  0.9582608695652173 0.4 0  0.991304347826087 0.4 0  1.024347826086957 0.4 0  1.057391304347826 0.4 0  1.090434782608696 0.4 0  1.123478260869565 0.4 0  1.156521739130435 0.4 0  1.189565217391304 0.4 0  1.222608695652174 0.4 0  1.255652173913044 0.4 0  1.288695652173913 0.4 0  1.321739130434783 0.4 0  1.354782608695652 0.4 0  1.387826086956522 0.4 0  1.420869565217391 0.4 0  0.8260869565217391 0.4333333333333333 0  0.8591304347826086 0.4333333333333333 0  0.8921739130434783 0.4333333333333333 0  0.9252173913043478 0.4333333333333333 0  0.9582608695652173 0.4333333333333333 0  0.991304347826087 0.4333333333333333 0  1.024347826086957 0.4333333333333333 0  1.057391304347826 0.4333333333333333 0  1.090434782608696 0.4333333333333333 0  1.123478260869565 0.4333333333333333 0  1.156521739130435 0.4333333333333333 0  1.189565217391304 0.4333333333333333 0  1.222608695652174 0.4333333333333333 0  1.255652173913044 0.4333333333333333 0  1.288695652173913 0.4333333333333333 0  1.321739130434783 0.4
[...]
<CellData  Scalars="rho"> 
<DataArray  type="Float64"  Name="rho"  format="ascii">8.9737517815311407e-01   8.7869393591330902e-01   8.6547788187628105e-01   7.2635301596599111e-01   8.0810528697577455e-01   5.5944791557721318e-01   6.5174579708794111e-01   5.6362843724722567e-01   4.1649014502160731e-01   9.3474087766968006e-01   6.4995239561827012e-01   9.4908501016458491e-01   8.7818938765105936e-01   9.7139738995403480e-01   9.4268061748007137e-01   9.6112429614774797e-01   9.2587272449277058e-01   9.4568297848149696e-01   9.1683500354257330e-01   9.3558582368637411e-01   8.9326412998042215e-01   9.3634442349823899e-01   8.9247915293719171e-01   9.3926986070763052e-01   8.8422541282612876e-01   9.3796576801477882e-01   8.7649821136250972e-01   9.4203762745679742e-01   8.8027343019307325e-01   9.3887570240004381e-01   8.7619037928244814e-01   9.3510043863447834e-01   8.7169282228074629e-01   9.3672844519080145e-01   8.7518564162097223e-01   9.4258747430838230e-01   8.8258392481443526e-01   9.4416437017892552e-01   8.8087022216465138e-01   8.8374039223879031e-01   7.9451058476970615e-01   8.8897438833041953e-01   8.8985446672304114e-01   6.7034514460237438e-01   7.5438979544707052e-01   1.9426585992574347e-01   2.2549253257237875e-01   9.4955872612001557e-02   3.0365757126584407e-04   3.0932818391571876e-01   2.5672083067576770e-04   5.6008347381564461e-01   9.8956816532182841e-04   7.3699211379119955e-01   4.0788685530568765e-04   7.6649670146514803e-01   1.1893372145794464e-04   7.2672317284886634e-01   1.0511861317674223e-04   7.3643465379533379e-01   1.2940863353988781e-04   7.4049089732259465e-01   1.8322250188386528e-04   7.8507718055990761e-01   8.7071517356545963e-04   7.9095404341536568e-01   2.0006472401282060e-04   7.8527283171087148e-01   1.1461063005808572e-04   7.7721550396920236e-01   8.9632229930515896e-05   8.1820176354911534e-01   1.0886653404342417e-04   7.7526640841741346e-01   1.6723533211321988e-04   7.6978650761901224e-01   6.8377081649143999e-04   7.4766962636556822e-01   4.9672244195992645e-04   1.3752317882337827e-04   5.1128016346246430e-01   7.9860733979329679e-01   1.0000000000000000e+00   2.3923469312954848e-01   6.0482976968334423e-01   3.2790721939618501e-03   8.9192238009254462e-03   2.1063353628286282e-03   3.6429426598735843e-03   1.3424602993927478e-03   1.8350119589546521e-03   2.3515612488394231e-04   7.6146622684592033e-04   8.9956222389033327e-05   9.0194713049345735e-05   8.1535210892255168e-05   7.0150845154231590e-05   9.8432724513180660e-05   7.1892540557634294e-05   1.2370490783166781e-04   8.7395603066392206e-05   1.8111072804499978e-04   1.3979244959732572e-04   1.0053799172246293e-04   9.0932908264192659e-05   7.1017897965844478e-05   6.3925892157801840e-05   6.2909372508387245e-05   4.9676855378054232e-05   8.1147378783658886e-05   5.5503922136627284e-05   1.1002606911386474e-04   7.4665059549656768e-05   2.2371786947965558e-04   9.9222986340829982e-05   1.1130524490593870e-04   9.7315600739713873e-05   8.4898850684658836e-05   7.1655511097271199e-05   1.0000000000000000e+00   8.7074509737345884e-01   1.0000000000000000e+00   1.1865211357994119e-02   6.4245893644148855e-01   5.6875059866325220e-03   7.5796390043887185e-03   1.8790839959383996e-03   3.1862363471014182e-03   8.1904327248556610e-04   1.1993314655956086e-03   1.2468924898702036e-04   4.0155731308102392e-04   5.3217400696587275e-05   6.3601527985049307e-05   5.0675895336322523e-05   4.3385377770827443e-05   5.4150060519420342e-05   4.2951830336369963e-05   5.3577813896268102e-05   4.2826910503984457e-05   4.3635693196673658e-05   3.8287851614875496e-05   3.4539539697295049e-05   2.9971635449266348e-05   3.1911773321892050e-05   2.5109474956118966e-05   3.6504461507653011e-05   2.7247375617438695e-05   4.6358634274804085e-05   3.2668656051008806e-05   5.4353178006192353e-05   4.0293368753405688e-05   4.6584877851236683e-05   3.7697316402491028e-05   3.8653812824086064e-05   3.1895757125190232e-05   2.8701270537740195e-05   1.0000000000000000e+00   9.9461683970798476e-01   1.0000000000000000e+00   2.9322504705621365e-03   5.8524454172471385e-01   3.7022626084424692e-03   2.5556958449554044e-03   1.7847458624703897e-03   2.5963012577614793e-03   6.1323491075275776e-04   1.8376120209943074e-03   8.0326597043306914e-05   4.7196441515335306e-04   3.3670530800566689e-05   3.6974896159469727e-05   2.8906982139887126e-05   2.7415881804793214e-05   2.5888439929734762e-05   2.3377807263382660e-05   2.1562372943454406e-05   1.9594772931949397e-05   1.7460727922271686e-05   1.6039498024820910e-05   1.6305148561726791e-05   1.3385386897270420e-05   1.7002518589261131e-05   1.3368637747027976e-05   1.9681233909854515e-05   1.4591703887055572e-05   2.0884799511935428e-05   1.5963143208379498e-05   1.9524422539506417e-05   1.5619449713735619e-05   1.7489931468283345e-05   1.4006559382532478e-05   1.7751236530994694e-05   1.3298157578385067e-05   1.4851832330639658e-05   1.0000000000000000e+00   9.9602263258685086e-01   1.0000000000000000e+00   4.9859797872287004e-02   8.7086034991528138e-01   8.7414552450976162e-03   8.6582340854039694e-02   5.6809029150114709e-03   1.3634473663952245e-02   9.4115906058275464e-04   3.8567223366548281e-03   3.4780349599798481e-05   4.4301530821592067e-05   2.5141966064868017e-05   2.9272009742618259e-05   1.9466302460907129e-05   2.2577102515585855e-05   1.5243724741916028e-05   1.7287887806455941e-05   1.1804441784826572e-05   1.2987384497484308e-05   9.8597126941486258e-06   9.9729519203005994e-06   9.0232364196666670e-06   8.1469564548342799e-06   9.1946185040395245e-06   7.6670731291695625e-06   9.1651189336162881e-06   7.4861847792648151e-06   8.5654434493053526e-06   7.0328459015750128e-06   8.0604806991910175e-06   6.4855930145844651e-06   8.2608891333920808e-06   6.2283990102442622e-06   9.0090944576458825e-06   6.6125127492921690e-06   7.4904201237149218e-06   1.0000000000000000e+00   1.0000000000000000e+00   1.0000000000000000e+00   7.1357661497752134e-01   9.9999707136732807e-01   1.4937809411541139e-01   6.5341667437403761e-01   2.8247865179255433e-03   1.6242586817259409e-02   4.7187840413730192e-05   6.4634518440753413e-05   3.5791177019570108e-05   4.4185908981966754e-05   2.7949279940592083e-05   3.7033354148770174e-05   2.0097169257485256e-05   2.7621024248577367e-05   1.3971464705885899e-05   1.9079837630989863e-05   9.5403300631271509e-06   1.2393139009340359e-05   7.1361805723040524e-06   8.4080358386741150e-06   5.8719400485766440e-06   6.2173335996788912e-06   5.0887192111492959e-06   5.0020291922459484e-06   4.4855644198230489e-06   4.1810487976122432e-06   4.0384203434447270e-06   3.6022593396776054e-06   3.9803713916031367e-06   3.3464330215652616e-06   4.4029730907477366e-06   3.5872915017257280e-06   5.4918984829314263e-06   4.5675979231694272e-06   6.3448256466193885e-06   1.0000000000000000e+00   1.0000000000000000e+00   1.0000000000000000e+00   9.9997207213766814e-01   9.9999748713849512e-01   4.5224919956819587e-01   8.1252444841019378e-01   7.5858699641702393e-05   8.8618640834270235e-02   6.9652220195061718e-05   8.2256428483696298e-05   5.6087720263031706e-05   7.9774699271570429e-05   3.3668301746343337e-04   5.8247592355620704e-04   3.1533404012727034e-04   6.4604593812728629e-04   1.0175469749994006e-04   2.8278371154339901e-04   4.5425510116967845e-05   8.2314011715873116e-05   1.9057464678332997e-05   2.7146818172597015e-05   4.7962646368616140e-06   6.0028805204610259e-06   3.6987592449298631e-06   4.3981580705614797e-06   3.0635414522645987e-06   3.4391490477331349e-06   3.0400782174322384e-06   3.0754737361221769e-06   3.6262135489560339e-06   3.5572518716649503e-06   4.5940343723201066e-06   4.3934466054472797e-06   5.8702539980467331e-06   5.0437629588789902e-06   7.5110433492110495e-06   9.9999409995910848e-01   9.9999105645862507e-01   7.9367160145526239e-01   9.8579152138098625e-01   9.9890818311706164e-01   6.2161329901555995e-01   9.4077961440720537e-01   1.6144037091761270e-04   4.7029757827938623e-01   1.3503926487649302e-03   1.3046464961291254e-03   1.5463803392835717e-03   2.7735282248301614e-03   1.0400119491974426e-03   1.8027505155851426e-03   4.5793886267280799e-04   8.2551309909248242e-04   1.5969226783342584e-04   2.5144647898615923e-04   7.1366953807972214e-05   1.3575224837012996e-04   7.6192364278962650e-06   5.3264472391318774e-05   5.4588637358139586e-06   7.4754279257346122e-06   4.1526937983242940e-06   5.5542413548726557e-06   4.1458771326800997e-06   4.9145950546000309e-06   5.2915441177651451e-06   5.8566748564328394e-06   6.4677560412138439e-06   7.4347770768263677e-06   1.6257318770487002e-06   3.2499821064389519e-06   0.0000000000000000e+00   0.0000000000000000e+00   3.4935655608231958e-01   6.6016040714212543e-01   9.8917247319576296e-01   8.8550452349709274e-01   9.9999723810552854e-01   1.0000000000000000e+00   9.7294957265480742e-01   1.0000000000000000e+00   1.0473809732485613e-02   3.3360182982357367e-01   5.1610312144720069e-03   1.5538271250756571e-02   2.5025708378861936e-03   5.0339231754643375e-03   9.5470561623548444e-04   1.5507765602583989e-03   4.0639193566339353e-04   6.8548452479835623e-04   1.9932504137001349e-04   2.9974206737371010e-04   4.0232373889871731e-05   1.4652419392581866e-04   1.0911445172278360e-05   1.5669536069911567e-05   7.8698601971889241e-06   1.1007529163650587e-05   7.7117287461766268e-06   9.3463930927526183e-06   1.1415471685120082e-05   1.2615828225849194e-05   8.9482060796055348e-04   1.3054036781869828e-03   1.8285716867406147e-05   1.3683173732096137e-02   4.4541563554170593e-01   3.6799431370837449e-01   9.1604654652567752e-01   9.8224249345179249e-01   9.9799584751215020e-01   5.8306734886273193e-01   1.0000000000000000e+00   1.0000000000000000e+00   1.0000000000000000e+00   1.0000000000000000e+00   4.6673915459735443e-01   1.0000000000000000e+00   2.2123664661861983e-02   5.3909352901945137e-02   4.3830299491750034e-03   1.0952517237788522e-02   1.1789391321999441e-03   2.2045928833430576e-03   7.0261108507857408e-04   9.1812578406965880e-04   4.2728077656844268e-04   6.3733693667525620e-04   1.1104228764811375e-04   3.7670838938398248e-04   2.3387329621558812e-05   3.5107636431124396e-05   1.5812672205893393e-05   2.2981762771448725e-05   1.3952562745283896e-05   1.6578701718207690e-05   2.3579717212150247e-05   2.3251536657877870e-05   8.2095213536229374e-03   4.8741951950503487e-03   2.2693042276563491e-01   1.2403088255221834e-01   9.9962965057837716e-01   9.2213800211421293e-01   9.9988168098958785e-01   9.9992184237143811e-01   9.0240213583716644e-01   9.7115290087145412e-01   4.0864628509157336e-01   8.5214787427843730e-01   1.0000000000000000e+00   1.0000000000000000e+00   7.7594055744428558e-01   1.0000000000000000e+00   2.6454393359612940e-02   4.6664843000114947e-02   4.7185121716400592e-03   6.6774183542894590e-03   1.5785631129469095e-03   1.6920571438116094e-03   1.4574841668722257e-03   1.5581050282668246e-03   1.0393923787894795e-03   1.6769618724504108e-03   2.7356171119770410e-04   8.9325744363953630e-04   5.1065327490166211e-05   8.0580677648285065e-05   2.9989642642791457e-05   4.6997826486168808e-05   2.1462747151879010e-05   2.6392197691614138e-05   3.3971761819467831e-05   2.9253749669457177e-05   5.4602329763430973e-03   7.2116987893886811e-05   3.1544719128972748e-01   6.9442393434938382e-02   9.9997846027505310e-01   8.3903004900740497e-01   9.9997672031990004e-01   1.0000000000000000e+00   3.8821027467136410e-01   3.9172682519935653e-01   4.2756152833930859e-03   1.3391844242944014e-02   2.5703186855910781e-03   6.2609908384364976e-01   3.2092283264596400e-01   3.7001596293051608e-01   1.1518302000158312e-02   1.4488229200211807e-02   1.5912600245529224e-03   2.6499456159102548e-04   1.9426876143976690e-03   1.9130751270448346e-04   3.5471887466144159e-03   3.3518213047432441e-03   3.2019578532290474e-03   4.9222896241393928e-03   5.9245747697358379e-04   2.1775274927990601e-03   1.1054610247555917e-04   1.8233121738953114e-04   5.4258299572956395e-05   9.1117415805035994e-05   2.2377133498632009e-05   3.1485005719847699e-05   2.2951570723674101e-05   9.7932132646049344e-06   7.8265495180811283e-05   3.4106697458711182e-05   6.6047521889395527e-02   5.3358654754637070e-03   4.5636141640714273e-01   3.5610999058565374e-01   3.5567709485629956e-01   4.1772716962933426e-01   6.4782370865107505e-02   1.0215046927637181e-01   8.7144921107620444e-03   1.3509473278754802e-02   1.1003383051628891e-03   1.3133696185671305e-03   9.7077004290660986e-05   1.0000000000000000e+00   5.5166308472688408e-01   9.6530260966681247e-01   2.0098442524073572e-04   6.6412332157689247e-01   1.9193570662344628e-03   6.8514753944431772e-01   9.2113122015197776e-03   7.6142573248228007e-01   1.0711252130334799e-02   7.9718348588642551e-01   2.6427300095185412e-03   8.2189923966665823e-01   2.3441692425735944e-04   8.2148990863510196e-01   1.0334014471952217e-04   8.1120281078660283e-01   2.4572157606248379e-05   7.7546353788719224e-01   1.1734260533028436e-01   6.8451886536919904e-01   1.6211497364501942e-01   6.2616314155973940e-01   5.4652858575518160e-01   7.9345795490499227e-01   6.9478036051724990e-01   9.2342047886900180e-01   5.8821326231313220e-01   8.0456783843467539e-01   2.2921255895935643e-02   5.6430046127947353e-01   1.3899584134946163e-03   3.9172665153044972e-01   1.4688428482833056e-04   4.4208117371616817e-01   9.0635268066844440e-05   5.7668407614765516e-01   8.6793896704589402e-01   9.2127459529181632e-01   9.6724505801097083e-01   8.4101296118760915e-01   8.9222880037058583e-01   8.6373402254556420e-01   8.9763501698434134e-01   8.8033131555854693e-01   9.0810847009203544e-01   8.9365876743661787e-01   9.5957946219649637e-01   9.0324624913661533e-01   9.5402572013258047e-01   8.7919706703419687e-01   9.3615587534799727e-01   8.6529618049090029e-01   9.2981448784376330e-01   8.4032318548793383e-01   8.7968684124149088e-01   8.5569429703520961e-01   8.8178157766713228e-01   8.1508232134570624e-01   8.6121482923054293e-01   8.6659533628466323e-01   8.6565467259379814e-01   7.8449561967854808e-01   8.1700800060295764e-01   6.2738975656051998e-01   6.6586805921317416e-01   6.6256773648588452e-01   6.4840043935211700e-01   7.5380751973833870e-01   7.7786691028937294e-01   8.9581189443466758e-01   9.3508236636726427e-01   9.1475196535115999e-01   9.3079955912605483e-01   9.1833969350161271e-01   9.4150431494102471e-01   </DataArray> 
</CellData> 
</Piece>
</UnstructuredGrid>
</VTKFile>