<?xml version="1.0"?>
<VTKFile type="UnstructuredGrid"  version="0.1"  >
<UnstructuredGrid>
<Piece  NumberOfPoints="323" NumberOfCells="575">
<Points>
<DataArray  type="Float64"  NumberOfComponents="3"  format="ascii">0.3965217391304348 0 0  0.4295652173913043 0 0  0.4295652173913043 0.03333333333333333 0  0.4626086956521739 0 0  0.4626086956521739 0.03333333333333333 0  0.4956521739130435 0 0  0.4956521739130435 0.03333333333333333 0  0.528695652173913 0 0  0.528695652173913 0.03333333333333333 0  0.5617391304347825 0 0  0.5617391304347825 0.03333333333333333 0  0.5947826086956521 0 0  0.5947826086956521 0.03333333333333333 0  0.6278260869565218 0 0  0.6278260869565218 0.03333333333333333 0  0.6608695652173913 0 0  0.6608695652173913 0.03333333333333333 0  0.6939130434782609 0 0  0.6939130434782609 0.03333333333333333 0  0.7269565217391304 0 0  0.7269565217391304 0.03333333333333333 0  0.7599999999999999 0 0  0.7599999999999999 0.03333333333333333 0  0.7930434782608695 0 0  0.7930434782608695 0.03333333333333333 0  0.8260869565217391 0 0  0.8260869565217391 0.03333333333333333 0  0.8591304347826086 0 0  0.8591304347826086 0.03333333333333333 0  0.8921739130434783 0 0  0.8921739130434783 0.03333333333333333 0  0.9252173913043478 0 0  0.9252173913043478 0.03333333333333333 0  0.9582608695652173 0 0  0.9582608695652173 0.03333333333333333 0  0.991304347826087 0 0  0.991304347826087 0.03333333333333333 0  1.024347826086957 0 0  1.024347826086957 0.03333333333333333 0  1.057391304347826 0 0  1.057391304347826 0.03333333333333333 0  1.090434782608696 0.03333333333333333 0  0.4626086956521739 0.06666666666666667 0  0.4956521739130435 0.06666666666666667 0  0.528695652173913 0.06666666666666667 0  0.5617391304347825 0.06666666666666667 0  0.5947826086956521 0.06666666666666667 0  0.6278260869565218 0.06666666666666667 0  0.6608695652173913 0.06666666666666667 0  0.6939130434782609 0.06666666666666667 0  0.7269565217391304 0.06666666666666667 0  0.7599999999999999 0.06666666666666667 0  0.7930434782608695 0.06666666666666667 0  0.8260869565217391 0.06666666666666667 0  0.8591304347826086 0.06666666666666667 0  0.8921739130434783 0.06666666666666667 0  0.9252173913043478 0.06666666666666667 0  0.9582608695652173 0.06666666666666667 0  0.991304347826087 0.06666666666666667 0  1.024347826086957 0.06666666666666667 0  1.057391304347826 0.06666666666666667 0  1.090434782608696 0.06666666666666667 0  1.123478260869565 0.06666666666666667 0  0.4956521739130435 0.1 0  0.528695652173913 0.1 0  0.5617391304347825 0.1 0  0.5947826086956521 0.1 0  0.6278260869565218 0.1 0  0.6608695652173913 0.1 0  0.6939130434782609 0.1 0  0.7269565217391304 0.1 0  0.7599999999999999 0.1 0  0.7930434782608695 0.1 0  0.8260869565217391 0.1 0  0.8591304347826086 0.1 0  0.8921739130434783 0.1 0  0.9252173913043478 0.1 0  0.9582608695652173 0.1 0  0.991304347826087 0.1 0  1.024347826086957 0.1 0  1.057391304347826 0.1 0  1.090434782608696 0.1 0  1.123478260869565 0.1 0  0.528695652173913 0.1333333333333333 0  0.5617391304347825 0.1333333333333333 0  0.5947826086956521 0.1333333333333333 0  0.6278260869565218 0.1333333333333333 0  0.6608695652173913 0.1333333333333333 0  0.6939130434782609 0.1333333333333333 0  0.7269565217391304 0.1333333333333333 0  0.7599999999999999 0.1333333333333333 0  0.7930434782608695 0.1333333333333333 0  0.8260869565217391 0.1333333333333333 0  0.8591304347826086 0.1333333333333333 0  0.8921739130434783 0.1333333333333333 0  0.9252173913043478 0.1333333333333333 0  0.9582608695652173 0.1333333333333333 0  0.991304347826087 0.1333333333333333 0  1.024347826086957 0.1333333333333333 0  1.057391304347826 0.1333333333333333 0  1.090434782608696 0.1333333333333333 0  1.123478260869565 0.1333333333333333 0  1.156521739130435 0.1333333333333333 0  0.5617391304347825 0.1666666666666667 0  0.5947826086956521 0.1666666666666667 0  0.6278260869565218 0.1666666666666667 0  0.6608695652173913 0.1666666666666667 0  0.6939130434782609 0.1666666666666667 0  0.7269565217391304 0.1666666666666667 0  0.7599999999999999 0.1666666666666667 0  0.7930434782608695 0.1666666666666667 0  0.8260869565217391 0.1666666666666667 0  0.8591304347826086 0.1666666666666667 0  0.8921739130434783 0.1666666666666667 0  0.9252173913043478 0.1666666666666667 0  0.9582608695652173 0.1666666666666667 0  0.991304347826087 0.1666666666666667 0  1.024347826086957 0.1666666666666667 0  1.057391304347826 0.1666666666666667 0  1.090434782608696 0.1666666666666667 0  1.123478260869565 0.1666666666666667 0  1.156521739130435 0.1666666666666667 0  1.189565217391304 0.1666666666666667 0  0.5947826086956521 0.2 0  0.6278260869565218 0.2 0  0.6608695652173913 0.2 0  0.6939130434782609 0.2 0  0.7269565217391304 0.2 0  0.7599999999999999 0.2 0  0.7930434782608695 0.2 0  0.8260869565217391 0.2 0  0.8591304347826086 0.2 0  0.8921739130434783 0.2 0  0.9252173913043478 0.2 0  0.9582608695652173 0.2 0  0.991304347826087 0.2 0  1.024347826086957 0.2 0  1.057391304347826 0.2 0  1.090434782608696 0.2 0  1.123478260869565 0.2 0  1.156521739130435 0.2 0  1.189565217391304 0.2 0  1.222608695652174 0.2 0  0.6278260869565218 0.2333333333333333 0  0.6608695652173913 0.2333333333333333 0  0.6939130434782609 0.2333333333333333 0  0.7269565217391304 0.2333333333333333 0  0.7599999999999999 0.2333333333333333 0  0.7930434782608695 0.2333333333333333 0  0.8260869565217391 0.2333333333333333 0  0.8591304347826086 0.2333333333333333 0  0.8921739130434783 0.2333333333333333 0  0.9252173913043478 0.2333333333333333 0  0.9582608695652173 0.2333333333333333 0  0.991304347826087 0.2333333333333333 0  1.024347826086957 0.2333333333333333 0  1.057391304347826 0.2333333333333333 0  1.090434782608696 0.2333333333333333 0  1.123478260869565 0.2333333333333333 0  1.156521739130435 0.2333333333333333 0  1.189565217391304 0.2333333333333333 0  1.222608695652174 0.2333333333333333 0  1.255652173913044 0.2333333333333333 0  0.6608695652173913 0.2666666666666667 0  0.6939130434782609 0.2666666666666667 0  0.7269565217391304 0.2666666666666667 0  0.7599999999999999 0.2666666666666667 0  0.7930434782608695 0.2666666666666667 0  0.8260869565217391 0.2666666666666667 0  0.8591304347826086 0.2666666666666667 0  0.8921739130434783 0.2666666666666667 0  0.9252173913043478 0.2666666666666667 0  0.9582608695652173 0.2666666666666667 0  0.991304347826087 0.2666666666666667 0  1.024347826086957 0.2666666666666667 0  1.057391304347826 0.2666666666666667 0  1.090434782608696 0.2666666666666667 0  1.123478260869565 0.2666666666666667 0  1.156521739130435 0.2666666666666667 0  1.189565217391304 0.2666666666666667 0  1.222608695652174 0.2666666666666667 0  1.255652173913044 0.2666666666666667 0  1.288695652173913 0.2666666666666667 0  0.6939130434782609 0.3 0  0.7269565217391304 0.3 0  0.7599999999999999 0.3 0  0.7930434782608695 0.3 0  0.8260869565217391 0.3 0  0.8591304347826086 0.3 0  0.8921739130434783 0.3 0  0.9252173913043478 0.3 0  0.9582608695652173 0.3 0  0.991304347826087 0.3 0  1.024347826086957 0.3 0  1.057391304347826 0.3 0  1.090434782608696 0.3 0  1.123478260869565 0.3 0  1.156521739130435 0.3 0  1.189565217391304 0.3 0  1.222608695652174 0.3 0  1.255652173913044 0.3 0  1.288695652173913 0.3 0  1.321739130434783 0.3 0  0.7269565217391304 0.3333333333333333 0  0.7599999999999999 0.3333333333333333 0  0.7930434782608695 0.3333333333333333 0  0.8260869565217391 0.3333333333333333 0  0.8591304347826086 0.3333333333333333 0  0.8921739130434783 0.3333333333333333 0  0.9252173913043478 0.3333333333333333 0  0.9582608695652173 0.3333333333333333 0  0.991304347826087 0.3333333333333333 0  1.024347826086957 0.3333333333333333 0  1.057391304347826 0.3333333333333333 0  1.090434782608696 0.3333333333333333 0  1.123478260869565 0.3333333333333333 0  1.156521739130435 0.3333333333333333 0  1.189565217391304 0.3333333333333333 0  1.222608695652174 0.3333333333333333 0  1.255652173913044 0.3333333333333333 0  1.288695652173913 0.3333333333333333 0  1.321739130434783 0.3333333333333333 0  1.354782608695652 0.3333333333333333 0  0.7599999999999999 0.3666666666666666 0  0.7930434782608695 0.3666666666666666 0  0.8260869565217391 0.3666666666666666 0  0.8591304347826086 0.3666666666666666 0  0.8921739130434783 0.3666666666666666 0  0.9252173913043478 0.3666666666666666 0  0.9582608695652173 0.3666666666666666 0  0.991304347826087 0.3666666666666666 0  1.024347826086957 0.3666666666666666 0  1.057391304347826 0.3666666666666666 0  1.090434782608696 0.3666666666666666 0  1.123478260869565 0.3666666666666666 0  1.156521739130435 0.3666666666666666 0  1.189565217391304 0.3666666666666666 0  1.222608695652174 0.3666666666666666 0  1.255652173913044 0.3666666666666666 0  1.288695652173913 0.3666666666666666 0  1.321739130434783 0.3666666666666666 0  1.354782608695652 0.3666666666666666 0  1.387826086956522 0.3666666666666666 0  0.7930434782608695 0.4 0  0.8260869565217391 0.4 0  0.8591304347826086 0.4 0  0.8921739130434783 0.4 0  0.9252173913043478 0.4 0  0.9582608695652173 0.4 0  0.991304347826087 0.4 0  1.024347826086957 0.4 0  1.057391304347826 0.4 0  1.090434782608696 0.4 0  1.123478260869565 0.4 0  1.156521739130435 0.4 0  1.189565217391304 0.4 0  1.222608695652174 0.4 0  1.255652173913044 0.4 0  1.288695652173913 0.4 0  1.321739130434783 0.4 0  1.354782608695652 0.4 0  1.387826086956522 0.4 0  1.420869565217391 0.4 0  0.8260869565217391 0.4333333333333333 0  0.8591304347826086 0.4333333333333333 0  0.8921739130434783 0.4333333333333333 0  0.9252173913043478 0.4333333333333333 0  0.9582608695652173 0.4333333333333333 0  0.991304347826087 0.4333333333333333 0  1.024347826086957 0.4333333333333333 0  1.057391304347826 0.4333333333333333 0  1.090434782608696 0.4333333333333333 0  1.123478260869565 0.4333333333333333 0  1.156521739130435 0.4333333333333333 0  1.189565217391304 0.4333333333333333 0  1.222608695652174 0.4333333333333333 0  1.255652173913044 0.4333333333333333 0  1.288695652173913 0.4333333333333333 0  1.321739130434783 0.4
[...]
<CellData  Scalars="rho_bar"> 
<DataArray  type="Float64"  Name="rho_bar"  format="ascii">7.4345874798607925e-01   7.4761261282280222e-01   7.2544104827976386e-01   7.4780854620947224e-01   7.2821382741337026e-01   7.4274251354549792e-01   7.2568588654702071e-01   7.3307163834280642e-01   7.1754576150679583e-01   7.2123448082288044e-01   7.0563779457211551e-01   7.1088132504958568e-01   6.9343549783617375e-01   7.0537426875556464e-01   6.8495817309732510e-01   7.0532232136470119e-01   6.8237829113777082e-01   7.0776176423382531e-01   6.8404629838691278e-01   7.0878931608326734e-01   6.8574764071994365e-01   7.0675510537431518e-01   6.8449222825648637e-01   7.0202783591688278e-01   6.8006136270937989e-01   6.9538512887127779e-01   6.7336321097930196e-01   6.8706047997200059e-01   6.6504023154691361e-01   6.7692473942745279e-01   6.5498870011886345e-01   6.6671554960073798e-01   6.4398040831406600e-01   6.5888286763777493e-01   6.3464318326055302e-01   6.5432029271466519e-01   6.2869400438283851e-01   6.5235330031694172e-01   6.2588877539792753e-01   6.2520888410613817e-01   6.4443093577236299e-01   6.4998946858529394e-01   5.8704632161057835e-01   6.4899230960072429e-01   5.9165538884663227e-01   6.4063104958369832e-01   5.8800311962350826e-01   6.2703512120897831e-01   5.7651706133472713e-01   6.1278970826833268e-01   5.6102962346942664e-01   6.0285093548660251e-01   5.4723932683344723e-01   5.9933339209594394e-01   5.3937526318226303e-01   5.9970902849303620e-01   5.3710534032350554e-01   5.9924816792032332e-01   5.3608927408104989e-01   5.9514074348204749e-01   5.3210744193384008e-01   5.8769251271901379e-01   5.2424207566158154e-01   5.7833847910954461e-01   5.1392954623218179e-01   5.6794949743634515e-01   5.0270098143545050e-01   5.5628345902382936e-01   4.9086836700556125e-01   5.4456087230522887e-01   4.7857544743626662e-01   5.3553830932903812e-01   4.6811906205358889e-01   5.3039272088294553e-01   4.6151125248023045e-01   5.2830182760917299e-01   4.5851959893840716e-01   5.2821214786754034e-01   4.5786821213909246e-01   4.5905272585586865e-01   4.5160963228566531e-01   4.6275852418207902e-01   3.8797126036221535e-01   4.6452669815512232e-01   3.9865052042573101e-01   4.5570240758833053e-01   3.9819295833227830e-01   4.4042427226359410e-01   3.8740318595934564e-01   4.2543016848391785e-01   3.7220268554436464e-01   4.1523628263272228e-01   3.5884163271981412e-01   4.0922040414734234e-01   3.4941175443366718e-01   4.0339792868010432e-01   3.4146255376830748e-01   3.9457602549426618e-01   3.3163559349479327e-01   3.8267325787194800e-01   3.1894124724283024e-01   3.6964394835378361e-01   3.0498643596795155e-01   3.5716586650363119e-01   2.9182066562055142e-01   3.4539262593739495e-01   2.8027514023881067e-01   3.3450917009529679e-01   2.7002070323065736e-01   3.2611037195749693e-01   2.6165750102165031e-01   3.2125096757276755e-01   2.5631271164123481e-01   3.1932987348179359e-01   2.5387987064915407e-01   3.1933135785690309e-01   2.5344789902431514e-01   3.2109324395684963e-01   2.5455310688210986e-01   2.7811075493214438e-01   2.9791205503568657e-01   2.5167480650941570e-01   3.0539674523673688e-01   2.7040763416526864e-01   2.9940675639789960e-01   2.7422699527837663e-01   2.8581280872249698e-01   2.6525387638846282e-01   2.7113281897109964e-01   2.5046731041525128e-01   2.5744685157212971e-01   2.3463102583292844e-01   2.4319762323581864e-01   2.1801602928983166e-01   2.2709279685148115e-01   1.9961899387468671e-01   2.1017914101753191e-01   1.8033178918046572e-01   1.9466857997753303e-01   1.6264083889568734e-01   1.8198888386952311e-01   1.4843053571605536e-01   1.7213859882604618e-01   1.3794580052595781e-01   1.6454714347323354e-01   1.3035812423239790e-01   1.5913426774435913e-01   1.2499154360644608e-01   1.5598664523639136e-01   1.2168627605610262e-01   1.5474126817169201e-01   1.2017197712472232e-01   1.5490773293670215e-01   1.2001618772642178e-01   1.5646120331204616e-01   1.2107154450703736e-01   1.2374627520675881e-01   2.0960344967332656e-01   2.3804148437697706e-01   2.2209435319278933e-01   2.4807762125652677e-01   2.4593247786013103e-01   2.4106601586263118e-01   2.4832378985118767e-01   2.2443459459593082e-01   2.3484575211414652e-01   2.0324017624596755e-01   2.1281416987802906e-01   1.7858912125776977e-01   1.8547942621669833e-01   1.5179895351739522e-01   1.5454869404477264e-01   1.2667415622255734e-01   1.2409471491068043e-01   1.0675426226285756e-01   9.9092305973414493e-02   9.2795136867022038e-02   8.1564639962329211e-02   8.3633614554095806e-02   7.0401231611101137e-02   7.7768781352465954e-02   6.3569863633543278e-02   7.4156394746365040e-02   5.9479608411053923e-02   7.2193716459277024e-02   5.7209615266528117e-02   7.1471846214028786e-02   5.6231762176798442e-02   7.1782233341226909e-02   5.6264912241021772e-02   7.3280797708453693e-02   5.7359208513880232e-02   7.6611695117169240e-02   6.0035270100053412e-02   6.5425103560577416e-02   2.3321496197326577e-01   2.6451838415774837e-01   2.6800817362332413e-01   2.6934997256956583e-01   2.8808744840065664e-01   2.5367003288163004e-01   2.8126947045395589e-01   2.2454913033116014e-01   2.5518395648584785e-01   1.8579088719557171e-01   2.1516235887433874e-01   1.4242132836219126e-01   1.6628833268637891e-01   1.0313481239738322e-01   1.1812160385681612e-01   7.4417281882577138e-02   8.0562618019360252e-02   5.6368881361348440e-02   5.6450288056381852e-02   4.5879947581011229e-02   4.2610054573801737e-02   3.9991774171700904e-02   3.5034187491068819e-02   3.6787573583005523e-02   3.0991243973952028e-02   3.5198216928067703e-02   2.8952957795395903e-02   3.4685701408734539e-02   2.8146512900453724e-02   3.5094131508930343e-02   2.8274954657873646e-02   3.6672950079845446e-02   2.9456990639627249e-02   4.0219927951452503e-02   3.2328140446757331e-02   4.7366373809859287e-02   3.8307649920896213e-02   4.9987155319752875e-02   3.0017352870434549e-01   3.2310197501920895e-01   3.3181627539919684e-01   3.1605134451587463e-01   3.3919851614314950e-01   2.8450677742777608e-01   3.1777786950949433e-01   2.3251701532572477e-01   2.7105604992095439e-01   1.6897186703248246e-01   2.0533959720675579e-01   1.1037577864089376e-01   1.3684724906251219e-01   6.8930696863487073e-02   8.3563940813299611e-02   4.4550504852502032e-02   5.0842571394870140e-02   3.1445687999298394e-02   3.3242151475511038e-02   2.4652346120692798e-02   2.4234790854904844e-02   2.1226610349932978e-02   1.9728780323563153e-02   1.9632594799655314e-02   1.7581334481522534e-02   1.9156994585583047e-02   1.6767998863130254e-02   1.9616395317483357e-02   1.6920888356916280e-02   2.1300593462244204e-02   1.8168806584284984e-02   2.5129258366410893e-02   2.1216654785694511e-02   3.3049488412026450e-02   2.7668588217841978e-02   4.8584909282704626e-02   4.0589231373992438e-02   6.4535978408528885e-02   3.4771552309347498e-01   3.5524257776329882e-01   3.5495529882730426e-01   3.3222754455600018e-01   3.4644588728488135e-01   2.7877260664243025e-01   3.0650383659430225e-01   2.0338293569257493e-01   2.3790546998434708e-01   1.2886930671445027e-01   1.5870391862118474e-01   7.5212771825959007e-02   9.4062765274364676e-02   4.4328611715306429e-02   5.4178375595594283e-02   2.8404202443782278e-02   3.3242579555570050e-02   2.0494146274914221e-02   2.2864432950092620e-02   1.6651650369768525e-02   1.7816045476996615e-02   1.4908680136430331e-02   1.5454851397218170e-02   1.4383336699604966e-02   1.4553778565956887e-02   1.4838506942549711e-02   1.4670373935577003e-02   1.6563843459516035e-02   1.5912353916323414e-02   2.0512198638880440e-02   1.8976837132127469e-02   2.8724300906669244e-02   2.5459048712608921e-02   4.4970634308774085e-02   3.8417148601696365e-02   7.4323429428306123e-02   6.2559451380745867e-02   1.0164035477240584e-01   3.3646381150492766e-01   3.2736785143813985e-01   3.1778807359461470e-01   2.8670922253063891e-01   2.9341937109822713e-01   2.1808566315945446e-01   2.3913602138282597e-01   1.4278774736200200e-01   1.6779447645009427e-01   8.4861927079015950e-02   1.0416345866398163e-01   5.0511763650405744e-02   6.2628152748382251e-02   3.2779598716558236e-02   4.0293348356457412e-02   2.4042136961942587e-02   2.9147173722435971e-02   1.9814480666334341e-02   2.3688166661421556e-02   1.7878258351309472e-02   2.1093336751009668e-02   1.7244645355462700e-02   2.0045591808621404e-02   1.7633719864426918e-02   2.0062075326992040e-02   1.9301504336819719e-02   2.1216257552333549e-02   2.3130650761340892e-02   2.4129515857885326e-02   3.0976280002204079e-02   3.0191557115659153e-02   4.6189575699425958e-02   4.1974995962508851e-02   7.3271028730290844e-02   6.3332541609646645e-02   1.1398175362655288e-01   9.7271885714993830e-02   1.4058878471042613e-01   2.8051904920993220e-01   2.5734640940518028e-01   2.5387934156851782e-01   2.0886052790778348e-01   2.2016616983937357e-01   1.4857111090799135e-01   1.6870558654934051e-01   9.7180676021410534e-02   1.1707370107602881e-01   6.4193587194845858e-02   7.9810739728510174e-02   4.6273702634115309e-02   5.8218884199074186e-02   3.7139040808914926e-02   4.6858501978836335e-02   3.2565586413905633e-02   4.1021843943550032e-02   3.0362603099021290e-02   3.8081306809293336e-02   2.9530636378713386e-02   3.6758394179208245e-02   2.9778429233416611e-02   3.6573991779042886e-02   3.1324298684789122e-02   3.7585561159705898e-02   3.4913062922870754e-02   4.0315274542996105e-02   4.2020423450806893e-02   4.5847726001656951e-02   5.5120393777039652e-02   5.6015190933064112e-02   7.7282552786311659e-02   7.3310710920941241e-02   1.0924245837979825e-01   9.9299936222551344e-02   1.4528586776574698e-01   1.3096146729947594e-01   1.5978735011398351e-01   2.3512043632921079e-01   2.0619861074299289e-01   2.2425110868319170e-01   1.6471079315334192e-01   1.9093474371743663e-01   1.2454958289140472e-01   1.5257328004020157e-01   9.5582817861056726e-02   1.2101938929994881e-01   7.8218699073622500e-02   1.0046268170536372e-01   6.8605215258857391e-02   8.8500313296455455e-02   6.3395454525409248e-02   8.1756002708022302e-02   6.0629450957954904e-02   7.7997044215386502e-02   5.9359970234239556e-02   7.6026498723656605e-02   5.9333411857047824e-02   7.5405704213807240e-02   6.0770813981374086e-02   7.6236684479390707e-02   6.4286246583382944e-02   7.8992063037798155e-02   7.0926516722679842e-02   8.4462364872622805e-02   8.2132766660016801e-02   9.3683211260334076e-02   9.9310992395164291e-02   1.0766551448097492e-01   1.2201516896409226e-01   1.2645390831075698e-01   1.4572735830437786e-01   1.4724032627501893e-01   1.6375403533957228e-01   1.6440120451200385e-01   1.7363852467468607e-01   2.5795227600789911e-01   2.2931999885249751e-01   2.7972145848657287e-01   1.9710442179470905e-01   2.4932176954640878e-01   1.7032847601727977e-01   2.2009410436352164e-01   1.5202207126890210e-01   1.9807128724441722e-01   1.4059335548711596e-01   1.8346814135694059e-01   1.3366875733582226e-01   1.7421875485098601e-01   1.2951035559423396e-01   1.6843902364894450e-01   1.2717448107252785e-01   1.6490600772459846e-01   1.2652776789949072e-01   1.6323741551224369e-01   1.2791006867836988e-01   1.6373600645310965e-01   1.3185253368919075e-01   1.6691859969817582e-01   1.3900008507515502e-01   1.7329820861752160e-01   1.4971321290961684e-01   1.8308376052271422e-01   1.6360117241099276e-01   1.9562826125326138e-01   1.7899293576125891e-01   2.0924864892242684e-01   1.9254980818174067e-01   2.2125241899406473e-01   2.0088114966390977e-01   2.2873951181015714e-01   2.0298721325835178e-01   2.3058612524073244e-01   2.2801992378075708e-01   3.8222245503551738e-01   3.5435523291771376e-01   4.3776557438255032e-01   3.2696170677088854e-01   4.0996664117920228e-01   3.0526309533936441e-01   3.8536825092848531e-01   2.8992023122600008e-01   3.6673604898121975e-01   2.7961185874531158e-01   3.5363220496158965e-01   2.7280001005429466e-01   3.4473112335177380e-01   2.6838924050535967e-01   3.3874395812898767e-01   2.6639319828966240e-01   3.3523865830925031e-01   2.6752371936475089e-01   3.3489840975392110e-01   2.7221726374782151e-01   3.3838498417306329e-01   2.8060185946026245e-01   3.4574368396295907e-01   2.9194472842631491e-01   3.5631079948199024e-01   3.0404994474767699e-01   3.6800542445541684e-01   3.1387049500172531e-01   3.7759057167119198e-01   3.1894853562344633e-01   3.8230437431049641e-01   3.1883673528204126e-01   3.8144663416069241e-01   3.1508144437842478e-01   3.7669690418056945e-01   3.0969179317446233e-01   3.7048951688796089e-01   3.6442838186937276e-01   5.7083428637369860e-01   5.4701890375141449e-01   6.2198288586455641e-01   5.2515285405009848e-01   6.0100394485669995e-01   5.0777919506568558e-01   5.8307867178979556e-01   4.9506533381622575e-01   5.6928493194677432e-01   4.8617551706448281e-01   5.5935606257055470e-01   4.8007979301422365e-01   5.5245971715579856e-01   4.7669843984904031e-01   5.4806892655272399e-01   4.7703111368041212e-01   5.4684387744169161e-01   4.8149103295359408e-01   5.4957156673726482e-01   4.8951707239622161e-01   5.5585349248388793e-01   4.9960466673565584e-01   5.6442718538914838e-01   5.0887255195008296e-01   5.7297783022055104e-01   5.1398739541431759e-01   5.7842646693134048e-01   5.1313740892149839e-01   5.7853585767067817e-01   5.0738536944206258e-01   5.7347409025056828e-01   4.9971211010393518e-01   5.6578116715544857e-01   4.9256806133802411e-01   5.5829803704838354e-01   4.8686243130214213e-01   5.5237295087159266e-01   5.4799144652680398e-01   7.0419552957388831e-01   7.3260838373231152e-01   6.8737097732051533e-01   7.1671267139065931e-01   6.7275233709394155e-01   7.0209655024869455e-01   6.6131650630565331e-01   6.9016828513840367e-01   6.5300404305984483e-01   6.8124268259048815e-01   6.4726927059722217e-01   6.7498964561768171e-01   6.4393582943356875e-01   6.7101765112394796e-01   6.4375653936221899e-01   6.6969123424474486e-01   6.4708905672267369e-01   6.7167776921563083e-01   6.5310735750331361e-01   6.7654076228327076e-01   6.6013766732979906e-01   6.8286502381974545e-01   6.6577373446034283e-01   6.8860349112975405e-01   6.6759992320638650e-01   6.9140767154668459e-01   6.6459083759760784e-01   6.8979923418639544e-01   6.5791969241655968e-01   6.8418538277001517e-01   6.5024036327635226e-01   6.7676140096364079e-01   6.4371887618923096e-01   6.6996879553986599e-01   6.3906667154604380e-01   6.6497083730044970e-01   6.3586401249202618e-01   6.6164593339802547e-01   </DataArray> 
</CellData> 
</Piece>
</UnstructuredGrid>
</VTKFile>