<?xml version="1.0"?>
<VTKFile type="UnstructuredGrid"  version="0.1"  >
<UnstructuredGrid>
<Piece  NumberOfPoints="318" NumberOfCells="566">
<Points>
<DataArray  type="Float64"  NumberOfComponents="3"  format="ascii">1.057391304347826 0 0  1.090434782608696 0 0  1.090434782608696 0.03333333333333333 0  1.123478260869565 0 0  1.123478260869565 0.03333333333333333 0  1.156521739130435 0 0  1.156521739130435 0.03333333333333333 0  1.189565217391304 0 0  1.189565217391304 0.03333333333333333 0  1.222608695652174 0 0  1.222608695652174 0.03333333333333333 0  1.255652173913044 0 0  1.255652173913044 0.03333333333333333 0  1.288695652173913 0 0  1.288695652173913 0.03333333333333333 0  1.321739130434783 0 0  1.321739130434783 0.03333333333333333 0  1.354782608695652 0 0  1.354782608695652 0.03333333333333333 0  1.387826086956522 0 0  1.387826086956522 0.03333333333333333 0  1.420869565217391 0 0  1.420869565217391 0.03333333333333333 0  1.453913043478261 0 0  1.453913043478261 0.03333333333333333 0  1.486956521739131 0 0  1.486956521739131 0.03333333333333333 0  1.52 0 0  1.52 0.03333333333333333 0  1.55304347826087 0 0  1.55304347826087 0.03333333333333333 0  1.586086956521739 0 0  1.586086956521739 0.03333333333333333 0  1.619130434782609 0 0  1.619130434782609 0.03333333333333333 0  1.652173913043478 0 0  1.652173913043478 0.03333333333333333 0  1.685217391304348 0 0  1.685217391304348 0.03333333333333333 0  1.718260869565217 0 0  1.718260869565217 0.03333333333333333 0  1.751304347826087 0 0  1.751304347826087 0.03333333333333333 0  1.784347826086957 0 0  1.784347826086957 0.03333333333333333 0  1.817391304347826 0 0  1.817391304347826 0.03333333333333333 0  1.850434782608696 0 0  1.850434782608696 0.03333333333333333 0  1.883478260869565 0.03333333333333333 0  1.123478260869565 0.06666666666666667 0  1.156521739130435 0.06666666666666667 0  1.189565217391304 0.06666666666666667 0  1.222608695652174 0.06666666666666667 0  1.255652173913044 0.06666666666666667 0  1.288695652173913 0.06666666666666667 0  1.321739130434783 0.06666666666666667 0  1.354782608695652 0.06666666666666667 0  1.387826086956522 0.06666666666666667 0  1.420869565217391 0.06666666666666667 0  1.453913043478261 0.06666666666666667 0  1.486956521739131 0.06666666666666667 0  1.52 0.06666666666666667 0  1.55304347826087 0.06666666666666667 0  1.586086956521739 0.06666666666666667 0  1.619130434782609 0.06666666666666667 0  1.652173913043478 0.06666666666666667 0  1.685217391304348 0.06666666666666667 0  1.718260869565217 0.06666666666666667 0  1.751304347826087 0.06666666666666667 0  1.784347826086957 0.06666666666666667 0  1.817391304347826 0.06666666666666667 0  1.850434782608696 0.06666666666666667 0  1.883478260869565 0.06666666666666667 0  1.156521739130435 0.1 0  1.123478260869565 0.1 0  1.189565217391304 0.1 0  1.222608695652174 0.1 0  1.255652173913044 0.1 0  1.288695652173913 0.1 0  1.321739130434783 0.1 0  1.354782608695652 0.1 0  1.387826086956522 0.1 0  1.420869565217391 0.1 0  1.453913043478261 0.1 0  1.486956521739131 0.1 0  1.52 0.1 0  1.55304347826087 0.1 0  1.586086956521739 0.1 0  1.619130434782609 0.1 0  1.652173913043478 0.1 0  1.685217391304348 0.1 0  1.718260869565217 0.1 0  1.751304347826087 0.1 0  1.784347826086957 0.1 0  1.817391304347826 0.1 0  1.850434782608696 0.1 0  1.883478260869565 0.1 0  1.156521739130435 0.1333333333333333 0  1.189565217391304 0.1333333333333333 0  1.222608695652174 0.1333333333333333 0  1.255652173913044 0.1333333333333333 0  1.288695652173913 0.1333333333333333 0  1.321739130434783 0.1333333333333333 0  1.354782608695652 0.1333333333333333 0  1.387826086956522 0.1333333333333333 0  1.420869565217391 0.1333333333333333 0  1.453913043478261 0.1333333333333333 0  1.486956521739131 0.1333333333333333 0  1.52 0.1333333333333333 0  1.55304347826087 0.1333333333333333 0  1.586086956521739 0.1333333333333333 0  1.619130434782609 0.1333333333333333 0  1.652173913043478 0.1333333333333333 0  1.685217391304348 0.1333333333333333 0  1.718260869565217 0.1333333333333333 0  1.751304347826087 0.1333333333333333 0  1.784347826086957 0.1333333333333333 0  1.817391304347826 0.1333333333333333 0  1.850434782608696 0.1333333333333333 0  1.883478260869565 0.1333333333333333 0  1.189565217391304 0.1666666666666667 0  1.222608695652174 0.1666666666666667 0  1.255652173913044 0.1666666666666667 0  1.288695652173913 0.1666666666666667 0  1.321739130434783 0.1666666666666667 0  1.354782608695652 0.1666666666666667 0  1.387826086956522 0.1666666666666667 0  1.420869565217391 0.1666666666666667 0  1.453913043478261 0.1666666666666667 0  1.486956521739131 0.1666666666666667 0  1.52 0.1666666666666667 0  1.55304347826087 0.1666666666666667 0  1.586086956521739 0.1666666666666667 0  1.619130434782609 0.1666666666666667 0  1.652173913043478 0.1666666666666667 0  1.685217391304348 0.1666666666666667 0  1.718260869565217 0.1666666666666667 0  1.751304347826087 0.1666666666666667 0  1.784347826086957 0.1666666666666667 0  1.817391304347826 0.1666666666666667 0  1.850434782608696 0.1666666666666667 0  1.883478260869565 0.1666666666666667 0  1.222608695652174 0.2 0  1.255652173913044 0.2 0  1.288695652173913 0.2 0  1.321739130434783 0.2 0  1.354782608695652 0.2 0  1.387826086956522 0.2 0  1.420869565217391 0.2 0  1.453913043478261 0.2 0  1.486956521739131 0.2 0  1.52 0.2 0  1.55304347826087 0.2 0  1.586086956521739 0.2 0  1.619130434782609 0.2 0  1.652173913043478 0.2 0  1.685217391304348 0.2 0  1.718260869565217 0.2 0  1.751304347826087 0.2 0  1.784347826086957 0.2 0  1.817391304347826 0.2 0  1.850434782608696 0.2 0  1.883478260869565 0.2 0  1.255652173913044 0.2333333333333333 0  1.288695652173913 0.2333333333333333 0  1.321739130434783 0.2333333333333333 0  1.354782608695652 0.2333333333333333 0  1.387826086956522 0.2333333333333333 0  1.420869565217391 0.2333333333333333 0  1.453913043478261 0.2333333333333333 0  1.486956521739131 0.2333333333333333 0  1.52 0.2333333333333333 0  1.55304347826087 0.2333333333333333 0  1.586086956521739 0.2333333333333333 0  1.619130434782609 0.2333333333333333 0  1.652173913043478 0.2333333333333333 0  1.685217391304348 0.2333333333333333 0  1.718260869565217 0.2333333333333333 0  1.751304347826087 0.2333333333333333 0  1.784347826086957 0.2333333333333333 0  1.817391304347826 0.2333333333333333 0  1.850434782608696 0.2333333333333333 0  1.883478260869565 0.2333333333333333 0  1.288695652173913 0.2666666666666667 0  1.321739130434783 0.2666666666666667 0  1.354782608695652 0.2666666666666667 0  1.387826086956522 0.2666666666666667 0  1.420869565217391 0.2666666666666667 0  1.453913043478261 0.2666666666666667 0  1.486956521739131 0.2666666666666667 0  1.52 0.2666666666666667 0  1.55304347826087 0.2666666666666667 0  1.586086956521739 0.2666666666666667 0  1.619130434782609 0.2666666666666667 0  1.652173913043478 0.2666666666666667 0  1.685217391304348 0.2666666666666667 0  1.718260869565217 0.2666666666666667 0  1.751304347826087 0.2666666666666667 0  1.784347826086957 0.2666666666666667 0  1.817391304347826 0.2666666666666667 0  1.850434782608696 0.2666666666666667 0  1.883478260869565 0.2666666666666667 0  1.321739130434783 0.3 0  1.354782608695652 0.3 0  1.387826086956522 0.3 0  1.420869565217391 0.3 0  1.453913043478261 0.3 0  1.486956521739131 0.3 0  1.52 0.3 0  1.55304347826087 0.3 0  1.586086956521739 0.3 0  1.619130434782609 0.3 0  1.652173913043478 0.3 0  1.685217391304348 0.3 0  1.718260869565217 0.3 0  1.751304347826087 0.3 0  1.784347826086957 0.3 0  1.817391304347826 0.3 0  1.850434782608696 0.3 0  1.883478260869565 0.3 0  1.354782608695652 0.3333333333333333 0  1.387826086956522 0.3333333333333333 0  1.420869565217391 0.3333333333333333 0  1.453913043478261 0.3333333333333333 0  1.486956521739131 0.3333333333333333 0  1.52 0.3333333333333333 0  1.55304347826087 0.3333333333333333 0  1.586086956521739 0.3333333333333333 0  1.619130434782609 0.3333333333333333 0  1.652173913043478 0.3333333333333333 0  1.685217391304348 0.3333333333333333 0  1.718260869565217 0.3333333333333333 0  1.751304347826087 0.3333333333333333 0  1.784347826086957 0.3333333333333333 0  1.817391304347826 0.3333333333333333 0  1.850434782608696 0.3333333333333333 0  1.883478260869565 0.3333333333333333 0  1.916521739130435 0.3333333333333333 0  1.387826086956522 0.3666666666666666 0  1.420869565217391 0.3666666666666666 0  1.453913043478261 0.3666666666666666 0  1.486956521739131 0.3666666666666666 0  1.52 0.3666666666666666 0  1.55304347826087 0.3666666666666666 0  1.586086956521739 0.3666666666666666 0  1.619130434782609 0.3666666666666666 0  1.652173913043478 0.3666666666666666 0  1.685217391304348 0.3666666666666666 0  1.718260869565217 0.3666666666666666 0  1.751304347826087 0.3666666666666666 0  1.784347826086957 0.3666666666666666 0  1.817391304347826 0.3666666666666666 0  1.850434782608696 0.3666666666666666 0  1.883478260869565 0.3666666666666666 0  1.916521739130435 0.3666666666666666 0  1.420869565217391 0.4 0  1.453913043478261 0.4 0  1.486956521739131 0.4 0  1.52 0.4 0  1.55304347826087 0.4 0  1.586086956521739 0.4 0  1.619130434782609 0.4 0  1.652173913043478 0.4 0  1.685217391304348 0.4 0  1.718260869565217 0.4 0  1.751304347826087 0.4 0  1.784347826086957 0.4 0  1.817391304347826 0.4 0  1.850434782608696 0.4 0  1.883478260869565 0.4 0  1.916521739130435 0.4 0  1.453913043478261 0.4333333333333333 0  1.486956521739131 0.4333333333333333 0  1.52 0.4333333333333333 0  1.55304347826087 0.4333333333333333 0  1.586086956521739 0.4333333333333333 0  1.619130434782609 0.4333333333333333 0  1.652173913043478 0.4333333333333333 0  1.685217391304348 0.4333333333333333 0  1.718260869565217 0.4333333333333333 0  1.751304347826087 0.4333333333333333 0  1.784347826086957 0.4333333333333333 0  1.817391304347826 0.4333333333333333 0  1.850434782608696 0.4333333333333333 0  1.883478260869565 0.4333333333333333 0  1.916521739130435 0.4333333333333333 0  1.949565217391304 0.4333333333333333 0  1.486956521739131 0
[...]
<CellData  Scalars="rho"> 
<DataArray  type="Float64"  Name="rho"  format="ascii">9.4040090973857793e-01   9.3751736725284185e-01   8.9133329900550051e-01   9.3935847085596547e-01   8.8314296178979279e-01   9.4127848174865703e-01   8.8003911982254435e-01   9.4904713141773267e-01   8.8029981572545335e-01   9.2232710268981688e-01   8.6830932038975805e-01   9.3307233350948016e-01   8.8270655268147313e-01   9.3322044285118366e-01   8.7130452763670241e-01   9.3736709453874123e-01   8.8038059390399503e-01   9.5837043445999881e-01   9.3644785942586539e-01   9.6514978350383640e-01   9.4442909367288908e-01   9.4858232289112376e-01   9.1893096072082880e-01   8.8953420907497183e-01   8.3290597969186697e-01   9.1609350501764586e-01   7.0767798169119356e-01   9.9476500274485113e-01   9.2847124181446228e-01   9.9999756835479958e-01   9.9999912240738154e-01   8.9928509321184147e-01   9.5876737750549124e-01   8.8919818017272045e-01   7.6616003685831591e-01   9.3741443560173643e-01   8.1874257802836670e-01   9.6228364938635391e-01   9.3457245436649483e-01   9.7709506363011356e-01   9.5881484628727442e-01   9.7090304996918864e-01   9.5820907650653608e-01   8.7380461039617008e-01   8.5161151436143501e-01   9.1975756257641461e-01   8.8576432641541625e-01   8.3600327204356173e-01   8.0458879471412692e-01   7.9546837007145488e-01   1.1593827639472284e-04   7.9236122888198146e-01   1.3030288095379152e-04   7.8979116789345971e-01   2.1744804235504134e-03   7.6752166247914799e-01   3.6858162531832918e-03   7.7800427230639435e-01   4.7549316093250138e-04   7.6352234534814745e-01   1.1512065548042511e-04   8.3652434160444455e-01   9.1867959925130981e-05   8.5067965456559147e-01   1.0647639297313319e-04   6.1062580020745338e-01   2.2906645120987015e-03   3.2766766159570127e-01   3.5566182601845537e-03   1.5010987809229394e-04   2.5812625852469199e-03   2.7124868369731064e-01   1.6553226836984736e-02   9.4619081662620697e-01   2.4906227162127767e-01   9.9999479215526721e-01   6.1258706728307755e-01   7.0945795733322325e-01   4.0151300470125195e-01   3.0850760854260567e-01   9.4297367737076909e-05   4.1946801202629547e-01   1.3110087896179889e-04   6.1803794461900963e-01   2.0802098216645949e-04   5.5933523332001167e-01   5.0518099800591909e-03   5.9197681920821354e-01   4.0150730805460534e-03   5.1202716190179576e-01   6.3823035296113151e-04   7.1220188966974229e-01   2.9156174054683143e-01   7.4559837137046869e-01   5.3014962510061980e-01   8.0396986135913956e-05   6.2476218874660546e-05   9.3896922491291590e-05   6.6800730868122571e-05   5.0257755141256972e-04   8.1761236738255307e-05   6.6543123032070475e-04   7.8009285164627523e-04   9.8064351637576968e-05   8.3299883832157367e-05   7.1583145432068917e-05   6.2115739130807907e-05   6.5356786111005164e-05   5.0761754722437077e-05   1.6729869585444310e-04   1.1487276913214551e-04   1.9599346645141173e-03   1.3378651233625996e-03   2.6822489952478845e-03   2.2762896664677915e-03   7.3417611158945947e-03   3.1236110855995159e-03   5.8954963175381341e-02   4.3246280495363394e-02   3.0759153063048922e-01   3.4138402001510587e-01   2.6371242778040355e-01   6.2681234241202854e-01   2.6314096022994931e-02   1.9914831656817941e-01   9.1040069360506646e-05   7.0701185740609717e-03   1.0630198122187804e-04   8.3580271807307262e-05   1.4393152313141239e-03   9.5417108200772079e-04   2.1498965497025384e-03   1.6087308399080956e-03   1.2843629380908149e-03   1.5244935872269006e-03   3.0567053581604444e-04   7.9772823838184870e-04   1.6801348648375947e-02   2.1399731244885320e-04   5.7350002721669180e-01   4.9053507854708084e-01   3.7428563602868221e-05   4.1632225329713801e-05   3.0181370338154926e-05   4.7553964295715811e-05   3.4521882796958016e-05   4.8207317532840239e-05   3.7092628126006560e-05   4.1561907751589863e-05   3.4187362134343586e-05   3.4051116554837332e-05   2.8263037934455080e-05   3.3515374959955649e-05   2.6340178658543162e-05   6.2231625002658367e-04   2.9688179363349674e-04   1.2623849552808653e-03   9.1006699845434347e-04   3.0881069137177397e-03   2.9694381424087406e-03   1.2820973259001809e-02   9.3032330802276363e-03   3.0973346160392679e-01   2.7674939806002857e-01   7.9027071159784346e-01   9.0199523290193862e-01   1.0000000000000000e+00   1.0000000000000000e+00   2.1413227981065994e-01   6.0088537696381139e-01   8.6265642880989941e-03   2.5033013400807859e-02   4.1427272756407098e-04   1.8566975652415003e-03   7.5316702323232016e-04   5.9534878564353048e-04   7.9755752245470445e-04   6.1797109785496169e-04   6.3167237483748571e-04   5.5078146620562648e-04   4.7356421252154587e-04   4.2173860362437299e-04   6.2464507463120968e-02   3.5361532029990284e-03   8.2811295886146064e-01   3.5985287101362762e-01   1.7978177909559256e-05   1.9562498283251523e-05   1.4469819810445198e-05   1.9619109220129793e-05   3.8467885554814079e-05   1.8011796455007341e-05   1.5021079716613861e-05   1.7552946500818735e-05   1.5088160816199628e-05   1.2133490334801189e-04   6.0179314705200424e-05   4.3879489415057059e-04   3.2354212766716732e-04   4.3698681546070267e-03   4.2515699479981888e-03   1.5266087896393962e-02   2.0821287109714932e-02   2.1744452566333089e-01   2.3301351889745178e-01   5.4004431637407591e-01   5.3510547957016275e-01   9.9996950869199164e-01   9.9988639318400985e-01   9.9997543484599605e-01   9.9994308985204761e-01   3.9047857436683664e-01   5.2493993129328675e-01   1.5771819792438791e-02   2.7600429681561962e-02   1.4314755492451348e-03   2.3494703229393005e-03   3.5887472116523882e-04   2.3362928982540378e-04   3.3531530670543209e-04   2.6305254510932172e-04   2.9517597616203001e-04   2.2592142192481236e-04   9.7637378601467761e-04   2.8023862168811411e-04   9.2832918517415704e-03   4.7063294775902308e-03   3.7753924863801086e-01   1.1962415324980465e-01   8.5856296334437460e-06   9.5584607235907673e-06   8.0474819846880901e-06   1.1206981881977193e-05   1.0836490498042466e-05   7.8356272710959250e-05   1.4770635874226840e-05   1.5903931430322595e-04   7.7497355235280529e-05   2.0595918522763368e-05   1.8680373272565212e-05   2.2661929784677872e-02   1.3361510779574623e-01   4.4257235359659974e-01   5.0883684399674967e-01   5.9824589665540084e-01   6.6733323323773530e-01   9.9993117055448222e-01   9.9996460594974901e-01   9.9330502852397629e-01   9.9620237038150727e-01   9.7088572561825093e-01   8.7835832947353765e-01   2.3667709623757699e-01   2.3772488294476685e-01   2.8948214168957579e-04   2.3636554944520057e-05   7.3307241231309770e-05   1.5261226907796906e-05   2.3138799052451448e-05   1.0407317171308703e-05   1.1870650990947651e-04   4.2131509015939940e-05   1.0636380396688292e-04   6.6913202055580425e-05   8.3091202715420841e-04   2.2231927419805967e-04   4.7434735933193466e-03   2.4395890633659703e-03   2.7788865002138412e-03   4.3495532844618290e-03   8.0057459847723731e-06   1.5058038523849022e-05   1.2540809312634267e-05   2.5783445174004675e-05   2.4647753298581997e-05   2.7230049482926156e-04   7.6935702146677858e-05   2.7640287091918303e-01   3.0767166321439121e-01   5.8764276715628005e-01   6.4195642329694513e-01   7.7003593152271133e-01   8.1253840995154580e-01   9.9997397863502901e-01   9.9997533968129659e-01   6.7175212083060198e-01   7.6817380564317839e-01   5.3733438278038170e-01   5.5794441301153341e-01   7.4404854976571908e-07   1.2440629744212196e-05   1.6852018908242717e-06   0.0000000000000000e+00   9.2847534249120614e-06   7.8663044846289966e-06   7.4807580183937691e-06   6.5498804947024295e-06   5.7756469072288940e-06   4.9850104356644215e-06   1.2865836015287090e-05   4.1639469946647464e-06   3.2750577409931768e-05   6.2837019977935174e-06   4.1662480300252530e-04   2.5238959762558756e-05   1.0850576800592818e-03   5.6943920260020086e-04   1.5025183900431098e-03   1.0865452388835576e-03   1.9319448718547558e-05   4.3987475616359994e-05   3.9412348049604669e-05   3.5155997703890784e-01   3.4124832226343987e-01   6.4282741578452818e-01   6.6310820813282034e-01   9.6271479826710360e-01   9.9324617492732370e-01   9.9995593459400123e-01   9.9993475305337454e-01   8.1482571212610366e-01   7.7251290337989431e-01   5.5941562666423994e-01   5.6344076092116502e-01   4.1812079845192604e-05   7.1571851699120887e-03   1.2237521719322205e-05   1.7340051302298171e-05   5.9237217367286489e-06   6.6057548037680056e-06   4.9141765917909405e-06   4.7994951769737362e-06   3.8085060524213908e-06   3.5912999080680302e-06   3.0775063638010014e-06   2.8318881852630585e-06   2.8416013939874087e-06   2.5072594628251200e-06   4.1638071784948437e-06   2.6367526690291968e-06   5.9252054595013444e-06   3.6112221675697765e-06   3.2120335798933945e-04   5.3175798159454089e-06   8.0726368328379804e-04   2.1725094249310314e-04   2.6425321296766530e-01   6.8693431261496452e-01   7.1946291044036292e-01   8.7463172422303737e-01   9.2526670411013079e-01   8.5022570663452235e-01   8.0186807748657274e-01   7.0682648283785787e-01   6.3885748052657731e-01   5.3834274855436648e-01   4.6803765259550922e-01   8.1058526832362837e-03   2.5751599135047910e-03   6.1464618942350265e-04   1.0095430601230809e-03   1.2355848956434807e-05   1.3943358724616591e-05   5.7878138404507258e-06   6.4349606535851241e-06   3.6855420050497373e-06   3.9918114345697485e-06   2.7734208281619694e-06   2.9823489361616828e-06   2.3487219058544811e-06   2.5074626092421963e-06   2.2371479257534352e-06   2.5311790084016479e-06   2.4587845625590504e-06   2.5647762750182735e-06   3.1677013838718364e-06   1.1331298465193490e-05   4.6276091289048603e-06   3.7817084579899302e-06   7.4351845250113994e-06   5.6548266581931197e-06   9.9997516845918855e-01   8.3107932094601600e-01   8.7373524114212964e-01   5.6953392511383993e-01   5.3638975407942302e-01   3.1838844643523750e-01   1.6552062097154421e-01   5.3174268833964255e-05   7.1014113637076822e-03   3.6394840677536058e-04   4.8391123604403491e-04   5.8247749256037083e-05   2.6809344429420869e-04   8.7722711093821363e-06   9.6531992968671569e-06   5.3903489772915834e-06   6.1724631423089782e-06   4.0382883284584879e-06   4.8367609111098485e-06   3.4314029464766913e-06   4.3067922925441860e-06   3.2427782366220182e-06   4.0965799890066823e-06   3.2793581125099956e-06   4.0913009531787465e-06   3.3471912349678496e-06   4.0844955977875200e-06   3.5905052067844904e-06   4.1712392395013102e-06   4.6718307921548594e-06   4.5309934713641548e-06   6.0018296581296270e-06   5.8597095995804282e-06   8.2131712209000705e-06   4.5475939011276872e-01   2.1722665378365053e-02   7.2833117220324119e-03   5.2056560182415119e-03   5.4117870789579300e-03   1.7493021294281831e-03   1.5778203670907447e-03   2.0145520446896161e-04   1.2170476992383717e-04   1.2519954031258839e-05   1.4374578533773151e-05   9.0753366773564824e-06   1.0299135742098427e-05   7.7089153415554847e-06   9.1802040660978958e-06   7.2034297626502999e-06   9.1360806435029773e-06   7.1721128754445954e-06   9.4669507533765541e-06   7.0569673705164796e-06   9.2915943317114492e-06   6.8888863634786329e-06   9.1783806885292138e-06   6.8847078822500610e-06   8.8409351263954806e-06   6.6834204046603165e-06   8.5867295288069410e-06   6.9411110897441542e-06   8.5127936635518907e-06   8.1366359679957422e-06   9.2835036502945714e-06   1.0506333969922136e-05   1.1361394783358389e-05   1.9591665946840512e-03   1.1627385437221571e-03   1.3717342031104990e-03   1.3206813241097121e-04   4.8280655498561923e-05   1.7752277851692848e-05   1.9822874313585975e-05   1.2860624102550952e-05   1.3818905755762229e-05   1.3807591801557890e-05   1.5683963229182314e-05   1.6127053377086601e-05   1.9520912740169279e-05   1.6958367211733402e-05   2.2037340638077911e-05   1.6876841370556348e-05   2.2742745911142738e-05   1.6480585325377527e-05   2.1734955275160586e-05   1.6218725758118980e-05   2.0958706419892514e-05   1.5593888965629510e-05   1.2572231530244088e-04   1.4526898839890529e-05   1.9410329793046891e-05   1.4091838507183779e-05   1.8202580975319793e-05   1.5826329430866819e-05   1.9062924789998200e-05   2.0129121441879393e-05   2.3447095898143346e-05   5.5261814622565454e-05   2.4074908526206642e-05   2.7594788010857437e-05   1.4920964192928386e-05   1.4911748616944148e-05   1.8986749424567028e-05   1.8377166369018568e-05   3.1529295896826968e-05   3.0889403518432361e-05   3.8722651189699195e-05   4.7344615503744455e-05   4.1100229688972658e-05   5.4693681383530687e-05   3.8839241933142104e-05   5.2460423259776141e-05   3.6963344178953680e-05   4.8920555690919060e-05   1.3131331969453732e-04   4.8569606503923556e-05   3.6444649386395513e-05   2.5708869454295460e-04   3.2378810421173502e-05   4.4063973599394615e-05   2.9528344059940514e-05   3.8820931120829261e-05   3.3137331794787288e-05   3.9491793927276486e-05   4.5496675139819525e-05   5.2007206837819935e-05   7.0051316555518056e-05   2.0351773799707377e-05   1.8364933863282805e-05   7.8089419239988767e-01   3.1085660835170756e-05   7.3856550968968504e-01   5.6242324493638863e-05   7.6289415312246311e-01   8.3831532250101785e-05   7.5772454505995324e-01   8.6893266915986922e-05   7.6607202763112825e-01   8.0385482408123631e-05   7.0080391204822756e-01   7.5354715439353184e-05   7.3843494642895957e-01   4.4919553652321339e-04   7.3132620363118861e-01   7.4176843724353789e-04   6.7962132481636561e-01   6.8976803929175101e-05   7.4849139458589131e-01   6.0593992775884830e-05   7.3105926478957661e-01   6.5275890652315071e-05   7.2633881054652460e-01   9.3700210347799848e-05   7.3659919321087275e-01   1.4570683239036665e-04   7.5841669571911408e-01   8.9556878754311220e-01   9.2960946037579895e-01   9.0347176422396203e-01   9.2648527303508810e-01   8.9969972196560655e-01   9.2201949881452205e-01   9.0321019337468988e-01   9.2188256320200002e-01   9.0732607567004686e-01   9.2798565933762323e-01   9.0128679253487043e-01   9.4345564653421776e-01   9.1233131529349332e-01   9.4479351596272121e-01   9.0518884063806726e-01   9.4839520776563513e-01   9.2020953168239905e-01   9.5512302550245742e-01   9.0598021940875662e-01   9.5600098044639226e-01   8.9499377777077804e-01   9.5231074982504671e-01   9.0353050348236397e-01   9.4891302323937921e-01   9.1158514933700308e-01   9.5102060629065910e-01   9.1587648721021730e-01   9.5765007116245771e-01   </DataArray> 
</CellData> 
</Piece>
</UnstructuredGrid>
</VTKFile>