<?xml version="1.0"?>
<VTKFile type="UnstructuredGrid"  version="0.1"  >
<UnstructuredGrid>
<Piece  NumberOfPoints="323" NumberOfCells="575">
<Points>
<DataArray  type="Float64"  NumberOfComponents="3"  format="ascii">0.3965217391304348 0 0  0.4295652173913043 0 0  0.4295652173913043 0.03333333333333333 0  0.4626086956521739 0 0  0.4626086956521739 0.03333333333333333 0  0.4956521739130435 0 0  0.4956521739130435 0.03333333333333333 0  0.528695652173913 0 0  0.528695652173913 0.03333333333333333 0  0.5617391304347825 0 0  0.5617391304347825 0.03333333333333333 0  0.5947826086956521 0 0  0.5947826086956521 0.03333333333333333 0  0.6278260869565218 0 0  0.6278260869565218 0.03333333333333333 0  0.6608695652173913 0 0  0.6608695652173913 0.03333333333333333 0  0.6939130434782609 0 0  0.6939130434782609 0.03333333333333333 0  0.7269565217391304 0 0  0.7269565217391304 0.03333333333333333 0  0.7599999999999999 0 0  0.7599999999999999 0.03333333333333333 0  0.7930434782608695 0 0  0.7930434782608695 0.03333333333333333 0  0.8260869565217391 0 0  0.8260869565217391 0.03333333333333333 0  0.8591304347826086 0 0  0.8591304347826086 0.03333333333333333 0  0.8921739130434783 0 0  0.8921739130434783 0.03333333333333333 0  0.9252173913043478 0 0  0.9252173913043478 0.03333333333333333 0  0.9582608695652173 0 0  0.9582608695652173 0.03333333333333333 0  0.991304347826087 0 0  0.991304347826087 0.03333333333333333 0  1.024347826086957 0 0  1.024347826086957 0.03333333333333333 0  1.057391304347826 0 0  1.057391304347826 0.03333333333333333 0  1.090434782608696 0.03333333333333333 0  0.4626086956521739 0.06666666666666667 0  0.4956521739130435 0.06666666666666667 0  0.528695652173913 0.06666666666666667 0  0.5617391304347825 0.06666666666666667 0  0.5947826086956521 0.06666666666666667 0  0.6278260869565218 0.06666666666666667 0  0.6608695652173913 0.06666666666666667 0  0.6939130434782609 0.06666666666666667 0  0.7269565217391304 0.06666666666666667 0  0.7599999999999999 0.06666666666666667 0  0.7930434782608695 0.06666666666666667 0  0.8260869565217391 0.06666666666666667 0  0.8591304347826086 0.06666666666666667 0  0.8921739130434783 0.06666666666666667 0  0.9252173913043478 0.06666666666666667 0  0.9582608695652173 0.06666666666666667 0  0.991304347826087 0.06666666666666667 0  1.024347826086957 0.06666666666666667 0  1.057391304347826 0.06666666666666667 0  1.090434782608696 0.06666666666666667 0  1.123478260869565 0.06666666666666667 0  0.4956521739130435 0.1 0  0.528695652173913 0.1 0  0.5617391304347825 0.1 0  0.5947826086956521 0.1 0  0.6278260869565218 0.1 0  0.6608695652173913 0.1 0  0.6939130434782609 0.1 0  0.7269565217391304 0.1 0  0.7599999999999999 0.1 0  0.7930434782608695 0.1 0  0.8260869565217391 0.1 0  0.8591304347826086 0.1 0  0.8921739130434783 0.1 0  0.9252173913043478 0.1 0  0.9582608695652173 0.1 0  0.991304347826087 0.1 0  1.024347826086957 0.1 0  1.057391304347826 0.1 0  1.090434782608696 0.1 0  1.123478260869565 0.1 0  0.528695652173913 0.1333333333333333 0  0.5617391304347825 0.1333333333333333 0  0.5947826086956521 0.1333333333333333 0  0.6278260869565218 0.1333333333333333 0  0.6608695652173913 0.1333333333333333 0  0.6939130434782609 0.1333333333333333 0  0.7269565217391304 0.1333333333333333 0  0.7599999999999999 0.1333333333333333 0  0.7930434782608695 0.1333333333333333 0  0.8260869565217391 0.1333333333333333 0  0.8591304347826086 0.1333333333333333 0  0.8921739130434783 0.1333333333333333 0  0.9252173913043478 0.1333333333333333 0  0.9582608695652173 0.1333333333333333 0  0.991304347826087 0.1333333333333333 0  1.024347826086957 0.1333333333333333 0  1.057391304347826 0.1333333333333333 0  1.090434782608696 0.1333333333333333 0  1.123478260869565 0.1333333333333333 0  1.156521739130435 0.1333333333333333 0  0.5617391304347825 0.1666666666666667 0  0.5947826086956521 0.1666666666666667 0  0.6278260869565218 0.1666666666666667 0  0.6608695652173913 0.1666666666666667 0  0.6939130434782609 0.1666666666666667 0  0.7269565217391304 0.1666666666666667 0  0.7599999999999999 0.1666666666666667 0  0.7930434782608695 0.1666666666666667 0  0.8260869565217391 0.1666666666666667 0  0.8591304347826086 0.1666666666666667 0  0.8921739130434783 0.1666666666666667 0  0.9252173913043478 0.1666666666666667 0  0.9582608695652173 0.1666666666666667 0  0.991304347826087 0.1666666666666667 0  1.024347826086957 0.1666666666666667 0  1.057391304347826 0.1666666666666667 0  1.090434782608696 0.1666666666666667 0  1.123478260869565 0.1666666666666667 0  1.156521739130435 0.1666666666666667 0  1.189565217391304 0.1666666666666667 0  0.5947826086956521 0.2 0  0.6278260869565218 0.2 0  0.6608695652173913 0.2 0  0.6939130434782609 0.2 0  0.7269565217391304 0.2 0  0.7599999999999999 0.2 0  0.7930434782608695 0.2 0  0.8260869565217391 0.2 0  0.8591304347826086 0.2 0  0.8921739130434783 0.2 0  0.9252173913043478 0.2 0  0.9582608695652173 0.2 0  0.991304347826087 0.2 0  1.024347826086957 0.2 0  1.057391304347826 0.2 0  1.090434782608696 0.2 0  1.123478260869565 0.2 0  1.156521739130435 0.2 0  1.189565217391304 0.2 0  1.222608695652174 0.2 0  0.6278260869565218 0.2333333333333333 0  0.6608695652173913 0.2333333333333333 0  0.6939130434782609 0.2333333333333333 0  0.7269565217391304 0.2333333333333333 0  0.7599999999999999 0.2333333333333333 0  0.7930434782608695 0.2333333333333333 0  0.8260869565217391 0.2333333333333333 0  0.8591304347826086 0.2333333333333333 0  0.8921739130434783 0.2333333333333333 0  0.9252173913043478 0.2333333333333333 0  0.9582608695652173 0.2333333333333333 0  0.991304347826087 0.2333333333333333 0  1.024347826086957 0.2333333333333333 0  1.057391304347826 0.2333333333333333 0  1.090434782608696 0.2333333333333333 0  1.123478260869565 0.2333333333333333 0  1.156521739130435 0.2333333333333333 0  1.189565217391304 0.2333333333333333 0  1.222608695652174 0.2333333333333333 0  1.255652173913044 0.2333333333333333 0  0.6608695652173913 0.2666666666666667 0  0.6939130434782609 0.2666666666666667 0  0.7269565217391304 0.2666666666666667 0  0.7599999999999999 0.2666666666666667 0  0.7930434782608695 0.2666666666666667 0  0.8260869565217391 0.2666666666666667 0  0.8591304347826086 0.2666666666666667 0  0.8921739130434783 0.2666666666666667 0  0.9252173913043478 0.2666666666666667 0  0.9582608695652173 0.2666666666666667 0  0.991304347826087 0.2666666666666667 0  1.024347826086957 0.2666666666666667 0  1.057391304347826 0.2666666666666667 0  1.090434782608696 0.2666666666666667 0  1.123478260869565 0.2666666666666667 0  1.156521739130435 0.2666666666666667 0  1.189565217391304 0.2666666666666667 0  1.222608695652174 0.2666666666666667 0  1.255652173913044 0.2666666666666667 0  1.288695652173913 0.2666666666666667 0  0.6939130434782609 0.3 0  0.7269565217391304 0.3 0  0.7599999999999999 0.3 0  0.7930434782608695 0.3 0  0.8260869565217391 0.3 0  0.8591304347826086 0.3 0  0.8921739130434783 0.3 0  0.9252173913043478 0.3 0  0.9582608695652173 0.3 0  0.991304347826087 0.3 0  1.024347826086957 0.3 0  1.057391304347826 0.3 0  1.090434782608696 0.3 0  1.123478260869565 0.3 0  1.156521739130435 0.3 0  1.189565217391304 0.3 0  1.222608695652174 0.3 0  1.255652173913044 0.3 0  1.288695652173913 0.3 0  1.321739130434783 0.3 0  0.7269565217391304 0.3333333333333333 0  0.7599999999999999 0.3333333333333333 0  0.7930434782608695 0.3333333333333333 0  0.8260869565217391 0.3333333333333333 0  0.8591304347826086 0.3333333333333333 0  0.8921739130434783 0.3333333333333333 0  0.9252173913043478 0.3333333333333333 0  0.9582608695652173 0.3333333333333333 0  0.991304347826087 0.3333333333333333 0  1.024347826086957 0.3333333333333333 0  1.057391304347826 0.3333333333333333 0  1.090434782608696 0.3333333333333333 0  1.123478260869565 0.3333333333333333 0  1.156521739130435 0.3333333333333333 0  1.189565217391304 0.3333333333333333 0  1.222608695652174 0.3333333333333333 0  1.255652173913044 0.3333333333333333 0  1.288695652173913 0.3333333333333333 0  1.321739130434783 0.3333333333333333 0  1.354782608695652 0.3333333333333333 0  0.7599999999999999 0.3666666666666666 0  0.7930434782608695 0.3666666666666666 0  0.8260869565217391 0.3666666666666666 0  0.8591304347826086 0.3666666666666666 0  0.8921739130434783 0.3666666666666666 0  0.9252173913043478 0.3666666666666666 0  0.9582608695652173 0.3666666666666666 0  0.991304347826087 0.3666666666666666 0  1.024347826086957 0.3666666666666666 0  1.057391304347826 0.3666666666666666 0  1.090434782608696 0.3666666666666666 0  1.123478260869565 0.3666666666666666 0  1.156521739130435 0.3666666666666666 0  1.189565217391304 0.3666666666666666 0  1.222608695652174 0.3666666666666666 0  1.255652173913044 0.3666666666666666 0  1.288695652173913 0.3666666666666666 0  1.321739130434783 0.3666666666666666 0  1.354782608695652 0.3666666666666666 0  1.387826086956522 0.3666666666666666 0  0.7930434782608695 0.4 0  0.8260869565217391 0.4 0  0.8591304347826086 0.4 0  0.8921739130434783 0.4 0  0.9252173913043478 0.4 0  0.9582608695652173 0.4 0  0.991304347826087 0.4 0  1.024347826086957 0.4 0  1.057391304347826 0.4 0  1.090434782608696 0.4 0  1.123478260869565 0.4 0  1.156521739130435 0.4 0  1.189565217391304 0.4 0  1.222608695652174 0.4 0  1.255652173913044 0.4 0  1.288695652173913 0.4 0  1.321739130434783 0.4 0  1.354782608695652 0.4 0  1.387826086956522 0.4 0  1.420869565217391 0.4 0  0.8260869565217391 0.4333333333333333 0  0.8591304347826086 0.4333333333333333 0  0.8921739130434783 0.4333333333333333 0  0.9252173913043478 0.4333333333333333 0  0.9582608695652173 0.4333333333333333 0  0.991304347826087 0.4333333333333333 0  1.024347826086957 0.4333333333333333 0  1.057391304347826 0.4333333333333333 0  1.090434782608696 0.4333333333333333 0  1.123478260869565 0.4333333333333333 0  1.156521739130435 0.4333333333333333 0  1.189565217391304 0.4333333333333333 0  1.222608695652174 0.4333333333333333 0  1.255652173913044 0.4333333333333333 0  1.288695652173913 0.4333333333333333 0  1.321739130434783 0.4
[...]
<CellData  Scalars="rho_bar"> 
<DataArray  type="Float64"  Name="rho_bar"  format="ascii">9.9999999999999989e-01   9.9999999999999989e-01   9.9999999999999989e-01   9.9999999999999989e-01   9.9999999999999989e-01   1.0000000000000000e+00   1.0000000000000000e+00   1.0000000000000000e+00   1.0000000000000000e+00   9.9999999999999989e-01   9.9999999999999989e-01   9.9999999999999989e-01   9.9999999999999989e-01   1.0000000000000000e+00   1.0000000000000000e+00   9.9999999999999989e-01   9.9999999999999989e-01   1.0000000000000000e+00   1.0000000000000000e+00   1.0000000000000000e+00   1.0000000000000000e+00   9.9999999999999989e-01   9.9999999999999989e-01   9.9999999999999989e-01   9.9999999999999989e-01   1.0000000000000000e+00   1.0000000000000000e+00   9.9999999999999989e-01   9.9999999999999989e-01   1.0000000000000000e+00   1.0000000000000000e+00   1.0000000000000000e+00   1.0000000000000000e+00   1.0000000000000000e+00   1.0000000000000000e+00   1.0000000000000000e+00   1.0000000000000000e+00   1.0000000000000000e+00   1.0000000000000000e+00   1.0000000000000000e+00   9.9999999999999989e-01   9.9999999999999989e-01   9.9999999999999989e-01   1.0000000000000000e+00   1.0000000000000000e+00   1.0000000000000000e+00   1.0000000000000000e+00   6.6669297637049607e-01   6.6666720850690364e-01   6.6666666666377794e-01   3.3333332768398527e-01   6.6666666652625917e-01   9.8121992329371382e-02   6.6666666666324692e-01   2.0190026875255462e-01   6.6666666666607399e-01   3.0698877884289449e-01   6.6666666666494845e-01   2.6380050142831296e-01   6.6666666666088459e-01   1.5265309870335261e-01   6.6666666665175989e-01   6.6300568411463728e-02   6.6666666663774399e-01   3.1389734326733934e-02   6.6666666662181573e-01   1.8381925940022827e-02   6.6666666660736018e-01   1.2909653542544334e-02   6.6666666659629215e-01   1.0365315307151365e-02   6.6666666658881468e-01   9.0743732722274491e-03   6.6666666658436946e-01   8.4266096125529526e-03   6.6666666658219009e-01   8.0995440181271614e-03   6.6666666658198037e-01   8.0070978656909906e-03   8.0834350735891243e-03   1.0000000000000000e+00   1.0000000000000000e+00   1.0000000000000000e+00   1.0000000000000000e+00   1.0000000000000000e+00   2.2351432288423345e-01   6.6666665453137930e-01   0.0000000000000000e+00   0.0000000000000000e+00   0.0000000000000000e+00   0.0000000000000000e+00   0.0000000000000000e+00   0.0000000000000000e+00   0.0000000000000000e+00   0.0000000000000000e+00   0.0000000000000000e+00   0.0000000000000000e+00   0.0000000000000000e+00   0.0000000000000000e+00   0.0000000000000000e+00   0.0000000000000000e+00   0.0000000000000000e+00   0.0000000000000000e+00   0.0000000000000000e+00   0.0000000000000000e+00   0.0000000000000000e+00   0.0000000000000000e+00   0.0000000000000000e+00   0.0000000000000000e+00   0.0000000000000000e+00   0.0000000000000000e+00   0.0000000000000000e+00   0.0000000000000000e+00   0.0000000000000000e+00   0.0000000000000000e+00   0.0000000000000000e+00   0.0000000000000000e+00   0.0000000000000000e+00   0.0000000000000000e+00   1.0000000000000000e+00   1.0000000000000000e+00   1.0000000000000000e+00   4.7480144389159057e-01   9.9999999999996469e-01   0.0000000000000000e+00   0.0000000000000000e+00   0.0000000000000000e+00   0.0000000000000000e+00   0.0000000000000000e+00   0.0000000000000000e+00   0.0000000000000000e+00   0.0000000000000000e+00   0.0000000000000000e+00   0.0000000000000000e+00   0.0000000000000000e+00   0.0000000000000000e+00   0.0000000000000000e+00   0.0000000000000000e+00   0.0000000000000000e+00   0.0000000000000000e+00   0.0000000000000000e+00   0.0000000000000000e+00   0.0000000000000000e+00   0.0000000000000000e+00   0.0000000000000000e+00   0.0000000000000000e+00   0.0000000000000000e+00   0.0000000000000000e+00   0.0000000000000000e+00   0.0000000000000000e+00   0.0000000000000000e+00   0.0000000000000000e+00   0.0000000000000000e+00   0.0000000000000000e+00   0.0000000000000000e+00   0.0000000000000000e+00   0.0000000000000000e+00   1.0000000000000000e+00   1.0000000000000000e+00   1.0000000000000000e+00   5.6972389768835309e-12   9.4788814525581011e-01   0.0000000000000000e+00   0.0000000000000000e+00   0.0000000000000000e+00   0.0000000000000000e+00   0.0000000000000000e+00   0.0000000000000000e+00   0.0000000000000000e+00   0.0000000000000000e+00   0.0000000000000000e+00   0.0000000000000000e+00   0.0000000000000000e+00   0.0000000000000000e+00   0.0000000000000000e+00   0.0000000000000000e+00   0.0000000000000000e+00   0.0000000000000000e+00   0.0000000000000000e+00   0.0000000000000000e+00   0.0000000000000000e+00   0.0000000000000000e+00   0.0000000000000000e+00   0.0000000000000000e+00   0.0000000000000000e+00   0.0000000000000000e+00   0.0000000000000000e+00   0.0000000000000000e+00   0.0000000000000000e+00   0.0000000000000000e+00   0.0000000000000000e+00   0.0000000000000000e+00   0.0000000000000000e+00   0.0000000000000000e+00   0.0000000000000000e+00   9.9999999999999989e-01   9.9999999999997558e-01   9.9999999999999989e-01   1.6719583858422944e-06   9.9946079745733107e-01   0.0000000000000000e+00   2.0354088784794536e-16   0.0000000000000000e+00   0.0000000000000000e+00   0.0000000000000000e+00   0.0000000000000000e+00   0.0000000000000000e+00   0.0000000000000000e+00   0.0000000000000000e+00   0.0000000000000000e+00   0.0000000000000000e+00   0.0000000000000000e+00   0.0000000000000000e+00   0.0000000000000000e+00   0.0000000000000000e+00   0.0000000000000000e+00   0.0000000000000000e+00   0.0000000000000000e+00   0.0000000000000000e+00   0.0000000000000000e+00   0.0000000000000000e+00   0.0000000000000000e+00   0.0000000000000000e+00   0.0000000000000000e+00   0.0000000000000000e+00   0.0000000000000000e+00   0.0000000000000000e+00   0.0000000000000000e+00   0.0000000000000000e+00   0.0000000000000000e+00   0.0000000000000000e+00   0.0000000000000000e+00   0.0000000000000000e+00   1.0000000000000000e+00   1.0000000000000000e+00   1.0000000000000000e+00   5.0001689932355498e-01   1.0000000000000000e+00   0.0000000000000000e+00   3.3333281154282129e-01   0.0000000000000000e+00   0.0000000000000000e+00   0.0000000000000000e+00   0.0000000000000000e+00   0.0000000000000000e+00   0.0000000000000000e+00   0.0000000000000000e+00   0.0000000000000000e+00   0.0000000000000000e+00   0.0000000000000000e+00   0.0000000000000000e+00   0.0000000000000000e+00   0.0000000000000000e+00   0.0000000000000000e+00   0.0000000000000000e+00   0.0000000000000000e+00   0.0000000000000000e+00   0.0000000000000000e+00   0.0000000000000000e+00   0.0000000000000000e+00   0.0000000000000000e+00   0.0000000000000000e+00   0.0000000000000000e+00   0.0000000000000000e+00   0.0000000000000000e+00   0.0000000000000000e+00   0.0000000000000000e+00   0.0000000000000000e+00   0.0000000000000000e+00   0.0000000000000000e+00   0.0000000000000000e+00   1.0000000000000000e+00   1.0000000000000000e+00   1.0000000000000000e+00   6.7380706632374521e-01   1.0000000000000000e+00   1.7578531223231644e-16   5.1847731019976473e-01   0.0000000000000000e+00   0.0000000000000000e+00   0.0000000000000000e+00   0.0000000000000000e+00   0.0000000000000000e+00   0.0000000000000000e+00   0.0000000000000000e+00   0.0000000000000000e+00   0.0000000000000000e+00   0.0000000000000000e+00   0.0000000000000000e+00   0.0000000000000000e+00   0.0000000000000000e+00   0.0000000000000000e+00   0.0000000000000000e+00   0.0000000000000000e+00   0.0000000000000000e+00   0.0000000000000000e+00   0.0000000000000000e+00   0.0000000000000000e+00   0.0000000000000000e+00   0.0000000000000000e+00   0.0000000000000000e+00   0.0000000000000000e+00   0.0000000000000000e+00   0.0000000000000000e+00   0.0000000000000000e+00   0.0000000000000000e+00   0.0000000000000000e+00   0.0000000000000000e+00   0.0000000000000000e+00   9.9999999992349442e-01   1.0000000000000000e+00   9.9999999999999800e-01   1.0000000000000000e+00   1.0000000000000000e+00   1.6665197691111916e-01   9.9999999986207955e-01   0.0000000000000000e+00   7.3099674461711109e-12   0.0000000000000000e+00   0.0000000000000000e+00   0.0000000000000000e+00   0.0000000000000000e+00   0.0000000000000000e+00   0.0000000000000000e+00   0.0000000000000000e+00   0.0000000000000000e+00   0.0000000000000000e+00   0.0000000000000000e+00   0.0000000000000000e+00   0.0000000000000000e+00   0.0000000000000000e+00   0.0000000000000000e+00   0.0000000000000000e+00   0.0000000000000000e+00   0.0000000000000000e+00   0.0000000000000000e+00   0.0000000000000000e+00   0.0000000000000000e+00   0.0000000000000000e+00   0.0000000000000000e+00   0.0000000000000000e+00   0.0000000000000000e+00   0.0000000000000000e+00   0.0000000000000000e+00   0.0000000000000000e+00   0.0000000000000000e+00   8.2842714170065327e-12   5.5152779033136401e-01   1.0000000000000000e+00   9.9999851571051834e-01   1.0000000000000000e+00   1.0000000000000000e+00   1.6649919216518555e-01   9.9999999816995766e-01   0.0000000000000000e+00   0.0000000000000000e+00   0.0000000000000000e+00   0.0000000000000000e+00   0.0000000000000000e+00   0.0000000000000000e+00   0.0000000000000000e+00   0.0000000000000000e+00   0.0000000000000000e+00   0.0000000000000000e+00   0.0000000000000000e+00   0.0000000000000000e+00   0.0000000000000000e+00   0.0000000000000000e+00   0.0000000000000000e+00   0.0000000000000000e+00   0.0000000000000000e+00   0.0000000000000000e+00   0.0000000000000000e+00   0.0000000000000000e+00   0.0000000000000000e+00   0.0000000000000000e+00   0.0000000000000000e+00   0.0000000000000000e+00   0.0000000000000000e+00   0.0000000000000000e+00   4.6721885619642007e-15   0.0000000000000000e+00   6.6666665721648566e-01   6.6666068490924102e-01   1.0000000000000000e+00   8.2471167285970171e-01   1.0000000000000000e+00   1.0000000000000000e+00   9.9999999999999900e-01   1.0000000000000000e+00   0.0000000000000000e+00   4.9971150751322518e-01   0.0000000000000000e+00   0.0000000000000000e+00   0.0000000000000000e+00   0.0000000000000000e+00   0.0000000000000000e+00   0.0000000000000000e+00   0.0000000000000000e+00   0.0000000000000000e+00   0.0000000000000000e+00   0.0000000000000000e+00   0.0000000000000000e+00   0.0000000000000000e+00   0.0000000000000000e+00   0.0000000000000000e+00   0.0000000000000000e+00   0.0000000000000000e+00   0.0000000000000000e+00   0.0000000000000000e+00   0.0000000000000000e+00   0.0000000000000000e+00   0.0000000000000000e+00   0.0000000000000000e+00   0.0000000000000000e+00   0.0000000000000000e+00   5.0037534543311257e-01   3.3333333333103438e-01   1.0000000000000000e+00   1.0000000000000000e+00   1.0000000000000000e+00   1.0000000000000000e+00   6.6655737567145612e-01   1.0000000000000000e+00   1.0000000000000000e+00   1.0000000000000000e+00   6.0072260113001852e-01   1.0000000000000000e+00   0.0000000000000000e+00   6.2378805824418271e-13   0.0000000000000000e+00   0.0000000000000000e+00   0.0000000000000000e+00   0.0000000000000000e+00   0.0000000000000000e+00   0.0000000000000000e+00   0.0000000000000000e+00   0.0000000000000000e+00   0.0000000000000000e+00   0.0000000000000000e+00   0.0000000000000000e+00   0.0000000000000000e+00   0.0000000000000000e+00   0.0000000000000000e+00   0.0000000000000000e+00   0.0000000000000000e+00   0.0000000000000000e+00   0.0000000000000000e+00   0.0000000000000000e+00   0.0000000000000000e+00   0.0000000000000000e+00   0.0000000000000000e+00   6.6667177853418791e-01   4.9999799404032069e-01   1.0000000000000000e+00   1.0000000000000000e+00   8.9216008678264225e-01   9.9999999924796523e-01   1.6385735361149994e-11   9.6140951440982613e-04   0.0000000000000000e+00   1.0000000000000000e+00   1.0000000000000000e+00   1.0000000000000000e+00   3.3383641464483682e-01   1.0000000000000000e+00   0.0000000000000000e+00   1.7624010698047607e-03   0.0000000000000000e+00   0.0000000000000000e+00   0.0000000000000000e+00   0.0000000000000000e+00   0.0000000000000000e+00   0.0000000000000000e+00   0.0000000000000000e+00   0.0000000000000000e+00   0.0000000000000000e+00   0.0000000000000000e+00   0.0000000000000000e+00   0.0000000000000000e+00   0.0000000000000000e+00   0.0000000000000000e+00   0.0000000000000000e+00   0.0000000000000000e+00   0.0000000000000000e+00   0.0000000000000000e+00   3.3374417248502186e-01   4.3008653663443697e-01   1.0000000000000000e+00   1.0000000000000000e+00   1.0000000000000000e+00   1.0000000000000000e+00   8.3280462674733757e-01   1.0000000000000000e+00   0.0000000000000000e+00   6.2911665903719882e-05   0.0000000000000000e+00   0.0000000000000000e+00   0.0000000000000000e+00   1.0000000000000000e+00   1.0000000000000000e+00   1.0000000000000000e+00   8.1498232536843607e-01   1.0000000000000000e+00   3.3333333333409915e-01   9.9880043668365459e-01   3.3333332948096089e-01   6.6666666666666663e-01   3.3292330903497763e-01   6.6666666666666641e-01   3.0454185320813060e-01   6.6666666666660523e-01   3.1046313414670668e-01   6.6666666666642227e-01   3.3320831383128524e-01   6.6666666666663266e-01   3.3333333323974462e-01   6.6666666666666663e-01   3.3333333333333331e-01   6.6666666666666663e-01   5.0046648758796208e-01   8.3095584246873255e-01   9.9999999999999989e-01   9.9999999999999989e-01   1.0000000000000000e+00   1.0000000000000000e+00   1.0000000000000000e+00   1.0000000000000000e+00   1.0000000000000000e+00   1.0000000000000000e+00   6.4159194674380637e-01   9.9999999999999989e-01   3.3333308183503380e-01   6.6666666667416541e-01   3.2957420392782216e-01   6.6666666666665086e-01   6.6666666666620922e-01   1.0000000000000000e+00   1.0000000000000000e+00   1.0000000000000000e+00   1.0000000000000000e+00   1.0000000000000000e+00   1.0000000000000000e+00   9.9999999999999989e-01   9.9999999999999989e-01   1.0000000000000000e+00   1.0000000000000000e+00   1.0000000000000000e+00   1.0000000000000000e+00   1.0000000000000000e+00   1.0000000000000000e+00   1.0000000000000000e+00   1.0000000000000000e+00   9.9999999999999989e-01   9.9999999999999989e-01   1.0000000000000000e+00   1.0000000000000000e+00   1.0000000000000000e+00   1.0000000000000000e+00   9.9999999999999989e-01   9.9999999999999989e-01   1.0000000000000000e+00   1.0000000000000000e+00   1.0000000000000000e+00   1.0000000000000000e+00   1.0000000000000000e+00   1.0000000000000000e+00   9.9999999999999989e-01   9.9999999999999989e-01   1.0000000000000000e+00   1.0000000000000000e+00   1.0000000000000000e+00   1.0000000000000000e+00   9.9999999999999989e-01   9.9999999999999989e-01   </DataArray> 
</CellData> 
</Piece>
</UnstructuredGrid>
</VTKFile>