<?xml version="1.0"?>
<VTKFile type="UnstructuredGrid"  version="0.1"  >
<UnstructuredGrid>
<Piece  NumberOfPoints="319" NumberOfCells="569">
<Points>
<DataArray  type="Float64"  NumberOfComponents="3"  format="ascii">2.478260869565217 0 0  2.511304347826087 0 0  2.511304347826087 0.03333333333333333 0  2.478260869565217 0.03333333333333333 0  2.544347826086956 0 0  2.544347826086956 0.03333333333333333 0  2.577391304347826 0 0  2.577391304347826 0.03333333333333333 0  2.610434782608696 0 0  2.610434782608696 0.03333333333333333 0  2.643478260869565 0 0  2.643478260869565 0.03333333333333333 0  2.676521739130435 0 0  2.676521739130435 0.03333333333333333 0  2.709565217391304 0 0  2.709565217391304 0.03333333333333333 0  2.742608695652174 0 0  2.742608695652174 0.03333333333333333 0  2.775652173913044 0 0  2.775652173913044 0.03333333333333333 0  2.808695652173913 0 0  2.808695652173913 0.03333333333333333 0  2.841739130434783 0 0  2.841739130434783 0.03333333333333333 0  2.874782608695652 0 0  2.874782608695652 0.03333333333333333 0  2.907826086956522 0 0  2.907826086956522 0.03333333333333333 0  2.940869565217391 0 0  2.940869565217391 0.03333333333333333 0  2.973913043478261 0 0  2.973913043478261 0.03333333333333333 0  2.511304347826087 0.06666666666666667 0  2.478260869565217 0.06666666666666667 0  2.544347826086956 0.06666666666666667 0  2.577391304347826 0.06666666666666667 0  2.610434782608696 0.06666666666666667 0  2.643478260869565 0.06666666666666667 0  2.676521739130435 0.06666666666666667 0  2.709565217391304 0.06666666666666667 0  2.742608695652174 0.06666666666666667 0  2.775652173913044 0.06666666666666667 0  2.808695652173913 0.06666666666666667 0  2.841739130434783 0.06666666666666667 0  2.874782608695652 0.06666666666666667 0  2.907826086956522 0.06666666666666667 0  2.940869565217391 0.06666666666666667 0  2.973913043478261 0.06666666666666667 0  3.006956521739131 0.06666666666666667 0  2.511304347826087 0.1 0  2.478260869565217 0.1 0  2.544347826086956 0.1 0  2.577391304347826 0.1 0  2.610434782608696 0.1 0  2.643478260869565 0.1 0  2.676521739130435 0.1 0  2.709565217391304 0.1 0  2.742608695652174 0.1 0  2.775652173913044 0.1 0  2.808695652173913 0.1 0  2.841739130434783 0.1 0  2.874782608695652 0.1 0  2.907826086956522 0.1 0  2.940869565217391 0.1 0  2.973913043478261 0.1 0  3.006956521739131 0.1 0  3.04 0.1 0  2.511304347826087 0.1333333333333333 0  2.544347826086956 0.1333333333333333 0  2.577391304347826 0.1333333333333333 0  2.610434782608696 0.1333333333333333 0  2.643478260869565 0.1333333333333333 0  2.676521739130435 0.1333333333333333 0  2.709565217391304 0.1333333333333333 0  2.742608695652174 0.1333333333333333 0  2.775652173913044 0.1333333333333333 0  2.808695652173913 0.1333333333333333 0  2.841739130434783 0.1333333333333333 0  2.874782608695652 0.1333333333333333 0  2.907826086956522 0.1333333333333333 0  2.940869565217391 0.1333333333333333 0  2.973913043478261 0.1333333333333333 0  3.006956521739131 0.1333333333333333 0  3.04 0.1333333333333333 0  3.073043478260869 0.1333333333333333 0  2.544347826086956 0.1666666666666667 0  2.511304347826087 0.1666666666666667 0  2.577391304347826 0.1666666666666667 0  2.610434782608696 0.1666666666666667 0  2.643478260869565 0.1666666666666667 0  2.676521739130435 0.1666666666666667 0  2.709565217391304 0.1666666666666667 0  2.742608695652174 0.1666666666666667 0  2.775652173913044 0.1666666666666667 0  2.808695652173913 0.1666666666666667 0  2.841739130434783 0.1666666666666667 0  2.874782608695652 0.1666666666666667 0  2.907826086956522 0.1666666666666667 0  2.940869565217391 0.1666666666666667 0  2.973913043478261 0.1666666666666667 0  3.006956521739131 0.1666666666666667 0  3.04 0.1666666666666667 0  3.073043478260869 0.1666666666666667 0  3.106086956521739 0.1666666666666667 0  2.544347826086956 0.2 0  2.511304347826087 0.2 0  2.577391304347826 0.2 0  2.610434782608696 0.2 0  2.643478260869565 0.2 0  2.676521739130435 0.2 0  2.709565217391304 0.2 0  2.742608695652174 0.2 0  2.775652173913044 0.2 0  2.808695652173913 0.2 0  2.841739130434783 0.2 0  2.874782608695652 0.2 0  2.907826086956522 0.2 0  2.940869565217391 0.2 0  2.973913043478261 0.2 0  3.006956521739131 0.2 0  3.04 0.2 0  3.073043478260869 0.2 0  3.106086956521739 0.2 0  2.544347826086956 0.2333333333333333 0  2.511304347826087 0.2333333333333333 0  2.577391304347826 0.2333333333333333 0  2.610434782608696 0.2333333333333333 0  2.643478260869565 0.2333333333333333 0  2.676521739130435 0.2333333333333333 0  2.709565217391304 0.2333333333333333 0  2.742608695652174 0.2333333333333333 0  2.775652173913044 0.2333333333333333 0  2.808695652173913 0.2333333333333333 0  2.841739130434783 0.2333333333333333 0  2.874782608695652 0.2333333333333333 0  2.907826086956522 0.2333333333333333 0  2.940869565217391 0.2333333333333333 0  2.973913043478261 0.2333333333333333 0  3.006956521739131 0.2333333333333333 0  3.04 0.2333333333333333 0  3.073043478260869 0.2333333333333333 0  3.106086956521739 0.2333333333333333 0  3.139130434782609 0.2333333333333333 0  2.544347826086956 0.2666666666666667 0  2.511304347826087 0.2666666666666667 0  2.577391304347826 0.2666666666666667 0  2.610434782608696 0.2666666666666667 0  2.643478260869565 0.2666666666666667 0  2.676521739130435 0.2666666666666667 0  2.709565217391304 0.2666666666666667 0  2.742608695652174 0.2666666666666667 0  2.775652173913044 0.2666666666666667 0  2.808695652173913 0.2666666666666667 0  2.841739130434783 0.2666666666666667 0  2.874782608695652 0.2666666666666667 0  2.907826086956522 0.2666666666666667 0  2.940869565217391 0.2666666666666667 0  2.973913043478261 0.2666666666666667 0  3.006956521739131 0.2666666666666667 0  3.04 0.2666666666666667 0  3.073043478260869 0.2666666666666667 0  3.106086956521739 0.2666666666666667 0  3.139130434782609 0.2666666666666667 0  3.172173913043478 0.2666666666666667 0  2.544347826086956 0.3 0  2.577391304347826 0.3 0  2.610434782608696 0.3 0  2.643478260869565 0.3 0  2.676521739130435 0.3 0  2.709565217391304 0.3 0  2.742608695652174 0.3 0  2.775652173913044 0.3 0  2.808695652173913 0.3 0  2.841739130434783 0.3 0  2.874782608695652 0.3 0  2.907826086956522 0.3 0  2.940869565217391 0.3 0  2.973913043478261 0.3 0  3.006956521739131 0.3 0  3.04 0.3 0  3.073043478260869 0.3 0  3.106086956521739 0.3 0  3.139130434782609 0.3 0  3.172173913043478 0.3 0  3.205217391304347 0.3 0  2.577391304347826 0.3333333333333333 0  2.544347826086956 0.3333333333333333 0  2.610434782608696 0.3333333333333333 0  2.643478260869565 0.3333333333333333 0  2.676521739130435 0.3333333333333333 0  2.709565217391304 0.3333333333333333 0  2.742608695652174 0.3333333333333333 0  2.775652173913044 0.3333333333333333 0  2.808695652173913 0.3333333333333333 0  2.841739130434783 0.3333333333333333 0  2.874782608695652 0.3333333333333333 0  2.907826086956522 0.3333333333333333 0  2.940869565217391 0.3333333333333333 0  2.973913043478261 0.3333333333333333 0  3.006956521739131 0.3333333333333333 0  3.04 0.3333333333333333 0  3.073043478260869 0.3333333333333333 0  3.106086956521739 0.3333333333333333 0  3.139130434782609 0.3333333333333333 0  3.172173913043478 0.3333333333333333 0  3.205217391304347 0.3333333333333333 0  3.238260869565217 0.3333333333333333 0  2.577391304347826 0.3666666666666666 0  2.544347826086956 0.3666666666666666 0  2.610434782608696 0.3666666666666666 0  2.643478260869565 0.3666666666666666 0  2.676521739130435 0.3666666666666666 0  2.709565217391304 0.3666666666666666 0  2.742608695652174 0.3666666666666666 0  2.775652173913044 0.3666666666666666 0  2.808695652173913 0.3666666666666666 0  2.841739130434783 0.3666666666666666 0  2.874782608695652 0.3666666666666666 0  2.907826086956522 0.3666666666666666 0  2.940869565217391 0.3666666666666666 0  2.973913043478261 0.3666666666666666 0  3.006956521739131 0.3666666666666666 0  3.04 0.3666666666666666 0  3.073043478260869 0.3666666666666666 0  3.106086956521739 0.3666666666666666 0  3.139130434782609 0.3666666666666666 0  3.172173913043478 0.3666666666666666 0  3.205217391304347 0.3666666666666666 0  3.238260869565217 0.3666666666666666 0  2.577391304347826 0.4 0  2.544347826086956 0.4 0  2.610434782608696 0.4 0  2.643478260869565 0.4 0  2.676521739130435 0.4 0  2.709565217391304 0.4 0  2.742608695652174 0.4 0  2.775652173913044 0.4 0  2.808695652173913 0.4 0  2.841739130434783 0.4 0  2.874782608695652 0.4 0  2.907826086956522 0.4 0  2.940869565217391 0.4 0  2.973913043478261 0.4 0  3.006956521739131 0.4 0  3.04 0.4 0  3.073043478260869 0.4 0  3.106086956521739 0.4 0  3.139130434782609 0.4 0  3.172173913043478 0.4 0  3.205217391304347 0.4 0  3.238260869565217 0.4 0  2.577391304347826 0.4333333333333333 0  2.610434782608696 0.4333333333333333 0  2.643478260869565 0.4333333333333333 0  2.676521739130435 0.4333333333333333 0  2.709565217391304 0.4333333333333333 0  2.742608695652174 0.4333333333333333 0  2.775652173913044 0.4333333333333333 0  2.808695652173913 0.4333333333333333 0  2.841739130434783 0.4333333333333333 0  2.874782608695652 0.4333333333333333 0  2.907826086956522 0.4333333333333333 0  2.940869565217391 0.4333333333333333 0  2.973913043478261 0.4333333333333333 0  3.006956521739131 0.4333333333333333 0  3.04 0.4333333333333333 0  3.073043478260869 0.4333333333333333 0  3.106086956521739 0.4333333333333333 0  3.139130434782609 0.4333333333333333 0  3.172173913043478 0.4333333333333333 0  3.205217391304347 0.4333333333333333 0  3.238260869565217 0.4333333333333333 0  3.271304347826087 0.4333333333333333 0  2.610434782608696 0.4666666666666667 0  2.577391304347826 0.4666666666666667 0  2.643478260869565 0.4666666666666667 0  2.676521739130435 0.4666666666666667 0  2.709565217391304 0.4666666666666667 0  2.742608695652174 0.4666666666666667 0  2.775652173913044 0.4666666666666667 0  2.808695652173913 0.4666666666666667 0  2.841739130434783 0.4666666666666667 0  2.874782608695652 0.4666666666666667 0  2.907826086956522 0.4666666666666667 0  2.94
[...]
<PointData  Vectors="Displacement"> 
<DataArray  type="Float64"  Name="Displacement"  NumberOfComponents="3" format="ascii">2.4559840000965152e-04 2.5091994224681678e-03 0.0000000000000000e+00  2.4779106332654564e-04 2.5540592861063201e-03 0.0000000000000000e+00  2.0279180197148495e-04 2.5532582899564483e-03 0.0000000000000000e+00  1.9984247766972193e-04 2.5083984300858556e-03 0.0000000000000000e+00  2.4995766464924231e-04 2.5980819654804416e-03 0.0000000000000000e+00  2.0582903180802674e-04 2.5972809738856136e-03 0.0000000000000000e+00  2.5209817996980677e-04 2.6411544952441275e-03 0.0000000000000000e+00  2.0895413154639752e-04 2.6403535177935756e-03 0.0000000000000000e+00  2.5421258422798546e-04 2.6831639517801561e-03 0.0000000000000000e+00  2.1216702923000530e-04 2.6823630007753205e-03 0.0000000000000000e+00  2.5630084537358575e-04 2.7239974889233412e-03 0.0000000000000000e+00  2.1546760717129355e-04 2.7231965950211324e-03 0.0000000000000000e+00  2.5836290876358168e-04 2.7635425123272109e-03 0.0000000000000000e+00  2.1885552494037470e-04 2.7627417479288321e-03 0.0000000000000000e+00  2.6039864104822135e-04 2.8016870727122787e-03 0.0000000000000000e+00  2.2232991736011404e-04 2.8008866738244115e-03 0.0000000000000000e+00  2.6240740668825391e-04 2.8383208304379663e-03 0.0000000000000000e+00  2.2588817630146357e-04 2.8375222217158313e-03 0.0000000000000000e+00  2.6438312443275981e-04 2.8733370776085287e-03 0.0000000000000000e+00  2.2951766270417357e-04 2.8725554227303175e-03 0.0000000000000000e+00  2.6626450525787839e-04 2.9066653883036684e-03 0.0000000000000000e+00  2.3308852289983278e-04 2.9060524534815189e-03 0.0000000000000000e+00  2.6798957250307923e-04 2.9392731406527300e-03 0.0000000000000000e+00  2.3529327902431813e-04 2.9387829530630105e-03 0.0000000000000000e+00  2.6961593785220845e-04 2.9718421300717469e-03 0.0000000000000000e+00  2.3673750021523330e-04 2.9713246688787861e-03 0.0000000000000000e+00  2.7121083747640038e-04 3.0045478555648453e-03 0.0000000000000000e+00  2.3820713226243648e-04 3.0040329703842857e-03 0.0000000000000000e+00  2.7274289099209073e-04 3.0372907116730050e-03 0.0000000000000000e+00  2.3970365710464952e-04 3.0368635296362414e-03 0.0000000000000000e+00  2.7417408720545409e-04 3.0701313303704300e-03 0.0000000000000000e+00  2.4088827385623901e-04 3.0698170433872234e-03 0.0000000000000000e+00  1.7783565667713896e-04 2.5410018069864280e-03 0.0000000000000000e+00  1.7451367625536521e-04 2.4954946655956780e-03 0.0000000000000000e+00  1.8110508107393832e-04 2.5857412134704626e-03 0.0000000000000000e+00  1.8430595902460024e-04 2.6295872965486451e-03 0.0000000000000000e+00  1.8742463346518463e-04 2.6724087673726791e-03 0.0000000000000000e+00  1.9045382387896043e-04 2.7140702002667735e-03 0.0000000000000000e+00  1.9339572151726636e-04 2.7544375392016484e-03 0.0000000000000000e+00  1.9625757682458918e-04 2.7933949400129471e-03 0.0000000000000000e+00  1.9902984409369669e-04 2.8308724098393924e-03 0.0000000000000000e+00  2.0164675256100815e-04 2.8668800215217003e-03 0.0000000000000000e+00  2.0391004731304423e-04 2.9016563954018726e-03 0.0000000000000000e+00  2.0555195166185701e-04 2.9357356667530682e-03 0.0000000000000000e+00  2.0652150316433191e-04 2.9692089281824637e-03 0.0000000000000000e+00  2.0700106295767803e-04 3.0023802407093247e-03 0.0000000000000000e+00  2.0658918639132276e-04 3.0363648427726665e-03 0.0000000000000000e+00  2.0784644514392330e-04 3.0698433580126183e-03 0.0000000000000000e+00  2.0790762877569957e-04 3.1031304586663865e-03 0.0000000000000000e+00  1.5153993614044087e-04 2.5288340822038221e-03 0.0000000000000000e+00  1.4795951659212907e-04 2.4825578673831291e-03 0.0000000000000000e+00  1.5495237623606268e-04 2.5744235680940177e-03 0.0000000000000000e+00  1.5816678851187513e-04 2.6191878709713101e-03 0.0000000000000000e+00  1.6115750394938929e-04 2.6629743457183179e-03 0.0000000000000000e+00  1.6391018059504884e-04 2.7056181160792316e-03 0.0000000000000000e+00  1.6642835989510955e-04 2.7469504135089143e-03 0.0000000000000000e+00  1.6873321141150634e-04 2.7868341542202383e-03 0.0000000000000000e+00  1.7084665633839354e-04 2.8252211714485044e-03 0.0000000000000000e+00  1.7276634312582612e-04 2.8621814141128244e-03 0.0000000000000000e+00  1.7438141230705260e-04 2.8980644514228228e-03 0.0000000000000000e+00  1.7564202810304715e-04 2.9330993407640075e-03 0.0000000000000000e+00  1.7656513029716008e-04 2.9674320688479125e-03 0.0000000000000000e+00  1.7681591803763523e-04 3.0008991202032623e-03 0.0000000000000000e+00  1.7605589165068972e-04 3.0361055843433874e-03 0.0000000000000000e+00  1.7542698331821213e-04 3.0705741052543490e-03 0.0000000000000000e+00  1.7496243899054286e-04 3.1033875546446219e-03 0.0000000000000000e+00  1.7471242631527092e-04 3.1363002750883322e-03 0.0000000000000000e+00  1.2401207292590157e-04 2.5167897860909369e-03 0.0000000000000000e+00  1.2749604933559217e-04 2.5633504435693707e-03 0.0000000000000000e+00  1.3067711991471298e-04 2.6091674664064273e-03 0.0000000000000000e+00  1.3351812264631309e-04 2.6540632157600842e-03 0.0000000000000000e+00  1.3600002922101929e-04 2.6978347153440441e-03 0.0000000000000000e+00  1.3813405614807641e-04 2.7402609274950838e-03 0.0000000000000000e+00  1.3995682011592623e-04 2.7811522187393958e-03 0.0000000000000000e+00  1.4152829890277623e-04 2.8204440751939093e-03 0.0000000000000000e+00  1.4295078184693453e-04 2.8582163729121341e-03 0.0000000000000000e+00  1.4417086787790523e-04 2.8950049489247366e-03 0.0000000000000000e+00  1.4535432692637732e-04 2.9306896134839514e-03 0.0000000000000000e+00  1.4669679016758247e-04 2.9654680146060440e-03 0.0000000000000000e+00  1.4843196016130827e-04 3.0000274111112281e-03 0.0000000000000000e+00  1.4431596327221512e-04 3.0362058964064371e-03 0.0000000000000000e+00  1.4371320688591816e-04 3.0702598908183220e-03 0.0000000000000000e+00  1.4331184289772110e-04 3.1033268273626003e-03 0.0000000000000000e+00  1.4307212863781042e-04 3.1359029500255707e-03 0.0000000000000000e+00  1.4298501454332852e-04 3.1686093342072111e-03 0.0000000000000000e+00  9.8805442275660106e-05 2.5525310040076482e-03 0.0000000000000000e+00  9.5310223848799083e-05 2.5048888071719775e-03 0.0000000000000000e+00  1.0191444673705092e-04 2.5995285883118340e-03 0.0000000000000000e+00  1.0458766340340891e-04 2.6456747729405885e-03 0.0000000000000000e+00  1.0680359954445243e-04 2.6907159340588101e-03 0.0000000000000000e+00  1.0859421427650505e-04 2.7343545296792410e-03 0.0000000000000000e+00  1.1002648484757918e-04 2.7763402379346832e-03 0.0000000000000000e+00  1.1111199372488387e-04 2.8165394286047418e-03 0.0000000000000000e+00  1.1201976431293345e-04 2.8549555094964782e-03 0.0000000000000000e+00  1.1263745428519540e-04 2.8926601531547220e-03 0.0000000000000000e+00  1.1320706159745868e-04 2.9288716274811725e-03 0.0000000000000000e+00  1.1378357088855430e-04 2.9643751046135765e-03 0.0000000000000000e+00  1.1272476639412595e-04 3.0003384915425957e-03 0.0000000000000000e+00  1.1178368985369049e-04 3.0357532130044010e-03 0.0000000000000000e+00  1.1123909055465901e-04 3.0700356577807379e-03 0.0000000000000000e+00  1.1095132366841266e-04 3.1032699040468067e-03 0.0000000000000000e+00  1.1077904289115262e-04 3.1358398048756970e-03 0.0000000000000000e+00  1.1065308373115681e-04 3.1683744061092012e-03 0.0000000000000000e+00  1.0590280378328546e-04 3.2173548413048040e-03 0.0000000000000000e+00  6.8898121667165888e-05 2.5419651800892610e-03 0.0000000000000000e+00  6.5449900213719015e-05 2.4931386311110373e-03 0.0000000000000000e+00  7.1894919191850795e-05 2.5902681618980828e-03 0.0000000000000000e+00  7.4377224576559954e-05 2.6378112149445091e-03 0.0000000000000000e+00  7.6319170802930284e-05 2.6842676739678882e-03 0.0000000000000000e+00  7.7802193383919363e-05 2.7292133899729379e-03 0.0000000000000000e+00  7.8976284405894788e-05 2.7723245188219082e-03 0.0000000000000000e+00  7.9894077862484924e-05 2.8135998070075762e-03 0.0000000000000000e+00  8.0223000752681982e-05 2.8524484088705017e-03 0.0000000000000000e+00  7.9831233966874359e-05 2.8912540156577037e-03 0.0000000000000000e+00  7.9722345672176193e-05 2.9279665259459341e-03 0.0000000000000000e+00  7.8910641244880181e-05 2.9642580425608398e-03 0.0000000000000000e+00  7.8451610077061350e-05 3.0001651775403478e-03 0.0000000000000000e+00  7.8045041075974425e-05 3.0355541696654603e-03 0.0000000000000000e+00  7.7743293106308760e-05 3.0699675607020059e-03 0.0000000000000000e+00  7.7651673955184391e-05 3.1033272485167223e-03 0.0000000000000000e+00  7.7784571701265226e-05 3.1359383052000124e-03 0.0000000000000000e+00  7.3243452548700028e-05 3.1797695289854464e-03 0.0000000000000000e+00  6.6729943296968061e-05 3.2258884573934253e-03 0.0000000000000000e+00  3.7745154170589915e-05 2.5316509987706975e-03 0.0000000000000000e+00  3.4417298716563827e-05 2.4815392398347689e-03 0.0000000000000000e+00  4.0570840852425604e-05 2.5813833032392207e-03 0.0000000000000000e+00  4.2818006740975863e-05 2.6304848069969677e-03 0.0000000000000000e+00  4.4453790205541730e-05 2.6785308970522581e-03 0.0000000000000000e+00  4.5625064386018358e-05 2.7248328802357952e-03 0.0000000000000000e+00  4.6703625794091524e-05 2.7689575437982433e-03 0.0000000000000000e+00  4.7811323855356934e-05 2.8111059323011598e-03 0.0000000000000000e+00  4.9445406193948165e-05 2.8515287751899642e-03 0.0000000000000000e+00  4.4943364731561793e-05 2.8910704588507061e-03 0.0000000000000000e+00  4.4326304742737063e-05 2.9279028438202416e-03 0.0000000000000000e+00  4.3852876896787062e-05 2.9640915001372652e-03 0.0000000000000000e+00  4.3361821874063564e-05 3.0000678776020595e-03 0.0000000000000000e+00  4.3143697680460513e-05 3.0354692106969727e-03 0.0000000000000000e+00  4.3070260143321970e-05 3.0700680080062649e-03 0.0000000000000000e+00  4.3254305966595202e-05 3.1038899911057967e-03 0.0000000000000000e+00  3.8768392791600805e-05 3.1475132867965047e-03 0.0000000000000000e+00  3.2153814327003312e-05 3.1916532246696818e-03 0.0000000000000000e+00  2.6273726607327079e-05 3.2361350015162396e-03 0.0000000000000000e+00  2.1505198233118693e-05 3.2780229756756126e-03 0.0000000000000000e+00  5.2752958181399696e-06 2.5216063917837791e-03 0.0000000000000000e+00  2.1920156997380967e-06 2.4700952376997738e-03 0.0000000000000000e+00  7.8033097118052586e-06 2.5728922713707456e-03 0.0000000000000000e+00  9.6885629763288642e-06 2.6237612867085441e-03 0.0000000000000000e+00  1.0834733659128420e-05 2.6736720748571385e-03 0.0000000000000000e+00  1.1467300516398333e-05 2.7215451994465675e-03 0.0000000000000000e+00  1.1812420097511907e-05 2.7665730516165934e-03 0.0000000000000000e+00  1.2095106740928871e-05 2.8102348019294131e-03 0.0000000000000000e+00  1.0455058756490169e-05 2.8518164964458407e-03 0.0000000000000000e+00  9.5423033253713149e-06 2.8906238762850473e-03 0.0000000000000000e+00  9.0134471807467980e-06 2.9277376597202005e-03 0.0000000000000000e+00  8.5953784586682178e-06 2.9639426979752551e-03 0.0000000000000000e+00  8.2127051527221110e-06 2.9999318392681892e-03 0.0000000000000000e+00  8.0436757818325460e-06 3.0353556474225665e-03 0.0000000000000000e+00  5.7568191812978961e-06 3.0779924723287745e-03 0.0000000000000000e+00  1.3543310647727142e-06 3.1168913570647338e-03 0.0000000000000000e+00  -4.4268111034645906e-06 3.1601301431272394e-03 0.0000000000000000e+00  -1.0053881768714729e-05 3.2038898344163777e-03 0.0000000000000000e+00  -1.5260106649789558e-05 3.2469511942891990e-03 0.0000000000000000e+00  -1.9724159244595022e-05 3.2881802374239723e-03 0.0000000000000000e+00  -2.3769465713629518e-05 3.3275476262912542e-03 0.0000000000000000e+00  -2.8562393867914034e-05 2.5118926206538347e-03 0.0000000000000000e+00  -2.6547188326088751e-05 2.5648298597565010e-03 0.0000000000000000e+00  -2.5218453558483937e-05 2.6176763722749988e-03 0.0000000000000000e+00  -2.4640387722481980e-05 2.6698373164931832e-03 0.0000000000000000e+00  -2.4500324669848107e-05 2.7192577250779461e-03 0.0000000000000000e+00  -2.3706668007400893e-05 2.7653941353303698e-03 0.0000000000000000e+00  -2.4896356326445414e-05 2.8089692147892443e-03 0.0000000000000000e+00  -2.6285986874003991e-05 2.8511447954202348e-03 0.0000000000000000e+00  -2.6888975657319493e-05 2.8903877672418064e-03 0.0000000000000000e+00  -2.7246487981640515e-05 2.9276748225513420e-03 0.0000000000000000e+00  -2.7402384970710664e-05 2.9639657404549272e-03 0.0000000000000000e+00  -2.7625583037266325e-05 2.9999830878871428e-03 0.0000000000000000e+00  -3.0963367895431772e-05 3.0447884764867755e-03 0.0000000000000000e+00  -3.6051295699958264e-05 3.0881754882679008e-03 0.0000000000000000e+00  -4.1174854324335602e-05 3.1299440514808660e-03 0.0000000000000000e+00  -4.6933379202369198e-05 3.1729170640393987e-03 0.0000000000000000e+00  -5.2301671220755666e-05 3.2159060469925333e-03 0.0000000000000000e+00  -5.7128565368486767e-05 3.2581108927480923e-03 0.0000000000000000e+00  -6.1428309773878283e-05 3.2988428857336819e-03 0.0000000000000000e+00  -6.5392729812664688e-05 3.3380729747746560e-03 0.0000000000000000e+00  -6.9201541192274050e-05 3.3760011287299841e-03 0.0000000000000000e+00  -6.2723678754489221e-05 2.5573292376989279e-03 0.0000000000000000e+00  -6.3787864984797009e-05 2.5026930054458801e-03 0.0000000000000000e+00  -6.2464825606697730e-05 2.6124307988318728e-03 0.0000000000000000e+00  -6.3135842428375252e-05 2.6672281502286331e-03 0.0000000000000000e+00  -6.3296252006273662e-05 2.7187438409825727e-03 0.0000000000000000e+00  -6.3960100446918189e-05 2.7641748179647258e-03 0.0000000000000000e+00  -6.4495062520249271e-05 2.8081981444282728e-03 0.0000000000000000e+00  -6.5102475202978558e-05 2.8509070040868912e-03 0.0000000000000000e+00  -6.5370618986226254e-05 2.8903640791609728e-03 0.0000000000000000e+00  -6.5238483848175448e-05 2.9279762141145196e-03 0.0000000000000000e+00  -6.6773213582491529e-05 2.9675729497167591e-03 0.0000000000000000e+00  -6.9964603780213512e-05 3.0108232686828938e-03 0.0000000000000000e+00  -7.4812816587289908e-05 3.0556590167011982e-03 0.0000000000000000e+00  -7.9576755950502728e-05 3.0998105972731933e-03 0.0000000000000000e+00  -8.4583543919223016e-05 3.1426522859958625e-03 0.0000000000000000e+00  -8.9818187232985233e-05 3.1855604561917342e-03 0.0000000000000000e+00  -9.4797416328303504e-05 3.2280090550333529e-03 0.0000000000000000e+00  -9.9344895130375519e-05 3.2695897094683932e-03 0.0000000000000000e+00  -1.0347843499717893e-04 3.3099263355881158e-03 0.0000000000000000e+00  -1.0733525672838851e-04 3.3489816789128669e-03 0.0000000000000000e+00  -1.1104464780684868e-04 3.3868938977161850e-03 0.0000000000000000e+00  -1.1469650145172766e-04 3.4239028245843612e-03 0.0000000000000000e+00  -1.0086057547288615e-04 2.5506306118351116e-03 0.0000000000000000e+00  -1.0016591706675108e-04 2.4944482728929238e-03 0.0000000000000000e+00  -1.0251468768241526e-04 2.6084344512949456e-03 0.0000000000000000e+00  -1.0553103750367135e-04 2.6665978945117244e-03 0.0000000000000000e+00  -1.0700688423754530e-04 2.7178229424654663e-03 0.0000000000000000e+00  -1.0703616032571682e-04 2.7636603036754067e-03 0.0000000000000000e+00  -1.0727259822211904e-04 2.8081157962806967e-03 0.0000000000000000e+00  -1.0737643814385975e-04 2.8509337085955216e-03 0.0000000000000000e+00  -1.0670146207946710e-04 2.8909318728245737e-03 0.0000000000000000e+00  -1.0794957564783062e-04 2.9346872434627435e-03 0.0000000000000000e+00  -1.1094250746177681e-04 2.9775354703394721e-03 0.0000000000000000e+00  -1.1489701421462555e-04 3.0219592193567058e-03 0.0000000000000000e+00  -1.1927019469446253e-04 3.0671787989410278e-03 0.0000000000000000e+00  -1.2376397635238551e-04 3.1116515170709329e-03 0.0000000000000000e+00  -1.2837703282336506e-04 3.1551263536073590e-03 0.0000000000000000e+00  -1.3309787833020004e-04 3.1980370100457688e-03 0.0000000000000000e+00  -1.3763649446668004e-04 3.2401699424432057e-03 0.0000000000000000e+00  -1.4186345470484872e-04 3.2813240000717494e-03 0.0000000000000000e+00  -1.4577369469371843e-04 3.3213308223242356e-03 0.0000000000000000e+00  -1.4945160922573140e-04 3.3601868271719848e-03 0.0000000000000000e+00  -1.5299058492622604e-04 3.3980001114036367e-03 0.0000000000000000e+00  -1.5646014895221669e-04 3.4349531133380084e-03 0.0000000000000000e+00  -1.4018070951682090e-04 2.5453152560107693e-03 0.0000000000000000e+00  -1.3685813184908803e-04 2.4879367092345505e-03 0.0000000000000000e+00  -1.4584803487484771e-04 2.6056656436599834e-03 0.0000000000000000e+00  -1.5097665131130869e-04 2.6685391082300427e-03 0.0000000000000000e+00  -1.5072177338952002e-04 2.7147709606061142e-03 0.0000000000000000e+00  -1.5093436967155932e-04 2.7626843732595557e-03 0.0000000000000000e+00  -1.5106013603932418e-04 2.8085366663278422e-03 0.0000000000000000e+00  -1.5112122792056978e-04 2.8514040376777269e-03 0.0000000000000000e+00  -1.5184432845992115e-04 2.8966419367303137e-03 0.0000000000000000e+00  -1.5390703103944996e-04 2.9420852623224516e-03 0.0000000000000000e+00  -1.5664590001191215e-04 2.9873261893756343e-03 0.0000000000000000e+00  -1.6023129365112329e-04 3.0329479628037736e-03 0.0000000000000000e+00  -1.6421132660134934e-04 3.0786656965696687e-03 0.0000000000000000e+00  -1.6832302188056760e-04 3.1236036279762929e-03 0.0000000000000000e+00  -1.7252353387115505e-04 3.1674905581063795e-03 0.0000000000000000e+00  -1.7673716046504720e-04 3.2104476615644594e-03 0.0000000000000000e+00  -1.8080265037109350e-04 3.2523843862747744e-03 0.0000000000000000e+00  -1.8463500897611008e-04 3.2932352488073149e-03 0.0000000000000000e+00  -1.8822734422967215e-04 3.3329604505483181e-03 0.0000000000000000e+00  -1.9163014696238601e-04 3.3715996000159500e-03 0.0000000000000000e+00  -1.9490725877076355e-04 3.4092528041190840e-03 0.0000000000000000e+00  -1.9810959217529724e-04 3.4460649255853592e-03 0.0000000000000000e+00  -1.7481978488486313e-04 2.5423212331853783e-03 0.0000000000000000e+00  -1.8780038565265953e-04 2.6039139005900732e-03 0.0000000000000000e+00  -1.9451237720776438e-04 2.6612271467911413e-03 0.0000000000000000e+00  -1.9732418840658222e-04 2.7139707692985003e-03 0.0000000000000000e+00  -1.9777951799399576e-04 2.7621379257544310e-03 0.0000000000000000e+00  -1.9797645817467012e-04 2.8094314974807669e-03 0.0000000000000000e+00  -1.9828199741993502e-04 2.8580974966087541e-03 0.0000000000000000e+00  -1.9979405911552234e-04 2.9025642739658481e-03 0.0000000000000000e+00  -2.0130033631299388e-04 2.9496354615758604e-03 0.0000000000000000e+00  -2.0347261268856585e-04 2.9966739214777579e-03 0.0000000000000000e+00  -2.0637843853975880e-04 3.0435931910715070e-03 0.0000000000000000e+00  -2.0980096989998807e-04 3.0901220525270043e-03 0.0000000000000000e+00  -2.1342219945652847e-04 3.1356089859507293e-03 0.0000000000000000e+00  -2.1709535468230403e-04 3.1798396249490450e-03 0.0000000000000000e+00  -2.2073135930522338e-04 3.2228492146313520e-03 0.0000000000000000e+00  -2.2423987354757327e-04 3.2646445361596411e-03 0.0000000000000000e+00  -2.2757800159811027e-04 3.3052550397415616e-03 0.0000000000000000e+00  -2.3074446968921971e-04 3.3447264549866249e-03 0.0000000000000000e+00  -2.3376794814407276e-04 3.3831355992197483e-03 0.0000000000000000e+00  -2.3668548252940769e-04 3.4205836389891286e-03 0.0000000000000000e+00  -2.3952781026746192e-04 3.4571906922458507e-03 0.0000000000000000e+00  -2.4231000819181217e-04 3.4930903860730909e-03 0.0000000000000000e+00  -2.3916907004291506e-04 2.6040193707689233e-03 0.0000000000000000e+00  -2.3594603841929027e-04 2.5433890927076164e-03 0.0000000000000000e+00  -2.4244987219906069e-04 2.6609854772314738e-03 0.0000000000000000e+00  -2.4507954951006933e-04 2.7135835410830537e-03 0.0000000000000000e+00  -2.4617668451058772e-04 2.7621697787038519e-03 0.0000000000000000e+00  -2.4696718649949413e-04 2.8099758160416810e-03 0.0000000000000000e+00  -2.4774192737046796e-04 2.8587115531362385e-03 0.0000000000000000e+00  -2.4887211302338153e-04 2.9077654802259260e-03 0.0000000000000000e+00  -2.5008648312247416e-04 2.9567171615479358e-03 0.0000000000000000e+00  -2.5138515381