<?xml version="1.0"?>
<VTKFile type="UnstructuredGrid"  version="0.1"  >
<UnstructuredGrid>
<Piece  NumberOfPoints="330" NumberOfCells="589">
<Points>
<DataArray  type="Float64"  NumberOfComponents="3"  format="ascii">2.973913043478261 0 0  3.006956521739131 0 0  3.006956521739131 0.03333333333333333 0  2.973913043478261 0.03333333333333333 0  3.04 0 0  3.04 0.03333333333333333 0  3.073043478260869 0 0  3.073043478260869 0.03333333333333333 0  3.106086956521739 0 0  3.106086956521739 0.03333333333333333 0  3.139130434782609 0 0  3.139130434782609 0.03333333333333333 0  3.172173913043478 0 0  3.172173913043478 0.03333333333333333 0  3.205217391304347 0 0  3.205217391304347 0.03333333333333333 0  3.238260869565217 0 0  3.238260869565217 0.03333333333333333 0  3.271304347826087 0 0  3.271304347826087 0.03333333333333333 0  3.304347826086957 0 0  3.304347826086957 0.03333333333333333 0  3.337391304347826 0 0  3.337391304347826 0.03333333333333333 0  3.370434782608696 0 0  3.370434782608696 0.03333333333333333 0  3.403478260869565 0 0  3.403478260869565 0.03333333333333333 0  3.436521739130435 0 0  3.436521739130435 0.03333333333333333 0  3.469565217391304 0 0  3.469565217391304 0.03333333333333333 0  3.502608695652174 0 0  3.502608695652174 0.03333333333333333 0  3.535652173913043 0 0  3.535652173913043 0.03333333333333333 0  3.568695652173913 0 0  3.568695652173913 0.03333333333333333 0  3.601739130434782 0 0  3.601739130434782 0.03333333333333333 0  3.634782608695652 0 0  3.634782608695652 0.03333333333333333 0  3.667826086956521 0 0  3.667826086956521 0.03333333333333333 0  3.700869565217391 0 0  3.700869565217391 0.03333333333333333 0  3.733913043478261 0 0  3.733913043478261 0.03333333333333333 0  3.766956521739131 0 0  3.766956521739131 0.03333333333333333 0  3.8 0 0  3.8 0.03333333333333333 0  3.006956521739131 0.06666666666666667 0  3.04 0.06666666666666667 0  3.073043478260869 0.06666666666666667 0  3.106086956521739 0.06666666666666667 0  3.139130434782609 0.06666666666666667 0  3.172173913043478 0.06666666666666667 0  3.205217391304347 0.06666666666666667 0  3.238260869565217 0.06666666666666667 0  3.271304347826087 0.06666666666666667 0  3.304347826086957 0.06666666666666667 0  3.337391304347826 0.06666666666666667 0  3.370434782608696 0.06666666666666667 0  3.403478260869565 0.06666666666666667 0  3.436521739130435 0.06666666666666667 0  3.469565217391304 0.06666666666666667 0  3.502608695652174 0.06666666666666667 0  3.535652173913043 0.06666666666666667 0  3.568695652173913 0.06666666666666667 0  3.601739130434782 0.06666666666666667 0  3.634782608695652 0.06666666666666667 0  3.667826086956521 0.06666666666666667 0  3.700869565217391 0.06666666666666667 0  3.733913043478261 0.06666666666666667 0  3.766956521739131 0.06666666666666667 0  3.8 0.06666666666666667 0  3.04 0.1 0  3.073043478260869 0.1 0  3.106086956521739 0.1 0  3.139130434782609 0.1 0  3.172173913043478 0.1 0  3.205217391304347 0.1 0  3.238260869565217 0.1 0  3.271304347826087 0.1 0  3.304347826086957 0.1 0  3.337391304347826 0.1 0  3.370434782608696 0.1 0  3.403478260869565 0.1 0  3.436521739130435 0.1 0  3.469565217391304 0.1 0  3.502608695652174 0.1 0  3.535652173913043 0.1 0  3.568695652173913 0.1 0  3.601739130434782 0.1 0  3.634782608695652 0.1 0  3.667826086956521 0.1 0  3.700869565217391 0.1 0  3.733913043478261 0.1 0  3.766956521739131 0.1 0  3.8 0.1 0  3.073043478260869 0.1333333333333333 0  3.106086956521739 0.1333333333333333 0  3.139130434782609 0.1333333333333333 0  3.172173913043478 0.1333333333333333 0  3.205217391304347 0.1333333333333333 0  3.238260869565217 0.1333333333333333 0  3.271304347826087 0.1333333333333333 0  3.304347826086957 0.1333333333333333 0  3.337391304347826 0.1333333333333333 0  3.370434782608696 0.1333333333333333 0  3.403478260869565 0.1333333333333333 0  3.436521739130435 0.1333333333333333 0  3.469565217391304 0.1333333333333333 0  3.502608695652174 0.1333333333333333 0  3.535652173913043 0.1333333333333333 0  3.568695652173913 0.1333333333333333 0  3.601739130434782 0.1333333333333333 0  3.634782608695652 0.1333333333333333 0  3.667826086956521 0.1333333333333333 0  3.700869565217391 0.1333333333333333 0  3.733913043478261 0.1333333333333333 0  3.766956521739131 0.1333333333333333 0  3.8 0.1333333333333333 0  3.106086956521739 0.1666666666666667 0  3.139130434782609 0.1666666666666667 0  3.172173913043478 0.1666666666666667 0  3.205217391304347 0.1666666666666667 0  3.238260869565217 0.1666666666666667 0  3.271304347826087 0.1666666666666667 0  3.304347826086957 0.1666666666666667 0  3.337391304347826 0.1666666666666667 0  3.370434782608696 0.1666666666666667 0  3.403478260869565 0.1666666666666667 0  3.436521739130435 0.1666666666666667 0  3.469565217391304 0.1666666666666667 0  3.502608695652174 0.1666666666666667 0  3.535652173913043 0.1666666666666667 0  3.568695652173913 0.1666666666666667 0  3.601739130434782 0.1666666666666667 0  3.634782608695652 0.1666666666666667 0  3.667826086956521 0.1666666666666667 0  3.700869565217391 0.1666666666666667 0  3.733913043478261 0.1666666666666667 0  3.766956521739131 0.1666666666666667 0  3.8 0.1666666666666667 0  3.139130434782609 0.2 0  3.106086956521739 0.2 0  3.172173913043478 0.2 0  3.205217391304347 0.2 0  3.238260869565217 0.2 0  3.271304347826087 0.2 0  3.304347826086957 0.2 0  3.337391304347826 0.2 0  3.370434782608696 0.2 0  3.403478260869565 0.2 0  3.436521739130435 0.2 0  3.469565217391304 0.2 0  3.502608695652174 0.2 0  3.535652173913043 0.2 0  3.568695652173913 0.2 0  3.601739130434782 0.2 0  3.634782608695652 0.2 0  3.667826086956521 0.2 0  3.700869565217391 0.2 0  3.733913043478261 0.2 0  3.766956521739131 0.2 0  3.8 0.2 0  3.139130434782609 0.2333333333333333 0  3.172173913043478 0.2333333333333333 0  3.205217391304347 0.2333333333333333 0  3.238260869565217 0.2333333333333333 0  3.271304347826087 0.2333333333333333 0  3.304347826086957 0.2333333333333333 0  3.337391304347826 0.2333333333333333 0  3.370434782608696 0.2333333333333333 0  3.403478260869565 0.2333333333333333 0  3.436521739130435 0.2333333333333333 0  3.469565217391304 0.2333333333333333 0  3.502608695652174 0.2333333333333333 0  3.535652173913043 0.2333333333333333 0  3.568695652173913 0.2333333333333333 0  3.601739130434782 0.2333333333333333 0  3.634782608695652 0.2333333333333333 0  3.667826086956521 0.2333333333333333 0  3.700869565217391 0.2333333333333333 0  3.733913043478261 0.2333333333333333 0  3.766956521739131 0.2333333333333333 0  3.8 0.2333333333333333 0  3.172173913043478 0.2666666666666667 0  3.205217391304347 0.2666666666666667 0  3.238260869565217 0.2666666666666667 0  3.271304347826087 0.2666666666666667 0  3.304347826086957 0.2666666666666667 0  3.337391304347826 0.2666666666666667 0  3.370434782608696 0.2666666666666667 0  3.403478260869565 0.2666666666666667 0  3.436521739130435 0.2666666666666667 0  3.469565217391304 0.2666666666666667 0  3.502608695652174 0.2666666666666667 0  3.535652173913043 0.2666666666666667 0  3.568695652173913 0.2666666666666667 0  3.601739130434782 0.2666666666666667 0  3.634782608695652 0.2666666666666667 0  3.667826086956521 0.2666666666666667 0  3.700869565217391 0.2666666666666667 0  3.733913043478261 0.2666666666666667 0  3.766956521739131 0.2666666666666667 0  3.8 0.2666666666666667 0  3.205217391304347 0.3 0  3.238260869565217 0.3 0  3.271304347826087 0.3 0  3.304347826086957 0.3 0  3.337391304347826 0.3 0  3.370434782608696 0.3 0  3.403478260869565 0.3 0  3.436521739130435 0.3 0  3.469565217391304 0.3 0  3.502608695652174 0.3 0  3.535652173913043 0.3 0  3.568695652173913 0.3 0  3.601739130434782 0.3 0  3.634782608695652 0.3 0  3.667826086956521 0.3 0  3.700869565217391 0.3 0  3.733913043478261 0.3 0  3.766956521739131 0.3 0  3.8 0.3 0  3.238260869565217 0.3333333333333333 0  3.271304347826087 0.3333333333333333 0  3.304347826086957 0.3333333333333333 0  3.337391304347826 0.3333333333333333 0  3.370434782608696 0.3333333333333333 0  3.403478260869565 0.3333333333333333 0  3.436521739130435 0.3333333333333333 0  3.469565217391304 0.3333333333333333 0  3.502608695652174 0.3333333333333333 0  3.535652173913043 0.3333333333333333 0  3.568695652173913 0.3333333333333333 0  3.601739130434782 0.3333333333333333 0  3.634782608695652 0.3333333333333333 0  3.667826086956521 0.3333333333333333 0  3.700869565217391 0.3333333333333333 0  3.733913043478261 0.3333333333333333 0  3.766956521739131 0.3333333333333333 0  3.8 0.3333333333333333 0  3.271304347826087 0.3666666666666666 0  3.238260869565217 0.3666666666666666 0  3.304347826086957 0.3666666666666666 0  3.337391304347826 0.3666666666666666 0  3.370434782608696 0.3666666666666666 0  3.403478260869565 0.3666666666666666 0  3.436521739130435 0.3666666666666666 0  3.469565217391304 0.3666666666666666 0  3.502608695652174 0.3666666666666666 0  3.535652173913043 0.3666666666666666 0  3.568695652173913 0.3666666666666666 0  3.601739130434782 0.3666666666666666 0  3.634782608695652 0.3666666666666666 0  3.667826086956521 0.3666666666666666 0  3.700869565217391 0.3666666666666666 0  3.733913043478261 0.3666666666666666 0  3.766956521739131 0.3666666666666666 0  3.8 0.3666666666666666 0  3.271304347826087 0.4 0  3.238260869565217 0.4 0  3.304347826086957 0.4 0  3.337391304347826 0.4 0  3.370434782608696 0.4 0  3.403478260869565 0.4 0  3.436521739130435 0.4 0  3.469565217391304 0.4 0  3.502608695652174 0.4 0  3.535652173913043 0.4 0  3.568695652173913 0.4 0  3.601739130434782 0.4 0  3.634782608695652 0.4 0  3.667826086956521 0.4 0  3.700869565217391 0.4 0  3.733913043478261 0.4 0  3.766956521739131 0.4 0  3.8 0.4 0  3.271304347826087 0.4333333333333333 0  3.304347826086957 0.4333333333333333 0  3.337391304347826 0.4333333333333333 0  3.370434782608696 0.4333333333333333 0  3.403478260869565 0.4333333333333333 0  3.436521739130435 0.4333333333333333 0  3.469565217391304 0.4333333333333333 0  3.502608695652174 0.4333333333333333 0  3.535652173913043 0.4333333333333333 0  3.5686956521
[...]
<CellData  Scalars="rho_bar"> 
<DataArray  type="Float64"  Name="rho_bar"  format="ascii">1.0000000000000000e+00   1.0000000000000000e+00   9.9999999999999989e-01   9.9999999999999989e-01   1.0000000000000000e+00   1.0000000000000000e+00   1.0000000000000000e+00   1.0000000000000000e+00   1.0000000000000000e+00   1.0000000000000000e+00   9.9999999999999989e-01   9.9999999999999989e-01   1.1322999792386228e-01   8.6087223480862329e-01   0.0000000000000000e+00   0.0000000000000000e+00   0.0000000000000000e+00   0.0000000000000000e+00   0.0000000000000000e+00   0.0000000000000000e+00   0.0000000000000000e+00   0.0000000000000000e+00   0.0000000000000000e+00   0.0000000000000000e+00   0.0000000000000000e+00   0.0000000000000000e+00   0.0000000000000000e+00   0.0000000000000000e+00   0.0000000000000000e+00   0.0000000000000000e+00   0.0000000000000000e+00   0.0000000000000000e+00   0.0000000000000000e+00   0.0000000000000000e+00   0.0000000000000000e+00   0.0000000000000000e+00   0.0000000000000000e+00   0.0000000000000000e+00   0.0000000000000000e+00   0.0000000000000000e+00   0.0000000000000000e+00   0.0000000000000000e+00   0.0000000000000000e+00   0.0000000000000000e+00   0.0000000000000000e+00   0.0000000000000000e+00   0.0000000000000000e+00   0.0000000000000000e+00   0.0000000000000000e+00   0.0000000000000000e+00   1.0000000000000000e+00   9.9999999999999989e-01   9.9999999999999989e-01   1.0000000000000000e+00   1.0000000000000000e+00   1.0000000000000000e+00   9.9999999964044073e-01   1.0000000000000000e+00   8.4676669640390656e-01   9.9999999999999989e-01   9.9999999999999989e-01   9.9999840986460820e-01   9.9999999999999989e-01   1.4351668002158628e-12   7.8452177876029838e-01   0.0000000000000000e+00   0.0000000000000000e+00   0.0000000000000000e+00   0.0000000000000000e+00   0.0000000000000000e+00   0.0000000000000000e+00   0.0000000000000000e+00   0.0000000000000000e+00   0.0000000000000000e+00   0.0000000000000000e+00   0.0000000000000000e+00   0.0000000000000000e+00   0.0000000000000000e+00   0.0000000000000000e+00   0.0000000000000000e+00   0.0000000000000000e+00   0.0000000000000000e+00   0.0000000000000000e+00   0.0000000000000000e+00   0.0000000000000000e+00   0.0000000000000000e+00   0.0000000000000000e+00   0.0000000000000000e+00   0.0000000000000000e+00   0.0000000000000000e+00   0.0000000000000000e+00   0.0000000000000000e+00   0.0000000000000000e+00   0.0000000000000000e+00   0.0000000000000000e+00   0.0000000000000000e+00   0.0000000000000000e+00   0.0000000000000000e+00   0.0000000000000000e+00   1.0000000000000000e+00   9.9999999945711382e-01   9.9999999999982347e-01   3.3310909825345952e-01   3.3322178663540769e-01   8.6942490244249841e-12   0.0000000000000000e+00   5.0372948933986128e-01   8.2341540993032427e-16   9.9999999999999989e-01   6.6666666713613632e-01   9.9999999999985434e-01   9.9999999999999989e-01   6.5651839272097737e-02   9.9999982222400563e-01   0.0000000000000000e+00   1.7517839031218803e-12   0.0000000000000000e+00   0.0000000000000000e+00   0.0000000000000000e+00   0.0000000000000000e+00   0.0000000000000000e+00   0.0000000000000000e+00   0.0000000000000000e+00   0.0000000000000000e+00   0.0000000000000000e+00   0.0000000000000000e+00   0.0000000000000000e+00   0.0000000000000000e+00   0.0000000000000000e+00   0.0000000000000000e+00   0.0000000000000000e+00   0.0000000000000000e+00   0.0000000000000000e+00   0.0000000000000000e+00   0.0000000000000000e+00   0.0000000000000000e+00   0.0000000000000000e+00   0.0000000000000000e+00   0.0000000000000000e+00   0.0000000000000000e+00   0.0000000000000000e+00   0.0000000000000000e+00   0.0000000000000000e+00   0.0000000000000000e+00   0.0000000000000000e+00   0.0000000000000000e+00   4.1551971427631629e-01   0.0000000000000000e+00   0.0000000000000000e+00   0.0000000000000000e+00   0.0000000000000000e+00   0.0000000000000000e+00   0.0000000000000000e+00   1.0414165044791229e-01   0.0000000000000000e+00   9.9999999997916189e-01   3.8431245189249685e-01   9.9999999999999989e-01   9.9999999999995193e-01   5.0459180061772924e-01   9.9999999999999989e-01   0.0000000000000000e+00   3.2318564927501253e-01   0.0000000000000000e+00   0.0000000000000000e+00   0.0000000000000000e+00   0.0000000000000000e+00   0.0000000000000000e+00   0.0000000000000000e+00   0.0000000000000000e+00   0.0000000000000000e+00   0.0000000000000000e+00   0.0000000000000000e+00   0.0000000000000000e+00   0.0000000000000000e+00   0.0000000000000000e+00   0.0000000000000000e+00   0.0000000000000000e+00   0.0000000000000000e+00   0.0000000000000000e+00   0.0000000000000000e+00   0.0000000000000000e+00   0.0000000000000000e+00   0.0000000000000000e+00   0.0000000000000000e+00   0.0000000000000000e+00   0.0000000000000000e+00   0.0000000000000000e+00   0.0000000000000000e+00   0.0000000000000000e+00   0.0000000000000000e+00   0.0000000000000000e+00   0.0000000000000000e+00   0.0000000000000000e+00   0.0000000000000000e+00   0.0000000000000000e+00   0.0000000000000000e+00   0.0000000000000000e+00   0.0000000000000000e+00   0.0000000000000000e+00   5.6512670836155277e-01   9.4776038868834205e-14   9.9999999999999989e-01   6.6668211854526027e-01   6.6666666666838781e-01   1.0000000000000000e+00   0.0000000000000000e+00   3.3333334963723554e-01   0.0000000000000000e+00   0.0000000000000000e+00   0.0000000000000000e+00   0.0000000000000000e+00   0.0000000000000000e+00   0.0000000000000000e+00   0.0000000000000000e+00   0.0000000000000000e+00   0.0000000000000000e+00   0.0000000000000000e+00   0.0000000000000000e+00   0.0000000000000000e+00   0.0000000000000000e+00   0.0000000000000000e+00   0.0000000000000000e+00   0.0000000000000000e+00   0.0000000000000000e+00   0.0000000000000000e+00   0.0000000000000000e+00   0.0000000000000000e+00   0.0000000000000000e+00   0.0000000000000000e+00   0.0000000000000000e+00   0.0000000000000000e+00   0.0000000000000000e+00   0.0000000000000000e+00   0.0000000000000000e+00   0.0000000000000000e+00   0.0000000000000000e+00   0.0000000000000000e+00   0.0000000000000000e+00   0.0000000000000000e+00   0.0000000000000000e+00   0.0000000000000000e+00   0.0000000000000000e+00   0.0000000000000000e+00   3.3331637860902374e-01   0.0000000000000000e+00   9.9999999999999911e-01   5.0308783705995264e-01   7.0770226267217884e-01   9.9999999999999956e-01   1.4238610290817629e-14   5.0227376738891261e-01   0.0000000000000000e+00   0.0000000000000000e+00   0.0000000000000000e+00   0.0000000000000000e+00   0.0000000000000000e+00   0.0000000000000000e+00   0.0000000000000000e+00   0.0000000000000000e+00   0.0000000000000000e+00   0.0000000000000000e+00   0.0000000000000000e+00   0.0000000000000000e+00   0.0000000000000000e+00   0.0000000000000000e+00   0.0000000000000000e+00   0.0000000000000000e+00   0.0000000000000000e+00   0.0000000000000000e+00   0.0000000000000000e+00   0.0000000000000000e+00   0.0000000000000000e+00   0.0000000000000000e+00   0.0000000000000000e+00   0.0000000000000000e+00   0.0000000000000000e+00   0.0000000000000000e+00   0.0000000000000000e+00   0.0000000000000000e+00   0.0000000000000000e+00   0.0000000000000000e+00   0.0000000000000000e+00   0.0000000000000000e+00   0.0000000000000000e+00   0.0000000000000000e+00   0.0000000000000000e+00   6.1688617177442962e-13   0.0000000000000000e+00   9.9973680070808335e-01   1.9594620132329190e-03   9.9999999402917850e-01   9.9999995389872975e-01   4.0817738693243844e-02   9.9998216475858503e-01   0.0000000000000000e+00   9.1647273103845350e-11   0.0000000000000000e+00   0.0000000000000000e+00   0.0000000000000000e+00   0.0000000000000000e+00   0.0000000000000000e+00   0.0000000000000000e+00   0.0000000000000000e+00   0.0000000000000000e+00   0.0000000000000000e+00   0.0000000000000000e+00   0.0000000000000000e+00   0.0000000000000000e+00   0.0000000000000000e+00   0.0000000000000000e+00   0.0000000000000000e+00   0.0000000000000000e+00   0.0000000000000000e+00   0.0000000000000000e+00   0.0000000000000000e+00   0.0000000000000000e+00   0.0000000000000000e+00   0.0000000000000000e+00   0.0000000000000000e+00   0.0000000000000000e+00   0.0000000000000000e+00   0.0000000000000000e+00   0.0000000000000000e+00   0.0000000000000000e+00   0.0000000000000000e+00   0.0000000000000000e+00   0.0000000000000000e+00   0.0000000000000000e+00   0.0000000000000000e+00   4.9792563025154524e-01   1.7578531223231644e-16   9.9999999999999967e-01   6.6673659108773098e-01   6.1010572632947524e-01   9.9999999999999989e-01   0.0000000000000000e+00   3.3333311560751033e-01   0.0000000000000000e+00   0.0000000000000000e+00   0.0000000000000000e+00   0.0000000000000000e+00   0.0000000000000000e+00   0.0000000000000000e+00   0.0000000000000000e+00   0.0000000000000000e+00   0.0000000000000000e+00   0.0000000000000000e+00   0.0000000000000000e+00   0.0000000000000000e+00   0.0000000000000000e+00   0.0000000000000000e+00   0.0000000000000000e+00   0.0000000000000000e+00   0.0000000000000000e+00   0.0000000000000000e+00   0.0000000000000000e+00   0.0000000000000000e+00   0.0000000000000000e+00   0.0000000000000000e+00   0.0000000000000000e+00   0.0000000000000000e+00   0.0000000000000000e+00   0.0000000000000000e+00   0.0000000000000000e+00   0.0000000000000000e+00   0.0000000000000000e+00   0.0000000000000000e+00   0.0000000000000000e+00   3.3333224637394049e-01   0.0000000000000000e+00   9.9999999999999989e-01   6.6383514527068677e-01   7.9277531576491822e-01   1.0000000000000000e+00   1.9529918621283284e-03   6.7725846941836210e-01   0.0000000000000000e+00   3.5733027380543031e-07   0.0000000000000000e+00   0.0000000000000000e+00   0.0000000000000000e+00   0.0000000000000000e+00   0.0000000000000000e+00   0.0000000000000000e+00   0.0000000000000000e+00   0.0000000000000000e+00   0.0000000000000000e+00   0.0000000000000000e+00   0.0000000000000000e+00   0.0000000000000000e+00   0.0000000000000000e+00   0.0000000000000000e+00   0.0000000000000000e+00   0.0000000000000000e+00   0.0000000000000000e+00   0.0000000000000000e+00   0.0000000000000000e+00   0.0000000000000000e+00   0.0000000000000000e+00   0.0000000000000000e+00   0.0000000000000000e+00   0.0000000000000000e+00   0.0000000000000000e+00   0.0000000000000000e+00   0.0000000000000000e+00   6.9548978798295016e-09   0.0000000000000000e+00   9.9999813808522253e-01   1.5540059569018666e-01   9.9999999999999989e-01   9.9999999995192812e-01   6.6666624645763950e-01   9.9999999999999989e-01   0.0000000000000000e+00   4.9869909848371802e-01   0.0000000000000000e+00   0.0000000000000000e+00   0.0000000000000000e+00   0.0000000000000000e+00   0.0000000000000000e+00   0.0000000000000000e+00   0.0000000000000000e+00   0.0000000000000000e+00   0.0000000000000000e+00   0.0000000000000000e+00   0.0000000000000000e+00   0.0000000000000000e+00   0.0000000000000000e+00   0.0000000000000000e+00   0.0000000000000000e+00   0.0000000000000000e+00   0.0000000000000000e+00   0.0000000000000000e+00   0.0000000000000000e+00   0.0000000000000000e+00   0.0000000000000000e+00   0.0000000000000000e+00   0.0000000000000000e+00   0.0000000000000000e+00   0.0000000000000000e+00   0.0000000000000000e+00   0.0000000000000000e+00   0.0000000000000000e+00   5.0045729396627647e-01   6.3837823915946491e-16   9.9999999999999989e-01   6.6670241158385546e-01   9.9999999988871646e-01   1.0000000000000000e+00   5.1995444986611501e-15   5.4407804005847338e-01   0.0000000000000000e+00   0.0000000000000000e+00   0.0000000000000000e+00   0.0000000000000000e+00   0.0000000000000000e+00   0.0000000000000000e+00   0.0000000000000000e+00   0.0000000000000000e+00   0.0000000000000000e+00   0.0000000000000000e+00   0.0000000000000000e+00   0.0000000000000000e+00   0.0000000000000000e+00   0.0000000000000000e+00   0.0000000000000000e+00   0.0000000000000000e+00   0.0000000000000000e+00   0.0000000000000000e+00   0.0000000000000000e+00   0.0000000000000000e+00   0.0000000000000000e+00   0.0000000000000000e+00   0.0000000000000000e+00   0.0000000000000000e+00   0.0000000000000000e+00   0.0000000000000000e+00   0.0000000000000000e+00   0.0000000000000000e+00   3.3333327477127189e-01   0.0000000000000000e+00   9.9999999999999978e-01   6.6666666666426144e-01   9.8381830308197304e-01   9.9999999999999989e-01   0.0000000000000000e+00   3.3315958852974681e-01   0.0000000000000000e+00   0.0000000000000000e+00   0.0000000000000000e+00   0.0000000000000000e+00   0.0000000000000000e+00   0.0000000000000000e+00   0.0000000000000000e+00   0.0000000000000000e+00   0.0000000000000000e+00   0.0000000000000000e+00   0.0000000000000000e+00   0.0000000000000000e+00   0.0000000000000000e+00   0.0000000000000000e+00   0.0000000000000000e+00   0.0000000000000000e+00   0.0000000000000000e+00   0.0000000000000000e+00   0.0000000000000000e+00   0.0000000000000000e+00   0.0000000000000000e+00   0.0000000000000000e+00   0.0000000000000000e+00   0.0000000000000000e+00   0.0000000000000000e+00   0.0000000000000000e+00   0.0000000000000000e+00   6.6575914711307238e-01   1.2318745884754012e-06   9.9999999999999989e-01   9.9999999999999989e-01   6.6656682525793132e-01   1.0000000000000000e+00   0.0000000000000000e+00   2.6564611043407752e-05   0.0000000000000000e+00   0.0000000000000000e+00   0.0000000000000000e+00   0.0000000000000000e+00   0.0000000000000000e+00   0.0000000000000000e+00   0.0000000000000000e+00   0.0000000000000000e+00   0.0000000000000000e+00   0.0000000000000000e+00   0.0000000000000000e+00   0.0000000000000000e+00   0.0000000000000000e+00   0.0000000000000000e+00   2.7755575615628914e-17   0.0000000000000000e+00   6.2912638062092207e-16   0.0000000000000000e+00   2.4609943712524301e-15   0.0000000000000000e+00   1.4053573120046774e-12   6.3959137439987629e-08   1.6664808926010555e-01   6.6593734378868208e-01   6.6666666039370537e-01   9.9999999999999989e-01   9.9999999999999989e-01   1.0000000000000000e+00   1.0000000000000000e+00   6.6666662473066707e-01   9.9999999999999989e-01   9.2518585385429707e-18   5.0564806145582708e-01   0.0000000000000000e+00   3.5564144222159179e-14   0.0000000000000000e+00   0.0000000000000000e+00   6.6789084247123054e-01   6.7133020876041016e-01   9.9999999999304823e-01   6.9677457983276492e-01   9.9999999999849165e-01   8.4235520289376697e-01   9.9999999999981837e-01   9.7791572545185790e-01   9.9999999999998623e-01   9.8913271657091084e-01   9.9999999999999889e-01   9.9971492964872410e-01   9.9999999999999967e-01   9.9999999999949751e-01   9.9999999999999989e-01   1.0000000000000000e+00   1.0000000000000000e+00   9.9999999999999989e-01   9.9999999999999989e-01   1.0000000000000000e+00   1.0000000000000000e+00   9.9999999999999989e-01   9.9999999999999989e-01   9.9999999999999989e-01   9.9999999999999989e-01   6.2261314719533234e-01   9.9999999999999989e-01   7.5258535348621241e-06   6.6666441593060732e-01   </DataArray> 
</CellData> 
</Piece>
</UnstructuredGrid>
</VTKFile>