<?xml version="1.0"?>
<VTKFile type="UnstructuredGrid"  version="0.1"  >
<UnstructuredGrid>
<Piece  NumberOfPoints="28121" NumberOfCells="55200">
<Points>
<DataArray  type="Float64"  NumberOfComponents="3"  format="ascii">0 0 0  0.008260869565217391 0 0  0.01652173913043478 0 0  0.02478260869565217 0 0  0.03304347826086956 0 0  0.04130434782608695 0 0  0.04956521739130434 0 0  0.05782608695652174 0 0  0.06608695652173913 0 0  0.07434782608695652 0 0  0.08260869565217391 0 0  0.0908695652173913 0 0  0.09913043478260869 0 0  0.1073913043478261 0 0  0.1156521739130435 0 0  0.1239130434782609 0 0  0.1321739130434783 0 0  0.1404347826086956 0 0  0.148695652173913 0 0  0.1569565217391304 0 0  0.1652173913043478 0 0  0.1734782608695652 0 0  0.1817391304347826 0 0  0.19 0 0  0.1982608695652174 0 0  0.2065217391304348 0 0  0.2147826086956522 0 0  0.2230434782608696 0 0  0.2313043478260869 0 0  0.2395652173913043 0 0  0.2478260869565218 0 0  0.2560869565217391 0 0  0.2643478260869565 0 0  0.2726086956521739 0 0  0.2808695652173913 0 0  0.2891304347826087 0 0  0.2973913043478261 0 0  0.3056521739130434 0 0  0.3139130434782609 0 0  0.3221739130434783 0 0  0.3304347826086956 0 0  0.338695652173913 0 0  0.3469565217391304 0 0  0.3552173913043478 0 0  0.3634782608695652 0 0  0.3717391304347826 0 0  0.3799999999999999 0 0  0.3882608695652174 0 0  0.3965217391304348 0 0  0.4047826086956521 0 0  0.4130434782608696 0 0  0.4213043478260869 0 0  0.4295652173913043 0 0  0.4378260869565217 0 0  0.4460869565217391 0 0  0.4543478260869565 0 0  0.4626086956521739 0 0  0.4708695652173913 0 0  0.4791304347826086 0 0  0.4873913043478261 0 0  0.4956521739130435 0 0  0.5039130434782608 0 0  0.5121739130434783 0 0  0.5204347826086956 0 0  0.528695652173913 0 0  0.5369565217391304 0 0  0.5452173913043478 0 0  0.5534782608695652 0 0  0.5617391304347825 0 0  0.57 0 0  0.5782608695652174 0 0  0.5865217391304348 0 0  0.5947826086956521 0 0  0.6030434782608696 0 0  0.6113043478260869 0 0  0.6195652173913043 0 0  0.6278260869565218 0 0  0.6360869565217391 0 0  0.6443478260869565 0 0  0.6526086956521739 0 0  0.6608695652173913 0 0  0.6691304347826087 0 0  0.677391304347826 0 0  0.6856521739130435 0 0  0.6939130434782609 0 0  0.7021739130434783 0 0  0.7104347826086956 0 0  0.718695652173913 0 0  0.7269565217391304 0 0  0.7352173913043478 0 0  0.7434782608695653 0 0  0.7517391304347827 0 0  0.7599999999999999 0 0  0.7682608695652173 0 0  0.7765217391304348 0 0  0.7847826086956522 0 0  0.7930434782608695 0 0  0.8013043478260868 0 0  0.8095652173913043 0 0  0.8178260869565217 0 0  0.8260869565217391 0 0  0.8343478260869565 0 0  0.8426086956521739 0 0  0.8508695652173912 0 0  0.8591304347826086 0 0  0.8673913043478261 0 0  0.8756521739130434 0 0  0.8839130434782608 0 0  0.8921739130434783 0 0  0.9004347826086956 0 0  0.908695652173913 0 0  0.9169565217391303 0 0  0.9252173913043478 0 0  0.9334782608695652 0 0  0.9417391304347826 0 0  0.95 0 0  0.9582608695652173 0 0  0.9665217391304347 0 0  0.9747826086956521 0 0  0.9830434782608696 0 0  0.991304347826087 0 0  0.9995652173913042 0 0  1.007826086956522 0 0  1.016086956521739 0 0  1.024347826086957 0 0  1.032608695652174 0 0  1.040869565217391 0 0  1.049130434782609 0 0  1.057391304347826 0 0  1.065652173913043 0 0  1.073913043478261 0 0  1.082173913043478 0 0  1.090434782608696 0 0  1.098695652173913 0 0  1.10695652173913 0 0  1.115217391304348 0 0  1.123478260869565 0 0  1.131739130434783 0 0  1.14 0 0  1.148260869565217 0 0  1.156521739130435 0 0  1.164782608695652 0 0  1.17304347826087 0 0  1.181304347826087 0 0  1.189565217391304 0 0  1.197826086956522 0 0  1.206086956521739 0 0  1.214347826086956 0 0  1.222608695652174 0 0  1.230869565217391 0 0  1.239130434782609 0 0  1.247391304347826 0 0  1.255652173913044 0 0  1.263913043478261 0 0  1.272173913043478 0 0  1.280434782608696 0 0  1.288695652173913 0 0  1.296956521739131 0 0  1.305217391304348 0 0  1.313478260869565 0 0  1.321739130434783 0 0  1.33 0 0  1.338260869565217 0 0  1.346521739130435 0 0  1.354782608695652 0 0  1.36304347826087 0 0  1.371304347826087 0 0  1.379565217391304 0 0  1.387826086956522 0 0  1.396086956521739 0 0  1.404347826086957 0 0  1.412608695652174 0 0  1.420869565217391 0 0  1.429130434782609 0 0  1.437391304347826 0 0  1.445652173913043 0 0  1.453913043478261 0 0  1.462173913043478 0 0  1.470434782608696 0 0  1.478695652173913 0 0  1.486956521739131 0 0  1.495217391304348 0 0  1.503478260869565 0 0  1.511739130434782 0 0  1.52 0 0  1.528260869565217 0 0  1.536521739130435 0 0  1.544782608695652 0 0  1.55304347826087 0 0  1.561304347826087 0 0  1.569565217391304 0 0  1.577826086956522 0 0  1.586086956521739 0 0  1.594347826086957 0 0  1.602608695652174 0 0  1.610869565217391 0 0  1.619130434782609 0 0  1.627391304347826 0 0  1.635652173913043 0 0  1.643913043478261 0 0  1.652173913043478 0 0  1.660434782608696 0 0  1.668695652173913 0 0  1.67695652173913 0 0  1.685217391304348 0 0  1.693478260869565 0 0  1.701739130434782 0 0  1.71 0 0  1.718260869565217 0 0  1.726521739130435 0 0  1.734782608695652 0 0  1.743043478260869 0 0  1.751304347826087 0 0  1.759565217391304 0 0  1.767826086956522 0 0  1.776086956521739 0 0  1.784347826086957 0 0  1.792608695652174 0 0  1.800869565217391 0 0  1.809130434782608 0 0  1.817391304347826 0 0  1.825652173913043 0 0  1.833913043478261 0 0  1.842173913043478 0 0  1.850434782608696 0 0  1.858695652173913 0 0  1.86695652173913 0 0  1.875217391304348 0 0  1.883478260869565 0 0  1.891739130434782 0 0  1.9 0 0  1.908260869565217 0 0  1.916521739130435 0 0  1.924782608695652 0 0  1.933043478260869 0 0  1.941304347826087 0 0  1.949565217391304 0 0  1.957826086956522 0 0  1.966086956521739 0 0  1.974347826086956 0 0  1.982608695652174 0 0  1.990869565217391 0 0  1.999130434782608 0 0  2.007391304347826 0 0  2.015652173913043 0 0  2.023913043478261 0 0  2.032173913043478 0 0  2.040434782608695 0 0  2.048695652173913 0 0  2.05695652173913 0 0  2.065217391304348 0 0  2.073478260869565 0 0  2.081739130434782 0 0  2.09 0 0  2.098260869565217 0 0  2.106521739130435 0 0  2.114782608695652 0 0  2.12304347826087 0 0  2.131304347826087 0 0  2.139565217391304 0 0  2.147826086956522 0 0  2.156086956521739 0 0  2.164347826086956 0 0  2.172608695652174 0 0  2.180869565217391 0 0  2.189130434782609 0 0  2.197391304347826 0 0  2.205652173913043 0 0  2.213913043478261 0 0  2.222173913043478 0 0  2.230434782608695 0 0  2.238695652173913 0 0  2.24695652173913 0 0  2.255217391304348 0 0  2.263478260869565 0 0  2.271739130434783 0 0  2.28 0 0  2.288260869565217 0 0  2.296521739130434 0 0  2.304782608695652 0 0  2.31304347826087 0 0  2.321304347826087 0 0  2.329565217391304 0 0  2.337826086956521 0 0  2.346086956521739 0 0  2.354347826086956 0 0  2.362608695652174 0 0  2.370869565217391 0 0  2.379130434782609 0 0  2.387391304347826 0 0  2.395652173913044 0 0  2.403913043478261 0 0  2.412173913043478 0 0  2.420434782608695 0 0  2.428695652173913 0 0  2.43695652173913 0 0  2.445217391304348 0 0  2.453478260869565 0 0  2.461739130434782 0 0  2.47 0 0  2.478260869565217 0 0  2.486521739130435 0 0  2.494782608695652 0 0  2.503043478260869 0 0  2.511304347826087 0 0  2.519565217391305 0 0  2.527826086956522 0 0  2.536086956521739 0 0  2.544347826086956 0 0  2.552608695652174 0 0  2.560869565217391 0 0  2.569130434782608 0 0  2.577391304347826 0 0  2.585652173913043 0 0  2.593913043478261 0 0  2.602173913043478 0 0  2.610434782608696 0 0  2.618695652173913 0 0  2.62695652173913 0 0  2.635217391304348 0 0  2.643478260869565 0 0  2.651739130434783 0 0  2.66 0 0  2.668260869565217 0 0  2.676521739130435 0 0  2.684782608695652 0 0  2.693043478260869 0 0  2.701304347826087 0 0  2.709565217391304 0 0  2.717826086956522 0 0  2.726086956521739 0 0  2.734347826086956 0 0  2.742608695652174 0 0  2.750869565217391 0 0  2.759130434782609 0 0  2.767391304347826 0 0  2.775652173913044 0 0  2.783913043478261 0 0  2.792173913043478 0 0  2.800434782608696 0 0  2.808695652173913 0 0  2.81695652173913 0 0  2.825217391304347 0 0  2.833478260869565 0 0  2.841739130434783 0 0  2.85 0 0  2.858260869565217 0 0  2.866521739130435 0 0  2.874782608695652 0 0  2.88304347826087 0 0  2.891304347826087 0 0  2.899565217391304 0 0  2.907826086956522 0 0  2.916086956521739 0 0  2.924347826086957 0 0  2.932608695652174 0 0  2.940869565217391 0 0  2.949130434782608 0 0  2.957391304347826 0 0  2.965652173913043 0 0  2.973913043478261 0 0  2.982173913043478 0 0  2.990434782608696 0 0  2.998695652173913 0 0  3.006956521739131 0 0  3.015217391304348 0 0  3.023478260869565 0 0  3.031739130434782 0 0  3.04 0 0  3.048260869565218 0 0  3.056521739130435 0 0  3.064782608695652 0 0  3.073043478260869 0 0  3.081304347826087 0 0  3.089565217391304 0 0  3.097826086956522 0 0  3.106086956521739 0 0  3.114347826086956 0 0  3.122608695652174 0 0  3.130869565217391 0 0  3.139130434782609 0 0  3.147391304347826 0 0  3.155652173913043 0 0  3.163913043478261 0 0  3.172173913043478 0 0  3.180434782608696 0 0  3.188695652173913 0 0  3.19695652173913 0 0  3.205217391304347 0 0  3.213478260869565 0 0  3.221739130434782 0 0  3.23 0 0  3.238260869565217 0 0  3.246521739130435 0 0  3.254782608695652 0 0  3.26304347826087 0 0  3.271304347826087 0 0  3.279565217391304 0 0  3.287826086956521 0 0  3.296086956521739 0 0  3.304347826086957 0 0  3.312608695652174 0 0  3.320869565217391 0 0  3.329130434782608 0 0  3.337391304347826 0 0  3.345652173913043 0 0  3.353913043478261 0 0  3.362173913043478 0 0  3.370434782608696 0 0  3.378695652173913 0 0  3.386956521739131 0 0  3.395217391304348 0 0  3.403478260869565 0 0  3.411739130434782 0 0  3.419999999999999 0 0  3.428260869565217 0 0  3.436521739130435 0 0  3.444782608695652 0 0  3.453043478260869 0 0  3.461304347826087 0 0  3.469565217391304 0 0  3.477826086956522 0 0  3.486086956521739 0 0  3.494347826086956 0 0  3.502608695652174 0 0  3.510869565217391 0 0  3.519130434782609 0 0  3.527391304347826 0 0  3.535652173913043 0 0  3.54391304347826
[...]
<PointData  Scalars="rho"> 
<DataArray  type="Float64"  Name="rho"  format="ascii">9.9754148045159841e-01  9.9590487045726905e-01  9.9574991677816693e-01  9.9541368985567591e-01  9.9496708892445873e-01  9.9442265813659647e-01  9.9379672213583459e-01  9.9310954441841248e-01  9.9232768562092732e-01  9.9028426568048089e-01  9.9000634121787656e-01  9.8976244717744488e-01  9.8957848611849919e-01  9.8941417498983242e-01  9.8933294649717274e-01  9.8951984497310397e-01  9.8963726589791723e-01  9.9012271007451502e-01  9.9042292160716183e-01  9.9071343633473730e-01  9.9100108993640246e-01  9.9139866136185861e-01  9.9182640603363037e-01  9.9248823540905184e-01  9.9314270906481705e-01  9.9499265244978519e-01  9.9576394088314835e-01  9.9635448905762969e-01  9.9673217937369196e-01  9.9714229075355698e-01  9.9743613927993935e-01  9.9761977082828024e-01  9.9770269527481104e-01  9.9777474758644258e-01  9.9641841004164255e-01  9.9643274879373256e-01  9.9641262855028034e-01  9.9636639014723671e-01  9.9630277509994458e-01  9.9623083222587638e-01  9.9615970515872099e-01  9.9609831126361981e-01  9.9607000770056209e-01  9.9567679467021952e-01  9.9556596760187177e-01  9.9551572909352204e-01  9.9552194365075153e-01  9.9561274992044135e-01  9.9574576708051377e-01  9.9599752468080305e-01  9.9633268529798336e-01  9.9687766614806195e-01  9.9738715847688286e-01  9.9800444811792488e-01  9.9865522401407825e-01  9.9919327187897045e-01  9.9978684991206090e-01  9.9984997661747665e-01  9.9984969102641796e-01  9.9984919272422235e-01  9.9984848558266870e-01  9.9984757389887857e-01  9.9984646335738414e-01  9.9984516225383646e-01  9.9984368276055968e-01  9.9984204217335282e-01  9.9984026394334002e-01  9.9983837862093006e-01  9.9983642482003265e-01  9.9983445058218701e-01  9.9983251537004691e-01  9.9983069282470149e-01  9.9982907372493712e-01  9.9982776820237895e-01  9.9670803889897075e-01  9.4993534426005921e-01  8.7731689307171346e-01  8.9031849778412275e-01  8.6104655049203005e-01  8.5063478747873222e-01  8.4938449675941452e-01  8.4833340248370381e-01  8.4888162988921834e-01  8.8988699626934553e-01  8.9893211794013839e-01  9.0869178266041639e-01  9.2147934393692577e-01  9.2786776206782695e-01  9.3602050078672283e-01  9.4358643357255823e-01  9.4964441702556390e-01  9.5806364317822001e-01  9.6063590207821370e-01  9.6143682206915415e-01  9.6047557590757637e-01  9.5803781169844893e-01  9.5428182099625836e-01  9.5040961922281619e-01  9.4215567433618141e-01  9.3578374082288740e-01  9.2835626411050864e-01  9.2547214782783982e-01  9.3178361019483236e-01  9.3600838443079160e-01  9.3974482654823843e-01  9.4637966581653366e-01  9.5646920195959373e-01  9.4373251650508772e-01  9.4154068289524295e-01  9.4570603053941005e-01  9.5772858088190493e-01  9.7140469636699989e-01  9.7872518671870390e-01  9.9174779218639175e-01  9.9149477916993323e-01  9.9138032302056256e-01  9.9101170436851915e-01  9.9063800570003546e-01  9.9028086049622166e-01  9.8995354209888597e-01  9.8966066888894699e-01  9.8939883528703954e-01  9.8915814126283474e-01  9.8892456283201624e-01  9.8868297441659414e-01  9.8842037472360156e-01  9.8812895120504973e-01  9.8780858855234788e-01  9.8746872756676662e-01  9.8712940840628061e-01  9.8682148407263737e-01  9.8506676228505219e-01  9.8454533851749360e-01  9.8428043706374357e-01  9.8436741299669861e-01  9.8489956433594505e-01  9.8596331745120325e-01  9.8962673902847154e-01  9.9256306972205866e-01  9.9361238492903203e-01  9.9440264627055541e-01  9.9544465378117919e-01  9.9780937551987259e-01  9.9917158056752353e-01  9.9933698734498488e-01  9.9951937930188961e-01  9.9969250478961169e-01  9.9981891596668759e-01  9.9982473225597202e-01  9.9983040166638570e-01  9.9983578119484529e-01  9.9984075282135998e-01  9.9984522862120884e-01  9.9984915323273604e-01  9.9985250362599842e-01  9.9985528658646339e-01  9.9985753427854107e-01  9.9985929862558898e-01  9.9986064515855810e-01  9.9986164699342583e-01  9.9986237940202294e-01  9.9986291533373006e-01  9.9986332201753481e-01  9.9985576289850953e-01  9.9977045577327384e-01  9.9969851386118147e-01  9.9964491894636498e-01  9.9960966714816857e-01  9.9968580775032634e-01  9.9968119446486881e-01  9.9969702833126339e-01  9.9973201751399154e-01  9.9978452782853566e-01  9.9985256104504217e-01  9.9983288727447683e-01  9.9987229709679282e-01  9.9987356619898260e-01  9.9987488715621042e-01  9.9635973997941163e-01  9.9351814143886352e-01  9.9307686652667382e-01  9.9302222126459216e-01  9.9250226519538720e-01  9.9192823277472464e-01  9.9130188804594754e-01  9.9063122247379631e-01  9.7705398350861095e-01  9.6838518080328706e-01  9.5400303975907197e-01  9.4129308749382690e-01  9.3381524512884873e-01  9.2845428178590150e-01  9.2555564883329422e-01  9.2345011832785717e-01  9.3276374288662212e-01  9.3601204761518964e-01  9.3850139004215383e-01  9.4229821531460101e-01  9.4547943084730890e-01  9.4815998921404321e-01  9.5102267878708557e-01  9.5267685703885863e-01  9.5352487205722558e-01  9.5637167688031322e-01  9.5238997721715235e-01  9.4454020221200918e-01  9.3519502244837827e-01  9.2383141691204551e-01  9.1436774528939013e-01  9.0444022778872724e-01  8.8937860020357307e-01  8.6627027755307429e-01  8.4765425591903043e-01  8.4221950261063760e-01  8.3867576916097353e-01  8.5185453038496517e-01  8.4205213946930368e-01  8.3803014422002164e-01  8.5633264603397041e-01  8.9187495200710964e-01  9.6847723716635303e-01  1.0000000000000000e+00  1.0000000000000000e+00  1.0000000000000000e+00  1.0000000000000000e+00  1.0000000000000000e+00  1.0000000000000000e+00  1.0000000000000000e+00  1.0000000000000000e+00  1.0000000000000000e+00  1.0000000000000000e+00  1.0000000000000000e+00  1.0000000000000000e+00  1.0000000000000000e+00  1.0000000000000000e+00  1.0000000000000000e+00  1.0000000000000000e+00  1.0000000000000000e+00  1.0000000000000000e+00  1.0000000000000000e+00  1.0000000000000000e+00  1.0000000000000000e+00  1.0000000000000000e+00  1.0000000000000000e+00  1.0000000000000000e+00  1.0000000000000000e+00  1.0000000000000000e+00  1.0000000000000000e+00  1.0000000000000000e+00  1.0000000000000000e+00  1.0000000000000000e+00  1.0000000000000000e+00  1.0000000000000000e+00  1.0000000000000000e+00  1.0000000000000000e+00  1.0000000000000000e+00  1.0000000000000000e+00  1.0000000000000000e+00  1.0000000000000000e+00  1.0000000000000000e+00  1.0000000000000000e+00  1.0000000000000000e+00  1.0000000000000000e+00  1.0000000000000000e+00  1.0000000000000000e+00  1.0000000000000000e+00  1.0000000000000000e+00  1.0000000000000000e+00  1.0000000000000000e+00  1.0000000000000000e+00  1.0000000000000000e+00  1.0000000000000000e+00  1.0000000000000000e+00  1.0000000000000000e+00  1.0000000000000000e+00  1.0000000000000000e+00  1.0000000000000000e+00  1.0000000000000000e+00  1.0000000000000000e+00  1.0000000000000000e+00  1.0000000000000000e+00  1.0000000000000000e+00  1.0000000000000000e+00  1.0000000000000000e+00  1.0000000000000000e+00  1.0000000000000000e+00  1.0000000000000000e+00  1.0000000000000000e+00  1.0000000000000000e+00  9.9998023544214354e-01  9.9904458191916268e-01  9.9798334187798010e-01  8.8838137411586626e-01  8.1054826879169883e-01  7.7855151002542589e-01  7.5024090822712786e-01  9.0962624036553519e-01  9.1555966180980308e-01  9.1810695210874249e-01  9.2528087057205533e-01  9.4618157823616367e-01  9.5357606205880407e-01  9.5829131602305773e-01  9.6550092378159980e-01  9.7205348984590023e-01  9.7001670557884356e-01  9.7190516950915973e-01  9.7282703152485550e-01  9.7296929562301149e-01  9.7223386576371751e-01  9.6589176766194085e-01  9.6141697944658633e-01  9.5919686921777914e-01  9.5521829907697331e-01  9.5235296966834604e-01  9.5030679513909888e-01  9.4891982988482715e-01  9.4835087095321402e-01  9.4870422931296672e-01  9.5178104382079409e-01  9.5233476349691071e-01  9.6121477223302887e-01  9.6479980852563885e-01  9.6874750512343599e-01  9.7834015744998482e-01  9.8542603438299370e-01  9.8848411805263048e-01  9.9489634972325236e-01  9.9515004435372501e-01  9.9490604290070250e-01  9.9233177451279775e-01  9.9211219012238150e-01  9.9162654916454462e-01  9.9096393805195460e-01  9.9022136060842170e-01  9.8924397851939605e-01  9.8798917947011611e-01  9.8798403555215186e-01  9.8765628848173170e-01  9.8735841023421045e-01  9.8726562232624648e-01  9.8747516678518743e-01  9.9252017314172192e-01  9.9270519292206183e-01  9.9333041508816655e-01  9.9401084156593222e-01  9.9450760674268912e-01  9.9437582200026098e-01  9.9480977536208537e-01  9.9560226608603053e-01  9.9680948019937210e-01  9.9804673842857838e-01  9.9537235431436055e-01  1.0000000000000000e+00  1.0000000000000000e+00  1.0000000000000000e+00  1.0000000000000000e+00  1.0000000000000000e+00  9.9526260605140160e-01  9.9511787345787905e-01  9.9490286539543937e-01  9.9396637414220856e-01  9.9352185516921376e-01  9.0058432816320677e-01  8.0095634444877473e-01  7.6722901684077172e-01  6.7784588519381694e-01  6.3700519839554692e-01  6.8337847644744265e-01  6.7736397672826976e-01  6.6984151693543259e-01  6.8719641704279277e-01  6.9085232012383213e-01  6.9221454276404726e-01  6.9532377047518745e-01  7.4126539010167869e-01  7.5887540147791166e-01  6.7040647741662673e-01  6.4928864596786484e-01  2.6630220943413313e-01  1.8100456603158849e-01  1.2352519612286648e-01  7.5382513441966004e-02  2.7391199718316949e-02  1.2394009736867221e-02  5.1509563673169303e-03  2.7197704495393201e-03  3.2103282099695749e-03  2.4825640747434298e-03  1.8607261009250427e-03  1.0733742793706514e-03  1.0385300646823538e-03  1.0034140458055883e-03  9.6801059156460573e-04  9.3235861103082456e-04  8.9651519073282251e-04  8.6054521802388052e-04  8.2451985544680032e-04  7.8851686058202389e-04  7.5262090207082793e-04  7.1692323457715312e-04  6.8152042537869420e-04  6.4651286496812395e-04  6.1200229165615967e-04  5.7809002725779299e-04  5.4487473335232850e-04  5.1245048820926307e-04  4.8090497381303611e-04  4.5031813273042800e-04  4.2076100452942628e-04  3.9229492257495925e-04  3.6497075875122130e-04  3.3882892292089488e-04  3.1389930131826545e-04  2.9020144085866438e-04  2.6774496843769396e-04  2.4653015209977539e-04  2.2654864007795928e-04  2.0778414188825988e-04  1.9021311395605163e-04  1.7380578834400503e-04  1.5852706002990774e-04  1.4433723817507891e-04  1.3119303335177424e-04  1.1904821976071660e-04  1.0785463577067084e-04  9.7562639106344275e-05  8.8121814822687058e-05  7.9481518806203246e-05  7.1591490112509170e-05  6.4402175325237290e-05  5.7865176070117012e-05  5.1933492653506341e-05  4.6561926995041509e-05  4.1707146394238372e-05  3.7327886001381308e-05  3.3385027430289668e-05  2.9841694289015485e-05  2.6663271726489175e-05  2.3817413225205219e-05  2.1274010105280165e-05  1.9005160171503172e-05  1.6985100957557433e-05  1.5190153318230055e-05  1.3598616493488169e-05  1.2190669769324097e-05  1.0948295970647326e-05  9.8552005219773979e-06  8.8966928518094275e-06  8.0595874673320778e-06  7.3321260340795015e-06  6.7039068084977094e-06  6.1657861514947669e-06  5.7098010899088121e-06  5.3291137002908267e-06  5.0179632803801931e-06  4.7716183203297344e-06  4.5863529878608731e-06  4.4594808451853064e-06  4.3895452765154953e-06  1.4573869084548895e-06  9.9818849793444009e-01  9.9115602997705721e-01  9.9095365283508197e-01  9.9043593809230213e-01  9.8973605795183373e-01  9.8887388425714295e-01  9.8787517244202594e-01  9.8677239539478601e-01  9.8549533160086544e-01  9.8193924149869682e-01  9.8147338513015103e-01  9.8106440706023557e-01  9.8076822817735188e-01  9.8048522912071256e-01  9.8034593420721550e-01  9.8055398490843371e-01  9.8076570974620603e-01  9.8160542085584090e-01  9.8202278699481782e-01  9.8264728526320289e-01  9.8318045253590858e-01  9.8390322822366549e-01  9.8468346218564107e-01  9.8617813888371564e-01  9.8717270285094560e-01  9.9063904497572330e-01  9.9200881645936978e-01  9.9305168569633195e-01  9.9376310297417525e-01  9.9452720228298508e-01  9.9509529667388019e-01  9.9547694175740242e-01  9.9568753950261057e-01  9.9590274073910734e-01  9.9334787356349719e-01  9.9343026627049613e-01  9.9344935597086115e-01  9.9341801061729973e-01  9.9334988022745996e-01  9.9325931439319337e-01  9.9316101745369578e-01  9.9306951598115445e-01  9.9302831637202127e-01  9.9266096199015430e-01  9.9244655470172138e-01  9.9232121042969712e-01  9.9229647132994558e-01  9.9236233730248713e-01  9.9249614315887003e-01  9.9282070452134341e-01  9.9327054916948043e-01  9.9406709310311447e-01  9.9477612554509953e-01  9.9564943566092201e-01  9.9653528020931748e-01  9.9731132548437329e-01  9.9813556998808295e-01  9.9930171231773834e-01  9.9970159131046710e-01  9.9970071122173043e-01  9.9969941956578723e-01  9.9969772365366660e-01  9.9969563281174945e-01  9.9969316082872905e-01  9.9969032866421259e-01  9.9968716690388582e-01  9.9968371786417742e-01  9.9968003713762466e-01  9.9967619514820871e-01  9.9967227928973357e-01  9.9966839764995108e-01  9.9966468465974589e-01  9.9966130834343747e-01  9.9965847690125187e-01  9.8713019693848414e-01  9.2120977637632795e-01  8.3351792526898572e-01  8.3157994547885261e-01  7.8614906165169085e-01  7.6786098203572628e-01  7.6504529841336955e-01  7.6208816932854007e-01  7.4487654047796836e-01  8.1727377984535199e-01  8.3639209901370992e-01  8.5131754143898886e-01  8.6922885651770265e-01  8.8169069724820759e-01  8.9427644207998869e-01  9.0601025929573664e-01  9.1569170796800770e-01  9.2862306662293870e-01  9.3323505413553498e-01  9.3399029902697628e-01  9.3266698400172321e-01  9.2938397895244562e-01  9.2373805625256289e-01  9.1735572785164532e-01  9.0459047072051280e-01  8.9435185884605017e-01  8.8248154811705981e-01  8.7693013620279625e-01  8.7568682671771558e-01  8.9023515319630231e-01  8.9660242758820485e-01  9.0381561407133415e-01  9.1793212245433997e-01  9.0135213829185357e-01  8.9859701989844676e-01  9.0208712514757472e-01  9.2223338936889510e-01  9.4800132691192440e-01  9.5866104069826830e-01  9.6358239113536159e-01  9.8181218000177550e-01  9.8163147694250552e-01  9.8099092183813530e-01  9.8035257529508191e-01  9.7975363345204602e-01  9.7921742707058812e-01  9.7875269380533214e-01  9.7835435534974924e-01  9.7800579654092401e-01  9.7768265965877288e-01  9.7735782508726532e-01  9.7700693698704855e-01  9.7661357398030613e-01  9.7617360198797598e-01  9.7569830150182146e-01  9.7521628905006297e-01  9.7477405429038944e-01  9.7062100066744483e-01  9.6970223598962890e-01  9.6917397711001840e-01  9.6919293615879820e-01  9.6991248246148443e-01  9.7147402973651042e-01  9.7400259191627769e-01  9.8545881655353595e-01  9.8760595884561653e-01  9.8899837923725264e-01  9.9079760358609803e-01  9.9401762544821226e-01  9.9834867316878062e-01  9.9865196583719840e-01  9.9898984401169799e-01  9.9929679633092616e-01  9.9957831346700587e-01  9.9965042682610594e-01  9.9966186993053341e-01  9.9967275030517544e-01  9.9968282087675164e-01  9.9969189568355277e-01  9.9969985536867689e-01  9.9970664738434090e-01  9.9971228111756261e-01  9.9971681911371002e-01  9.9972036551837451e-01  9.9972305336081946e-01  9.9972503198396290e-01  9.9972645574010910e-01  9.9972747458295996e-01  9.9972822695256269e-01  9.9964272057212256e-01  9.9954462330586591e-01  9.9934345859052010e-01  9.9930042186425416e-01  9.9923002083390822e-01  9.9936675152358057e-01  9.9935345929719721e-01  9.9937886279538435e-01  9.9944064258166854e-01  9.9953586504187109e-01  9.9921082368151182e-01  9.9845782858154863e-01  9.9817350038945862e-01  9.9785658477627959e-01  9.9759842496682793e-01  9.9177444446881857e-01  9.9299668329596347e-01  9.8684172282488292e-01  9.8677685890392497e-01  9.8584818283207398e-01  9.8482371676962743e-01  9.8370472130083297e-01  9.8250346235341024e-01  9.5528673292231192e-01  9.2538932907907623e-01  9.2139275331179293e-01  9.0270390347369811e-01  8.9123918219154330e-01  8.8321694441787102e-01  8.7868106177857830e-01  8.7537325971046676e-01  8.9149800999144568e-01  8.9646732266240226e-01  8.9993639862955188e-01  9.0817025821642261e-01  9.1273235665873409e-01  9.1717981465886789e-01  9.2207152465417364e-01  9.2524284011361813e-01  9.2736890682553241e-01  9.3211830120191619e-01  9.2910541082290665e-01  9.3077662653907056e-01  9.0881110664955878e-01  8.9384884159931965e-01  8.8288935284998027e-01  8.6786980010010417e-01  8.4753690299334239e-01  8.2248800861477855e-01  7.8784703386482102e-01  7.7626773507032154e-01  7.6835874776096580e-01  7.8198478793127357e-01  7.5965237159736598e-01  7.6868933556761831e-01  7.8643207611128563e-01  8.2150317990011290e-01  9.3065706995991060e-01  9.9175159932079193e-01  1.0000000000000000e+00  1.0000000000000000e+00  1.0000000000000000e+00  1.0000000000000000e+00  1.0000000000000000e+00  1.0000000000000000e+00  1.0000000000000000e+00  1.0000000000000000e+00  1.0000000000000000e+00  1.0000000000000000e+00  1.0000000000000000e+00  1.0000000000000000e+00  1.0000000000000000e+00  1.0000000000000000e+00  1.0000000000000000e+00  1.0000000000000000e+00  1.0000000000000000e+00  1.0000000000000000e+00  1.0000000000000000e+00  1.0000000000000000e+00  1.0000000000000000e+00  1.0000000000000000e+00  1.0000000000000000e+00  1.0000000000000000e+00  1.0000000000000000e+00  1.0000000000000000e+00  1.0000000000000000e+00  1.0000000000000000e+00  1.0000000000000000e+00  1.0000000000000000e+00  1.0000000000000000e+00  1.0000000000000000e+00  1.0000000000000000e+00  1.0000000000000000e+00  1.0000000000000000e+00  1.0000000000000000e+00  1.0000000000000000e+00  1.0000000000000000e+00  1.0000000000000000e+00  1.0000000000000000e+00  1.0000000000000000e+00  1.0000000000000000e+00  1.0000000000000000e+00  1.0000000000000000e+00  1.0000000000000000e+00  1.0000000000000000e+00  1.0000000000000000e+00  1.0000000000000000e+00  1.0000000000000000e+00  1.0000000000000000e+00  1.0000000000000000e+00  1.0000000000000000e+00  1.0000000000000000e+00  1.0000000000000000e+00  1.0000000000000000e+00  1.0000000000000000e+00  1.0000000000000000e+00  1.0000000000000000e+00  1.0000000000000000e+00  1.0000000000000000e+00  1.0000000000000000e+00  1.0000000000000000e+00  1.0000000000000000e+00  1.0000000000000000e+00  1.0000000000000000e+00  1.0000000000000000e+00  1.0000000000000000e+00  9.9995793356670193e-01  9.9863907269837171e-01  9.9693362609600733e-01  8.7370313310641656e-01  7.8004351395945359e-01  7.3940019592797557e-01  7.0023558562779853e-01  8.8188303136046087e-01  8.8749203833396584e-01  8.8962286010555425e-01  8.9464436782294887e-01  9.1919186574950362e-01  9.3002176950045823e-01  9.3677905699520192e-01  9.4802330737577334e-01  9.5510843454760685e-01  9.5312865608301711e-01  9.5590038134625321e-01  9.5711387402783676e-01  9.5733408267400932e-01  9.5613329406267689e-01  9.4507044392797979e-01  9.3788354336308455e-01  9.3433003623921529e-01  9.3064727235770572e-01  9.2397296826606856e-01  9.2062961540427612e-01  9.1830965764527694e-01  9.1724710236494766e-01  9.1760872570946184e-01  9.2206952530282771e-01  9.2271015945459800e-01  9.3842601854716168e-01  9.4087721921538137e-01  9.4680431084345495e-01  9.6385044087425831e-01  9.7458987585136370e-01  9.7878017441085241e-01  9.8940052544801449e-01  9.8947027011801081e-01  9.8959000520603846e-01  9.8417976419898678e-01  9.8373987361127957e-01  9.8287207088089434e-01  9.8170999728957009e-01  9.8039866094402828e-01  9.7909266414575813e-01  9.7818046920325663e-01  9.7851754339485220e-01  9.7793988148382460e-01  9.7740961360896184e-01  9.7721346580612645e-01  9.7732366429865380e-01  9.7765290197545796e-01  9.8687659101485492e-01  9.8792829280386063e-01  9.8859030217199428e-01  9.8997778194763786e-01  9.8980727991478334e-01  9.9052952172460451e-01  9.9115902585124993e-01  9.9313895080226522e-01  9.9516896548116807e-01  9.9135239311729728e-01  9.9908894280211946e-01  1.0000000000000000e+00  1.0000000000000000e+00  1.0000000000000000e+00  1.0000000000000000e+00  9.9501234219672452e-01  9.9150613308980307e-01  9.9119104897702848e-01  9.8977519516530177e-01  9.8909721973065867e-01  9.8822974662105800e-01  9.1539663117877756e-01  8.7370588143374406e-01  8.4876488497019420e-01  7.1637869584923153e-01  6.9299489995879637e-0