<?xml version="1.0"?>
<VTKFile type="UnstructuredGrid"  version="0.1"  >
<UnstructuredGrid>
<Piece  NumberOfPoints="28121" NumberOfCells="55200">
<Points>
<DataArray  type="Float64"  NumberOfComponents="3"  format="ascii">0 0 0  0.008260869565217391 0 0  0.01652173913043478 0 0  0.02478260869565217 0 0  0.03304347826086956 0 0  0.04130434782608695 0 0  0.04956521739130434 0 0  0.05782608695652174 0 0  0.06608695652173913 0 0  0.07434782608695652 0 0  0.08260869565217391 0 0  0.0908695652173913 0 0  0.09913043478260869 0 0  0.1073913043478261 0 0  0.1156521739130435 0 0  0.1239130434782609 0 0  0.1321739130434783 0 0  0.1404347826086956 0 0  0.148695652173913 0 0  0.1569565217391304 0 0  0.1652173913043478 0 0  0.1734782608695652 0 0  0.1817391304347826 0 0  0.19 0 0  0.1982608695652174 0 0  0.2065217391304348 0 0  0.2147826086956522 0 0  0.2230434782608696 0 0  0.2313043478260869 0 0  0.2395652173913043 0 0  0.2478260869565218 0 0  0.2560869565217391 0 0  0.2643478260869565 0 0  0.2726086956521739 0 0  0.2808695652173913 0 0  0.2891304347826087 0 0  0.2973913043478261 0 0  0.3056521739130434 0 0  0.3139130434782609 0 0  0.3221739130434783 0 0  0.3304347826086956 0 0  0.338695652173913 0 0  0.3469565217391304 0 0  0.3552173913043478 0 0  0.3634782608695652 0 0  0.3717391304347826 0 0  0.3799999999999999 0 0  0.3882608695652174 0 0  0.3965217391304348 0 0  0.4047826086956521 0 0  0.4130434782608696 0 0  0.4213043478260869 0 0  0.4295652173913043 0 0  0.4378260869565217 0 0  0.4460869565217391 0 0  0.4543478260869565 0 0  0.4626086956521739 0 0  0.4708695652173913 0 0  0.4791304347826086 0 0  0.4873913043478261 0 0  0.4956521739130435 0 0  0.5039130434782608 0 0  0.5121739130434783 0 0  0.5204347826086956 0 0  0.528695652173913 0 0  0.5369565217391304 0 0  0.5452173913043478 0 0  0.5534782608695652 0 0  0.5617391304347825 0 0  0.57 0 0  0.5782608695652174 0 0  0.5865217391304348 0 0  0.5947826086956521 0 0  0.6030434782608696 0 0  0.6113043478260869 0 0  0.6195652173913043 0 0  0.6278260869565218 0 0  0.6360869565217391 0 0  0.6443478260869565 0 0  0.6526086956521739 0 0  0.6608695652173913 0 0  0.6691304347826087 0 0  0.677391304347826 0 0  0.6856521739130435 0 0  0.6939130434782609 0 0  0.7021739130434783 0 0  0.7104347826086956 0 0  0.718695652173913 0 0  0.7269565217391304 0 0  0.7352173913043478 0 0  0.7434782608695653 0 0  0.7517391304347827 0 0  0.7599999999999999 0 0  0.7682608695652173 0 0  0.7765217391304348 0 0  0.7847826086956522 0 0  0.7930434782608695 0 0  0.8013043478260868 0 0  0.8095652173913043 0 0  0.8178260869565217 0 0  0.8260869565217391 0 0  0.8343478260869565 0 0  0.8426086956521739 0 0  0.8508695652173912 0 0  0.8591304347826086 0 0  0.8673913043478261 0 0  0.8756521739130434 0 0  0.8839130434782608 0 0  0.8921739130434783 0 0  0.9004347826086956 0 0  0.908695652173913 0 0  0.9169565217391303 0 0  0.9252173913043478 0 0  0.9334782608695652 0 0  0.9417391304347826 0 0  0.95 0 0  0.9582608695652173 0 0  0.9665217391304347 0 0  0.9747826086956521 0 0  0.9830434782608696 0 0  0.991304347826087 0 0  0.9995652173913042 0 0  1.007826086956522 0 0  1.016086956521739 0 0  1.024347826086957 0 0  1.032608695652174 0 0  1.040869565217391 0 0  1.049130434782609 0 0  1.057391304347826 0 0  1.065652173913043 0 0  1.073913043478261 0 0  1.082173913043478 0 0  1.090434782608696 0 0  1.098695652173913 0 0  1.10695652173913 0 0  1.115217391304348 0 0  1.123478260869565 0 0  1.131739130434783 0 0  1.14 0 0  1.148260869565217 0 0  1.156521739130435 0 0  1.164782608695652 0 0  1.17304347826087 0 0  1.181304347826087 0 0  1.189565217391304 0 0  1.197826086956522 0 0  1.206086956521739 0 0  1.214347826086956 0 0  1.222608695652174 0 0  1.230869565217391 0 0  1.239130434782609 0 0  1.247391304347826 0 0  1.255652173913044 0 0  1.263913043478261 0 0  1.272173913043478 0 0  1.280434782608696 0 0  1.288695652173913 0 0  1.296956521739131 0 0  1.305217391304348 0 0  1.313478260869565 0 0  1.321739130434783 0 0  1.33 0 0  1.338260869565217 0 0  1.346521739130435 0 0  1.354782608695652 0 0  1.36304347826087 0 0  1.371304347826087 0 0  1.379565217391304 0 0  1.387826086956522 0 0  1.396086956521739 0 0  1.404347826086957 0 0  1.412608695652174 0 0  1.420869565217391 0 0  1.429130434782609 0 0  1.437391304347826 0 0  1.445652173913043 0 0  1.453913043478261 0 0  1.462173913043478 0 0  1.470434782608696 0 0  1.478695652173913 0 0  1.486956521739131 0 0  1.495217391304348 0 0  1.503478260869565 0 0  1.511739130434782 0 0  1.52 0 0  1.528260869565217 0 0  1.536521739130435 0 0  1.544782608695652 0 0  1.55304347826087 0 0  1.561304347826087 0 0  1.569565217391304 0 0  1.577826086956522 0 0  1.586086956521739 0 0  1.594347826086957 0 0  1.602608695652174 0 0  1.610869565217391 0 0  1.619130434782609 0 0  1.627391304347826 0 0  1.635652173913043 0 0  1.643913043478261 0 0  1.652173913043478 0 0  1.660434782608696 0 0  1.668695652173913 0 0  1.67695652173913 0 0  1.685217391304348 0 0  1.693478260869565 0 0  1.701739130434782 0 0  1.71 0 0  1.718260869565217 0 0  1.726521739130435 0 0  1.734782608695652 0 0  1.743043478260869 0 0  1.751304347826087 0 0  1.759565217391304 0 0  1.767826086956522 0 0  1.776086956521739 0 0  1.784347826086957 0 0  1.792608695652174 0 0  1.800869565217391 0 0  1.809130434782608 0 0  1.817391304347826 0 0  1.825652173913043 0 0  1.833913043478261 0 0  1.842173913043478 0 0  1.850434782608696 0 0  1.858695652173913 0 0  1.86695652173913 0 0  1.875217391304348 0 0  1.883478260869565 0 0  1.891739130434782 0 0  1.9 0 0  1.908260869565217 0 0  1.916521739130435 0 0  1.924782608695652 0 0  1.933043478260869 0 0  1.941304347826087 0 0  1.949565217391304 0 0  1.957826086956522 0 0  1.966086956521739 0 0  1.974347826086956 0 0  1.982608695652174 0 0  1.990869565217391 0 0  1.999130434782608 0 0  2.007391304347826 0 0  2.015652173913043 0 0  2.023913043478261 0 0  2.032173913043478 0 0  2.040434782608695 0 0  2.048695652173913 0 0  2.05695652173913 0 0  2.065217391304348 0 0  2.073478260869565 0 0  2.081739130434782 0 0  2.09 0 0  2.098260869565217 0 0  2.106521739130435 0 0  2.114782608695652 0 0  2.12304347826087 0 0  2.131304347826087 0 0  2.139565217391304 0 0  2.147826086956522 0 0  2.156086956521739 0 0  2.164347826086956 0 0  2.172608695652174 0 0  2.180869565217391 0 0  2.189130434782609 0 0  2.197391304347826 0 0  2.205652173913043 0 0  2.213913043478261 0 0  2.222173913043478 0 0  2.230434782608695 0 0  2.238695652173913 0 0  2.24695652173913 0 0  2.255217391304348 0 0  2.263478260869565 0 0  2.271739130434783 0 0  2.28 0 0  2.288260869565217 0 0  2.296521739130434 0 0  2.304782608695652 0 0  2.31304347826087 0 0  2.321304347826087 0 0  2.329565217391304 0 0  2.337826086956521 0 0  2.346086956521739 0 0  2.354347826086956 0 0  2.362608695652174 0 0  2.370869565217391 0 0  2.379130434782609 0 0  2.387391304347826 0 0  2.395652173913044 0 0  2.403913043478261 0 0  2.412173913043478 0 0  2.420434782608695 0 0  2.428695652173913 0 0  2.43695652173913 0 0  2.445217391304348 0 0  2.453478260869565 0 0  2.461739130434782 0 0  2.47 0 0  2.478260869565217 0 0  2.486521739130435 0 0  2.494782608695652 0 0  2.503043478260869 0 0  2.511304347826087 0 0  2.519565217391305 0 0  2.527826086956522 0 0  2.536086956521739 0 0  2.544347826086956 0 0  2.552608695652174 0 0  2.560869565217391 0 0  2.569130434782608 0 0  2.577391304347826 0 0  2.585652173913043 0 0  2.593913043478261 0 0  2.602173913043478 0 0  2.610434782608696 0 0  2.618695652173913 0 0  2.62695652173913 0 0  2.635217391304348 0 0  2.643478260869565 0 0  2.651739130434783 0 0  2.66 0 0  2.668260869565217 0 0  2.676521739130435 0 0  2.684782608695652 0 0  2.693043478260869 0 0  2.701304347826087 0 0  2.709565217391304 0 0  2.717826086956522 0 0  2.726086956521739 0 0  2.734347826086956 0 0  2.742608695652174 0 0  2.750869565217391 0 0  2.759130434782609 0 0  2.767391304347826 0 0  2.775652173913044 0 0  2.783913043478261 0 0  2.792173913043478 0 0  2.800434782608696 0 0  2.808695652173913 0 0  2.81695652173913 0 0  2.825217391304347 0 0  2.833478260869565 0 0  2.841739130434783 0 0  2.85 0 0  2.858260869565217 0 0  2.866521739130435 0 0  2.874782608695652 0 0  2.88304347826087 0 0  2.891304347826087 0 0  2.899565217391304 0 0  2.907826086956522 0 0  2.916086956521739 0 0  2.924347826086957 0 0  2.932608695652174 0 0  2.940869565217391 0 0  2.949130434782608 0 0  2.957391304347826 0 0  2.965652173913043 0 0  2.973913043478261 0 0  2.982173913043478 0 0  2.990434782608696 0 0  2.998695652173913 0 0  3.006956521739131 0 0  3.015217391304348 0 0  3.023478260869565 0 0  3.031739130434782 0 0  3.04 0 0  3.048260869565218 0 0  3.056521739130435 0 0  3.064782608695652 0 0  3.073043478260869 0 0  3.081304347826087 0 0  3.089565217391304 0 0  3.097826086956522 0 0  3.106086956521739 0 0  3.114347826086956 0 0  3.122608695652174 0 0  3.130869565217391 0 0  3.139130434782609 0 0  3.147391304347826 0 0  3.155652173913043 0 0  3.163913043478261 0 0  3.172173913043478 0 0  3.180434782608696 0 0  3.188695652173913 0 0  3.19695652173913 0 0  3.205217391304347 0 0  3.213478260869565 0 0  3.221739130434782 0 0  3.23 0 0  3.238260869565217 0 0  3.246521739130435 0 0  3.254782608695652 0 0  3.26304347826087 0 0  3.271304347826087 0 0  3.279565217391304 0 0  3.287826086956521 0 0  3.296086956521739 0 0  3.304347826086957 0 0  3.312608695652174 0 0  3.320869565217391 0 0  3.329130434782608 0 0  3.337391304347826 0 0  3.345652173913043 0 0  3.353913043478261 0 0  3.362173913043478 0 0  3.370434782608696 0 0  3.378695652173913 0 0  3.386956521739131 0 0  3.395217391304348 0 0  3.403478260869565 0 0  3.411739130434782 0 0  3.419999999999999 0 0  3.428260869565217 0 0  3.436521739130435 0 0  3.444782608695652 0 0  3.453043478260869 0 0  3.461304347826087 0 0  3.469565217391304 0 0  3.477826086956522 0 0  3.486086956521739 0 0  3.494347826086956 0 0  3.502608695652174 0 0  3.510869565217391 0 0  3.519130434782609 0 0  3.527391304347826 0 0  3.535652173913043 0 0  3.54391304347826
[...]
<PointData  Scalars="rho_bar"> 
<DataArray  type="Float64"  Name="rho_bar"  format="ascii">9.9998477553600806e-01  9.9999548431571905e-01  9.9999602751511329e-01  1.0000019630822830e+00  1.0000068019642085e+00  1.0000124800982368e+00  1.0000183042053328e+00  1.0000243654121186e+00  1.0000305707750345e+00  1.0000368330005502e+00  1.0000429979893122e+00  1.0000488649604875e+00  1.0000542263150505e+00  1.0000589146179599e+00  1.0000628305382109e+00  1.0000659427320167e+00  1.0000682589951866e+00  1.0000697826148357e+00  1.0000704895970007e+00  1.0000703432582994e+00  1.0000693176021020e+00  1.0000674067581183e+00  1.0000646327477218e+00  1.0000610606420224e+00  1.0000568095359597e+00  1.0000520475760930e+00  1.0000469698650054e+00  1.0000417669917741e+00  1.0000365952677523e+00  1.0000315556880182e+00  1.0000266882705389e+00  1.0000219865539304e+00  1.0000174212680990e+00  1.0000129583768660e+00  1.0000085721064447e+00  1.0000042556668660e+00  1.0000000254212673e+00  9.9999591864653403e-01  9.9999198873654471e-01  9.9998829838233982e-01  9.9998491195088857e-01  9.9998189100921386e-01  9.9997929225118987e-01  9.9997716223070587e-01  9.9997552919221411e-01  9.9997439795849352e-01  9.9997374887668466e-01  9.9997353800234212e-01  9.9997369944561754e-01  9.9997415205916218e-01  9.9997480773413394e-01  9.9997557617572064e-01  9.9997636631738829e-01  9.9997708941551255e-01  9.9997766672550559e-01  9.9997804067465690e-01  9.9997818439029684e-01  9.9997810226853812e-01  9.9997782281411396e-01  9.9997739364793437e-01  9.9997687959265014e-01  9.9997635519556627e-01  9.9997589214825344e-01  9.9997555812356653e-01  9.9997543232956876e-01  9.9997564450123722e-01  9.9997647192534977e-01  9.9997837021935354e-01  9.9998197762255270e-01  9.9998813671567310e-01  9.9999641537995088e-01  1.0000030142254817e+00  1.0000039907159215e+00  1.0000011638691528e+00  9.9999943800359226e-01  9.9999975439138133e-01  1.0000001189556675e+00  1.0000000192847074e+00  9.9999997566489984e-01  1.0000000050134927e+00  1.0000000017352324e+00  9.9999999853488364e-01  1.0000000004384708e+00  9.9999999998346012e-01  9.9999999993595634e-01  1.0000000000416551e+00  1.0000000000742251e+00  9.9999999976665865e-01  9.9999999991525412e-01  1.0000000013452417e+00  9.9999999898561465e-01  9.9999999413147089e-01  1.0000000075598046e+00  1.0000000253649755e+00  9.9999997359861459e-01  9.9999988924934002e-01  1.0000000005621363e+00  1.0000003476583315e+00  1.0000004602018240e+00  9.9999981536903515e-01  9.9999864363611080e-01  9.9999796057657186e-01  9.9999858234981831e-01  1.0000003544724891e+00  1.0000025898573486e+00  1.0000047750013303e+00  1.0000065514212497e+00  1.0000075975126270e+00  1.0000078010036737e+00  1.0000072565044551e+00  1.0000061047488868e+00  1.0000044843472111e+00  1.0000025294312853e+00  1.0000003456979933e+00  9.9999799258828881e-01  9.9999546039284737e-01  9.9999264576581715e-01  9.9998938458259123e-01  9.9998559058717051e-01  9.9998142864428596e-01  9.9997736752361777e-01  9.9997409200978016e-01  9.9997242337432835e-01  9.9997328001833496e-01  9.9997745628236889e-01  9.9998512493727942e-01  9.9999552684585524e-01  1.0000074339181884e+00  1.0000200831080104e+00  1.0000334956249850e+00  1.0000477662614957e+00  1.0000622152421095e+00  1.0000753909316435e+00  1.0000858275529791e+00  1.0000927837245999e+00  1.0000964753266517e+00  1.0000978140421206e+00  1.0000978918377550e+00  1.0000974939523981e+00  1.0000968305547331e+00  1.0000955214193235e+00  1.0000927846903449e+00  1.0000877542865587e+00  1.0000798341355039e+00  1.0000690134902803e+00  1.0000560233999265e+00  1.0000421096070256e+00  1.0000284079163426e+00  1.0000154489466664e+00  1.0000033488986118e+00  9.9999243873178434e-01  9.9998351532411012e-01  9.9997740411087743e-01  9.9997437680881851e-01  9.9997403576715271e-01  9.9997563424664770e-01  9.9997841074533522e-01  9.9998172740322155e-01  9.9998510045493694e-01  9.9998822314154878e-01  9.9999097011488558e-01  9.9999335138636591e-01  9.9999543687537495e-01  9.9999729633219980e-01  9.9999897367086343e-01  1.0000004863388054e+00  1.0000018332758616e+00  1.0000030023762956e+00  1.0000039794171320e+00  1.0000047610840748e+00  1.0000053639474518e+00  1.0000058206010252e+00  1.0000061681705570e+00  1.0000064400243844e+00  1.0000066633871540e+00  1.0000068596618941e+00  1.0000070447930276e+00  1.0000072261490911e+00  1.0000073917483523e+00  1.0000074959814627e+00  1.0000074391702061e+00  1.0000070477709002e+00  1.0000061264334350e+00  1.0000045562791275e+00  1.0000023717897601e+00  1.0000000467755685e+00  9.9999864353243362e-01  9.9999881781959366e-01  9.9999975980170119e-01  1.0000002174191445e+00  1.0000000873914539e+00  9.9999996023885851e-01  9.9999998801773959e-01  1.0000000091002579e+00  9.9999999970355413e-01  9.9999999860143385e-01  1.0000000005599010e+00  9.9999999997224065e-01  9.9999999995444255e-01  1.0000000000549405e+00  9.9999999967383624e-01  1.0000000010717824e+00  9.9999999844094689e-01  9.9999999789702709e-01  1.0000000163791554e+00  9.9999996909960953e-01  9.9999997397281004e-01  1.0000002350469517e+00  9.9999975288343623e-01  9.9999904418034091e-01  1.0000020367498079e+00  1.0000038443662549e+00  9.9999188695667929e-01  9.9998013685658049e-01  1.0000051695519019e+00  1.0000617901577420e+00  1.0000938775409611e+00  1.0000695625757658e+00  1.0000161119942337e+00  9.9997341081983382e-01  9.9995462932336321e-01  9.9995459187483682e-01  9.9996674034255373e-01  9.9998644252187152e-01  1.0000098367010901e+00  1.0000334306148260e+00  1.0000541793790325e+00  1.0000701633398494e+00  1.0000809985364454e+00  1.0000874922262732e+00  1.0000909310432007e+00  1.0000925029632726e+00  1.0000930776726020e+00  1.0000932184253863e+00  1.0000932534136244e+00  1.0000933469782183e+00  1.0000935582975183e+00  1.0000938806818300e+00  1.0000942630912830e+00  1.0000946233201473e+00  1.0000948647130024e+00  1.0000949013553901e+00  1.0000946829224326e+00  1.0000942053087756e+00  1.0000935036526544e+00  1.0000926353039183e+00  1.0000916642806839e+00  1.0000906575688089e+00  1.0000896881299950e+00  1.0000888296441957e+00  1.0000881461098070e+00  1.0000876848576536e+00  1.0000874718200148e+00  1.0000875181635054e+00  1.0000878338739838e+00  1.0000884186931311e+00  1.0000892367027017e+00  1.0000902116713544e+00  1.0000912440294321e+00  1.0000922277737891e+00  1.0000930658148204e+00  1.0000936862962253e+00  1.0000940519971011e+00  1.0000941599713447e+00  1.0000940364650039e+00  1.0000937328770756e+00  1.0000933244240298e+00  1.0000929064834974e+00  1.0000925838578030e+00  1.0000924540246459e+00  1.0000925864080306e+00  1.0000929986676244e+00  1.0000936310354953e+00  1.0000943149964858e+00  1.0000947304211725e+00  1.0000943512206451e+00  1.0000924002756693e+00  1.0000878960682587e+00  1.0000798810657900e+00  1.0000677704082408e+00  1.0000517353266805e+00  1.0000330767849510e+00  1.0000143322903323e+00  9.9999905004498879e-01  9.9999129662058561e-01  9.9999645329399756e-01  1.0000212525012531e+00  1.0000584094267992e+00  1.0000728778217269e+00  1.0000427834976595e+00  1.0000027784073691e+00  9.9999222278632205e-01  9.9999937835994124e-01  1.0000013319732406e+00  9.9999978270814871e-01  9.9999987082384389e-01  1.0000000809161527e+00  9.9999998222904452e-01  9.9999999792825878e-01  1.0000000033020033e+00  9.9999999849740451e-01  1.0000000004379543e+00  9.9999999956213759e-01  1.0000000010758936e+00  1.0000000001117921e+00  9.9999999459288136e-01  1.0000000032356207e+00  1.0000000236115349e+00  9.9999998444166427e-01  9.9999989911665399e-01  9.9999999415158336e-01  1.0000003396055035e+00  1.0000004310280366e+00  9.9999968767894876e-01  9.9999846952545568e-01  9.9999803266798237e-01  9.9999923072344887e-01  1.0000017435768231e+00  1.0000046160627978e+00  1.0000069008146562e+00  1.0000078816561844e+00  1.0000073461510481e+00  1.0000056747829007e+00  1.0000034800575071e+00  1.0000012210449463e+00  9.9999909492257744e-01  9.9999711566162253e-01  9.9999522252015827e-01  9.9999333809909774e-01  9.9999138723631642e-01  9.9998930866867741e-01  9.9998706943273152e-01  9.9998467959846837e-01  9.9998219813746669e-01  9.9997972578345051e-01  9.9997739094163840e-01  9.9997534052925385e-01  9.9997375108150122e-01  9.9997286068760416e-01  9.9997298854746119e-01  9.9997450962109347e-01  9.9997779537686793e-01  9.9998312950865775e-01  9.9999057383179357e-01  9.9999986449403400e-01  1.0000105750797257e+00  1.0000225612507367e+00  1.0000361388400334e+00  1.0000514640963527e+00  1.0000676179370140e+00  1.0000825099117305e+00  1.0000936684000965e+00  1.0000989336102246e+00  1.0000967552282174e+00  1.0000866643290762e+00  1.0000699371704651e+00  1.0000497110204611e+00  1.0000302199800939e+00  1.0000157744558806e+00  1.0000101813547875e+00  1.0000166901791019e+00  1.0000372887192666e+00  1.0000681724666434e+00  1.0000922410784945e+00  1.0000838448767164e+00  1.0000390835419350e+00  9.9999467026958078e-01  9.9998531840629756e-01  9.9999770685192846e-01  1.0000029065305178e+00  1.0000001879285096e+00  9.9999944853598677e-01  1.0000001230472557e+00  1.0000000469995218e+00  9.9999996044939299e-01  1.0000000189030669e+00  9.9999996042263217e-01  1.0000000806600839e+00  1.0000004780214848e+00  9.9999348465538940e-01  1.0000432741615548e+00  9.9979863022527971e-01  1.0006533978433285e+00  9.9897897829664539e-01  9.9649810986186460e-01  1.0333950808674945e+00  8.4830102346632530e-01  -3.2816134756871534e-02  1.2038161814394723e-03  5.5937395428049777e-04  -1.5998520767498522e-04  2.3628861569645490e-05  -1.6709473590239574e-06  -1.2005212681629759e-07  4.3432861814161784e-08  -2.1135926778633919e-09  -6.4574311897785936e-10  -1.9178040916588335e-10  2.5837275093026319e-10  -1.2340176985915677e-10  4.2083768464568551e-11  -1.2005893981289060e-11  3.1018198279507294e-12  -7.6372575772085102e-13  1.8332030562167468e-13  -4.1965620323912374e-14  8.2913496740876250e-15  -9.2471161355611110e-16  -2.8443450398011965e-16  2.7088665714029359e-16  -1.3472476011245282e-16  5.2802175471079074e-17  -1.7534935534716253e-17  4.9537688045223657e-18  -1.1288383216069373e-18  1.6180960854526555e-19  1.7737233413093106e-20  -2.5894032191238602e-20  1.3075522595627848e-20  -4.9751655622364955e-21  1.5909461440304995e-21  -4.3620578870962645e-22  9.9145663590822925e-23  -1.5784614210296462e-23  -2.1280571565639044e-25  1.5869904788684697e-24  -8.9104160177129452e-25  3.6610427357395077e-25  -1.2913087363976412e-25  4.1081393788236520e-26  -1.2018066407901136e-26  3.2517788834575760e-27  -8.0997071945693977e-28  1.8259891065605644e-28  -3.5476997506860223e-29  5.1201449528431853e-30  -1.0418911328268503e-31  -3.0937913559802291e-31  1.5847471051179818e-31  -5.5870022572200545e-32  1.7255173686828535e-32  -4.5766229668228275e-33  8.6788119851009810e-34  -1.3646988015319126e-34  3.8988285391013140e-35  2.3492378751184290e-37  -9.2774861981179051e-36  2.3913272132059920e-36  8.3077280907162353e-37  -2.0758888803728448e-37  -2.5411738842201446e-37  9.8043446364597326e-38  3.2531439733418941e-38  -2.4355486719476187e-38  -2.0140909514505178e-39  5.2624625422778316e-39  -8.2233901578015151e-40  -8.1500372961270256e-40  3.7595129860767121e-40  5.3048591546256089e-41  -1.2758742810084200e-40  1.0000434335118151e+00  1.0000109900052339e+00  1.0000121555081336e+00  1.0000010382327158e+00  9.9999165776490118e-01  9.9998071473499794e-01  9.9996929186661221e-01  9.9995737274120111e-01  9.9994509350868344e-01  9.9993259493321762e-01  9.9992012165265098e-01  9.9990803536435025e-01  9.9989675756262997e-01  9.9988667365821615e-01  9.9987805401059460e-01  9.9987102564283747e-01  9.9986560133100766e-01  9.9986175894018825e-01  9.9985951884329793e-01  9.9985894934774144e-01  9.9986011719184842e-01  9.9986305490427740e-01  9.9986774955506652e-01  9.9987411840977181e-01  9.9988197843136561e-01  9.9989103876314078e-01  9.9990092872319936e-01  9.9991125431762939e-01  9.9992166206587385e-01  9.9993189072207178e-01  9.9994180038192726e-01  9.9995136362875847e-01  9.9996062188929724e-01  9.9996964179574810e-01  9.9997848634630293e-01  9.9998719027716099e-01  9.9999574392734580e-01  1.0000040926249718e+00  1.0000121443327810e+00  1.0000197809224574e+00  1.0000268735688091e+00  1.0000332958671174e+00  1.0000389289906422e+00  1.0000436676240796e+00  1.0000474349519266e+00  1.0000501973680231e+00  1.0000519697144199e+00  1.0000528156684989e+00  1.0000528461575879e+00  1.0000522104698188e+00  1.0000510797584707e+00  1.0000496329178774e+00  1.0000480515258496e+00  1.0000465167234092e+00  1.0000451985059755e+00  1.0000442362700672e+00  1.0000437161459366e+00  1.0000436592096464e+00  1.0000440303807732e+00  1.0000447532170300e+00  1.0000457146342907e+00  1.0000467721646298e+00  1.0000477763769446e+00  1.0000485905175607e+00  1.0000490728717686e+00  1.0000490288261770e+00  1.0000480855418312e+00  1.0000454913211312e+00  1.0000401732462980e+00  1.0000306404181019e+00  1.0000157529333185e+00  9.9999942545604326e-01  9.9999132881944774e-01  9.9999460998539536e-01  1.0000001840473516e+00  1.0000010428115820e+00  9.9999991553462952e-01  9.9999984076031345e-01  1.0000000540752676e+00  1.0000000067809260e+00  9.9999998947852287e-01  1.0000000035415826e+00  9.9999999976690790e-01  9.9999999965849851e-01  1.0000000002039018e+00  9.9999999997566591e-01  9.9999999989427191e-01  9.9999999997888822e-01  1.0000000007263887e+00  9.9999999897189296e-01  9.9999999754194113e-01  1.0000000077628519e+00  1.0000000065700192e+00  9.9999996100233779e-01  9.9999997232352145e-01  1.0000001495734705e+00  1.0000001955981279e+00  9.9999968426161812e-01  9.9999904238139681e-01  9.9999949549944200e-01  1.0000015064744792e+00  1.0000036746443779e+00  1.0000038306329333e+00  1.0000012647930743e+00  9.9999708568586720e-01  9.9999258000517177e-01  9.9998852435153085e-01  9.9998563512773309e-01  9.9998439612191714e-01  9.9998477385851359e-01  9.9998650375183129e-01  9.9998931157566695e-01  9.9999291829260095e-01  9.9999707839092533e-01  1.0000016235052858e+00  1.0000064956843975e+00  1.0000118039599610e+00  1.0000178362547991e+00  1.0000248918208334e+00  1.0000329298040651e+00  1.0000413052074579e+00  1.0000488318943244e+00  1.0000539966268736e+00  1.0000550472353700e+00  1.0000501728802293e+00  1.0000382557933207e+00  1.0000198778284772e+00  9.9999726220292240e-01  9.9997263106075129e-01  9.9994665483659406e-01  9.9991893359350303e-01  9.9988991217382162e-01  9.9986186348249828e-01  9.9983794229596834e-01  9.9982048767710319e-01  9.9981000965582012e-01  9.9980526541108494e-01  9.9980410879206294e-01  9.9980456158955111e-01  9.9980559523021229e-01  9.9980740527670464e-01  9.9981122268830691e-01  9.9981878522811207e-01  9.9983164234156607e-01  9.9985047121430293e-01  9.9987455941179915e-01  9.9990180872173984e-01  9.9992964669978346e-01  9.9995635019353957e-01  9.9998142449507077e-01  1.0000045849205428e+00  1.0000246667354462e+00  1.0000398658431502e+00  1.0000489757373761e+00  1.0000521738823174e+00  1.0000507132777501e+00  1.0000461607183035e+00  1.0000399262151469e+00  1.0000331359709829e+00  1.0000265873888565e+00  1.0000207078994094e+00  1.0000155944903628e+00  1.0000111478541995e+00  1.0000072176594770e+00  1.0000036880701026e+00  1.0000004995812584e+00  9.9999763792853558e-01  9.9999511788598794e-01  9.9999296863835418e-01  9.9999121137984115e-01  9.9998983368545835e-01  9.9998878362948229e-01  9.9998798850830850e-01  9.9998737666720883e-01  9.9998688748069020e-01  9.9998647251462947e-01  9.9998609440953101e-01  9.9998572830583488e-01  9.9998537497615247e-01  9.9998508871347114e-01  9.9998500788282652e-01  9.9998540273034409e-01  9.9998667115510520e-01  9.9998914751955692e-01  9.9999293453144789e-01  9.9999764857190998e-01  1.0000017034402771e+00  1.0000029336648320e+00  1.0000014112093121e+00  9.9999979176620657e-01  9.9999963237977407e-01  1.0000000166168550e+00  1.0000000649619640e+00  9.9999998631525122e-01  9.9999999252332017e-01  1.0000000045151631e+00  9.9999999954880092e-01  9.9999999948464979e-01  1.0000000003414449e+00  9.9999999978162968e-01  1.0000000002394012e+00  1.0000000001757214e+00  9.9999999755153068e-01  1.0000000076412159e+00  9.9999999125764483e-01  9.9999997610656388e-01  1.0000001214186172e+00  9.9999985458966389e-01  9.9999957684134921e-01  1.0000015248946881e+00  1.0000004477476587e+00  9.9999199772961167e-01  9.9999950731837106e-01  1.0000328412001649e+00  1.0000282199757953e+00  9.9993530786132556e-01  9.9982979811897466e-01  9.9982289289117898e-01  9.9991342461288246e-01  1.0000167527021360e+00  1.0000776441636237e+00  1.0000944664724771e+00  1.0000810729586667e+00  1.0000481885931618e+00  1.0000041949440452e+00  9.9995635783565007e-01  9.9991134157034067e-01  9.9987432248583130e-01  9.9984759764207221e-01  9.9983057805781850e-01  9.9982097959333216e-01  9.9981622885469645e-01  9.9981425713401739e-01  9.9981364845577014e-01  9.9981353008768004e-01  9.9981342638533610e-01  9.9981312628411667e-01  9.9981258448800736e-01  9.9981186229344743e-01  9.9981109597215201e-01  9.9981046971808007e-01  9.9981017336443834e-01  9.9981034831227222e-01  9.9981104914575414e-01  9.9981224119072543e-01  9.9981382708502131e-01  9.9981568256371933e-01  9.9981767767020835e-01  9.9981967291430485e-01  9.9982151856891421e-01  9.9982307484194743e-01  9.9982422902564938e-01  9.9982490687066761e-01  9.9982507558145262e-01  9.9982471649520344e-01  9.9982381286345390e-01  9.9982239517613380e-01  9.9982057894304832e-01  9.9981854509233870e-01  9.9981650252188847e-01  9.9981465867251074e-01  9.9981318630140281e-01  9.9981219537487021e-01  9.9981172498979920e-01  9.9981175037426995e-01  9.9981219333487181e-01  9.9981292713605563e-01  9.9981377947500272e-01  9.9981454651167245e-01  9.9981502125095056e-01  9.9981503114122372e-01  9.9981448289297414e-01  9.9981341198823903e-01  9.9981203767607385e-01  9.9981083620108835e-01  9.9981063900848544e-01  9.9981274154362465e-01  9.9981893352191931e-01  9.9983123710771404e-01  9.9985128592399042e-01  9.9987959408003324e-01  9.9991477572447685e-01  9.9995295945321760e-01  9.9998797957338070e-01  1.0000120551419087e+00  1.0000163026576920e+00  9.9998806229419135e-01  9.9992074833770428e-01  9.9985695784206863e-01  9.9987381198002490e-01  9.9996000926935513e-01  1.0000141522974331e+00  1.0000081009321709e+00  9.9999698659902603e-01  9.9999943694469473e-01  1.0000006135317401e+00  9.9999984218445892e-01  9.9999998854061400e-01  1.0000000253500385e+00  9.9999998809965451e-01  1.0000000037814945e+00  9.9999999885630486e-01  1.0000000008000547e+00  9.9999999975659981e-01  9.9999999717874577e-01  1.0000000046514830e+00  1.0000000098961586e+00  9.9999997129476315e-01  9.9999996403198133e-01  1.0000001212789233e+00  1.0000001920744832e+00  9.9999970610967914e-01  9.9999906248399206e-01  9.9999963078966292e-01  1.0000018558967376e+00  1.0000038753534199e+00  1.0000031765181714e+00  9.9999924318907085e-01  9.9999360268732673e-01  9.9998822692853206e-01  9.9998482176799974e-01  9.9998440978058645e-01  9.9998677354671928e-01  9.9999078900029137e-01  9.9999532291325510e-01  9.9999972646185342e-01  1.0000038204171124e+00  1.0000076738766319e+00  1.0000114316825011e+00  1.0000152491419225e+00  1.0000192657651725e+00  1.0000235798941710e+00  1.0000282176739190e+00  1.0000331097453763e+00  1.0000380931509871e+00  1.0000429349587330e+00  1.0000473590594976e+00  1.0000510483405043e+00  1.0000535978056779e+00  1.0000544503158659e+00  1.0000528988858681e+00  1.0000481802866590e+00  1.0000396140151675e+00  1.0000268128509331e+00  1.0000099686475088e+00  9.9998986340809448e-01  9.9996719847143367e-01  9.9994176080425490e-01  9.9991280998521537e-01  9.9988091931374934e-01  9.9984923983847784e-01  9.9982258721216466e-01  9.9980568576306761e-01  9.9980230150423710e-01  9.9981463372120993e-01  9.9984202693038482e-01  9.9987997367066261e-01  9.9992081442140568e-01  9.9995578256770246e-01  9.9997669300930658e-01  9.9997653018233201e-01  9.9994966380634298e-01  9.9989603830049334e-01  9.9983467904596879e-01  9.9981258877177581e-01  9.9987021409707977e-01  9.9997327758628296e-01