<?xml version="1.0"?>
<VTKFile type="UnstructuredGrid"  version="0.1"  >
<UnstructuredGrid>
<Piece  NumberOfPoints="28121" NumberOfCells="55200">
<Points>
<DataArray  type="Float64"  NumberOfComponents="3"  format="ascii">0 0 0  0.008260869565217391 0 0  0.01652173913043478 0 0  0.02478260869565217 0 0  0.03304347826086956 0 0  0.04130434782608695 0 0  0.04956521739130434 0 0  0.05782608695652174 0 0  0.06608695652173913 0 0  0.07434782608695652 0 0  0.08260869565217391 0 0  0.0908695652173913 0 0  0.09913043478260869 0 0  0.1073913043478261 0 0  0.1156521739130435 0 0  0.1239130434782609 0 0  0.1321739130434783 0 0  0.1404347826086956 0 0  0.148695652173913 0 0  0.1569565217391304 0 0  0.1652173913043478 0 0  0.1734782608695652 0 0  0.1817391304347826 0 0  0.19 0 0  0.1982608695652174 0 0  0.2065217391304348 0 0  0.2147826086956522 0 0  0.2230434782608696 0 0  0.2313043478260869 0 0  0.2395652173913043 0 0  0.2478260869565218 0 0  0.2560869565217391 0 0  0.2643478260869565 0 0  0.2726086956521739 0 0  0.2808695652173913 0 0  0.2891304347826087 0 0  0.2973913043478261 0 0  0.3056521739130434 0 0  0.3139130434782609 0 0  0.3221739130434783 0 0  0.3304347826086956 0 0  0.338695652173913 0 0  0.3469565217391304 0 0  0.3552173913043478 0 0  0.3634782608695652 0 0  0.3717391304347826 0 0  0.3799999999999999 0 0  0.3882608695652174 0 0  0.3965217391304348 0 0  0.4047826086956521 0 0  0.4130434782608696 0 0  0.4213043478260869 0 0  0.4295652173913043 0 0  0.4378260869565217 0 0  0.4460869565217391 0 0  0.4543478260869565 0 0  0.4626086956521739 0 0  0.4708695652173913 0 0  0.4791304347826086 0 0  0.4873913043478261 0 0  0.4956521739130435 0 0  0.5039130434782608 0 0  0.5121739130434783 0 0  0.5204347826086956 0 0  0.528695652173913 0 0  0.5369565217391304 0 0  0.5452173913043478 0 0  0.5534782608695652 0 0  0.5617391304347825 0 0  0.57 0 0  0.5782608695652174 0 0  0.5865217391304348 0 0  0.5947826086956521 0 0  0.6030434782608696 0 0  0.6113043478260869 0 0  0.6195652173913043 0 0  0.6278260869565218 0 0  0.6360869565217391 0 0  0.6443478260869565 0 0  0.6526086956521739 0 0  0.6608695652173913 0 0  0.6691304347826087 0 0  0.677391304347826 0 0  0.6856521739130435 0 0  0.6939130434782609 0 0  0.7021739130434783 0 0  0.7104347826086956 0 0  0.718695652173913 0 0  0.7269565217391304 0 0  0.7352173913043478 0 0  0.7434782608695653 0 0  0.7517391304347827 0 0  0.7599999999999999 0 0  0.7682608695652173 0 0  0.7765217391304348 0 0  0.7847826086956522 0 0  0.7930434782608695 0 0  0.8013043478260868 0 0  0.8095652173913043 0 0  0.8178260869565217 0 0  0.8260869565217391 0 0  0.8343478260869565 0 0  0.8426086956521739 0 0  0.8508695652173912 0 0  0.8591304347826086 0 0  0.8673913043478261 0 0  0.8756521739130434 0 0  0.8839130434782608 0 0  0.8921739130434783 0 0  0.9004347826086956 0 0  0.908695652173913 0 0  0.9169565217391303 0 0  0.9252173913043478 0 0  0.9334782608695652 0 0  0.9417391304347826 0 0  0.95 0 0  0.9582608695652173 0 0  0.9665217391304347 0 0  0.9747826086956521 0 0  0.9830434782608696 0 0  0.991304347826087 0 0  0.9995652173913042 0 0  1.007826086956522 0 0  1.016086956521739 0 0  1.024347826086957 0 0  1.032608695652174 0 0  1.040869565217391 0 0  1.049130434782609 0 0  1.057391304347826 0 0  1.065652173913043 0 0  1.073913043478261 0 0  1.082173913043478 0 0  1.090434782608696 0 0  1.098695652173913 0 0  1.10695652173913 0 0  1.115217391304348 0 0  1.123478260869565 0 0  1.131739130434783 0 0  1.14 0 0  1.148260869565217 0 0  1.156521739130435 0 0  1.164782608695652 0 0  1.17304347826087 0 0  1.181304347826087 0 0  1.189565217391304 0 0  1.197826086956522 0 0  1.206086956521739 0 0  1.214347826086956 0 0  1.222608695652174 0 0  1.230869565217391 0 0  1.239130434782609 0 0  1.247391304347826 0 0  1.255652173913044 0 0  1.263913043478261 0 0  1.272173913043478 0 0  1.280434782608696 0 0  1.288695652173913 0 0  1.296956521739131 0 0  1.305217391304348 0 0  1.313478260869565 0 0  1.321739130434783 0 0  1.33 0 0  1.338260869565217 0 0  1.346521739130435 0 0  1.354782608695652 0 0  1.36304347826087 0 0  1.371304347826087 0 0  1.379565217391304 0 0  1.387826086956522 0 0  1.396086956521739 0 0  1.404347826086957 0 0  1.412608695652174 0 0  1.420869565217391 0 0  1.429130434782609 0 0  1.437391304347826 0 0  1.445652173913043 0 0  1.453913043478261 0 0  1.462173913043478 0 0  1.470434782608696 0 0  1.478695652173913 0 0  1.486956521739131 0 0  1.495217391304348 0 0  1.503478260869565 0 0  1.511739130434782 0 0  1.52 0 0  1.528260869565217 0 0  1.536521739130435 0 0  1.544782608695652 0 0  1.55304347826087 0 0  1.561304347826087 0 0  1.569565217391304 0 0  1.577826086956522 0 0  1.586086956521739 0 0  1.594347826086957 0 0  1.602608695652174 0 0  1.610869565217391 0 0  1.619130434782609 0 0  1.627391304347826 0 0  1.635652173913043 0 0  1.643913043478261 0 0  1.652173913043478 0 0  1.660434782608696 0 0  1.668695652173913 0 0  1.67695652173913 0 0  1.685217391304348 0 0  1.693478260869565 0 0  1.701739130434782 0 0  1.71 0 0  1.718260869565217 0 0  1.726521739130435 0 0  1.734782608695652 0 0  1.743043478260869 0 0  1.751304347826087 0 0  1.759565217391304 0 0  1.767826086956522 0 0  1.776086956521739 0 0  1.784347826086957 0 0  1.792608695652174 0 0  1.800869565217391 0 0  1.809130434782608 0 0  1.817391304347826 0 0  1.825652173913043 0 0  1.833913043478261 0 0  1.842173913043478 0 0  1.850434782608696 0 0  1.858695652173913 0 0  1.86695652173913 0 0  1.875217391304348 0 0  1.883478260869565 0 0  1.891739130434782 0 0  1.9 0 0  1.908260869565217 0 0  1.916521739130435 0 0  1.924782608695652 0 0  1.933043478260869 0 0  1.941304347826087 0 0  1.949565217391304 0 0  1.957826086956522 0 0  1.966086956521739 0 0  1.974347826086956 0 0  1.982608695652174 0 0  1.990869565217391 0 0  1.999130434782608 0 0  2.007391304347826 0 0  2.015652173913043 0 0  2.023913043478261 0 0  2.032173913043478 0 0  2.040434782608695 0 0  2.048695652173913 0 0  2.05695652173913 0 0  2.065217391304348 0 0  2.073478260869565 0 0  2.081739130434782 0 0  2.09 0 0  2.098260869565217 0 0  2.106521739130435 0 0  2.114782608695652 0 0  2.12304347826087 0 0  2.131304347826087 0 0  2.139565217391304 0 0  2.147826086956522 0 0  2.156086956521739 0 0  2.164347826086956 0 0  2.172608695652174 0 0  2.180869565217391 0 0  2.189130434782609 0 0  2.197391304347826 0 0  2.205652173913043 0 0  2.213913043478261 0 0  2.222173913043478 0 0  2.230434782608695 0 0  2.238695652173913 0 0  2.24695652173913 0 0  2.255217391304348 0 0  2.263478260869565 0 0  2.271739130434783 0 0  2.28 0 0  2.288260869565217 0 0  2.296521739130434 0 0  2.304782608695652 0 0  2.31304347826087 0 0  2.321304347826087 0 0  2.329565217391304 0 0  2.337826086956521 0 0  2.346086956521739 0 0  2.354347826086956 0 0  2.362608695652174 0 0  2.370869565217391 0 0  2.379130434782609 0 0  2.387391304347826 0 0  2.395652173913044 0 0  2.403913043478261 0 0  2.412173913043478 0 0  2.420434782608695 0 0  2.428695652173913 0 0  2.43695652173913 0 0  2.445217391304348 0 0  2.453478260869565 0 0  2.461739130434782 0 0  2.47 0 0  2.478260869565217 0 0  2.486521739130435 0 0  2.494782608695652 0 0  2.503043478260869 0 0  2.511304347826087 0 0  2.519565217391305 0 0  2.527826086956522 0 0  2.536086956521739 0 0  2.544347826086956 0 0  2.552608695652174 0 0  2.560869565217391 0 0  2.569130434782608 0 0  2.577391304347826 0 0  2.585652173913043 0 0  2.593913043478261 0 0  2.602173913043478 0 0  2.610434782608696 0 0  2.618695652173913 0 0  2.62695652173913 0 0  2.635217391304348 0 0  2.643478260869565 0 0  2.651739130434783 0 0  2.66 0 0  2.668260869565217 0 0  2.676521739130435 0 0  2.684782608695652 0 0  2.693043478260869 0 0  2.701304347826087 0 0  2.709565217391304 0 0  2.717826086956522 0 0  2.726086956521739 0 0  2.734347826086956 0 0  2.742608695652174 0 0  2.750869565217391 0 0  2.759130434782609 0 0  2.767391304347826 0 0  2.775652173913044 0 0  2.783913043478261 0 0  2.792173913043478 0 0  2.800434782608696 0 0  2.808695652173913 0 0  2.81695652173913 0 0  2.825217391304347 0 0  2.833478260869565 0 0  2.841739130434783 0 0  2.85 0 0  2.858260869565217 0 0  2.866521739130435 0 0  2.874782608695652 0 0  2.88304347826087 0 0  2.891304347826087 0 0  2.899565217391304 0 0  2.907826086956522 0 0  2.916086956521739 0 0  2.924347826086957 0 0  2.932608695652174 0 0  2.940869565217391 0 0  2.949130434782608 0 0  2.957391304347826 0 0  2.965652173913043 0 0  2.973913043478261 0 0  2.982173913043478 0 0  2.990434782608696 0 0  2.998695652173913 0 0  3.006956521739131 0 0  3.015217391304348 0 0  3.023478260869565 0 0  3.031739130434782 0 0  3.04 0 0  3.048260869565218 0 0  3.056521739130435 0 0  3.064782608695652 0 0  3.073043478260869 0 0  3.081304347826087 0 0  3.089565217391304 0 0  3.097826086956522 0 0  3.106086956521739 0 0  3.114347826086956 0 0  3.122608695652174 0 0  3.130869565217391 0 0  3.139130434782609 0 0  3.147391304347826 0 0  3.155652173913043 0 0  3.163913043478261 0 0  3.172173913043478 0 0  3.180434782608696 0 0  3.188695652173913 0 0  3.19695652173913 0 0  3.205217391304347 0 0  3.213478260869565 0 0  3.221739130434782 0 0  3.23 0 0  3.238260869565217 0 0  3.246521739130435 0 0  3.254782608695652 0 0  3.26304347826087 0 0  3.271304347826087 0 0  3.279565217391304 0 0  3.287826086956521 0 0  3.296086956521739 0 0  3.304347826086957 0 0  3.312608695652174 0 0  3.320869565217391 0 0  3.329130434782608 0 0  3.337391304347826 0 0  3.345652173913043 0 0  3.353913043478261 0 0  3.362173913043478 0 0  3.370434782608696 0 0  3.378695652173913 0 0  3.386956521739131 0 0  3.395217391304348 0 0  3.403478260869565 0 0  3.411739130434782 0 0  3.419999999999999 0 0  3.428260869565217 0 0  3.436521739130435 0 0  3.444782608695652 0 0  3.453043478260869 0 0  3.461304347826087 0 0  3.469565217391304 0 0  3.477826086956522 0 0  3.486086956521739 0 0  3.494347826086956 0 0  3.502608695652174 0 0  3.510869565217391 0 0  3.519130434782609 0 0  3.527391304347826 0 0  3.535652173913043 0 0  3.54391304347826
[...]
<PointData  Scalars="rho_bar"> 
<DataArray  type="Float64"  Name="rho_bar"  format="ascii">9.9998279228068709e-01  9.9999266575225387e-01  9.9999124750095980e-01  9.9999517485695466e-01  9.9999805043939860e-01  1.0000018278131557e+00  1.0000058429853684e+00  1.0000101412732902e+00  1.0000145689447020e+00  1.0000190003921758e+00  1.0000232945658998e+00  1.0000273187903954e+00  1.0000309626469726e+00  1.0000341488103148e+00  1.0000368358362548e+00  1.0000390132678811e+00  1.0000406849963650e+00  1.0000418447916062e+00  1.0000424666712859e+00  1.0000425200132637e+00  1.0000419870469750e+00  1.0000408668619598e+00  1.0000391762725236e+00  1.0000369551745663e+00  1.0000342705555156e+00  1.0000312136838196e+00  1.0000278903704602e+00  1.0000244080555365e+00  1.0000208638905983e+00  1.0000173341928786e+00  1.0000138685374684e+00  1.0000104948103545e+00  1.0000072305612102e+00  1.0000040907772938e+00  1.0000010920679441e+00  9.9999825529822262e-01  9.9999560462295212e-01  9.9999316383812364e-01  9.9999095312732766e-01  9.9998898690096627e-01  9.9998727297115642e-01  9.9998581386672869e-01  9.9998460914535980e-01  9.9998365603246975e-01  9.9998294821756761e-01  9.9998247480460067e-01  9.9998221966800094e-01  9.9998216035587106e-01  9.9998226746177088e-01  9.9998250579212533e-01  9.9998283614257544e-01  9.9998321548350744e-01  9.9998359661268299e-01  9.9998393054829982e-01  9.9998417270600004e-01  9.9998429143517087e-01  9.9998427513193033e-01  9.9998413276554599e-01  9.9998388848218123e-01  9.9998357656591119e-01  9.9998323778191711e-01  9.9998291397219574e-01  9.9998264407605830e-01  9.9998246773694099e-01  9.9998243612267435e-01  9.9998263680273469e-01  9.9998323818948709e-01  9.9998452800836679e-01  9.9998699472119368e-01  9.9999121594098483e-01  9.9999675712444958e-01  1.0000011776099464e+00  1.0000021823561884e+00  1.0000007945707285e+00  9.9999978140829782e-01  9.9999985578345041e-01  1.0000000480558560e+00  1.0000000142156547e+00  9.9999998869735662e-01  1.0000000015197543e+00  1.0000000010971914e+00  9.9999999931477790e-01  1.0000000001634068e+00  1.0000000000129572e+00  9.9999999995685962e-01  1.0000000000450269e+00  1.0000000000237166e+00  9.9999999976717679e-01  1.0000000002251306e+00  1.0000000009401164e+00  9.9999999781469562e-01  9.9999999697458508e-01  1.0000000116646759e+00  1.0000000120934400e+00  9.9999995403136699e-01  9.9999992946603355e-01  1.0000001034004946e+00  1.0000003382392582e+00  1.0000001567064079e+00  9.9999938154586654e-01  9.9999860615176817e-01  9.9999869757247517e-01  9.9999992571527152e-01  1.0000018093115324e+00  1.0000036564988843e+00  1.0000049940282678e+00  1.0000056268215309e+00  1.0000055833990655e+00  1.0000050306393466e+00  1.0000041539579401e+00  1.0000030864671448e+00  1.0000019028364837e+00  1.0000006305634004e+00  9.9999926369431358e-01  9.9999777873679718e-01  9.9999614676145865e-01  9.9999434061705139e-01  9.9999234348735133e-01  9.9999016543458241e-01  9.9998786480694368e-01  9.9998556435896124e-01  9.9998345999871741e-01  9.9998182394432689e-01  9.9998099332085244e-01  9.9998133279177814e-01  9.9998316954325428e-01  9.9998671143557649e-01  9.9999197907139614e-01  9.9999879087304866e-01  1.0000068117881540e+00  1.0000156287679349e+00  1.0000247887574374e+00  1.0000337720412684e+00  1.0000419747732616e+00  1.0000488099215306e+00  1.0000539029080922e+00  1.0000572113893045e+00  1.0000589545202156e+00  1.0000594218635586e+00  1.0000588064339004e+00  1.0000571351010850e+00  1.0000542942965558e+00  1.0000501239321973e+00  1.0000445381520748e+00  1.0000376207385442e+00  1.0000296545582290e+00  1.0000210796928237e+00  1.0000124141968008e+00  1.0000041826196691e+00  9.9999686938101473e-01  9.9999088063372499e-01  9.9998649478736368e-01  9.9998380840231094e-01  9.9998271296770602e-01  9.9998293172398289e-01  9.9998410199766441e-01  9.9998585952459518e-01  9.9998789631249585e-01  9.9998998850714915e-01  9.9999199800552663e-01  9.9999385464746138e-01  9.9999553183344403e-01  9.9999702668837454e-01  9.9999834746380079e-01  9.9999950633398127e-01  1.0000005157646090e+00  1.0000013863950419e+00  1.0000021252280316e+00  1.0000027364177466e+00  1.0000032264830960e+00  1.0000036093556479e+00  1.0000039055670031e+00  1.0000041373326594e+00  1.0000043248915991e+00  1.0000044854817973e+00  1.0000046333717760e+00  1.0000047796253551e+00  1.0000049297318752e+00  1.0000050769437350e+00  1.0000051911630741e+00  1.0000052042507854e+00  1.0000050022186011e+00  1.0000044430792476e+00  1.0000033975210181e+00  1.0000018639873445e+00  1.0000002203533760e+00  9.9999921686558113e-01  9.9999925546314594e-01  9.9999981105579860e-01  1.0000001094420035e+00  1.0000000557460798e+00  9.9999998145499791e-01  9.9999999211180191e-01  1.0000000045366750e+00  1.0000000001399572e+00  9.9999999922724803e-01  1.0000000002621263e+00  1.0000000000009970e+00  9.9999999997441225e-01  1.0000000000362534e+00  9.9999999978902043e-01  1.0000000006505847e+00  9.9999999915979765e-01  9.9999999836218278e-01  1.0000000103335860e+00  9.9999998253649369e-01  9.9999997853654121e-01  1.0000001469885789e+00  9.9999987318613826e-01  9.9999936915292353e-01  1.0000011910022142e+00  1.0000025647690627e+00  9.9999511836429011e-01  9.9998711269049734e-01  1.0000026990627711e+00  1.0000396897595407e+00  1.0000614177528040e+00  1.0000452692228292e+00  1.0000069378973906e+00  9.9997276385623379e-01  9.9995439670865760e-01  9.9995076176048825e-01  9.9995744366730033e-01  9.9997047402246253e-01  9.9998669911503313e-01  1.0000035800649645e+00  1.0000191163555721e+00  1.0000320036552250e+00  1.0000417620435531e+00  1.0000486047783055e+00  1.0000531196700744e+00  1.0000559687106618e+00  1.0000577205155274e+00  1.0000587977954225e+00  1.0000594845138637e+00  1.0000599550556053e+00  1.0000603058414894e+00  1.0000605796048405e+00  1.0000607802517398e+00  1.0000608824962416e+00  1.0000608439820093e+00  1.0000606236435308e+00  1.0000602003803181e+00  1.0000595821636862e+00  1.0000588027331410e+00  1.0000579098666329e+00  1.0000569534049200e+00  1.0000559828997704e+00  1.0000550524683576e+00  1.0000542189446566e+00  1.0000535341004586e+00  1.0000530393962426e+00  1.0000527616454333e+00  1.0000527149869460e+00  1.0000529107411602e+00  1.0000533540128718e+00  1.0000540251452934e+00  1.0000548730459837e+00  1.0000558265145605e+00  1.0000568070723206e+00  1.0000577396505146e+00  1.0000585639613044e+00  1.0000592417303020e+00  1.0000597573916092e+00  1.0000601155227522e+00  1.0000603375314852e+00  1.0000604581059749e+00  1.0000605194633845e+00  1.0000605621942056e+00  1.0000606137414167e+00  1.0000606750799328e+00  1.0000607055089368e+00  1.0000606057982946e+00  1.0000601978243040e+00  1.0000592009620239e+00  1.0000572146648761e+00  1.0000537308197537e+00  1.0000482103250792e+00  1.0000402341984160e+00  1.0000296823995489e+00  1.0000168952209085e+00  1.0000028284756146e+00  9.9998921311479916e-01  9.9997866420333603e-01  9.9997451428238882e-01  9.9998066144169262e-01  9.9999987952392722e-01  1.0000253692553593e+00  1.0000368171895861e+00  1.0000233064050441e+00  1.0000031198628698e+00  9.9999672080812430e-01  9.9999952609024467e-01  1.0000005527211977e+00  9.9999993005753607e-01  9.9999994131437853e-01  1.0000000320663791e+00  9.9999999356926139e-01  9.9999999889621616e-01  1.0000000013444401e+00  9.9999999942275486e-01  1.0000000001872396e+00  9.9999999970830278e-01  1.0000000005008089e+00  1.0000000005937382e+00  9.9999999686151242e-01  9.9999999923541738e-01  1.0000000149860098e+00  1.0000000027794709e+00  9.9999993910026419e-01  9.9999995066303615e-01  1.0000001636044134e+00  1.0000003528763455e+00  1.0000000567365477e+00  9.9999922870189328e-01  9.9999853646223857e-01  9.9999878253727448e-01  1.0000001370020009e+00  1.0000020810334287e+00  1.0000039241964693e+00  1.0000051885045849e+00  1.0000056853704919e+00  1.0000054849740454e+00  1.0000048098256162e+00  1.0000038818281356e+00  1.0000028424275997e+00  1.0000017597290944e+00  1.0000006576343496e+00  9.9999953680334874e-01  9.9999838672002228e-01  9.9999719310852975e-01  9.9999594423445715e-01  9.9999463497283569e-01  9.9999326643731357e-01  9.9999184318063006e-01  9.9999037092231147e-01  9.9998885501743540e-01  9.9998730372830924e-01  9.9998574282753472e-01  9.9998423469170872e-01  9.9998288720430417e-01  9.9998185551299512e-01  9.9998135566001578e-01  9.9998169303184936e-01  9.9998327593846958e-01  9.9998657692899562e-01  9.9999202798688602e-01  9.9999987053953077e-01  1.0000100337705962e+00  1.0000221207771498e+00  1.0000354257293624e+00  1.0000487732128314e+00  1.0000602126004219e+00  1.0000669848154160e+00  1.0000661486057600e+00  1.0000558307136751e+00  1.0000365207766877e+00  1.0000114639590822e+00  9.9998576486797586e-01  9.9996505178073525e-01  9.9995458019427297e-01  9.9995872972666955e-01  9.9998042659182040e-01  1.0000162319891073e+00  1.0000465533386536e+00  1.0000453821051725e+00  1.0000165164490349e+00  9.9999466362077816e-01  9.9999512089350706e-01  1.0000008302475223e+00  1.0000007628687444e+00  9.9999968849638232e-01  9.9999996293592353e-01  1.0000000609629962e+00  9.9999997763978477e-01  1.0000000038326389e+00  1.0000000056791769e+00  9.9999984855728530e-01  1.0000011928796453e+00  9.9999401510081465e-01  1.0000182334518160e+00  1.0000041501528989e+00  9.9950474280645318e-01  1.0039605007454326e+00  9.7922752476476971e-01  1.0783931880354209e+00  6.2601914766535394e-01  -2.3367926959222282e-04  -3.4073897595170123e-04  5.0145123774032328e-04  -9.6398773317011780e-05  1.0423441182461273e-05  7.9899268481823561e-08  -2.7670897710712515e-07  5.9252827181639375e-08  -6.4864100587374684e-09  4.4838680076437698e-10  -2.2008032722046898e-10  1.5120622048429574e-10  -6.4920058526183923e-11  2.1262170568944672e-11  -5.9583115259561949e-12  1.5436937956186636e-12  -3.8817367650693123e-13  9.6432908300621530e-14  -2.2607109089574775e-14  4.3912965109414984e-15  -3.4848189847670530e-16  -2.5875643740487806e-16  1.9540320926596929e-16  -8.9387648127257191e-17  3.2024743609488752e-17  -9.2666958274503624e-18  2.0088279059421620e-18  -1.9233104376658698e-19  -9.6205455271729328e-20  7.3766693062354775e-20  -3.1739973721452112e-20  1.0381560552649182e-20  -2.6327151704665098e-21  4.3406063704476666e-22  2.1704084465493683e-23  -5.6871823616944882e-23  3.0562164580017940e-23  -1.1901175419084528e-23  3.8202085128240609e-24  -1.0305455171082706e-24  2.2210289795973136e-25  -2.8922424332121741e-26  -4.3548420040463326e-27  5.1597482545734932e-27  -2.5339579782093809e-27  9.7224733461300359e-28  -3.2524204988275774e-28  9.8800668570428250e-29  -2.7755480735263474e-29  7.2900126427489487e-30  -1.8117246696348678e-30  4.2887160637863899e-31  -9.8310195663381584e-32  2.3166102306771345e-32  -5.7561619795567661e-33  1.4456430180321309e-33  -4.1822684174410654e-34  1.4763075929241393e-34  -4.2450156035643176e-35  7.6933681712384301e-36  -2.4195984197077659e-36  1.5578430894424888e-36  -3.7949069801873814e-37  -1.0502825329380948e-37  5.0961301473655066e-38  2.2025924749729893e-38  -1.5390544979555064e-38  -1.2867608532690721e-39  3.3055365911595565e-39  -5.1553783254696668e-40  -5.0996670339774163e-40  2.3474206253350493e-40  3.3504022400757325e-41  -7.9870097509459206e-41  1.0000456022960325e+00  1.0000152349655185e+00  1.0000196767088423e+00  1.0000125863364613e+00  1.0000071625375904e+00  1.0000001029946193e+00  9.9999237986339040e-01  9.9998401343358434e-01  9.9997525626221195e-01  9.9996635709942772e-01  9.9995759140494489e-01  9.9994923604928043e-01  9.9994153801193852e-01  9.9993468672163244e-01  9.9992880087489533e-01  9.9992393028903470e-01  9.9992007564940999e-01  9.9991723335336624e-01  9.9991543718512677e-01  9.9991475019310272e-01  9.9991522350917816e-01  9.9991687546951691e-01  9.9991969125259650e-01  9.9992361594457224e-01  9.9992854293831823e-01  9.9993431223243556e-01  9.9994072342546048e-01  9.9994755982857153e-01  9.9995461394356122e-01  9.9996170951291363e-01  9.9996872004962190e-01  9.9997557081497812e-01  9.9998221897516515e-01  9.9998863299146623e-01  9.9999478213709647e-01  1.0000006292247701e+00  1.0000061283554351e+00  1.0000112305698778e+00  1.0000158912388608e+00  1.0000200753326751e+00  1.0000237606622375e+00  1.0000269375341952e+00  1.0000296043999937e+00  1.0000317642932166e+00  1.0000334259164358e+00  1.0000346063715755e+00  1.0000353324993507e+00  1.0000356425457164e+00  1.0000355884198719e+00  1.0000352352869510e+00  1.0000346578976396e+00  1.0000339382545147e+00  1.0000331666735880e+00  1.0000324404772007e+00  1.0000318552066283e+00  1.0000314894151290e+00  1.0000313876206803e+00  1.0000315514845182e+00  1.0000319461949723e+00  1.0000325125302885e+00  1.0000331744393285e+00  1.0000338476541104e+00  1.0000344511076922e+00  1.0000349083529976e+00  1.0000351319001279e+00  1.0000349921723402e+00  1.0000342462805378e+00  1.0000324442436377e+00  1.0000288444165573e+00  1.0000222903442773e+00  1.0000121786053227e+00  1.0000013476740743e+00  9.9999564574763544e-01  9.9999681839386578e-01  9.9999981431981377e-01  1.0000005152959976e+00  1.0000000020944770e+00  9.9999991847662029e-01  1.0000000203788728e+00  1.0000000056088929e+00  9.9999999491290292e-01  1.0000000013695796e+00  1.0000000000523455e+00  9.9999999979218057e-01  1.0000000001082356e+00  9.9999999999193456e-01  9.9999999988256827e-01  1.0000000001401095e+00  1.0000000004338927e+00  9.9999999853703747e-01  9.9999999962267649e-01  1.0000000079758644e+00  9.9999999636067383e-01  9.9999996411126468e-01  1.0000000167603669e+00  1.0000001503657650e+00  1.0000000325201639e+00  9.9999952342564657e-01  9.9999933180303036e-01  1.0000003381850096e+00  1.0000021357479711e+00  1.0000030062368961e+00  1.0000016351108174e+00  9.9999833429860818e-01  9.9999444665407589e-01  9.9999118216803773e-01  9.9998919406478437e-01  9.9998863671506355e-01  9.9998928428121647e-01  9.9999075498984125e-01  9.9999272436257414e-01  9.9999498748707238e-01  9.9999744495001519e-01  1.0000000793019135e+00  1.0000029238380077e+00  1.0000060331691796e+00  1.0000094647808353e+00  1.0000132654979155e+00  1.0000174474679859e+00  1.0000219475634629e+00  1.0000265874222278e+00  1.0000310499658447e+00  1.0000348669978207e+00  1.0000374234603591e+00  1.0000380044883583e+00  1.0000358986660922e+00  1.0000305494211328e+00  1.0000217156458724e+00  1.0000095632535382e+00  9.9999462800475569e-01  9.9997767629208190e-01  9.9995957459056417e-01  9.9994128165367235e-01  9.9992392607188629e-01  9.9990874404864738e-01  9.9989674979809073e-01  9.9988836796096914e-01  9.9988337948343897e-01  9.9988122362941956e-01  9.9988138804210214e-01  9.9988364972826205e-01  9.9988811323915139e-01  9.9989508289615958e-01  9.9990483530824736e-01  9.9991738975349354e-01  9.9993237646847444e-01  9.9994905337809681e-01  9.9996644013031566e-01  9.9998347874112814e-01  9.9999915058251443e-01  1.0000125542495868e+00  1.0000229902457556e+00  1.0000300708463088e+00  1.0000338088532876e+00  1.0000346070638115e+00  1.0000331286972874e+00  1.0000301193144625e+00  1.0000262617759597e+00  1.0000220915604385e+00  1.0000179680868382e+00  1.0000140935094997e+00  1.0000105587283303e+00  1.0000073893463362e+00  1.0000045777139757e+00  1.0000021022014518e+00  9.9999993765762707e-01  9.9999806050965412e-01  9.9999645274149784e-01  9.9999510401410774e-01  9.9999400548271022e-01  9.9999313742364726e-01  9.9999246426543265e-01  9.9999194193099850e-01  9.9999152748166176e-01  9.9999118342547499e-01  9.9999087829751299e-01  9.9999058661510432e-01  9.9999029079781243e-01  9.9998998980566156e-01  9.9998971722989471e-01  9.9998956721877030e-01  9.9998972208532566e-01  9.9999044654376934e-01  9.9999202348951366e-01  9.9999462973096276e-01  9.9999796884411440e-01  1.0000008292794140e+00  1.0000017819378790e+00  1.0000009375225616e+00  9.9999994673393611e-01  9.9999979146213536e-01  9.9999999580522714e-01  1.0000000358745658e+00  9.9999999477967172e-01  9.9999999547661145e-01  1.0000000022174196e+00  9.9999999989761157e-01  9.9999999970071995e-01  1.0000000001773743e+00  9.9999999988039023e-01  1.0000000001289013e+00  1.0000000001604623e+00  9.9999999841325571e-01  1.0000000046008690e+00  9.9999999556579722e-01  9.9999998298400794e-01  1.0000000749713254e+00  9.9999992465633836e-01  9.9999970851628728e-01  1.0000009138539585e+00  1.0000004465917367e+00  9.9999501343702535e-01  9.9999913756178149e-01  1.0000206685804396e+00  1.0000190845129466e+00  9.9995941664394750e-01  9.9988945417723207e-01  9.9988380816659239e-01  9.9994619154682873e-01  1.0000239382983964e+00  1.0000770078307224e+00  1.0000978411623200e+00  1.0000935910019679e+00  1.0000728741694096e+00  1.0000427854590257e+00  1.0000089809377974e+00  9.9997603550744263e-01  9.9994732352844473e-01  9.9992463336095616e-01  9.9990815671927524e-01  9.9989699394092990e-01  9.9988982648615221e-01  9.9988539286439115e-01  9.9988269395186136e-01  9.9988102583354477e-01  9.9987993670980202e-01  9.9987916222907269e-01  9.9987856781855333e-01  9.9987810960693024e-01  9.9987781154061350e-01  9.9987774554642994e-01  9.9987800087089818e-01  9.9987864414478056e-01  9.9987968956147122e-01  9.9988109365861999e-01  9.9988277179644935e-01  9.9988462448895910e-01  9.9988655406938565e-01  9.9988845860531672e-01  9.9989022553965834e-01  9.9989174500668743e-01  9.9989292341892133e-01  9.9989369162512032e-01  9.9989401140705636e-01  9.9989386024179527e-01  9.9989321768935269e-01  9.9989209347757946e-01  9.9989056010342858e-01  9.9988874380385595e-01  9.9988679655130086e-01  9.9988487451918995e-01  9.9988311550387543e-01  9.9988161842714207e-01  9.9988043618046496e-01  9.9987957837861963e-01  9.9987901769850462e-01  9.9987869654591977e-01  9.9987853563593765e-01  9.9987844900113121e-01  9.9987836512146244e-01  9.9987825156076271e-01  9.9987814366724048e-01  9.9987817654480671e-01  9.9987862145196693e-01  9.9987993071225145e-01  9.9988278258882479e-01  9.9988809435404669e-01  9.9989694276580166e-01  9.9991033235487548e-01  9.9992884652854930e-01  9.9995230423685633e-01  9.9997945278920053e-01  1.0000076495237951e+00  1.0000325695128678e+00  1.0000481738671694e+00  1.0000472609241629e+00  1.0000222953009990e+00  9.9997394359085567e-01  9.9993069617767849e-01  9.9993383702703464e-01  9.9997581630481702e-01  1.0000045330892373e+00  1.0000038334621371e+00  9.9999888215993971e-01  9.9999970308029440e-01  1.0000002493360156e+00  9.9999994224397970e-01  9.9999999307661791e-01  1.0000000104323492e+00  9.9999999533508843e-01  1.0000000014462760e+00  9.9999999951145535e-01  1.0000000003584639e+00  1.0000000001714926e+00  9.9999999817456164e-01  1.0000000013628021e+00  1.0000000081379214e+00  9.9999998823194858e-01  9.9999996580248163e-01  1.0000000488158780e+00  1.0000001571619781e+00  9.9999993949645549e-01  9.9999941792045277e-01  9.9999941327979258e-01  1.0000006257210607e+00  1.0000023915731997e+00  1.0000029934192896e+00  1.0000013222344908e+00  9.9999783496980310e-01  9.9999389132233985e-01  9.9999070130343237e-01  9.9998892836994324e-01  9.9998867872617747e-01  9.9998961866097458e-01  9.9999126830546270e-01  9.9999325983252363e-01  9.9999539171748331e-01  9.9999757848629489e-01  9.9999979951679052e-01  1.0000020667516181e+00  1.0000044065992888e+00  1.0000068466003456e+00  1.0000094041143952e+00  1.0000120824626257e+00  1.0000148752621156e+00  1.0000177718104022e+00  1.0000207606817193e+00  1.0000238302234297e+00  1.0000269517066380e+00  1.0000300411815284e+00  1.0000329285844136e+00  1.0000353514923002e+00  1.0000369448231212e+00  1.0000371951326035e+00  1.0000353873509198e+00  1.0000306224095095e+00  1.0000219612564063e+00  1.0000086895626583e+00  9.9999061619132035e-01  9.9996822165710408e-01  9.9994260339462082e-01  9.9991556619364752e-01  9.9989015790604108e-01  9.9987114754763240e-01  9.9986448664409233e-01  9.9987536084933470e-01  9.9990542778082669e-01  9.9995087409961525e-01  1.0000029826429742e+00  1.0000507269875376e+00  1.0000830819837772e+00  1.0000903219844195e+00  1.0000649657573932e+00  1.0000052647465874e+00  9.9993162409441338e-01  9.9989712889112126e-01  9.9993458916942812e-01