<?xml version="1.0"?>
<VTKFile type="UnstructuredGrid"  version="0.1"  >
<UnstructuredGrid>
<Piece  NumberOfPoints="28121" NumberOfCells="55200">
<Points>
<DataArray  type="Float64"  NumberOfComponents="3"  format="ascii">0 0 0  0.008260869565217391 0 0  0.01652173913043478 0 0  0.02478260869565217 0 0  0.03304347826086956 0 0  0.04130434782608695 0 0  0.04956521739130434 0 0  0.05782608695652174 0 0  0.06608695652173913 0 0  0.07434782608695652 0 0  0.08260869565217391 0 0  0.0908695652173913 0 0  0.09913043478260869 0 0  0.1073913043478261 0 0  0.1156521739130435 0 0  0.1239130434782609 0 0  0.1321739130434783 0 0  0.1404347826086956 0 0  0.148695652173913 0 0  0.1569565217391304 0 0  0.1652173913043478 0 0  0.1734782608695652 0 0  0.1817391304347826 0 0  0.19 0 0  0.1982608695652174 0 0  0.2065217391304348 0 0  0.2147826086956522 0 0  0.2230434782608696 0 0  0.2313043478260869 0 0  0.2395652173913043 0 0  0.2478260869565218 0 0  0.2560869565217391 0 0  0.2643478260869565 0 0  0.2726086956521739 0 0  0.2808695652173913 0 0  0.2891304347826087 0 0  0.2973913043478261 0 0  0.3056521739130434 0 0  0.3139130434782609 0 0  0.3221739130434783 0 0  0.3304347826086956 0 0  0.338695652173913 0 0  0.3469565217391304 0 0  0.3552173913043478 0 0  0.3634782608695652 0 0  0.3717391304347826 0 0  0.3799999999999999 0 0  0.3882608695652174 0 0  0.3965217391304348 0 0  0.4047826086956521 0 0  0.4130434782608696 0 0  0.4213043478260869 0 0  0.4295652173913043 0 0  0.4378260869565217 0 0  0.4460869565217391 0 0  0.4543478260869565 0 0  0.4626086956521739 0 0  0.4708695652173913 0 0  0.4791304347826086 0 0  0.4873913043478261 0 0  0.4956521739130435 0 0  0.5039130434782608 0 0  0.5121739130434783 0 0  0.5204347826086956 0 0  0.528695652173913 0 0  0.5369565217391304 0 0  0.5452173913043478 0 0  0.5534782608695652 0 0  0.5617391304347825 0 0  0.57 0 0  0.5782608695652174 0 0  0.5865217391304348 0 0  0.5947826086956521 0 0  0.6030434782608696 0 0  0.6113043478260869 0 0  0.6195652173913043 0 0  0.6278260869565218 0 0  0.6360869565217391 0 0  0.6443478260869565 0 0  0.6526086956521739 0 0  0.6608695652173913 0 0  0.6691304347826087 0 0  0.677391304347826 0 0  0.6856521739130435 0 0  0.6939130434782609 0 0  0.7021739130434783 0 0  0.7104347826086956 0 0  0.718695652173913 0 0  0.7269565217391304 0 0  0.7352173913043478 0 0  0.7434782608695653 0 0  0.7517391304347827 0 0  0.7599999999999999 0 0  0.7682608695652173 0 0  0.7765217391304348 0 0  0.7847826086956522 0 0  0.7930434782608695 0 0  0.8013043478260868 0 0  0.8095652173913043 0 0  0.8178260869565217 0 0  0.8260869565217391 0 0  0.8343478260869565 0 0  0.8426086956521739 0 0  0.8508695652173912 0 0  0.8591304347826086 0 0  0.8673913043478261 0 0  0.8756521739130434 0 0  0.8839130434782608 0 0  0.8921739130434783 0 0  0.9004347826086956 0 0  0.908695652173913 0 0  0.9169565217391303 0 0  0.9252173913043478 0 0  0.9334782608695652 0 0  0.9417391304347826 0 0  0.95 0 0  0.9582608695652173 0 0  0.9665217391304347 0 0  0.9747826086956521 0 0  0.9830434782608696 0 0  0.991304347826087 0 0  0.9995652173913042 0 0  1.007826086956522 0 0  1.016086956521739 0 0  1.024347826086957 0 0  1.032608695652174 0 0  1.040869565217391 0 0  1.049130434782609 0 0  1.057391304347826 0 0  1.065652173913043 0 0  1.073913043478261 0 0  1.082173913043478 0 0  1.090434782608696 0 0  1.098695652173913 0 0  1.10695652173913 0 0  1.115217391304348 0 0  1.123478260869565 0 0  1.131739130434783 0 0  1.14 0 0  1.148260869565217 0 0  1.156521739130435 0 0  1.164782608695652 0 0  1.17304347826087 0 0  1.181304347826087 0 0  1.189565217391304 0 0  1.197826086956522 0 0  1.206086956521739 0 0  1.214347826086956 0 0  1.222608695652174 0 0  1.230869565217391 0 0  1.239130434782609 0 0  1.247391304347826 0 0  1.255652173913044 0 0  1.263913043478261 0 0  1.272173913043478 0 0  1.280434782608696 0 0  1.288695652173913 0 0  1.296956521739131 0 0  1.305217391304348 0 0  1.313478260869565 0 0  1.321739130434783 0 0  1.33 0 0  1.338260869565217 0 0  1.346521739130435 0 0  1.354782608695652 0 0  1.36304347826087 0 0  1.371304347826087 0 0  1.379565217391304 0 0  1.387826086956522 0 0  1.396086956521739 0 0  1.404347826086957 0 0  1.412608695652174 0 0  1.420869565217391 0 0  1.429130434782609 0 0  1.437391304347826 0 0  1.445652173913043 0 0  1.453913043478261 0 0  1.462173913043478 0 0  1.470434782608696 0 0  1.478695652173913 0 0  1.486956521739131 0 0  1.495217391304348 0 0  1.503478260869565 0 0  1.511739130434782 0 0  1.52 0 0  1.528260869565217 0 0  1.536521739130435 0 0  1.544782608695652 0 0  1.55304347826087 0 0  1.561304347826087 0 0  1.569565217391304 0 0  1.577826086956522 0 0  1.586086956521739 0 0  1.594347826086957 0 0  1.602608695652174 0 0  1.610869565217391 0 0  1.619130434782609 0 0  1.627391304347826 0 0  1.635652173913043 0 0  1.643913043478261 0 0  1.652173913043478 0 0  1.660434782608696 0 0  1.668695652173913 0 0  1.67695652173913 0 0  1.685217391304348 0 0  1.693478260869565 0 0  1.701739130434782 0 0  1.71 0 0  1.718260869565217 0 0  1.726521739130435 0 0  1.734782608695652 0 0  1.743043478260869 0 0  1.751304347826087 0 0  1.759565217391304 0 0  1.767826086956522 0 0  1.776086956521739 0 0  1.784347826086957 0 0  1.792608695652174 0 0  1.800869565217391 0 0  1.809130434782608 0 0  1.817391304347826 0 0  1.825652173913043 0 0  1.833913043478261 0 0  1.842173913043478 0 0  1.850434782608696 0 0  1.858695652173913 0 0  1.86695652173913 0 0  1.875217391304348 0 0  1.883478260869565 0 0  1.891739130434782 0 0  1.9 0 0  1.908260869565217 0 0  1.916521739130435 0 0  1.924782608695652 0 0  1.933043478260869 0 0  1.941304347826087 0 0  1.949565217391304 0 0  1.957826086956522 0 0  1.966086956521739 0 0  1.974347826086956 0 0  1.982608695652174 0 0  1.990869565217391 0 0  1.999130434782608 0 0  2.007391304347826 0 0  2.015652173913043 0 0  2.023913043478261 0 0  2.032173913043478 0 0  2.040434782608695 0 0  2.048695652173913 0 0  2.05695652173913 0 0  2.065217391304348 0 0  2.073478260869565 0 0  2.081739130434782 0 0  2.09 0 0  2.098260869565217 0 0  2.106521739130435 0 0  2.114782608695652 0 0  2.12304347826087 0 0  2.131304347826087 0 0  2.139565217391304 0 0  2.147826086956522 0 0  2.156086956521739 0 0  2.164347826086956 0 0  2.172608695652174 0 0  2.180869565217391 0 0  2.189130434782609 0 0  2.197391304347826 0 0  2.205652173913043 0 0  2.213913043478261 0 0  2.222173913043478 0 0  2.230434782608695 0 0  2.238695652173913 0 0  2.24695652173913 0 0  2.255217391304348 0 0  2.263478260869565 0 0  2.271739130434783 0 0  2.28 0 0  2.288260869565217 0 0  2.296521739130434 0 0  2.304782608695652 0 0  2.31304347826087 0 0  2.321304347826087 0 0  2.329565217391304 0 0  2.337826086956521 0 0  2.346086956521739 0 0  2.354347826086956 0 0  2.362608695652174 0 0  2.370869565217391 0 0  2.379130434782609 0 0  2.387391304347826 0 0  2.395652173913044 0 0  2.403913043478261 0 0  2.412173913043478 0 0  2.420434782608695 0 0  2.428695652173913 0 0  2.43695652173913 0 0  2.445217391304348 0 0  2.453478260869565 0 0  2.461739130434782 0 0  2.47 0 0  2.478260869565217 0 0  2.486521739130435 0 0  2.494782608695652 0 0  2.503043478260869 0 0  2.511304347826087 0 0  2.519565217391305 0 0  2.527826086956522 0 0  2.536086956521739 0 0  2.544347826086956 0 0  2.552608695652174 0 0  2.560869565217391 0 0  2.569130434782608 0 0  2.577391304347826 0 0  2.585652173913043 0 0  2.593913043478261 0 0  2.602173913043478 0 0  2.610434782608696 0 0  2.618695652173913 0 0  2.62695652173913 0 0  2.635217391304348 0 0  2.643478260869565 0 0  2.651739130434783 0 0  2.66 0 0  2.668260869565217 0 0  2.676521739130435 0 0  2.684782608695652 0 0  2.693043478260869 0 0  2.701304347826087 0 0  2.709565217391304 0 0  2.717826086956522 0 0  2.726086956521739 0 0  2.734347826086956 0 0  2.742608695652174 0 0  2.750869565217391 0 0  2.759130434782609 0 0  2.767391304347826 0 0  2.775652173913044 0 0  2.783913043478261 0 0  2.792173913043478 0 0  2.800434782608696 0 0  2.808695652173913 0 0  2.81695652173913 0 0  2.825217391304347 0 0  2.833478260869565 0 0  2.841739130434783 0 0  2.85 0 0  2.858260869565217 0 0  2.866521739130435 0 0  2.874782608695652 0 0  2.88304347826087 0 0  2.891304347826087 0 0  2.899565217391304 0 0  2.907826086956522 0 0  2.916086956521739 0 0  2.924347826086957 0 0  2.932608695652174 0 0  2.940869565217391 0 0  2.949130434782608 0 0  2.957391304347826 0 0  2.965652173913043 0 0  2.973913043478261 0 0  2.982173913043478 0 0  2.990434782608696 0 0  2.998695652173913 0 0  3.006956521739131 0 0  3.015217391304348 0 0  3.023478260869565 0 0  3.031739130434782 0 0  3.04 0 0  3.048260869565218 0 0  3.056521739130435 0 0  3.064782608695652 0 0  3.073043478260869 0 0  3.081304347826087 0 0  3.089565217391304 0 0  3.097826086956522 0 0  3.106086956521739 0 0  3.114347826086956 0 0  3.122608695652174 0 0  3.130869565217391 0 0  3.139130434782609 0 0  3.147391304347826 0 0  3.155652173913043 0 0  3.163913043478261 0 0  3.172173913043478 0 0  3.180434782608696 0 0  3.188695652173913 0 0  3.19695652173913 0 0  3.205217391304347 0 0  3.213478260869565 0 0  3.221739130434782 0 0  3.23 0 0  3.238260869565217 0 0  3.246521739130435 0 0  3.254782608695652 0 0  3.26304347826087 0 0  3.271304347826087 0 0  3.279565217391304 0 0  3.287826086956521 0 0  3.296086956521739 0 0  3.304347826086957 0 0  3.312608695652174 0 0  3.320869565217391 0 0  3.329130434782608 0 0  3.337391304347826 0 0  3.345652173913043 0 0  3.353913043478261 0 0  3.362173913043478 0 0  3.370434782608696 0 0  3.378695652173913 0 0  3.386956521739131 0 0  3.395217391304348 0 0  3.403478260869565 0 0  3.411739130434782 0 0  3.419999999999999 0 0  3.428260869565217 0 0  3.436521739130435 0 0  3.444782608695652 0 0  3.453043478260869 0 0  3.461304347826087 0 0  3.469565217391304 0 0  3.477826086956522 0 0  3.486086956521739 0 0  3.494347826086956 0 0  3.502608695652174 0 0  3.510869565217391 0 0  3.519130434782609 0 0  3.527391304347826 0 0  3.535652173913043 0 0  3.54391304347826
[...]
<PointData  Scalars="rho"> 
<DataArray  type="Float64"  Name="rho"  format="ascii">1.0000000000000000e+00  1.0000000000000000e+00  1.0000000000000000e+00  1.0000000000000000e+00  1.0000000000000000e+00  1.0000000000000000e+00  1.0000000000000000e+00  1.0000000000000000e+00  1.0000000000000000e+00  1.0000000000000000e+00  1.0000000000000000e+00  1.0000000000000000e+00  1.0000000000000000e+00  1.0000000000000000e+00  1.0000000000000000e+00  1.0000000000000000e+00  1.0000000000000000e+00  1.0000000000000000e+00  1.0000000000000000e+00  1.0000000000000000e+00  1.0000000000000000e+00  1.0000000000000000e+00  1.0000000000000000e+00  1.0000000000000000e+00  1.0000000000000000e+00  1.0000000000000000e+00  1.0000000000000000e+00  1.0000000000000000e+00  1.0000000000000000e+00  1.0000000000000000e+00  1.0000000000000000e+00  1.0000000000000000e+00  9.9889763561819733e-01  9.9603909110898869e-01  9.9321678154870430e-01  9.9252882116589725e-01  9.8959169248994205e-01  9.8668425550093819e-01  9.8380488146715594e-01  9.8095249696873177e-01  9.7812667603698722e-01  9.7532755039022201e-01  9.7255586679521311e-01  9.6981288764433315e-01  9.6710043528551171e-01  9.6442077907067125e-01  9.6177665483739383e-01  9.5917117551529318e-01  9.5866598201986175e-01  9.5594650342178078e-01  9.5327890817209626e-01  9.5066777805856273e-01  9.4811785986606467e-01  9.4563396352713003e-01  9.4322094342377605e-01  9.4088357076892715e-01  9.3862652376302169e-01  9.3645428443153067e-01  9.3437112177209802e-01  9.3238100656853362e-01  9.3246855684634500e-01  9.3045509852965758e-01  9.2855169967762052e-01  9.2676145524815479e-01  9.2508709633920638e-01  9.2353097463065847e-01  9.2209510744454026e-01  9.2078113818443663e-01  9.1959038288801698e-01  9.1852377747664515e-01  9.1758190227720582e-01  9.1676490614740924e-01  9.1737247021354107e-01  9.1663242738533623e-01  9.1603020869019869e-01  9.1556438521812467e-01  9.1523284224589629e-01  9.1503272696673743e-01  9.1496043406834571e-01  9.1501155756609964e-01  9.1518092077470803e-01  9.1546256733577391e-01  9.1584982960151573e-01  9.1633532195774670e-01  9.1691108023632739e-01  9.1756859868245377e-01  9.1829899336175369e-01  9.1909306393137613e-01  9.1994147481009170e-01  9.2083484933519055e-01  9.2176394599063805e-01  9.2271975766664560e-01  9.2369366771267503e-01  9.2467754351930909e-01  9.2566386273832746e-01  9.2664577043821361e-01  9.2639362050328133e-01  9.2722605780323164e-01  9.2803504912037837e-01  9.2881759248625850e-01  9.2957146461396489e-01  9.3029513323840762e-01  9.3098775549358137e-01  9.3164905256046815e-01  9.3227927128715093e-01  9.3287905295762308e-01  9.3344936789437083e-01  9.3399136633078061e-01  9.3450630288758718e-01  9.3499539762207784e-01  9.3545976576338952e-01  9.3590029375023875e-01  9.3631759256905434e-01  9.3671191869548498e-01  9.3708316412319737e-01  9.3743078358975840e-01  9.3775386569618080e-01  9.3805111759456394e-01  9.3832098544562426e-01  9.3856168439527743e-01  9.3877135876224438e-01  9.3894816841527950e-01  9.3909045979444838e-01  9.3919685560961796e-01  9.3926641287280010e-01  9.3929869209222228e-01  9.3929387169895762e-01  9.3925275967836364e-01  9.3917685810584695e-01  9.3906833759821462e-01  9.3893004927215729e-01  9.3876542211303649e-01  9.3857846256367838e-01  9.3837362152806325e-01  9.3815576229141107e-01  9.3792999918489917e-01  9.3770163736866463e-01  9.3747601513932866e-01  9.3725842175679541e-01  9.3705393028967965e-01  9.3686730687881736e-01  9.3670284836947337e-01  9.3656429949701647e-01  9.3645469435092787e-01  9.3637628697316455e-01  9.3633042480498330e-01  9.3406324617791980e-01  9.3406344299384858e-01  9.3409252026682599e-01  9.3414792275965097e-01  9.3422617987462242e-01  9.3432292297243302e-01  9.3443301641483967e-01  9.3455066394233433e-01  9.3466962183397972e-01  9.3478335359825770e-01  9.3488529015246913e-01  9.3496902118917524e-01  9.3502856050081273e-01  9.3505851072415302e-01  9.3505427911781080e-01  9.3501218816704701e-01  9.3492960685894344e-01  9.3480498196199124e-01  9.3463789234171990e-01  9.3442901409936974e-01  9.3418010760212811e-01  9.3389391482008643e-01  9.3357409196950447e-01  9.3322506777526060e-01  9.3285192663380256e-01  9.3246020617930347e-01  9.3205576399101475e-01  9.3164455024611148e-01  9.3123245486727013e-01  9.3082506608430904e-01  9.3042750192452506e-01  9.3004418230801533e-01  9.2967867670989146e-01  9.3140136012583219e-01  9.3103907866065427e-01  9.3069927945716979e-01  9.3038070443156096e-01  9.3008063471008118e-01  9.2979494530383000e-01  9.2951817818414784e-01  9.2924371222611024e-01  9.2896393285908774e-01  9.2867053666809862e-01  9.2835480800468828e-01  9.2800801523454313e-01  9.2762175949447301e-01  9.2718840683451720e-01  9.2670145307188578e-01  9.2615590295496475e-01  9.2554856108149985e-01  9.2487828370280767e-01  9.2414612641579652e-01  9.2335542602153076e-01  9.2251175577615097e-01  9.2162283098746156e-01  9.2069830159052479e-01  9.1974950713790504e-01  9.1878912598196105e-01  9.1783086169057193e-01  9.1688903709564751e-01  9.1597825122121879e-01  9.1511297797817825e-01  9.1430726046285860e-01  9.1357439854860722e-01  9.1292672762686156e-01  9.1237542159107243e-01  9.1368205970367755e-01  9.1333555001737488e-01  9.1312471558520769e-01  9.1305546651332081e-01  9.1313197655394174e-01  9.1335662059271416e-01  9.1372995333487528e-01  9.1231066776162828e-01  9.1289098790714118e-01  9.1359692800988923e-01  9.1442233505451409e-01  9.1535943935100084e-01  9.1639899254185009e-01  9.1753038980087687e-01  9.1874190741280259e-01  9.2002094272488311e-01  9.2135431843074911e-01  9.2272854314723973e-01  9.2413008545283337e-01  9.2554557863303843e-01  9.2696204170719865e-01  9.2836703891433348e-01  9.2974885376287897e-01  9.3109656966723031e-01  9.3240023300636232e-01  9.3151711943438309e-01  9.3258550263718054e-01  9.3359256889682296e-01  9.3453357524754399e-01  9.3540494855248424e-01  9.3620430686510148e-01  9.3693037384072431e-01  9.3758289101180847e-01  9.3816241736513439e-01  9.3867017495266125e-01  9.3910787860088585e-01  9.3947767122312620e-01  9.3978207184780249e-01  9.4002400217212545e-01  9.4020678172789240e-01  9.4033421368452386e-01  9.4041060102822505e-01  9.4044084294672659e-01  9.4043045391754143e-01  9.4038565088501314e-01  9.4031336034082713e-01  9.4022121918785106e-01  9.4011741044525632e-01  9.4001045370509073e-01  9.3990884579461309e-01  9.3982074036283914e-01  9.3975358576664436e-01  9.3971387610469059e-01  9.3970689333459967e-01  9.3973655312884941e-01  9.3980524739057436e-01  9.3991379357875149e-01  9.4006139424026225e-01  9.4024571236364229e-01  9.4046296399016482e-01  9.4070811799669063e-01  9.4097508380126937e-01  9.4125694607640520e-01  9.4154616449257567e-01  9.4183488613149902e-01  9.4211524435978067e-01  9.4237970955238770e-01  9.4262129770092762e-01  9.4283378067306323e-01  9.4301179528356860e-01  9.4315097666558179e-01  9.4324803730438889e-01  9.4330086890128484e-01  9.4330860791620141e-01  9.4327174192768215e-01  9.4319217643338726e-01  9.4307334726931058e-01  9.4292033763139071e-01  9.4274013510983223e-01  9.4254177523442029e-01  9.4233635993479947e-01  9.4213675191670432e-01  9.4195713262681247e-01  9.4181241717567310e-01  9.4171783446629598e-01  9.4168850921353420e-01  9.4173913158844547e-01  9.4188359367223395e-01  9.4213467628439818e-01  9.4250372148273709e-01  9.4300038818666332e-01  9.4363244654988276e-01  9.4440569708918254e-01  9.4532392402484200e-01  9.4638894531008921e-01  9.4760064854385118e-01  9.4895714348392868e-01  9.5045476802732276e-01  9.5208801145104760e-01  9.5384931838603748e-01  9.5572913918080271e-01  9.5771601094643377e-01  9.5979670252942340e-01  9.6027906288354969e-01  9.6239859078892065e-01  9.6456091272312394e-01  9.6674778493475189e-01  9.6848724147575083e-01  9.7056717576367224e-01  9.7261361174838379e-01  9.7460587438327861e-01  9.7652337185652494e-01  9.7834600485431999e-01  7.4606811746345869e-01  7.4269707825399911e-01  7.3910599926675224e-01  7.3528104368542979e-01  7.3121698776926236e-01  7.2691729779213421e-01  7.2239303137676869e-01  7.1766238802096383e-01  7.1274932399073743e-01  7.0665014909373480e-01  7.0145545970453405e-01  6.9617964427973256e-01  6.7334308567025469e-01  6.6831437484384293e-01  8.6370375965179758e-01  8.5466606016467062e-01  8.4590814592188135e-01  8.5250866679506609e-01  8.4385341518922774e-01  8.3551038885510953e-01  8.2746113630110418e-01  6.1598584655908983e-01  6.1125085004069224e-01  6.0655748233775164e-01  6.0188828708438769e-01  5.9722581611818848e-01  5.9255270688672956e-01  5.8785224787969037e-01  5.8310801667842416e-01  5.7830418405996664e-01  5.6492654497593375e-01  5.6036897209942571e-01  5.5571779904144136e-01  5.5095582377110586e-01  5.4606398489376107e-01  5.4102132157000293e-01  5.3580424341383925e-01  5.3038657974774439e-01  5.2473895079914890e-01  5.1882899342972222e-01  5.1272539132379336e-01  5.0613274033799860e-01  4.7177443427051780e-01  4.5232461572005583e-01  4.4640778270034087e-01  4.4020327469557946e-01  4.3770004368358462e-01  4.3093848104677707e-01  4.2365463969414968e-01  4.1575149854189852e-01  4.0752462467330802e-01  3.9790374181598787e-01  3.7506112289836147e-01  3.6834809129236917e-01  3.6131984111443627e-01  3.5396407935436563e-01  3.4626089032121360e-01  3.3815968418755388e-01  3.3063001097645683e-01  3.2215382723578168e-01  3.0228315905211828e-01  2.9067632899648610e-01  2.7929208123491334e-01  2.6667977107922702e-01  2.5350911753920147e-01  2.3977314198375377e-01  2.2546596795829096e-01  2.1058250851773488e-01  1.2258153559356455e-01  9.9041017984950533e-02  1.7571213506912800e-01  1.6064837353794975e-01  1.4506299980727969e-01  1.3025508945514730e-01  1.1820713777298913e-01  1.0104007393923484e-01  0.0000000000000000e+00  0.0000000000000000e+00  0.0000000000000000e+00  0.0000000000000000e+00  0.0000000000000000e+00  0.0000000000000000e+00  0.0000000000000000e+00  0.0000000000000000e+00  0.0000000000000000e+00  0.0000000000000000e+00  0.0000000000000000e+00  0.0000000000000000e+00  0.0000000000000000e+00  0.0000000000000000e+00  0.0000000000000000e+00  0.0000000000000000e+00  0.0000000000000000e+00  0.0000000000000000e+00  0.0000000000000000e+00  0.0000000000000000e+00  0.0000000000000000e+00  0.0000000000000000e+00  0.0000000000000000e+00  0.0000000000000000e+00  0.0000000000000000e+00  0.0000000000000000e+00  0.0000000000000000e+00  0.0000000000000000e+00  0.0000000000000000e+00  0.0000000000000000e+00  0.0000000000000000e+00  0.0000000000000000e+00  0.0000000000000000e+00  0.0000000000000000e+00  0.0000000000000000e+00  0.0000000000000000e+00  0.0000000000000000e+00  0.0000000000000000e+00  0.0000000000000000e+00  0.0000000000000000e+00  0.0000000000000000e+00  0.0000000000000000e+00  0.0000000000000000e+00  0.0000000000000000e+00  0.0000000000000000e+00  0.0000000000000000e+00  0.0000000000000000e+00  0.0000000000000000e+00  0.0000000000000000e+00  0.0000000000000000e+00  0.0000000000000000e+00  0.0000000000000000e+00  0.0000000000000000e+00  0.0000000000000000e+00  0.0000000000000000e+00  0.0000000000000000e+00  0.0000000000000000e+00  0.0000000000000000e+00  0.0000000000000000e+00  0.0000000000000000e+00  1.0000000000000000e+00  1.0000000000000000e+00  1.0000000000000000e+00  1.0000000000000000e+00  1.0000000000000000e+00  1.0000000000000000e+00  1.0000000000000000e+00  1.0000000000000000e+00  1.0000000000000000e+00  1.0000000000000000e+00  1.0000000000000000e+00  1.0000000000000000e+00  1.0000000000000000e+00  1.0000000000000000e+00  1.0000000000000000e+00  1.0000000000000000e+00  1.0000000000000000e+00  1.0000000000000000e+00  1.0000000000000000e+00  1.0000000000000000e+00  1.0000000000000000e+00  1.0000000000000000e+00  1.0000000000000000e+00  1.0000000000000000e+00  1.0000000000000000e+00  1.0000000000000000e+00  1.0000000000000000e+00  1.0000000000000000e+00  9.9813962685814572e-01  9.9447095351834136e-01  9.9087162110559290e-01  9.8733639965050002e-01  9.8386019679095627e-01  9.8043826064287853e-01  9.7959581007865426e-01  9.7606001173555290e-01  9.7256886183154223e-01  9.6911958634616358e-01  9.6571002966933583e-01  9.6233878121197791e-01  9.5900509047671123e-01  9.5570895418882384e-01  9.5245100318069664e-01  9.4923256625469721e-01  9.4605554994237762e-01  9.4292247187171729e-01  9.3983633300426450e-01  9.3931574187672784e-01  9.3609853411712307e-01  9.3294166478276952e-01  9.2985011221478309e-01  9.2682910419727504e-01  9.2388400765672363e-01  9.2102031500114556e-01  9.1824350962604151e-01  9.1555903909857428e-01  9.1297217348697235e-01  9.1048799386105794e-01  9.0811127599239860e-01  9.0832300870574145e-01  9.0591111378012446e-01  9.0362615189595608e-01  9.0147193905270129e-01  8.9945183029350373e-01  8.9756869217534907e-01  8.9582496886194574e-01  8.9422265905294285e-01  8.9276337304538211e-01  8.9144828701392920e-01  8.9027819422407295e-01  8.8925343546610247e-01  8.9001458534018862e-01  8.8906002834495668e-01  8.8826584538541320e-01  8.8763092658346376e-01  8.8715344802740270e-01  8.8683078903618529e-01  8.8665950242797131e-01  8.8663525418116373e-01  8.8675282070459072e-01  8.8700604890207857e-01  8.8738791238070558e-01  8.8789050413822901e-01  8.8850514641323353e-01  8.8922241090226506e-01  8.9003229941274964e-01  8.9092430604326500e-01  8.9188762317459036e-01  8.9291123065360301e-01  8.9398411476751094e-01  8.9509538825882429e-01  8.9623449168788705e-01  8.9739130577138948e-01  8.9855632450429268e-01  8.9972075101400750e-01  9.0087662391014300e-01  9.0201686563109407e-01  9.0313537054254089e-01  9.0271665874461082e-01  9.0363122111690852e-01  9.0450936347394029e-01  9.0534951244065165e-01  9.0615086475013862e-01  9.0691336102213704e-01  9.0763752465299763e-01  9.0832440183718832e-01  9.0897539773787628e-01  9.0959218639084738e-01  9.1017653225219652e-01  9.1073020124988857e-01  9.1125480268141656e-01  9.1175171222628471e-01  9.1222194202774698e-01  9.1266610448661301e-01  9.1308432421991936e-01  9.1347625436770186e-01  9.1384102215751983e-01  9.1417733739960427e-01  9.1448350205141615e-01  9.1475757192047524e-01  9.1499741961406700e-01  9.1520093721569851e-01  9.1536615022600909e-01  9.1549141664243916e-01  9.1557552706103495e-01  9.1561787607359257e-01  9.1561852159931534e-01  9.1557829301206051e-01  9.1549878482092495e-01  9.1538240928458847e-01  9.1523233227253797e-01  9.1505247116875421e-01  9.1484736191217475e-01  9.1462214104724271e-01  9.1438237986829995e-01  9.1413403009942884e-01  9.1388323000542770e-01  9.1363622487686824e-01  9.1339918138452625e-01  9.1317808313488524e-01  9.1297853245576799e-01  9.1280564730634095e-01  9.1266387595713827e-01  9.1255690204290041e-01  9.1248746856721485e-01  9.1245731019947207e-01  9.1246701739308944e-01  9.1251601136390426e-01  9.1260245577827115e-01  9.1272330698115633e-01  9.1287429202506731e-01  9.1305002772227761e-01  9.1064928686055513e-01  9.1082454007356917e-01  9.1100339788463092e-01  9.1117819853883852e-01  9.1134115390513182e-01  9.1148467172726810e-01  9.1160158000024749e-01  9.1168542254007612e-01  9.1173062850657383e-01  9.1173272707769759e-01  9.1168843892703777e-01  9.1159578762976434e-01  9.1145409891121887e-01  9.1126402929613937e-01  9.1102749067610655e-01  9.1074760271675637e-01  9.1042854862519373e-01  9.1007547220909613e-01  9.0969428168330591e-01  9.0929149618069738e-01  9.0887399498169119e-01  9.0844884763399270e-01  9.0802303902186088e-01  9.1004548628412696e-01  9.0959304208413083e-01  9.0915805379031700e-01  9.0874526350053042e-01  9.0835815885010940e-01  9.0799876772099164e-01  9.0766754107207226e-01  9.0736323621939163e-01  9.0708290425528193e-01  9.0682188917215156e-01  9.0657394827741855e-01  9.0633138662612678e-01  9.0608531858692309e-01  9.0582592486941116e-01  9.0554285899068698e-01  9.0522561662274792e-01  9.0486403058065568e-01  9.0444870094031793e-01  9.0397149549089562e-01  9.0342595718250895e-01  9.0280770060170035e-01  9.0211469258977539e-01  9.0134747713559349e-01  9.0050926079878402e-01  8.9960592108762771e-01  8.9864587019089870e-01  8.9763986741469826e-01  8.9660069841734180e-01  8.9554284047219290e-01  8.9448201754388135e-01  8.9343480753896409e-01  8.9241815679956316e-01  8.9144898181610277e-01  8.9054372445088859e-01  8.8971802677714062e-01  8.9095316303403016e-01  8.9027626204960475e-01  8.8973254430965065e-01  8.8933299931245635e-01  8.8908674375879493e-01  8.8900096130571049e-01  8.8908081517722681e-01  8.8932941557910494e-01  8.8974774090628339e-01  8.9033463026443360e-01  8.9108671501782055e-01  8.8974476911796674e-01  8.9068697949257813e-01  8.9175789994165433e-01  8.9294707480183289e-01  8.9424247792839973e-01  8.9563072291488599e-01  8.9709740034956109e-01  8.9862739264462133e-01  9.0020522886758292e-01  9.0181536614646074e-01  9.0344247687422363e-01  9.0507165687685265e-01  9.0668865505652685e-01  9.0828001796880942e-01  9.0983327133441161e-01  9.1133699490669740e-01  9.1278098826882426e-01  9.1175747205628110e-01  9.1292465612855167e-01  9.1401697864784426e-01  9.1503040687270887e-01  9.1596225659692865e-01  9.1681117498924203e-01  9.1757698049822933e-01  9.1826049176537505e-01  9.1886327321502137e-01  9.1938748357991773e-01  9.1983573379748840e-01  9.2021106394138530e-01  9.2051691745860487e-01  9.2075720152277085e-01  9.2093629672771737e-01  9.2105916015345524e-01  9.2113134722291101e-01  9.2115911528390004e-01  9.2114944575637681e-01  9.2111013692834676e-01  9.2104976699132679e-01  9.2097760563236786e-01  9.2090331490770971e-01  9.2083661345424617e-01  9.2078682153791835e-01  9.2076251116728058e-01  9.2077113593778404e-01  9.2081879464522887e-01  9.2090998686346781e-01  9.2104748656883284e-01  9.2123221583389414e-01  9.2146324743679897e-01  9.2173782460224740e-01  9.2205151929235685e-01  9.2239840942994167e-01  9.2277135026429069e-01  9.2316219548955281e-01  9.2356207684036118e-01  9.2396167669176432e-01  9.2435165564238231e-01  9.2472300631100823e-01  9.2506738984723136e-01  9.2537730776720040e-01  9.2564629199018333e-01  9.2586900953214102e-01  9.2604139956689924e-01  9.2616075143297438e-01  9.2622581298589590e-01  9.2623686853746157e-01  9.2619587305404527e-01  9.2610651129697696e-01  9.2597434265970668e-01  9.2580704285609083e-01  9.2561471046778743e-01  9.2540984739010601e-01  9.2520715488418226e-01  9.2502294182230327e-01  9.2487450796145110e-01  9.2477955162218239e-01  9.2475575608794847e-01  9.2482035037163401e-01  9.2498974146785318e-01  9.2527910355273491e-01  9.2570202547354441e-01  9.2627016557208808e-01  9.2699304071873445e-01  9.2787786780216130e-01  9.2892953955838276e-01  9.3015061783757058e-01  9.3154144046020348e-01  9.3310019627802776e-01  9.3482307268592901e-01  9.3670411014541521e-01  9.3873502833267541e-01  9.4090516183045070e-01  9.4320163979327409e-01  9.4560951118977288e-01  9.4811186364241562e-01  9.4879577071964405e-01  9.5131122295489057e-01  9.5385915244233810e-01  9.5641751092642191e-01  9.5844524061607039e-01  9.6084608841205088e-01  9.6318947389231058e-01  9.6545184025594588e-01  7.9740609353296044e-01  7.9372495612196070e-01  7.8982382809975349e-01  7.8567504737485883e-01  7.8126087256538246e-01  7.7657405191077744e-01  7.7161682963373102e-01  7.6640080909283792e-01  7.6094552053695752e-01  7.5527766549931663e-01  7.4942940603604535e-01  7.4231803589722545e-01  7.3621863033287027e-01  7.1086052687610135e-01  7.0501686401295161e-01  6.9922468072242761e-01  9.1497303012243070e-01  9.0479344568601328e-01  8.9446328486554139e-01  9.0150415234620207e-01  8.9183222580871668e-01  6.4820619975682991e-01  6.4265989077914831e-01  6.3718939691922671e-01  6.3177622777745812e-01  6.2640108236235426e-01  6.2104420100573143e-01  6.1568619051645845e-01  6.1030791255775207e-01  6.0489097082017451e-01  5.9941714264027168e-01  5.8451014471128793e-01  5.7932229498619103e-01  5.7403799155969848e-01  5.6863749416755471e-01  5.6309929874244236e-01  5.5739929972988833e-01  5.5151076017949141e-01  5.4540348455005649e-01  5.3904394835709091e-01  5.3239472525829845e-01  5.2552540375284262e-01  5.1811734878420024e-01  4.7948264438327226e-01  4.5742009681475149e-0