<?xml version="1.0"?>
<VTKFile type="UnstructuredGrid"  version="0.1"  >
<UnstructuredGrid>
<Piece  NumberOfPoints="28121" NumberOfCells="55200">
<Points>
<DataArray  type="Float64"  NumberOfComponents="3"  format="ascii">0 0 0  0.008260869565217391 0 0  0.01652173913043478 0 0  0.02478260869565217 0 0  0.03304347826086956 0 0  0.04130434782608695 0 0  0.04956521739130434 0 0  0.05782608695652174 0 0  0.06608695652173913 0 0  0.07434782608695652 0 0  0.08260869565217391 0 0  0.0908695652173913 0 0  0.09913043478260869 0 0  0.1073913043478261 0 0  0.1156521739130435 0 0  0.1239130434782609 0 0  0.1321739130434783 0 0  0.1404347826086956 0 0  0.148695652173913 0 0  0.1569565217391304 0 0  0.1652173913043478 0 0  0.1734782608695652 0 0  0.1817391304347826 0 0  0.19 0 0  0.1982608695652174 0 0  0.2065217391304348 0 0  0.2147826086956522 0 0  0.2230434782608696 0 0  0.2313043478260869 0 0  0.2395652173913043 0 0  0.2478260869565218 0 0  0.2560869565217391 0 0  0.2643478260869565 0 0  0.2726086956521739 0 0  0.2808695652173913 0 0  0.2891304347826087 0 0  0.2973913043478261 0 0  0.3056521739130434 0 0  0.3139130434782609 0 0  0.3221739130434783 0 0  0.3304347826086956 0 0  0.338695652173913 0 0  0.3469565217391304 0 0  0.3552173913043478 0 0  0.3634782608695652 0 0  0.3717391304347826 0 0  0.3799999999999999 0 0  0.3882608695652174 0 0  0.3965217391304348 0 0  0.4047826086956521 0 0  0.4130434782608696 0 0  0.4213043478260869 0 0  0.4295652173913043 0 0  0.4378260869565217 0 0  0.4460869565217391 0 0  0.4543478260869565 0 0  0.4626086956521739 0 0  0.4708695652173913 0 0  0.4791304347826086 0 0  0.4873913043478261 0 0  0.4956521739130435 0 0  0.5039130434782608 0 0  0.5121739130434783 0 0  0.5204347826086956 0 0  0.528695652173913 0 0  0.5369565217391304 0 0  0.5452173913043478 0 0  0.5534782608695652 0 0  0.5617391304347825 0 0  0.57 0 0  0.5782608695652174 0 0  0.5865217391304348 0 0  0.5947826086956521 0 0  0.6030434782608696 0 0  0.6113043478260869 0 0  0.6195652173913043 0 0  0.6278260869565218 0 0  0.6360869565217391 0 0  0.6443478260869565 0 0  0.6526086956521739 0 0  0.6608695652173913 0 0  0.6691304347826087 0 0  0.677391304347826 0 0  0.6856521739130435 0 0  0.6939130434782609 0 0  0.7021739130434783 0 0  0.7104347826086956 0 0  0.718695652173913 0 0  0.7269565217391304 0 0  0.7352173913043478 0 0  0.7434782608695653 0 0  0.7517391304347827 0 0  0.7599999999999999 0 0  0.7682608695652173 0 0  0.7765217391304348 0 0  0.7847826086956522 0 0  0.7930434782608695 0 0  0.8013043478260868 0 0  0.8095652173913043 0 0  0.8178260869565217 0 0  0.8260869565217391 0 0  0.8343478260869565 0 0  0.8426086956521739 0 0  0.8508695652173912 0 0  0.8591304347826086 0 0  0.8673913043478261 0 0  0.8756521739130434 0 0  0.8839130434782608 0 0  0.8921739130434783 0 0  0.9004347826086956 0 0  0.908695652173913 0 0  0.9169565217391303 0 0  0.9252173913043478 0 0  0.9334782608695652 0 0  0.9417391304347826 0 0  0.95 0 0  0.9582608695652173 0 0  0.9665217391304347 0 0  0.9747826086956521 0 0  0.9830434782608696 0 0  0.991304347826087 0 0  0.9995652173913042 0 0  1.007826086956522 0 0  1.016086956521739 0 0  1.024347826086957 0 0  1.032608695652174 0 0  1.040869565217391 0 0  1.049130434782609 0 0  1.057391304347826 0 0  1.065652173913043 0 0  1.073913043478261 0 0  1.082173913043478 0 0  1.090434782608696 0 0  1.098695652173913 0 0  1.10695652173913 0 0  1.115217391304348 0 0  1.123478260869565 0 0  1.131739130434783 0 0  1.14 0 0  1.148260869565217 0 0  1.156521739130435 0 0  1.164782608695652 0 0  1.17304347826087 0 0  1.181304347826087 0 0  1.189565217391304 0 0  1.197826086956522 0 0  1.206086956521739 0 0  1.214347826086956 0 0  1.222608695652174 0 0  1.230869565217391 0 0  1.239130434782609 0 0  1.247391304347826 0 0  1.255652173913044 0 0  1.263913043478261 0 0  1.272173913043478 0 0  1.280434782608696 0 0  1.288695652173913 0 0  1.296956521739131 0 0  1.305217391304348 0 0  1.313478260869565 0 0  1.321739130434783 0 0  1.33 0 0  1.338260869565217 0 0  1.346521739130435 0 0  1.354782608695652 0 0  1.36304347826087 0 0  1.371304347826087 0 0  1.379565217391304 0 0  1.387826086956522 0 0  1.396086956521739 0 0  1.404347826086957 0 0  1.412608695652174 0 0  1.420869565217391 0 0  1.429130434782609 0 0  1.437391304347826 0 0  1.445652173913043 0 0  1.453913043478261 0 0  1.462173913043478 0 0  1.470434782608696 0 0  1.478695652173913 0 0  1.486956521739131 0 0  1.495217391304348 0 0  1.503478260869565 0 0  1.511739130434782 0 0  1.52 0 0  1.528260869565217 0 0  1.536521739130435 0 0  1.544782608695652 0 0  1.55304347826087 0 0  1.561304347826087 0 0  1.569565217391304 0 0  1.577826086956522 0 0  1.586086956521739 0 0  1.594347826086957 0 0  1.602608695652174 0 0  1.610869565217391 0 0  1.619130434782609 0 0  1.627391304347826 0 0  1.635652173913043 0 0  1.643913043478261 0 0  1.652173913043478 0 0  1.660434782608696 0 0  1.668695652173913 0 0  1.67695652173913 0 0  1.685217391304348 0 0  1.693478260869565 0 0  1.701739130434782 0 0  1.71 0 0  1.718260869565217 0 0  1.726521739130435 0 0  1.734782608695652 0 0  1.743043478260869 0 0  1.751304347826087 0 0  1.759565217391304 0 0  1.767826086956522 0 0  1.776086956521739 0 0  1.784347826086957 0 0  1.792608695652174 0 0  1.800869565217391 0 0  1.809130434782608 0 0  1.817391304347826 0 0  1.825652173913043 0 0  1.833913043478261 0 0  1.842173913043478 0 0  1.850434782608696 0 0  1.858695652173913 0 0  1.86695652173913 0 0  1.875217391304348 0 0  1.883478260869565 0 0  1.891739130434782 0 0  1.9 0 0  1.908260869565217 0 0  1.916521739130435 0 0  1.924782608695652 0 0  1.933043478260869 0 0  1.941304347826087 0 0  1.949565217391304 0 0  1.957826086956522 0 0  1.966086956521739 0 0  1.974347826086956 0 0  1.982608695652174 0 0  1.990869565217391 0 0  1.999130434782608 0 0  2.007391304347826 0 0  2.015652173913043 0 0  2.023913043478261 0 0  2.032173913043478 0 0  2.040434782608695 0 0  2.048695652173913 0 0  2.05695652173913 0 0  2.065217391304348 0 0  2.073478260869565 0 0  2.081739130434782 0 0  2.09 0 0  2.098260869565217 0 0  2.106521739130435 0 0  2.114782608695652 0 0  2.12304347826087 0 0  2.131304347826087 0 0  2.139565217391304 0 0  2.147826086956522 0 0  2.156086956521739 0 0  2.164347826086956 0 0  2.172608695652174 0 0  2.180869565217391 0 0  2.189130434782609 0 0  2.197391304347826 0 0  2.205652173913043 0 0  2.213913043478261 0 0  2.222173913043478 0 0  2.230434782608695 0 0  2.238695652173913 0 0  2.24695652173913 0 0  2.255217391304348 0 0  2.263478260869565 0 0  2.271739130434783 0 0  2.28 0 0  2.288260869565217 0 0  2.296521739130434 0 0  2.304782608695652 0 0  2.31304347826087 0 0  2.321304347826087 0 0  2.329565217391304 0 0  2.337826086956521 0 0  2.346086956521739 0 0  2.354347826086956 0 0  2.362608695652174 0 0  2.370869565217391 0 0  2.379130434782609 0 0  2.387391304347826 0 0  2.395652173913044 0 0  2.403913043478261 0 0  2.412173913043478 0 0  2.420434782608695 0 0  2.428695652173913 0 0  2.43695652173913 0 0  2.445217391304348 0 0  2.453478260869565 0 0  2.461739130434782 0 0  2.47 0 0  2.478260869565217 0 0  2.486521739130435 0 0  2.494782608695652 0 0  2.503043478260869 0 0  2.511304347826087 0 0  2.519565217391305 0 0  2.527826086956522 0 0  2.536086956521739 0 0  2.544347826086956 0 0  2.552608695652174 0 0  2.560869565217391 0 0  2.569130434782608 0 0  2.577391304347826 0 0  2.585652173913043 0 0  2.593913043478261 0 0  2.602173913043478 0 0  2.610434782608696 0 0  2.618695652173913 0 0  2.62695652173913 0 0  2.635217391304348 0 0  2.643478260869565 0 0  2.651739130434783 0 0  2.66 0 0  2.668260869565217 0 0  2.676521739130435 0 0  2.684782608695652 0 0  2.693043478260869 0 0  2.701304347826087 0 0  2.709565217391304 0 0  2.717826086956522 0 0  2.726086956521739 0 0  2.734347826086956 0 0  2.742608695652174 0 0  2.750869565217391 0 0  2.759130434782609 0 0  2.767391304347826 0 0  2.775652173913044 0 0  2.783913043478261 0 0  2.792173913043478 0 0  2.800434782608696 0 0  2.808695652173913 0 0  2.81695652173913 0 0  2.825217391304347 0 0  2.833478260869565 0 0  2.841739130434783 0 0  2.85 0 0  2.858260869565217 0 0  2.866521739130435 0 0  2.874782608695652 0 0  2.88304347826087 0 0  2.891304347826087 0 0  2.899565217391304 0 0  2.907826086956522 0 0  2.916086956521739 0 0  2.924347826086957 0 0  2.932608695652174 0 0  2.940869565217391 0 0  2.949130434782608 0 0  2.957391304347826 0 0  2.965652173913043 0 0  2.973913043478261 0 0  2.982173913043478 0 0  2.990434782608696 0 0  2.998695652173913 0 0  3.006956521739131 0 0  3.015217391304348 0 0  3.023478260869565 0 0  3.031739130434782 0 0  3.04 0 0  3.048260869565218 0 0  3.056521739130435 0 0  3.064782608695652 0 0  3.073043478260869 0 0  3.081304347826087 0 0  3.089565217391304 0 0  3.097826086956522 0 0  3.106086956521739 0 0  3.114347826086956 0 0  3.122608695652174 0 0  3.130869565217391 0 0  3.139130434782609 0 0  3.147391304347826 0 0  3.155652173913043 0 0  3.163913043478261 0 0  3.172173913043478 0 0  3.180434782608696 0 0  3.188695652173913 0 0  3.19695652173913 0 0  3.205217391304347 0 0  3.213478260869565 0 0  3.221739130434782 0 0  3.23 0 0  3.238260869565217 0 0  3.246521739130435 0 0  3.254782608695652 0 0  3.26304347826087 0 0  3.271304347826087 0 0  3.279565217391304 0 0  3.287826086956521 0 0  3.296086956521739 0 0  3.304347826086957 0 0  3.312608695652174 0 0  3.320869565217391 0 0  3.329130434782608 0 0  3.337391304347826 0 0  3.345652173913043 0 0  3.353913043478261 0 0  3.362173913043478 0 0  3.370434782608696 0 0  3.378695652173913 0 0  3.386956521739131 0 0  3.395217391304348 0 0  3.403478260869565 0 0  3.411739130434782 0 0  3.419999999999999 0 0  3.428260869565217 0 0  3.436521739130435 0 0  3.444782608695652 0 0  3.453043478260869 0 0  3.461304347826087 0 0  3.469565217391304 0 0  3.477826086956522 0 0  3.486086956521739 0 0  3.494347826086956 0 0  3.502608695652174 0 0  3.510869565217391 0 0  3.519130434782609 0 0  3.527391304347826 0 0  3.535652173913043 0 0  3.54391304347826
[...]
<PointData  Scalars="rho_bar"> 
<DataArray  type="Float64"  Name="rho_bar"  format="ascii">9.9429029475353803e-01  9.9421865402044474e-01  9.9416192859419605e-01  9.9409859808027101e-01  9.9402210432731808e-01  9.9393027992939387e-01  9.9382258181394689e-01  9.9369901160838059e-01  9.9356014614412225e-01  9.9340684540691226e-01  9.9324037046637947e-01  9.9306222062383809e-01  9.9287423971249089e-01  9.9267845997465320e-01  9.9247720555498686e-01  9.9227294235152896e-01  9.9206836486993311e-01  9.9186619939731802e-01  9.9166935077326279e-01  9.9148067899457648e-01  9.9130314752458770e-01  9.9113957412642906e-01  9.9099272758561185e-01  9.9086498597422457e-01  9.9075843965057608e-01  9.9067453225207025e-01  9.9061424695815936e-01  9.9057781266867828e-01  9.9056499121532893e-01  9.9057491841429945e-01  9.9060642283648070e-01  9.9065791020338412e-01  9.9072769776937375e-01  9.9081386981208230e-01  9.9091458078967298e-01  9.9102784766265606e-01  9.9115182330816720e-01  9.9128461473793716e-01  9.9142449289254320e-01  9.9156968557708125e-01  9.9171861202007661e-01  9.9186966949701127e-01  9.9202145408202580e-01  9.9217253312837039e-01  9.9232166233207686e-01  9.9246760701933789e-01  9.9260931789163220e-01  9.9274577719094370e-01  9.9287619931262561e-01  9.9299989307045733e-01  9.9311647638036504e-01  9.9322572723830893e-01  9.9332781326932618e-01  9.9342318242565752e-01  9.9351277331281107e-01  9.9359791672718401e-01  9.9368056847861430e-01  9.9376321168021053e-01  9.9384907109244358e-01  9.9394197305201604e-01  9.9404646831694177e-01  9.9416758981374032e-01  9.9431076225925563e-01  9.9448133503933134e-01  9.9468424794859911e-01  9.9492331632701492e-01  9.9520071733923798e-01  9.9551622220691871e-01  9.9586679464797012e-01  9.9624622322993639e-01  9.9664535506683305e-01  9.9705261999353345e-01  9.9745518812320411e-01  9.9784026950545568e-01  9.9819667196059292e-01  9.9851598902488736e-01  9.9879338478308777e-01  9.9902761050660882e-01  9.9922048407792585e-01  9.9937594753115699e-01  9.9949909721408681e-01  9.9959531982411820e-01  9.9966972087298323e-01  9.9972677882341254e-01  9.9977022834927487e-01  9.9980305677878112e-01  9.9982758621663115e-01  9.9984557048038281e-01  9.9985830430829314e-01  9.9986670968514946e-01  9.9987141406533675e-01  9.9987280176020454e-01  9.9987105768641316e-01  9.9986619056749737e-01  9.9985805180321186e-01  9.9984634076170809e-01  9.9983061320717703e-01  9.9981028129638205e-01  9.9978462302256599e-01  9.9975278906661258e-01  9.9971383276731007e-01  9.9966674603617678e-01  9.9961052184293064e-01  9.9954421614239219e-01  9.9946703725457897e-01  9.9937841947372819e-01  9.9927811242940301e-01  9.9916621742519685e-01  9.9904322509904242e-01  9.9890997263392400e-01  9.9876759395640702e-01  9.9861738903454900e-01  9.9846072781879025e-01  9.9829889241059921e-01  9.9813300370939684e-01  9.9796388746664244e-01  9.9779206638954099e-01  9.9761768901010339e-01  9.9744058071087927e-01  9.9726021110860119e-01  9.9707579317171491e-01  9.9688626562517013e-01  9.9669041008720816e-01  9.9648681204968814e-01  9.9627397981250032e-01  9.9605029813709811e-01  9.9581413327126667e-01  9.9556377360291493e-01  9.9529756265437019e-01  9.9501383991926295e-01  9.9471112404071071e-01  9.9438806599065599e-01  9.9404368736689441e-01  9.9367737650032328e-01  9.9328917633764302e-01  9.9287980595469694e-01  9.9245100125517149e-01  9.9200550965840106e-01  9.9154744439606601e-01  9.9108220213795861e-01  9.9061673997404853e-01  9.9015935372175035e-01  9.8971972996504620e-01  9.8930841721105789e-01  9.8893658728390699e-01  9.8861513510265131e-01  9.8835429520389440e-01  9.8816262492242057e-01  9.8804668849078270e-01  9.8801028167276350e-01  9.8805439994120625e-01  9.8817685824547064e-01  9.8837274390484864e-01  9.8863446817048395e-01  9.8895265017854028e-01  9.8931646945566953e-01  9.8971471700896685e-01  9.9013622598886120e-01  9.9057067440595159e-01  9.9100876162045959e-01  9.9144271440303777e-01  9.9186617798327958e-01  9.9227443847765140e-01  9.9266409739062500e-01  9.9303313830224460e-01  9.9338057108027988e-01  9.9370637283052854e-01  9.9401113463240731e-01  9.9429603870159722e-01  9.9456256236252105e-01  9.9481250297340784e-01  9.9504774747263747e-01  9.9527035773715433e-01  9.9548242124777131e-01  9.9568613235036940e-01  9.9588364813266417e-01  9.9607715611913328e-01  9.9626870453100336e-01  9.9646022197149819e-01  9.9665331680647695e-01  9.9684926081493030e-01  9.9704879832967896e-01  9.9725211447529960e-01  9.9745869046750812e-01  9.9766734919338440e-01  9.9787622154437894e-01  9.9808292294040801e-01  9.9828466981245578e-01  9.9847856534503499e-01  9.9866181099154983e-01  9.9883198580164401e-01  9.9898720284017217e-01  9.9912625912212416e-01  9.9924863916935092e-01  9.9935449633850326e-01  9.9944452180920573e-01  9.9951981529133560e-01  9.9958170820417680e-01  9.9963162106466841e-01  9.9967092098594301e-01  9.9970082717077224e-01  9.9972232283242246e-01  9.9973610267222746e-01  9.9974250871028503e-01  9.9974147287491766e-01  9.9973241920536771e-01  9.9971413169228474e-01  9.9968453350886399e-01  9.9964036798076383e-01  9.9957669948137706e-01  9.9948621016557104e-01  9.9935817163281682e-01  9.9917705694574377e-01  9.9892077974253801e-01  9.9855882264403950e-01  9.9805059139349706e-01  9.9734507243093529e-01  9.9638346253508769e-01  9.9510666742132836e-01  9.9346778765404176e-01  9.9144808586468092e-01  9.8907130699526635e-01  9.8641042138967661e-01  9.8358156915396200e-01  9.8072716929612025e-01  9.7799298088462217e-01  9.7550797634860542e-01  9.7336986286372995e-01  9.7163892425349885e-01  9.7033732729884659e-01  9.6945459402172574e-01  9.6895486746567305e-01  9.6878630442752456e-01  9.6888848068611644e-01  9.6919952680291477e-01  9.6966000089509419e-01  9.7021663307682904e-01  9.7082337252069484e-01  9.7144276031148624e-01  9.7204524701172512e-01  9.7260931684107821e-01  9.7311996035151216e-01  9.7356831274896505e-01  9.7394994364431420e-01  9.7426451459514596e-01  9.7451432699754048e-01  9.7470411609777607e-01  9.7483985636348824e-01  9.7492882249384294e-01  9.7497854223890124e-01  9.7499709743847074e-01  9.7499212808695623e-01  9.7497113845189121e-01  9.7494058073898104e-01  9.7490617059481099e-01  9.7487210719252637e-01  9.7484157230133550e-01  9.7481606738323023e-01  9.7479608354951397e-01  9.7478044862854984e-01  9.7476703618958793e-01  9.7475227227598604e-01  9.7473184281143888e-01  9.7470027567173090e-01  9.7465181245964705e-01  9.7458005618684362e-01  9.7447893471697367e-01  9.7434232444414448e-01  9.7416499079730701e-01  9.7394229860595816e-01  9.7367101487136487e-01  9.7334909292456029e-01  9.7297667980431435e-01  9.7255610938299497e-01  9.7209323977980711e-01  9.7159766648474732e-01  9.7108444763511881e-01  9.7057467723967017e-01  9.7009732623899325e-01  9.6968963851795809e-01  9.6939833297903444e-01  9.6927842598492131e-01  9.6939206308034487e-01  9.6980413501509888e-01  9.7057701526618767e-01  9.7176142977913649e-01  9.7338618821783829e-01  9.7544607372331249e-01  9.7789340215018761e-01  9.8063405149735805e-01  9.8353360633469988e-01  9.8643279957807983e-01  9.8917130935165365e-01  9.9161432396556937e-01  9.9367559739510347e-01  9.9532686969392903e-01  9.9659152053045763e-01  9.9752625148999674e-01  9.9820004718819322e-01  9.9867813710181685e-01  9.9901456689769874e-01  9.9925066464734635e-01  9.9941651753793326e-01  9.9953332813190021e-01  9.9961575480829479e-01  9.9967379612484486e-01  9.9971422366529006e-01  9.9974157869048175e-01  9.9975887289215837e-01  9.9976804605237490e-01  9.9977027979881627e-01  9.9976619242224185e-01  9.9975597672214522e-01  9.9973948094511245e-01  9.9971627423024434e-01  9.9968568699794713e-01  9.9964686795646585e-01  9.9959884036767876e-01  9.9954058738758145e-01  9.9947113895669826e-01  9.9938969564417657e-01  9.9929574081868222e-01  9.9918917297935750e-01  9.9907037240102126e-01  9.9894025310974788e-01  9.9880020748280540e-01  9.9865202754504767e-01  9.9849772369598810e-01  9.9833937757956459e-01  9.9817892581955825e-01  9.9801804600758237e-01  9.9785798662416336e-01  9.9769954655162751e-01  9.9754299136185487e-01  9.9738809957235497e-01  9.9723412278099155e-01  9.9707987311616963e-01  9.9692368641463747e-01  9.9676352494271936e-01  9.9659692628819352e-01  9.9642111357109520e-01  9.9623294414700925e-01  9.9602901719470549e-01  9.9580560830551823e-01  9.9555878550098176e-01  9.9528432754345009e-01  9.9497786625827389e-01  9.9463481848661861e-01  9.9425059837234708e-01  9.9382064710881690e-01  9.9334078003040160e-01  9.9280737718346079e-01  9.9221799373925001e-01  9.9157178623475362e-01  9.9087048197839978e-01  9.9011905866985239e-01  9.8932696703187495e-01  9.8850887130701826e-01  9.8768560343845357e-01  9.8688409489085915e-01  9.8613706572459814e-01  9.8548106811187619e-01  9.8495409362212605e-01  9.8459133567383816e-01  9.8442029755145455e-01  9.8445191500035012e-01  9.8467260557256042e-01  9.8504155916557612e-01  9.8549452656184000e-01  9.8594924743292633e-01  9.8631162338172362e-01  9.8647700557595952e-01  9.8632335436618235e-01  9.8569013716676868e-01  9.8433472743277750e-01  9.8184530454930996e-01  9.7746630044407523e-01  9.6973441010365002e-01  9.5572648773613478e-01  9.2963218375093115e-01  8.8072283887278657e-01  7.9258949568643111e-01  6.5143071253282991e-01  4.7047099259053632e-01  2.9697249341267629e-01  1.7004089126196070e-01  9.2987477781185143e-02  5.0523505475242536e-02  2.7903341703421663e-02  1.5841460577447362e-02  9.2888494401309075e-03  5.6326067002125963e-03  3.5303892944244467e-03  2.2840113026144386e-03  1.5224580300819417e-03  1.0434965418847121e-03  7.3390813271661842e-04  5.2858720783358971e-04  3.8910480874014515e-04  2.9220227531926389e-04  2.2346446234832693e-04  1.7375347290101150e-04  1.3715247874561781e-04  1.0975246861721760e-04  8.8922461543857508e-05  7.2860065321777898e-05  6.0309848041275415e-05  5.0383595560541118e-05  4.2443709298199229e-05  3.6026152697311735e-05  3.0788838883950705e-05  2.6476383782705772e-05  2.2896050438952733e-05  1.9900775835191978e-05  1.7377203811773407e-05  1.5237106531168806e-05  1.3411204563304693e-05  1.1844644121865060e-05  1.0493636165384007e-05  9.3229332188104624e-06  8.3039817968275699e-06  7.4135000230574848e-06  6.6323629087479097e-06  5.9447750151751028e-06  5.3376002305376852e-06  4.7998826694147473e-06  4.3224109245409556e-06  3.8974068852411567e-06  3.5182682871483147e-06  3.1793794335174311e-06  2.8759288993762031e-06  2.6037805058984291e-06  2.3593599956049756e-06  2.1395819618993147e-06  1.9417595635509129e-06  1.7635478523927714e-06  1.6028932168786814e-06  1.4579955538136335e-06  1.3272695826433797e-06  1.2093141644402667e-06  1.1028890135464139e-06  1.0068961178308841e-06  9.2035895109510091e-07  8.4240934179967711e-07  7.7227364403231833e-07  7.0926184609700424e-07  6.5275893572865557e-07  6.0221750650480877e-07  5.5715039890659503e-07  5.1712397401939147e-07  4.8175423749368521e-07  4.5070375157262168e-07  4.2367672659335915e-07  4.0041553227048015e-07  3.8069915866574453e-07  3.6434197549763663e-07  3.5119228516025502e-07  3.4113263470240589e-07  3.3408565300972548e-07  3.3004088081796185e-07  3.2915091104423881e-07  9.9385629879326631e-01  9.9382597453131938e-01  9.9377706078426153e-01  9.9371237315227701e-01  9.9363106344796559e-01  9.9353248873382094e-01  9.9341632625203524e-01  9.9328286029275559e-01  9.9313265210778268e-01  9.9296674006003849e-01  9.9278643137442246e-01  9.9259342736056122e-01  9.9238966511640536e-01  9.9217742070908699e-01  9.9195915612032848e-01  9.9173761804852212e-01  9.9151564580719853e-01  9.9129628829570293e-01  9.9108258977295083e-01  9.9087775575987558e-01  9.9068491405259562e-01  9.9050724400011492e-01  9.9034767339877516e-01  9.9020894909516266e-01  9.9009324479621696e-01  9.9000228944020874e-01  9.8993701128776612e-01  9.8989778608231160e-01  9.8988420747386852e-01  9.8989541686103588e-01  9.8992998529676102e-01  9.8998627111493565e-01  9.9006229826726333e-01  9.9015610208307869e-01  9.9026553607847012e-01  9.9038857632824662e-01  9.9052311282189398e-01  9.9066719881192944e-01  9.9081884879553761e-01  9.9097626469381561e-01  9.9113762038154241e-01  9.9130130338920652e-01  9.9146567561973009e-01  9.9162930431992946e-01  9.9179074805923495e-01  9.9194875698216123e-01  9.9210209851486486e-01  9.9224975111626745e-01  9.9239075596857806e-01  9.9252444140604668e-01  9.9265026929438960e-01  9.9276807116209020e-01  9.9287791286616167e-01  9.9298032290390659e-01  9.9307618968506017e-01  9.9316699283647092e-01  9.9325470944722394e-01  9.9334206136307102e-01  9.9343240355823703e-01  9.9352992389736183e-01  9.9363946487521027e-01  9.9376655612295839e-01  9.9391705412311759e-01  9.9409691131057620e-01  9.9431153255537563e-01  9.9456528400724509e-01  9.9486064565606735e-01  9.9519763989769139e-01  9.9557311658978997e-01  9.9598054129347213e-01  9.9641000012631964e-01  9.9684894017751025e-01  9.9728323868848279e-01  9.9769882736941529e-01  9.9808328479968034e-01  9.9842732632803211e-01  9.9872559547125606e-01  9.9897677304927168e-01  9.9918292204542503e-01  9.9934847519460324e-01  9.9947909290571402e-01  9.9958073977395900e-01  9.9965901687006842e-01  9.9971881860283207e-01  9.9976419224454571e-01  9.9979836273294487e-01  9.9982381733186099e-01  9.9984242985084804e-01  9.9985557249843149e-01  9.9986422216086657e-01  9.9986903676741767e-01  9.9987042027942985e-01  9.9986856179680650e-01  9.9986346697463580e-01  9.9985497190205597e-01  9.9984275514836041e-01  9.9982633760598616e-01  9.9980508797149270e-01  9.9977822466110622e-01  9.9974483645588308e-01  9.9970390363170158e-01  9.9965434146266274e-01  9.9959504901850371e-01  9.9952499292906105e-01  9.9944329178639768e-01  9.9934932564967238e-01  9.9924280627107598e-01  9.9912385090654454e-01  9.9899298218864507e-01  9.9885111965358420e-01  9.9869948084141136e-01  9.9853948961981165e-01  9.9837260974885733e-01  9.9820024383284034e-01  9.9802357033563549e-01  9.9784349588736765e-01  9.9766054632565637e-01  9.9747489118721389e-01  9.9728629546148184e-01  9.9709420094822210e-01  9.9689770634548236e-01  9.9669568808066611e-01  9.9648677424154519e-01  9.9626947101107610e-01  9.9604211777512830e-01  9.9580300012266110e-01  9.9555029260597672e-01  9.9528217627378601e-01  9.9499677491409821e-01  9.9469231943126046e-01  9.9436709335584983e-01  9.9401965793720048e-01  9.9364882935244581e-01  9.9325395756581236e-01  9.9283495308088809e-01  9.9239262416798812e-01  9.9192870177157910e-01  9.9144622100796920e-01  9.9094949136958543e-01  9.9044445277641613e-01  9.8993854166239237e-01  9.8944088800338303e-01  9.8896195638779660e-01  9.8851344397125618e-01  9.8810748968580953e-01  9.8775627386255327e-01  9.8747092677078507e-01  9.8726108938704571e-01  9.8713389677344676e-01  9.8709372975263965e-01  9.8714157825682658e-01  9.8727523946184748e-01  9.8748915478806698e-01  9.8777514328853255e-01  9.8812266356524958e-01  9.8851992944270850e-01  9.8895442697814784e-01  9.8941397126373043e-01  9.8988708135200709e-01  9.9036368759992721e-01  9.9083517311213820e-01  9.9129474765942038e-01  9.9173718523168430e-01  9.9215895549129030e-01  9.9255784337177833e-01  9.9293292394753530e-01  9.9328416561609167e-01  9.9361236224359006e-01  9.9391878035252379e-01  9.9420514837312646e-01  9.9447336947699538e-01  9.9472558044192516e-01  9.9496396005921162e-01  9.9519082488501953e-01  9.9540849096494022e-01  9.9561935537955826e-01  9.9582573770857641e-01  9.9602992586948402e-01  9.9623397608916675e-01  9.9643970958490935e-01  9.9664849985804638e-01  9.9686123206358968e-01  9.9707811168009086e-01  9.9729865167200182e-01  9.9752156573157813e-01  9.9774487974323756e-01  9.9796598145770621e-01  9.9818187921035395e-01  9.9838939991342868e-01  9.9858551456268474e-01  9.9876756472117323e-01  9.9893351093338856e-01  9.9908203009309282e-01  9.9921258316933104e-01  9.9932533753364883e-01  9.9942107122279511e-01  9.9950099140592719e-01  9.9956657038562313e-01  9.9961936413770880e-01  9.9966087863713438e-01  9.9969244737611906e-01  9.9971515666909527e-01  9.9972977293919962e-01  9.9973669347046912e-01  9.9973587241579942e-01  9.9972673287947955e-01  9.9970801515795049e-01  9.9967755644797374e-01  9.9963193331690847e-01  9.9956594578114011e-01  9.9947182830195391e-01  9.9933813153357909e-01  9.9914818948165773e-01  9.9887821390211573e-01  9.9849499491484561e-01  9.9795387171175143e-01  9.9719834876964852e-01  9.9616324089010611e-01  9.9478245715493441e-01  9.9300260494533743e-01  9.9080092590415803e-01  9.8820267985764765e-01  9.8528898603715975e-01  9.8219020892834585e-01  9.7906558469908722e-01  9.7607766581240196e-01  9.7336864660416600e-01  9.7104572843077619e-01  9.6917356282263578e-01  9.6777510857239080e-01  9.6683674324858881e-01  9.6631782751371365e-01  9.6615985465789722e-01  9.6629607926710381e-01  9.6665780382974220e-01  9.6718009813792827e-01  9.6780421719243870e-01  9.6848014417612027e-01  9.6916668683460871e-01  9.6983211522640411e-01  9.7045285047423979e-01  9.7101318709770246e-01  9.7150344021627644e-01  9.7191947340194607e-01  9.7226095600902884e-01  9.7253100601678666e-01  9.7273477885257720e-01  9.7287934758292571e-01  9.7297250793813550e-01  9.7302298399832643e-01  9.7303938594194561e-01  9.7303054689976409e-01  9.7300448173839038e-01  9.7296865286208933e-01  9.7292906471305352e-01  9.7289065872871416e-01  9.7285657256245817e-01  9.7282879572412295e-01  9.7280749068485761e-01  9.7279172020769455e-01  9.7277883174303403e-01  9.7276518680212753e-01  9.7274569527201626e-01  9.7271463367086641e-01  9.7266526043482038e-01  9.7259081933345681e-01  9.7248417655333363e-01  9.7233887013309894e-01  9.7214876812457673e-01  9.7190896452043196e-01  9.7161548586447510e-01  9.7126620509308859e-01  9.7086071561282261e-01  9.7040158022741652e-01  9.6989444231873378e-01  9.6934967671005301e-01  9.6878285641564021e-01  9.6821674759574405e-01  9.6768206069028173e-01  9.6721936453302482e-01  9.6687904480872033e-01  9.6672161610685969e-01  9.6681497967779639e-01  9.6723127733069425e-01  9.6803987633208777e-01  9.6929882995798444e-01  9.7104223828530001e-01  9.7326774567401264e-01  9.7592530652223031e-01  9.7891366891223452e-01  9.8208507245645693e-01  9.8526294248305857e-01  9.8826755771075725e-01  9.9094704625634966e-01  9.9320359130350933e-01  9.9500523830772347e-01  9.9637841387735016e-01  9.9738744496619114e-01  9.9811018351651903e-01  9.9861976910388928e-01  9.9897618620886364e-01  9.9922490951487086e-01  9.9939873345769126e-01  9.9952059995526876e-01  9.9960623997994025e-01  9.9966632425169588e-01  9.9970802657137658e-01  9.9973613987430521e-01  9.9975381951886877e-01  9.9976309143203446e-01  9.9976517510914631e-01  9.9976070349492019e-01  9.9974985456804599e-01  9.9973244608178402e-01  9.9970799166263458e-01  9.9967576072596087e-01  9.9963482407745874e-01  9.9958411860933227e-01  9.9952251648544488e-01  9.9944894058317379e-01  9.9936248829884344e-01  9.9926258810034352e-01  9.9914911155238983e-01  9.9902248142823558e-01  9.9888368213084877e-01  9.9873424109511322e-01  9.9857609216427490e-01  9.9841143552205946e-01  9.9824250694110328e-01  9.9807142196546150e-01  9.9789995904766648e-01  9.9772948471780809e-01  9.9756082308369498e-01  9.9739427602628394e-01  9.9722956719426692e-01  9.9706591725074911e-01  9.9690200871172752e-01  9.9673608696669724e-01  9.9656591233206215e-01  9.9638887044780200e-01  9.9620191682856751e-01  9.9600168884683449e-01  9.9578445054224185e-01  9.9554620532467919e-01  9.9528261568397880e-01  9.9498913102082243e-01  9.9466089990431494e-01  9.9429294874580132e-01  9.9388015697073429e-01  9.9341754350091738e-01  9.9290038666620917e-01  9.9232471812915091e-01  9.9168764600958503e-01  9.9098818918699250e-01  9.9022788909892223e-01  9.8941204057129195e-01  9.8855058505877658e-01  9.8765948620535549e-01  9.8676140690616498e-01  9.8588635368773658e-01  9.8507081013079822e-01  9.8435634268525340e-01  9.8378617632891963e-01  9.8340093524416938e-01  9.8323176658579781e-01  9.8329148129916288e-01  9.8356510115369855e-01  9.8400755853917665e-01  9.84547676356