<?xml version="1.0"?>
<VTKFile type="UnstructuredGrid"  version="0.1"  >
<UnstructuredGrid>
<Piece  NumberOfPoints="28121" NumberOfCells="55200">
<Points>
<DataArray  type="Float64"  NumberOfComponents="3"  format="ascii">0 0 0  0.008260869565217391 0 0  0.01652173913043478 0 0  0.02478260869565217 0 0  0.03304347826086956 0 0  0.04130434782608695 0 0  0.04956521739130434 0 0  0.05782608695652174 0 0  0.06608695652173913 0 0  0.07434782608695652 0 0  0.08260869565217391 0 0  0.0908695652173913 0 0  0.09913043478260869 0 0  0.1073913043478261 0 0  0.1156521739130435 0 0  0.1239130434782609 0 0  0.1321739130434783 0 0  0.1404347826086956 0 0  0.148695652173913 0 0  0.1569565217391304 0 0  0.1652173913043478 0 0  0.1734782608695652 0 0  0.1817391304347826 0 0  0.19 0 0  0.1982608695652174 0 0  0.2065217391304348 0 0  0.2147826086956522 0 0  0.2230434782608696 0 0  0.2313043478260869 0 0  0.2395652173913043 0 0  0.2478260869565218 0 0  0.2560869565217391 0 0  0.2643478260869565 0 0  0.2726086956521739 0 0  0.2808695652173913 0 0  0.2891304347826087 0 0  0.2973913043478261 0 0  0.3056521739130434 0 0  0.3139130434782609 0 0  0.3221739130434783 0 0  0.3304347826086956 0 0  0.338695652173913 0 0  0.3469565217391304 0 0  0.3552173913043478 0 0  0.3634782608695652 0 0  0.3717391304347826 0 0  0.3799999999999999 0 0  0.3882608695652174 0 0  0.3965217391304348 0 0  0.4047826086956521 0 0  0.4130434782608696 0 0  0.4213043478260869 0 0  0.4295652173913043 0 0  0.4378260869565217 0 0  0.4460869565217391 0 0  0.4543478260869565 0 0  0.4626086956521739 0 0  0.4708695652173913 0 0  0.4791304347826086 0 0  0.4873913043478261 0 0  0.4956521739130435 0 0  0.5039130434782608 0 0  0.5121739130434783 0 0  0.5204347826086956 0 0  0.528695652173913 0 0  0.5369565217391304 0 0  0.5452173913043478 0 0  0.5534782608695652 0 0  0.5617391304347825 0 0  0.57 0 0  0.5782608695652174 0 0  0.5865217391304348 0 0  0.5947826086956521 0 0  0.6030434782608696 0 0  0.6113043478260869 0 0  0.6195652173913043 0 0  0.6278260869565218 0 0  0.6360869565217391 0 0  0.6443478260869565 0 0  0.6526086956521739 0 0  0.6608695652173913 0 0  0.6691304347826087 0 0  0.677391304347826 0 0  0.6856521739130435 0 0  0.6939130434782609 0 0  0.7021739130434783 0 0  0.7104347826086956 0 0  0.718695652173913 0 0  0.7269565217391304 0 0  0.7352173913043478 0 0  0.7434782608695653 0 0  0.7517391304347827 0 0  0.7599999999999999 0 0  0.7682608695652173 0 0  0.7765217391304348 0 0  0.7847826086956522 0 0  0.7930434782608695 0 0  0.8013043478260868 0 0  0.8095652173913043 0 0  0.8178260869565217 0 0  0.8260869565217391 0 0  0.8343478260869565 0 0  0.8426086956521739 0 0  0.8508695652173912 0 0  0.8591304347826086 0 0  0.8673913043478261 0 0  0.8756521739130434 0 0  0.8839130434782608 0 0  0.8921739130434783 0 0  0.9004347826086956 0 0  0.908695652173913 0 0  0.9169565217391303 0 0  0.9252173913043478 0 0  0.9334782608695652 0 0  0.9417391304347826 0 0  0.95 0 0  0.9582608695652173 0 0  0.9665217391304347 0 0  0.9747826086956521 0 0  0.9830434782608696 0 0  0.991304347826087 0 0  0.9995652173913042 0 0  1.007826086956522 0 0  1.016086956521739 0 0  1.024347826086957 0 0  1.032608695652174 0 0  1.040869565217391 0 0  1.049130434782609 0 0  1.057391304347826 0 0  1.065652173913043 0 0  1.073913043478261 0 0  1.082173913043478 0 0  1.090434782608696 0 0  1.098695652173913 0 0  1.10695652173913 0 0  1.115217391304348 0 0  1.123478260869565 0 0  1.131739130434783 0 0  1.14 0 0  1.148260869565217 0 0  1.156521739130435 0 0  1.164782608695652 0 0  1.17304347826087 0 0  1.181304347826087 0 0  1.189565217391304 0 0  1.197826086956522 0 0  1.206086956521739 0 0  1.214347826086956 0 0  1.222608695652174 0 0  1.230869565217391 0 0  1.239130434782609 0 0  1.247391304347826 0 0  1.255652173913044 0 0  1.263913043478261 0 0  1.272173913043478 0 0  1.280434782608696 0 0  1.288695652173913 0 0  1.296956521739131 0 0  1.305217391304348 0 0  1.313478260869565 0 0  1.321739130434783 0 0  1.33 0 0  1.338260869565217 0 0  1.346521739130435 0 0  1.354782608695652 0 0  1.36304347826087 0 0  1.371304347826087 0 0  1.379565217391304 0 0  1.387826086956522 0 0  1.396086956521739 0 0  1.404347826086957 0 0  1.412608695652174 0 0  1.420869565217391 0 0  1.429130434782609 0 0  1.437391304347826 0 0  1.445652173913043 0 0  1.453913043478261 0 0  1.462173913043478 0 0  1.470434782608696 0 0  1.478695652173913 0 0  1.486956521739131 0 0  1.495217391304348 0 0  1.503478260869565 0 0  1.511739130434782 0 0  1.52 0 0  1.528260869565217 0 0  1.536521739130435 0 0  1.544782608695652 0 0  1.55304347826087 0 0  1.561304347826087 0 0  1.569565217391304 0 0  1.577826086956522 0 0  1.586086956521739 0 0  1.594347826086957 0 0  1.602608695652174 0 0  1.610869565217391 0 0  1.619130434782609 0 0  1.627391304347826 0 0  1.635652173913043 0 0  1.643913043478261 0 0  1.652173913043478 0 0  1.660434782608696 0 0  1.668695652173913 0 0  1.67695652173913 0 0  1.685217391304348 0 0  1.693478260869565 0 0  1.701739130434782 0 0  1.71 0 0  1.718260869565217 0 0  1.726521739130435 0 0  1.734782608695652 0 0  1.743043478260869 0 0  1.751304347826087 0 0  1.759565217391304 0 0  1.767826086956522 0 0  1.776086956521739 0 0  1.784347826086957 0 0  1.792608695652174 0 0  1.800869565217391 0 0  1.809130434782608 0 0  1.817391304347826 0 0  1.825652173913043 0 0  1.833913043478261 0 0  1.842173913043478 0 0  1.850434782608696 0 0  1.858695652173913 0 0  1.86695652173913 0 0  1.875217391304348 0 0  1.883478260869565 0 0  1.891739130434782 0 0  1.9 0 0  1.908260869565217 0 0  1.916521739130435 0 0  1.924782608695652 0 0  1.933043478260869 0 0  1.941304347826087 0 0  1.949565217391304 0 0  1.957826086956522 0 0  1.966086956521739 0 0  1.974347826086956 0 0  1.982608695652174 0 0  1.990869565217391 0 0  1.999130434782608 0 0  2.007391304347826 0 0  2.015652173913043 0 0  2.023913043478261 0 0  2.032173913043478 0 0  2.040434782608695 0 0  2.048695652173913 0 0  2.05695652173913 0 0  2.065217391304348 0 0  2.073478260869565 0 0  2.081739130434782 0 0  2.09 0 0  2.098260869565217 0 0  2.106521739130435 0 0  2.114782608695652 0 0  2.12304347826087 0 0  2.131304347826087 0 0  2.139565217391304 0 0  2.147826086956522 0 0  2.156086956521739 0 0  2.164347826086956 0 0  2.172608695652174 0 0  2.180869565217391 0 0  2.189130434782609 0 0  2.197391304347826 0 0  2.205652173913043 0 0  2.213913043478261 0 0  2.222173913043478 0 0  2.230434782608695 0 0  2.238695652173913 0 0  2.24695652173913 0 0  2.255217391304348 0 0  2.263478260869565 0 0  2.271739130434783 0 0  2.28 0 0  2.288260869565217 0 0  2.296521739130434 0 0  2.304782608695652 0 0  2.31304347826087 0 0  2.321304347826087 0 0  2.329565217391304 0 0  2.337826086956521 0 0  2.346086956521739 0 0  2.354347826086956 0 0  2.362608695652174 0 0  2.370869565217391 0 0  2.379130434782609 0 0  2.387391304347826 0 0  2.395652173913044 0 0  2.403913043478261 0 0  2.412173913043478 0 0  2.420434782608695 0 0  2.428695652173913 0 0  2.43695652173913 0 0  2.445217391304348 0 0  2.453478260869565 0 0  2.461739130434782 0 0  2.47 0 0  2.478260869565217 0 0  2.486521739130435 0 0  2.494782608695652 0 0  2.503043478260869 0 0  2.511304347826087 0 0  2.519565217391305 0 0  2.527826086956522 0 0  2.536086956521739 0 0  2.544347826086956 0 0  2.552608695652174 0 0  2.560869565217391 0 0  2.569130434782608 0 0  2.577391304347826 0 0  2.585652173913043 0 0  2.593913043478261 0 0  2.602173913043478 0 0  2.610434782608696 0 0  2.618695652173913 0 0  2.62695652173913 0 0  2.635217391304348 0 0  2.643478260869565 0 0  2.651739130434783 0 0  2.66 0 0  2.668260869565217 0 0  2.676521739130435 0 0  2.684782608695652 0 0  2.693043478260869 0 0  2.701304347826087 0 0  2.709565217391304 0 0  2.717826086956522 0 0  2.726086956521739 0 0  2.734347826086956 0 0  2.742608695652174 0 0  2.750869565217391 0 0  2.759130434782609 0 0  2.767391304347826 0 0  2.775652173913044 0 0  2.783913043478261 0 0  2.792173913043478 0 0  2.800434782608696 0 0  2.808695652173913 0 0  2.81695652173913 0 0  2.825217391304347 0 0  2.833478260869565 0 0  2.841739130434783 0 0  2.85 0 0  2.858260869565217 0 0  2.866521739130435 0 0  2.874782608695652 0 0  2.88304347826087 0 0  2.891304347826087 0 0  2.899565217391304 0 0  2.907826086956522 0 0  2.916086956521739 0 0  2.924347826086957 0 0  2.932608695652174 0 0  2.940869565217391 0 0  2.949130434782608 0 0  2.957391304347826 0 0  2.965652173913043 0 0  2.973913043478261 0 0  2.982173913043478 0 0  2.990434782608696 0 0  2.998695652173913 0 0  3.006956521739131 0 0  3.015217391304348 0 0  3.023478260869565 0 0  3.031739130434782 0 0  3.04 0 0  3.048260869565218 0 0  3.056521739130435 0 0  3.064782608695652 0 0  3.073043478260869 0 0  3.081304347826087 0 0  3.089565217391304 0 0  3.097826086956522 0 0  3.106086956521739 0 0  3.114347826086956 0 0  3.122608695652174 0 0  3.130869565217391 0 0  3.139130434782609 0 0  3.147391304347826 0 0  3.155652173913043 0 0  3.163913043478261 0 0  3.172173913043478 0 0  3.180434782608696 0 0  3.188695652173913 0 0  3.19695652173913 0 0  3.205217391304347 0 0  3.213478260869565 0 0  3.221739130434782 0 0  3.23 0 0  3.238260869565217 0 0  3.246521739130435 0 0  3.254782608695652 0 0  3.26304347826087 0 0  3.271304347826087 0 0  3.279565217391304 0 0  3.287826086956521 0 0  3.296086956521739 0 0  3.304347826086957 0 0  3.312608695652174 0 0  3.320869565217391 0 0  3.329130434782608 0 0  3.337391304347826 0 0  3.345652173913043 0 0  3.353913043478261 0 0  3.362173913043478 0 0  3.370434782608696 0 0  3.378695652173913 0 0  3.386956521739131 0 0  3.395217391304348 0 0  3.403478260869565 0 0  3.411739130434782 0 0  3.419999999999999 0 0  3.428260869565217 0 0  3.436521739130435 0 0  3.444782608695652 0 0  3.453043478260869 0 0  3.461304347826087 0 0  3.469565217391304 0 0  3.477826086956522 0 0  3.486086956521739 0 0  3.494347826086956 0 0  3.502608695652174 0 0  3.510869565217391 0 0  3.519130434782609 0 0  3.527391304347826 0 0  3.535652173913043 0 0  3.54391304347826
[...]
<PointData  Scalars="rho"> 
<DataArray  type="Float64"  Name="rho"  format="ascii">9.7324023882436717e-01  9.6112480682777335e-01  9.6077899507644249e-01  9.6016972430819425e-01  9.5941927243515857e-01  9.5847336494636803e-01  9.5756228423790768e-01  9.5603014092238703e-01  9.5492928776823816e-01  9.5266135536806551e-01  9.5237494119092259e-01  9.5209483625465507e-01  9.5332123755538245e-01  9.5362435238076237e-01  9.5420607123817724e-01  9.5678536240188694e-01  9.5814210139552536e-01  9.6011725738534803e-01  9.6287071306445837e-01  9.6602839235310944e-01  9.6814157464095230e-01  9.7018006734915163e-01  9.7222794230523490e-01  9.7454462623449045e-01  9.7739941304137001e-01  9.8154317384754275e-01  9.8421896710489332e-01  9.8620867304356585e-01  9.8622943138800334e-01  9.8758172964455915e-01  9.8728360572011020e-01  9.8804652905170165e-01  9.8853443221467696e-01  9.8875703192902664e-01  9.8747455684503405e-01  9.8740459963327365e-01  9.8731645772556720e-01  9.8705391225243577e-01  9.8412183191322089e-01  9.8361870966887077e-01  9.7914944515424296e-01  9.7801917163502172e-01  9.7729788870245093e-01  9.8269092589762785e-01  9.8217094790972137e-01  9.8176644888453191e-01  9.8148932785217069e-01  9.8137904758054373e-01  9.8139758646072206e-01  9.8161387630561447e-01  9.8192628943074078e-01  9.8188426696582431e-01  9.8247040671009989e-01  9.8320592994885014e-01  9.8385066497959572e-01  9.8460449787432114e-01  9.8497172076154971e-01  9.8531461639478213e-01  9.8627138789866220e-01  9.8736007811467852e-01  9.8665715435417678e-01  9.8868744187396906e-01  9.8958320219335982e-01  9.9005539973129952e-01  9.9045903456370543e-01  9.9074064788018323e-01  9.9093475353034410e-01  9.9103292424048384e-01  9.8972456088300564e-01  9.8957862813678610e-01  9.8921766436316816e-01  9.8844946012181190e-01  9.8762231989269078e-01  9.8650498368118389e-01  9.8467729034232598e-01  9.3625326736746672e-01  8.6150343516907713e-01  8.7296600209246156e-01  8.4478333487422674e-01  8.3338321544937954e-01  8.3206313844109925e-01  8.2873907806784675e-01  8.2779150123061962e-01  8.6834446914322105e-01  8.7716907005139155e-01  8.8710800648179278e-01  9.0032835563292435e-01  9.0729838067403357e-01  9.1607606137048880e-01  9.2422973699611222e-01  9.3078330987777680e-01  9.3957512844285296e-01  9.4238776163446858e-01  9.4338277201336052e-01  9.4195199659940965e-01  9.3945762535053090e-01  9.3791429382355296e-01  9.3385506813010821e-01  9.2549283575488006e-01  9.1912869478106263e-01  9.1193131312981135e-01  9.0924224524519637e-01  9.1602065080661976e-01  9.2291976121993835e-01  9.3049722408979196e-01  9.3713539825749514e-01  9.4720265802280923e-01  9.3354292739363176e-01  9.3112322958150429e-01  9.3490020885868474e-01  9.4642522287833619e-01  9.5935604341072567e-01  9.6599453534236634e-01  9.7834952058843105e-01  9.7727211964424254e-01  9.7630099285681560e-01  9.7512629981206356e-01  9.7395776064302664e-01  9.7274010948495726e-01  9.7158653165296793e-01  9.7048091197955699e-01  9.6943465735274048e-01  9.6770226910927859e-01  9.6444804785850491e-01  9.6292213957113626e-01  9.6130082646354664e-01  9.5986039016694213e-01  9.5456429080150507e-01  9.5294988502487199e-01  9.5022998301935147e-01  9.4105605336579801e-01  9.3817397867910479e-01  9.3699159286239164e-01  9.3678822190034527e-01  9.4403162979277122e-01  9.4549464077903478e-01  9.4753419895014146e-01  9.6105921257506544e-01  9.6717119580717914e-01  9.7061448479855716e-01  9.7483759787362689e-01  9.7925552907576152e-01  9.8427753785010463e-01  9.8844390518134173e-01  9.9396596704681139e-01  9.9716257153149146e-01  9.9740022856266286e-01  9.9755630216438107e-01  9.9765270669485562e-01  9.9768817382852948e-01  9.9766505498452562e-01  9.9758197993083264e-01  9.9743129319696322e-01  9.9724360365298526e-01  9.9702863968045852e-01  9.9559982873823638e-01  9.9529746563025034e-01  9.9443390494425221e-01  9.9352658674650629e-01  9.9279536388376977e-01  9.9203469322954152e-01  9.9153481957858425e-01  9.9106975251719809e-01  9.9054266501948274e-01  9.8920801452840568e-01  9.8714713510157170e-01  9.8569306174112048e-01  9.8525239466843240e-01  9.8484427365670535e-01  9.8433469577880961e-01  9.8433031754952227e-01  9.8460277851193312e-01  9.8496500117119623e-01  9.8587006651665221e-01  9.8611327674426774e-01  9.8706232303047647e-01  9.8721609587332559e-01  9.8801758692157904e-01  9.8544551404850678e-01  9.8358582367544312e-01  9.8415651461172282e-01  9.8461080819191449e-01  9.8500787034895243e-01  9.8458270162137373e-01  9.8298989897447298e-01  9.8189299092292182e-01  9.6763285857681536e-01  9.5583905294807170e-01  9.4073731528122706e-01  9.2721819563030250e-01  9.1889387745788320e-01  9.1271929034042354e-01  9.0905424599848605e-01  9.0625677124511517e-01  9.1733011270850384e-01  9.1975011456866940e-01  9.2183321744746716e-01  9.2536226712350889e-01  9.2884291448971978e-01  9.3168043478179985e-01  9.3445866502688468e-01  9.3597990046742041e-01  9.3674340245928456e-01  9.3917191858578497e-01  9.3556576573183048e-01  9.2694422933108334e-01  9.1605694791332160e-01  9.0356478665120910e-01  8.9145701385343157e-01  8.8014256634670929e-01  8.6383788879207446e-01  8.3980819811069030e-01  8.1939073275866081e-01  8.1645561269297406e-01  8.1411976252302509e-01  8.3804939576338155e-01  8.3002754072173712e-01  8.2818017851811099e-01  8.4916596159265090e-01  8.8720540814028015e-01  9.6693276808755768e-01  9.9920662606409461e-01  9.9978507284002061e-01  9.9979063471958873e-01  9.9993086184060787e-01  9.9993306953799310e-01  9.9993529669024328e-01  9.9993748350068412e-01  9.9993959252254483e-01  9.9994160523302567e-01  9.9994351825295180e-01  9.9994534015632919e-01  9.9994708892176931e-01  9.9988609898700964e-01  9.9951674055898554e-01  9.9909516603406245e-01  9.9864134470015609e-01  9.9823511039959689e-01  9.9792569784762108e-01  9.9700424218640149e-01  9.9669906552932730e-01  9.9624370317801436e-01  9.9496735913536127e-01  9.9345284839960302e-01  9.9330281223958949e-01  9.9332114060610366e-01  9.9350960083239548e-01  9.9394757956412794e-01  9.9439562056262365e-01  9.9484465711445225e-01  9.9520745551812484e-01  9.9563401425696452e-01  9.9609189312562296e-01  9.9635360808769735e-01  9.9654876651573943e-01  9.9665944796004435e-01  9.9665778863466559e-01  9.9663677657737559e-01  9.9644315548045448e-01  9.9614549226488014e-01  9.9582858158331589e-01  9.9539590648887510e-01  9.9466954378982941e-01  9.9408493475621684e-01  9.9354043629451949e-01  9.9336228647507019e-01  9.9281560997867901e-01  9.9321179745484323e-01  9.9344832894261159e-01  9.9369446743725032e-01  9.9534556509937555e-01  9.9544551596204900e-01  9.9595037643219819e-01  9.9737059703310527e-01  9.9783944681822112e-01  9.9900019253599937e-01  9.9932174922406070e-01  9.9953729544221759e-01  9.9960948100208558e-01  9.9966469898454802e-01  9.9972139942256022e-01  9.9973502678998927e-01  9.9993139960656274e-01  9.9990005768850954e-01  1.0000000000000000e+00  1.0000000000000000e+00  1.0000000000000000e+00  1.0000000000000000e+00  1.0000000000000000e+00  1.0000000000000000e+00  9.9983740498938456e-01  9.9784041314086791e-01  8.8581029155547264e-01  8.0244453951675654e-01  7.6594021702189852e-01  7.3188758156967482e-01  8.8769892635822523e-01  8.8759815898525596e-01  8.8916665902853953e-01  8.9601100332795591e-01  9.1737902008802741e-01  9.2588386002103618e-01  9.3654523560939451e-01  9.4438382318121561e-01  9.5118406810568179e-01  9.5052597456104437e-01  9.5237294652164495e-01  9.5447286263296849e-01  9.4931809336105855e-01  9.4526291094914550e-01  9.3762754283233629e-01  9.3213102475711607e-01  9.2870346867559050e-01  9.2351801497359776e-01  9.1961364258346379e-01  9.2024678416927630e-01  9.1843031091203031e-01  9.1768039404834767e-01  9.1809547793469026e-01  9.2362067357742939e-01  9.2445517030882529e-01  9.3304103157301932e-01  9.3699918711469465e-01  9.4141983857217215e-01  9.5130367208755440e-01  9.5838997211676791e-01  9.6150513422141037e-01  9.6799209704075595e-01  9.6789561467855201e-01  9.6745710719867206e-01  9.6416561004241463e-01  9.6337546838983046e-01  9.6238134546463205e-01  9.6020073378293369e-01  9.5777079912621932e-01  9.5491495552780148e-01  9.5130458907283399e-01  9.4304149153279826e-01  9.3938483115208871e-01  9.4290225145998696e-01  9.3990088093586077e-01  9.3545068833067668e-01  9.3764535548434169e-01  9.3529388419022397e-01  9.3579739790642069e-01  9.3476136325486459e-01  9.3424800002508701e-01  9.3405365342554292e-01  9.3031593083311104e-01  9.3164716561439476e-01  9.3451677693622726e-01  9.3725873521895220e-01  9.4423358837271953e-01  9.5319916706720997e-01  9.6609934137913489e-01  9.7890944939518421e-01  9.8875028122558428e-01  9.8763233924942051e-01  9.9040980937628242e-01  9.9857016995010472e-01  9.9987275340876969e-01  9.9995110089288541e-01  9.9997562146160368e-01  9.2420888980028915e-01  8.3038649776520479e-01  8.1514933162275471e-01  7.2929619418209479e-01  6.8896982404460450e-01  7.3301320771059530e-01  7.0230175202944212e-01  6.9131039682300566e-01  7.0493968228562909e-01  7.0414057345439518e-01  7.0331564914199762e-01  7.0455855708142634e-01  7.4954368748129940e-01  7.6364786239740479e-01  6.7463433815282281e-01  6.6377919168630894e-01  2.8285201893069201e-01  2.4137253093335617e-01  1.9519651426470333e-01  1.5381830368162644e-01  1.0046212781503661e-01  3.0871623303615845e-02  1.5595435132154554e-02  1.1484736702138253e-02  9.9070468249854594e-03  9.2960061447674817e-03  7.6812549386436361e-03  7.1540710154943668e-03  8.6685120516248187e-03  8.2809828563986058e-03  7.9652539341450567e-03  7.2490803891546310e-03  6.7463601973505498e-03  6.1318314447713230e-03  5.1251368907667570e-03  4.5271634943220944e-03  3.2564034744475435e-03  2.5881954837115545e-03  2.1870357233511983e-03  1.8035959540594437e-03  1.0218839878654463e-03  6.6089411063711338e-04  5.2339245228612806e-04  3.3206853743657732e-04  1.5976305291269500e-04  2.5753681684724069e-05  9.8846974318610904e-06  4.5149091995638137e-06  3.4687357624386702e-06  2.5676384113243479e-06  1.7976632675830738e-06  1.1453276461991719e-06  6.9476568367530192e-07  6.0745049115603626e-07  4.4203351659114423e-07  3.2127911484223407e-07  2.7989913511625723e-07  2.4358869630811369e-07  6.1742260834806295e-07  5.3628338349313255e-07  4.6540125974995623e-07  5.7652039377131516e-07  4.1629943757726668e-07  3.6049875476711932e-07  3.1201090176622726e-07  2.6992937155658961e-07  2.3345112461488937e-07  2.0186602865817180e-07  1.7454729354653910e-07  1.5094221845916962e-07  1.3056458647452934e-07  1.1298713511449202e-07  9.7836375035755405e-08  8.4785186126568336e-08  7.3547828568655823e-08  6.3875260169240026e-08  5.5551120216081027e-08  4.8387714294805580e-08  4.2222351876295820e-08  3.6914643579865129e-08  3.2343732264160435e-08  2.8405954289829242e-08  2.5012413441832044e-08  2.2087320196059319e-08  1.9566152292814833e-08  1.7394376773623974e-08  1.5525896132988589e-08  1.3922085745334434e-08  1.2550543999404722e-08  1.3661334791573630e-08  1.2482022333901818e-08  1.1501120536438256e-08  1.0701178495615289e-08  1.0068407355591603e-08  9.5925152646374461e-09  9.2662536098396077e-09  9.0854780782412673e-09  3.0130814860070651e-09  9.6458969261472127e-01  9.2850648182811735e-01  9.2797613448566019e-01  9.2695857291270023e-01  9.2561289987067064e-01  9.2405782738108555e-01  9.2251397885671471e-01  9.1971452306049506e-01  9.1775639354627958e-01  9.1366996103246523e-01  9.1314361346913997e-01  9.1251734503528581e-01  9.1236386793412005e-01  9.1536630326044677e-01  9.1626411240909156e-01  9.2096205477880455e-01  9.2327237638158544e-01  9.2667281566441417e-01  9.3108715837554912e-01  9.3743301568791104e-01  9.4120190418087890e-01  9.4476771372082524e-01  9.4829498917799615e-01  9.5270747268891354e-01  9.5762398127722881e-01  9.6523375172353842e-01  9.7009191895798363e-01  9.7376715147477799e-01  9.7373623452888236e-01  9.7622384730756484e-01  9.7560009470706055e-01  9.7704763616215473e-01  9.7801575396314011e-01  9.7870862187988505e-01  9.7617264240001944e-01  9.7608076905965535e-01  9.7603815975377783e-01  9.7566910682454411e-01  9.7001036552180975e-01  9.6911809972944896e-01  9.6783447147598167e-01  9.5841754029627124e-01  9.5715116291358371e-01  9.5556664487109177e-01  9.6740044221078147e-01  9.6669618801477586e-01  9.6622415000154260e-01  9.6591676600414045e-01  9.6599336829600069e-01  9.6633222001983943e-01  9.6680525808486528e-01  9.6650616442377035e-01  9.6765815083119333e-01  9.6838250680527138e-01  9.6945867667842778e-01  9.7065676797894984e-01  9.7117844492912619e-01  9.7290285838351143e-01  9.7505254529578544e-01  9.7680822044109727e-01  9.7527794030381454e-01  9.7885718845695135e-01  9.8058646883064093e-01  9.8146125386000094e-01  9.8230525682311298e-01  9.8287831928363223e-01  9.8328815156786287e-01  9.8352839318381313e-01  9.8358449779368207e-01  9.8157967695349069e-01  9.8106925206905404e-01  9.7989120283025777e-01  9.7851105893702039e-01  9.7667874617506034e-01  9.6687751974906722e-01  8.9805629090854400e-01  8.0644902093919169e-01  8.0176596243365950e-01  7.5846129837543996e-01  7.3882606725521593e-01  7.3605191365094225e-01  7.2876489234596042e-01  7.0861585446387376e-01  7.7998319083854373e-01  7.9851545438106186e-01  8.1359647490043319e-01  8.3214149590801390e-01  8.4552865034779157e-01  8.5913845421608548e-01  8.7184603397141813e-01  8.8234714586555318e-01  8.9588304564774746e-01  9.0086222963556162e-01  9.0191064605876781e-01  8.9963536316132076e-01  8.9615507864214938e-01  8.9418433317212853e-01  8.8738355306240291e-01  8.7429215090856605e-01  8.6394906771707281e-01  8.5240234020385808e-01  8.4709248404068660e-01  8.4662637447528022e-01  8.6648717888718030e-01  8.8096056682087587e-01  8.8816808945451320e-01  9.0226459916766710e-01  8.8394182866141680e-01  8.8079675152960302e-01  8.8360130015845662e-01  9.0286934758539816e-01  9.2727525267156963e-01  9.3673178480427333e-01  9.4029101157131434e-01  9.5726817597094449e-01  9.5557760811576653e-01  9.5353975889517695e-01  9.5149383301560131e-01  9.4938919217082829e-01  9.4742726768116303e-01  9.4555126759338581e-01  9.4379682968886081e-01  9.4232794733761061e-01  9.3622671493530119e-01  9.3367817723045976e-01  9.3110122065075818e-01  9.2855392676543458e-01  9.2069493470528574e-01  9.1619958900868570e-01  9.1343509538140399e-01  8.9469683366305397e-01  8.8827221963411485e-01  8.8594470733986053e-01  8.8520811547841172e-01  8.9651501473360840e-01  8.9859438233443600e-01  9.0144392428021025e-01  9.1901762815732724e-01  9.3927770871629079e-01  9.4454248197971680e-01  9.5205181177352305e-01  9.5738055108615294e-01  9.6773153620469921e-01  9.7696024795396075e-01  9.8779577023218912e-01  9.9308397075453536e-01  9.9476939821165977e-01  9.9508705225427219e-01  9.9529140186912513e-01  9.9537901994720090e-01  9.9535392224307451e-01  9.9522240349704749e-01  9.9494816781637563e-01  9.9460133696760000e-01  9.9420051214215044e-01  9.9144165063858536e-01  9.9024598350607929e-01  9.8901459669101943e-01  9.8685220838295573e-01  9.8615908400357266e-01  9.8481493504750506e-01  9.8364719934728018e-01  9.8315973608730389e-01  9.8242379658958134e-01  9.8029599326570138e-01  9.7645262118579179e-01  9.7383567060623810e-01  9.7306513933899652e-01  9.7233255884335446e-01  9.7145055499646393e-01  9.7144931408122681e-01  9.7194195773014735e-01  9.7252314368218851e-01  9.7376523796717618e-01  9.7355559319757479e-01  9.7491052495380726e-01  9.7646086026960111e-01  9.7641454141388784e-01  9.7232896447081640e-01  9.7532427842498937e-01  9.7105570670475239e-01  9.7195166341445749e-01  9.7279766376612842e-01  9.7212317984954599e-01  9.7079824014018379e-01  9.6687586415801086e-01  9.3850603500593233e-01  9.0284700522603212e-01  8.9758037196889451e-01  8.7748496204382220e-01  8.6451316137306744e-01  8.5504155369898516e-01  8.4909004277440936e-01  8.4454550690828734e-01  8.6326926922748992e-01  8.6760683525706717e-01  8.7035441909674360e-01  8.7814604187719136e-01  8.8243780651324022e-01  8.8818760386561724e-01  8.9306649847053343e-01  8.9617302398464704e-01  8.9836974178792506e-01  9.0260573006365363e-01  9.0071197703604766e-01  9.0128762836485488e-01  8.7684093953935782e-01  8.6017311849541656e-01  8.4463232532158228e-01  8.2737649286316206e-01  8.0500122589998069e-01  7.7838866406414231e-01  7.4039879712316181e-01  7.2938376974697228e-01  7.2741791671065381e-01  7.5013413212016766e-01  7.3896227339510911e-01  7.5161440913130251e-01  7.7416143760494305e-01  8.1312526032636312e-01  9.2707683920095763e-01  9.9224095735193485e-01  9.9956649828579514e-01  9.9957771063673528e-01  9.9986055923378048e-01  9.9986502893857132e-01  9.9986953785485022e-01  9.9987396094185954e-01  9.9987822012522221e-01  9.9988227654105211e-01  9.9988612223572715e-01  9.9988977344646568e-01  9.9989326565181380e-01  9.9968411371149868e-01  9.9916028138957669e-01  9.9836811690129346e-01  9.9772147344775297e-01  9.9698564255582511e-01  9.9647303879762261e-01  9.9483294437402692e-01  9.9397059550782718e-01  9.9378185493417615e-01  9.9167677760485839e-01  9.8894840081952484e-01  9.8867217637076321e-01  9.8870127101327721e-01  9.8903717529916735e-01  9.8989004469455377e-01  9.9067485174140080e-01  9.9142318690924791e-01  9.9212833719259519e-01  9.9285114287635956e-01  9.9366859482528136e-01  9.9414975483487111e-01  9.9451281508559874e-01  9.9472422869647859e-01  9.9474259901982520e-01  9.9478684955792096e-01  9.9442826199545942e-01  9.9388579562583645e-01  9.9319291357023654e-01  9.9248906015209437e-01  9.9147055582847599e-01  9.9033705485334700e-01  9.8925549301635052e-01  9.8879563261787007e-01  9.8768687724996063e-01  9.8827873985738446e-01  9.8845874872007511e-01  9.8871469256881483e-01  9.8944692764946440e-01  9.9164794336355455e-01  9.9253727993442464e-01  9.9515940403321745e-01  9.9601206841143275e-01  9.9674910739935285e-01  9.9879178565938254e-01  9.9910600014718620e-01  9.9928814768436047e-01  9.9938618540659130e-01  9.9948643373418611e-01  9.9950581596623467e-01  9.9986943268198958e-01  9.9980264196613677e-01  1.0000000000000000e+00  1.0000000000000000e+00  1.0000000000000000e+00  1.0000000000000000e+00  1.0000000000000000e+00  1.0000000000000000e+00  9.9998659490107800e-01  9.9745639324014845e-01  8.6968929181744337e-01  7.6789932788257687e-01  7.1920964067404125e-01  6.6981949624401704e-01  8.4500700631055692e-01  8.3980787978785432e-01  8.3992347689619495e-01  8.4390850935676287e-01  8.6905706257456250e-01  8.8168399539401687e-01  8.9876560427357632e-01  9.1103124049483486e-01  9.1844658448790939e-01  9.1884742284301391e-01  9.2150767124684929e-01  9.2495730507248397e-01  9.1754714983154362e-01  9.0779429767741360e-01  8.9435439449937604e-01  8.8475372928539286e-01  8.7958561475262476e-01  8.7367435907001501e-01  8.6507548926122069e-01  8.6697720469336104e-01  8.6386056836667402e-01  8.6245952444458229e-01  8.6293340052835599e-01  8.7191126533709151e-01  8.7307882207272725e-01  8.8819618501220998e-01  8.9136334361989911e-01  8.9822412326767431e-01  9.1587403793513356e-01  9.2667575505592570e-01  9.3108452261772634e-01  9.4192903541724982e-01  9.4152625605169937e-01  9.4068140950730839e-01  9.3498988952110151e-01  9.3406655674096750e-01  9.3229177197455682e-01  9.2868796529244879e-01  9.2463060360642690e-01  9.1988466430822646e-01  9.1482866308651922e-01  9.0391591661288806e-01  8.9790035226410214e-01  9.0435279647104927e-01  8.9931666981617431e-01  8.9164798110292243e-01  8.8706528246850580e-01  8.9196589599330833e-01  8.9318779730732634e-01  8.9060346392347067e-01  8.8988125597199508e-01  8.8923227751014022e-01  8.8152399345995458e-01  8.8202630109400637e-01  8.8603011012282640e-01  8.8977030452548633e-01  9.0316972227668590e-01  9.1965848815491946e-01  9.2890876033083525e-01  9.6396365985078147e-01  9.7905188949101851e-01  9.8470702558284573e-01  9.8307895580326921e-01  9.9504301197622080e-01  9.9972543938060132e-01  9.9988707106584640e-01  9.9990732011218941e-01  9.9999375393327483e-01  9.6490514919228720e-01  9.6199294841964700e-01  9.3512739901383302e-01  8.0434984880634464e-01  7.7732899579525117e-0