<?xml version="1.0"?>
<VTKFile type="UnstructuredGrid"  version="0.1"  >
<UnstructuredGrid>
<Piece  NumberOfPoints="28121" NumberOfCells="55200">
<Points>
<DataArray  type="Float64"  NumberOfComponents="3"  format="ascii">0 0 0  0.008260869565217391 0 0  0.01652173913043478 0 0  0.02478260869565217 0 0  0.03304347826086956 0 0  0.04130434782608695 0 0  0.04956521739130434 0 0  0.05782608695652174 0 0  0.06608695652173913 0 0  0.07434782608695652 0 0  0.08260869565217391 0 0  0.0908695652173913 0 0  0.09913043478260869 0 0  0.1073913043478261 0 0  0.1156521739130435 0 0  0.1239130434782609 0 0  0.1321739130434783 0 0  0.1404347826086956 0 0  0.148695652173913 0 0  0.1569565217391304 0 0  0.1652173913043478 0 0  0.1734782608695652 0 0  0.1817391304347826 0 0  0.19 0 0  0.1982608695652174 0 0  0.2065217391304348 0 0  0.2147826086956522 0 0  0.2230434782608696 0 0  0.2313043478260869 0 0  0.2395652173913043 0 0  0.2478260869565218 0 0  0.2560869565217391 0 0  0.2643478260869565 0 0  0.2726086956521739 0 0  0.2808695652173913 0 0  0.2891304347826087 0 0  0.2973913043478261 0 0  0.3056521739130434 0 0  0.3139130434782609 0 0  0.3221739130434783 0 0  0.3304347826086956 0 0  0.338695652173913 0 0  0.3469565217391304 0 0  0.3552173913043478 0 0  0.3634782608695652 0 0  0.3717391304347826 0 0  0.3799999999999999 0 0  0.3882608695652174 0 0  0.3965217391304348 0 0  0.4047826086956521 0 0  0.4130434782608696 0 0  0.4213043478260869 0 0  0.4295652173913043 0 0  0.4378260869565217 0 0  0.4460869565217391 0 0  0.4543478260869565 0 0  0.4626086956521739 0 0  0.4708695652173913 0 0  0.4791304347826086 0 0  0.4873913043478261 0 0  0.4956521739130435 0 0  0.5039130434782608 0 0  0.5121739130434783 0 0  0.5204347826086956 0 0  0.528695652173913 0 0  0.5369565217391304 0 0  0.5452173913043478 0 0  0.5534782608695652 0 0  0.5617391304347825 0 0  0.57 0 0  0.5782608695652174 0 0  0.5865217391304348 0 0  0.5947826086956521 0 0  0.6030434782608696 0 0  0.6113043478260869 0 0  0.6195652173913043 0 0  0.6278260869565218 0 0  0.6360869565217391 0 0  0.6443478260869565 0 0  0.6526086956521739 0 0  0.6608695652173913 0 0  0.6691304347826087 0 0  0.677391304347826 0 0  0.6856521739130435 0 0  0.6939130434782609 0 0  0.7021739130434783 0 0  0.7104347826086956 0 0  0.718695652173913 0 0  0.7269565217391304 0 0  0.7352173913043478 0 0  0.7434782608695653 0 0  0.7517391304347827 0 0  0.7599999999999999 0 0  0.7682608695652173 0 0  0.7765217391304348 0 0  0.7847826086956522 0 0  0.7930434782608695 0 0  0.8013043478260868 0 0  0.8095652173913043 0 0  0.8178260869565217 0 0  0.8260869565217391 0 0  0.8343478260869565 0 0  0.8426086956521739 0 0  0.8508695652173912 0 0  0.8591304347826086 0 0  0.8673913043478261 0 0  0.8756521739130434 0 0  0.8839130434782608 0 0  0.8921739130434783 0 0  0.9004347826086956 0 0  0.908695652173913 0 0  0.9169565217391303 0 0  0.9252173913043478 0 0  0.9334782608695652 0 0  0.9417391304347826 0 0  0.95 0 0  0.9582608695652173 0 0  0.9665217391304347 0 0  0.9747826086956521 0 0  0.9830434782608696 0 0  0.991304347826087 0 0  0.9995652173913042 0 0  1.007826086956522 0 0  1.016086956521739 0 0  1.024347826086957 0 0  1.032608695652174 0 0  1.040869565217391 0 0  1.049130434782609 0 0  1.057391304347826 0 0  1.065652173913043 0 0  1.073913043478261 0 0  1.082173913043478 0 0  1.090434782608696 0 0  1.098695652173913 0 0  1.10695652173913 0 0  1.115217391304348 0 0  1.123478260869565 0 0  1.131739130434783 0 0  1.14 0 0  1.148260869565217 0 0  1.156521739130435 0 0  1.164782608695652 0 0  1.17304347826087 0 0  1.181304347826087 0 0  1.189565217391304 0 0  1.197826086956522 0 0  1.206086956521739 0 0  1.214347826086956 0 0  1.222608695652174 0 0  1.230869565217391 0 0  1.239130434782609 0 0  1.247391304347826 0 0  1.255652173913044 0 0  1.263913043478261 0 0  1.272173913043478 0 0  1.280434782608696 0 0  1.288695652173913 0 0  1.296956521739131 0 0  1.305217391304348 0 0  1.313478260869565 0 0  1.321739130434783 0 0  1.33 0 0  1.338260869565217 0 0  1.346521739130435 0 0  1.354782608695652 0 0  1.36304347826087 0 0  1.371304347826087 0 0  1.379565217391304 0 0  1.387826086956522 0 0  1.396086956521739 0 0  1.404347826086957 0 0  1.412608695652174 0 0  1.420869565217391 0 0  1.429130434782609 0 0  1.437391304347826 0 0  1.445652173913043 0 0  1.453913043478261 0 0  1.462173913043478 0 0  1.470434782608696 0 0  1.478695652173913 0 0  1.486956521739131 0 0  1.495217391304348 0 0  1.503478260869565 0 0  1.511739130434782 0 0  1.52 0 0  1.528260869565217 0 0  1.536521739130435 0 0  1.544782608695652 0 0  1.55304347826087 0 0  1.561304347826087 0 0  1.569565217391304 0 0  1.577826086956522 0 0  1.586086956521739 0 0  1.594347826086957 0 0  1.602608695652174 0 0  1.610869565217391 0 0  1.619130434782609 0 0  1.627391304347826 0 0  1.635652173913043 0 0  1.643913043478261 0 0  1.652173913043478 0 0  1.660434782608696 0 0  1.668695652173913 0 0  1.67695652173913 0 0  1.685217391304348 0 0  1.693478260869565 0 0  1.701739130434782 0 0  1.71 0 0  1.718260869565217 0 0  1.726521739130435 0 0  1.734782608695652 0 0  1.743043478260869 0 0  1.751304347826087 0 0  1.759565217391304 0 0  1.767826086956522 0 0  1.776086956521739 0 0  1.784347826086957 0 0  1.792608695652174 0 0  1.800869565217391 0 0  1.809130434782608 0 0  1.817391304347826 0 0  1.825652173913043 0 0  1.833913043478261 0 0  1.842173913043478 0 0  1.850434782608696 0 0  1.858695652173913 0 0  1.86695652173913 0 0  1.875217391304348 0 0  1.883478260869565 0 0  1.891739130434782 0 0  1.9 0 0  1.908260869565217 0 0  1.916521739130435 0 0  1.924782608695652 0 0  1.933043478260869 0 0  1.941304347826087 0 0  1.949565217391304 0 0  1.957826086956522 0 0  1.966086956521739 0 0  1.974347826086956 0 0  1.982608695652174 0 0  1.990869565217391 0 0  1.999130434782608 0 0  2.007391304347826 0 0  2.015652173913043 0 0  2.023913043478261 0 0  2.032173913043478 0 0  2.040434782608695 0 0  2.048695652173913 0 0  2.05695652173913 0 0  2.065217391304348 0 0  2.073478260869565 0 0  2.081739130434782 0 0  2.09 0 0  2.098260869565217 0 0  2.106521739130435 0 0  2.114782608695652 0 0  2.12304347826087 0 0  2.131304347826087 0 0  2.139565217391304 0 0  2.147826086956522 0 0  2.156086956521739 0 0  2.164347826086956 0 0  2.172608695652174 0 0  2.180869565217391 0 0  2.189130434782609 0 0  2.197391304347826 0 0  2.205652173913043 0 0  2.213913043478261 0 0  2.222173913043478 0 0  2.230434782608695 0 0  2.238695652173913 0 0  2.24695652173913 0 0  2.255217391304348 0 0  2.263478260869565 0 0  2.271739130434783 0 0  2.28 0 0  2.288260869565217 0 0  2.296521739130434 0 0  2.304782608695652 0 0  2.31304347826087 0 0  2.321304347826087 0 0  2.329565217391304 0 0  2.337826086956521 0 0  2.346086956521739 0 0  2.354347826086956 0 0  2.362608695652174 0 0  2.370869565217391 0 0  2.379130434782609 0 0  2.387391304347826 0 0  2.395652173913044 0 0  2.403913043478261 0 0  2.412173913043478 0 0  2.420434782608695 0 0  2.428695652173913 0 0  2.43695652173913 0 0  2.445217391304348 0 0  2.453478260869565 0 0  2.461739130434782 0 0  2.47 0 0  2.478260869565217 0 0  2.486521739130435 0 0  2.494782608695652 0 0  2.503043478260869 0 0  2.511304347826087 0 0  2.519565217391305 0 0  2.527826086956522 0 0  2.536086956521739 0 0  2.544347826086956 0 0  2.552608695652174 0 0  2.560869565217391 0 0  2.569130434782608 0 0  2.577391304347826 0 0  2.585652173913043 0 0  2.593913043478261 0 0  2.602173913043478 0 0  2.610434782608696 0 0  2.618695652173913 0 0  2.62695652173913 0 0  2.635217391304348 0 0  2.643478260869565 0 0  2.651739130434783 0 0  2.66 0 0  2.668260869565217 0 0  2.676521739130435 0 0  2.684782608695652 0 0  2.693043478260869 0 0  2.701304347826087 0 0  2.709565217391304 0 0  2.717826086956522 0 0  2.726086956521739 0 0  2.734347826086956 0 0  2.742608695652174 0 0  2.750869565217391 0 0  2.759130434782609 0 0  2.767391304347826 0 0  2.775652173913044 0 0  2.783913043478261 0 0  2.792173913043478 0 0  2.800434782608696 0 0  2.808695652173913 0 0  2.81695652173913 0 0  2.825217391304347 0 0  2.833478260869565 0 0  2.841739130434783 0 0  2.85 0 0  2.858260869565217 0 0  2.866521739130435 0 0  2.874782608695652 0 0  2.88304347826087 0 0  2.891304347826087 0 0  2.899565217391304 0 0  2.907826086956522 0 0  2.916086956521739 0 0  2.924347826086957 0 0  2.932608695652174 0 0  2.940869565217391 0 0  2.949130434782608 0 0  2.957391304347826 0 0  2.965652173913043 0 0  2.973913043478261 0 0  2.982173913043478 0 0  2.990434782608696 0 0  2.998695652173913 0 0  3.006956521739131 0 0  3.015217391304348 0 0  3.023478260869565 0 0  3.031739130434782 0 0  3.04 0 0  3.048260869565218 0 0  3.056521739130435 0 0  3.064782608695652 0 0  3.073043478260869 0 0  3.081304347826087 0 0  3.089565217391304 0 0  3.097826086956522 0 0  3.106086956521739 0 0  3.114347826086956 0 0  3.122608695652174 0 0  3.130869565217391 0 0  3.139130434782609 0 0  3.147391304347826 0 0  3.155652173913043 0 0  3.163913043478261 0 0  3.172173913043478 0 0  3.180434782608696 0 0  3.188695652173913 0 0  3.19695652173913 0 0  3.205217391304347 0 0  3.213478260869565 0 0  3.221739130434782 0 0  3.23 0 0  3.238260869565217 0 0  3.246521739130435 0 0  3.254782608695652 0 0  3.26304347826087 0 0  3.271304347826087 0 0  3.279565217391304 0 0  3.287826086956521 0 0  3.296086956521739 0 0  3.304347826086957 0 0  3.312608695652174 0 0  3.320869565217391 0 0  3.329130434782608 0 0  3.337391304347826 0 0  3.345652173913043 0 0  3.353913043478261 0 0  3.362173913043478 0 0  3.370434782608696 0 0  3.378695652173913 0 0  3.386956521739131 0 0  3.395217391304348 0 0  3.403478260869565 0 0  3.411739130434782 0 0  3.419999999999999 0 0  3.428260869565217 0 0  3.436521739130435 0 0  3.444782608695652 0 0  3.453043478260869 0 0  3.461304347826087 0 0  3.469565217391304 0 0  3.477826086956522 0 0  3.486086956521739 0 0  3.494347826086956 0 0  3.502608695652174 0 0  3.510869565217391 0 0  3.519130434782609 0 0  3.527391304347826 0 0  3.535652173913043 0 0  3.54391304347826
[...]
<PointData  Scalars="rho_bar"> 
<DataArray  type="Float64"  Name="rho_bar"  format="ascii">6.9267403154862328e-01  6.9242877413889492e-01  6.9235699327247135e-01  6.9236252224440786e-01  6.9241504875199156e-01  6.9250043800300343e-01  6.9261015644150548e-01  6.9273661991964852e-01  6.9287352790622225e-01  6.9301474528577922e-01  6.9315484780749315e-01  6.9328862004478087e-01  6.9341149442942318e-01  6.9351916860011897e-01  6.9360803825391570e-01  6.9367476693220631e-01  6.9371679969854161e-01  6.9373181192117128e-01  6.9371835201502763e-01  6.9367521520110131e-01  6.9360210081154394e-01  6.9349902827109955e-01  6.9336695374031199e-01  6.9320705786881542e-01  6.9302142604513728e-01  6.9281228339280865e-01  6.9258264551858795e-01  6.9233545474835689e-01  6.9207417283809769e-01  6.9180199078080318e-01  6.9152230463057618e-01  6.9123788219200633e-01  6.9095146203523872e-01  6.9066499374091184e-01  6.9038030027369413e-01  6.9009833376266727e-01  6.8981991224824835e-01  6.8954514328263783e-01  6.8927405796316799e-01  6.8900599194782364e-01  6.8874028676002641e-01  6.8847569946234854e-01  6.8821106625268624e-01  6.8794464241746034e-01  6.8767479688585786e-01  6.8739947438554294e-01  6.8711677363273871e-01  6.8682434292142402e-01  6.8652005809813044e-01  6.8620140739604873e-01  6.8586617639839265e-01  6.8551176018321691e-01  6.8513590584367023e-01  6.8473614679347028e-01  6.8431043985192297e-01  6.8385658118914983e-01  6.8337291512617448e-01  6.8285779135136337e-01  6.8231026965581187e-01  6.8172951470622467e-01  6.8111554230919280e-01  6.8046870454197139e-01  6.7979028003180608e-01  6.7908182015791263e-01  6.7834570137807904e-01  6.7758435376592219e-01  6.7680067419374412e-01  6.7599718331823977e-01  6.7517643710920705e-01  6.7434034957287303e-01  6.7349066154639037e-01  6.7262831806580714e-01  6.7175411678901054e-01  6.7086817928682740e-01  6.6997065796105315e-01  6.6906112280173768e-01  6.6813937166207593e-01  6.6720489552183204e-01  6.6625758874129637e-01  6.6529716668315686e-01  6.6432390699806942e-01  6.6333804045130695e-01  6.6234043874098980e-01  6.6133197249503517e-01  6.6031409985096357e-01  6.5928826147518504e-01  6.5825633306608189e-01  6.5721990670025054e-01  6.5618078152955384e-01  6.5514026211219589e-01  6.5409970125141881e-01  6.5305974557339108e-01  6.5202103444805337e-01  6.5098358529267919e-01  6.4994744362981616e-01  6.4891208328750904e-01  6.4787712147673016e-01  6.4684174491199919e-01  6.4580542250323647e-01  6.4476735964924214e-01  6.4372718880237134e-01  6.4268453139589565e-01  6.4163962486955806e-01  6.4059280688892117e-01  6.3954514645724581e-01  6.3849784601902948e-01  6.3745275964962766e-01  6.3641155969955654e-01  6.3537626483565057e-01  6.3434847186226351e-01  6.3332986210922892e-01  6.3232150991187830e-01  6.3132451573807258e-01  6.3033937876158286e-01  6.2936665816143167e-01  6.2840637862625826e-01  6.2745864881509905e-01  6.2652314950059729e-01  6.2559968776091113e-01  6.2468763467058008e-01  6.2378652735198981e-01  6.2289550101190860e-01  6.2201392314830883e-01  6.2114073789643121e-01  6.2027518298014273e-01  6.1941620489541027e-01  6.1856309601571169e-01  6.1771488704335997e-01  6.1687097751907860e-01  6.1603045079712115e-01  6.1519269398527532e-01  6.1435675576866233e-01  6.1352192627505708e-01  6.1268721165250695e-01  6.1185191974093456e-01  6.1101514925906497e-01  6.1017643550895717e-01  6.0933520957048781e-01  6.0849150198312185e-01  6.0764535037363920e-01  6.0679748379428000e-01  6.0594873377317182e-01  6.0510058593949390e-01  6.0425447539450272e-01  6.0341228778213274e-01  6.0257551403046516e-01  6.0174584359532668e-01  6.0092435596110239e-01  6.0011217453261811e-01  5.9930985207984278e-01  5.9851800936761046e-01  5.9773670615855257e-01  5.9696616031864014e-01  5.9620610282104869e-01  5.9545648323962364e-01  5.9471673298363092e-01  5.9398645768498226e-01  5.9326482689302795e-01  5.9255111679912120e-01  5.9184406525496980e-01  5.9114251563615816e-01  5.9044484861797708e-01  5.8974963170628847e-01  5.8905496081031938e-01  5.8835922587607803e-01  5.8766063037479954e-01  5.8695778832079260e-01  5.8624919241122220e-01  5.8553389116579624e-01  5.8481097900994072e-01  5.8408021075443228e-01  5.8334141771823822e-01  5.8259510183382734e-01  5.8184189339260262e-01  5.8108293356236240e-01  5.8031914548409413e-01  5.7955164696302264e-01  5.7878107053890870e-01  5.7800805094885177e-01  5.7723253955848786e-01  5.7645450147380772e-01  5.7567340163363323e-01  5.7488884540985885e-01  5.7410006438824646e-01  5.7330664527992692e-01  5.7250805055568577e-01  5.7170435386631557e-01  5.7089578961557297e-01  5.7008348398835396e-01  5.6926911098439836e-01  5.6845550934132394e-01  5.6764614901461752e-01  5.6684556490575866e-01  5.6605848276352033e-01  5.6528982650888049e-01  5.6454335559581370e-01  5.6382166094112285e-01  5.6312525165909522e-01  5.6245311937208819e-01  5.6180240571599072e-01  5.6116939545075739e-01  5.6054931425552390e-01  5.5993721263773488e-01  5.5932759564073864e-01  5.5871513882556023e-01  5.5809436329884388e-01  5.5746031202272228e-01  5.5680817307883135e-01  5.5613396706985097e-01  5.5543413750089565e-01  5.5470623263322738e-01  5.5394828643463179e-01  5.5315925449715575e-01  5.5233815566580002e-01  5.5148446301483689e-01  5.5059750472668745e-01  5.4967714536891221e-01  5.4872333075807955e-01  5.4773680695438087e-01  5.4671865217230242e-01  5.4567086367340112e-01  5.4459583341053952e-01  5.4349677954489017e-01  5.4237716861503316e-01  5.4124125935174294e-01  5.4009364628240586e-01  5.3893995626221325e-01  5.3778640304143721e-01  5.3664019228791582e-01  5.3550711001314710e-01  5.3439164368827308e-01  5.3329638590103445e-01  5.3222273103762008e-01  5.3117196660007326e-01  5.3014604484415462e-01  5.2914663670780371e-01  5.2817538058472158e-01  5.2723320257384187e-01  5.2632056391824666e-01  5.2543663803399154e-01  5.2457960104763490e-01  5.2374650270460765e-01  5.2293449776218581e-01  5.2214037263284174e-01  5.2136095864406617e-01  5.2059247134293629e-01  5.1983108010722390e-01  5.1907279275110274e-01  5.1831447196614633e-01  5.1755333513579893e-01  5.1678736763048061e-01  5.1601449624662654e-01  5.1523294654707563e-01  5.1444063454128874e-01  5.1363573400941687e-01  5.1281626371754618e-01  5.1198067424599936e-01  5.1112727735640218e-01  5.1025474843047702e-01  5.0936148673479431e-01  5.0844619780189082e-01  5.0750744465197883e-01  5.0654428366679538e-01  5.0555576997304963e-01  5.0454148803753118e-01  5.0350087128883303e-01  5.0243365370599935e-01  5.0133917325594857e-01  5.0021686932537268e-01  4.9906575466302661e-01  4.9788485359808893e-01  4.9667268201091452e-01  4.9542778024888551e-01  4.9414825064431400e-01  4.9283235899607414e-01  4.9147809780161350e-01  4.9008380771435639e-01  4.8864770217595865e-01  4.8716827825065889e-01  4.8564387103688428e-01  4.8407333398358737e-01  4.8245579187490356e-01  4.8079124572395671e-01  4.7907980809148293e-01  4.7732200575992623e-01  4.7551843966896218e-01  4.7367065919171658e-01  4.7178119541347774e-01  4.6985451955105551e-01  4.6789620133648380e-01  4.6591241804445110e-01  4.6390954610379020e-01  4.6189562825989827e-01  4.5988058933204817e-01  4.5787732143075666e-01  4.5590014334837220e-01  4.5396095373894430e-01  4.5206589368531563e-01  4.5021678747363419e-01  4.4841239389401133e-01  4.4665002718151686e-01  4.4492574557182951e-01  4.4323518914780952e-01  4.4157336337269004e-01  4.3993529421349065e-01  4.3831568082433736e-01  4.3670939974556300e-01  4.3511103396783968e-01  4.3351525480582387e-01  4.3191647013197754e-01  4.3030953628623508e-01  4.2868978678883551e-01  4.2705354908060605e-01  4.2539759385138065e-01  4.2371940062074748e-01  4.2201670209409331e-01  4.2028816755037163e-01  4.1853312278827298e-01  4.1675180240101911e-01  4.1494473312806357e-01  4.1311356343278294e-01  4.1126117400325701e-01  4.0939174589969762e-01  4.0750978900786966e-01  4.0562151493567178e-01  4.0373411553520377e-01  4.0185357756355861e-01  3.9998255926653664e-01  3.9812135157443523e-01  3.9626854416266238e-01  3.9442206033825850e-01  3.9257910461683510e-01  3.9073686835888505e-01  3.8889232856364142e-01  3.8704274354641321e-01  3.8518530600387851e-01  3.8331757494507113e-01  3.8143706518834597e-01  3.7954154993474509e-01  3.7762830059479741e-01  3.7569416181665427e-01  3.7373647219940936e-01  3.7175452752892801e-01  3.6974933208255673e-01  3.6772475881929079e-01  3.6568774646556546e-01  3.6364666468390350e-01  3.6160779820279448e-01  3.5957402635596220e-01  3.5754521574766468e-01  3.5551975826403359e-01  3.5349495772904849e-01  3.5146781338364524e-01  3.4943486957340464e-01  3.4739276519808676e-01  3.4533791925878160e-01  3.4326700184323655e-01  3.4117665902184596e-01  3.3906387763320794e-01  3.3692562019269012e-01  3.3475920143647414e-01  3.3256190962499715e-01  3.3033136208388958e-01  3.2806508663979261e-01  3.2576089820051424e-01  3.2341658719342264e-01  3.2103019317296511e-01  3.1859966145887203e-01  3.1612315648809153e-01  3.1359875225322925e-01  3.1102470270660570e-01  3.0839915566566228e-01  3.0572085117442505e-01  3.0298937481702076e-01  3.0020542485421348e-01  2.9737041677884590e-01  2.9448673683626458e-01  2.9155737820137728e-01  2.8858514710224203e-01  2.8557051293537894e-01  2.8251185075703233e-01  2.7940578116351561e-01  2.7624778523508814e-01  2.7303222948067929e-01  2.6975280465961199e-01  2.6640249339287247e-01  2.6297389625053819e-01  2.5945898432315989e-01  2.5584939426908526e-01  2.5213622522708790e-01  2.4831025316278332e-01  2.4436169334521457e-01  2.4028047224893082e-01  2.3605595256578882e-01  2.3167641460341162e-01  2.2712743435713054e-01  2.2239306976576922e-01  2.1745950285465335e-01  2.1231751880096836e-01  2.0696442985145516e-01  2.0140757353674130e-01  1.9566949022777594e-01  1.8979337274027752e-01  1.8384041210324126e-01  1.7787100359375035e-01  1.7192985680938086e-01  1.6604365527384377e-01  1.6022215603772966e-01  1.5446589101955993e-01  1.4878001189767803e-01  1.4317699155591282e-01  1.3767271651398688e-01  1.3227997058773588e-01  1.2700735100194394e-01  1.2186035544849369e-01  1.1684219960770793e-01  1.1195452890946304e-01  1.0719785685831452e-01  1.0257194197801160e-01  9.8075977861191987e-02  9.3708865078334549e-02  8.9469332242946842e-02  8.5356085376133387e-02  8.1367837523358369e-02  7.7503427107239425e-02  7.3761815987810606e-02  7.0142136564619012e-02  6.6643625078091087e-02  6.3265662551667948e-02  6.0007718920603081e-02  5.6869342140036035e-02  5.3850087990721732e-02  5.0949522282855271e-02  4.8167170109997770e-02  4.5502510264566906e-02  4.2954905784230800e-02  4.0523633695419697e-02  3.8207850038366763e-02  3.6006595216536236e-02  3.3918777014539263e-02  3.1943186443650150e-02  3.0078499792253934e-02  2.8323295315539863e-02  2.6676047772567869e-02  2.5135164223055301e-02  2.3698992423782341e-02  2.2365843867160316e-02  2.1134014687812133e-02  2.0001806277372969e-02  1.8967546315392748e-02  1.8029612862418304e-02  1.7186451786178347e-02  1.6436602385609924e-02  1.5778717818358889e-02  1.5211589860954562e-02  1.4734171110042668e-02  1.4345626877099050e-02  1.4045396008390790e-02  1.3833420106102836e-02  1.3710840854941961e-02  1.3682837788310084e-02  6.9080778924466113e-01  6.9075390998324049e-01  6.9073070095940048e-01  6.9075182774839605e-01  6.9081096460795521e-01  6.9090075468408774e-01  6.9101363446594888e-01  6.9114313076620815e-01  6.9128265539972056e-01  6.9142642813045063e-01  6.9156879357155454e-01  6.9170473858492587e-01  6.9182949222211876e-01  6.9193894132193789e-01  6.9202924976333891e-01  6.9209732315870975e-01  6.9214031742856863e-01  6.9215620193336169e-01  6.9214319015252590e-01  6.9210038977453070e-01  6.9202720497347903e-01  6.9192394599987761e-01  6.9179124804266312e-01  6.9163065968610615e-01  6.9144393373542612e-01  6.9123368141754271e-01  6.9100258605322007e-01  6.9075399799492854e-01  6.9049112063781204e-01  6.9021750829434492e-01  6.8993627753355180e-01  6.8965058621890829e-01  6.8936285671373054e-01  6.8907540635789044e-01  6.8878968971799082e-01  6.8850700537003973e-01  6.8822785808270848e-01  6.8795263098464254e-01  6.8768102711382695e-01  6.8741269586980425e-01  6.8714665377714346e-01  6.8688196497818532e-01  6.8661711576481876e-01  6.8635067660809390e-01  6.8608072416136512e-01  6.8580546429473688e-01  6.8552268172807962e-01  6.8523033453241122e-01  6.8492596632136005e-01  6.8460738913379893e-01  6.8427201497800350e-01  6.8391757065267600e-01  6.8354148512804147e-01  6.8314156072646459e-01  6.8271542526206663e-01  6.8226116942210679e-01  6.8177680378385974e-01  6.8126096651692369e-01  6.8071234880363751e-01  6.8013041480740866e-01  6.7951486958310192e-01  6.7886632743683317e-01  6.7818576868284752e-01  6.7747508664493516e-01  6.7673639980144096e-01  6.7597251201879582e-01  6.7518608091442900e-01  6.7437999082260303e-01  6.7355657793106538e-01  6.7271804090896647e-01  6.7186583553038748e-01  6.7100119970129546e-01  6.7012461078083740e-01  6.6923647641551054e-01  6.6833656896935867e-01  6.6742477636718034e-01  6.6650055348064852e-01  6.6556366550907364e-01  6.6461366139944589e-01  6.6365056985939963e-01  6.6267432574745122e-01  6.6168547708896197e-01  6.6068457255915392e-01  6.5967279935894108e-01  6.5865137070251623e-01  6.5762202489475063e-01  6.5658639554090004e-01  6.5554642474225600e-01  6.5450365665381782e-01  6.5345974390506056e-01  6.5241571033909374e-01  6.5137256081271022e-01  6.5033062244424522e-01  6.4929020521329706e-01  6.4825102896914644e-01  6.4721287859007859e-01  6.4617503710990609e-01  6.4513698779947093e-01  6.4409786311552675e-01  6.4305714030327499e-01  6.4201415964298736e-01  6.4096876893282118e-01  6.3992089988213419e-01  6.3887116896958063e-01  6.3782035724860853e-01  6.3676999599509898e-01  6.3572164205283288e-01  6.3467735889182730e-01  6.3363890163954806e-01  6.3260819109593369e-01  6.3158661172988184e-01  6.3057555964705059e-01  6.2957581289105402e-01  6.2858817674984258e-01  6.2761289176405888e-01  6.2665027172757559e-01  6.2570015883440855e-01  6.2476248710481985e-01  6.2383678754355110e-01  6.2292272289380124e-01  6.2201953752529049e-01  6.2112667176779379e-01  6.2024314968896876e-01  6.1936824304584370e-01  6.1850087194340708e-01  6.1764026371039982e-01  6.1678539871210536e-01  6.1593562459898699e-01  6.1509002381234901e-01  6.1424800955541958e-01  6.1340866429945695e-01  6.1257132880190590e-01  6.1173501948390363e-01  6.1089898623531680e-01  6.1006224700341838e-01  6.0922417103873749e-01  6.0838397056644444e-01  6.0754136790220614e-01  6.0669604578603487e-01  6.0584834446034697e-01  6.0499869621009228e-01  6.0414822275628399e-01  6.0329814038878005e-01  6.0245024757961252e-01  6.0160613900912729e-01  6.0076770122177026e-01  5.9993628889202932e-01  5.9911333538837597e-01  5.9829966138101531e-01  5.9749610263559683e-01  5.9670295033671372e-01  5.9592058954639826e-01  5.9514889770449808e-01  5.9438794879734003e-01  5.9363733090541015e-01  5.9289682890524698e-01  5.9216576879111071e-01  5.9144360734885171e-01  5.9072932570262138e-01  5.9002197571561932e-01  5.8932009922949768e-01  5.8862238272328327e-01  5.8792702765270144e-01  5.8723244926114582e-01  5.8653673752256996e-01  5.8583833370710270e-01  5.8513553880371350e-01  5.8442712009099507e-01  5.8371181764116631e-01  5.8298899016812522e-01  5.8225806715606498e-01  5.8151915874057969e-01  5.8077252289485781e-01  5.8001905270435472e-01  5.7925966077867919e-01  5.7849560612647088e-01  5.7772777509264173e-01  5.7695711678422057e-01  5.7618394984713039e-01  5.7540855210138375e-01  5.7463059627386415e-01  5.7384981293676041e-01  5.7306550210794927e-01  5.7227718941056327e-01  5.7148414623382016e-01  5.7068610944658782e-01  5.6988282218193576e-01  5.6907476218640629e-01  5.6826276067020576e-01  5.6744868311262797e-01  5.6663507153602377e-01  5.6582568065997818e-01  5.6502483403004133e-01  5.6423767061767971e-01  5.6346898183781313e-01  5.6272301723467610e-01  5.6200216741998099e-01  5.6130719263324425e-01  5.6063670843832358e-01  5.5998804584233774e-01  5.5935710770734703e-01  5.5873935464191171e-01  5.5812952976475549e-01  5.5752240924904140e-01  5.5691241569270566e-01  5.5629428276731885e-01  5.5566276362544120e-01  5.5501329249748910e-01  5.5434158782714771e-01  5.5364432560927557e-01  5.5291871068162135e-01  5.5216311719712252e-01  5.5137628292385954e-01  5.5055752914281098e-01  5.4970604257253497e-01  5.4882142960618407e-01  5.4790324524142353e-01  5.4695170440282581e-01  5.4596725266966428e-01  5.4495124392463801e-01  5.4390545454846717e-01  5.4283254015326388e-01  5.4173549808042676e-01  5.4061810794269782e-01  5.3948442518122308e-01  5.3833939045967438e-01  5.3718835155930533e-01  5.3603766919843521e-01  5.3489388264036453e-01  5.3376296761915876e-01  5.3264912435229095e-01  5.3155538150001136e-01  5.3048319844283087e-01  5.2943413116294402e-01  5.2840978382286008e-01  5.2741202769013029e-01  5.2644222234607663e-01  5.2550149614662400e-01  5.2459008155316167e-01  5.2370748726485838e-01  5.2285167963906498e-01  5.2201992709566492e-01  5.2120912214400161e-01  5.2041639694029773e-01  5.1963839133641321e-01  5.1887160329590365e-01  5.1811190345278690e-01  5.1735549474125087e-01  5.1659895298156178e-01  5.1583982621080449e-01  5.1507585683329904e-01  5.1430529273939529e-01  5.1352612308654089e-01  5.1273648453095744e-01  5.1193425693822869e-01  5.1111771134098727e-01  5.1028503719939167e-01  5.0943484260351224e-01  5.0856552646104758e-01  5.0767578494500787e-01  5.0676406942385932e-01  5.0582918552002787e-01  5.0486990322005743e-01  5.0388555358293174e-01  5.0287543913322308e-01  5.0183928415032142e-01  5.0077653638165875e-01  4.9968682436808470e-01  4.9856935623095266e-01  4.9742337460072078e-01  4.9624765795875775e-01  4.9504098092243043e-01  4.9380162861030208e-01  4.9252794643092368e-01  4.9121790019953532e-01  4.8986973693610930e-01  4.8848159232782951e-01  4.8705194525027756e-01  4.8557908237213732e-01  4.8406159658548309e-01  4.8249809251161224e-01  4.8088795170215803e-01  4.7923098378130347e-01  4.7752770260348082e-01  4.7577845620407783e-01  4.7398408573743522e-01  4.7214589912455740e-01  4.7026662175898004e-01  4.6835048270128654e-01  4.6640350997143210e-01  4.6443179799011264e-01  4.6244190931410945e-01  4.6044169791370504e-01  4.5844130757077040e-01  4.5645268072847583e-01  4.5448974776087003e-01  4.5256355981390617e-01  4.5068051007906856e-01  4.4884235376833315e-01  4.4704828604508512e-01  4.4529555609497307e-01  4.4358057084723101e-01  4.4189884776179700e-01  4.4024571403586832e-01  4.3861603531736471e-01  4.3700479786189439e-01  4.3540671406346898e-01  4.3381665030044508e-01  4.3222916331317607e-01  4.3063888020188629e-01  4.2904044444815453e-01  4.2742943301111708e-01  4.2580205513633929e-01  4.2415538506286310e-01  4.2248670540433769e-01  4.2079397912738886e-01  4.1907565498865623e-01  4.1733133601208761e-01  4.1556116398082310e-01  4.1376590491180393e-01  4.1194689194421336e-01  4.1010721680615758e-01  4.0825105627331415e-01  4.0638307926376355e-01  4.0450884233373979e-01  4.0263534334569556e-01  4.0076802728477628e-01  3.9890976766920783e-01  3.9706078422397234e-01  3.9521997236198458e-01  3.9338512805609388e-01  3.9155373857320375e-01  3.8972285031752235e-01  3.8788966401462904e-01  3.8605127793994509e-01  3.8420510851043149e-01  3.8234850748266647e-01  3.8047917696472344e-01  3.7859471321433946e-01  3.7669273025689270e-01  3.7477029541039869e-01  3.7282508218872051e-01  3.7085632685734166e-01  3.6886516286385129e-01  3.6685507356798575e-01  3.6483282754172519e-01  3.6280626896055718e-01  3.6078146937088407e-01  3.5876109635013081e-01  3.5674523421312165e-01  3.5473217990180389e-01  3.5271950260190649e-01  3.5070408711323925e-01  3.4868274710562819e-01  3.4665197546446358e-01  3.4460843264691693e-01  3.4254866423901187e-01  3.4046951603563808e-01  3.3836783753874744e-01  3.3624081752257484e-01  3.3408562702268935e-01  3.3189977923379999e-01  3.2968072621367928e-01  3.2742621523462823e-01  3.2513394100980214e-01  3.2280186686724749e-01  3.2042790775708413e-01  3.1801019799185243e-01  3.15546787627