<?xml version="1.0"?>
<VTKFile type="UnstructuredGrid"  version="0.1"  >
<UnstructuredGrid>
<Piece  NumberOfPoints="28121" NumberOfCells="55200">
<Points>
<DataArray  type="Float64"  NumberOfComponents="3"  format="ascii">0 0 0  0.008260869565217391 0 0  0.01652173913043478 0 0  0.02478260869565217 0 0  0.03304347826086956 0 0  0.04130434782608695 0 0  0.04956521739130434 0 0  0.05782608695652174 0 0  0.06608695652173913 0 0  0.07434782608695652 0 0  0.08260869565217391 0 0  0.0908695652173913 0 0  0.09913043478260869 0 0  0.1073913043478261 0 0  0.1156521739130435 0 0  0.1239130434782609 0 0  0.1321739130434783 0 0  0.1404347826086956 0 0  0.148695652173913 0 0  0.1569565217391304 0 0  0.1652173913043478 0 0  0.1734782608695652 0 0  0.1817391304347826 0 0  0.19 0 0  0.1982608695652174 0 0  0.2065217391304348 0 0  0.2147826086956522 0 0  0.2230434782608696 0 0  0.2313043478260869 0 0  0.2395652173913043 0 0  0.2478260869565218 0 0  0.2560869565217391 0 0  0.2643478260869565 0 0  0.2726086956521739 0 0  0.2808695652173913 0 0  0.2891304347826087 0 0  0.2973913043478261 0 0  0.3056521739130434 0 0  0.3139130434782609 0 0  0.3221739130434783 0 0  0.3304347826086956 0 0  0.338695652173913 0 0  0.3469565217391304 0 0  0.3552173913043478 0 0  0.3634782608695652 0 0  0.3717391304347826 0 0  0.3799999999999999 0 0  0.3882608695652174 0 0  0.3965217391304348 0 0  0.4047826086956521 0 0  0.4130434782608696 0 0  0.4213043478260869 0 0  0.4295652173913043 0 0  0.4378260869565217 0 0  0.4460869565217391 0 0  0.4543478260869565 0 0  0.4626086956521739 0 0  0.4708695652173913 0 0  0.4791304347826086 0 0  0.4873913043478261 0 0  0.4956521739130435 0 0  0.5039130434782608 0 0  0.5121739130434783 0 0  0.5204347826086956 0 0  0.528695652173913 0 0  0.5369565217391304 0 0  0.5452173913043478 0 0  0.5534782608695652 0 0  0.5617391304347825 0 0  0.57 0 0  0.5782608695652174 0 0  0.5865217391304348 0 0  0.5947826086956521 0 0  0.6030434782608696 0 0  0.6113043478260869 0 0  0.6195652173913043 0 0  0.6278260869565218 0 0  0.6360869565217391 0 0  0.6443478260869565 0 0  0.6526086956521739 0 0  0.6608695652173913 0 0  0.6691304347826087 0 0  0.677391304347826 0 0  0.6856521739130435 0 0  0.6939130434782609 0 0  0.7021739130434783 0 0  0.7104347826086956 0 0  0.718695652173913 0 0  0.7269565217391304 0 0  0.7352173913043478 0 0  0.7434782608695653 0 0  0.7517391304347827 0 0  0.7599999999999999 0 0  0.7682608695652173 0 0  0.7765217391304348 0 0  0.7847826086956522 0 0  0.7930434782608695 0 0  0.8013043478260868 0 0  0.8095652173913043 0 0  0.8178260869565217 0 0  0.8260869565217391 0 0  0.8343478260869565 0 0  0.8426086956521739 0 0  0.8508695652173912 0 0  0.8591304347826086 0 0  0.8673913043478261 0 0  0.8756521739130434 0 0  0.8839130434782608 0 0  0.8921739130434783 0 0  0.9004347826086956 0 0  0.908695652173913 0 0  0.9169565217391303 0 0  0.9252173913043478 0 0  0.9334782608695652 0 0  0.9417391304347826 0 0  0.95 0 0  0.9582608695652173 0 0  0.9665217391304347 0 0  0.9747826086956521 0 0  0.9830434782608696 0 0  0.991304347826087 0 0  0.9995652173913042 0 0  1.007826086956522 0 0  1.016086956521739 0 0  1.024347826086957 0 0  1.032608695652174 0 0  1.040869565217391 0 0  1.049130434782609 0 0  1.057391304347826 0 0  1.065652173913043 0 0  1.073913043478261 0 0  1.082173913043478 0 0  1.090434782608696 0 0  1.098695652173913 0 0  1.10695652173913 0 0  1.115217391304348 0 0  1.123478260869565 0 0  1.131739130434783 0 0  1.14 0 0  1.148260869565217 0 0  1.156521739130435 0 0  1.164782608695652 0 0  1.17304347826087 0 0  1.181304347826087 0 0  1.189565217391304 0 0  1.197826086956522 0 0  1.206086956521739 0 0  1.214347826086956 0 0  1.222608695652174 0 0  1.230869565217391 0 0  1.239130434782609 0 0  1.247391304347826 0 0  1.255652173913044 0 0  1.263913043478261 0 0  1.272173913043478 0 0  1.280434782608696 0 0  1.288695652173913 0 0  1.296956521739131 0 0  1.305217391304348 0 0  1.313478260869565 0 0  1.321739130434783 0 0  1.33 0 0  1.338260869565217 0 0  1.346521739130435 0 0  1.354782608695652 0 0  1.36304347826087 0 0  1.371304347826087 0 0  1.379565217391304 0 0  1.387826086956522 0 0  1.396086956521739 0 0  1.404347826086957 0 0  1.412608695652174 0 0  1.420869565217391 0 0  1.429130434782609 0 0  1.437391304347826 0 0  1.445652173913043 0 0  1.453913043478261 0 0  1.462173913043478 0 0  1.470434782608696 0 0  1.478695652173913 0 0  1.486956521739131 0 0  1.495217391304348 0 0  1.503478260869565 0 0  1.511739130434782 0 0  1.52 0 0  1.528260869565217 0 0  1.536521739130435 0 0  1.544782608695652 0 0  1.55304347826087 0 0  1.561304347826087 0 0  1.569565217391304 0 0  1.577826086956522 0 0  1.586086956521739 0 0  1.594347826086957 0 0  1.602608695652174 0 0  1.610869565217391 0 0  1.619130434782609 0 0  1.627391304347826 0 0  1.635652173913043 0 0  1.643913043478261 0 0  1.652173913043478 0 0  1.660434782608696 0 0  1.668695652173913 0 0  1.67695652173913 0 0  1.685217391304348 0 0  1.693478260869565 0 0  1.701739130434782 0 0  1.71 0 0  1.718260869565217 0 0  1.726521739130435 0 0  1.734782608695652 0 0  1.743043478260869 0 0  1.751304347826087 0 0  1.759565217391304 0 0  1.767826086956522 0 0  1.776086956521739 0 0  1.784347826086957 0 0  1.792608695652174 0 0  1.800869565217391 0 0  1.809130434782608 0 0  1.817391304347826 0 0  1.825652173913043 0 0  1.833913043478261 0 0  1.842173913043478 0 0  1.850434782608696 0 0  1.858695652173913 0 0  1.86695652173913 0 0  1.875217391304348 0 0  1.883478260869565 0 0  1.891739130434782 0 0  1.9 0 0  1.908260869565217 0 0  1.916521739130435 0 0  1.924782608695652 0 0  1.933043478260869 0 0  1.941304347826087 0 0  1.949565217391304 0 0  1.957826086956522 0 0  1.966086956521739 0 0  1.974347826086956 0 0  1.982608695652174 0 0  1.990869565217391 0 0  1.999130434782608 0 0  2.007391304347826 0 0  2.015652173913043 0 0  2.023913043478261 0 0  2.032173913043478 0 0  2.040434782608695 0 0  2.048695652173913 0 0  2.05695652173913 0 0  2.065217391304348 0 0  2.073478260869565 0 0  2.081739130434782 0 0  2.09 0 0  2.098260869565217 0 0  2.106521739130435 0 0  2.114782608695652 0 0  2.12304347826087 0 0  2.131304347826087 0 0  2.139565217391304 0 0  2.147826086956522 0 0  2.156086956521739 0 0  2.164347826086956 0 0  2.172608695652174 0 0  2.180869565217391 0 0  2.189130434782609 0 0  2.197391304347826 0 0  2.205652173913043 0 0  2.213913043478261 0 0  2.222173913043478 0 0  2.230434782608695 0 0  2.238695652173913 0 0  2.24695652173913 0 0  2.255217391304348 0 0  2.263478260869565 0 0  2.271739130434783 0 0  2.28 0 0  2.288260869565217 0 0  2.296521739130434 0 0  2.304782608695652 0 0  2.31304347826087 0 0  2.321304347826087 0 0  2.329565217391304 0 0  2.337826086956521 0 0  2.346086956521739 0 0  2.354347826086956 0 0  2.362608695652174 0 0  2.370869565217391 0 0  2.379130434782609 0 0  2.387391304347826 0 0  2.395652173913044 0 0  2.403913043478261 0 0  2.412173913043478 0 0  2.420434782608695 0 0  2.428695652173913 0 0  2.43695652173913 0 0  2.445217391304348 0 0  2.453478260869565 0 0  2.461739130434782 0 0  2.47 0 0  2.478260869565217 0 0  2.486521739130435 0 0  2.494782608695652 0 0  2.503043478260869 0 0  2.511304347826087 0 0  2.519565217391305 0 0  2.527826086956522 0 0  2.536086956521739 0 0  2.544347826086956 0 0  2.552608695652174 0 0  2.560869565217391 0 0  2.569130434782608 0 0  2.577391304347826 0 0  2.585652173913043 0 0  2.593913043478261 0 0  2.602173913043478 0 0  2.610434782608696 0 0  2.618695652173913 0 0  2.62695652173913 0 0  2.635217391304348 0 0  2.643478260869565 0 0  2.651739130434783 0 0  2.66 0 0  2.668260869565217 0 0  2.676521739130435 0 0  2.684782608695652 0 0  2.693043478260869 0 0  2.701304347826087 0 0  2.709565217391304 0 0  2.717826086956522 0 0  2.726086956521739 0 0  2.734347826086956 0 0  2.742608695652174 0 0  2.750869565217391 0 0  2.759130434782609 0 0  2.767391304347826 0 0  2.775652173913044 0 0  2.783913043478261 0 0  2.792173913043478 0 0  2.800434782608696 0 0  2.808695652173913 0 0  2.81695652173913 0 0  2.825217391304347 0 0  2.833478260869565 0 0  2.841739130434783 0 0  2.85 0 0  2.858260869565217 0 0  2.866521739130435 0 0  2.874782608695652 0 0  2.88304347826087 0 0  2.891304347826087 0 0  2.899565217391304 0 0  2.907826086956522 0 0  2.916086956521739 0 0  2.924347826086957 0 0  2.932608695652174 0 0  2.940869565217391 0 0  2.949130434782608 0 0  2.957391304347826 0 0  2.965652173913043 0 0  2.973913043478261 0 0  2.982173913043478 0 0  2.990434782608696 0 0  2.998695652173913 0 0  3.006956521739131 0 0  3.015217391304348 0 0  3.023478260869565 0 0  3.031739130434782 0 0  3.04 0 0  3.048260869565218 0 0  3.056521739130435 0 0  3.064782608695652 0 0  3.073043478260869 0 0  3.081304347826087 0 0  3.089565217391304 0 0  3.097826086956522 0 0  3.106086956521739 0 0  3.114347826086956 0 0  3.122608695652174 0 0  3.130869565217391 0 0  3.139130434782609 0 0  3.147391304347826 0 0  3.155652173913043 0 0  3.163913043478261 0 0  3.172173913043478 0 0  3.180434782608696 0 0  3.188695652173913 0 0  3.19695652173913 0 0  3.205217391304347 0 0  3.213478260869565 0 0  3.221739130434782 0 0  3.23 0 0  3.238260869565217 0 0  3.246521739130435 0 0  3.254782608695652 0 0  3.26304347826087 0 0  3.271304347826087 0 0  3.279565217391304 0 0  3.287826086956521 0 0  3.296086956521739 0 0  3.304347826086957 0 0  3.312608695652174 0 0  3.320869565217391 0 0  3.329130434782608 0 0  3.337391304347826 0 0  3.345652173913043 0 0  3.353913043478261 0 0  3.362173913043478 0 0  3.370434782608696 0 0  3.378695652173913 0 0  3.386956521739131 0 0  3.395217391304348 0 0  3.403478260869565 0 0  3.411739130434782 0 0  3.419999999999999 0 0  3.428260869565217 0 0  3.436521739130435 0 0  3.444782608695652 0 0  3.453043478260869 0 0  3.461304347826087 0 0  3.469565217391304 0 0  3.477826086956522 0 0  3.486086956521739 0 0  3.494347826086956 0 0  3.502608695652174 0 0  3.510869565217391 0 0  3.519130434782609 0 0  3.527391304347826 0 0  3.535652173913043 0 0  3.54391304347826
[...]
<PointData  Scalars="rho_bar"> 
<DataArray  type="Float64"  Name="rho_bar"  format="ascii">1.0000117916929341e+00  1.0000103869182455e+00  1.0000164659036297e+00  1.0000209898172692e+00  1.0000265741490217e+00  1.0000327079970710e+00  1.0000396367112883e+00  1.0000472735593411e+00  1.0000553657563263e+00  1.0000634718511354e+00  1.0000711036738634e+00  1.0000778670053210e+00  1.0000835423305676e+00  1.0000880763511781e+00  1.0000915251900750e+00  1.0000939961365800e+00  1.0000955982005275e+00  1.0000963986493343e+00  1.0000964041790006e+00  1.0000955770154776e+00  1.0000938597654003e+00  1.0000911893089022e+00  1.0000875134040532e+00  1.0000828223686227e+00  1.0000771870506446e+00  1.0000707854407911e+00  1.0000638995116466e+00  1.0000568719231453e+00  1.0000500324016488e+00  1.0000436226909619e+00  1.0000377560288700e+00  1.0000324284424926e+00  1.0000275598102428e+00  1.0000230319475412e+00  1.0000187159086820e+00  1.0000144918506320e+00  1.0000102602825822e+00  1.0000059482589223e+00  1.0000015171555177e+00  9.9999697105128094e-01  9.9999236131232938e-01  9.9998778852757475e-01  9.9998340080741965e-01  9.9997937794752079e-01  9.9997589777215878e-01  9.9997309815177715e-01  9.9997104973760376e-01  9.9996974570181385e-01  9.9996910973836650e-01  9.9996901826656603e-01  9.9996932642397396e-01  9.9996988745604087e-01  9.9997056281109331e-01  9.9997122733364374e-01  9.9997177465008502e-01  9.9997212553362269e-01  9.9997223694880732e-01  9.9997210498969302e-01  9.9997176176122460e-01  9.9997127236815131e-01  9.9997072561539102e-01  9.9997020815886761e-01  9.9996977624467420e-01  9.9996945525562542e-01  9.9996927812118064e-01  9.9996932692565454e-01  9.9996981739248936e-01  9.9997126824726557e-01  9.9997461380240715e-01  9.9998121859376599e-01  9.9999146888590040e-01  1.0000015112843934e+00  1.0000051159602827e+00  1.0000022705388529e+00  9.9999943159512039e-01  9.9999951725636338e-01  1.0000001432664716e+00  1.0000000580157837e+00  9.9999996041092232e-01  1.0000000038310850e+00  1.0000000046424622e+00  9.9999999744738732e-01  1.0000000005231202e+00  1.0000000000928646e+00  9.9999999986500854e-01  1.0000000000752212e+00  1.0000000000673068e+00  9.9999999970700326e-01  1.0000000000299438e+00  1.0000000015009938e+00  9.9999999818252161e-01  9.9999999380766158e-01  1.0000000115103804e+00  1.0000000268499485e+00  9.9999995776345196e-01  9.9999987326313111e-01  1.0000000368574966e+00  1.0000004341096866e+00  1.0000004722971878e+00  9.9999960556247669e-01  9.9999827482769910e-01  9.9999776110585126e-01  9.9999881120369150e-01  1.0000009759102177e+00  1.0000035188212553e+00  1.0000059913861472e+00  1.0000079005865266e+00  1.0000088269402057e+00  1.0000087257187187e+00  1.0000077237268077e+00  1.0000059769324101e+00  1.0000037385119731e+00  1.0000013031095349e+00  9.9999889317144430e-01  9.9999658542882786e-01  9.9999423780729058e-01  9.9999147435397406e-01  9.9998788085120693e-01  9.9998338310915025e-01  9.9997842728648312e-01  9.9997373186582639e-01  9.9997000656266977e-01  9.9996809086434257e-01  9.9996925047517493e-01  9.9997479306458636e-01  9.9998477037296174e-01  9.9999725726932398e-01  1.0000098534087152e+00  1.0000221231780089e+00  1.0000357482491082e+00  1.0000519374927388e+00  1.0000694457473081e+00  1.0000855604874275e+00  1.0000982556810283e+00  1.0001069291986278e+00  1.0001119304035708e+00  1.0001141478129310e+00  1.0001147106989203e+00  1.0001145118600268e+00  1.0001138114363666e+00  1.0001121900674275e+00  1.0001088130747045e+00  1.0001028026434560e+00  1.0000934849846654e+00  1.0000806075810806e+00  1.0000648572441946e+00  1.0000481832077486e+00  1.0000328007685297e+00  1.0000194202391679e+00  1.0000070031814308e+00  9.9999463705109104e-01  9.9998316302143131e-01  9.9997455049003636e-01  9.9997002271545832e-01  9.9996923843156715e-01  9.9997102179875075e-01  9.9997430227841133e-01  9.9997835800328438e-01  9.9998262911665969e-01  9.9998661231161257e-01  9.9998997205335838e-01  9.9999266512811980e-01  9.9999488010029669e-01  9.9999685459751286e-01  9.9999874161092639e-01  1.0000005794231444e+00  1.0000023223804890e+00  1.0000038879084681e+00  1.0000052011907428e+00  1.0000062289583924e+00  1.0000069891333261e+00  1.0000075326628979e+00  1.0000079164431563e+00  1.0000081873169298e+00  1.0000083783469391e+00  1.0000085095297808e+00  1.0000085881548191e+00  1.0000086023322368e+00  1.0000085127943832e+00  1.0000082531306562e+00  1.0000076978449115e+00  1.0000066625138770e+00  1.0000050779538994e+00  1.0000030494893937e+00  1.0000007461670124e+00  9.9999876308773572e-01  9.9999816322438340e-01  9.9999907024987145e-01  1.0000001061723593e+00  1.0000002694072565e+00  1.0000000132784945e+00  9.9999994732860764e-01  1.0000000029598584e+00  1.0000000086636318e+00  9.9999999729895228e-01  9.9999999943522067e-01  1.0000000006376948e+00  9.9999999980694432e-01  1.0000000000162930e+00  1.0000000000684452e+00  9.9999999959467856e-01  1.0000000012162285e+00  9.9999999843199161e-01  9.9999999702338005e-01  1.0000000190281033e+00  9.9999996722808149e-01  9.9999996290075188e-01  1.0000002689037872e+00  9.9999975471340219e-01  9.9999885919055209e-01  1.0000022005064386e+00  1.0000046911976415e+00  9.9999127262880405e-01  9.9997648042267295e-01  1.0000038683472210e+00  1.0000709042049625e+00  1.0001105955450935e+00  1.0000805983055894e+00  1.0000147659654284e+00  9.9996518964344272e-01  9.9994558744156492e-01  9.9994563908133227e-01  9.9995774926858005e-01  9.9997850420045797e-01  1.0000048699815340e+00  1.0000334081370250e+00  1.0000599893864301e+00  1.0000811779735503e+00  1.0000956569049804e+00  1.0001042157265159e+00  1.0001086727045962e+00  1.0001107194667092e+00  1.0001114983216088e+00  1.0001117049459105e+00  1.0001117390096208e+00  1.0001117993737267e+00  1.0001119565655885e+00  1.0001122022702451e+00  1.0001124788060798e+00  1.0001127002806105e+00  1.0001127758267390e+00  1.0001126364072919e+00  1.0001122547039119e+00  1.0001116475034744e+00  1.0001108629341211e+00  1.0001099625935617e+00  1.0001090088586631e+00  1.0001080650461263e+00  1.0001071994772075e+00  1.0001064782889004e+00  1.0001059544537829e+00  1.0001056616320896e+00  1.0001056107631057e+00  1.0001058014406881e+00  1.0001062391155846e+00  1.0001069219118650e+00  1.0001078103356864e+00  1.0001088241158484e+00  1.0001098617944582e+00  1.0001108172335187e+00  1.0001115940741423e+00  1.0001121217583298e+00  1.0001123646795924e+00  1.0001123220007295e+00  1.0001120231907916e+00  1.0001115251889221e+00  1.0001109132967281e+00  1.0001102997991669e+00  1.0001098134405570e+00  1.0001095795714037e+00  1.0001096936169533e+00  1.0001101907016960e+00  1.0001110138910561e+00  1.0001119768622870e+00  1.0001127127683596e+00  1.0001125874071228e+00  1.0001105565412138e+00  1.0001051291154426e+00  1.0000947261471076e+00  1.0000783393569841e+00  1.0000562787614713e+00  1.0000308506799378e+00  1.0000059714127627e+00  9.9998587202154654e-01  9.9997412541021191e-01  9.9997530567552517e-01  1.0000005781639241e+00  1.0000525379683014e+00  1.0000902283047808e+00  1.0000660538671478e+00  1.0000104581482419e+00  9.9998842995860671e-01  9.9999760617406186e-01  1.0000022319939847e+00  9.9999989102636522e-01  9.9999968638475045e-01  1.0000001331231474e+00  9.9999998806470414e-01  9.9999998756698794e-01  1.0000000076994795e+00  9.9999999755837021e-01  1.0000000003066150e+00  9.9999999981147580e-01  1.0000000014258172e+00  9.9999999884774304e-01  9.9999999405560891e-01  1.0000000102405961e+00  1.0000000237283222e+00  9.9999995464396840e-01  9.9999988476038548e-01  1.0000000846919730e+00  1.0000004720281173e+00  1.0000003213817916e+00  9.9999919046926078e-01  9.9999796579907874e-01  9.9999811827249208e-01  1.0000000980988140e+00  1.0000031914568672e+00  1.0000063434039643e+00  1.0000084949123631e+00  1.0000088485952825e+00  1.0000073398787568e+00  1.0000046677439038e+00  1.0000017670521872e+00  9.9999922468028979e-01  9.9999712769884630e-01  9.9999530395450764e-01  9.9999354268765495e-01  9.9999165916324650e-01  9.9998951085919818e-01  9.9998701642662324e-01  9.9998418248269105e-01  9.9998111779822318e-01  9.9997800026239658e-01  9.9997501257798027e-01  9.9997231521429397e-01  9.9997009483655674e-01  9.9996864899909943e-01  9.9996845549926971e-01  9.9997019505103124e-01  9.9997460565539631e-01  9.9998202811573600e-01  9.9999189601574545e-01  1.0000028597456205e+00  1.0000138863563832e+00  1.0000254803982187e+00  1.0000393734840340e+00  1.0000564086898800e+00  1.0000749971274270e+00  1.0000921639158986e+00  1.0001055453149215e+00  1.0001137719179991e+00  1.0001157944353185e+00  1.0001109853982224e+00  1.0000999022300818e+00  1.0000846141107638e+00  1.0000683136851740e+00  1.0000546160421369e+00  1.0000469612022183e+00  1.0000484915895596e+00  1.0000618502931344e+00  1.0000858376167894e+00  1.0001093881559273e+00  1.0001117878209107e+00  1.0000775195523812e+00  1.0000205453240216e+00  9.9998272747598527e-01  9.9998481844784892e-01  1.0000004469067505e+00  1.0000033391888712e+00  9.9999968707204190e-01  9.9999945361129616e-01  1.0000002039900526e+00  1.0000000198616521e+00  9.9999995871990133e-01  1.0000000239028621e+00  9.9999994574671380e-01  1.0000001862142296e+00  9.9999995692157762e-01  9.9999490527648027e-01  1.0000457090773338e+00  9.9973960786672833e-01  1.0010899941911371e+00  9.9675442732370756e-01  1.0050882896175140e+00  1.0083058408878887e+00  9.2049153060727074e-01  -5.3167920127721952e-02  2.9320219527835933e-03  5.6180352453885955e-04  -2.0227042677212458e-04  3.3904702283547674e-05  -3.1816050733476772e-06  1.7573050131753530e-08  4.0313041613214983e-08  -3.5984664296039227e-09  -1.4471750809136637e-10  -4.0712319806600434e-10  3.5827511583731552e-10  -1.6250985214495367e-10  5.4926775983786476e-11  -1.5699450282878764e-11  4.0741088406401045e-12  -1.0076527914514434e-12  2.4352182364424270e-13  -5.6754134860170320e-14  1.1835594873582392e-14  -1.7020837748483057e-15  -1.5377636905330377e-16  2.6929660902810268e-16  -1.4756337678185329e-16  6.1065578983144778e-17  -2.1340941766696832e-17  6.4391882439088917e-18  -1.6408640932789258e-18  3.1840715682559743e-19  -2.3820863142242154e-20  -1.7039766810995428e-20  1.2029575085328789e-20  -5.2565559160493124e-21  1.8692718832797110e-21  -5.7665638543581353e-22  1.5637838126679297e-22  -3.6471499015497558e-23  6.6430704392650776e-24  -5.1946958895579736e-25  -2.9248953959646516e-25  2.1149918407313067e-25  -9.4476993118619843e-26  3.5270897609618434e-26  -1.1872690922696817e-26  3.7173645050003600e-27  -1.0997764981750629e-27  3.1075235627159591e-28  -8.4431426468466380e-29  2.2283560118151133e-29  -5.7765769309820621e-30  1.4801481581398730e-30  -3.8482582409619052e-31  1.0317134650331180e-31  -2.7347166093119097e-32  7.3939284636456849e-33  -2.2162451256891983e-33  6.0464653414877578e-34  -1.1897499970544590e-34  3.1491644378832480e-35  -1.5729990834890893e-35  3.1997201667207401e-36  1.1003763982684688e-36  -3.1954810334839621e-37  -2.7851308189725727e-37  1.1144728493435595e-37  3.9771437003604432e-38  -2.9387053665857975e-38  -2.2625083838121980e-39  6.2673487217665485e-39  -9.9990343332649748e-40  -9.6595175462433084e-40  4.5036816951023947e-40  6.1556523835349242e-41  -1.5201052565675126e-40  9.9997684430334333e-01  9.9998280100332715e-01  9.9997190944364278e-01  9.9996300447769759e-01  9.9995250604415542e-01  9.9994092260159595e-01  9.9992784797701972e-01  9.9991325111089313e-01  9.9989742697725814e-01  9.9988110304850575e-01  9.9986524668297083e-01  9.9985077286718704e-01  9.9983830311460997e-01  9.9982809821540941e-01  9.9982013897070443e-01  9.9981424921515671e-01  9.9981020067976345e-01  9.9980780732565300e-01  9.9980699553653418e-01  9.9980780409400927e-01  9.9981033288730614e-01  9.9981470465425104e-01  9.9982104083426149e-01  9.9982941311476481e-01  9.9983976955196885e-01  9.9985186539134152e-01  9.9986523500509161e-01  9.9987923777795873e-01  9.9989318049591946e-01  9.9990647499204544e-01  9.9991876271977953e-01  9.9992994362685395e-01  9.9994011312608722e-01  9.9994947724814431e-01  9.9995828904974760e-01  9.9996680132510096e-01  9.9997523502735453e-01  9.9998376407010614e-01  9.9999250243406301e-01  1.0000014864442688e+00  1.0000106611679529e+00  1.0000198751056202e+00  1.0000288782517719e+00  1.0000373360884112e+00  1.0000448807792259e+00  1.0000511878546394e+00  1.0000560439351389e+00  1.0000593849252448e+00  1.0000612982313188e+00  1.0000619905693828e+00  1.0000617365497408e+00  1.0000608313170232e+00  1.0000595616973114e+00  1.0000581924745573e+00  1.0000569567939126e+00  1.0000560428221901e+00  1.0000555747774877e+00  1.0000555991144255e+00  1.0000560865614747e+00  1.0000569394759213e+00  1.0000579997313110e+00  1.0000590831589993e+00  1.0000600414343548e+00  1.0000607981243688e+00  1.0000613089258197e+00  1.0000614656199924e+00  1.0000610058462009e+00  1.0000592443898628e+00  1.0000547352708851e+00  1.0000451799013701e+00  1.0000281229731716e+00  1.0000061054300411e+00  9.9999106829368223e-01  9.9999169291383849e-01  9.9999922169189448e-01  1.0000015896251284e+00  1.0000000711749799e+00  9.9999971138952548e-01  1.0000000627244157e+00  1.0000000251193768e+00  9.9999998086066999e-01  1.0000000045727000e+00  1.0000000005023413e+00  9.9999999915816440e-01  1.0000000003691722e+00  9.9999999995175215e-01  9.9999999985641863e-01  1.0000000000505391e+00  1.0000000007798175e+00  9.9999999852634580e-01  9.9999999786443328e-01  1.0000000099336679e+00  1.0000000037968901e+00  9.9999995134315756e-01  9.9999998347007457e-01  1.0000001931830234e+00  1.0000001897171016e+00  9.9999954602399121e-01  9.9999889706959888e-01  9.9999966620275027e-01  1.0000021435473707e+00  1.0000043486353611e+00  1.0000038250313807e+00  1.0000003728495046e+00  9.9999553440736044e-01  9.9999042548068484e-01  9.9998589065697685e-01  9.9998299842025862e-01  9.9998220760649537e-01  9.9998333990383503e-01  9.9998613759016886e-01  9.9999020049320408e-01  9.9999494394989596e-01  9.9999983087978406e-01  1.0000045453366975e+00  1.0000091328874450e+00  1.0000141237992743e+00  1.0000203938095469e+00  1.0000285349052644e+00  1.0000381616984335e+00  1.0000479989546236e+00  1.0000565885233135e+00  1.0000624804235863e+00  1.0000636184644567e+00  1.0000571881455460e+00  1.0000414222366190e+00  1.0000182414775327e+00  9.9999267482364862e-01  9.9996807472653260e-01  9.9994275491052109e-01  9.9991297000677448e-01  9.9987862051679099e-01  9.9984429325119095e-01  9.9981517457234470e-01  9.9979381354152463e-01  9.9978030582027244e-01  9.9977336446320797e-01  9.9977087154672062e-01  9.9977066651999869e-01  9.9977153683222819e-01  9.9977367789488847e-01  9.9977843964723190e-01  9.9978762477314964e-01  9.9980281826673467e-01  9.9982502166694331e-01  9.9985398447533036e-01  9.9988704839762621e-01  9.9991957297272760e-01  9.9994822299819386e-01  9.9997361430929776e-01  9.9999834750126204e-01  1.0000226582440184e+00  1.0000432589211108e+00  1.0000564967403243e+00  1.0000615406524884e+00  1.0000602217956958e+00  1.0000549424530558e+00  1.0000474608106844e+00  1.0000389994819208e+00  1.0000306280106432e+00  1.0000232344695010e+00  1.0000172106505494e+00  1.0000123678882551e+00  1.0000082319480306e+00  1.0000043934038110e+00  1.0000006647530726e+00  9.9999706498177765e-01  9.9999373421094073e-01  9.9999084027803076e-01  9.9998849771630238e-01  9.9998672024647905e-01  9.9998543154288788e-01  9.9998451768016805e-01  9.9998387300044167e-01  9.9998341765371035e-01  9.9998309888210901e-01  9.9998288927766177e-01  9.9998279032686332e-01  9.9998285220181604e-01  9.9998318168357980e-01  9.9998395360479675e-01  9.9998549503819489e-01  9.9998812952076133e-01  9.9999178061589722e-01  9.9999615885545778e-01  1.0000006963549326e+00  1.0000035596861545e+00  1.0000030339718837e+00  1.0000006205801242e+00  9.9999939107422542e-01  9.9999974097856781e-01  1.0000001108180092e+00  1.0000000390769823e+00  9.9999997404731389e-01  9.9999999983237553e-01  1.0000000042213331e+00  9.9999999850467547e-01  9.9999999996114874e-01  1.0000000002910119e+00  9.9999999972240694e-01  1.0000000002667617e+00  1.0000000003068579e+00  9.9999999703111353e-01  1.0000000085530991e+00  9.9999999164670561e-01  9.9999996914324529e-01  1.0000001382080743e+00  9.9999985502372701e-01  9.9999947945782552e-01  1.0000016923547910e+00  1.0000007524636227e+00  9.9999087082295712e-01  9.9999831901648850e-01  1.0000372772869339e+00  1.0000357109570275e+00  9.9992899168748384e-01  9.9980106375146349e-01  9.9979139835797215e-01  9.9990412596999378e-01  1.0000286821591970e+00  1.0000955722069689e+00  1.0001122511059308e+00  1.0000991632949583e+00  1.0000655172583108e+00  1.0000176605150739e+00  9.9996177337127878e-01  9.9990557253323764e-01  9.9985716625165411e-01  9.9982147668140120e-01  9.9979885575301863e-01  9.9978633226206015e-01  9.9978018202699581e-01  9.9977757405928303e-01  9.9977671876914098e-01  9.9977654772712288e-01  9.9977648308384459e-01  9.9977627100705391e-01  9.9977585847390238e-01  9.9977531702925637e-01  9.9977479527681834e-01  9.9977447656468965e-01  9.9977452761089691e-01  9.9977504790165750e-01  9.9977604603097747e-01  9.9977745263933449e-01  9.9977915350952873e-01  9.9978102281313075e-01  9.9978293679076358e-01  9.9978476390264204e-01  9.9978636599793314e-01  9.9978762216957073e-01  9.9978844450827908e-01  9.9978878798669157e-01  9.9978864818728086e-01  9.9978802255098509e-01  9.9978689842565915e-01  9.9978531111278302e-01  9.9978338486597662e-01  9.9978130672108712e-01  9.9977928722054399e-01  9.9977753314429840e-01  9.9977621513705872e-01  9.9977544021080678e-01  9.9977524387061945e-01  9.9977559619174561e-01  9.9977641064081135e-01  9.9977754554843268e-01  9.9977880206711800e-01  9.9977993516652786e-01  9.9978068482631055e-01  9.9978082293052351e-01  9.9978021108186976e-01  9.9977886305884234e-01  9.9977701148580134e-01  9.9977519459742692e-01  9.9977438496257853e-01  9.9977621816104145e-01  9.9978325395379075e-01  9.9979871735545534e-01  9.9982536996671389e-01  9.9986410950771665e-01  9.9991245918904381e-01  9.9996386368362211e-01  1.0000098607269139e+00  1.0000424747965122e+00  1.0000545601238786e+00  1.0000321710620812e+00  9.9995217262391423e-01  9.9984481023660021e-01  9.9982520893119209e-01  9.9992628624077773e-01  1.0000150974015869e+00  1.0000155805614259e+00  9.9999626994008384e-01  9.9999828547773795e-01  1.0000010822537904e+00  9.9999984651719320e-01  9.9999991688862788e-01  1.0000000585721829e+00  9.9999998084475428e-01  1.0000000034941188e+00  9.9999999982771559e-01  1.0000000005675136e+00  9.9999999913183457e-01  9.9999999726109579e-01  1.0000000084549538e+00  1.0000000048340421e+00  9.9999995555219590e-01  9.9999999082054669e-01  1.0000001910031850e+00  1.0000001350476786e+00  9.9999943248214185e-01  9.9999894839661585e-01  1.0000002562093127e+00  1.0000030287924639e+00  1.0000044194394142e+00  1.0000021937941552e+00  9.9999685704471497e-01  9.9999034783328600e-01  9.9998477877019887e-01  9.9998214049308032e-01  9.9998339632550415e-01  9.9998782586862633e-01  9.9999361743418103e-01  9.9999913519715267e-01  1.0000037433864528e+00  1.0000076091995984e+00  1.0000111437436194e+00  1.0000147466345302e+00  1.0000187491022967e+00  1.0000233805251657e+00  1.0000287235240111e+00  1.0000346619154847e+00  1.0000408933172937e+00  1.0000470407074065e+00  1.0000527638202978e+00  1.0000577368295429e+00  1.0000614965540811e+00  1.0000632812807018e+00  1.0000619301964151e+00  1.0000559540731504e+00  1.0000441173772681e+00  1.0000265474399432e+00  1.0000053205821331e+00  9.9998320899493243e-01  9.9996096186399053e-01  9.9993596702113552e-01  9.9990496798270168e-01  9.9986862064191662e-01  9.9983210167289827e-01  9.9980113535821458e-01  9.9977926078004964e-01  9.9976875359080308e-01  9.9977148444508757e-01  9.9978771102748742e-01  9.9981478252769718e-01  9.9984726718228156e-01  9.9987817668561740e-01  9.9990033774411913e-01  9.9990722483320260e-01  9.9989289465026054e-01  9.9985438986698760e-01  9.9980247805795952e-01  9.9977054475529148e-01  9.9980063792773988e-01  9.9990063684259878e-01  1.0000076036711245e+00