<?xml version="1.0"?>
<VTKFile type="UnstructuredGrid"  version="0.1"  >
<UnstructuredGrid>
<Piece  NumberOfPoints="2488" NumberOfCells="4777">
<Points>
<DataArray  type="Float64"  NumberOfComponents="3"  format="ascii">2.924347826086957 0 0  2.932608695652174 0 0  2.932608695652174 0.008333333333333333 0  2.924347826086957 0.008333333333333333 0  2.940869565217391 0 0  2.940869565217391 0.008333333333333333 0  2.949130434782608 0 0  2.949130434782608 0.008333333333333333 0  2.957391304347826 0 0  2.957391304347826 0.008333333333333333 0  2.965652173913043 0 0  2.965652173913043 0.008333333333333333 0  2.973913043478261 0 0  2.973913043478261 0.008333333333333333 0  2.982173913043478 0 0  2.982173913043478 0.008333333333333333 0  2.990434782608696 0 0  2.990434782608696 0.008333333333333333 0  2.998695652173913 0 0  2.998695652173913 0.008333333333333333 0  3.006956521739131 0 0  3.006956521739131 0.008333333333333333 0  3.015217391304348 0 0  3.015217391304348 0.008333333333333333 0  3.023478260869565 0 0  3.023478260869565 0.008333333333333333 0  3.031739130434782 0 0  3.031739130434782 0.008333333333333333 0  3.04 0 0  3.04 0.008333333333333333 0  3.048260869565218 0 0  3.048260869565218 0.008333333333333333 0  3.056521739130435 0 0  3.056521739130435 0.008333333333333333 0  3.064782608695652 0 0  3.064782608695652 0.008333333333333333 0  3.073043478260869 0 0  3.073043478260869 0.008333333333333333 0  3.081304347826087 0 0  3.081304347826087 0.008333333333333333 0  3.089565217391304 0 0  3.089565217391304 0.008333333333333333 0  3.097826086956522 0 0  3.097826086956522 0.008333333333333333 0  3.106086956521739 0 0  3.106086956521739 0.008333333333333333 0  3.114347826086956 0 0  3.114347826086956 0.008333333333333333 0  3.122608695652174 0 0  3.122608695652174 0.008333333333333333 0  3.130869565217391 0 0  3.130869565217391 0.008333333333333333 0  3.139130434782609 0 0  3.139130434782609 0.008333333333333333 0  3.147391304347826 0 0  3.147391304347826 0.008333333333333333 0  3.155652173913043 0 0  3.155652173913043 0.008333333333333333 0  3.163913043478261 0 0  3.163913043478261 0.008333333333333333 0  3.172173913043478 0 0  3.172173913043478 0.008333333333333333 0  3.180434782608696 0 0  3.180434782608696 0.008333333333333333 0  3.188695652173913 0 0  3.188695652173913 0.008333333333333333 0  3.19695652173913 0 0  3.19695652173913 0.008333333333333333 0  3.205217391304347 0 0  3.205217391304347 0.008333333333333333 0  3.213478260869565 0 0  3.213478260869565 0.008333333333333333 0  3.221739130434782 0 0  3.221739130434782 0.008333333333333333 0  3.23 0 0  3.23 0.008333333333333333 0  3.238260869565217 0 0  3.238260869565217 0.008333333333333333 0  3.246521739130435 0 0  3.246521739130435 0.008333333333333333 0  3.254782608695652 0.008333333333333333 0  2.932608695652174 0.01666666666666667 0  2.940869565217391 0.01666666666666667 0  2.949130434782608 0.01666666666666667 0  2.957391304347826 0.01666666666666667 0  2.965652173913043 0.01666666666666667 0  2.973913043478261 0.01666666666666667 0  2.982173913043478 0.01666666666666667 0  2.990434782608696 0.01666666666666667 0  2.998695652173913 0.01666666666666667 0  3.006956521739131 0.01666666666666667 0  3.015217391304348 0.01666666666666667 0  3.023478260869565 0.01666666666666667 0  3.031739130434782 0.01666666666666667 0  3.04 0.01666666666666667 0  3.048260869565218 0.01666666666666667 0  3.056521739130435 0.01666666666666667 0  3.064782608695652 0.01666666666666667 0  3.073043478260869 0.01666666666666667 0  3.081304347826087 0.01666666666666667 0  3.089565217391304 0.01666666666666667 0  3.097826086956522 0.01666666666666667 0  3.106086956521739 0.01666666666666667 0  3.114347826086956 0.01666666666666667 0  3.122608695652174 0.01666666666666667 0  3.130869565217391 0.01666666666666667 0  3.139130434782609 0.01666666666666667 0  3.147391304347826 0.01666666666666667 0  3.155652173913043 0.01666666666666667 0  3.163913043478261 0.01666666666666667 0  3.172173913043478 0.01666666666666667 0  3.180434782608696 0.01666666666666667 0  3.188695652173913 0.01666666666666667 0  3.19695652173913 0.01666666666666667 0  3.205217391304347 0.01666666666666667 0  3.213478260869565 0.01666666666666667 0  3.221739130434782 0.01666666666666667 0  3.23 0.01666666666666667 0  3.238260869565217 0.01666666666666667 0  3.246521739130435 0.01666666666666667 0  3.254782608695652 0.01666666666666667 0  3.26304347826087 0.01666666666666667 0  2.940869565217391 0.025 0  2.949130434782608 0.025 0  2.957391304347826 0.025 0  2.965652173913043 0.025 0  2.973913043478261 0.025 0  2.982173913043478 0.025 0  2.990434782608696 0.025 0  2.998695652173913 0.025 0  3.006956521739131 0.025 0  3.015217391304348 0.025 0  3.023478260869565 0.025 0  3.031739130434782 0.025 0  3.04 0.025 0  3.048260869565218 0.025 0  3.056521739130435 0.025 0  3.064782608695652 0.025 0  3.073043478260869 0.025 0  3.081304347826087 0.025 0  3.089565217391304 0.025 0  3.097826086956522 0.025 0  3.106086956521739 0.025 0  3.114347826086956 0.025 0  3.122608695652174 0.025 0  3.130869565217391 0.025 0  3.139130434782609 0.025 0  3.147391304347826 0.025 0  3.155652173913043 0.025 0  3.163913043478261 0.025 0  3.172173913043478 0.025 0  3.180434782608696 0.025 0  3.188695652173913 0.025 0  3.19695652173913 0.025 0  3.205217391304347 0.025 0  3.213478260869565 0.025 0  3.221739130434782 0.025 0  3.23 0.025 0  3.238260869565217 0.025 0  3.246521739130435 0.025 0  3.254782608695652 0.025 0  3.26304347826087 0.025 0  3.271304347826087 0.025 0  2.949130434782608 0.03333333333333333 0  2.957391304347826 0.03333333333333333 0  2.965652173913043 0.03333333333333333 0  2.973913043478261 0.03333333333333333 0  2.982173913043478 0.03333333333333333 0  2.990434782608696 0.03333333333333333 0  2.998695652173913 0.03333333333333333 0  3.006956521739131 0.03333333333333333 0  3.015217391304348 0.03333333333333333 0  3.023478260869565 0.03333333333333333 0  3.031739130434782 0.03333333333333333 0  3.04 0.03333333333333333 0  3.048260869565218 0.03333333333333333 0  3.056521739130435 0.03333333333333333 0  3.064782608695652 0.03333333333333333 0  3.073043478260869 0.03333333333333333 0  3.081304347826087 0.03333333333333333 0  3.089565217391304 0.03333333333333333 0  3.097826086956522 0.03333333333333333 0  3.106086956521739 0.03333333333333333 0  3.114347826086956 0.03333333333333333 0  3.122608695652174 0.03333333333333333 0  3.130869565217391 0.03333333333333333 0  3.139130434782609 0.03333333333333333 0  3.147391304347826 0.03333333333333333 0  3.155652173913043 0.03333333333333333 0  3.163913043478261 0.03333333333333333 0  3.172173913043478 0.03333333333333333 0  3.180434782608696 0.03333333333333333 0  3.188695652173913 0.03333333333333333 0  3.19695652173913 0.03333333333333333 0  3.205217391304347 0.03333333333333333 0  3.213478260869565 0.03333333333333333 0  3.221739130434782 0.03333333333333333 0  3.23 0.03333333333333333 0  3.238260869565217 0.03333333333333333 0  3.246521739130435 0.03333333333333333 0  3.254782608695652 0.03333333333333333 0  3.26304347826087 0.03333333333333333 0  3.271304347826087 0.03333333333333333 0  3.279565217391304 0.03333333333333333 0  2.957391304347826 0.04166666666666666 0  2.965652173913043 0.04166666666666666 0  2.973913043478261 0.04166666666666666 0  2.982173913043478 0.04166666666666666 0  2.990434782608696 0.04166666666666666 0  2.998695652173913 0.04166666666666666 0  3.006956521739131 0.04166666666666666 0  3.015217391304348 0.04166666666666666 0  3.023478260869565 0.04166666666666666 0  3.031739130434782 0.04166666666666666 0  3.04 0.04166666666666666 0  3.048260869565218 0.04166666666666666 0  3.056521739130435 0.04166666666666666 0  3.064782608695652 0.04166666666666666 0  3.073043478260869 0.04166666666666666 0  3.081304347826087 0.04166666666666666 0  3.089565217391304 0.04166666666666666 0  3.097826086956522 0.04166666666666666 0  3.106086956521739 0.04166666666666666 0  3.114347826086956 0.04166666666666666 0  3.122608695652174 0.04166666666666666 0  3.130869565217391 0.04166666666666666 0  3.139130434782609 0.04166666666666666 0  3.147391304347826 0.04166666666666666 0  3.155652173913043 0.04166666666666666 0  3.163913043478261 0.04166666666666666 0  3.172173913043478 0.04166666666666666 0  3.180434782608696 0.04166666666666666 0  3.188695652173913 0.04166666666666666 0  3.19695652173913 0.04166666666666666 0  3.205217391304347 0.04166666666666666 0  3.213478260869565 0.04166666666666666 0  3.221739130434782 0.04166666666666666 0  3.23 0.04166666666666666 0  3.238260869565217 0.04166666666666666 0  3.246521739130435 0.04166666666666666 0  3.254782608695652 0.04166666666666666 0  3.26304347826087 0.04166666666666666 0  3.271304347826087 0.04166666666666666 0  3.279565217391304 0.04166666666666666 0  3.287826086956521 0.04166666666666666 0  2.965652173913043 0.05 0  2.973913043478261 0.05 0  2.982173913043478 0.05 0  2.990434782608696 0.05 0  2.998695652173913 0.05 0  3.006956521739131 0.05 0  3.015217391304348 0.05 0  3.023478260869565 0.05 0  3.031739130434782 0.05 0  3.04 0.05 0  3.048260869565218 0.05 0  3.056521739130435 0.05 0  3.064782608695652 0.05 0  3.073043478260869 0.05 0  3.081304347826087 0.05 0  3.089565217391304 0.05 0  3.097826086956522 0.05 0  3.106086956521739 0.05 0  3.114347826086956 0.05 0  3.122608695652174 0.05 0  3.130869565217391 0.05 0  3.139130434782609 0.05 0  3.147391304347826 0.05 0  3.155652173913043 0.05 0  3.163913043478261 0.05 0  3.172173913043478 0.05 0  3.180434782608696 0.05 0  3.188695652173913 0.05 0  3.19695652173913 0.05 0  3.205217391304347 0.05 0  3.213478260869565 0.05 0  3.221739130434782 0.05 0  3.23 0.05 0  3.238260869565217 0.05 0  3.246521739130435 0.05 0  3.254782608695652 0.05 0  3.26304347826087 0.05 0  3.271304347826087 0.05 0  3.279565217391304 0.05 0  3.287826086956521 0.05 0  3.296086956521739 0.05 0  2.973913043478261 0.05833333333333333 0  2.982173913043478 0.05833333333333333 0  2.990434782608696 0.05833333333333
[...]
<CellData  Scalars="rho"> 
<DataArray  type="Float64"  Name="rho"  format="ascii">0.0000000000000000e+00   0.0000000000000000e+00   0.0000000000000000e+00   0.0000000000000000e+00   0.0000000000000000e+00   0.0000000000000000e+00   0.0000000000000000e+00   0.0000000000000000e+00   0.0000000000000000e+00   0.0000000000000000e+00   0.0000000000000000e+00   0.0000000000000000e+00   0.0000000000000000e+00   0.0000000000000000e+00   0.0000000000000000e+00   0.0000000000000000e+00   0.0000000000000000e+00   0.0000000000000000e+00   0.0000000000000000e+00   0.0000000000000000e+00   0.0000000000000000e+00   0.0000000000000000e+00   0.0000000000000000e+00   0.0000000000000000e+00   0.0000000000000000e+00   0.0000000000000000e+00   0.0000000000000000e+00   0.0000000000000000e+00   0.0000000000000000e+00   2.5637829272663287e-01   0.0000000000000000e+00   2.5124254827303560e-01   7.6741074656091937e-02   2.4564799368634055e-01   1.0538634168127582e-01   2.3999015037428567e-01   1.2855105779252676e-01   2.3622459849366445e-01   1.4448469092433136e-01   2.3664897897606021e-01   1.6634773814116377e-01   2.3934268808408596e-01   1.7283308753464968e-01   2.4327283966577781e-01   1.7044691598118406e-01   2.4283617622300585e-01   1.7495751877673910e-01   2.4850601749982237e-01   1.8552456307008694e-01   2.5729799729264657e-01   1.6754768047413729e-01   2.5838015423779487e-01   1.7274171505702163e-01   2.5918224756639363e-01   1.7701526999526893e-01   2.6146190189683821e-01   1.8047609368282036e-01   2.6571486537273797e-01   1.8291074095935997e-01   2.7004645110404168e-01   1.8496235020583507e-01   2.7493118426890817e-01   1.9031578214007200e-01   2.7599850540034743e-01   1.9328267045161715e-01   2.7095418237265734e-01   1.9650231877866192e-01   2.5845958615416303e-01   2.0110976454043744e-01   2.7337212271163580e-01   2.1113528099826573e-01   2.6990636202986762e-01   1.9605384337331047e-01   2.7262782726997337e-01   1.9822543997196462e-01   2.7465071257017404e-01   2.0207113822002767e-01   2.6953095345582889e-01   2.0413567619612435e-01   2.6823015717657051e-01   2.0567203949995702e-01   2.7770088865373893e-01   2.0565717404340977e-01   2.5943526089762114e-01   2.0572039794255925e-01   2.5490195350682526e-01   2.1063136696864532e-01   2.4661069015144041e-01   2.1114755463788862e-01   2.4374187944242498e-01   2.1172252586774665e-01   2.5141908355035680e-01   2.1472782044028244e-01   2.4904487482547755e-01   2.1015092393433171e-01   2.4736785079330612e-01   2.0565638392264285e-01   2.4152670816980504e-01   2.0215685263132580e-01   2.3587330801092943e-01   1.9377663524978966e-01   2.3954755742601491e-01   1.9145220829433196e-01   2.2978712976011756e-01   1.9510984017571906e-01   2.3163530085133965e-01   1.9011286810924591e-01   2.2811972367324621e-01   1.8786083652721600e-01   2.2239563202890500e-01   1.8426246642629357e-01   2.1805312342142316e-01   1.8253974749547189e-01   2.1302633553724271e-01   1.8042341049708011e-01   2.0766613116447685e-01   1.7866404223971424e-01   2.0297366901713354e-01   1.7735263544824165e-01   1.9927773441474159e-01   1.7657766277197476e-01   1.9603610088782661e-01   1.7585531595755902e-01   1.9319602197702926e-01   1.7544436389781898e-01   1.8972770257913243e-01   1.7505711692714754e-01   1.8514579141234433e-01   1.7459117478112590e-01   1.8010450094382957e-01   1.7497114299112143e-01   1.7742471007214425e-01   1.7477437521909781e-01   1.7477466813814063e-01   1.7458784089146209e-01   1.7298516569706571e-01   1.7573735086108144e-01   1.6782986213804704e-01   1.7910131747975910e-01   1.7242140169130069e-01   1.7873143160128699e-01   1.7445716491123062e-01   1.8223978870999213e-01   1.7759765803872715e-01   1.8591321162774729e-01   1.8236648356205909e-01   1.8911717816088458e-01   1.8805513489611567e-01   1.9463132506062225e-01   1.8802511786940188e-01   2.0175243939401494e-01   1.9534469743490332e-01   2.1026133349739567e-01   2.0314013309600407e-01   2.1992508431660943e-01   2.1196354445079982e-01   2.3021975200381775e-01   2.2214177257718321e-01   2.4211629593710107e-01   2.3375331337601082e-01   2.5570966279386947e-01   2.4675877685436709e-01   2.7056486042837802e-01   2.6101666936994589e-01   2.8647568415488811e-01   2.7616506000509544e-01   3.0314471793137571e-01   2.9158037491578981e-01   3.2009705533132715e-01   3.0697462548792226e-01   3.3689346418191773e-01   3.2154534387453720e-01   3.5284733698034321e-01   3.3432746554968440e-01   3.6716732684623410e-01   3.4480388683417046e-01   3.7936100507449283e-01   3.5281522748401956e-01   3.8919271827866264e-01   3.5821191818991494e-01   3.9643550565546165e-01   3.6057242304082054e-01   4.0067049681026207e-01   3.5935019376763783e-01   4.0139543022057766e-01   3.5379823152113038e-01   3.9783660603226156e-01   3.4245464946143250e-01   3.8834540109578958e-01   3.2413974151508690e-01   3.7179751753236301e-01   2.9902302803748787e-01   3.4853702159553540e-01   2.6856576962413314e-01   3.2000916916406846e-01   2.3420526234991818e-01   2.8745968175143538e-01   2.0991844627110709e-01   2.5195222622267721e-01   1.7867608314295563e-01   2.2714574196776918e-01   1.5988443198098776e-01   1.9685412860536769e-01   1.3715455043212771e-01   1.7028967067471001e-01   1.1637996765560317e-01   1.6002390918841922e-01   9.7320252716279088e-02   1.4205731774049510e-01   9.0101656264458735e-02   1.2550074209785406e-01   0.0000000000000000e+00   1.0539892539319669e-01   0.0000000000000000e+00   9.5477821707133981e-02   0.0000000000000000e+00   0.0000000000000000e+00   0.0000000000000000e+00   0.0000000000000000e+00   0.0000000000000000e+00   0.0000000000000000e+00   0.0000000000000000e+00   0.0000000000000000e+00   0.0000000000000000e+00   0.0000000000000000e+00   0.0000000000000000e+00   0.0000000000000000e+00   0.0000000000000000e+00   0.0000000000000000e+00   0.0000000000000000e+00   0.0000000000000000e+00   0.0000000000000000e+00   0.0000000000000000e+00   0.0000000000000000e+00   0.0000000000000000e+00   0.0000000000000000e+00   0.0000000000000000e+00   0.0000000000000000e+00   0.0000000000000000e+00   0.0000000000000000e+00   0.0000000000000000e+00   0.0000000000000000e+00   0.0000000000000000e+00   0.0000000000000000e+00   0.0000000000000000e+00   0.0000000000000000e+00   0.0000000000000000e+00   0.0000000000000000e+00   0.0000000000000000e+00   0.0000000000000000e+00   0.0000000000000000e+00   0.0000000000000000e+00   0.0000000000000000e+00   0.0000000000000000e+00   0.0000000000000000e+00   0.0000000000000000e+00   0.0000000000000000e+00   0.0000000000000000e+00   0.0000000000000000e+00   0.0000000000000000e+00   0.0000000000000000e+00   0.0000000000000000e+00   0.0000000000000000e+00   0.0000000000000000e+00   0.0000000000000000e+00   2.3008990271569454e-01   1.7131146935448022e-01   2.2947490872046683e-01   1.7203540148032712e-01   2.3182811496824623e-01   1.7604824702030575e-01   2.3446295188661589e-01   1.7853437058602598e-01   2.3685220780351252e-01   1.8086464273627775e-01   2.3833801929609572e-01   1.8351949985683186e-01   2.4257364946238918e-01   1.8690087964606367e-01   2.4333639101857232e-01   1.8920403443510000e-01   2.4566015082182077e-01   1.9204989300753939e-01   2.4137954547304868e-01   1.8063286596668884e-01   2.4982810513013107e-01   1.9740720933994066e-01   2.5349546626401531e-01   1.8923436349859574e-01   2.5602048250348214e-01   1.9231947589973294e-01   2.5902584493023112e-01   1.9522754770258616e-01   2.6278863934777130e-01   1.9790403167794690e-01   2.6629642780468993e-01   2.0043859419183710e-01   2.6678133038047980e-01   2.0270780143715841e-01   2.6485293916557290e-01   2.0531257169216532e-01   2.5999912823226440e-01   2.0774436763708842e-01   2.5654439688958502e-01   2.1055081100053641e-01   2.6168614782309579e-01   2.1295200064776174e-01   2.7005274381893862e-01   2.1635353435675428e-01   2.6470017159565717e-01   2.1408679018275811e-01   2.5776410322680299e-01   2.1431525163057979e-01   2.5263642173600181e-01   2.2678526488836329e-01   2.5176171531166841e-01   2.2738558321818109e-01   2.5107307746356916e-01   2.2777234283546086e-01   2.4023201429740837e-01   2.2847811536826537e-01   2.3100809200490821e-01   2.2813207968861354e-01   2.2643349070615562e-01   2.2930211796825961e-01   2.2500949299296280e-01   2.2946337076965526e-01   2.2792320947002725e-01   2.3021970056129673e-01   2.2911363969380213e-01   2.2981957322677118e-01   2.2259805547045836e-01   2.2734036032587457e-01   2.1376062223620509e-01   2.2603369275286608e-01   2.1157127996394609e-01   2.2404326857606238e-01   2.0882882606312242e-01   2.1876108981749642e-01   2.0685590704744269e-01   2.2143154456645794e-01   2.1407103282266979e-01   2.1736033623441725e-01   2.1137324538038912e-01   2.1021820843504280e-01   2.0569040813233549e-01   2.0561692149811364e-01   2.0002651374342986e-01   2.0296301050615490e-01   1.9555093647248592e-01   2.0131648235964658e-01   1.9135150302099974e-01   2.0008505764521073e-01   1.8733357811988985e-01   1.9901876519975384e-01   1.8364686303749594e-01   1.9799680383334914e-01   1.8010353189902711e-01   1.9687004490807936e-01   1.7646328996469299e-01   1.9588544426886872e-01   1.7241248359982536e-01   1.9478285045602037e-01   1.7004369211875722e-01   1.9362291439297308e-01   1.6678385829972103e-01   1.9230997367360786e-01   1.6418856339319818e-01   1.9159794330015256e-01   1.6335244838604585e-01   1.8991966249195830e-01   1.6222397603137290e-01   1.8488918799005394e-01   1.5935468587508625e-01   1.8487757112335376e-01   1.6171536465475025e-01   1.8497838226752433e-01   1.6214134257828058e-01   1.8550560711300834e-01   1.6441686371846362e-01   1.8750076244995248e-01   1.6292780310391763e-01   1.9221900583798937e-01   1.6698503104418247e-01   1.9751643803325447e-01   1.7186342715159275e-01   2.0288625743150596e-01   1.7700600551426973e-01   2.0818396457338270e-01   1.8341226946898290e-01   2.1670402212618048e-01   1.9023561782913151e-01   2.2345683985857456e-01   1.9116750018405354e-01   2.3307315703855752e-01   2.0193507657113161e-01   2.4472132101624228e-01   2.1451441948614067e-01   2.5780044814509367e-01   2.2877506099431733e-01   2.7248924264522528e-01   2.4429836819417536e-01   2.8858133029126587e-01   2.6058869070452212e-01   3.0544146006417128e-01   2.7724856970348616e-01   3.2268149255010159e-01   2.9367369026426549e-01   3.3973112097350422e-01   3.0912847282384281e-01   3.5593711806683997e-01   3.2306175985056290e-01   3.7079057548446342e-01   3.3507851172932990e-01   3.8386292367674113e-01   3.4483968699291645e-01   3.9477744474395682e-01   3.5196637389073798e-01   4.0310554432381784e-01   3.5597311586244024e-01   4.0835707415806116e-01   3.5654821015856358e-01   4.1030493129215323e-01   3.5285614634407464e-01   4.0810356376467505e-01   3.4145437919502047e-01   3.9781942063994596e-01   3.2064738892553279e-01   3.7827288280710863e-01   2.9223059793253392e-01   3.5145122756349101e-01   2.5915463754925366e-01   3.2006907642526239e-01   2.2418040563322567e-01   2.8710935965343565e-01   2.0097226672951363e-01   2.5080922665373512e-01   1.6919837868424906e-01   2.2524943514982698e-01   1.5281120873812354e-01   1.9542753450839107e-01   1.3126596135187305e-01   1.6985515752064698e-01   1.1274114348438588e-01   1.6206917585783398e-01   9.5684823088341364e-02   1.4602966492888256e-01   8.8194741875403118e-02   1.2861441940166207e-01   0.0000000000000000e+00   1.1250919772574601e-01   0.0000000000000000e+00   1.0081720221494428e-01   0.0000000000000000e+00   0.0000000000000000e+00   0.0000000000000000e+00   0.0000000000000000e+00   0.0000000000000000e+00   0.0000000000000000e+00   0.0000000000000000e+00   0.0000000000000000e+00   0.0000000000000000e+00   0.0000000000000000e+00   0.0000000000000000e+00   0.0000000000000000e+00   0.0000000000000000e+00   0.0000000000000000e+00   0.0000000000000000e+00   0.0000000000000000e+00   0.0000000000000000e+00   0.0000000000000000e+00   0.0000000000000000e+00   0.0000000000000000e+00   0.0000000000000000e+00   0.0000000000000000e+00   0.0000000000000000e+00   0.0000000000000000e+00   0.0000000000000000e+00   0.0000000000000000e+00   0.0000000000000000e+00   0.0000000000000000e+00   0.0000000000000000e+00   0.0000000000000000e+00   0.0000000000000000e+00   0.0000000000000000e+00   0.0000000000000000e+00   0.0000000000000000e+00   0.0000000000000000e+00   0.0000000000000000e+00   0.0000000000000000e+00   0.0000000000000000e+00   0.0000000000000000e+00   0.0000000000000000e+00   0.0000000000000000e+00   0.0000000000000000e+00   0.0000000000000000e+00   0.0000000000000000e+00   0.0000000000000000e+00   0.0000000000000000e+00   0.0000000000000000e+00   0.0000000000000000e+00   2.3674908883239260e-01   1.9752627233403516e-01   2.2840471646652724e-01   1.9149713224327428e-01   2.2854061252702693e-01   1.9146513054982817e-01   2.3084529559193412e-01   1.9322359452019391e-01   2.3276213633415321e-01   1.9534278112126663e-01   2.3366207885241699e-01   1.9738755578186612e-01   2.3501089180512288e-01   1.9968772295346218e-01   2.3455800620020736e-01   2.0200053968749102e-01   2.3250251244331005e-01   2.0428381187801073e-01   2.3832776095525762e-01   2.0633705623672133e-01   2.3566558382837685e-01   2.0951317395327967e-01   2.4123563014079649e-01   2.1326279720746383e-01   2.4312851570614102e-01   2.1601737886585085e-01   2.4603814665072346e-01   2.1898418206598291e-01   2.4877038893751161e-01   2.2164562275539640e-01   2.5030831336676934e-01   2.2390053529304041e-01   2.4932705966323612e-01   2.2568412507103183e-01   2.4653388091293485e-01   2.2737236034663152e-01   2.4392757360222719e-01   2.2941094475620000e-01   2.4407897056717115e-01   2.3147631532347138e-01   2.4704860226753625e-01   2.3303698221080052e-01   2.5143806727479434e-01   2.3551195654529489e-01   2.5163451927426206e-01   2.3681610768494049e-01   2.5151492328888064e-01   2.3584889807271595e-01   2.4350913680799424e-01   2.3489355874090209e-01   2.4132481824455246e-01   2.3487348638187336e-01   2.3629517126970664e-01   2.3457046808842111e-01   2.2789845741513087e-01   2.3456984247581544e-01   2.2179730710827938e-01   2.3435955518384508e-01   2.1780731683480328e-01   2.3407255740529403e-01   2.1684650982123896e-01   2.3429108730136722e-01   2.1711849467415237e-01   2.3431905278611120e-01   2.1600695693442667e-01   2.3308250236343356e-01   2.1128361285318978e-01   2.3286914587308488e-01   2.0699581042271376e-01   2.3295548630118379e-01   2.0420816546815410e-01   2.2732365326390433e-01   2.1089059111384392e-01   2.2566126881541759e-01   2.0643421875720327e-01   2.1961773287060912e-01   2.0435239578043060e-01   2.1672417240808220e-01   2.0170384751082970e-01   2.1517772476044925e-01   1.9655702943698070e-01   2.1340596055668279e-01   1.9091308896001977e-01   2.1190649760602259e-01   1.8594177802803830e-01   2.1079799091381732e-01   1.8166303064848643e-01   2.1016004373578420e-01   1.7765805303036100e-01   2.0978572671927231e-01   1.7365935116619924e-01   2.0909861698250309e-01   1.6946665759647320e-01   2.0816097137393616e-01   1.6506180621245597e-01   2.0724208095876526e-01   1.6388852927755132e-01   2.0586463513577971e-01   1.5983048047747653e-01   2.0482273398139678e-01   1.5596459098725812e-01   2.0298550433178913e-01   1.5222022855831535e-01   2.0282070303539149e-01   1.4659200710714923e-01   1.9941872073808475e-01   1.4589385036259539e-01   1.9980276608415964e-01   1.4286391355689335e-01   1.9879064878138589e-01   1.4325253317454772e-01   1.9847591288852523e-01   1.4366996742280386e-01   1.9869826754695638e-01   1.4463732106786631e-01   1.9910449915894554e-01   1.4665189220705338e-01   2.0101212539336841e-01   1.4910682855185683e-01   2.0180219881901207e-01   1.5285571455870281e-01   2.0404909084360584e-01   1.5767468360186135e-01   2.0716708246946172e-01   1.5773158672727611e-01   2.1403119521615391e-01   1.6369853201417556e-01   2.1944844652321899e-01   1.7072549387140618e-01   2.2606654525813943e-01   1.7982655048198765e-01   2.3656034219928918e-01   1.8075482665680256e-01   2.4659708214243750e-01   1.9437493893402097e-01   2.5920938975400815e-01   2.0972350941593024e-01   2.7398560152482959e-01   2.2633078223787817e-01   2.8991681092407973e-01   2.4379308037645686e-01   3.0687370290252813e-01   2.6161303179321627e-01   3.2434382040421489e-01   2.7915896377777250e-01   3.4167862199978705e-01   2.9595356483070506e-01   3.5845024956095667e-01   3.1153970145819165e-01   3.7418172243903758e-01   3.2545539965508352e-01   3.8838193423793643e-01   3.3723172906467469e-01   4.0055907432900217e-01   3.4628446437228494e-01   4.1005084742180603e-01   3.5201220605758948e-01   4.1617065451962432e-01   3.5500292827029933e-01   4.1989469488599263e-01   3.5490482685260888e-01   4.2080911050622677e-01   3.4174481573153015e-01   4.0762826070605940e-01   3.1511248562248573e-01   3.8197957836861957e-01   2.8113181126415021e-01   3.4968015604350283e-01   2.4962405336715734e-01   3.2028080705132106e-01   2.1706879380925323e-01   2.8952772255741405e-01   1.9278282406583952e-01   2.5060076678998133e-01   1.5884602745337878e-01   2.2291394952659929e-01   1.4386243767107396e-01   1.9205930319078002e-01   1.2426489990905722e-01   1.6858150941593436e-01   1.0717674304638938e-01   1.6215317700570711e-01   9.0712925963589736e-02   1.4596157953945738e-01   8.5378649975252241e-02   1.2958552963629272e-01   0.0000000000000000e+00   1.1636763006496108e-01   0.0000000000000000e+00   1.0545052728906738e-01   0.0000000000000000e+00   7.5552575451178300e-02   0.0000000000000000e+00   0.0000000000000000e+00   0.0000000000000000e+00   0.0000000000000000e+00   0.0000000000000000e+00   0.0000000000000000e+00   0.0000000000000000e+00   0.0000000000000000e+00   0.0000000000000000e+00   0.0000000000000000e+00   0.0000000000000000e+00   0.0000000000000000e+00   0.0000000000000000e+00   0.0000000000000000e+00   0.0000000000000000e+00   0.0000000000000000e+00   0.0000000000000000e+00   0.0000000000000000e+00   0.0000000000000000e+00   0.0000000000000000e+00   0.0000000000000000e+00   0.0000000000000000e+00   0.0000000000000000e+00   0.0000000000000000e+00   0.0000000000000000e+00   0.0000000000000000e+00   0.0000000000000000e+00   0.0000000000000000e+00   0.0000000000000000e+00   0.0000000000000000e+00   0.0000000000000000e+00   0.0000000000000000e+00   0.0000000000000000e+00   0.0000000000000000e+00   0.0000000000000000e+00   0.0000000000000000e+00   0.0000000000000000e+00   0.0000000000000000e+00   0.0000000000000000e+00   0.0000000000000000e+00   0.0000000000000000e+00   0.0000000000000000e+00   0.0000000000000000e+00   0.0000000000000000e+00   2.1665272474581670e-01   2.1780184838643377e-01   2.1664734189842957e-01   2.1917623710426193e-01   2.1503792567521204e-01   2.1784061372475200e-01   2.1548360760659824e-01   2.1805720268118181e-01   2.1647591082443227e-01   2.1942852991184922e-01   2.1693176656205576e-01   2.2103773755173065e-01   2.1719565667694521e-01   2.2270255023982119e-01   2.1708265071177726e-01   2.2459137627878006e-01   2.1778672775356570e-01   2.2680584127389042e-01   2.2059807912657645e-01   2.2910780804634814e-01   2.2146321844629235e-01   2.3214995154366830e-01   2.2452628842147004e-01   2.3456749425392659e-01   2.2667866271184214e-01   2.3748204410687507e-01   2.2869057067700052e-01   2.3999117879916576e-01   2.3021861156118162e-01   2.4227246819507040e-01   2.3047503915431933e-01   2.4416932892165094e-01   2.2914490595038439e-01   2.4571441962141838e-01   2.2711126373116383e-01   2.4714009866067063e-01   2.2612199615744777e-01   2.4873965091130637e-01   2.2720252236530353e-01   2.5034089492591016e-01   2.2887157563499602e-01   2.5157721218523110e-01   2.3053051252668508e-01   2.5296339971794551e-01   2.3079338632402843e-01   2.5416747228887782e-01   2.2884394094038160e-01   2.5404226306213945e-01   2.2250645849330603e-01   2.5298464319665237e-01   2.1736196882290085e-01   2.5175004828891079e-01   2.1113502107297438e-01   2.5107212797621792e-01   2.0425707027635331e-01   2.5050172980014407e-01   1.9957025763070255e-01   2.4996982533365200e-01   1.9645896546299699e-01   2.4891255607283047