<?xml version="1.0"?>
<VTKFile type="UnstructuredGrid"  version="0.1"  >
<UnstructuredGrid>
<Piece  NumberOfPoints="2309" NumberOfCells="4411">
<Points>
<DataArray  type="Float64"  NumberOfComponents="3"  format="ascii">1.809130434782608 0 0  1.817391304347826 0 0  1.817391304347826 0.008333333333333333 0  1.825652173913043 0 0  1.825652173913043 0.008333333333333333 0  1.833913043478261 0 0  1.833913043478261 0.008333333333333333 0  1.842173913043478 0 0  1.842173913043478 0.008333333333333333 0  1.850434782608696 0 0  1.850434782608696 0.008333333333333333 0  1.858695652173913 0 0  1.858695652173913 0.008333333333333333 0  1.86695652173913 0 0  1.86695652173913 0.008333333333333333 0  1.875217391304348 0 0  1.875217391304348 0.008333333333333333 0  1.883478260869565 0 0  1.883478260869565 0.008333333333333333 0  1.891739130434782 0 0  1.891739130434782 0.008333333333333333 0  1.9 0 0  1.9 0.008333333333333333 0  1.908260869565217 0 0  1.908260869565217 0.008333333333333333 0  1.916521739130435 0 0  1.916521739130435 0.008333333333333333 0  1.924782608695652 0 0  1.924782608695652 0.008333333333333333 0  1.933043478260869 0 0  1.933043478260869 0.008333333333333333 0  1.941304347826087 0 0  1.941304347826087 0.008333333333333333 0  1.949565217391304 0 0  1.949565217391304 0.008333333333333333 0  1.957826086956522 0 0  1.957826086956522 0.008333333333333333 0  1.966086956521739 0 0  1.966086956521739 0.008333333333333333 0  1.974347826086956 0 0  1.974347826086956 0.008333333333333333 0  1.982608695652174 0 0  1.982608695652174 0.008333333333333333 0  1.990869565217391 0 0  1.990869565217391 0.008333333333333333 0  1.999130434782608 0 0  1.999130434782608 0.008333333333333333 0  2.007391304347826 0 0  2.007391304347826 0.008333333333333333 0  2.015652173913043 0 0  2.015652173913043 0.008333333333333333 0  2.023913043478261 0 0  2.023913043478261 0.008333333333333333 0  2.032173913043478 0 0  2.032173913043478 0.008333333333333333 0  2.040434782608695 0 0  2.040434782608695 0.008333333333333333 0  2.048695652173913 0 0  2.048695652173913 0.008333333333333333 0  2.05695652173913 0 0  2.05695652173913 0.008333333333333333 0  2.065217391304348 0 0  2.065217391304348 0.008333333333333333 0  2.073478260869565 0 0  2.073478260869565 0.008333333333333333 0  2.081739130434782 0 0  2.081739130434782 0.008333333333333333 0  2.09 0 0  2.09 0.008333333333333333 0  2.098260869565217 0 0  2.098260869565217 0.008333333333333333 0  2.106521739130435 0 0  2.106521739130435 0.008333333333333333 0  2.114782608695652 0 0  2.114782608695652 0.008333333333333333 0  2.12304347826087 0 0  2.12304347826087 0.008333333333333333 0  2.131304347826087 0 0  2.131304347826087 0.008333333333333333 0  2.139565217391304 0 0  2.139565217391304 0.008333333333333333 0  2.147826086956522 0 0  2.147826086956522 0.008333333333333333 0  2.156086956521739 0 0  2.156086956521739 0.008333333333333333 0  2.164347826086956 0 0  2.164347826086956 0.008333333333333333 0  2.172608695652174 0 0  2.172608695652174 0.008333333333333333 0  2.180869565217391 0 0  2.180869565217391 0.008333333333333333 0  2.189130434782609 0 0  2.189130434782609 0.008333333333333333 0  2.197391304347826 0 0  2.197391304347826 0.008333333333333333 0  2.205652173913043 0 0  2.205652173913043 0.008333333333333333 0  2.213913043478261 0 0  2.213913043478261 0.008333333333333333 0  2.222173913043478 0 0  2.222173913043478 0.008333333333333333 0  2.230434782608695 0 0  2.230434782608695 0.008333333333333333 0  2.238695652173913 0 0  2.238695652173913 0.008333333333333333 0  2.24695652173913 0 0  2.24695652173913 0.008333333333333333 0  2.255217391304348 0 0  2.255217391304348 0.008333333333333333 0  2.263478260869565 0 0  2.263478260869565 0.008333333333333333 0  2.271739130434783 0 0  2.271739130434783 0.008333333333333333 0  2.28 0 0  2.28 0.008333333333333333 0  2.288260869565217 0 0  2.288260869565217 0.008333333333333333 0  2.296521739130434 0 0  2.296521739130434 0.008333333333333333 0  2.304782608695652 0 0  2.304782608695652 0.008333333333333333 0  2.31304347826087 0 0  2.31304347826087 0.008333333333333333 0  2.321304347826087 0 0  2.321304347826087 0.008333333333333333 0  2.329565217391304 0 0  2.329565217391304 0.008333333333333333 0  1.825652173913043 0.01666666666666667 0  1.817391304347826 0.01666666666666667 0  1.833913043478261 0.01666666666666667 0  1.842173913043478 0.01666666666666667 0  1.850434782608696 0.01666666666666667 0  1.858695652173913 0.01666666666666667 0  1.86695652173913 0.01666666666666667 0  1.875217391304348 0.01666666666666667 0  1.883478260869565 0.01666666666666667 0  1.891739130434782 0.01666666666666667 0  1.9 0.01666666666666667 0  1.908260869565217 0.01666666666666667 0  1.916521739130435 0.01666666666666667 0  1.924782608695652 0.01666666666666667 0  1.933043478260869 0.01666666666666667 0  1.941304347826087 0.01666666666666667 0  1.949565217391304 0.01666666666666667 0  1.957826086956522 0.01666666666666667 0  1.966086956521739 0.01666666666666667 0  1.974347826086956 0.01666666666666667 0  1.982608695652174 0.01666666666666667 0  1.990869565217391 0.01666666666666667 0  1.999130434782608 0.01666666666666667 0  2.007391304347826 0.01666666666666667 0  2.015652173913043 0.01666666666666667 0  2.023913043478261 0.01666666666666667 0  2.032173913043478 0.01666666666666667 0  2.040434782608695 0.01666666666666667 0  2.048695652173913 0.01666666666666667 0  2.05695652173913 0.01666666666666667 0  2.065217391304348 0.01666666666666667 0  2.073478260869565 0.01666666666666667 0  2.081739130434782 0.01666666666666667 0  2.09 0.01666666666666667 0  2.098260869565217 0.01666666666666667 0  2.106521739130435 0.01666666666666667 0  2.114782608695652 0.01666666666666667 0  2.12304347826087 0.01666666666666667 0  2.131304347826087 0.01666666666666667 0  2.139565217391304 0.01666666666666667 0  2.147826086956522 0.01666666666666667 0  2.156086956521739 0.01666666666666667 0  2.164347826086956 0.01666666666666667 0  2.172608695652174 0.01666666666666667 0  2.180869565217391 0.01666666666666667 0  2.189130434782609 0.01666666666666667 0  2.197391304347826 0.01666666666666667 0  2.205652173913043 0.01666666666666667 0  2.213913043478261 0.01666666666666667 0  2.222173913043478 0.01666666666666667 0  2.230434782608695 0.01666666666666667 0  2.238695652173913 0.01666666666666667 0  2.24695652173913 0.01666666666666667 0  2.255217391304348 0.01666666666666667 0  2.263478260869565 0.01666666666666667 0  2.271739130434783 0.01666666666666667 0  2.28 0.01666666666666667 0  2.288260869565217 0.01666666666666667 0  2.296521739130434 0.01666666666666667 0  2.304782608695652 0.01666666666666667 0  2.31304347826087 0.01666666666666667 0  2.321304347826087 0.01666666666666667 0  2.329565217391304 0.01666666666666667 0  2.337826086956521 0.01666666666666667 0  1.825652173913043 0.025 0  1.817391304347826 0.025 0  1.833913043478261 0.025 0  1.842173913043478 0.025 0  1.850434782608696 0.025 0  1.858695652173913 0.025 0  1.86695652173913 0.025 0  1.875217391304348 0.025 0  1.883478260869565 0.025 0  1.891739130434782 0.025 0  1.9 0.025 0  1.908260869565217 0.025 0  1.916521739130435 0.025 0  1.924782608695652 0.025 0  1.933043478260869 0.025 0  1.941304347826087 0.025 0  1.949565217391304 0.025 0  1.957826086956522 0.025 0  1.966086956521739 0.025 0  1.974347826086956 0.025 0  1.982608695652174 0.025 0  1.990869565217391 0.025 0  1.999130434782608 0.025 0  2.007391304347826 0.025 0  2.015652173913043 0.025 0  2.023913043478261 0.025 0  2.032173913043478 0.025 0  2.040434782608695 0.025 0  2.048695652173913 0.025 0  2.05695652173913 0.025 0  2.065217391304348 0.025 0  2.073478260869565 0.025 0  2.081739130434782 0.025 0  2.09 0.025 0  2.098260869565217 0.025 0  2.106521739130435 0.025 0  2.114782608695652 0.025 0  2.12304347826087 0.025 0  2.131304347826087 0.025 0  2.139565217391304 0.025 0  2.147826086956522 0.025 0  2.156086956521739 0.025 0  2.164347826086956 0.025 0  2.172608695652174 0.025 0  2.180869565217391 0.025 0  2.189130434782609 0.025 0  2.197391304347826 0.025 0  2.205652173913043 0.025 0  2.213913043478261 0.025 0  2.222173913043478 0.025 0  2.230434782608695 0.025 0  2.238695652173913 0.025 0  2.24695652173913 0.025 0  2.255217391304348 0.025 0  2.263478260869565 0.025 0  2.271739130434783 0.025 0  2.28 0.025 0  2.288260869565217 0.025 0  2.296521739130434 0.025 0  2.304782608695652 0.025 0  2.31304347826087 0.025 0  2.321304347826087 0.025 0  2.329565217391304 0.025 0  2.337826086956521 0.025 0  2.346086956521739 0.025 0  1.825652173913043 0.03333333333333333 0  1.817391304347826 0.03333333333333333 0  1.833913043478261 0.03333333333333333 0  1.842173913043478 0.03333333333333333 0  1.850434782608696 0.03333333333333333 0  1.858695652173913 0.03333333333333333 0  1.86695652173913 0.03333333333333333 0  1.875217391304348 0.03333333333333333 0  1.883478260869565 0.03333333333333333 0  1.891739130434782 0.03333333333333333 0  1.9 0.03333333333333333 0  1.908260869565217 0.03333333333333333 0  1.916521739130435 0.03333333333333333 0  1.924782608695652 0.03333333333333333 0  1.933043478260869 0.03333333333333333 0  1.941304347826087 0.03333333333333333 0  1.949565217391304 0.03333333333333333 0  1.957826086956522 0.03333333333333333 0  1.966086956521739 0.03333333333333333 0  1.974347826086956 0.03333333333333333 0  1.982608695652174 0.03333333333333333 0  1.990869565217391 0.03333333333333333 0  1.999130434782608 0.03333333333333333 0  2.007391304347826 0.03333333333333333 0  2.015652173913043 0.03333333333333333 0  2.023913043478261 0.03333333333333333 0  2.032173913043478 0.03333333333333333 0  2.040434782608695 0.03333333333333333 0  2.048695652173913 0.03333333333333333 0  2.05695652173913 0.03333333333333333 0  2.065217391304348 0.03333333333333333 0  2.073478260869565 0.03333333333333333 0  2.081739130434782 0.03333333333333333 0  2.09 0.03333333333333333 0  2.098260869565217 0.03333333333333333 0  2.106521739130435 0.03333333333333333 0  2.11478260869565
[...]
<CellData  Scalars="rho"> 
<DataArray  type="Float64"  Name="rho"  format="ascii">0.0000000000000000e+00   3.4402787349749508e-01   0.0000000000000000e+00   3.5312826482239640e-01   0.0000000000000000e+00   3.5530399166856730e-01   0.0000000000000000e+00   3.4209529109343861e-01   0.0000000000000000e+00   3.2401948372177741e-01   0.0000000000000000e+00   3.0476656102295613e-01   0.0000000000000000e+00   2.9258847193046233e-01   0.0000000000000000e+00   3.1262731564647467e-01   0.0000000000000000e+00   3.1389029893029990e-01   0.0000000000000000e+00   3.0502263731558377e-01   0.0000000000000000e+00   3.3097940250955282e-01   0.0000000000000000e+00   3.1703367715541292e-01   0.0000000000000000e+00   3.2100560202183026e-01   0.0000000000000000e+00   3.2223973127104849e-01   0.0000000000000000e+00   3.2232966063941659e-01   0.0000000000000000e+00   3.2113172009332519e-01   0.0000000000000000e+00   3.2203967967945907e-01   0.0000000000000000e+00   3.2396901035397413e-01   0.0000000000000000e+00   3.2766104804245494e-01   0.0000000000000000e+00   3.3046337560060890e-01   0.0000000000000000e+00   3.3425455207099003e-01   0.0000000000000000e+00   3.3751048576130332e-01   0.0000000000000000e+00   3.4208218876743351e-01   0.0000000000000000e+00   3.3473274516261464e-01   0.0000000000000000e+00   3.3470783644758861e-01   0.0000000000000000e+00   3.1970300438120525e-01   0.0000000000000000e+00   3.1115388137625649e-01   0.0000000000000000e+00   4.6475342703177575e-01   0.0000000000000000e+00   3.3517957346880894e-01   0.0000000000000000e+00   3.3874930248399893e-01   0.0000000000000000e+00   3.2634634428048942e-01   0.0000000000000000e+00   2.6324913692636359e-01   0.0000000000000000e+00   8.1192728341485976e-01   0.0000000000000000e+00   2.7739441496066031e-01   0.0000000000000000e+00   2.7840659102633336e-01   0.0000000000000000e+00   3.3230519269859499e-01   0.0000000000000000e+00   3.8525302922203941e-01   0.0000000000000000e+00   4.1367763837404342e-01   0.0000000000000000e+00   3.6387170378496470e-01   0.0000000000000000e+00   3.5625673997773949e-01   0.0000000000000000e+00   3.3608944974286065e-01   0.0000000000000000e+00   3.4070665188387050e-01   0.0000000000000000e+00   2.9094646969958438e-01   0.0000000000000000e+00   2.7517727398172426e-01   0.0000000000000000e+00   1.0000000000000000e+00   0.0000000000000000e+00   2.6632427256434665e-01   0.0000000000000000e+00   2.8081439829868782e-01   0.0000000000000000e+00   2.9593695755463334e-01   0.0000000000000000e+00   3.7024276414108742e-01   0.0000000000000000e+00   3.7205172886100274e-01   0.0000000000000000e+00   4.1013782012439182e-01   0.0000000000000000e+00   4.6620786757064631e-01   0.0000000000000000e+00   5.1146943709876702e-01   0.0000000000000000e+00   5.5114369080658099e-01   0.0000000000000000e+00   5.6724946810588150e-01   0.0000000000000000e+00   5.6846216134746552e-01   0.0000000000000000e+00   5.6811179349656149e-01   0.0000000000000000e+00   5.6304621209790540e-01   0.0000000000000000e+00   4.9191737424685267e-01   0.0000000000000000e+00   4.4182960163680995e-01   0.0000000000000000e+00   3.8941471658884363e-01   0.0000000000000000e+00   3.5382423254097833e-01   0.0000000000000000e+00   3.1406535354790249e-01   0.0000000000000000e+00   3.0373611923886334e-01   0.0000000000000000e+00   3.0168469601701148e-01   0.0000000000000000e+00   2.7581467708963830e-01   0.0000000000000000e+00   2.3568733925014149e-01   0.0000000000000000e+00   2.0728475224864579e-01   0.0000000000000000e+00   1.6636763029282342e-01   0.0000000000000000e+00   3.2411310564322315e-01   0.0000000000000000e+00   1.3165001119730319e-01   0.0000000000000000e+00   1.1698361104367633e-01   0.0000000000000000e+00   2.6393326794420241e-01   0.0000000000000000e+00   3.2188937853589866e-01   0.0000000000000000e+00   4.4088229723107047e-01   0.0000000000000000e+00   3.7884139034168696e-01   0.0000000000000000e+00   3.7074090632792284e-01   0.0000000000000000e+00   3.4813223728238213e-01   0.0000000000000000e+00   3.3743831824463666e-01   0.0000000000000000e+00   2.3097082102720992e-01   0.0000000000000000e+00   1.8614854502878619e-01   0.0000000000000000e+00   1.2641299765398836e-01   0.0000000000000000e+00   1.5838928348354114e-01   0.0000000000000000e+00   1.1398147948777222e-01   0.0000000000000000e+00   8.4823815841141764e-02   0.0000000000000000e+00   2.7511992333469071e-03   0.0000000000000000e+00   0.0000000000000000e+00   0.0000000000000000e+00   1.3912453167774785e-04   0.0000000000000000e+00   0.0000000000000000e+00   0.0000000000000000e+00   0.0000000000000000e+00   0.0000000000000000e+00   0.0000000000000000e+00   0.0000000000000000e+00   2.7820305380156951e-02   0.0000000000000000e+00   0.0000000000000000e+00   2.8406610804916632e-03   0.0000000000000000e+00   0.0000000000000000e+00   6.5834012206331316e-01   0.0000000000000000e+00   6.8615738410123617e-01   0.0000000000000000e+00   6.2204101421584168e-01   0.0000000000000000e+00   5.9384372226192028e-01   0.0000000000000000e+00   4.6322214680893736e-01   0.0000000000000000e+00   4.3927005110377837e-01   0.0000000000000000e+00   4.2759327228055760e-01   0.0000000000000000e+00   4.4012791911050830e-01   0.0000000000000000e+00   3.7131441572405988e-01   0.0000000000000000e+00   3.6253854320204548e-01   0.0000000000000000e+00   3.5423911086906057e-01   0.0000000000000000e+00   3.4639248116183613e-01   0.0000000000000000e+00   3.3485807505181037e-01   0.0000000000000000e+00   3.2215038983875527e-01   0.0000000000000000e+00   3.2611151534570787e-01   0.0000000000000000e+00   3.2477976862052121e-01   0.0000000000000000e+00   3.2685009487333383e-01   0.0000000000000000e+00   3.3384248669836358e-01   0.0000000000000000e+00   3.4239198924024739e-01   0.0000000000000000e+00   3.3713485788478292e-01   0.0000000000000000e+00   3.2690226096971442e-01   0.0000000000000000e+00   3.2074599256182912e-01   0.0000000000000000e+00   3.2589307408779522e-01   0.0000000000000000e+00   3.2837615889661448e-01   0.0000000000000000e+00   3.2516668335824872e-01   0.0000000000000000e+00   3.2405915650334699e-01   0.0000000000000000e+00   3.3178647644970027e-01   0.0000000000000000e+00   3.4362661858641996e-01   0.0000000000000000e+00   3.1608875770919947e-01   0.0000000000000000e+00   3.2451871242387031e-01   0.0000000000000000e+00   3.2557261834015322e-01   0.0000000000000000e+00   3.1341192522966299e-01   0.0000000000000000e+00   3.1106106192468741e-01   0.0000000000000000e+00   3.1092590053410196e-01   0.0000000000000000e+00   3.1513891085377427e-01   0.0000000000000000e+00   3.2150447314706543e-01   0.0000000000000000e+00   3.2348389494933688e-01   0.0000000000000000e+00   3.2068181156251502e-01   0.0000000000000000e+00   3.3126374730336633e-01   0.0000000000000000e+00   3.3213640997473387e-01   0.0000000000000000e+00   3.2412670879454530e-01   0.0000000000000000e+00   3.2569486212379928e-01   0.0000000000000000e+00   3.0543626782944205e-01   0.0000000000000000e+00   2.7820995520496833e-01   0.0000000000000000e+00   5.0415029479099804e-01   0.0000000000000000e+00   2.8805411046800400e-01   0.0000000000000000e+00   3.0811314588076721e-01   0.0000000000000000e+00   2.9528564595756807e-01   0.0000000000000000e+00   3.0238828847774846e-01   0.0000000000000000e+00   8.6488139231368455e-01   0.0000000000000000e+00   2.2145121407507204e-01   0.0000000000000000e+00   2.7367383194073819e-01   0.0000000000000000e+00   3.3746764240900029e-01   0.0000000000000000e+00   3.7615230177957315e-01   0.0000000000000000e+00   4.1559335710040052e-01   0.0000000000000000e+00   3.5336269526574454e-01   0.0000000000000000e+00   3.6106447365453154e-01   0.0000000000000000e+00   3.2551235205179374e-01   0.0000000000000000e+00   3.3077895454983686e-01   0.0000000000000000e+00   2.8461434318387752e-01   0.0000000000000000e+00   2.0691605052534062e-01   0.0000000000000000e+00   1.0000000000000000e+00   0.0000000000000000e+00   2.8675164314887175e-01   0.0000000000000000e+00   3.4814809271289882e-01   0.0000000000000000e+00   3.8082652448401161e-01   0.0000000000000000e+00   4.2728004473019809e-01   0.0000000000000000e+00   4.2633928650113428e-01   0.0000000000000000e+00   4.5992451027260900e-01   0.0000000000000000e+00   5.0732329012961908e-01   0.0000000000000000e+00   5.3870530289601937e-01   0.0000000000000000e+00   5.5990397778291356e-01   0.0000000000000000e+00   5.6073807184086633e-01   0.0000000000000000e+00   5.5081587848370950e-01   0.0000000000000000e+00   5.5115684297359413e-01   0.0000000000000000e+00   5.7648628883056530e-01   0.0000000000000000e+00   3.7439982312808046e-01   0.0000000000000000e+00   3.5201522859982443e-01   0.0000000000000000e+00   3.3004447610363558e-01   0.0000000000000000e+00   3.1476822437391050e-01   0.0000000000000000e+00   3.0072617061723761e-01   0.0000000000000000e+00   2.5612433884231983e-01   0.0000000000000000e+00   2.2977125346671184e-01   0.0000000000000000e+00   2.0884713104897237e-01   0.0000000000000000e+00   1.8697735378821753e-01   0.0000000000000000e+00   1.7031869467047406e-01   0.0000000000000000e+00   3.9406731472868967e-02   0.0000000000000000e+00   3.2503781930557940e-01   0.0000000000000000e+00   1.6820212007714092e-01   0.0000000000000000e+00   1.4386301813231536e-01   0.0000000000000000e+00   2.9409389743458392e-01   0.0000000000000000e+00   3.4397015643581580e-01   0.0000000000000000e+00   3.7668291257504033e-01   0.0000000000000000e+00   3.6795399667028883e-01   0.0000000000000000e+00   3.5842092490655664e-01   0.0000000000000000e+00   3.4038340061339689e-01   0.0000000000000000e+00   3.1466245327028292e-01   0.0000000000000000e+00   2.0389177186298915e-01   0.0000000000000000e+00   1.4612364344356582e-01   0.0000000000000000e+00   1.5761218366500865e-01   0.0000000000000000e+00   1.3278031993621048e-01   0.0000000000000000e+00   1.1981172941663747e-01   0.0000000000000000e+00   1.2932035618219351e-01   0.0000000000000000e+00   0.0000000000000000e+00   0.0000000000000000e+00   0.0000000000000000e+00   0.0000000000000000e+00   0.0000000000000000e+00   0.0000000000000000e+00   0.0000000000000000e+00   0.0000000000000000e+00   0.0000000000000000e+00   0.0000000000000000e+00   0.0000000000000000e+00   0.0000000000000000e+00   1.1342036814920489e-01   0.0000000000000000e+00   1.9038007448922695e-01   0.0000000000000000e+00   0.0000000000000000e+00   6.1781237809299161e-01   0.0000000000000000e+00   5.8621517446547622e-01   0.0000000000000000e+00   5.5261095868673393e-01   0.0000000000000000e+00   5.3506188053944026e-01   0.0000000000000000e+00   5.0363876612978875e-01   0.0000000000000000e+00   4.1883019953968476e-01   0.0000000000000000e+00   4.5625212876801730e-01   0.0000000000000000e+00   3.9431519222275518e-01   0.0000000000000000e+00   4.3789204523028580e-01   0.0000000000000000e+00   4.2451570062141042e-01   0.0000000000000000e+00   4.1385000514986175e-01   0.0000000000000000e+00   3.9493833462925920e-01   0.0000000000000000e+00   3.7594906580399967e-01   0.0000000000000000e+00   3.4310801924441148e-01   0.0000000000000000e+00   3.0172993570369722e-01   0.0000000000000000e+00   3.1044721910684053e-01   0.0000000000000000e+00   3.5678366155268582e-01   0.0000000000000000e+00   3.3411185815803984e-01   0.0000000000000000e+00   3.3202076223119387e-01   0.0000000000000000e+00   3.3211088423388230e-01   0.0000000000000000e+00   3.3332410171209093e-01   0.0000000000000000e+00   3.3252548953516892e-01   0.0000000000000000e+00   3.4012560300748867e-01   0.0000000000000000e+00   3.2815551452140435e-01   0.0000000000000000e+00   3.3887593138536554e-01   0.0000000000000000e+00   3.3580231511417047e-01   0.0000000000000000e+00   3.3061147172518712e-01   0.0000000000000000e+00   3.3281706291557278e-01   0.0000000000000000e+00   3.1052771773144000e-01   0.0000000000000000e+00   3.3926563921644037e-01   0.0000000000000000e+00   3.3280634914751994e-01   0.0000000000000000e+00   3.2919948119865944e-01   0.0000000000000000e+00   3.0659646929889217e-01   0.0000000000000000e+00   3.0503155183717806e-01   0.0000000000000000e+00   3.0803575453491061e-01   0.0000000000000000e+00   3.0774101753336108e-01   0.0000000000000000e+00   3.0745548741148115e-01   0.0000000000000000e+00   3.0195712792609891e-01   0.0000000000000000e+00   3.1535539370889970e-01   0.0000000000000000e+00   3.2412359612024155e-01   0.0000000000000000e+00   3.1505466593263443e-01   0.0000000000000000e+00   3.2302931998680690e-01   0.0000000000000000e+00   2.9573497785730901e-01   0.0000000000000000e+00   1.9644086915282374e-01   0.0000000000000000e+00   5.0130391475744118e-01   0.0000000000000000e+00   2.8828614165865091e-01   0.0000000000000000e+00   3.0774352465438504e-01   0.0000000000000000e+00   3.1642153668336209e-01   0.0000000000000000e+00   2.1001588461919696e-01   0.0000000000000000e+00   8.2870422476957672e-01   0.0000000000000000e+00   2.5556197544917347e-01   0.0000000000000000e+00   2.7627992232891518e-01   0.0000000000000000e+00   3.0366078916410194e-01   0.0000000000000000e+00   3.5812691440645456e-01   0.0000000000000000e+00   4.5660890014293232e-01   0.0000000000000000e+00   3.3261426724423265e-01   0.0000000000000000e+00   3.4806614584421441e-01   0.0000000000000000e+00   3.0483765740683749e-01   0.0000000000000000e+00   3.3096026385537364e-01   0.0000000000000000e+00   2.9581928675654423e-01   0.0000000000000000e+00   3.1901807814928751e-01   0.0000000000000000e+00   1.0000000000000000e+00   0.0000000000000000e+00   6.3564606738347296e-01   0.0000000000000000e+00   3.8596677926940492e-01   0.0000000000000000e+00   4.3204835317830925e-01   0.0000000000000000e+00   4.8637225720552857e-01   0.0000000000000000e+00   4.7158736054216155e-01   0.0000000000000000e+00   5.4472494687599715e-01   0.0000000000000000e+00   6.0300232235848827e-01   0.0000000000000000e+00   6.1614193081616242e-01   0.0000000000000000e+00   6.2300504721856431e-01   0.0000000000000000e+00   6.0632746735223253e-01   0.0000000000000000e+00   5.6181537989151231e-01   0.0000000000000000e+00   5.4434130626400690e-01   0.0000000000000000e+00   6.3003912338276191e-01   0.0000000000000000e+00   3.6051564610110931e-01   0.0000000000000000e+00   3.2669329302167321e-01   0.0000000000000000e+00   2.9952195044616781e-01   0.0000000000000000e+00   2.7979161008686304e-01   0.0000000000000000e+00   1.8563804344252766e-01   0.0000000000000000e+00   1.3566026642142023e-01   0.0000000000000000e+00   1.1081928462573262e-01   0.0000000000000000e+00   9.3148077515548627e-02   0.0000000000000000e+00   7.0053648781962657e-02   0.0000000000000000e+00   9.1524275315227749e-02   0.0000000000000000e+00   1.6511847031028562e-01   0.0000000000000000e+00   3.2917706803678487e-01   0.0000000000000000e+00   1.3418251501314846e-01   0.0000000000000000e+00   1.0754489852035345e-01   0.0000000000000000e+00   3.0696889371571984e-01   0.0000000000000000e+00   3.9172509947315104e-01   0.0000000000000000e+00   4.1360728315817569e-01   0.0000000000000000e+00   3.9796929468144421e-01   0.0000000000000000e+00   3.8304300857251727e-01   0.0000000000000000e+00   3.5750574905812116e-01   0.0000000000000000e+00   2.9031769042914812e-01   0.0000000000000000e+00   1.2981165707695766e-01   0.0000000000000000e+00   0.0000000000000000e+00   0.0000000000000000e+00   1.5167383713775706e-01   0.0000000000000000e+00   1.1646875315936438e-01   0.0000000000000000e+00   9.9667858850445185e-02   0.0000000000000000e+00   1.6404119219731125e-01   0.0000000000000000e+00   0.0000000000000000e+00   0.0000000000000000e+00   0.0000000000000000e+00   0.0000000000000000e+00   0.0000000000000000e+00   0.0000000000000000e+00   0.0000000000000000e+00   0.0000000000000000e+00   1.2050181826356646e-01   0.0000000000000000e+00   2.1332997493648850e-01   0.0000000000000000e+00   3.0911760374812347e-01   4.1052241660205918e-01   0.0000000000000000e+00   0.0000000000000000e+00   5.3271665802920787e-01   0.0000000000000000e+00   4.9128210037709719e-01   0.0000000000000000e+00   4.0680543399746194e-01   0.0000000000000000e+00   3.8640522519799275e-01   0.0000000000000000e+00   3.7938813424225304e-01   0.0000000000000000e+00   4.1222166666247162e-01   0.0000000000000000e+00   3.9720928489005869e-01   0.0000000000000000e+00   3.7356908913077669e-01   0.0000000000000000e+00   3.3147118585045543e-01   0.0000000000000000e+00   2.8589911238669430e-01   0.0000000000000000e+00   2.6766452177654321e-01   0.0000000000000000e+00   2.5963247728027034e-01   0.0000000000000000e+00   2.6666076340835576e-01   0.0000000000000000e+00   2.6435932321309019e-01   0.0000000000000000e+00   3.1694069258068142e-01   0.0000000000000000e+00   3.0386358391770879e-01   0.0000000000000000e+00   3.1449943107152695e-01   0.0000000000000000e+00   3.2897819710422305e-01   0.0000000000000000e+00   3.3628534128639787e-01   0.0000000000000000e+00   3.4447391212609135e-01   0.0000000000000000e+00   3.5125713597374991e-01   0.0000000000000000e+00   3.5410528240298161e-01   0.0000000000000000e+00   3.5811535069276895e-01   0.0000000000000000e+00   3.5240662025555580e-01   0.0000000000000000e+00   3.4432642028559196e-01   0.0000000000000000e+00   3.3484801323321556e-01   0.0000000000000000e+00   3.2191366937456939e-01   0.0000000000000000e+00   3.3044989614835557e-01   0.0000000000000000e+00   3.1356824970705960e-01   0.0000000000000000e+00   3.2072279840920370e-01   0.0000000000000000e+00   3.1728600716039118e-01   0.0000000000000000e+00   3.0917636077266308e-01   0.0000000000000000e+00   2.9527479402473311e-01   0.0000000000000000e+00   2.8235522381112493e-01   0.0000000000000000e+00   2.7533894805210007e-01   0.0000000000000000e+00   2.7707634852417645e-01   0.0000000000000000e+00   2.7143679268211079e-01   0.0000000000000000e+00   2.6471521303409951e-01   0.0000000000000000e+00   2.9583959182011049e-01   0.0000000000000000e+00   3.0445652618333846e-01   0.0000000000000000e+00   2.9648135099199102e-01   0.0000000000000000e+00   3.1108286400128532e-01   0.0000000000000000e+00   2.2336419804924285e-01   0.0000000000000000e+00   2.7679249076848256e-01   0.0000000000000000e+00   5.0030294113231466e-01   0.0000000000000000e+00   2.2533683790032938e-01   0.0000000000000000e+00   3.3008873088750007e-01   0.0000000000000000e+00   2.2285990429503624e-01   0.0000000000000000e+00   3.5145945494851977e-01   0.0000000000000000e+00   7.8508821983291666e-01   0.0000000000000000e+00   1.9803772759708729e-01   0.0000000000000000e+00   2.4005077728179522e-01   0.0000000000000000e+00   3.2143072981690751e-01   0.0000000000000000e+00   3.6097347036142891e-01   0.0000000000000000e+00   4.6755010803062924e-01   0.0000000000000000e+00   3.0718246090417783e-01   0.0000000000000000e+00   3.3732665176206189e-01   0.0000000000000000e+00   2.8126271084305049e-01   0.0000000000000000e+00   2.9060491882793188e-01   0.0000000000000000e+00   3.2610768042851107e-01   0.0000000000000000e+00   6.9403162734497326e-01   0.0000000000000000e+00   1.0000000000000000e+00   0.0000000000000000e+00   7.1534052631399747e-01   0.0000000000000000e+00   5.1940088647797167e-01   0.0000000000000000e+00   5.0312791390913092e-01   0.0000000000000000e+00   5.9607291415408326e-01   0.0000000000000000e+00   5.5922868525715175e-01   0.0000000000000000e+00   5.8691375371352938e-01   0.0000000000000000e+00   6.1628656175919416e-01   0.0000000000000000e+00   6.1147186144060806e-01   0.0000000000000000e+00   6.0610820312955349e-01   0.0000000000000000e+00   5.5671933970767984e-01   0.0000000000000000e+00   4.7763748741956347e-01   0.0000000000000000e+00   4.5274979927111170e-01   0.0000000000000000e+00   6.4585631115988906e-01   0.0000000000000000e+00   3.0925115862123925e-01   0.0000000000000000e+00   2.8308828190983693e-01   0.0000000000000000e+00   2.0201648288469426e-01   0.0000000000000000e+00   1.4717719944424140e-01   0.0000000000000000e+00   1.1883011188020812e-01   0.0000000000000000e+00   9.3778927558369363e-02   0.0000000000000000e+00   7.4786009847402746e-02   0.0000000000000000e+00   6.8218973515897091e-02   0.0000000000000000e+00   9.6185557943670369