<?xml version="1.0"?>
<VTKFile type="UnstructuredGrid"  version="0.1"  >
<UnstructuredGrid>
<Piece  NumberOfPoints="2319" NumberOfCells="4439">
<Points>
<DataArray  type="Float64"  NumberOfComponents="3"  format="ascii">1.032608695652174 0 0  1.040869565217391 0 0  1.040869565217391 0.008333333333333333 0  1.049130434782609 0 0  1.049130434782609 0.008333333333333333 0  1.057391304347826 0 0  1.057391304347826 0.008333333333333333 0  1.065652173913043 0 0  1.065652173913043 0.008333333333333333 0  1.073913043478261 0 0  1.073913043478261 0.008333333333333333 0  1.082173913043478 0 0  1.082173913043478 0.008333333333333333 0  1.090434782608696 0 0  1.090434782608696 0.008333333333333333 0  1.098695652173913 0 0  1.098695652173913 0.008333333333333333 0  1.10695652173913 0 0  1.10695652173913 0.008333333333333333 0  1.115217391304348 0 0  1.115217391304348 0.008333333333333333 0  1.123478260869565 0 0  1.123478260869565 0.008333333333333333 0  1.131739130434783 0 0  1.131739130434783 0.008333333333333333 0  1.14 0 0  1.14 0.008333333333333333 0  1.148260869565217 0 0  1.148260869565217 0.008333333333333333 0  1.156521739130435 0 0  1.156521739130435 0.008333333333333333 0  1.164782608695652 0 0  1.164782608695652 0.008333333333333333 0  1.17304347826087 0 0  1.17304347826087 0.008333333333333333 0  1.181304347826087 0 0  1.181304347826087 0.008333333333333333 0  1.189565217391304 0 0  1.189565217391304 0.008333333333333333 0  1.197826086956522 0 0  1.197826086956522 0.008333333333333333 0  1.206086956521739 0 0  1.206086956521739 0.008333333333333333 0  1.214347826086956 0 0  1.214347826086956 0.008333333333333333 0  1.222608695652174 0 0  1.222608695652174 0.008333333333333333 0  1.230869565217391 0 0  1.230869565217391 0.008333333333333333 0  1.239130434782609 0 0  1.239130434782609 0.008333333333333333 0  1.247391304347826 0 0  1.247391304347826 0.008333333333333333 0  1.255652173913044 0 0  1.255652173913044 0.008333333333333333 0  1.263913043478261 0 0  1.263913043478261 0.008333333333333333 0  1.272173913043478 0 0  1.272173913043478 0.008333333333333333 0  1.280434782608696 0 0  1.280434782608696 0.008333333333333333 0  1.288695652173913 0 0  1.288695652173913 0.008333333333333333 0  1.296956521739131 0 0  1.296956521739131 0.008333333333333333 0  1.305217391304348 0 0  1.305217391304348 0.008333333333333333 0  1.313478260869565 0 0  1.313478260869565 0.008333333333333333 0  1.321739130434783 0 0  1.321739130434783 0.008333333333333333 0  1.33 0 0  1.33 0.008333333333333333 0  1.338260869565217 0 0  1.338260869565217 0.008333333333333333 0  1.346521739130435 0 0  1.346521739130435 0.008333333333333333 0  1.354782608695652 0 0  1.354782608695652 0.008333333333333333 0  1.049130434782609 0.01666666666666667 0  1.057391304347826 0.01666666666666667 0  1.065652173913043 0.01666666666666667 0  1.073913043478261 0.01666666666666667 0  1.082173913043478 0.01666666666666667 0  1.090434782608696 0.01666666666666667 0  1.098695652173913 0.01666666666666667 0  1.10695652173913 0.01666666666666667 0  1.115217391304348 0.01666666666666667 0  1.123478260869565 0.01666666666666667 0  1.131739130434783 0.01666666666666667 0  1.14 0.01666666666666667 0  1.148260869565217 0.01666666666666667 0  1.156521739130435 0.01666666666666667 0  1.164782608695652 0.01666666666666667 0  1.17304347826087 0.01666666666666667 0  1.181304347826087 0.01666666666666667 0  1.189565217391304 0.01666666666666667 0  1.197826086956522 0.01666666666666667 0  1.206086956521739 0.01666666666666667 0  1.214347826086956 0.01666666666666667 0  1.222608695652174 0.01666666666666667 0  1.230869565217391 0.01666666666666667 0  1.239130434782609 0.01666666666666667 0  1.247391304347826 0.01666666666666667 0  1.255652173913044 0.01666666666666667 0  1.263913043478261 0.01666666666666667 0  1.272173913043478 0.01666666666666667 0  1.280434782608696 0.01666666666666667 0  1.288695652173913 0.01666666666666667 0  1.296956521739131 0.01666666666666667 0  1.305217391304348 0.01666666666666667 0  1.313478260869565 0.01666666666666667 0  1.321739130434783 0.01666666666666667 0  1.33 0.01666666666666667 0  1.338260869565217 0.01666666666666667 0  1.346521739130435 0.01666666666666667 0  1.354782608695652 0.01666666666666667 0  1.36304347826087 0.01666666666666667 0  1.057391304347826 0.025 0  1.065652173913043 0.025 0  1.073913043478261 0.025 0  1.082173913043478 0.025 0  1.090434782608696 0.025 0  1.098695652173913 0.025 0  1.10695652173913 0.025 0  1.115217391304348 0.025 0  1.123478260869565 0.025 0  1.131739130434783 0.025 0  1.14 0.025 0  1.148260869565217 0.025 0  1.156521739130435 0.025 0  1.164782608695652 0.025 0  1.17304347826087 0.025 0  1.181304347826087 0.025 0  1.189565217391304 0.025 0  1.197826086956522 0.025 0  1.206086956521739 0.025 0  1.214347826086956 0.025 0  1.222608695652174 0.025 0  1.230869565217391 0.025 0  1.239130434782609 0.025 0  1.247391304347826 0.025 0  1.255652173913044 0.025 0  1.263913043478261 0.025 0  1.272173913043478 0.025 0  1.280434782608696 0.025 0  1.288695652173913 0.025 0  1.296956521739131 0.025 0  1.305217391304348 0.025 0  1.313478260869565 0.025 0  1.321739130434783 0.025 0  1.33 0.025 0  1.338260869565217 0.025 0  1.346521739130435 0.025 0  1.354782608695652 0.025 0  1.36304347826087 0.025 0  1.371304347826087 0.025 0  1.065652173913043 0.03333333333333333 0  1.073913043478261 0.03333333333333333 0  1.082173913043478 0.03333333333333333 0  1.090434782608696 0.03333333333333333 0  1.098695652173913 0.03333333333333333 0  1.10695652173913 0.03333333333333333 0  1.115217391304348 0.03333333333333333 0  1.123478260869565 0.03333333333333333 0  1.131739130434783 0.03333333333333333 0  1.14 0.03333333333333333 0  1.148260869565217 0.03333333333333333 0  1.156521739130435 0.03333333333333333 0  1.164782608695652 0.03333333333333333 0  1.17304347826087 0.03333333333333333 0  1.181304347826087 0.03333333333333333 0  1.189565217391304 0.03333333333333333 0  1.197826086956522 0.03333333333333333 0  1.206086956521739 0.03333333333333333 0  1.214347826086956 0.03333333333333333 0  1.222608695652174 0.03333333333333333 0  1.230869565217391 0.03333333333333333 0  1.239130434782609 0.03333333333333333 0  1.247391304347826 0.03333333333333333 0  1.255652173913044 0.03333333333333333 0  1.263913043478261 0.03333333333333333 0  1.272173913043478 0.03333333333333333 0  1.280434782608696 0.03333333333333333 0  1.288695652173913 0.03333333333333333 0  1.296956521739131 0.03333333333333333 0  1.305217391304348 0.03333333333333333 0  1.313478260869565 0.03333333333333333 0  1.321739130434783 0.03333333333333333 0  1.33 0.03333333333333333 0  1.338260869565217 0.03333333333333333 0  1.346521739130435 0.03333333333333333 0  1.354782608695652 0.03333333333333333 0  1.36304347826087 0.03333333333333333 0  1.371304347826087 0.03333333333333333 0  1.379565217391304 0.03333333333333333 0  1.073913043478261 0.04166666666666666 0  1.082173913043478 0.04166666666666666 0  1.090434782608696 0.04166666666666666 0  1.098695652173913 0.04166666666666666 0  1.10695652173913 0.04166666666666666 0  1.115217391304348 0.04166666666666666 0  1.123478260869565 0.04166666666666666 0  1.131739130434783 0.04166666666666666 0  1.14 0.04166666666666666 0  1.148260869565217 0.04166666666666666 0  1.156521739130435 0.04166666666666666 0  1.164782608695652 0.04166666666666666 0  1.17304347826087 0.04166666666666666 0  1.181304347826087 0.04166666666666666 0  1.189565217391304 0.04166666666666666 0  1.197826086956522 0.04166666666666666 0  1.206086956521739 0.04166666666666666 0  1.214347826086956 0.04166666666666666 0  1.222608695652174 0.04166666666666666 0  1.230869565217391 0.04166666666666666 0  1.239130434782609 0.04166666666666666 0  1.247391304347826 0.04166666666666666 0  1.255652173913044 0.04166666666666666 0  1.263913043478261 0.04166666666666666 0  1.272173913043478 0.04166666666666666 0  1.280434782608696 0.04166666666666666 0  1.288695652173913 0.04166666666666666 0  1.296956521739131 0.04166666666666666 0  1.305217391304348 0.04166666666666666 0  1.313478260869565 0.04166666666666666 0  1.321739130434783 0.04166666666666666 0  1.33 0.04166666666666666 0  1.338260869565217 0.04166666666666666 0  1.346521739130435 0.04166666666666666 0  1.354782608695652 0.04166666666666666 0  1.36304347826087 0.04166666666666666 0  1.371304347826087 0.04166666666666666 0  1.379565217391304 0.04166666666666666 0  1.387826086956522 0.04166666666666666 0  1.082173913043478 0.05 0  1.090434782608696 0.05 0  1.098695652173913 0.05 0  1.10695652173913 0.05 0  1.115217391304348 0.05 0  1.123478260869565 0.05 0  1.131739130434783 0.05 0  1.14 0.05 0  1.148260869565217 0.05 0  1.156521739130435 0.05 0  1.164782608695652 0.05 0  1.17304347826087 0.05 0  1.181304347826087 0.05 0  1.189565217391304 0.05 0  1.197826086956522 0.05 0  1.206086956521739 0.05 0  1.214347826086956 0.05 0  1.222608695652174 0.05 0  1.230869565217391 0.05 0  1.239130434782609 0.05 0  1.247391304347826 0.05 0  1.255652173913044 0.05 0  1.263913043478261 0.05 0  1.272173913043478 0.05 0  1.280434782608696 0.05 0  1.288695652173913 0.05 0  1.296956521739131 0.05 0  1.305217391304348 0.05 0  1.313478260869565 0.05 0  1.321739130434783 0.05 0  1.33 0.05 0  1.338260869565217 0.05 0  1.346521739130435 0.05 0  1.354782608695652 0.05 0  1.36304347826087 0.05 0  1.371304347826087 0.05 0  1.379565217391304 0.05 0  1.387826086956522 0.05 0  1.396086956521739 0.05 0  1.090434782608696 0.05833333333333333 0  1.098695652173913 0.05833333333333333 0  1.10695652173913 0.05833333333333333 0  1.115217391304348 0.05833333333333333 0  1.123478260869565 0.05833333333333333 0  1.131739130434783 0.05833333333333333 0  1.14 0.05833333333333333 0  1.148260869565217 0.05833333333333333 0  1.156521739130435 0.05833333333333333 0  1.164782608695652 0.05833333333333333 0  1.17304347826087 0.05833333333333333 0  1.181304347826087 0.05833333333333333 0  1.189565217391304 0.05833333333333333 0  1.197826086956522 0.05833333333333333 0  
[...]
<CellData  Scalars="rho_bar"> 
<DataArray  type="Float64"  Name="rho_bar"  format="ascii">2.3175960917440419e-01   2.3528982381912200e-01   2.3165675072345085e-01   2.3516809789520268e-01   2.3155389104187782e-01   2.3504669075829604e-01   2.3145133741351775e-01   2.3492526174199757e-01   2.3134861019625802e-01   2.3480411843760635e-01   2.3124629826322887e-01   2.3468291078436290e-01   2.3114384649114258e-01   2.3456202536115528e-01   2.3104173066853220e-01   2.3444108144349057e-01   2.3093963915122886e-01   2.3432046471671814e-01   2.3083781569128944e-01   2.3419986367176163e-01   2.3073597758526207e-01   2.3407949527596611e-01   2.3063439244062833e-01   2.3395927657788612e-01   2.3053285954468142e-01   2.3383921213850795e-01   2.3043154326486467e-01   2.3371928323997290e-01   2.3033039889212453e-01   2.3359954041866929e-01   2.3022936348636361e-01   2.3347995766739732e-01   2.3012846318084143e-01   2.3336047162237331e-01   2.3002758590623207e-01   2.3324111335519912e-01   2.2992681525649727e-01   2.3312192925910369e-01   2.2982641213080227e-01   2.3300280774913670e-01   2.2972572473200226e-01   2.3288398536473565e-01   2.2962533062671076e-01   2.3276487451843991e-01   2.2952502889002174e-01   2.3264616723553308e-01   2.2942464295753934e-01   2.3252743655013192e-01   2.2932450248347619e-01   2.3240880260561467e-01   2.2922469676370719e-01   2.3229068190815161e-01   2.2912484189301238e-01   2.3217252973109945e-01   2.2902536362540962e-01   2.3205454548102114e-01   2.2892587610897316e-01   2.3193717101824821e-01   2.2882686779350214e-01   2.3181928479980005e-01   2.2872729487223917e-01   2.3170208599639752e-01   2.2862817137401706e-01   2.3158477635159860e-01   2.2853011548227617e-01   2.3146785759273419e-01   2.3135072030782858e-01   2.4511247695850624e-01   2.4492892552143142e-01   2.5000708470023197e-01   2.4475395581615866e-01   2.4982223411991139e-01   2.4458415330494562e-01   2.4964111655935387e-01   2.4442224994761486e-01   2.4946681595381751e-01   2.4426417713428081e-01   2.4929619120863034e-01   2.4411093474231577e-01   2.4913141602840877e-01   2.4396233761633485e-01   2.4897064611187697e-01   2.4381743920483226e-01   2.4881253946432560e-01   2.4367542332608805e-01   2.4865796946158239e-01   2.4353675707714637e-01   2.4850483407582424e-01   2.4339973436334372e-01   2.4835373768254554e-01   2.4326497452572815e-01   2.4820418625017671e-01   2.4313175859806396e-01   2.4805613920632313e-01   2.4300057419101695e-01   2.4790926508805425e-01   2.4287030422723607e-01   2.4776353446074489e-01   2.4274118139839929e-01   2.4761837865250805e-01   2.4261302284505784e-01   2.4747412884151149e-01   2.4248604160592346e-01   2.4733040384320396e-01   2.4235957049755735e-01   2.4718736184738990e-01   2.4223387013064601e-01   2.4704455100505934e-01   2.4210858580791048e-01   2.4690220709209981e-01   2.4198370373522923e-01   2.4676001702664746e-01   2.4185921663294666e-01   2.4661812042866343e-01   2.4173522294799960e-01   2.4647631895692784e-01   2.4161130337181133e-01   2.4633484727147401e-01   2.4148789066475609e-01   2.4619327804936586e-01   2.4136436677871587e-01   2.4605206856665046e-01   2.4124111512403548e-01   2.4591059170511456e-01   2.4111782248323352e-01   2.4576937821240785e-01   2.4099492928082308e-01   2.4562799189841239e-01   2.4087182420893966e-01   2.4548667603406682e-01   2.4074886941882762e-01   2.4534526639753965e-01   2.4062585281464249e-01   2.4520392456739709e-01   2.4050281455067499e-01   2.4506245050380032e-01   2.4037980607755233e-01   2.4492105776913900e-01   2.4025698006225615e-01   2.4477950937626095e-01   2.4013395860209713e-01   2.4463798180743671e-01   2.4001113757294076e-01   2.4449638232326498e-01   2.3988809414579118e-01   2.4435484471756250e-01   2.3976513332351670e-01   2.4421315148049832e-01   2.3964211188957377e-01   2.4407171634862979e-01   2.3951931334601501e-01   2.4393006245698504e-01   2.3939634758976858e-01   2.4378835993377379e-01   2.3927327087262962e-01   2.4364659776450051e-01   2.3915022384341322e-01   2.4350475251858847e-01   2.3902717666286191e-01   2.4336295537318969e-01   2.3890408361899704e-01   2.4322141058078278e-01   2.3878141021416657e-01   2.4307956898434591e-01   2.3865837740967005e-01   2.4293804371570438e-01   2.3853567842474471e-01   2.4279624285164148e-01   2.3841266151972137e-01   2.4265463905234358e-01   2.3828978236920245e-01   2.4251284703951656e-01   2.3816681939988399e-01   2.4237144666747043e-01   2.3804423746207570e-01   2.4222973547250620e-01   2.3792142151013657e-01   2.4208823994685158e-01   2.3779873097939463e-01   2.4194663261039748e-01   2.3767600987298074e-01   2.4180508397318520e-01   2.3755321518307687e-01   2.4166358970618790e-01   2.3743055612193981e-01   2.4152229063143560e-01   2.3730814687476237e-01   2.4138088094568388e-01   2.3718562577128696e-01   2.4123963809498489e-01   2.3706325821460164e-01   2.4109832312989113e-01   2.3694086151318308e-01   2.4095710554115204e-01   2.3681844740944102e-01   2.4081597938870183e-01   2.3669622162948675e-01   2.4067503061982878e-01   2.3657418104526107e-01   2.4053411776065534e-01   2.3645219091346831e-01   2.4039322230690663e-01   2.3633019126148902e-01   2.4025244792196479e-01   2.3620834386927927e-01   2.4011163058390894e-01   2.3608641593249452e-01   2.3997102850873586e-01   2.3596470204095626e-01   2.3983059943161392e-01   2.3584323000872076e-01   2.3969021351253672e-01   2.3572175286691865e-01   2.3954994776065164e-01   2.3560036303496087e-01   2.3940968656417605e-01   2.3547903209222470e-01   2.3926949308243567e-01   2.3535777865124238e-01   2.3912945231887889e-01   2.3523661733449971e-01   2.3898962942372426e-01   2.3511574316527800e-01   2.3884976590630769e-01   2.3499480135542358e-01   2.3871019116481701e-01   2.3487410180701926e-01   2.3857055646740724e-01   2.3475339026581835e-01   2.3843099970197851e-01   2.3463270069193173e-01   2.3829162421868552e-01   2.3451231352618282e-01   2.3815230267835535e-01   2.3439191929874581e-01   2.3801328599554536e-01   2.3427179866447445e-01   2.3787419285580003e-01   2.3415164021207013e-01   2.3773543065343128e-01   2.3403179162879226e-01   2.3759654155856194e-01   2.3391192342030781e-01   2.3745803354621040e-01   2.3379236488679012e-01   2.3731953184662327e-01   2.3367284295565724e-01   2.3718134729378498e-01   2.3355353722860928e-01   2.3704318218676942e-01   2.3343440959286493e-01   2.3690525715094854e-01   2.3331542001191050e-01   2.3676746044712216e-01   2.3319659931475406e-01   2.3662982496139076e-01   2.3307796332351285e-01   2.3649236754884026e-01   2.3295946866313993e-01   2.3635519425727833e-01   2.3284109762489402e-01   2.3621795021361452e-01   2.3272285482870528e-01   2.3608093205160671e-01   2.3260478223658571e-01   2.3594406948759339e-01   2.3248678534968814e-01   2.3580736783190698e-01   2.3236910359167487e-01   2.3567075862596901e-01   2.3225110254681824e-01   2.3553450223696742e-01   2.3213352328627052e-01   2.3539786737971211e-01   2.3201590381773854e-01   2.3526170761651571e-01   2.3189837953412087e-01   2.3512553447511073e-01   2.3178139582193888e-01   2.3498959914372827e-01   2.3166443369286580e-01   2.3485388860100717e-01   2.3154764631790908e-01   2.3471844075569948e-01   2.3143151776198523e-01   2.3458339656632657e-01   2.3131483033785002e-01   2.3444863687875861e-01   2.3119884299654592e-01   2.3431375995128551e-01   2.3108279808419008e-01   2.3417914131079581e-01   2.3096715806927975e-01   2.3404468301913331e-01   2.3085120267807568e-01   2.3391048997159083e-01   2.3377593398738017e-01   2.4950775223364663e-01   2.4931801994625696e-01   2.5445653092867571e-01   2.4913227802644594e-01   2.5426361807232967e-01   2.4895384082760025e-01   2.5407268283627871e-01   2.4877925492980096e-01   2.5388927731765976e-01   2.4861072489563135e-01   2.5371050910491105e-01   2.4844655237122007e-01   2.5353495666647091e-01   2.4828553252863056e-01   2.5336102828682416e-01   2.4812833472488313e-01   2.5319120026142605e-01   2.4797287758546246e-01   2.5302370682807424e-01   2.4781968579569219e-01   2.5285716277332304e-01   2.4766830709467474e-01   2.5269222694140375e-01   2.4751868566109508e-01   2.5252829894624224e-01   2.4737038882887827e-01   2.5236583769005261e-01   2.4722346805897613e-01   2.5220381907288902e-01   2.4707731268696440e-01   2.5204252517946374e-01   2.4693225243348088e-01   2.5188187903237852e-01   2.4678786134049094e-01   2.5172187341645952e-01   2.4664429357081705e-01   2.5156217396765140e-01   2.4650109054247446e-01   2.5140278091066681e-01   2.4635846848539847e-01   2.5124361477792562e-01   2.4621611949037503e-01   2.5108457359427777e-01   2.4607417089509723e-01   2.5092573074713181e-01   2.4593241052951548e-01   2.5076711330992868e-01   2.4579105126437936e-01   2.5060843479066613e-01   2.4564966990508189e-01   2.5045002926287330e-01   2.4550870181469353e-01   2.5029141276346017e-01   2.4536755472058033e-01   2.5013294595363544e-01   2.4522671272707791e-01   2.4997435663311202e-01   2.4508576595018700e-01   2.4981591944908280e-01   2.4494490092933885e-01   2.4965726875826388e-01   2.4480399374756992e-01   2.4949861563826251e-01   2.4466317662123685e-01   2.4933986288743928e-01   2.4452226366772054e-01   2.4918113000762759e-01   2.4438146660061169e-01   2.4902227706039992e-01   2.4424054832186678e-01   2.4886348639795958e-01   2.4409965654468979e-01   2.4870448092794709e-01   2.4395870387161636e-01   2.4854554798639147e-01   2.4381782282557460e-01   2.4838644183291361e-01   2.4367679393678898e-01   2.4822739520094997e-01   2.4353605098363751e-01   2.4806830201137869e-01   2.4339510282396121e-01   2.4790938758696918e-01   2.4325409000583462e-01   2.4775022700973418e-01   2.4311305090221502e-01   2.4759076581881234e-01   2.4297193418719462e-01   2.4743148255744510e-01   2.4283083737844732e-01   2.4727218019534061e-01   2.4269004274436989e-01   2.4711283810551779e-01   2.4254895120322362e-01   2.4695382975977875e-01   2.4240815896370005e-01   2.4679446672674180e-01   2.4226710357003456e-01   2.4663525940782738e-01   2.4212623822711538e-01   2.4647588121464151e-01   2.4198517132533812e-01   2.4631662567497073e-01   2.4184453448889145e-01   2.4615730996663213e-01   2.4170358480128598e-01   2.4599834403209048e-01   2.4156282770950749e-01   2.4583907365106150e-01   2.4142197890124098e-01   2.4567982183201353e-01   2.4128117565262827e-01   2.4552063801382532e-01   2.4114040755586411e-01   2.4536145729150119e-01   2.4099988203080630e-01   2.4520236794791794e-01   2.4085923272407173e-01   2.4504351879174960e-01   2.4071874365623064e-01   2.4488446839219857e-01   2.4057818797683558e-01   2.4472548002372790e-01   2.4043772846392780e-01   2.4456653062037054e-01   2.4029733983638202e-01   2.4440769585401306e-01   2.4015717110439996e-01   2.4424895152267531e-01   2.4001702664088739e-01   2.4409043449218046e-01   2.3987689703648041e-01   2.4393182853079393e-01   2.3973689618254337e-01   2.4377315403181865e-01   2.3959685002431000e-01   2.4361468399683536e-01   2.3945699595089573e-01   2.4345626651060187e-01   2.3931736433616313e-01   2.4329798150321486e-01   2.3917774802056793e-01   2.4314004194321184e-01   2.3903826177467602e-01   2.4298190849383119e-01   2.3889879924031071e-01   2.4282381822538690e-01   2.3875939785871783e-01   2.4266584251737594e-01   2.3862013573322491e-01   2.4250802200320179e-01   2.3848112833785437e-01   2.4235026503906121e-01   2.3834206689902990e-01   2.4219286470124163e-01   2.3820329940345511e-01   2.4203528908158153e-01   2.3806448511027561e-01   2.4187795256034211e-01   2.3792573970540704e-01   2.4172058955841280e-01   2.3778717944603281e-01   2.4156329326173978e-01   2.3764868381933829e-01   2.4140627837511047e-01   2.3751048629836080e-01   2.4124932664242157e-01   2.3737222822069620e-01   2.4109256952036628e-01   2.3723430124490238e-01   2.4093575530153208e-01   2.3709625635367393e-01   2.4077926495906210e-01   2.3695858975097592e-01   2.4062271270700658e-01   2.3682094702750336e-01   2.4046651474043151e-01   2.3668361354714820e-01   2.4031036752179766e-01   2.3654633203022554e-01   2.4015441544218979e-01   2.3640927848896495e-01   2.3999863622466608e-01   2.3627236309602634e-01   2.3984297141792574e-01   2.3613561646898965e-01   2.3968748285463701e-01   2.3599904666637150e-01   2.3953217866070245e-01   2.3586276155207742e-01   2.3937706645092421e-01   2.3572640759982325e-01   2.3922214165067604e-01   2.3559031441024184e-01   2.3906703975281271e-01   2.3545436143432177e-01   2.3891237223688949e-01   2.3531856311808366e-01   2.3875786723776535e-01   2.3518286967962010e-01   2.3860341185737854e-01   2.3504753267273037e-01   2.3844916643898420e-01   2.3491181477929032e-01   2.3829518388741380e-01   2.3477658213673408e-01   2.3814087824793068e-01   2.3464132631557780e-01   2.3798713090171542e-01   2.3450636537085576e-01   2.3783302801731129e-01   2.3437161019233244e-01   2.3767952165067463e-01   2.3423710404864750e-01   2.3752638885854185e-01   2.3410302932014787e-01   2.3737330430698281e-01   2.3396925201072341e-01   2.3722103662617455e-01   2.3383534743500470e-01   2.3706859573496425e-01   2.3370178554727750e-01   2.3691577777714043e-01   2.3356831662165037e-01   2.3676379714654339e-01   2.3343513294634538e-01   2.3661152274091063e-01   2.3330165207449688e-01   2.3645953425647817e-01   2.5399687304148127e-01   2.5379925961289052e-01   2.5895939116897715e-01   2.5360389948565071e-01   2.5875843764901002e-01   2.5341624609370611e-01   2.5856179326049100e-01   2.5323369705610838e-01   2.5836896378912139e-01   2.5305506131142863e-01   2.5817839214817401e-01   2.5287811388422465e-01   2.5799254972287927e-01   2.5270546862679244e-01   2.5780912219018193e-01   2.5253544851771298e-01   2.5762647204117062e-01   2.5236671846925618e-01   2.5744590996120265e-01   2.5219987206002908e-01   2.5726587862942207e-01   2.5203429923681842e-01   2.5708732869077444e-01   2.5187038363442443e-01   2.5690948037363259e-01   2.5170712270566031e-01   2.5673276593193983e-01   2.5154475507298962e-01   2.5655598953787778e-01   2.5138319112787466e-01   2.5638006844399580e-01   2.5122241218458230e-01   2.5620425725681356e-01   2.5106210152277181e-01   2.5602881196155286e-01   2.5090220826477383e-01   2.5585348733502655e-01   2.5074266501284470e-01   2.5567827985727931e-01   2.5058334334072851e-01   2.5550315405615048e-01   2.5042431092096029e-01   2.5532808653246314e-01   2.5026559911883900e-01   2.5515305393134158e-01   2.5010690907949357e-01   2.5497810852160946e-01   2.4994856243521099e-01   2.5480305244060159e-01   2.4979006865783429e-01   2.5462826013851225e-01   2.4963176567791501e-01   2.5445308331030075e-01   2.4947339352632986e-01   2.5427809647959465e-01   2.4931520877080612e-01   2.5410285469182170e-01   2.4915687445994145e-01   2.5392759028200462e-01   2.4899856574609247e-01   2.5375219265323423e-01   2.4884018295314025e-01   2.5357689537678896e-01   2.4868184341338134e-01   2.5340130113052151e-01   2.4852340014087421e-01   2.5322583007157923e-01   2.4836505410978607e-01   2.5305003385184160e-01   2.4820651370699193e-01   2.5287433446457869e-01   2.4804806985326167e-01   2.5269835666008844e-01   2.4788945087489955e-01   2.5252267349244795e-01   2.4773089845881449e-01   2.5234655348090695e-01   2.4757229782429005e-01   2.5217080813412635e-01   2.4741387437766713e-01   2.5199475209499395e-01   2.4725525477879839e-01   2.5181846853175394e-01   2.4709633205878379e-01   2.5164225024201808e-01   2.4693758575777092e-01   2.5146584289884921e-01   2.4677882804128567e-01   2.5128950406928052e-01   2.4662001196844230e-01   2.5111339793834042e-01   2.4646154684159155e-01   2.5093697328607939e-01   2.4630274344664638e-01   2.5076069454421912e-01   2.4614409801624682e-01   2.5058422487104409e-01   2.4598528410266976e-01   2.5040790952063890e-01   2.4582658571430607e-01   2.5023139586505416e-01   2.4566780757470849e-01   2.5005524996049155e-01   2.4550938204585554e-01   2.4987878219190529e-01   2.4535067910519665e-01   2.4970235020133638e-01   2.4519199459657273e-01   2.4952590776760170e-01   2.4503337219290316e-01   2.4934951399834668e-01   2.4487475325228336e-01   2.4917312549815113e-01   2.4471620659304219e-01   2.4899691775737312e-01   2.4455791317855913e-01   2.4882058451983349e-01   2.4439943246019527e-01   2.4864422400148864e-01   2.4424102207757864e-01   2.4846789611653577e-01   2.4408263587418716e-01   2.4829174437222393e-01   2.4392437058232849e-01   2.4811553167727987e-01   2.4376617644238982e-01   2.4793957074079112e-01   2.4360822047333131e-01   2.4776352960159903e-01   2.4345020236285636e-01   2.4758739841101723e-01   2.4329211608224752e-01   2.4741144175099195e-01   2.4313421149761563e-01   2.4723549933929931e-01   2.4297638083322323e-01   2.4705965332263974e-01   2.4281865249048640e-01   2.4688409860379526e-01   2.4266128743404550e-01   2.4670842921717551e-01   2.4250375487837633e-01   2.4653280051564633e-01   2.4234627057629063e-01   2.4635721996743387e-01   2.4218888823531687e-01   2.4618174000924686e-01   2.4203167437177947e-01   2.4600633331965360e-01   2.4187450739939756e-01   2.4583124258904587e-01   2.4171771572103640e-01   2.4565599368846017e-01   2.4156075683728609e-01   2.4548101416826709e-01   2.4140404143252892e-01   2.4530594496994207e-01   2.4124730703723535e-01   2.4513106413921887e-01   2.4109064031207816e-01   2.4495620547076857e-01   2.4093423373710918e-01   2.4478157297868089e-01   2.4077791265288342e-01   2.4460700646934777e-01   2.4062179514622431e-01   2.4443244591219790e-01   2.4046562940441404e-01   2.4425812720685286e-01   2.4030977198820733e-01   2.4408377172442058e-01   2.4015389435724516e-01   2.4390964685209401e-01   2.3999833397595005e-01   2.4373573231611886e-01   2.3984286620318032e-01   2.4356185583703177e-01   2.3968758170352295e-01   2.4338819953391522e-01   2.3953249660535886e-01   2.4321458266859178e-01   2.3937751076745289e-01   2.4304121500266257e-01   2.3922273563913890e-01   2.4286784250809876e-01   2.3906811347980025e-01   2.4269495882070236e-01   2.3891369039829313e-01   2.4252199193675389e-01   2.3875949158628382e-01   2.4234910479268512e-01   2.3860510472914509e-01   2.4217648320596716e-01   2.3845113873532600e-01   2.4200376946769575e-01   2.3829736613731600e-01   2.4183131676836211e-01   2.3814362952477522e-01   2.4165929250283918e-01   2.3799010367372481e-01   2.4148709638325758e-01   2.3783686148077543e-01   2.4131522201206199e-01   2.3768329076011327e-01   2.4114347035707945e-01   2.3753030321738350e-01   2.4097153005734262e-01   2.3737693151567901e-01   2.4080002632395756e-01   2.3722418243957086e-01   2.4062825720100264e-01   2.3707182571237659e-01   2.4045710290774916e-01   2.3691948058693554e-01   2.4028660838449067e-01   2.3676803301326860e-01   2.4011576426780226e-01   2.3661647149389836e-01   2.3994579222740611e-01   2.3646445385368833e-01   2.3977565415748525e-01   2.3631329747792537e-01   2.3960505709260044e-01   2.3616178902413468e-01   2.3943533433319514e-01   2.3601070388410275e-01   2.3926522345722001e-01   2.5853721848650385e-01   2.6369364917317806e-01   2.5833168967935549e-01   2.6348154465966855e-01   2.5813119307991417e-01   2.6327335868473889e-01   2.5793465058244036e-01   2.6307035523968048e-01   2.5774074049417511e-01   2.6286748465187570e-01   2.5755169958674029e-01   2.6266885824251357e-01   2.5736555730316502e-01   2.6247188538415733e-01   2.5718046994054083e-01   2.6227641795813234e-01   2.5699774058387581e-01   2.6208177045123471e-01   2.5681579935787119e-01   2.6188852369529453e-01   2.5663557333651971e-01   2.6169565920527121e-01   2.5645619327368857e-01   2.6150434028865205e-01   2.5627816841917472e-01   2.6131283738656874e-01   2.5610026740269859e-01   2.6112194485781853e-01   2.5592340703635758e-01   2.6093112449465711e-01   2.5574677287430825e-01   2.6074096467255725e-01   2.5557065120838923e-01   2.6055049758477666e-01   2.5539475682960416e-01   2.6036020155894279e-01   2.5521908837777663e-01   2.6016983497948032e-01   2.5504360404775989e-01   2.5997934779854909e-01   2.5486826993242767e-01   2.5978891405204957e-01   2.5469305298886058e-01   2.59598456