<?xml version="1.0"?>
<VTKFile type="UnstructuredGrid"  version="0.1"  >
<UnstructuredGrid>
<Piece  NumberOfPoints="2448" NumberOfCells="4682">
<Points>
<DataArray  type="Float64"  NumberOfComponents="3"  format="ascii">0.9417391304347826 0.225 0  0.9417391304347826 0.2333333333333333 0  0.95 0.2333333333333333 0  0.3469565217391304 0.2333333333333333 0  0.3552173913043478 0.2333333333333333 0  0.3552173913043478 0.2416666666666667 0  0.3634782608695652 0.2333333333333333 0  0.3634782608695652 0.2416666666666667 0  0.3717391304347826 0.2333333333333333 0  0.3717391304347826 0.2416666666666667 0  0.3799999999999999 0.2333333333333333 0  0.3799999999999999 0.2416666666666667 0  0.3882608695652174 0.2333333333333333 0  0.3882608695652174 0.2416666666666667 0  0.3965217391304348 0.2333333333333333 0  0.3965217391304348 0.2416666666666667 0  0.4047826086956521 0.2333333333333333 0  0.4047826086956521 0.2416666666666667 0  0.4130434782608696 0.2333333333333333 0  0.4130434782608696 0.2416666666666667 0  0.4213043478260869 0.2333333333333333 0  0.4213043478260869 0.2416666666666667 0  0.4295652173913043 0.2333333333333333 0  0.4295652173913043 0.2416666666666667 0  0.4378260869565217 0.2333333333333333 0  0.4378260869565217 0.2416666666666667 0  0.4460869565217391 0.2333333333333333 0  0.4460869565217391 0.2416666666666667 0  0.4543478260869565 0.2333333333333333 0  0.4543478260869565 0.2416666666666667 0  0.4626086956521739 0.2333333333333333 0  0.4626086956521739 0.2416666666666667 0  0.4708695652173913 0.2333333333333333 0  0.4708695652173913 0.2416666666666667 0  0.4791304347826086 0.2333333333333333 0  0.4791304347826086 0.2416666666666667 0  0.4873913043478261 0.2333333333333333 0  0.4873913043478261 0.2416666666666667 0  0.4956521739130435 0.2333333333333333 0  0.4956521739130435 0.2416666666666667 0  0.5039130434782608 0.2333333333333333 0  0.5039130434782608 0.2416666666666667 0  0.5121739130434783 0.2333333333333333 0  0.5121739130434783 0.2416666666666667 0  0.5204347826086956 0.2333333333333333 0  0.5204347826086956 0.2416666666666667 0  0.528695652173913 0.2333333333333333 0  0.528695652173913 0.2416666666666667 0  0.5369565217391304 0.2333333333333333 0  0.5369565217391304 0.2416666666666667 0  0.5452173913043478 0.2333333333333333 0  0.5452173913043478 0.2416666666666667 0  0.5534782608695652 0.2333333333333333 0  0.5534782608695652 0.2416666666666667 0  0.5617391304347825 0.2333333333333333 0  0.5617391304347825 0.2416666666666667 0  0.57 0.2333333333333333 0  0.57 0.2416666666666667 0  0.5782608695652174 0.2333333333333333 0  0.5782608695652174 0.2416666666666667 0  0.5865217391304348 0.2333333333333333 0  0.5865217391304348 0.2416666666666667 0  0.5947826086956521 0.2333333333333333 0  0.5947826086956521 0.2416666666666667 0  0.6030434782608696 0.2333333333333333 0  0.6030434782608696 0.2416666666666667 0  0.6113043478260869 0.2333333333333333 0  0.6113043478260869 0.2416666666666667 0  0.6195652173913043 0.2333333333333333 0  0.6195652173913043 0.2416666666666667 0  0.6278260869565218 0.2333333333333333 0  0.6278260869565218 0.2416666666666667 0  0.6360869565217391 0.2333333333333333 0  0.6360869565217391 0.2416666666666667 0  0.6443478260869565 0.2333333333333333 0  0.6443478260869565 0.2416666666666667 0  0.6526086956521739 0.2333333333333333 0  0.6526086956521739 0.2416666666666667 0  0.6608695652173913 0.2333333333333333 0  0.6608695652173913 0.2416666666666667 0  0.6691304347826087 0.2333333333333333 0  0.6691304347826087 0.2416666666666667 0  0.677391304347826 0.2333333333333333 0  0.677391304347826 0.2416666666666667 0  0.6856521739130435 0.2333333333333333 0  0.6856521739130435 0.2416666666666667 0  0.6939130434782609 0.2333333333333333 0  0.6939130434782609 0.2416666666666667 0  0.7021739130434783 0.2333333333333333 0  0.7021739130434783 0.2416666666666667 0  0.7104347826086956 0.2333333333333333 0  0.7104347826086956 0.2416666666666667 0  0.718695652173913 0.2333333333333333 0  0.718695652173913 0.2416666666666667 0  0.7269565217391304 0.2333333333333333 0  0.7269565217391304 0.2416666666666667 0  0.7352173913043478 0.2333333333333333 0  0.7352173913043478 0.2416666666666667 0  0.7434782608695653 0.2333333333333333 0  0.7434782608695653 0.2416666666666667 0  0.7517391304347827 0.2333333333333333 0  0.7517391304347827 0.2416666666666667 0  0.7599999999999999 0.2333333333333333 0  0.7599999999999999 0.2416666666666667 0  0.7682608695652173 0.2333333333333333 0  0.7682608695652173 0.2416666666666667 0  0.7765217391304348 0.2333333333333333 0  0.7765217391304348 0.2416666666666667 0  0.7847826086956522 0.2333333333333333 0  0.7847826086956522 0.2416666666666667 0  0.7930434782608695 0.2333333333333333 0  0.7930434782608695 0.2416666666666667 0  0.8013043478260868 0.2333333333333333 0  0.8013043478260868 0.2416666666666667 0  0.8095652173913043 0.2333333333333333 0  0.8095652173913043 0.2416666666666667 0  0.8178260869565217 0.2333333333333333 0  0.8178260869565217 0.2416666666666667 0  0.8260869565217391 0.2333333333333333 0  0.8260869565217391 0.2416666666666667 0  0.8343478260869565 0.2333333333333333 0  0.8343478260869565 0.2416666666666667 0  0.8426086956521739 0.2333333333333333 0  0.8426086956521739 0.2416666666666667 0  0.8508695652173912 0.2333333333333333 0  0.8508695652173912 0.2416666666666667 0  0.8591304347826086 0.2333333333333333 0  0.8591304347826086 0.2416666666666667 0  0.8673913043478261 0.2333333333333333 0  0.8673913043478261 0.2416666666666667 0  0.8756521739130434 0.2333333333333333 0  0.8756521739130434 0.2416666666666667 0  0.8839130434782608 0.2333333333333333 0  0.8839130434782608 0.2416666666666667 0  0.8921739130434783 0.2333333333333333 0  0.8921739130434783 0.2416666666666667 0  0.9004347826086956 0.2333333333333333 0  0.9004347826086956 0.2416666666666667 0  0.908695652173913 0.2333333333333333 0  0.908695652173913 0.2416666666666667 0  0.9169565217391303 0.2333333333333333 0  0.9169565217391303 0.2416666666666667 0  0.9252173913043478 0.2333333333333333 0  0.9252173913043478 0.2416666666666667 0  0.9334782608695652 0.2333333333333333 0  0.9334782608695652 0.2416666666666667 0  0.9417391304347826 0.2416666666666667 0  0.95 0.2416666666666667 0  0.9582608695652173 0.2416666666666667 0  0.3634782608695652 0.25 0  0.3717391304347826 0.25 0  0.3799999999999999 0.25 0  0.3882608695652174 0.25 0  0.3965217391304348 0.25 0  0.4047826086956521 0.25 0  0.4130434782608696 0.25 0  0.4213043478260869 0.25 0  0.4295652173913043 0.25 0  0.4378260869565217 0.25 0  0.4460869565217391 0.25 0  0.4543478260869565 0.25 0  0.4626086956521739 0.25 0  0.4708695652173913 0.25 0  0.4791304347826086 0.25 0  0.4873913043478261 0.25 0  0.4956521739130435 0.25 0  0.5039130434782608 0.25 0  0.5121739130434783 0.25 0  0.5204347826086956 0.25 0  0.528695652173913 0.25 0  0.5369565217391304 0.25 0  0.5452173913043478 0.25 0  0.5534782608695652 0.25 0  0.5617391304347825 0.25 0  0.57 0.25 0  0.5782608695652174 0.25 0  0.5865217391304348 0.25 0  0.5947826086956521 0.25 0  0.6030434782608696 0.25 0  0.6113043478260869 0.25 0  0.6195652173913043 0.25 0  0.6278260869565218 0.25 0  0.6360869565217391 0.25 0  0.6443478260869565 0.25 0  0.6526086956521739 0.25 0  0.6608695652173913 0.25 0  0.6691304347826087 0.25 0  0.677391304347826 0.25 0  0.6856521739130435 0.25 0  0.6939130434782609 0.25 0  0.7021739130434783 0.25 0  0.7104347826086956 0.25 0  0.718695652173913 0.25 0  0.7269565217391304 0.25 0  0.7352173913043478 0.25 0  0.7434782608695653 0.25 0  0.7517391304347827 0.25 0  0.7599999999999999 0.25 0  0.7682608695652173 0.25 0  0.7765217391304348 0.25 0  0.7847826086956522 0.25 0  0.7930434782608695 0.25 0  0.8013043478260868 0.25 0  0.8095652173913043 0.25 0  0.8178260869565217 0.25 0  0.8260869565217391 0.25 0  0.8343478260869565 0.25 0  0.8426086956521739 0.25 0  0.8508695652173912 0.25 0  0.8591304347826086 0.25 0  0.8673913043478261 0.25 0  0.8756521739130434 0.25 0  0.8839130434782608 0.25 0  0.8921739130434783 0.25 0  0.9004347826086956 0.25 0  0.908695652173913 0.25 0  0.9169565217391303 0.25 0  0.9252173913043478 0.25 0  0.9334782608695652 0.25 0  0.9417391304347826 0.25 0  0.95 0.25 0  0.9582608695652173 0.25 0  0.9665217391304347 0.25 0  0.3717391304347826 0.2583333333333334 0  0.3799999999999999 0.2583333333333334 0  0.3882608695652174 0.2583333333333334 0  0.3965217391304348 0.2583333333333334 0  0.4047826086956521 0.2583333333333334 0  0.4130434782608696 0.2583333333333334 0  0.4213043478260869 0.2583333333333334 0  0.4295652173913043 0.2583333333333334 0  0.4378260869565217 0.2583333333333334 0  0.4460869565217391 0.2583333333333334 0  0.4543478260869565 0.2583333333333334 0  0.4626086956521739 0.2583333333333334 0  0.4708695652173913 0.2583333333333334 0  0.4791304347826086 0.2583333333333334 0  0.4873913043478261 0.2583333333333334 0  0.4956521739130435 0.2583333333333334 0  0.5039130434782608 0.2583333333333334 0  0.5121739130434783 0.2583333333333334 0  0.5204347826086956 0.2583333333333334 0  0.528695652173913 0.2583333333333334 0  0.5369565217391304 0.2583333333333334 0  0.5452173913043478 0.2583333333333334 0  0.5534782608695652 0.2583333333333334 0  0.5617391304347825 0.2583333333333334 0  0.57 0.2583333333333334 0  0.5782608695652174 0.2583333333333334 0  0.5865217391304348 0.2583333333333334 0  0.5947826086956521 0.2583333333333334 0  0.6030434782608696 0.2583333333333334 0  0.6113043478260869 0.2583333333333334 0  0.6195652173913043 0.2583333333333334 0  0.6278260869565218 0.2583333333333334 0  0.6360869565217391 0.2583333333333334 0  0.6443478260869565 0.2583333333333334 0  0.6526086956521739 0.2583333333333334 0  0.6608695652173913 0.2583333333333334 0  0.6691304347826087 0.2583333333333334 0  0.677391304347826 0.2583333333333334 0  0.6856521739130435 0.2583333333333334 0  0.6939130434782609 0.2583333333333334 0  0.7021739130434783 0.2583333333333334 0  0.7104347826086956 0.2583333333333334 0  0.718695652173913 0.2583333333333334 0  0.7269565217391304 0.258333333333333
[...]
<CellData  Scalars="rho_bar"> 
<DataArray  type="Float64"  Name="rho_bar"  format="ascii">2.8146931697246214e-01   2.8776988997065678e-01   2.8116309932580608e-01   2.8744598484055717e-01   2.8086268903274508e-01   2.8712662544735135e-01   2.8056916989514513e-01   2.8681367824019016e-01   2.8028526666252135e-01   2.8650797289001290e-01   2.8001043355369343e-01   2.8621175273413313e-01   2.7974752282462739e-01   2.8592592773711828e-01   2.7949777143202303e-01   2.8565257815754724e-01   2.7926081806341779e-01   2.8539178158112771e-01   2.7904176484689963e-01   2.8514822800637857e-01   2.7883906949767456e-01   2.8492261708565136e-01   2.7865401293138747e-01   2.8471415466285932e-01   2.7848624411632500e-01   2.8452394849598062e-01   2.7833372189280087e-01   2.8434948658895037e-01   2.7819472951663982e-01   2.8418855415524791e-01   2.7806661580016950e-01   2.8403922133451043e-01   2.7794677350245917e-01   2.8389798308824760e-01   2.7782861440256362e-01   2.8375829626550436e-01   2.7770932901702672e-01   2.8361642693197509e-01   2.7758306965409163e-01   2.8346539251591296e-01   2.7744329243149202e-01   2.8329808948597113e-01   2.7729052996060916e-01   2.8311556281717515e-01   2.7711899632267273e-01   2.8291482508195243e-01   2.7692709864847709e-01   2.8269038707593530e-01   2.7671234488996060e-01   2.8244143601500477e-01   2.7647392798372300e-01   2.8216990450247725e-01   2.7621164494881795e-01   2.8187244061630090e-01   2.7592526734625811e-01   2.8155257614166723e-01   2.7561500831764818e-01   2.8120716825740905e-01   2.7527981931002993e-01   2.8083820243151053e-01   2.7491827457637591e-01   2.8044684856385266e-01   2.7453383844536139e-01   2.8002905185109067e-01   2.7412455445350120e-01   2.7958985385923774e-01   2.7369285454150749e-01   2.7912573271773794e-01   2.7323977135996941e-01   2.7864198756289116e-01   2.7276617519706392e-01   2.7813799025719554e-01   2.7227748804976531e-01   2.7761892730446797e-01   2.7177476557115465e-01   2.7708657114067325e-01   2.7126305864934053e-01   2.7654431565347865e-01   2.7074700599575507e-01   2.7600002358623305e-01   2.7023119183139688e-01   2.7545729687880910e-01   2.6972258634576962e-01   2.7492323544340219e-01   2.6922397927186592e-01   2.7440503109530018e-01   2.6874110990556194e-01   2.7390382334405033e-01   2.6827568373592747e-01   2.7342602900113089e-01   2.6783204201225547e-01   2.7297133641289073e-01   2.6740908936462787e-01   2.7254132999399916e-01   2.6700924261412717e-01   2.7213648690777642e-01   2.6663019258481463e-01   2.7175638165943328e-01   2.6627299710621821e-01   2.7139764369058839e-01   2.6593496001171324e-01   2.7106030699565142e-01   2.6561560613083335e-01   2.7074215164016180e-01   2.6531246177692314e-01   2.7044127004580898e-01   2.6502599066075561e-01   2.7015512671794328e-01   2.6475108440378220e-01   2.6988279130686033e-01   2.6448981219978007e-01   2.6962097921149342e-01   2.6423805640852960e-01   2.6936965654489570e-01   2.6399521205381282e-01   2.6912592013738396e-01   2.6376264341570171e-01   2.6889077986968468e-01   2.6353297224754302e-01   2.6866218561026434e-01   2.8219653646415643e-01   2.9029483228012792e-01   2.8347825952258754e-01   2.9200953433897847e-01   2.8527293243908919e-01   2.9407819749849651e-01   2.8737849365751406e-01   2.9631307115460581e-01   2.8961682984645409e-01   2.9855812172570778e-01   2.9184666079034904e-01   3.0070137139512182e-01   2.9396087229361079e-01   3.0266397289194086e-01   2.9588993303480116e-01   3.0440203611024458e-01   2.9759405237260195e-01   3.0589651106763949e-01   2.9905788416271556e-01   3.0714367783423724e-01   3.0027965558874059e-01   3.0815360622954890e-01   3.0127204958917914e-01   3.0894491378678313e-01   3.0205122849553373e-01   3.0953743224798969e-01   3.0263764856537367e-01   3.0995434347577916e-01   3.0305362334536368e-01   3.1021845315652491e-01   3.0331936172495799e-01   3.1034918975943215e-01   3.0345710117737107e-01   3.1036883187673470e-01   3.0348392442510536e-01   3.1029267096107649e-01   3.0341724141428250e-01   3.1013692988284708e-01   3.0327413746427939e-01   3.0991783683036905e-01   3.0306690100348993e-01   3.0964545500116608e-01   3.0280886043458904e-01   3.0933312602669744e-01   3.0250945060630202e-01   3.0898832973204993e-01   3.0217763502924483e-01   3.0861869516360568e-01   3.0182083417982852e-01   3.0823108627245349e-01   3.0144496228031487e-01   3.0782968846426612e-01   3.0105520148759229e-01   3.0741960687733394e-01   3.0065588833961476e-01   3.0700360416675043e-01   3.0025063289574211e-01   3.0658566859615993e-01   2.9984155626425657e-01   3.0616608811147739e-01   2.9943168009318266e-01   3.0574861411638410e-01   2.9902238642501039e-01   3.0533260772854315e-01   2.9861465101373691e-01   3.0492063094570937e-01   2.9821019927696218e-01   3.0451174022216043e-01   2.9780970870304674e-01   3.0410864779977859e-01   2.9741290939938214e-01   3.0370850412476513e-01   2.9702067639359209e-01   3.0331478690053626e-01   2.9663277555476913e-01   3.0292403169912940e-01   2.9624842470884000e-01   3.0253866284414505e-01   2.9586931498273022e-01   3.0215667233138055e-01   2.9549408430417656e-01   3.0177937237132579e-01   2.9512313946100605e-01   3.0140540747112199e-01   2.9475610412385433e-01   3.0103588855141084e-01   2.9439279586103634e-01   3.0066902805914658e-01   2.9403113806739362e-01   3.0030397381274992e-01   2.9367373038635669e-01   2.9994254831717382e-01   2.9331824498678849e-01   2.9958228213332594e-01   2.9296563753195892e-01   2.9922521506726241e-01   2.9261534861571881e-01   2.9886987770191215e-01   2.9226682010648947e-01   2.9851574843401385e-01   2.9191813515206128e-01   2.9816141103696414e-01   2.9157206744733594e-01   2.9780908571047149e-01   2.9122553477857088e-01   2.9745580458466447e-01   2.9088134804267413e-01   2.9710488446755701e-01   2.9053883266848229e-01   2.9675405706041408e-01   2.9019640890567050e-01   2.9640415409726562e-01   2.8985463356832852e-01   2.9605483683340955e-01   2.8951401172471708e-01   2.9570502534018872e-01   2.8917328208473447e-01   2.9535468319933128e-01   2.8883343841502507e-01   2.9500497150098942e-01   2.8849476042808220e-01   2.9465436482408991e-01   2.8815711196758215e-01   2.9430565215123256e-01   2.8782162477180123e-01   2.9395818333043638e-01   2.8748835347412161e-01   2.9361152621461767e-01   2.8715812505308053e-01   2.9326731575752818e-01   2.8683185838581116e-01   2.9292546112619838e-01   2.8651018919575133e-01   2.9258782860228755e-01   2.8619513679808134e-01   2.9225491689395683e-01   2.8588756885347921e-01   2.9192892265685072e-01   2.8558986448643181e-01   2.9161096362149908e-01   2.8530303451906563e-01   2.9130345849611311e-01   2.8502927941740430e-01   2.9100814095391542e-01   2.8476889586076454e-01   2.9072556523308313e-01   2.8452668086442073e-01   2.9046101915459871e-01   2.8430356003583523e-01   2.9021547038321399e-01   2.8409893811745873e-01   2.8998903774478046e-01   2.8391418870292867e-01   2.8978178842853536e-01   2.8374710733155456e-01   2.8959399780845624e-01   2.8359552744616667e-01   2.8942177130647651e-01   2.8345758751002731e-01   2.8926423313325988e-01   2.8332953031518376e-01   2.8911762169712768e-01   2.8320508661677729e-01   2.8897199053562900e-01   2.8308016017501353e-01   2.8882748888777227e-01   2.8294757594373937e-01   2.8867067839903160e-01   2.8280033747937355e-01   2.8849762451729793e-01   2.8263842343167117e-01   2.8830799207316959e-01   2.8245916126100545e-01   2.8809735565445899e-01   2.8225639677978559e-01   2.8786324086878323e-01   2.8202941147783467e-01   2.8760157155008581e-01   2.8177945467064675e-01   2.8731718978706317e-01   2.8150323528782567e-01   2.8700703744054262e-01   2.8120388606495123e-01   2.8667315883187872e-01   2.8087804969780938e-01   2.8631761837395653e-01   2.8052709942224974e-01   2.8593466600265360e-01   2.8015293696212645e-01   2.8552839849540068e-01   2.7975056515980440e-01   2.8509842169037608e-01   2.7932554810125476e-01   2.8464358850211141e-01   2.7887343422479338e-01   2.8416585320652971e-01   2.7840014470439761e-01   2.8366344434032381e-01   2.7790452694286366e-01   2.8314122334462305e-01   2.7739198338381738e-01   2.8260021770941585e-01   2.7686420054799216e-01   2.8204463311882433e-01   2.7632495066568036e-01   2.8147806912055623e-01   2.7578169443433720e-01   2.8090876150807109e-01   2.7523865900384903e-01   2.8034127038507850e-01   2.7470249588175671e-01   2.7978482938832677e-01   2.7418107446168449e-01   2.7924419613547946e-01   2.7367518529257356e-01   2.7872593845908544e-01   2.7319198628210029e-01   2.7823130333250107e-01   2.7273071567962653e-01   2.7776556094409716e-01   2.7229374931098427e-01   2.7732512555497613e-01   2.7188124526153667e-01   2.7691362881245379e-01   2.7149333836732126e-01   2.7652699978409373e-01   2.7112650024187479e-01   2.7616510889341589e-01   2.7078106057274692e-01   2.7582406043820795e-01   2.7045483293373496e-01   2.7550289570407693e-01   2.7014607785895051e-01   2.7519878869851394e-01   2.6985237232380477e-01   2.7490949761396033e-01   2.6957280489242186e-01   2.7463362527541574e-01   2.6930417496099690e-01   2.7436790063996386e-01   2.6904668284981476e-01   2.7411240186034352e-01   2.6879696407706005e-01   2.7386475223690843e-01   2.6855641455363161e-01   2.7362125105075075e-01   2.6832303941727065e-01   2.7338443835159693e-01   2.7315122848419293e-01   2.8763252800793304e-01   2.9605393852928596e-01   2.8924047733313790e-01   2.9804612070479763e-01   2.9132384188859450e-01   3.0034118092701551e-01   2.9366911178303678e-01   3.0273902373706019e-01   2.9608958437380589e-01   3.0508524641652957e-01   2.9844310258625767e-01   3.0727335917518506e-01   3.0062789897988407e-01   3.0923497528156080e-01   3.0258262973160249e-01   3.1093637114713119e-01   3.0427851159765051e-01   3.1236897296259541e-01   3.0570666879099656e-01   3.1353834840053563e-01   3.0687537147444527e-01   3.1446122841372720e-01   3.0780365377322394e-01   3.1516260804055168e-01   3.0851279311923985e-01   3.1566638650547985e-01   3.0902813547394437e-01   3.1599840299547538e-01   3.0937483707582808e-01   3.1618381321902855e-01   3.0957455017364260e-01   3.1624294688734911e-01   3.0965153679008911e-01   3.1619917994975288e-01   3.0962292965810351e-01   3.1606723938282044e-01   3.0950653472872358e-01   3.1586326142845428e-01   3.0931991931426339e-01   3.1560303749987667e-01   3.0907421946484986e-01   3.1529660131906306e-01   3.0878368199622230e-01   3.1495578299526378e-01   3.0845662606161772e-01   3.1458860561023139e-01   3.0810128667013414e-01   3.1420081073091394e-01   3.0772511543670883e-01   3.1379939937804191e-01   3.0733270448567057e-01   3.1338735944092694e-01   3.0692966455527060e-01   3.1296894450128421e-01   3.0651898580393994e-01   3.1254741345571352e-01   3.0610500566584747e-01   3.1212504535135777e-01   3.0568814833561209e-01   3.1170356346305117e-01   3.0527241179188797e-01   3.1128457462662523e-01   3.0485729786447685e-01   3.1086835851959704e-01   3.0444558299367519e-01   3.1045576128245495e-01   3.0403641150751132e-01   3.1004745266958983e-01   3.0363262394269669e-01   3.0964350119458905e-01   3.0323137505751324e-01   3.0924448526953557e-01   3.0283624886602645e-01   3.0885038318261754e-01   3.0244383448515455e-01   3.0846020525659829e-01   3.0205668262649604e-01   3.0807342536588755e-01   3.0167280473389591e-01   3.0769111504257696e-01   3.0129352363758616e-01   3.0731208705085261e-01   3.0091748680251984e-01   3.0693699960199439e-01   3.0054584289005792e-01   3.0656487532437215e-01   3.0017684207663858e-01   3.0619573622846463e-01   2.9980966687492433e-01   3.0582738475777138e-01   2.9944618040903037e-01   3.0546248934182646e-01   2.9908380089496445e-01   3.0509892996203375e-01   2.9872463392935056e-01   3.0473741812419058e-01   2.9836713899970230e-01   3.0437780951310323e-01   2.9801079915508155e-01   3.0401905518373901e-01   2.9765435591224826e-01   3.0365849934458577e-01   2.9729994183242570e-01   3.0330058879608729e-01   2.9694464792000225e-01   3.0294026757177217e-01   2.9659169489833592e-01   3.0258280212780286e-01   2.9623876390024112e-01   3.0222587809996737e-01   2.9588668070967428e-01   3.0186822790850121e-01   2.9553516872241725e-01   3.0151132516974527e-01   2.9518305918914661e-01   3.0115332385637889e-01   2.9483049675264283e-01   3.0079344260996899e-01   2.9447854193819956e-01   3.0043373253932654e-01   2.9412558413522111e-01   3.0007325242318916e-01   2.9377448096668224e-01   2.9971278772925392e-01   2.9342454604251539e-01   2.9935300075980598e-01   2.9307538344881368e-01   2.9899367444080643e-01   2.9272864378154845e-01   2.9863521283647182e-01   2.9238419933922749e-01   2.9827886895547789e-01   2.9204400397475372e-01   2.9792471772794915e-01   2.9170855208693930e-01   2.9757492437959632e-01   2.9138016513348564e-01   2.9722986669834922e-01   2.9106010503272450e-01   2.9689218399527390e-01   2.9075079239056550e-01   2.9656384785398648e-01   2.9045425807831793e-01   2.9624704895036308e-01   2.9017114670463678e-01   2.9594293818977924e-01   2.8990704210459828e-01   2.9565698014191466e-01   2.8966298342085606e-01   2.9539172675926173e-01   2.8943939271411800e-01   2.9514664396620865e-01   2.8923652729785043e-01   2.9492332492140766e-01   2.8905502046195303e-01   2.9472143530750022e-01   2.8889095331565007e-01   2.9453966276889587e-01   2.8874371450490455e-01   2.9437388459050640e-01   2.8860943510102366e-01   2.9422206771534082e-01   2.8847806418677291e-01   2.9407363006474663e-01   2.8834993384591390e-01   2.9392333969433310e-01   2.8821094998754831e-01   2.9376354889460859e-01   2.8805735420952749e-01   2.9358375504126621e-01   2.8788798989544645e-01   2.9338641244020802e-01   2.8769832995653810e-01   2.9316650226780722e-01   2.8748522731321058e-01   2.9292078270925676e-01   2.8724494897547204e-01   2.9264545569753525e-01   2.8698151221476137e-01   2.9234733939758106e-01   2.8669162109410240e-01   2.9202469876419562e-01   2.8637734808005993e-01   2.9167712614399127e-01   2.8604026810451433e-01   2.9130751739505639e-01   2.8567503334272759e-01   2.9091204267577264e-01   2.8528501365100883e-01   2.9049444589308449e-01   2.8486982041144632e-01   2.9005145665757215e-01   2.8442807119783065e-01   2.8958519137097710e-01   2.8396174482737374e-01   2.8909307707201171e-01   2.8346896186670340e-01   2.8857692165900056e-01   2.8295435480542713e-01   2.8803782016691132e-01   2.8241908932379056e-01   2.8747757692387016e-01   2.8186714673257324e-01   2.8690120481039133e-01   2.8130240006615664e-01   2.8631181737946870e-01   2.8073331996678297e-01   2.8571834579069905e-01   2.8016435218847380e-01   2.8512726723430232e-01   2.7960510328595622e-01   2.8454845809415374e-01   2.7906032960080968e-01   2.8398967018291760e-01   2.7853670860900975e-01   3.2328364351021821e-01   2.8345523919263171e-01   2.7803576317386730e-01   2.8295046029942061e-01   2.7756267750753605e-01   2.8247521753285704e-01   2.7711444092559612e-01   2.8203024737376264e-01   2.7669481273181962e-01   2.8161447187323274e-01   2.7629972385730289e-01   2.8122765134252437e-01   2.7592937633733605e-01   2.8086419669400459e-01   2.7557989730363519e-01   2.8052391628168566e-01   2.7525048839913957e-01   2.8020292868532698e-01   2.7493839678002524e-01   2.7989934157796009e-01   2.7464140420575578e-01   2.7960954015513151e-01   2.7435824853890162e-01   2.7933329204891078e-01   2.7408569084501228e-01   2.7906555578572750e-01   2.7382383554113165e-01   2.7880757841181547e-01   2.7357052105793223e-01   2.7855549941442320e-01   2.7332158528750294e-01   2.7830973309249485e-01   2.7307980294963424e-01   2.7806669648713189e-01   2.7284184008082318e-01   2.7782995412977102e-01   2.7759529932599236e-01   2.9307457932930941e-01   3.0181297594467088e-01   2.9499686940244363e-01   3.0407333558803801e-01   2.9735786378130885e-01   3.0657793657155780e-01   2.9992549767843751e-01   3.0911695714822252e-01   3.0250621525679938e-01   3.1153890858577266e-01   3.0495810623389985e-01   3.1374223837478676e-01   3.0718611067990148e-01   3.1567194956489369e-01   3.0913911020266588e-01   3.1730762300369747e-01   3.1079939305612220e-01   3.1865261966735881e-01   3.1216848293415933e-01   3.1972153834235489e-01   3.1326293584540083e-01   3.2053970014238531e-01   3.1410950142346150e-01   3.2113670626081386e-01   3.1473476347319790e-01   3.2154035669790082e-01   3.1516767158608228e-01   3.2177978901414450e-01   3.1543641184919452e-01   3.2188080309651640e-01   3.1556409741283509e-01   3.2186552555077219e-01   3.1557655361086956e-01   3.2175630578894887e-01   3.1549055426235462e-01   3.2156892234325490e-01   3.1532404859429797e-01   3.2131853635685792e-01   3.1509425885932624e-01   3.2102007450550568e-01   3.1481244445846968e-01   3.2068239134105225e-01   3.1449140739953452e-01   3.2031731146934134e-01   3.1414002151892839e-01   3.1993103341504969e-01   3.1376472619639656e-01   3.1952941530204332e-01   3.1337305401867666e-01   3.1911794296446999e-01   3.1296850598634512e-01   3.1869935022550372e-01   3.1255570532369176e-01   3.1827722501093753e-01   3.1213822083595910e-01   3.1785395762828278e-01   3.1171859341245123e-01   3.1743205823581466e-01   3.1129877430600833e-01   3.1701181748441992e-01   3.1088048073146674e-01   3.1659547754003359e-01   3.1046435309904458e-01   3.1618156995155716e-01   3.1005121710311517e-01   3.1577225620562860e-01   3.0964197771658242e-01   3.1536692075076228e-01   3.0923664822771935e-01   3.1496702483325684e-01   3.0883598749803010e-01   3.1457050526411756e-01   3.0843995794414453e-01   3.1417946089483062e-01   3.0804778779690289e-01   3.1379127994937184e-01   3.0765884405971117e-01   3.1340692587351637e-01   3.0727433926231751e-01   3.1302606660947530e-01   3.0689301511482447e-01   3.1264801395277270e-01   3.0651567746399938e-01   3.1227348439814168e-01   3.0614120792947325e-01   3.1190178473315860e-01   3.0576976760665903e-01   3.1153222694335703e-01   3.0539916615583751e-01   3.1116299894410682e-01   3.0503202045272765e-01   3.1079746838225342e-01   3.0466626796175883e-01   3.1043144234558590e-01   3.0430259292654849e-01   3.1006853883313062e-01   3.0394081826183694e-01   3.0970605185933814e-01   3.0357998817666138e-01   3.0934406832569028e-01   3.0321734701947789e-01   3.0898093550649330e-01   3.0285743778181440e-01   3.0861895232563258e-01   3.0249500413093910e-01   3.0825582075247115e-01   3.0213548223860154e-01   3.1955349988593984e-01   3.2296323480052158e-01   3.1923571564836839e-01   3.0789351142374205e-01   3.0177641090056395e-01   3.0753130775645798e-01   3.0141675288113501e-01   3.0716826629805422e-01   3.0105771279394433e-01   3.0680647926615862e-01   3.0069757116872431e-01   3.0644180981951197e-01   3.0033555235522036e-01   3.0607613825511948e-01   2.9997362661415200e-01   3.0570916168948825e-01   2.9961087954531701e-01   3.0533976838429072e-01   2.9924816751733735e-01   3.0497121834184027e-01   2.9888589533213705e-01   3.0460198714615755e-01   2.9852409988591655e-01   3.0423214692530542e-01   2.9816292893555862e-01   3.0386279156161078e-01   2.9780402273084922e-01   3.0349312581444349e-01   2.9744707922472746e-01   3.0312574479210885e-01   2.9709470169148433e-01   3.0275992271427810e-01   2.9674690333450504e-01   3.0239960341040167e-01   2.9640678856212443e-01   3.0204322179492610e-01   2.9607617988666474e-01   3.0169585852897757e-01   2.9575753349538103e-01   3.0135883947123221e-01   2.9545211517345094e-01   3.0103382406294549e-01   2.9516560479934639e-01   3.0072677131826486e-01   2.9490089566981470e-01   3.0044045091675692e-01   2.9465753593743288e-01   3.0017623537032734e-01   2.9443756221546247e-01   2.9993685343894139e-01   2.9424064281654116e-01   2.9972163678684438e-01   2.9406628872195473e-01   2.9952799651752310e-01   2.9390980593109356e-01   2.9935655152850066e-01   2.9376970160684651e-01   2.9920027219196799e-01   2.9363496295359554e-01   2.9904919503098976e-01   2.9350049374986698e-01   2.9889747805204919e-01   2.9335796436545225e-01   2.9873295902404062e-01   2.9319708729533339e-01   2.9854624731898416e-01   2.9301963764325190e-01   2.9833961065393888e-01   2.92819975