<?xml version="1.0"?>
<VTKFile type="UnstructuredGrid"  version="0.1"  >
<UnstructuredGrid>
<Piece  NumberOfPoints="2417" NumberOfCells="4636">
<Points>
<DataArray  type="Float64"  NumberOfComponents="3"  format="ascii">2.610434782608696 0 0  2.618695652173913 0 0  2.618695652173913 0.008333333333333333 0  2.610434782608696 0.008333333333333333 0  2.62695652173913 0 0  2.62695652173913 0.008333333333333333 0  2.635217391304348 0 0  2.635217391304348 0.008333333333333333 0  2.643478260869565 0 0  2.643478260869565 0.008333333333333333 0  2.651739130434783 0 0  2.651739130434783 0.008333333333333333 0  2.66 0 0  2.66 0.008333333333333333 0  2.668260869565217 0 0  2.668260869565217 0.008333333333333333 0  2.676521739130435 0 0  2.676521739130435 0.008333333333333333 0  2.684782608695652 0 0  2.684782608695652 0.008333333333333333 0  2.693043478260869 0 0  2.693043478260869 0.008333333333333333 0  2.701304347826087 0 0  2.701304347826087 0.008333333333333333 0  2.709565217391304 0 0  2.709565217391304 0.008333333333333333 0  2.717826086956522 0 0  2.717826086956522 0.008333333333333333 0  2.726086956521739 0 0  2.726086956521739 0.008333333333333333 0  2.734347826086956 0 0  2.734347826086956 0.008333333333333333 0  2.742608695652174 0 0  2.742608695652174 0.008333333333333333 0  2.750869565217391 0 0  2.750869565217391 0.008333333333333333 0  2.759130434782609 0 0  2.759130434782609 0.008333333333333333 0  2.767391304347826 0 0  2.767391304347826 0.008333333333333333 0  2.775652173913044 0 0  2.775652173913044 0.008333333333333333 0  2.783913043478261 0 0  2.783913043478261 0.008333333333333333 0  2.792173913043478 0 0  2.792173913043478 0.008333333333333333 0  2.800434782608696 0 0  2.800434782608696 0.008333333333333333 0  2.808695652173913 0 0  2.808695652173913 0.008333333333333333 0  2.81695652173913 0 0  2.81695652173913 0.008333333333333333 0  2.825217391304347 0 0  2.825217391304347 0.008333333333333333 0  2.833478260869565 0 0  2.833478260869565 0.008333333333333333 0  2.841739130434783 0 0  2.841739130434783 0.008333333333333333 0  2.85 0 0  2.85 0.008333333333333333 0  2.858260869565217 0 0  2.858260869565217 0.008333333333333333 0  2.866521739130435 0 0  2.866521739130435 0.008333333333333333 0  2.874782608695652 0 0  2.874782608695652 0.008333333333333333 0  2.88304347826087 0 0  2.88304347826087 0.008333333333333333 0  2.891304347826087 0 0  2.891304347826087 0.008333333333333333 0  2.899565217391304 0 0  2.899565217391304 0.008333333333333333 0  2.907826086956522 0 0  2.907826086956522 0.008333333333333333 0  2.916086956521739 0 0  2.916086956521739 0.008333333333333333 0  2.924347826086957 0 0  2.924347826086957 0.008333333333333333 0  2.618695652173913 0.01666666666666667 0  2.610434782608696 0.01666666666666667 0  2.62695652173913 0.01666666666666667 0  2.635217391304348 0.01666666666666667 0  2.643478260869565 0.01666666666666667 0  2.651739130434783 0.01666666666666667 0  2.66 0.01666666666666667 0  2.668260869565217 0.01666666666666667 0  2.676521739130435 0.01666666666666667 0  2.684782608695652 0.01666666666666667 0  2.693043478260869 0.01666666666666667 0  2.701304347826087 0.01666666666666667 0  2.709565217391304 0.01666666666666667 0  2.717826086956522 0.01666666666666667 0  2.726086956521739 0.01666666666666667 0  2.734347826086956 0.01666666666666667 0  2.742608695652174 0.01666666666666667 0  2.750869565217391 0.01666666666666667 0  2.759130434782609 0.01666666666666667 0  2.767391304347826 0.01666666666666667 0  2.775652173913044 0.01666666666666667 0  2.783913043478261 0.01666666666666667 0  2.792173913043478 0.01666666666666667 0  2.800434782608696 0.01666666666666667 0  2.808695652173913 0.01666666666666667 0  2.81695652173913 0.01666666666666667 0  2.825217391304347 0.01666666666666667 0  2.833478260869565 0.01666666666666667 0  2.841739130434783 0.01666666666666667 0  2.85 0.01666666666666667 0  2.858260869565217 0.01666666666666667 0  2.866521739130435 0.01666666666666667 0  2.874782608695652 0.01666666666666667 0  2.88304347826087 0.01666666666666667 0  2.891304347826087 0.01666666666666667 0  2.899565217391304 0.01666666666666667 0  2.907826086956522 0.01666666666666667 0  2.916086956521739 0.01666666666666667 0  2.924347826086957 0.01666666666666667 0  2.932608695652174 0.01666666666666667 0  2.618695652173913 0.025 0  2.62695652173913 0.025 0  2.635217391304348 0.025 0  2.643478260869565 0.025 0  2.651739130434783 0.025 0  2.66 0.025 0  2.668260869565217 0.025 0  2.676521739130435 0.025 0  2.684782608695652 0.025 0  2.693043478260869 0.025 0  2.701304347826087 0.025 0  2.709565217391304 0.025 0  2.717826086956522 0.025 0  2.726086956521739 0.025 0  2.734347826086956 0.025 0  2.742608695652174 0.025 0  2.750869565217391 0.025 0  2.759130434782609 0.025 0  2.767391304347826 0.025 0  2.775652173913044 0.025 0  2.783913043478261 0.025 0  2.792173913043478 0.025 0  2.800434782608696 0.025 0  2.808695652173913 0.025 0  2.81695652173913 0.025 0  2.825217391304347 0.025 0  2.833478260869565 0.025 0  2.841739130434783 0.025 0  2.85 0.025 0  2.858260869565217 0.025 0  2.866521739130435 0.025 0  2.874782608695652 0.025 0  2.88304347826087 0.025 0  2.891304347826087 0.025 0  2.899565217391304 0.025 0  2.907826086956522 0.025 0  2.916086956521739 0.025 0  2.924347826086957 0.025 0  2.932608695652174 0.025 0  2.940869565217391 0.025 0  2.62695652173913 0.03333333333333333 0  2.635217391304348 0.03333333333333333 0  2.643478260869565 0.03333333333333333 0  2.651739130434783 0.03333333333333333 0  2.66 0.03333333333333333 0  2.668260869565217 0.03333333333333333 0  2.676521739130435 0.03333333333333333 0  2.684782608695652 0.03333333333333333 0  2.693043478260869 0.03333333333333333 0  2.701304347826087 0.03333333333333333 0  2.709565217391304 0.03333333333333333 0  2.717826086956522 0.03333333333333333 0  2.726086956521739 0.03333333333333333 0  2.734347826086956 0.03333333333333333 0  2.742608695652174 0.03333333333333333 0  2.750869565217391 0.03333333333333333 0  2.759130434782609 0.03333333333333333 0  2.767391304347826 0.03333333333333333 0  2.775652173913044 0.03333333333333333 0  2.783913043478261 0.03333333333333333 0  2.792173913043478 0.03333333333333333 0  2.800434782608696 0.03333333333333333 0  2.808695652173913 0.03333333333333333 0  2.81695652173913 0.03333333333333333 0  2.825217391304347 0.03333333333333333 0  2.833478260869565 0.03333333333333333 0  2.841739130434783 0.03333333333333333 0  2.85 0.03333333333333333 0  2.858260869565217 0.03333333333333333 0  2.866521739130435 0.03333333333333333 0  2.874782608695652 0.03333333333333333 0  2.88304347826087 0.03333333333333333 0  2.891304347826087 0.03333333333333333 0  2.899565217391304 0.03333333333333333 0  2.907826086956522 0.03333333333333333 0  2.916086956521739 0.03333333333333333 0  2.924347826086957 0.03333333333333333 0  2.932608695652174 0.03333333333333333 0  2.940869565217391 0.03333333333333333 0  2.949130434782608 0.03333333333333333 0  2.635217391304348 0.04166666666666666 0  2.643478260869565 0.04166666666666666 0  2.651739130434783 0.04166666666666666 0  2.66 0.04166666666666666 0  2.668260869565217 0.04166666666666666 0  2.676521739130435 0.04166666666666666 0  2.684782608695652 0.04166666666666666 0  2.693043478260869 0.04166666666666666 0  2.701304347826087 0.04166666666666666 0  2.709565217391304 0.04166666666666666 0  2.717826086956522 0.04166666666666666 0  2.726086956521739 0.04166666666666666 0  2.734347826086956 0.04166666666666666 0  2.742608695652174 0.04166666666666666 0  2.750869565217391 0.04166666666666666 0  2.759130434782609 0.04166666666666666 0  2.767391304347826 0.04166666666666666 0  2.775652173913044 0.04166666666666666 0  2.783913043478261 0.04166666666666666 0  2.792173913043478 0.04166666666666666 0  2.800434782608696 0.04166666666666666 0  2.808695652173913 0.04166666666666666 0  2.81695652173913 0.04166666666666666 0  2.825217391304347 0.04166666666666666 0  2.833478260869565 0.04166666666666666 0  2.841739130434783 0.04166666666666666 0  2.85 0.04166666666666666 0  2.858260869565217 0.04166666666666666 0  2.866521739130435 0.04166666666666666 0  2.874782608695652 0.04166666666666666 0  2.88304347826087 0.04166666666666666 0  2.891304347826087 0.04166666666666666 0  2.899565217391304 0.04166666666666666 0  2.907826086956522 0.04166666666666666 0  2.916086956521739 0.04166666666666666 0  2.924347826086957 0.04166666666666666 0  2.932608695652174 0.04166666666666666 0  2.940869565217391 0.04166666666666666 0  2.949130434782608 0.04166666666666666 0  2.957391304347826 0.04166666666666666 0  2.643478260869565 0.05 0  2.651739130434783 0.05 0  2.66 0.05 0  2.668260869565217 0.05 0  2.676521739130435 0.05 0  2.684782608695652 0.05 0  2.693043478260869 0.05 0  2.701304347826087 0.05 0  2.709565217391304 0.05 0  2.717826086956522 0.05 0  2.726086956521739 0.05 0  2.734347826086956 0.05 0  2.742608695652174 0.05 0  2.750869565217391 0.05 0  2.759130434782609 0.05 0  2.767391304347826 0.05 0  2.775652173913044 0.05 0  2.783913043478261 0.05 0  2.792173913043478 0.05 0  2.800434782608696 0.05 0  2.808695652173913 0.05 0  2.81695652173913 0.05 0  2.825217391304347 0.05 0  2.833478260869565 0.05 0  2.841739130434783 0.05 0  2.85 0.05 0  2.858260869565217 0.05 0  2.866521739130435 0.05 0  2.874782608695652 0.05 0  2.88304347826087 0.05 0  2.891304347826087 0.05 0  2.899565217391304 0.05 0  2.907826086956522 0.05 0  2.916086956521739 0.05 0  2.924347826086957 0.05 0  2.932608695652174 0.05 0  2.940869565217391 0.05 0  2.949130434782608 0.05 0  2.957391304347826 0.05 0  2.965652173913043 0.05 0  2.651739130434783 0.05833333333333333 0  2.66 0.05833333333333333 0  2.668260869565217 0.05833333333333333 0  2.676521739130435 0.05833333333333333 0  2.684782608695652 0.05833333333333333 0  2.693043478260869 0.05833333333333333 0  2.701304347826087 0.05833333333333333 0  2.709565217391304 0.05833333333333333 0  2.717826086956522 0.05833333333333333 0  2.726086956521739 0.05833333333333333 0  2.7343478
[...]
<CellData  Scalars="rho"> 
<DataArray  type="Float64"  Name="rho"  format="ascii">2.9311705606746086e-01   2.9015045336016110e-01   2.9275937443755079e-01   2.8980029759671067e-01   2.9239931684442488e-01   2.8945021309467628e-01   2.9204076237065718e-01   2.8909902935660114e-01   2.9167957658538818e-01   2.8874827791877677e-01   2.9131966699669204e-01   2.8839710052810213e-01   2.9095769752053230e-01   2.8804495601465280e-01   2.9059594708179481e-01   2.8769205276857907e-01   2.9023285326811915e-01   2.8733953956824915e-01   2.8987032816933145e-01   2.8698554542280807e-01   2.8950664853639319e-01   2.8663228369918214e-01   2.8914296779544135e-01   2.8627835395478357e-01   2.8877849492307645e-01   2.8592413423354751e-01   2.8841439635181815e-01   2.8556904685575757e-01   2.8804868956409868e-01   2.8521417139385530e-01   2.8768413078914429e-01   2.8485853729748184e-01   2.8731764311225372e-01   2.8450307018856530e-01   2.4646997970477025e-01   2.4699011493998152e-01   2.4617116826614135e-01   2.4667446885898181e-01   2.4587341424500464e-01   2.4636137401259167e-01   2.4557759531150178e-01   2.4605095549212136e-01   2.4528416597339356e-01   2.4574046898160354e-01   2.4499215089279369e-01   2.4543264195362766e-01   2.4470076134988833e-01   2.4512609013916301e-01   2.4441147657478302e-01   2.4481985552573535e-01   2.4412385744916870e-01   2.4451642152994438e-01   2.4383754668007859e-01   2.4421552154338858e-01   2.4355400738847988e-01   2.4391486756777236e-01   2.4327229539383763e-01   2.4361876714649822e-01   2.4299177346247564e-01   2.4332269467826717e-01   2.4271340884937156e-01   2.4302765197575665e-01   2.4243744414170176e-01   2.4273508551081158e-01   2.4216187814600584e-01   2.4244482821573143e-01   2.4188877711426132e-01   2.4215501517061969e-01   2.4161830823413577e-01   2.4186878250174748e-01   2.4134786609817263e-01   2.4158358439069416e-01   2.4108125054542967e-01   2.4129985794362718e-01   2.4081656004001203e-01   2.4101883933167698e-01   2.8695154731404066e-01   2.8414734303712491e-01   2.8658435606418381e-01   2.8379075901318795e-01   2.8621672358900602e-01   2.8343380686909636e-01   2.8584840682924700e-01   2.8307700688221338e-01   2.8548112746772542e-01   2.8271968400057762e-01   2.8511203304006844e-01   2.8236238610543968e-01   2.8474445020103756e-01   2.8200513301288477e-01   2.8437468103814023e-01   2.8164714038217364e-01   2.8400634915917961e-01   2.8128836333035873e-01   2.8363547438446290e-01   2.8093020557865966e-01   2.8326650566709183e-01   2.8057098946209263e-01   2.8289512768049702e-01   2.8021246384168946e-01   2.8252562270852610e-01   2.7985334632236802e-01   2.8215371453248228e-01   2.7949371830256398e-01   2.8178275421599625e-01   2.7913334273465751e-01   2.8141003392433594e-01   2.7877378986528928e-01   2.8103844435384079e-01   2.7841371569397666e-01   2.4055332424957310e-01   2.4074121326338024e-01   2.4029240404929647e-01   2.4046429528623584e-01   2.4003426705113209e-01   2.4019012205159285e-01   2.3977739244760007e-01   2.3991793253977006e-01   2.3952341006471964e-01   2.3964866421367800e-01   2.3927166236837935e-01   2.3938105207696611e-01   2.3902274811730398e-01   2.3911802098302212e-01   2.3877673312411118e-01   2.3885572533275684e-01   2.3853414006826718e-01   2.3859788259829826e-01   2.3829191137469904e-01   2.3834270734290011e-01   2.3805509920744958e-01   2.3809130064297374e-01   2.3782025247252739e-01   2.3784335513953220e-01   2.3758917721079045e-01   2.3759889525743386e-01   2.3736200924558387e-01   2.3735796039024581e-01   2.3713841681621109e-01   2.3712144467335797e-01   2.3691776831763969e-01   2.3688965903811257e-01   2.3670245615722019e-01   2.3666306773761170e-01   2.3649172178871722e-01   2.3644185932566708e-01   2.3628539674173982e-01   2.3622566751219648e-01   2.3608432939602114e-01   2.3601369519882176e-01   2.3588760194108524e-01   2.3580763108236055e-01   2.3569558514354644e-01   2.8066562104471338e-01   2.7805380533912499e-01   2.8029372537610603e-01   2.7769425393656016e-01   2.7992038328013086e-01   2.7733370066631235e-01   2.7954850804556808e-01   2.7697283923401816e-01   2.7917418100581015e-01   2.7661243808509217e-01   2.7880266681081134e-01   2.7625169854332587e-01   2.7842831158528503e-01   2.7589156855714586e-01   2.7805596474777833e-01   2.7553124315387773e-01   2.7768159651428226e-01   2.7517052518472968e-01   2.7730790622891915e-01   2.7480860945071578e-01   2.7693295738701940e-01   2.7444817430366453e-01   2.7655998133002946e-01   2.7408675580544478e-01   2.7618522161753462e-01   2.7372669698498237e-01   2.7581139535740723e-01   2.7336592049911068e-01   2.7543696706978221e-01   2.7300554775882119e-01   2.7506231430951356e-01   2.7264425865441927e-01   2.7468776439654852e-01   2.3560791511385490e-01   2.7228415425031155e-01   2.3550952524979321e-01   2.3541489202498225e-01   2.3532954619952273e-01   2.3522881150217678e-01   2.3515538235004724e-01   2.3504942250655089e-01   2.3498747927545885e-01   2.3487607220198323e-01   2.3482547355386627e-01   2.3471008107364785e-01   2.3466994866900678e-01   2.3455136785205133e-01   2.3452080336523162e-01   2.3440080707275654e-01   2.3437893642943314e-01   2.3425787878957899e-01   2.3424353565583983e-01   2.3412268288688687e-01   2.3411502118197433e-01   2.3399442036006601e-01   2.3399319804868809e-01   2.3387400302005867e-01   2.3387803476850749e-01   2.3376109971660466e-01   2.3376985346568563e-01   2.3365622977738595e-01   2.3366819826716850e-01   2.3355893757048460e-01   2.3357352492211989e-01   2.3346881616415963e-01   2.3348525624699740e-01   2.3338459404159440e-01   2.3340290582447923e-01   2.3330724529838012e-01   2.3332611577228984e-01   2.3323588071585569e-01   2.3325513019687197e-01   2.3317058154328971e-01   2.3318946935628646e-01   2.3311049556204685e-01   2.3312889456043748e-01   2.3305551202223587e-01   2.3307274851478310e-01   2.7431423759637247e-01   2.7192344545042862e-01   2.7393954833267109e-01   2.7156372352541885e-01   2.7356611203695641e-01   2.7120362302999629e-01   2.7319137203453703e-01   2.7084392070749280e-01   2.7281772815146238e-01   2.7048333712910810e-01   2.7244306255412243e-01   2.7012435218004016e-01   2.7207016335513012e-01   2.6976457159423434e-01   2.7169604049377966e-01   2.6940610337346271e-01   2.7132283261830636e-01   2.6904716846786064e-01   2.7094909058174621e-01   2.6868882827242174e-01   2.7057583187666590e-01   2.6832944014411048e-01   2.7020207864794898e-01   2.6797172343799258e-01   2.6983049929119213e-01   2.6761354070509208e-01   2.6945725728252795e-01   2.6725647458150070e-01   2.6908540976401629e-01   2.6689942640426517e-01   2.6871277404525012e-01   2.6654242923776067e-01   2.6834033271846225e-01   2.3300453928009593e-01   2.3302099212849425e-01   2.3295761010949775e-01   2.3297264071243007e-01   2.3291391006535495e-01   2.3292791917590397e-01   2.3287319081765448e-01   2.3288607625099594e-01   2.3283504895345500e-01   2.3284702868636090e-01   2.3279897924070642e-01   2.3281018343807719e-01   2.3276466146301708e-01   2.3277536640587662e-01   2.3273172031579104e-01   2.3274207458922130e-01   2.3269986723745478e-01   2.3271008690600289e-01   2.3266880424628983e-01   2.3267901359689369e-01   2.3263817788604180e-01   2.3264843505370417e-01   2.3260773023674777e-01   2.3261801778445990e-01   2.3257737968818268e-01   2.3258750792107019e-01   2.6253255691991151e-01   2.6091019735975901e-01   2.6217017427846950e-01   2.6056483942427150e-01   2.6180986542854567e-01   2.6022063461493566e-01   2.6144886955951402e-01   2.5987785759739140e-01   2.6109147376416547e-01   2.5953465598354719e-01   2.6073352322410875e-01   2.5919367018412254e-01   2.6037547167298047e-01   2.5885321186217042e-01   2.6001954018480306e-01   2.5851323392488817e-01   2.5966402645254288e-01   2.5817483919601580e-01   2.5930935796569549e-01   2.6618523233433761e-01   2.6796792459055718e-01   2.6582937280006314e-01   2.6759744352587139e-01   2.6547355033253334e-01   2.6722603726379796e-01   2.6511873494004989e-01   2.6685639487971058e-01   2.6476455001694726e-01   2.6648587156472747e-01   2.6441049707480785e-01   2.6611663883047548e-01   2.6405617272731435e-01   2.6574652166798141e-01   2.6370303476641038e-01   2.6537815051089508e-01   2.6335003957503988e-01   2.6500885907637828e-01   2.6299824023082963e-01   2.6464198214439455e-01   2.6264672475503226e-01   2.6427391453314186e-01   2.6229628622150147e-01   2.6390762884187441e-01   2.6194532077034344e-01   2.6354076319069647e-01   2.6159638028369975e-01   2.6317502286240313e-01   2.6124667232509236e-01   2.6280960162629619e-01   2.6089882999689601e-01   2.5783709253035653e-01   2.5895589193642587e-01   2.5750055512973452e-01   2.5860355714465494e-01   2.5716492323096157e-01   2.5825058884014801e-01   2.5683000353572866e-01   2.5790011388530276e-01   2.5649577846921279e-01   2.5755056143212873e-01   2.5616308218904077e-01   2.5720174633179710e-01   2.5583158699376995e-01   2.5685431031516043e-01   2.5550173660265768e-01   2.5650845990556598e-01   2.5517245651961468e-01   2.5616232162544039e-01   2.5484452168274890e-01   2.5581876074943666e-01   2.5451727489959608e-01   2.5547696391214808e-01   2.5419240104062146e-01   2.5513485088171872e-01   2.5386815772844129e-01   2.5479467110114629e-01   2.5354485384322728e-01   2.5445608035926298e-01   2.5322331040252249e-01   2.5411679200727771e-01   2.5290243541928198e-01   2.5378087592276505e-01   2.5258301441449860e-01   2.5344587101528010e-01   2.5226545679238666e-01   2.5311197695749987e-01   2.5194920699478601e-01   2.5278047348227572e-01   2.5163440001379822e-01   2.5245025707042373e-01   2.5132140579030215e-01   2.5211924886847281e-01   2.5100917718121923e-01   2.5179175541981474e-01   2.5069825142447016e-01   2.5146550466524659e-01   2.5038948395215882e-01   2.6244549996887828e-01   2.6055216237538542e-01   2.6208186038893722e-01   2.6020629382169874e-01   2.6171924389043516e-01   2.5985924841725955e-01   2.6135729972695920e-01   2.9976876692840632e-01   3.0249625306397526e-01   2.9942139838059734e-01   3.0214185360802109e-01   2.9907266508388974e-01   3.0178816009764714e-01   2.9872424942174686e-01   3.0143108783934575e-01   2.9837380257499707e-01   3.0107327301139908e-01   2.9802364656073660e-01   3.0071592065791025e-01   2.9767297905825918e-01   3.0035853005242963e-01   2.9732131607697770e-01   3.0000048114696953e-01   2.9696993211911210e-01   2.9963902866715314e-01   2.9661643907556884e-01   2.9927913804540174e-01   2.9626560242585259e-01   2.9891730209626838e-01   2.5114046290154191e-01   2.5008191243153405e-01   2.5081693183398296e-01   2.4977560449437231e-01   2.5049577247779264e-01   2.4947139335572444e-01   2.5017329905638780e-01   2.4916783792368632e-01   2.4985498908118936e-01   2.4886587511882355e-01   2.4953730346249042e-01   2.4856535005131025e-01   2.4922114347698257e-01   2.4826675029884129e-01   2.4890735358569416e-01   2.4796998752994998e-01   2.4859542819551117e-01   2.4767518371915290e-01   2.4828370252720991e-01   2.4738238958053263e-01   2.4797493990494412e-01   2.4709014892015965e-01   2.4766815580146151e-01   2.4679989959190646e-01   2.4736191936115778e-01   2.4651162633405160e-01   2.4705754890112142e-01   2.4622485895520255e-01   2.4675572069960383e-01   2.4594011136480715e-01   2.4645390493055483e-01   2.4565701140762922e-01   2.4615550370685399e-01   2.4537493592925025e-01   2.4585821663355942e-01   2.4509549140921949e-01   2.4556279182469171e-01   2.4481697690255250e-01   2.4526982420348697e-01   2.4454163139892740e-01   2.4497825614522509e-01   2.4426716376666444e-01   2.4468735461403893e-01   2.4399434694685976e-01   2.4439859092751359e-01   2.4372239075285412e-01   2.4411147483140280e-01   2.4345183214823307e-01   2.4382567424934953e-01   2.9591124095238264e-01   2.9855723206137585e-01   2.9555730169215166e-01   2.9819613546818591e-01   2.9520253502632415e-01   2.9783367256137533e-01   2.9484551571408196e-01   2.9746749115576965e-01   2.9448933110856923e-01   2.9710333784967213e-01   2.9413259774496725e-01   2.9673691916175027e-01   2.9377529464756336e-01   2.9637210339769920e-01   2.9341809638574767e-01   2.9600681777205839e-01   2.9305932678089680e-01   2.9564026171830882e-01   2.9270147577372646e-01   2.9527140719279987e-01   2.9234128986311719e-01   2.9490380194690935e-01   2.9198257479501194e-01   2.9453419923371227e-01   2.9162126176878977e-01   2.9416586455359339e-01   2.9126120277417594e-01   2.4318379813784158e-01   2.4354269955135011e-01   2.4291831016907359e-01   2.4326155543781622e-01   2.4265451582059969e-01   2.4298161121132283e-01   2.4239220764197886e-01   2.4270389795102343e-01   2.4213147031967322e-01   2.4242858185964086e-01   2.4187304476724894e-01   2.4215369826174049e-01   2.4161645393796580e-01   2.4188130233828967e-01   2.4136097576350224e-01   2.4161154831523213e-01   2.4110818987304541e-01   2.4134191329359297e-01   2.4085769493098150e-01   2.4107615449296885e-01   2.4060830511713785e-01   2.4081239798923684e-01   2.4036248281989400e-01   2.4055001268869339e-01   2.4011724907098864e-01   2.4029003300699758e-01   2.3987498475601146e-01   2.4003287178511304e-01   2.3963461067135114e-01   2.3977703031971520e-01   2.3939679594649702e-01   2.3952411981147390e-01   2.3916072362664795e-01   2.3927351811538708e-01   2.3892769658250232e-01   2.3902577084354010e-01   2.3869683706179270e-01   2.3878097683446844e-01   2.3846912317420538e-01   2.3853955697932952e-01   2.3824385604212561e-01   2.3829860681624820e-01   2.3802138382417826e-01   2.3806314249887184e-01   2.3780151223487292e-01   2.3782970251931143e-01   2.3758515098117408e-01   2.3760009791119197e-01   2.3737135080020205e-01   2.3737440241274416e-01   2.3716119102551214e-01   2.9379606258276031e-01   2.9089908919839996e-01   2.9342610262653829e-01   2.9053719227323199e-01   2.9305311257216554e-01   2.9017395665442081e-01   2.9268178451516785e-01   2.8981127571848553e-01   2.9230787319822044e-01   2.8944746591998310e-01   2.9193549876319852e-01   2.8908363104710044e-01   2.9156288581177642e-01   2.8871898797442741e-01   2.9118899624782540e-01   2.8835471683423991e-01   2.9081424490778746e-01   2.8798888470363809e-01   2.9043903176709024e-01   2.8762416726308582e-01   2.9006320356752396e-01   2.8725757106730637e-01   2.8968754258488244e-01   2.8689132021756203e-01   2.8931162430248064e-01   2.3715228965832161e-01   2.8652399498466635e-01   2.3695492740217677e-01   2.3693318996280727e-01   2.3675194478931250e-01   2.3671952110532810e-01   2.3655339909960288e-01   2.3651036424450556e-01   2.3635851811960498e-01   2.3630559990641517e-01   2.3616794546204384e-01   2.3610611582187954e-01   2.3598225965074240e-01   2.3591095822251165e-01   2.3580060310966838e-01   2.3572056201455310e-01   2.3562377627486863e-01   2.3553603571358261e-01   2.3545133670062213e-01   2.3535753797312908e-01   2.3528452690807972e-01   2.3518471381283870e-01   2.3512260560339299e-01   2.3501806712125167e-01   2.3496631785459132e-01   2.3485723415017171e-01   2.3481535469901338e-01   2.3470284807454903e-01   2.3467031241427896e-01   2.3455460965469374e-01   2.3453045956613697e-01   2.3441351158171028e-01   2.3439695324041074e-01   2.3427857708836763e-01   2.3426864490402849e-01   2.3415028812752972e-01   2.3414626976395908e-01   2.3402846898913524e-01   2.3402957984141795e-01   2.3391310243044686e-01   2.3391889813951297e-01   2.3380438899894143e-01   2.3381378024030869e-01   2.3370194694313084e-01   2.3371470680433640e-01   2.3360613687894088e-01   2.3362072904030251e-01   2.3351632342790538e-01   2.3353254178693733e-01   2.3343215958225780e-01   2.3344932666592247e-01   2.3335328573929071e-01   2.3337141929927849e-01   2.8893470783209407e-01   2.8615622072191038e-01   2.8855545690465018e-01   2.8578775020220859e-01   2.8817756028210728e-01   2.8542031708219051e-01   2.8779727469932825e-01   2.8505109883070667e-01   2.8741872114427169e-01   2.8468336672507943e-01   2.8704034701377940e-01   2.8431344212261084e-01   2.8666070338289129e-01   2.8394496098297772e-01   2.8628014727132428e-01   2.8357394821585602e-01   2.8589948672797277e-01   2.8320484492863363e-01   2.8551732629553250e-01   2.8283334600134974e-01   2.8513634423977918e-01   2.8246371165229378e-01   2.8475491637666039e-01   2.8209167228073562e-01   2.8437304377662376e-01   2.3327989838056892e-01   2.8172058334526923e-01   2.3329791365959082e-01   2.3321158147601856e-01   2.3322945250242816e-01   2.3314805847281206e-01   2.3316517382669968e-01   2.3308872988478249e-01   2.3310519641326571e-01   2.3303371067462542e-01   2.3304911219844490e-01   2.3298202004776952e-01   2.3299660387972754e-01   2.3293404056350855e-01   2.3294751249564880e-01   2.3288902144365925e-01   2.3290161926602862e-01   2.3284702012022490e-01   2.3285876526458654e-01   2.3280752833591864e-01   2.3281864442868108e-01   2.3277042389155911e-01   2.3278102687801325e-01   2.3273522847977432e-01   2.3274553408941159e-01   2.3270176605410861e-01   2.3271192149836942e-01   2.3266961151257629e-01   2.3267976741249549e-01   2.3263835596048324e-01   2.3264858739236646e-01   2.3260769179466026e-01   2.3261793759900037e-01   2.3257758398709824e-01   2.3258748210989577e-01   2.6087306262536941e-01   2.5929083756407245e-01   2.6052798883833550e-01   2.5896250303168089e-01   2.6018399574809564e-01   2.5863484042419621e-01   2.5984144610341753e-01   2.5830868589930928e-01   2.5949851775778154e-01   2.5798359545387217e-01   2.5915781259282344e-01   2.5765880473140007e-01   2.5881762577686745e-01   2.5733527988952465e-01   2.5847793104190997e-01   2.5701273410279640e-01   2.5813982411745595e-01   2.5669200715289908e-01   2.8398877290751973e-01   2.8134773751692455e-01   2.8360600636697941e-01   2.8097601081740370e-01   2.8322033267764651e-01   2.8060309483251011e-01   2.8283735151677009e-01   2.8023106307614326e-01   2.8245331119796335e-01   2.7985757047915272e-01   2.8206955282093765e-01   2.7948555143055309e-01   2.8168307249250707e-01   2.7911109419512919e-01   2.8129860170387966e-01   2.7873944462047667e-01   2.8091162108635803e-01   2.7836499239902784e-01   2.8052718803252757e-01   2.7799252430311688e-01   2.8014198611589874e-01   2.7761803982731376e-01   2.7975653356216862e-01   2.7724423068870724e-01   2.7936844965058849e-01   2.5780236142206348e-01   2.7686915579947485e-01   2.5637108899250760e-01   2.5746611989262003e-01   2.5605245246040415e-01   2.5713076023742049e-01   2.5573343816445082e-01   2.5679611786252554e-01   2.5541624954477254e-01   2.5646219250990082e-01   2.5509967363534192e-01   2.5612979543628051e-01   2.5478468843420593e-01   2.5579863209415116e-01   2.5447067559642084e-01   2.5546910254432109e-01   2.5415830551137120e-01   2.5514014027987719e-01   2.5384658416420774e-01   2.5481250241889547e-01   2.5353601871923437e-01   2.5448559763771228e-01   2.5322696255535559e-01   2.5416101969421345e-01   2.5291868294000031e-01   2.5383711318187652e-01   2.5261216614119891e-01   2.5351413608276707e-01   2.5230677498286402e-01   2.5319292402840177e-01   2.5200244857663995e-01   2.5287239475262158e-01   2.5169973791155448e-01   2.5255334205964036e-01   2.5139820929931661e-01   2.5223613854064902e-01   2.5109814462273583e-01   2.5192025754776404e-01   2.5079928975975879e-01   2.5160581680115840e-01   2.5050259158697641e-01   2.5129317890194081e-01   2.5020634276834042e-01   2.5098132612002771e-01   2.4991257425867322e-01   2.5067078713513408e-01   2.4961944335258535e-01   2.5036237658288807e-01   2.4932808703361109e-01   2.5005519717994462e-01   2.4903795743145132e-01   2.4974928024429946e-01   2.4874985037637901e-01   2.7898236680388355e-01   2.7649606239862662e-01   2.7859361713359299e-01   2.7612121265537537e-01   2.7820783945322625e-01   2.7574726698884883e-01   2.7782118066399542e-01   2.7537273610625329e-01   2.7743442349414604e-01   2.7499795413770811e-01   2.7704539401769679e-01   2.7462330066905299e-01   2.7665830426958415e-01   2.7424963795007429e-01   2.7626968864096746e-01   2.7387486033809749e-01   2.7588292350458810e-01   2.7350130962349051e-01   2.7549570888487451e-01   2.7312645323260354