<?xml version="1.0"?>
<VTKFile type="UnstructuredGrid"  version="0.1"  >
<UnstructuredGrid>
<Piece  NumberOfPoints="2488" NumberOfCells="4777">
<Points>
<DataArray  type="Float64"  NumberOfComponents="3"  format="ascii">2.924347826086957 0 0  2.932608695652174 0 0  2.932608695652174 0.008333333333333333 0  2.924347826086957 0.008333333333333333 0  2.940869565217391 0 0  2.940869565217391 0.008333333333333333 0  2.949130434782608 0 0  2.949130434782608 0.008333333333333333 0  2.957391304347826 0 0  2.957391304347826 0.008333333333333333 0  2.965652173913043 0 0  2.965652173913043 0.008333333333333333 0  2.973913043478261 0 0  2.973913043478261 0.008333333333333333 0  2.982173913043478 0 0  2.982173913043478 0.008333333333333333 0  2.990434782608696 0 0  2.990434782608696 0.008333333333333333 0  2.998695652173913 0 0  2.998695652173913 0.008333333333333333 0  3.006956521739131 0 0  3.006956521739131 0.008333333333333333 0  3.015217391304348 0 0  3.015217391304348 0.008333333333333333 0  3.023478260869565 0 0  3.023478260869565 0.008333333333333333 0  3.031739130434782 0 0  3.031739130434782 0.008333333333333333 0  3.04 0 0  3.04 0.008333333333333333 0  3.048260869565218 0 0  3.048260869565218 0.008333333333333333 0  3.056521739130435 0 0  3.056521739130435 0.008333333333333333 0  3.064782608695652 0 0  3.064782608695652 0.008333333333333333 0  3.073043478260869 0 0  3.073043478260869 0.008333333333333333 0  3.081304347826087 0 0  3.081304347826087 0.008333333333333333 0  3.089565217391304 0 0  3.089565217391304 0.008333333333333333 0  3.097826086956522 0 0  3.097826086956522 0.008333333333333333 0  3.106086956521739 0 0  3.106086956521739 0.008333333333333333 0  3.114347826086956 0 0  3.114347826086956 0.008333333333333333 0  3.122608695652174 0 0  3.122608695652174 0.008333333333333333 0  3.130869565217391 0 0  3.130869565217391 0.008333333333333333 0  3.139130434782609 0 0  3.139130434782609 0.008333333333333333 0  3.147391304347826 0 0  3.147391304347826 0.008333333333333333 0  3.155652173913043 0 0  3.155652173913043 0.008333333333333333 0  3.163913043478261 0 0  3.163913043478261 0.008333333333333333 0  3.172173913043478 0 0  3.172173913043478 0.008333333333333333 0  3.180434782608696 0 0  3.180434782608696 0.008333333333333333 0  3.188695652173913 0 0  3.188695652173913 0.008333333333333333 0  3.19695652173913 0 0  3.19695652173913 0.008333333333333333 0  3.205217391304347 0 0  3.205217391304347 0.008333333333333333 0  3.213478260869565 0 0  3.213478260869565 0.008333333333333333 0  3.221739130434782 0 0  3.221739130434782 0.008333333333333333 0  3.23 0 0  3.23 0.008333333333333333 0  3.238260869565217 0 0  3.238260869565217 0.008333333333333333 0  3.246521739130435 0 0  3.246521739130435 0.008333333333333333 0  3.254782608695652 0.008333333333333333 0  2.932608695652174 0.01666666666666667 0  2.940869565217391 0.01666666666666667 0  2.949130434782608 0.01666666666666667 0  2.957391304347826 0.01666666666666667 0  2.965652173913043 0.01666666666666667 0  2.973913043478261 0.01666666666666667 0  2.982173913043478 0.01666666666666667 0  2.990434782608696 0.01666666666666667 0  2.998695652173913 0.01666666666666667 0  3.006956521739131 0.01666666666666667 0  3.015217391304348 0.01666666666666667 0  3.023478260869565 0.01666666666666667 0  3.031739130434782 0.01666666666666667 0  3.04 0.01666666666666667 0  3.048260869565218 0.01666666666666667 0  3.056521739130435 0.01666666666666667 0  3.064782608695652 0.01666666666666667 0  3.073043478260869 0.01666666666666667 0  3.081304347826087 0.01666666666666667 0  3.089565217391304 0.01666666666666667 0  3.097826086956522 0.01666666666666667 0  3.106086956521739 0.01666666666666667 0  3.114347826086956 0.01666666666666667 0  3.122608695652174 0.01666666666666667 0  3.130869565217391 0.01666666666666667 0  3.139130434782609 0.01666666666666667 0  3.147391304347826 0.01666666666666667 0  3.155652173913043 0.01666666666666667 0  3.163913043478261 0.01666666666666667 0  3.172173913043478 0.01666666666666667 0  3.180434782608696 0.01666666666666667 0  3.188695652173913 0.01666666666666667 0  3.19695652173913 0.01666666666666667 0  3.205217391304347 0.01666666666666667 0  3.213478260869565 0.01666666666666667 0  3.221739130434782 0.01666666666666667 0  3.23 0.01666666666666667 0  3.238260869565217 0.01666666666666667 0  3.246521739130435 0.01666666666666667 0  3.254782608695652 0.01666666666666667 0  3.26304347826087 0.01666666666666667 0  2.940869565217391 0.025 0  2.949130434782608 0.025 0  2.957391304347826 0.025 0  2.965652173913043 0.025 0  2.973913043478261 0.025 0  2.982173913043478 0.025 0  2.990434782608696 0.025 0  2.998695652173913 0.025 0  3.006956521739131 0.025 0  3.015217391304348 0.025 0  3.023478260869565 0.025 0  3.031739130434782 0.025 0  3.04 0.025 0  3.048260869565218 0.025 0  3.056521739130435 0.025 0  3.064782608695652 0.025 0  3.073043478260869 0.025 0  3.081304347826087 0.025 0  3.089565217391304 0.025 0  3.097826086956522 0.025 0  3.106086956521739 0.025 0  3.114347826086956 0.025 0  3.122608695652174 0.025 0  3.130869565217391 0.025 0  3.139130434782609 0.025 0  3.147391304347826 0.025 0  3.155652173913043 0.025 0  3.163913043478261 0.025 0  3.172173913043478 0.025 0  3.180434782608696 0.025 0  3.188695652173913 0.025 0  3.19695652173913 0.025 0  3.205217391304347 0.025 0  3.213478260869565 0.025 0  3.221739130434782 0.025 0  3.23 0.025 0  3.238260869565217 0.025 0  3.246521739130435 0.025 0  3.254782608695652 0.025 0  3.26304347826087 0.025 0  3.271304347826087 0.025 0  2.949130434782608 0.03333333333333333 0  2.957391304347826 0.03333333333333333 0  2.965652173913043 0.03333333333333333 0  2.973913043478261 0.03333333333333333 0  2.982173913043478 0.03333333333333333 0  2.990434782608696 0.03333333333333333 0  2.998695652173913 0.03333333333333333 0  3.006956521739131 0.03333333333333333 0  3.015217391304348 0.03333333333333333 0  3.023478260869565 0.03333333333333333 0  3.031739130434782 0.03333333333333333 0  3.04 0.03333333333333333 0  3.048260869565218 0.03333333333333333 0  3.056521739130435 0.03333333333333333 0  3.064782608695652 0.03333333333333333 0  3.073043478260869 0.03333333333333333 0  3.081304347826087 0.03333333333333333 0  3.089565217391304 0.03333333333333333 0  3.097826086956522 0.03333333333333333 0  3.106086956521739 0.03333333333333333 0  3.114347826086956 0.03333333333333333 0  3.122608695652174 0.03333333333333333 0  3.130869565217391 0.03333333333333333 0  3.139130434782609 0.03333333333333333 0  3.147391304347826 0.03333333333333333 0  3.155652173913043 0.03333333333333333 0  3.163913043478261 0.03333333333333333 0  3.172173913043478 0.03333333333333333 0  3.180434782608696 0.03333333333333333 0  3.188695652173913 0.03333333333333333 0  3.19695652173913 0.03333333333333333 0  3.205217391304347 0.03333333333333333 0  3.213478260869565 0.03333333333333333 0  3.221739130434782 0.03333333333333333 0  3.23 0.03333333333333333 0  3.238260869565217 0.03333333333333333 0  3.246521739130435 0.03333333333333333 0  3.254782608695652 0.03333333333333333 0  3.26304347826087 0.03333333333333333 0  3.271304347826087 0.03333333333333333 0  3.279565217391304 0.03333333333333333 0  2.957391304347826 0.04166666666666666 0  2.965652173913043 0.04166666666666666 0  2.973913043478261 0.04166666666666666 0  2.982173913043478 0.04166666666666666 0  2.990434782608696 0.04166666666666666 0  2.998695652173913 0.04166666666666666 0  3.006956521739131 0.04166666666666666 0  3.015217391304348 0.04166666666666666 0  3.023478260869565 0.04166666666666666 0  3.031739130434782 0.04166666666666666 0  3.04 0.04166666666666666 0  3.048260869565218 0.04166666666666666 0  3.056521739130435 0.04166666666666666 0  3.064782608695652 0.04166666666666666 0  3.073043478260869 0.04166666666666666 0  3.081304347826087 0.04166666666666666 0  3.089565217391304 0.04166666666666666 0  3.097826086956522 0.04166666666666666 0  3.106086956521739 0.04166666666666666 0  3.114347826086956 0.04166666666666666 0  3.122608695652174 0.04166666666666666 0  3.130869565217391 0.04166666666666666 0  3.139130434782609 0.04166666666666666 0  3.147391304347826 0.04166666666666666 0  3.155652173913043 0.04166666666666666 0  3.163913043478261 0.04166666666666666 0  3.172173913043478 0.04166666666666666 0  3.180434782608696 0.04166666666666666 0  3.188695652173913 0.04166666666666666 0  3.19695652173913 0.04166666666666666 0  3.205217391304347 0.04166666666666666 0  3.213478260869565 0.04166666666666666 0  3.221739130434782 0.04166666666666666 0  3.23 0.04166666666666666 0  3.238260869565217 0.04166666666666666 0  3.246521739130435 0.04166666666666666 0  3.254782608695652 0.04166666666666666 0  3.26304347826087 0.04166666666666666 0  3.271304347826087 0.04166666666666666 0  3.279565217391304 0.04166666666666666 0  3.287826086956521 0.04166666666666666 0  2.965652173913043 0.05 0  2.973913043478261 0.05 0  2.982173913043478 0.05 0  2.990434782608696 0.05 0  2.998695652173913 0.05 0  3.006956521739131 0.05 0  3.015217391304348 0.05 0  3.023478260869565 0.05 0  3.031739130434782 0.05 0  3.04 0.05 0  3.048260869565218 0.05 0  3.056521739130435 0.05 0  3.064782608695652 0.05 0  3.073043478260869 0.05 0  3.081304347826087 0.05 0  3.089565217391304 0.05 0  3.097826086956522 0.05 0  3.106086956521739 0.05 0  3.114347826086956 0.05 0  3.122608695652174 0.05 0  3.130869565217391 0.05 0  3.139130434782609 0.05 0  3.147391304347826 0.05 0  3.155652173913043 0.05 0  3.163913043478261 0.05 0  3.172173913043478 0.05 0  3.180434782608696 0.05 0  3.188695652173913 0.05 0  3.19695652173913 0.05 0  3.205217391304347 0.05 0  3.213478260869565 0.05 0  3.221739130434782 0.05 0  3.23 0.05 0  3.238260869565217 0.05 0  3.246521739130435 0.05 0  3.254782608695652 0.05 0  3.26304347826087 0.05 0  3.271304347826087 0.05 0  3.279565217391304 0.05 0  3.287826086956521 0.05 0  3.296086956521739 0.05 0  2.973913043478261 0.05833333333333333 0  2.982173913043478 0.05833333333333333 0  2.990434782608696 0.05833333333333
[...]
<CellData  Scalars="rho_bar"> 
<DataArray  type="Float64"  Name="rho_bar"  format="ascii">0.0000000000000000e+00   0.0000000000000000e+00   0.0000000000000000e+00   0.0000000000000000e+00   0.0000000000000000e+00   0.0000000000000000e+00   0.0000000000000000e+00   0.0000000000000000e+00   0.0000000000000000e+00   0.0000000000000000e+00   0.0000000000000000e+00   0.0000000000000000e+00   0.0000000000000000e+00   0.0000000000000000e+00   0.0000000000000000e+00   0.0000000000000000e+00   0.0000000000000000e+00   0.0000000000000000e+00   0.0000000000000000e+00   0.0000000000000000e+00   0.0000000000000000e+00   0.0000000000000000e+00   0.0000000000000000e+00   0.0000000000000000e+00   0.0000000000000000e+00   0.0000000000000000e+00   0.0000000000000000e+00   0.0000000000000000e+00   0.0000000000000000e+00   0.0000000000000000e+00   0.0000000000000000e+00   9.9999999999999989e-01   0.0000000000000000e+00   1.0000000000000000e+00   0.0000000000000000e+00   9.9999999999999989e-01   0.0000000000000000e+00   9.9976286511640511e-01   0.0000000000000000e+00   9.9781781697151972e-01   0.0000000000000000e+00   9.9913063944211067e-01   0.0000000000000000e+00   9.8238521649748078e-01   0.0000000000000000e+00   0.0000000000000000e+00   0.0000000000000000e+00   0.0000000000000000e+00   0.0000000000000000e+00   0.0000000000000000e+00   0.0000000000000000e+00   0.0000000000000000e+00   0.0000000000000000e+00   0.0000000000000000e+00   0.0000000000000000e+00   0.0000000000000000e+00   0.0000000000000000e+00   0.0000000000000000e+00   0.0000000000000000e+00   0.0000000000000000e+00   0.0000000000000000e+00   0.0000000000000000e+00   0.0000000000000000e+00   0.0000000000000000e+00   0.0000000000000000e+00   0.0000000000000000e+00   0.0000000000000000e+00   0.0000000000000000e+00   0.0000000000000000e+00   0.0000000000000000e+00   0.0000000000000000e+00   0.0000000000000000e+00   0.0000000000000000e+00   0.0000000000000000e+00   0.0000000000000000e+00   0.0000000000000000e+00   0.0000000000000000e+00   0.0000000000000000e+00   0.0000000000000000e+00   0.0000000000000000e+00   0.0000000000000000e+00   5.8661439990743425e-01   0.0000000000000000e+00   9.4789907923155237e-01   0.0000000000000000e+00   9.9588289751641668e-01   0.0000000000000000e+00   9.9045569026676128e-01   0.0000000000000000e+00   9.9105999736397066e-01   0.0000000000000000e+00   9.8967670851871192e-01   0.0000000000000000e+00   9.8854981062155911e-01   0.0000000000000000e+00   9.7533814228929783e-01   0.0000000000000000e+00   7.4523758753740454e-01   0.0000000000000000e+00   3.2925814359679773e-01   0.0000000000000000e+00   7.1325309521477837e-02   0.0000000000000000e+00   0.0000000000000000e+00   0.0000000000000000e+00   0.0000000000000000e+00   0.0000000000000000e+00   0.0000000000000000e+00   0.0000000000000000e+00   0.0000000000000000e+00   0.0000000000000000e+00   0.0000000000000000e+00   0.0000000000000000e+00   0.0000000000000000e+00   0.0000000000000000e+00   0.0000000000000000e+00   0.0000000000000000e+00   0.0000000000000000e+00   0.0000000000000000e+00   0.0000000000000000e+00   0.0000000000000000e+00   0.0000000000000000e+00   0.0000000000000000e+00   0.0000000000000000e+00   0.0000000000000000e+00   0.0000000000000000e+00   0.0000000000000000e+00   0.0000000000000000e+00   0.0000000000000000e+00   0.0000000000000000e+00   0.0000000000000000e+00   0.0000000000000000e+00   0.0000000000000000e+00   0.0000000000000000e+00   0.0000000000000000e+00   0.0000000000000000e+00   0.0000000000000000e+00   0.0000000000000000e+00   0.0000000000000000e+00   0.0000000000000000e+00   0.0000000000000000e+00   0.0000000000000000e+00   0.0000000000000000e+00   0.0000000000000000e+00   0.0000000000000000e+00   0.0000000000000000e+00   0.0000000000000000e+00   0.0000000000000000e+00   0.0000000000000000e+00   0.0000000000000000e+00   0.0000000000000000e+00   0.0000000000000000e+00   5.0647621280559729e-01   0.0000000000000000e+00   8.1403453797882208e-01   0.0000000000000000e+00   8.8736534828405689e-01   0.0000000000000000e+00   9.5111331954758360e-01   0.0000000000000000e+00   9.8987479018891300e-01   0.0000000000000000e+00   9.9376224657633083e-01   0.0000000000000000e+00   9.8930661371401485e-01   0.0000000000000000e+00   9.8852377029915506e-01   0.0000000000000000e+00   9.8875411704703076e-01   0.0000000000000000e+00   9.8793790256058533e-01   0.0000000000000000e+00   9.7764395586862551e-01   0.0000000000000000e+00   9.9313581236162163e-01   0.0000000000000000e+00   1.0000000000000000e+00   0.0000000000000000e+00   1.0000000000000000e+00   0.0000000000000000e+00   9.9999999999999989e-01   0.0000000000000000e+00   1.0000000000000000e+00   0.0000000000000000e+00   9.9999999999999989e-01   0.0000000000000000e+00   1.0000000000000000e+00   0.0000000000000000e+00   0.0000000000000000e+00   0.0000000000000000e+00   0.0000000000000000e+00   0.0000000000000000e+00   0.0000000000000000e+00   0.0000000000000000e+00   0.0000000000000000e+00   0.0000000000000000e+00   0.0000000000000000e+00   0.0000000000000000e+00   0.0000000000000000e+00   0.0000000000000000e+00   0.0000000000000000e+00   0.0000000000000000e+00   0.0000000000000000e+00   0.0000000000000000e+00   0.0000000000000000e+00   0.0000000000000000e+00   0.0000000000000000e+00   0.0000000000000000e+00   0.0000000000000000e+00   0.0000000000000000e+00   0.0000000000000000e+00   0.0000000000000000e+00   0.0000000000000000e+00   0.0000000000000000e+00   0.0000000000000000e+00   0.0000000000000000e+00   0.0000000000000000e+00   0.0000000000000000e+00   0.0000000000000000e+00   0.0000000000000000e+00   0.0000000000000000e+00   0.0000000000000000e+00   0.0000000000000000e+00   0.0000000000000000e+00   0.0000000000000000e+00   0.0000000000000000e+00   0.0000000000000000e+00   0.0000000000000000e+00   0.0000000000000000e+00   0.0000000000000000e+00   0.0000000000000000e+00   0.0000000000000000e+00   0.0000000000000000e+00   0.0000000000000000e+00   0.0000000000000000e+00   0.0000000000000000e+00   0.0000000000000000e+00   0.0000000000000000e+00   0.0000000000000000e+00   0.0000000000000000e+00   0.0000000000000000e+00   0.0000000000000000e+00   0.0000000000000000e+00   0.0000000000000000e+00   0.0000000000000000e+00   0.0000000000000000e+00   0.0000000000000000e+00   0.0000000000000000e+00   0.0000000000000000e+00   0.0000000000000000e+00   0.0000000000000000e+00   0.0000000000000000e+00   0.0000000000000000e+00   0.0000000000000000e+00   0.0000000000000000e+00   0.0000000000000000e+00   0.0000000000000000e+00   0.0000000000000000e+00   0.0000000000000000e+00   0.0000000000000000e+00   0.0000000000000000e+00   0.0000000000000000e+00   0.0000000000000000e+00   0.0000000000000000e+00   0.0000000000000000e+00   0.0000000000000000e+00   0.0000000000000000e+00   0.0000000000000000e+00   0.0000000000000000e+00   1.0000000000000000e+00   0.0000000000000000e+00   9.9999999999999989e-01   0.0000000000000000e+00   9.9867746905683097e-01   0.0000000000000000e+00   9.9986137428170152e-01   0.0000000000000000e+00   9.9918920051258575e-01   0.0000000000000000e+00   9.9834763579918229e-01   0.0000000000000000e+00   9.9735428437682416e-01   0.0000000000000000e+00   0.0000000000000000e+00   0.0000000000000000e+00   0.0000000000000000e+00   0.0000000000000000e+00   0.0000000000000000e+00   0.0000000000000000e+00   0.0000000000000000e+00   0.0000000000000000e+00   0.0000000000000000e+00   0.0000000000000000e+00   0.0000000000000000e+00   0.0000000000000000e+00   0.0000000000000000e+00   0.0000000000000000e+00   0.0000000000000000e+00   0.0000000000000000e+00   0.0000000000000000e+00   0.0000000000000000e+00   0.0000000000000000e+00   0.0000000000000000e+00   0.0000000000000000e+00   0.0000000000000000e+00   0.0000000000000000e+00   0.0000000000000000e+00   0.0000000000000000e+00   0.0000000000000000e+00   0.0000000000000000e+00   0.0000000000000000e+00   0.0000000000000000e+00   0.0000000000000000e+00   0.0000000000000000e+00   0.0000000000000000e+00   0.0000000000000000e+00   0.0000000000000000e+00   9.3392555290389312e-01   0.0000000000000000e+00   9.8345490990405116e-01   0.0000000000000000e+00   9.9117165393865636e-01   0.0000000000000000e+00   0.0000000000000000e+00   0.0000000000000000e+00   0.0000000000000000e+00   9.9030564530028142e-01   0.0000000000000000e+00   9.9117705198890249e-01   0.0000000000000000e+00   9.9050815161405992e-01   0.0000000000000000e+00   9.8928893114278871e-01   0.0000000000000000e+00   9.6159364965252236e-01   0.0000000000000000e+00   6.1335688945852485e-01   0.0000000000000000e+00   3.0259497412812270e-01   0.0000000000000000e+00   7.1031196585912407e-02   0.0000000000000000e+00   0.0000000000000000e+00   0.0000000000000000e+00   0.0000000000000000e+00   0.0000000000000000e+00   0.0000000000000000e+00   0.0000000000000000e+00   0.0000000000000000e+00   0.0000000000000000e+00   0.0000000000000000e+00   0.0000000000000000e+00   0.0000000000000000e+00   0.0000000000000000e+00   0.0000000000000000e+00   0.0000000000000000e+00   0.0000000000000000e+00   0.0000000000000000e+00   0.0000000000000000e+00   0.0000000000000000e+00   0.0000000000000000e+00   0.0000000000000000e+00   0.0000000000000000e+00   0.0000000000000000e+00   0.0000000000000000e+00   0.0000000000000000e+00   0.0000000000000000e+00   0.0000000000000000e+00   0.0000000000000000e+00   0.0000000000000000e+00   0.0000000000000000e+00   0.0000000000000000e+00   0.0000000000000000e+00   0.0000000000000000e+00   0.0000000000000000e+00   0.0000000000000000e+00   0.0000000000000000e+00   0.0000000000000000e+00   0.0000000000000000e+00   0.0000000000000000e+00   0.0000000000000000e+00   0.0000000000000000e+00   0.0000000000000000e+00   0.0000000000000000e+00   0.0000000000000000e+00   0.0000000000000000e+00   8.8878173712629671e-01   0.0000000000000000e+00   9.9192887772431915e-01   0.0000000000000000e+00   9.9257594605555277e-01   0.0000000000000000e+00   9.9149609908967384e-01   0.0000000000000000e+00   9.9285828790565755e-01   0.0000000000000000e+00   9.9632726869629817e-01   0.0000000000000000e+00   9.9771663391318366e-01   0.0000000000000000e+00   9.9464071875282734e-01   0.0000000000000000e+00   9.9053075334563812e-01   0.0000000000000000e+00   9.6139565980983654e-01   0.0000000000000000e+00   8.7082287846290440e-01   0.0000000000000000e+00   7.0310022773008374e-01   0.0000000000000000e+00   5.2045064441949451e-01   0.0000000000000000e+00   8.6383645004214826e-01   0.0000000000000000e+00   1.0000000000000000e+00   0.0000000000000000e+00   9.9999999999999989e-01   0.0000000000000000e+00   9.9999999999999989e-01   0.0000000000000000e+00   9.9999999999999989e-01   0.0000000000000000e+00   1.0000000000000000e+00   0.0000000000000000e+00   9.9999999999999989e-01   0.0000000000000000e+00   0.0000000000000000e+00   0.0000000000000000e+00   0.0000000000000000e+00   0.0000000000000000e+00   0.0000000000000000e+00   0.0000000000000000e+00   0.0000000000000000e+00   0.0000000000000000e+00   0.0000000000000000e+00   0.0000000000000000e+00   0.0000000000000000e+00   0.0000000000000000e+00   0.0000000000000000e+00   0.0000000000000000e+00   0.0000000000000000e+00   0.0000000000000000e+00   0.0000000000000000e+00   0.0000000000000000e+00   0.0000000000000000e+00   0.0000000000000000e+00   0.0000000000000000e+00   0.0000000000000000e+00   0.0000000000000000e+00   0.0000000000000000e+00   0.0000000000000000e+00   0.0000000000000000e+00   0.0000000000000000e+00   0.0000000000000000e+00   0.0000000000000000e+00   0.0000000000000000e+00   0.0000000000000000e+00   0.0000000000000000e+00   0.0000000000000000e+00   0.0000000000000000e+00   0.0000000000000000e+00   0.0000000000000000e+00   0.0000000000000000e+00   0.0000000000000000e+00   0.0000000000000000e+00   0.0000000000000000e+00   0.0000000000000000e+00   0.0000000000000000e+00   0.0000000000000000e+00   0.0000000000000000e+00   0.0000000000000000e+00   0.0000000000000000e+00   0.0000000000000000e+00   0.0000000000000000e+00   0.0000000000000000e+00   0.0000000000000000e+00   0.0000000000000000e+00   0.0000000000000000e+00   0.0000000000000000e+00   0.0000000000000000e+00   0.0000000000000000e+00   0.0000000000000000e+00   0.0000000000000000e+00   0.0000000000000000e+00   0.0000000000000000e+00   0.0000000000000000e+00   0.0000000000000000e+00   0.0000000000000000e+00   0.0000000000000000e+00   0.0000000000000000e+00   0.0000000000000000e+00   0.0000000000000000e+00   0.0000000000000000e+00   0.0000000000000000e+00   0.0000000000000000e+00   0.0000000000000000e+00   0.0000000000000000e+00   0.0000000000000000e+00   0.0000000000000000e+00   0.0000000000000000e+00   0.0000000000000000e+00   9.9999999999999989e-01   0.0000000000000000e+00   0.0000000000000000e+00   0.0000000000000000e+00   0.0000000000000000e+00   0.0000000000000000e+00   9.9172593309407442e-01   0.0000000000000000e+00   9.9883571937027082e-01   0.0000000000000000e+00   9.9739450779950123e-01   0.0000000000000000e+00   9.9888483500089975e-01   0.0000000000000000e+00   9.9779220287689074e-01   0.0000000000000000e+00   9.9914809829386853e-01   0.0000000000000000e+00   9.9999999999999989e-01   0.0000000000000000e+00   9.9312691523022523e-01   0.0000000000000000e+00   9.9153794797279260e-01   0.0000000000000000e+00   9.9153764514832576e-01   0.0000000000000000e+00   9.9153756335261634e-01   0.0000000000000000e+00   9.9153762994423278e-01   0.0000000000000000e+00   9.9153746167298618e-01   0.0000000000000000e+00   9.9153751345153474e-01   0.0000000000000000e+00   9.9153747001333670e-01   0.0000000000000000e+00   9.9153718966043070e-01   0.0000000000000000e+00   9.9153703233187729e-01   0.0000000000000000e+00   9.9153699666551154e-01   0.0000000000000000e+00   9.9153715638054807e-01   0.0000000000000000e+00   9.9153586567329766e-01   0.0000000000000000e+00   9.9240799622603071e-01   0.0000000000000000e+00   9.9453999336663435e-01   0.0000000000000000e+00   9.9573540426714557e-01   0.0000000000000000e+00   9.9595622122820893e-01   0.0000000000000000e+00   0.0000000000000000e+00   0.0000000000000000e+00   0.0000000000000000e+00   9.6868836304657679e-01   0.0000000000000000e+00   9.9132724486799517e-01   0.0000000000000000e+00   9.9917532236868900e-01   0.0000000000000000e+00   9.9929692176884122e-01   0.0000000000000000e+00   9.9304847405777663e-01   0.0000000000000000e+00   9.7888625362851966e-01   0.0000000000000000e+00   6.3770966693547759e-01   0.0000000000000000e+00   0.0000000000000000e+00   0.0000000000000000e+00   0.0000000000000000e+00   0.0000000000000000e+00   0.0000000000000000e+00   0.0000000000000000e+00   0.0000000000000000e+00   0.0000000000000000e+00   0.0000000000000000e+00   0.0000000000000000e+00   0.0000000000000000e+00   0.0000000000000000e+00   0.0000000000000000e+00   0.0000000000000000e+00   0.0000000000000000e+00   0.0000000000000000e+00   0.0000000000000000e+00   0.0000000000000000e+00   0.0000000000000000e+00   0.0000000000000000e+00   0.0000000000000000e+00   0.0000000000000000e+00   0.0000000000000000e+00   0.0000000000000000e+00   0.0000000000000000e+00   0.0000000000000000e+00   0.0000000000000000e+00   0.0000000000000000e+00   0.0000000000000000e+00   0.0000000000000000e+00   0.0000000000000000e+00   0.0000000000000000e+00   0.0000000000000000e+00   0.0000000000000000e+00   0.0000000000000000e+00   0.0000000000000000e+00   0.0000000000000000e+00   0.0000000000000000e+00   0.0000000000000000e+00   0.0000000000000000e+00   0.0000000000000000e+00   0.0000000000000000e+00   0.0000000000000000e+00   0.0000000000000000e+00   0.0000000000000000e+00   0.0000000000000000e+00   0.0000000000000000e+00   0.0000000000000000e+00   9.8942599279357202e-01   0.0000000000000000e+00   9.9999999999999989e-01   0.0000000000000000e+00   9.9744983869695913e-01   0.0000000000000000e+00   9.9585952242549458e-01   0.0000000000000000e+00   9.9535146193882629e-01   0.0000000000000000e+00   9.9441340970729908e-01   0.0000000000000000e+00   9.9119080212908184e-01   0.0000000000000000e+00   9.0999688309317761e-01   0.0000000000000000e+00   6.2184146424479669e-01   0.0000000000000000e+00   3.6748337524114710e-01   0.0000000000000000e+00   0.0000000000000000e+00   0.0000000000000000e+00   0.0000000000000000e+00   0.0000000000000000e+00   0.0000000000000000e+00   0.0000000000000000e+00   0.0000000000000000e+00   0.0000000000000000e+00   0.0000000000000000e+00   0.0000000000000000e+00   0.0000000000000000e+00   0.0000000000000000e+00   9.9999999999999989e-01   0.0000000000000000e+00   1.0000000000000000e+00   0.0000000000000000e+00   9.9999999999999989e-01   0.0000000000000000e+00   1.0000000000000000e+00   0.0000000000000000e+00   9.9999999999999989e-01   0.0000000000000000e+00   9.9999999999999989e-01   0.0000000000000000e+00   0.0000000000000000e+00   0.0000000000000000e+00   0.0000000000000000e+00   0.0000000000000000e+00   0.0000000000000000e+00   0.0000000000000000e+00   0.0000000000000000e+00   0.0000000000000000e+00   0.0000000000000000e+00   0.0000000000000000e+00   0.0000000000000000e+00   0.0000000000000000e+00   0.0000000000000000e+00   0.0000000000000000e+00   0.0000000000000000e+00   0.0000000000000000e+00   0.0000000000000000e+00   0.0000000000000000e+00   0.0000000000000000e+00   0.0000000000000000e+00   0.0000000000000000e+00   0.0000000000000000e+00   0.0000000000000000e+00   0.0000000000000000e+00   0.0000000000000000e+00   0.0000000000000000e+00   0.0000000000000000e+00   0.0000000000000000e+00   0.0000000000000000e+00   0.0000000000000000e+00   0.0000000000000000e+00   0.0000000000000000e+00   0.0000000000000000e+00   0.0000000000000000e+00   0.0000000000000000e+00   0.0000000000000000e+00   0.0000000000000000e+00   0.0000000000000000e+00   0.0000000000000000e+00   0.0000000000000000e+00   0.0000000000000000e+00   0.0000000000000000e+00   0.0000000000000000e+00   0.0000000000000000e+00   0.0000000000000000e+00   0.0000000000000000e+00   0.0000000000000000e+00   0.0000000000000000e+00   0.0000000000000000e+00   0.0000000000000000e+00   0.0000000000000000e+00   0.0000000000000000e+00   0.0000000000000000e+00   0.0000000000000000e+00   0.0000000000000000e+00   0.0000000000000000e+00   0.0000000000000000e+00   0.0000000000000000e+00   0.0000000000000000e+00   0.0000000000000000e+00   0.0000000000000000e+00   0.0000000000000000e+00   0.0000000000000000e+00   0.0000000000000000e+00   0.0000000000000000e+00   0.0000000000000000e+00   0.0000000000000000e+00   0.0000000000000000e+00   0.0000000000000000e+00   0.0000000000000000e+00   0.0000000000000000e+00   0.0000000000000000e+00   0.0000000000000000e+00   0.0000000000000000e+00   0.0000000000000000e+00   0.0000000000000000e+00   9.9999999999999989e-01   0.0000000000000000e+00   0.0000000000000000e+00   0.0000000000000000e+00   0.0000000000000000e+00   0.0000000000000000e+00   9.8935636606531407e-01   0.0000000000000000e+00   9.9895150058264304e-01   0.0000000000000000e+00   9.9891983058357681e-01   0.0000000000000000e+00   9.9767050694983261e-01   0.0000000000000000e+00   9.9482162872389124e-01   0.0000000000000000e+00   9.9288390903170543e-01   0.0000000000000000e+00   9.9219658803064792e-01   0.0000000000000000e+00   5.6466509374595997e-01   0.0000000000000000e+00   0.0000000000000000e+00   0.0000000000000000e+00   0.0000000000000000e+00   0.0000000000000000e+00   0.0000000000000000e+00   0.0000000000000000e+00   0.0000000000000000e+00   0.0000000000000000e+00   0.0000000000000000e+00   0.0000000000000000e+00   0.0000000000000000e+00   0.0000000000000000e+00   0.0000000000000000e+00   0.0000000000000000e+00   0.0000000000000000e+00   0.0000000000000000e+00   0.0000000000000000e+00   0.0000000000000000e+00   0.0000000000000000e+00   0.0000000000000000e+00   0.0000000000000000e+00   0.0000000000000000e+00   0.0000000000000000e+00   0.0000000000000000e+00   1.9743260679558061e-01   0.0000000000000000e+00   4.6165228787306484e-01   0.0000000000000000e+00   8.7142541643304638e-01   0.0000000000000000e+00   9.9364673004677695e-01   0.0000000000000000e+00   9.9786026409997652e-01   0.0000000000000000e+00   9.99999999