<?xml version="1.0"?>
<VTKFile type="UnstructuredGrid"  version="0.1"  >
<UnstructuredGrid>
<Piece  NumberOfPoints="2393" NumberOfCells="4569">
<Points>
<DataArray  type="Float64"  NumberOfComponents="3"  format="ascii">2.139565217391304 0.2583333333333334 0  2.147826086956522 0.2583333333333334 0  2.147826086956522 0.2666666666666667 0  2.139565217391304 0.2666666666666667 0  2.156086956521739 0.2583333333333334 0  2.156086956521739 0.2666666666666667 0  2.164347826086956 0.2583333333333334 0  2.164347826086956 0.2666666666666667 0  2.172608695652174 0.2583333333333334 0  2.172608695652174 0.2666666666666667 0  2.180869565217391 0.2583333333333334 0  2.180869565217391 0.2666666666666667 0  2.189130434782609 0.2583333333333334 0  2.189130434782609 0.2666666666666667 0  2.197391304347826 0.2583333333333334 0  2.197391304347826 0.2666666666666667 0  2.205652173913043 0.2583333333333334 0  2.205652173913043 0.2666666666666667 0  2.213913043478261 0.2583333333333334 0  2.213913043478261 0.2666666666666667 0  2.222173913043478 0.2583333333333334 0  2.222173913043478 0.2666666666666667 0  2.230434782608695 0.2583333333333334 0  2.230434782608695 0.2666666666666667 0  2.238695652173913 0.2583333333333334 0  2.238695652173913 0.2666666666666667 0  2.24695652173913 0.2583333333333334 0  2.24695652173913 0.2666666666666667 0  2.255217391304348 0.2583333333333334 0  2.255217391304348 0.2666666666666667 0  2.263478260869565 0.2583333333333334 0  2.263478260869565 0.2666666666666667 0  2.271739130434783 0.2583333333333334 0  2.271739130434783 0.2666666666666667 0  2.28 0.2583333333333334 0  2.28 0.2666666666666667 0  2.288260869565217 0.2583333333333334 0  2.288260869565217 0.2666666666666667 0  2.296521739130434 0.2583333333333334 0  2.296521739130434 0.2666666666666667 0  2.304782608695652 0.2583333333333334 0  2.304782608695652 0.2666666666666667 0  2.31304347826087 0.2583333333333334 0  2.31304347826087 0.2666666666666667 0  2.321304347826087 0.2583333333333334 0  2.321304347826087 0.2666666666666667 0  2.329565217391304 0.2583333333333334 0  2.329565217391304 0.2666666666666667 0  2.337826086956521 0.2583333333333334 0  2.337826086956521 0.2666666666666667 0  2.346086956521739 0.2583333333333334 0  2.346086956521739 0.2666666666666667 0  2.354347826086956 0.2583333333333334 0  2.354347826086956 0.2666666666666667 0  2.362608695652174 0.2583333333333334 0  2.362608695652174 0.2666666666666667 0  2.370869565217391 0.2583333333333334 0  2.370869565217391 0.2666666666666667 0  2.379130434782609 0.2583333333333334 0  2.379130434782609 0.2666666666666667 0  2.387391304347826 0.2583333333333334 0  2.387391304347826 0.2666666666666667 0  2.395652173913044 0.2583333333333334 0  2.395652173913044 0.2666666666666667 0  2.403913043478261 0.2583333333333334 0  2.403913043478261 0.2666666666666667 0  2.412173913043478 0.2583333333333334 0  2.412173913043478 0.2666666666666667 0  2.420434782608695 0.2583333333333334 0  2.420434782608695 0.2666666666666667 0  2.428695652173913 0.2583333333333334 0  2.428695652173913 0.2666666666666667 0  2.43695652173913 0.2583333333333334 0  2.43695652173913 0.2666666666666667 0  2.445217391304348 0.2583333333333334 0  2.445217391304348 0.2666666666666667 0  2.453478260869565 0.2583333333333334 0  2.453478260869565 0.2666666666666667 0  2.461739130434782 0.2583333333333334 0  2.461739130434782 0.2666666666666667 0  2.47 0.2583333333333334 0  2.47 0.2666666666666667 0  2.478260869565217 0.2583333333333334 0  2.478260869565217 0.2666666666666667 0  2.486521739130435 0.2583333333333334 0  2.486521739130435 0.2666666666666667 0  2.494782608695652 0.2583333333333334 0  2.494782608695652 0.2666666666666667 0  2.503043478260869 0.2583333333333334 0  2.503043478260869 0.2666666666666667 0  2.511304347826087 0.2583333333333334 0  2.511304347826087 0.2666666666666667 0  2.519565217391305 0.2583333333333334 0  2.519565217391305 0.2666666666666667 0  2.527826086956522 0.2583333333333334 0  2.527826086956522 0.2666666666666667 0  2.536086956521739 0.2666666666666667 0  1.908260869565217 0.2666666666666667 0  1.916521739130435 0.2666666666666667 0  1.916521739130435 0.275 0  1.908260869565217 0.275 0  1.924782608695652 0.2666666666666667 0  1.924782608695652 0.275 0  1.933043478260869 0.2666666666666667 0  1.933043478260869 0.275 0  1.941304347826087 0.2666666666666667 0  1.941304347826087 0.275 0  1.949565217391304 0.2666666666666667 0  1.949565217391304 0.275 0  1.957826086956522 0.2666666666666667 0  1.957826086956522 0.275 0  1.966086956521739 0.2666666666666667 0  1.966086956521739 0.275 0  1.974347826086956 0.2666666666666667 0  1.974347826086956 0.275 0  1.982608695652174 0.2666666666666667 0  1.982608695652174 0.275 0  1.990869565217391 0.2666666666666667 0  1.990869565217391 0.275 0  1.999130434782608 0.2666666666666667 0  1.999130434782608 0.275 0  2.007391304347826 0.2666666666666667 0  2.007391304347826 0.275 0  2.015652173913043 0.2666666666666667 0  2.015652173913043 0.275 0  2.023913043478261 0.2666666666666667 0  2.023913043478261 0.275 0  2.032173913043478 0.2666666666666667 0  2.032173913043478 0.275 0  2.040434782608695 0.2666666666666667 0  2.040434782608695 0.275 0  2.048695652173913 0.2666666666666667 0  2.048695652173913 0.275 0  2.05695652173913 0.2666666666666667 0  2.05695652173913 0.275 0  2.065217391304348 0.2666666666666667 0  2.065217391304348 0.275 0  2.073478260869565 0.2666666666666667 0  2.073478260869565 0.275 0  2.081739130434782 0.2666666666666667 0  2.081739130434782 0.275 0  2.09 0.2666666666666667 0  2.09 0.275 0  2.098260869565217 0.2666666666666667 0  2.098260869565217 0.275 0  2.106521739130435 0.2666666666666667 0  2.106521739130435 0.275 0  2.114782608695652 0.2666666666666667 0  2.114782608695652 0.275 0  2.12304347826087 0.2666666666666667 0  2.12304347826087 0.275 0  2.131304347826087 0.2666666666666667 0  2.131304347826087 0.275 0  2.139565217391304 0.275 0  2.147826086956522 0.275 0  2.156086956521739 0.275 0  2.164347826086956 0.275 0  2.172608695652174 0.275 0  2.180869565217391 0.275 0  2.189130434782609 0.275 0  2.197391304347826 0.275 0  2.205652173913043 0.275 0  2.213913043478261 0.275 0  2.222173913043478 0.275 0  2.230434782608695 0.275 0  2.238695652173913 0.275 0  2.24695652173913 0.275 0  2.255217391304348 0.275 0  2.263478260869565 0.275 0  2.271739130434783 0.275 0  2.28 0.275 0  2.288260869565217 0.275 0  2.296521739130434 0.275 0  2.304782608695652 0.275 0  2.31304347826087 0.275 0  2.321304347826087 0.275 0  2.329565217391304 0.275 0  2.337826086956521 0.275 0  2.346086956521739 0.275 0  2.354347826086956 0.275 0  2.362608695652174 0.275 0  2.370869565217391 0.275 0  2.379130434782609 0.275 0  2.387391304347826 0.275 0  2.395652173913044 0.275 0  2.403913043478261 0.275 0  2.412173913043478 0.275 0  2.420434782608695 0.275 0  2.428695652173913 0.275 0  2.43695652173913 0.275 0  2.445217391304348 0.275 0  2.453478260869565 0.275 0  2.461739130434782 0.275 0  2.47 0.275 0  2.478260869565217 0.275 0  2.486521739130435 0.275 0  2.494782608695652 0.275 0  2.503043478260869 0.275 0  2.511304347826087 0.275 0  2.519565217391305 0.275 0  2.527826086956522 0.275 0  2.536086956521739 0.275 0  2.544347826086956 0.275 0  1.916521739130435 0.2833333333333333 0  1.908260869565217 0.2833333333333333 0  1.924782608695652 0.2833333333333333 0  1.933043478260869 0.2833333333333333 0  1.941304347826087 0.2833333333333333 0  1.949565217391304 0.2833333333333333 0  1.957826086956522 0.2833333333333333 0  1.966086956521739 0.2833333333333333 0  1.974347826086956 0.2833333333333333 0  1.982608695652174 0.2833333333333333 0  1.990869565217391 0.2833333333333333 0  1.999130434782608 0.2833333333333333 0  2.007391304347826 0.2833333333333333 0  2.015652173913043 0.2833333333333333 0  2.023913043478261 0.2833333333333333 0  2.032173913043478 0.2833333333333333 0  2.040434782608695 0.2833333333333333 0  2.048695652173913 0.2833333333333333 0  2.05695652173913 0.2833333333333333 0  2.065217391304348 0.2833333333333333 0  2.073478260869565 0.2833333333333333 0  2.081739130434782 0.2833333333333333 0  2.09 0.2833333333333333 0  2.098260869565217 0.2833333333333333 0  2.106521739130435 0.2833333333333333 0  2.114782608695652 0.2833333333333333 0  2.12304347826087 0.2833333333333333 0  2.131304347826087 0.2833333333333333 0  2.139565217391304 0.2833333333333333 0  2.147826086956522 0.2833333333333333 0  2.156086956521739 0.2833333333333333 0  2.164347826086956 0.2833333333333333 0  2.172608695652174 0.2833333333333333 0  2.180869565217391 0.2833333333333333 0  2.189130434782609 0.2833333333333333 0  2.197391304347826 0.2833333333333333 0  2.205652173913043 0.2833333333333333 0  2.213913043478261 0.2833333333333333 0  2.222173913043478 0.2833333333333333 0  2.230434782608695 0.2833333333333333 0  2.238695652173913 0.2833333333333333 0  2.24695652173913 0.2833333333333333 0  2.255217391304348 0.2833333333333333 0  2.263478260869565 0.2833333333333333 0  2.271739130434783 0.2833333333333333 0  2.28 0.2833333333333333 0  2.288260869565217 0.2833333333333333 0  2.296521739130434 0.2833333333333333 0  2.304782608695652 0.2833333333333333 0  2.31304347826087 0.2833333333333333 0  2.321304347826087 0.2833333333333333 0  2.329565217391304 0.2833333333333333 0  2.337826086956521 0.2833333333333333 0  2.346086956521739 0.2833333333333333 0  2.354347826086956 0.2833333333333333 0  2.362608695652174 0.2833333333333333 0  2.370869565217391 0.2833333333333333 0  2.379130434782609 0.2833333333333333 0  2.387391304347826 0.2833333333333333 0  2.395652173913044 0.2833333333333333 0  2.403913043478261 0.2833333333333333 0  2.412173913043478 0.2833333333333333 0  2.420434782608695 0.2833333333333333 0  2.428695652173913 0.2833333333333333 0  2.43695652173913 0.2833333333333333 0  2.445217391304348 0.2833333333333333 0  2.453478260869565 0.2833333333333333 0  2.461739130434782 0.2833333333333333 0  2.47 0.2833333333333333 0  2.478260869565217 0.2833333333333333 0  2.486521739130435 0.283333333333333
[...]
<CellData  Scalars="rho"> 
<DataArray  type="Float64"  Name="rho"  format="ascii">3.0985485575334654e-01   0.0000000000000000e+00   2.8470879832541784e-01   0.0000000000000000e+00   2.8177455542939295e-01   0.0000000000000000e+00   2.8442877476461931e-01   0.0000000000000000e+00   2.8804943845380571e-01   0.0000000000000000e+00   2.8758993679589073e-01   0.0000000000000000e+00   2.8802247322762714e-01   0.0000000000000000e+00   2.8829333120317135e-01   0.0000000000000000e+00   2.9488730289366788e-01   0.0000000000000000e+00   2.7918502522014016e-01   0.0000000000000000e+00   2.8471759759047927e-01   0.0000000000000000e+00   2.8212795756488129e-01   0.0000000000000000e+00   2.8057563306390498e-01   0.0000000000000000e+00   2.8003261867208828e-01   0.0000000000000000e+00   2.7959834748401469e-01   0.0000000000000000e+00   2.8450634532553459e-01   0.0000000000000000e+00   2.8731144944218090e-01   0.0000000000000000e+00   2.7540723754931395e-01   0.0000000000000000e+00   2.7790441073731514e-01   0.0000000000000000e+00   2.7777164345487487e-01   0.0000000000000000e+00   2.7898546257430640e-01   0.0000000000000000e+00   2.7980004050596013e-01   0.0000000000000000e+00   2.7145190684317444e-01   0.0000000000000000e+00   2.7569841719922278e-01   0.0000000000000000e+00   2.8980380643385645e-01   0.0000000000000000e+00   2.7885843070046368e-01   0.0000000000000000e+00   2.7338463892613019e-01   0.0000000000000000e+00   2.7463289136061875e-01   0.0000000000000000e+00   2.7711215141845824e-01   0.0000000000000000e+00   2.7652677946834114e-01   0.0000000000000000e+00   2.7087340688294542e-01   0.0000000000000000e+00   2.7478087329881251e-01   0.0000000000000000e+00   2.8670949644910954e-01   0.0000000000000000e+00   3.0447096676841034e-01   3.0447819330320136e-01   0.0000000000000000e+00   3.0600229568967763e-01   0.0000000000000000e+00   3.0563707324687617e-01   0.0000000000000000e+00   3.0607590424459857e-01   0.0000000000000000e+00   3.0603981580018186e-01   0.0000000000000000e+00   3.0601824192672095e-01   0.0000000000000000e+00   3.0619660141626365e-01   0.0000000000000000e+00   3.0656304984831106e-01   0.0000000000000000e+00   3.0714785397409444e-01   0.0000000000000000e+00   3.0797085498422694e-01   0.0000000000000000e+00   3.0948450941492522e-01   0.0000000000000000e+00   3.1228240633007187e-01   0.0000000000000000e+00   3.1635329168209764e-01   0.0000000000000000e+00   3.1923777097004724e-01   0.0000000000000000e+00   3.1228497784506842e-01   0.0000000000000000e+00   2.9039547953158074e-01   0.0000000000000000e+00   2.8671890874014344e-01   0.0000000000000000e+00   2.9582838242113241e-01   0.0000000000000000e+00   3.1687846936770975e-01   0.0000000000000000e+00   3.0251537325904820e-01   0.0000000000000000e+00   3.0482757559427576e-01   0.0000000000000000e+00   3.1210885851839798e-01   0.0000000000000000e+00   3.1569685174456524e-01   0.0000000000000000e+00   3.0858125341658343e-01   0.0000000000000000e+00   3.1039914106327965e-01   0.0000000000000000e+00   3.1215674823054329e-01   0.0000000000000000e+00   3.1150869478543958e-01   0.0000000000000000e+00   3.0994818100565857e-01   0.0000000000000000e+00   3.0842776695686230e-01   0.0000000000000000e+00   3.0770893809277172e-01   0.0000000000000000e+00   3.0999599101020925e-01   0.0000000000000000e+00   3.1514625771030141e-01   0.0000000000000000e+00   3.1450969978349647e-01   0.0000000000000000e+00   2.8807673398895411e-01   0.0000000000000000e+00   2.9543832891213767e-01   0.0000000000000000e+00   2.9568791817469503e-01   2.0075750571537203e-02   3.1656415450325320e-01   8.6544954976302754e-03   3.1011032549609124e-01   0.0000000000000000e+00   3.0704241272424038e-01   0.0000000000000000e+00   3.0946857828324187e-01   0.0000000000000000e+00   3.1133452235042408e-01   0.0000000000000000e+00   3.1147981441684541e-01   0.0000000000000000e+00   3.1086199471979881e-01   0.0000000000000000e+00   3.1049923789311257e-01   0.0000000000000000e+00   3.1171786835659115e-01   0.0000000000000000e+00   3.1247015734326905e-01   0.0000000000000000e+00   3.1306085475561474e-01   0.0000000000000000e+00   3.1800386523285157e-01   0.0000000000000000e+00   3.2871823590085525e-01   0.0000000000000000e+00   2.7304697287704044e-01   0.0000000000000000e+00   2.7772072117616103e-01   1.0799760686992561e-01   3.1685336866917818e-01   0.0000000000000000e+00   3.0559500349327168e-01   0.0000000000000000e+00   3.0655541251656437e-01   0.0000000000000000e+00   3.0785518069738249e-01   0.0000000000000000e+00   3.1241954199021377e-01   0.0000000000000000e+00   3.1911608571865774e-01   0.0000000000000000e+00   3.1951777951449895e-01   0.0000000000000000e+00   3.1478387086804749e-01   0.0000000000000000e+00   3.1243937484740625e-01   0.0000000000000000e+00   3.1500153996752894e-01   0.0000000000000000e+00   3.2445154733328652e-01   0.0000000000000000e+00   3.5063532778659917e-01   0.0000000000000000e+00   2.6105972374404984e-01   0.0000000000000000e+00   2.7384494641621460e-01   0.0000000000000000e+00   3.0601961088625951e-01   0.0000000000000000e+00   2.9128349372892409e-01   0.0000000000000000e+00   2.9303350095448488e-01   0.0000000000000000e+00   2.9598317739633756e-01   0.0000000000000000e+00   2.9879646039508456e-01   0.0000000000000000e+00   3.0140276074964262e-01   0.0000000000000000e+00   3.0217490966219884e-01   0.0000000000000000e+00   3.0162318912216746e-01   0.0000000000000000e+00   2.9702877737367056e-01   0.0000000000000000e+00   3.2147643160492229e-01   0.0000000000000000e+00   2.7912950660768415e-01   0.0000000000000000e+00   2.7466043226507542e-01   0.0000000000000000e+00   2.9834290067196956e-01   0.0000000000000000e+00   2.9034472314743215e-01   0.0000000000000000e+00   2.8976254935169754e-01   0.0000000000000000e+00   2.9100595514153216e-01   0.0000000000000000e+00   2.9213194692684230e-01   0.0000000000000000e+00   2.9424867950504396e-01   0.0000000000000000e+00   3.0170694226511297e-01   0.0000000000000000e+00   3.0152978101150246e-01   0.0000000000000000e+00   3.0544333260559076e-01   0.0000000000000000e+00   2.8674489814168186e-01   0.0000000000000000e+00   2.9904023674433766e-01   0.0000000000000000e+00   2.8732513842711077e-01   0.0000000000000000e+00   2.8343444918785299e-01   0.0000000000000000e+00   2.8626555955786331e-01   0.0000000000000000e+00   2.8842470276760707e-01   0.0000000000000000e+00   2.8891281063210766e-01   0.0000000000000000e+00   2.8804040597964065e-01   0.0000000000000000e+00   2.8704492503619727e-01   0.0000000000000000e+00   2.8787421550843129e-01   0.0000000000000000e+00   2.8073752541150554e-01   0.0000000000000000e+00   2.8142503412925823e-01   0.0000000000000000e+00   2.7999771331595158e-01   0.0000000000000000e+00   2.7969832258279748e-01   0.0000000000000000e+00   2.8013105575590708e-01   0.0000000000000000e+00   2.8152235828447919e-01   0.0000000000000000e+00   2.8266148256013368e-01   0.0000000000000000e+00   2.8094096223097287e-01   0.0000000000000000e+00   2.7653327453107046e-01   0.0000000000000000e+00   2.7750349075786751e-01   0.0000000000000000e+00   2.7920421837221432e-01   0.0000000000000000e+00   2.7776423649220794e-01   0.0000000000000000e+00   2.7482337588890210e-01   0.0000000000000000e+00   2.7223835991046685e-01   0.0000000000000000e+00   2.7555262640862044e-01   0.0000000000000000e+00   2.9321616649725329e-01   0.0000000000000000e+00   2.7776184783607255e-01   0.0000000000000000e+00   2.7912128468253961e-01   0.0000000000000000e+00   2.8060951084171898e-01   0.0000000000000000e+00   2.8083773902524500e-01   0.0000000000000000e+00   2.7848341464408038e-01   0.0000000000000000e+00   2.7063504214777345e-01   0.0000000000000000e+00   2.7481304062500939e-01   1.8999909718052366e-02   3.3185306073217548e-02   3.0242802908782140e-01   3.0427420345127643e-01   0.0000000000000000e+00   3.0499545128899680e-01   0.0000000000000000e+00   3.0595908729396321e-01   0.0000000000000000e+00   3.0557766028753774e-01   0.0000000000000000e+00   3.0526942020636882e-01   0.0000000000000000e+00   3.0512690743495319e-01   0.0000000000000000e+00   3.0504332565100212e-01   0.0000000000000000e+00   3.0514674603242598e-01   0.0000000000000000e+00   3.0562137568008046e-01   0.0000000000000000e+00   3.0631023977670413e-01   0.0000000000000000e+00   3.0813377193634506e-01   0.0000000000000000e+00   3.1198887852454266e-01   0.0000000000000000e+00   3.1844543309014267e-01   0.0000000000000000e+00   3.2663636119421541e-01   0.0000000000000000e+00   3.1974382968102505e-01   0.0000000000000000e+00   2.7950721403692386e-01   0.0000000000000000e+00   2.8457614533644970e-01   0.0000000000000000e+00   2.9679121029808642e-01   1.9649278532467920e-02   3.1792905868171351e-01   0.0000000000000000e+00   3.0686675839930805e-01   0.0000000000000000e+00   3.0391356956124677e-01   0.0000000000000000e+00   3.0825815428489750e-01   0.0000000000000000e+00   3.1075434855532430e-01   0.0000000000000000e+00   3.0994157551695972e-01   0.0000000000000000e+00   3.1245548473496099e-01   0.0000000000000000e+00   3.1266209950779389e-01   0.0000000000000000e+00   3.1095909274605327e-01   0.0000000000000000e+00   3.0922067642151768e-01   0.0000000000000000e+00   3.0809413371462158e-01   0.0000000000000000e+00   3.0707755459198766e-01   0.0000000000000000e+00   3.0901843268607132e-01   0.0000000000000000e+00   3.1694073979028514e-01   0.0000000000000000e+00   3.2474139882980907e-01   0.0000000000000000e+00   2.6700946503647327e-01   0.0000000000000000e+00   2.7809644905439929e-01   1.5178415175598739e-01   2.8394662195011572e-01   0.0000000000000000e+00   3.2191569817266658e-01   0.0000000000000000e+00   3.0855089681018938e-01   0.0000000000000000e+00   3.0970368237226825e-01   0.0000000000000000e+00   3.0994241673661915e-01   0.0000000000000000e+00   3.1073702052991120e-01   0.0000000000000000e+00   3.1107175051889235e-01   0.0000000000000000e+00   3.1151502739742215e-01   0.0000000000000000e+00   3.1216502298866849e-01   0.0000000000000000e+00   3.1149387862972344e-01   0.0000000000000000e+00   3.1092252287240629e-01   0.0000000000000000e+00   3.1198187407343403e-01   0.0000000000000000e+00   3.2071277407758586e-01   0.0000000000000000e+00   3.5161489405778884e-01   1.0000000000000000e+00   0.0000000000000000e+00   2.5849042901454911e-01   0.0000000000000000e+00   2.7483697501400972e-01   0.0000000000000000e+00   3.0683218947676461e-01   0.0000000000000000e+00   2.9705810820639628e-01   0.0000000000000000e+00   2.9900061278217938e-01   0.0000000000000000e+00   3.0057074215395052e-01   0.0000000000000000e+00   3.0410506822316863e-01   0.0000000000000000e+00   3.1271874923006082e-01   0.0000000000000000e+00   3.0974627789019998e-01   0.0000000000000000e+00   3.0514458543941891e-01   0.0000000000000000e+00   3.0708297829584319e-01   0.0000000000000000e+00   3.0901273631846260e-01   0.0000000000000000e+00   3.0544821803362743e-01   0.0000000000000000e+00   3.2903688923033952e-01   2.1432765406738458e-02   2.8840415942712538e-01   0.0000000000000000e+00   2.8196581250395730e-01   0.0000000000000000e+00   3.0051876585755521e-01   0.0000000000000000e+00   2.9198506547909669e-01   0.0000000000000000e+00   2.9382814327207579e-01   0.0000000000000000e+00   2.9758809293600508e-01   0.0000000000000000e+00   2.9934777420634801e-01   0.0000000000000000e+00   2.9843667167679661e-01   0.0000000000000000e+00   2.9582588435590601e-01   0.0000000000000000e+00   2.9376777035792700e-01   0.0000000000000000e+00   2.9740243234694452e-01   0.0000000000000000e+00   3.1075961693679111e-01   0.0000000000000000e+00   2.8747596645104301e-01   0.0000000000000000e+00   2.8243514559353772e-01   0.0000000000000000e+00   2.9424738538288880e-01   0.0000000000000000e+00   2.9093803644097987e-01   0.0000000000000000e+00   2.8872693139066613e-01   0.0000000000000000e+00   2.8729281535892187e-01   0.0000000000000000e+00   2.8575938769858789e-01   0.0000000000000000e+00   2.8876261205814607e-01   0.0000000000000000e+00   3.1255387637425314e-01   0.0000000000000000e+00   2.9865229631020868e-01   0.0000000000000000e+00   3.0543510596085893e-01   0.0000000000000000e+00   3.0041736144172776e-01   0.0000000000000000e+00   2.9888109377775285e-01   0.0000000000000000e+00   2.8415150003180850e-01   0.0000000000000000e+00   2.8401171606963604e-01   0.0000000000000000e+00   2.8679685512499287e-01   0.0000000000000000e+00   2.8750699185814688e-01   0.0000000000000000e+00   2.8575511087830574e-01   0.0000000000000000e+00   2.8404972915570792e-01   0.0000000000000000e+00   2.8412632045054559e-01   0.0000000000000000e+00   2.8405283150230504e-01   0.0000000000000000e+00   2.8095733374871823e-01   0.0000000000000000e+00   2.8109024630610796e-01   0.0000000000000000e+00   2.8068895629503110e-01   0.0000000000000000e+00   2.8034741714948230e-01   0.0000000000000000e+00   2.8040442838148338e-01   0.0000000000000000e+00   2.8018573193052054e-01   0.0000000000000000e+00   2.7955272440063378e-01   0.0000000000000000e+00   2.7658847581667184e-01   0.0000000000000000e+00   2.7403616607393655e-01   2.8712018526115282e-02   2.7349823618299718e-01   2.8631199853591981e-02   2.7790387908570535e-01   3.0143029196943481e-02   2.7847312891345227e-01   0.0000000000000000e+00   2.7610010184584693e-01   0.0000000000000000e+00   2.7072684275204151e-01   0.0000000000000000e+00   2.6372984769895003e-01   0.0000000000000000e+00   3.0591567982933227e-01   0.0000000000000000e+00   2.9555694961862972e-01   0.0000000000000000e+00   2.8923388311409320e-01   0.0000000000000000e+00   2.9051719385562375e-01   0.0000000000000000e+00   2.9613908971628816e-01   0.0000000000000000e+00   3.0072364889468350e-01   0.0000000000000000e+00   2.7555494645567341e-01   0.0000000000000000e+00   2.9018236768117578e-01   0.0000000000000000e+00   3.0608125707992606e-01   0.0000000000000000e+00   3.0548092298004581e-01   0.0000000000000000e+00   3.0623552451522856e-01   0.0000000000000000e+00   3.0664560820095843e-01   0.0000000000000000e+00   3.0695913558839405e-01   0.0000000000000000e+00   3.0703491708153530e-01   0.0000000000000000e+00   3.0682774369916321e-01   0.0000000000000000e+00   1.0000000000000000e+00   3.0644099435530242e-01   1.0000000000000000e+00   0.0000000000000000e+00   3.0612945642457479e-01   0.0000000000000000e+00   3.0645905059556006e-01   0.0000000000000000e+00   3.0652676272990970e-01   0.0000000000000000e+00   3.0789842332147960e-01   0.0000000000000000e+00   3.1027087759136757e-01   0.0000000000000000e+00   3.1735914587165498e-01   1.4325158614781495e-03   3.3525414371301293e-01   9.0787449997650777e-03   3.3150643585164358e-01   0.0000000000000000e+00   2.5833735141045805e-01   0.0000000000000000e+00   2.7659299930984310e-01   1.3941521601049744e-01   2.9592592815442031e-01   0.0000000000000000e+00   3.3209138219603956e-01   0.0000000000000000e+00   3.0166360056851449e-01   0.0000000000000000e+00   2.9862961436352164e-01   0.0000000000000000e+00   3.0576880680461099e-01   0.0000000000000000e+00   3.1244652394796651e-01   0.0000000000000000e+00   3.1360749208145638e-01   0.0000000000000000e+00   3.1152288312251342e-01   0.0000000000000000e+00   3.0897383672290107e-01   0.0000000000000000e+00   3.0716895114449566e-01   0.0000000000000000e+00   3.0645571068292693e-01   0.0000000000000000e+00   3.0724518157462083e-01   0.0000000000000000e+00   3.0640871524009961e-01   0.0000000000000000e+00   3.0816350033278195e-01   0.0000000000000000e+00   3.2027238071981684e-01   0.0000000000000000e+00   3.5307632276927947e-01   0.0000000000000000e+00   2.5225128634048333e-01   0.0000000000000000e+00   2.8770252712094940e-01   0.0000000000000000e+00   2.7514891678302383e-01   0.0000000000000000e+00   3.1224316941917979e-01   0.0000000000000000e+00   3.0203243046513917e-01   0.0000000000000000e+00   3.0208780379837064e-01   0.0000000000000000e+00   3.0274718834180797e-01   0.0000000000000000e+00   3.0319119479538997e-01   0.0000000000000000e+00   3.0361632849196107e-01   0.0000000000000000e+00   3.0406886739366235e-01   0.0000000000000000e+00   3.0410319824355686e-01   0.0000000000000000e+00   3.0417717378919190e-01   0.0000000000000000e+00   3.0500744823887693e-01   0.0000000000000000e+00   3.0437650044908721e-01   0.0000000000000000e+00   2.9923552526597369e-01   2.1391386771197441e-02   3.2410125299228831e-01   3.9901710997762692e-02   2.8616102181279690e-01   0.0000000000000000e+00   2.8178486936402741e-01   0.0000000000000000e+00   3.0387585506847647e-01   0.0000000000000000e+00   2.9747859286057954e-01   0.0000000000000000e+00   2.9616365018110430e-01   0.0000000000000000e+00   2.9625144354926941e-01   0.0000000000000000e+00   3.0050397592968031e-01   0.0000000000000000e+00   3.2301189734109320e-01   0.0000000000000000e+00   3.0591520180200227e-01   0.0000000000000000e+00   3.0818967168829914e-01   0.0000000000000000e+00   3.0614489902250269e-01   0.0000000000000000e+00   3.0315904765744200e-01   3.4592164761361906e-02   3.0484538210437517e-01   3.9142778523317052e-02   3.2242685434352319e-01   4.0850763035196927e-02   2.9764363214064776e-01   0.0000000000000000e+00   2.9087522119324200e-01   0.0000000000000000e+00   2.9472177872794775e-01   0.0000000000000000e+00   2.9283635326522528e-01   0.0000000000000000e+00   2.9579605788271096e-01   0.0000000000000000e+00   2.9555215812150132e-01   0.0000000000000000e+00   2.9326618023630036e-01   0.0000000000000000e+00   2.9117249526331651e-01   0.0000000000000000e+00   2.8967486209594145e-01   0.0000000000000000e+00   2.9332148508270123e-01   3.5190469251390383e-02   2.9809951663536993e-01   0.0000000000000000e+00   3.0386090090492568e-01   0.0000000000000000e+00   2.9053128782544752e-01   0.0000000000000000e+00   2.8771399880219550e-01   0.0000000000000000e+00   2.9220003465725713e-01   0.0000000000000000e+00   2.8953362402900967e-01   0.0000000000000000e+00   2.8649805042663723e-01   0.0000000000000000e+00   2.8364730343781003e-01   0.0000000000000000e+00   2.7852874152281099e-01   0.0000000000000000e+00   2.7006802053807871e-01   0.0000000000000000e+00   3.3714408063204648e-01   0.0000000000000000e+00   1.0000000000000000e+00   1.0000000000000000e+00   3.3051460317707748e-01   1.0000000000000000e+00   0.0000000000000000e+00   3.2769765774178539e-01   0.0000000000000000e+00   3.3399164166277850e-01   0.0000000000000000e+00   3.3649130797439802e-01   0.0000000000000000e+00   2.7841160285240618e-01   0.0000000000000000e+00   2.9620100104167146e-01   0.0000000000000000e+00   2.9140303542134366e-01   0.0000000000000000e+00   2.9105110168322201e-01   0.0000000000000000e+00   2.9193498451366440e-01   0.0000000000000000e+00   2.9279401216801360e-01   0.0000000000000000e+00   2.9572944824323172e-01   0.0000000000000000e+00   2.9587280335243515e-01   0.0000000000000000e+00   2.9365455241551897e-01   0.0000000000000000e+00   2.9388631637405982e-01   0.0000000000000000e+00   2.9348585203980354e-01   0.0000000000000000e+00   2.9237807349799927e-01   0.0000000000000000e+00   2.9155930937295277e-01   0.0000000000000000e+00   2.9154571280905850e-01   0.0000000000000000e+00   2.9269157771360466e-01   0.0000000000000000e+00   2.9050345073404871e-01   0.0000000000000000e+00   2.9032518660603285e-01   0.0000000000000000e+00   2.8636184162002704e-01   0.0000000000000000e+00   2.9025070004843462e-01   0.0000000000000000e+00   2.8818275590672687e-01   0.0000000000000000e+00   2.8811621572468510e-01   0.0000000000000000e+00   2.8950416725025513e-01   0.0000000000000000e+00   2.7897026308316264e-01   0.0000000000000000e+00   2.9509893148258709e-01   0.0000000000000000e+00   2.9571220414512372e-01   0.0000000000000000e+00   2.9287844330393270e-01   0.0000000000000000e+00   2.9303579144268077e-01   0.0000000000000000e+00   3.0477853146539308e-01   0.0000000000000000e+00   3.2319027009787094e-01   0.0000000000000000e+00   2.5347347078009153e-01   0.0000000000000000e+00   3.0609174451835819e-01   3.0740599179756201e-01   0.0000000000000000e+00   3.0603160310863942e-01   0.0000000000000000e+00   3.0670538582807305e-01   0.0000000000000000e+00   3.0681799543360067