<?xml version="1.0"?>
<VTKFile type="UnstructuredGrid"  version="0.1"  >
<UnstructuredGrid>
<Piece  NumberOfPoints="2374" NumberOfCells="4550">
<Points>
<DataArray  type="Float64"  NumberOfComponents="3"  format="ascii">0.718695652173913 0 0  0.7269565217391304 0 0  0.7269565217391304 0.008333333333333333 0  0.7352173913043478 0 0  0.7352173913043478 0.008333333333333333 0  0.7434782608695653 0 0  0.7434782608695653 0.008333333333333333 0  0.7517391304347827 0 0  0.7517391304347827 0.008333333333333333 0  0.7599999999999999 0 0  0.7599999999999999 0.008333333333333333 0  0.7682608695652173 0 0  0.7682608695652173 0.008333333333333333 0  0.7765217391304348 0 0  0.7765217391304348 0.008333333333333333 0  0.7847826086956522 0 0  0.7847826086956522 0.008333333333333333 0  0.7930434782608695 0 0  0.7930434782608695 0.008333333333333333 0  0.8013043478260868 0 0  0.8013043478260868 0.008333333333333333 0  0.8095652173913043 0 0  0.8095652173913043 0.008333333333333333 0  0.8178260869565217 0 0  0.8178260869565217 0.008333333333333333 0  0.8260869565217391 0 0  0.8260869565217391 0.008333333333333333 0  0.8343478260869565 0 0  0.8343478260869565 0.008333333333333333 0  0.8426086956521739 0 0  0.8426086956521739 0.008333333333333333 0  0.8508695652173912 0 0  0.8508695652173912 0.008333333333333333 0  0.8591304347826086 0 0  0.8591304347826086 0.008333333333333333 0  0.8673913043478261 0 0  0.8673913043478261 0.008333333333333333 0  0.8756521739130434 0 0  0.8756521739130434 0.008333333333333333 0  0.8839130434782608 0 0  0.8839130434782608 0.008333333333333333 0  0.8921739130434783 0 0  0.8921739130434783 0.008333333333333333 0  0.9004347826086956 0 0  0.9004347826086956 0.008333333333333333 0  0.908695652173913 0 0  0.908695652173913 0.008333333333333333 0  0.9169565217391303 0 0  0.9169565217391303 0.008333333333333333 0  0.9252173913043478 0 0  0.9252173913043478 0.008333333333333333 0  0.9334782608695652 0 0  0.9334782608695652 0.008333333333333333 0  0.9417391304347826 0 0  0.9417391304347826 0.008333333333333333 0  0.95 0 0  0.95 0.008333333333333333 0  0.9582608695652173 0 0  0.9582608695652173 0.008333333333333333 0  0.9665217391304347 0 0  0.9665217391304347 0.008333333333333333 0  0.9747826086956521 0 0  0.9747826086956521 0.008333333333333333 0  0.9830434782608696 0 0  0.9830434782608696 0.008333333333333333 0  0.991304347826087 0 0  0.991304347826087 0.008333333333333333 0  0.9995652173913042 0 0  0.9995652173913042 0.008333333333333333 0  1.007826086956522 0 0  1.007826086956522 0.008333333333333333 0  1.016086956521739 0 0  1.016086956521739 0.008333333333333333 0  1.024347826086957 0 0  1.024347826086957 0.008333333333333333 0  1.032608695652174 0 0  1.032608695652174 0.008333333333333333 0  1.040869565217391 0.008333333333333333 0  0.7352173913043478 0.01666666666666667 0  0.7434782608695653 0.01666666666666667 0  0.7517391304347827 0.01666666666666667 0  0.7599999999999999 0.01666666666666667 0  0.7682608695652173 0.01666666666666667 0  0.7765217391304348 0.01666666666666667 0  0.7847826086956522 0.01666666666666667 0  0.7930434782608695 0.01666666666666667 0  0.8013043478260868 0.01666666666666667 0  0.8095652173913043 0.01666666666666667 0  0.8178260869565217 0.01666666666666667 0  0.8260869565217391 0.01666666666666667 0  0.8343478260869565 0.01666666666666667 0  0.8426086956521739 0.01666666666666667 0  0.8508695652173912 0.01666666666666667 0  0.8591304347826086 0.01666666666666667 0  0.8673913043478261 0.01666666666666667 0  0.8756521739130434 0.01666666666666667 0  0.8839130434782608 0.01666666666666667 0  0.8921739130434783 0.01666666666666667 0  0.9004347826086956 0.01666666666666667 0  0.908695652173913 0.01666666666666667 0  0.9169565217391303 0.01666666666666667 0  0.9252173913043478 0.01666666666666667 0  0.9334782608695652 0.01666666666666667 0  0.9417391304347826 0.01666666666666667 0  0.95 0.01666666666666667 0  0.9582608695652173 0.01666666666666667 0  0.9665217391304347 0.01666666666666667 0  0.9747826086956521 0.01666666666666667 0  0.9830434782608696 0.01666666666666667 0  0.991304347826087 0.01666666666666667 0  0.9995652173913042 0.01666666666666667 0  1.007826086956522 0.01666666666666667 0  1.016086956521739 0.01666666666666667 0  1.024347826086957 0.01666666666666667 0  1.032608695652174 0.01666666666666667 0  1.040869565217391 0.01666666666666667 0  1.049130434782609 0.01666666666666667 0  0.7434782608695653 0.025 0  0.7517391304347827 0.025 0  0.7599999999999999 0.025 0  0.7682608695652173 0.025 0  0.7765217391304348 0.025 0  0.7847826086956522 0.025 0  0.7930434782608695 0.025 0  0.8013043478260868 0.025 0  0.8095652173913043 0.025 0  0.8178260869565217 0.025 0  0.8260869565217391 0.025 0  0.8343478260869565 0.025 0  0.8426086956521739 0.025 0  0.8508695652173912 0.025 0  0.8591304347826086 0.025 0  0.8673913043478261 0.025 0  0.8756521739130434 0.025 0  0.8839130434782608 0.025 0  0.8921739130434783 0.025 0  0.9004347826086956 0.025 0  0.908695652173913 0.025 0  0.9169565217391303 0.025 0  0.9252173913043478 0.025 0  0.9334782608695652 0.025 0  0.9417391304347826 0.025 0  0.95 0.025 0  0.9582608695652173 0.025 0  0.9665217391304347 0.025 0  0.9747826086956521 0.025 0  0.9830434782608696 0.025 0  0.991304347826087 0.025 0  0.9995652173913042 0.025 0  1.007826086956522 0.025 0  1.016086956521739 0.025 0  1.024347826086957 0.025 0  1.032608695652174 0.025 0  1.040869565217391 0.025 0  1.049130434782609 0.025 0  1.057391304347826 0.025 0  0.7517391304347827 0.03333333333333333 0  0.7599999999999999 0.03333333333333333 0  0.7682608695652173 0.03333333333333333 0  0.7765217391304348 0.03333333333333333 0  0.7847826086956522 0.03333333333333333 0  0.7930434782608695 0.03333333333333333 0  0.8013043478260868 0.03333333333333333 0  0.8095652173913043 0.03333333333333333 0  0.8178260869565217 0.03333333333333333 0  0.8260869565217391 0.03333333333333333 0  0.8343478260869565 0.03333333333333333 0  0.8426086956521739 0.03333333333333333 0  0.8508695652173912 0.03333333333333333 0  0.8591304347826086 0.03333333333333333 0  0.8673913043478261 0.03333333333333333 0  0.8756521739130434 0.03333333333333333 0  0.8839130434782608 0.03333333333333333 0  0.8921739130434783 0.03333333333333333 0  0.9004347826086956 0.03333333333333333 0  0.908695652173913 0.03333333333333333 0  0.9169565217391303 0.03333333333333333 0  0.9252173913043478 0.03333333333333333 0  0.9334782608695652 0.03333333333333333 0  0.9417391304347826 0.03333333333333333 0  0.95 0.03333333333333333 0  0.9582608695652173 0.03333333333333333 0  0.9665217391304347 0.03333333333333333 0  0.9747826086956521 0.03333333333333333 0  0.9830434782608696 0.03333333333333333 0  0.991304347826087 0.03333333333333333 0  0.9995652173913042 0.03333333333333333 0  1.007826086956522 0.03333333333333333 0  1.016086956521739 0.03333333333333333 0  1.024347826086957 0.03333333333333333 0  1.032608695652174 0.03333333333333333 0  1.040869565217391 0.03333333333333333 0  1.049130434782609 0.03333333333333333 0  1.057391304347826 0.03333333333333333 0  1.065652173913043 0.03333333333333333 0  0.7599999999999999 0.04166666666666666 0  0.7682608695652173 0.04166666666666666 0  0.7765217391304348 0.04166666666666666 0  0.7847826086956522 0.04166666666666666 0  0.7930434782608695 0.04166666666666666 0  0.8013043478260868 0.04166666666666666 0  0.8095652173913043 0.04166666666666666 0  0.8178260869565217 0.04166666666666666 0  0.8260869565217391 0.04166666666666666 0  0.8343478260869565 0.04166666666666666 0  0.8426086956521739 0.04166666666666666 0  0.8508695652173912 0.04166666666666666 0  0.8591304347826086 0.04166666666666666 0  0.8673913043478261 0.04166666666666666 0  0.8756521739130434 0.04166666666666666 0  0.8839130434782608 0.04166666666666666 0  0.8921739130434783 0.04166666666666666 0  0.9004347826086956 0.04166666666666666 0  0.908695652173913 0.04166666666666666 0  0.9169565217391303 0.04166666666666666 0  0.9252173913043478 0.04166666666666666 0  0.9334782608695652 0.04166666666666666 0  0.9417391304347826 0.04166666666666666 0  0.95 0.04166666666666666 0  0.9582608695652173 0.04166666666666666 0  0.9665217391304347 0.04166666666666666 0  0.9747826086956521 0.04166666666666666 0  0.9830434782608696 0.04166666666666666 0  0.991304347826087 0.04166666666666666 0  0.9995652173913042 0.04166666666666666 0  1.007826086956522 0.04166666666666666 0  1.016086956521739 0.04166666666666666 0  1.024347826086957 0.04166666666666666 0  1.032608695652174 0.04166666666666666 0  1.040869565217391 0.04166666666666666 0  1.049130434782609 0.04166666666666666 0  1.057391304347826 0.04166666666666666 0  1.065652173913043 0.04166666666666666 0  1.073913043478261 0.04166666666666666 0  0.7682608695652173 0.05 0  0.7765217391304348 0.05 0  0.7847826086956522 0.05 0  0.7930434782608695 0.05 0  0.8013043478260868 0.05 0  0.8095652173913043 0.05 0  0.8178260869565217 0.05 0  0.8260869565217391 0.05 0  0.8343478260869565 0.05 0  0.8426086956521739 0.05 0  0.8508695652173912 0.05 0  0.8591304347826086 0.05 0  0.8673913043478261 0.05 0  0.8756521739130434 0.05 0  0.8839130434782608 0.05 0  0.8921739130434783 0.05 0  0.9004347826086956 0.05 0  0.908695652173913 0.05 0  0.9169565217391303 0.05 0  0.9252173913043478 0.05 0  0.9334782608695652 0.05 0  0.9417391304347826 0.05 0  0.95 0.05 0  0.9582608695652173 0.05 0  0.9665217391304347 0.05 0  0.9747826086956521 0.05 0  0.9830434782608696 0.05 0  0.991304347826087 0.05 0  0.9995652173913042 0.05 0  1.007826086956522 0.05 0  1.016086956521739 0.05 0  1.024347826086957 0.05 0  1.032608695652174 0.05 0  1.040869565217391 0.05 0  1.049130434782609 0.05 0  1.057391304347826 0.05 0  1.065652173913043 0.05 0  1.073913043478261 0.05 0  1.082173913043478 0.05 0  0.7765217391304348 0.05833333333333333 0  0.7847826086956522 0.05833333333333333 0  0.7930434782608695 0.05833333333333333 0  0.8013043478260868 0.05833333333333333 0  0.8095652173913043 0.05833333333333333 0  0.8178260869565217 0.05833333333333333 0  0.8260869565217391
[...]
<CellData  Scalars="rho_bar"> 
<DataArray  type="Float64"  Name="rho_bar"  format="ascii">3.3820372136186028e-01   3.3820372136186028e-01   3.3820372136186028e-01   3.3820372136186028e-01   3.3820372136186028e-01   3.3820372136186028e-01   3.3820372136186028e-01   3.3820372136186028e-01   3.3820372136186028e-01   3.3820372136186028e-01   3.3820372136186028e-01   3.3820372136186028e-01   3.3820372136186028e-01   3.2724824099058442e-01   3.2383693478671161e-01   3.2694483777078548e-01   3.2353106397603026e-01   3.2663762898052662e-01   3.2322575661826419e-01   3.2633325996031393e-01   3.2291936331568827e-01   3.2602503812588873e-01   3.2261405040788388e-01   3.2572003463697391e-01   3.2230649115387716e-01   3.2541047972102349e-01   3.2199898022552720e-01   3.2510323364483568e-01   3.2169002565954480e-01   3.2479239850021280e-01   3.2138145817941766e-01   3.2448303530908801e-01   3.2107118222950665e-01   3.2417033243383875e-01   3.2076153784915540e-01   3.2386008634070890e-01   3.2044955960530319e-01   3.2354535085962643e-01   3.2013736411204674e-01   3.2323241391772317e-01   3.1982338738246796e-01   3.2291572677291452e-01   3.1950976698120570e-01   3.2260030889154057e-01   3.1919388555362754e-01   3.2228104458348866e-01   3.1887862068004197e-01   3.2196493612613331e-01   3.1856058311617325e-01   3.2164330656444162e-01   3.1824232884656528e-01   3.2132407246915684e-01   3.1792212667457503e-01   3.2100058498223033e-01   3.1760245855940761e-01   3.2067873230360172e-01   3.1728017002735553e-01   3.2035299465533285e-01   3.1695907119022065e-01   3.2003016911336701e-01   3.1663465465772872e-01   3.1970169000463250e-01   3.1631014601256291e-01   3.1937562070316150e-01   3.1598335256741594e-01   3.1904490867728080e-01   3.1565708280764426e-01   3.1871591161403329e-01   3.1532815604142206e-01   3.1838295723592092e-01   3.1500036455641262e-01   3.1805340009471766e-01   3.1466949740909017e-01   3.1771777372810001e-01   3.1433826780848295e-01   3.1738481029248561e-01   3.3820372136186028e-01   3.3820372136186028e-01   3.3820372136186028e-01   3.3820372136186028e-01   3.3820372136186028e-01   3.3820372136186028e-01   3.3820372136186028e-01   3.3820372136186028e-01   3.3820372136186028e-01   3.3820372136186028e-01   3.3820372136186028e-01   3.1400495736130701e-01   3.1704693001979506e-01   3.1367221846503812e-01   3.1671103221132918e-01   3.1333673722707273e-01   3.1637053883748389e-01   3.1300256566834461e-01   3.1603497366271910e-01   3.1266493350274838e-01   3.1569187962522749e-01   3.1232711647640404e-01   3.1535244923663741e-01   3.1198718079335014e-01   3.1500776869057517e-01   3.1164817284792895e-01   3.1466519824941253e-01   3.1130626942502654e-01   3.1431853883275429e-01   3.1096618124359299e-01   3.1397592135689550e-01   3.1062230817346459e-01   3.1362665439126713e-01   3.1027839995749484e-01   3.1328080558482918e-01   3.0993243232641848e-01   3.1292948145982546e-01   3.0958723576954489e-01   3.1258057668284661e-01   3.0923939358730135e-01   3.1222711522419316e-01   3.0889301585648021e-01   3.1187849654438576e-01   3.0854335838807034e-01   3.1152248261444898e-01   3.0819321094425345e-01   3.1117094256244454e-01   3.0784137612598506e-01   3.1081297641931288e-01   3.0749050868264732e-01   3.1045861270379671e-01   3.0713673923545548e-01   3.1009852644251223e-01   3.0678499756984962e-01   3.0974430920921764e-01   3.0642909807387775e-01   3.0938149091082279e-01   3.0607340115401022e-01   3.0902446494625335e-01   3.0571549966742440e-01   3.0866144151594510e-01   3.0535911690039347e-01   3.0829836826322143e-01   3.0499973461175506e-01   3.0793418282875251e-01   3.0464202861149114e-01   3.0757236862394011e-01   3.0428180252660958e-01   3.0720358098807593e-01   3.0391812857359068e-01   3.0684155642270217e-01   3.0355585197951629e-01   3.0646944951853788e-01   3.0319331713166253e-01   3.0610468968875254e-01   3.0282788880843636e-01   3.3820372136186011e-01   3.3820372136186011e-01   3.3820372136186011e-01   3.3820372136186022e-01   3.3820372136186022e-01   3.3820372136186011e-01   3.3820372136186011e-01   3.3820372136186011e-01   3.3820372136186011e-01   3.0573137752802554e-01   3.0246536487884340e-01   3.0536613496729054e-01   3.0209866237954369e-01   3.0499032238486584e-01   3.0173066749225286e-01   3.0462285592854554e-01   3.0136194016814666e-01   3.0424430248220191e-01   3.0099517237526885e-01   3.0387396839598091e-01   3.0062343724500667e-01   3.0349448840406407e-01   3.0025656882339780e-01   3.0312559103588033e-01   2.9988374954577041e-01   3.0274374063326970e-01   2.9951043150013185e-01   3.0236826218084950e-01   2.9913560108684795e-01   3.0198463148498417e-01   2.9876432678099618e-01   3.0161205913488576e-01   2.9838795725571821e-01   3.0122512603305535e-01   2.9801555800446883e-01   3.0084903082894215e-01   2.9763552007860639e-01   3.0046315680317764e-01   2.9725984490713470e-01   3.3618069477585760e-01   3.3267443447626560e-01   3.3579079922357907e-01   3.3228653143631925e-01   3.3540445216509918e-01   3.3190122906100683e-01   3.3502176345065421e-01   3.3152021157117234e-01   3.3464287047969232e-01   3.3114047775571959e-01   3.3426918185586879e-01   3.3076713995161711e-01   3.3389916126198627e-01   3.3039749133024487e-01   3.3353189376516595e-01   3.3003264010870131e-01   3.3316911469747557e-01   3.2967034053297967e-01   3.3281018924211953e-01   3.2931229888148328e-01   3.3245532895636182e-01   3.2895672823469618e-01   3.3210574097685341e-01   3.2860604430239077e-01   3.3175885661031213e-01   3.2825854191742826e-01   3.3141468316869860e-01   3.2791486928467356e-01   3.3107445628506094e-01   3.2757444794122109e-01   3.3073671533689952e-01   3.2723739164128396e-01   3.3040275867414276e-01   3.2690226668692024e-01   3.3007216405348233e-01   3.2657133008335465e-01   3.2974403185430956e-01   3.3820372136186017e-01   3.3820372136186033e-01   3.3820372136186033e-01   3.3820372136186017e-01   3.3820372136186017e-01   3.3820372136186017e-01   3.3820372136186017e-01   3.2624224856864215e-01   3.3820372136186017e-01   3.2941793765743188e-01   3.2591653306737928e-01   3.2909493664482525e-01   3.2559291085093361e-01   3.2877415513655878e-01   3.2527230149626368e-01   3.2845562137646278e-01   3.2495283560345189e-01   3.2813996044352545e-01   3.2463648775793769e-01   3.2782514062795737e-01   3.2432097870173698e-01   3.2751193008509377e-01   3.2400771432975917e-01   3.2720018163535336e-01   3.2369586065325767e-01   3.2689001857660344e-01   3.2338544918285733e-01   3.2658074258049741e-01   3.2307581186046852e-01   3.2627302176349970e-01   3.2276770246679376e-01   3.2596546100007590e-01   3.2245996603542465e-01   3.2565849722259010e-01   3.2215319503426160e-01   3.2535223676546599e-01   3.2184709913055626e-01   3.2504683653372990e-01   3.2154147472438538e-01   3.2474124346687877e-01   3.2123592729096667e-01   3.2443665505098995e-01   3.2093098602979625e-01   3.2413098429227538e-01   3.2062587760961370e-01   3.2382533064738317e-01   3.2032064679645900e-01   3.2351943417486045e-01   3.2001559364960741e-01   3.2321407190845730e-01   3.1971027154262505e-01   3.2290766488070011e-01   3.1940442549576165e-01   3.2260229227174309e-01   3.1909882682757895e-01   3.2229472063158682e-01   3.1879228318946645e-01   3.2198713263867074e-01   3.1848538478977512e-01   3.2167815783993614e-01   3.1817809298718985e-01   3.2136951532235353e-01   3.1786993349948411e-01   3.2105922818237786e-01   3.1756091922922181e-01   3.2074950779258921e-01   3.1725171869388175e-01   3.2043751953586991e-01   3.1694133232851085e-01   3.2012523374603086e-01   3.1663035238203574e-01   3.1981124057881860e-01   3.1631868944163100e-01   3.1949753273478504e-01   3.1600587816661574e-01   3.1918164930995174e-01   3.3820372136186033e-01   3.3820372136186017e-01   3.3820372136186017e-01   3.3820372136186017e-01   3.3820372136186017e-01   3.3820372136186017e-01   3.3820372136186017e-01   3.1569185197758015e-01   3.3820372136186017e-01   3.1886629474807948e-01   3.1537739323341285e-01   3.1854825474578297e-01   3.1506174322939318e-01   3.1822990162675463e-01   3.1474504552752897e-01   3.1790968967052846e-01   3.1442787640774100e-01   3.1758993176358680e-01   3.1410940335035098e-01   3.1726765109592003e-01   3.1378933476812837e-01   3.1694646527729964e-01   3.1346923333120780e-01   3.1662204721452286e-01   3.1314714693647439e-01   3.1629743692916190e-01   3.1282469458838547e-01   3.1597063418108240e-01   3.1250133608643549e-01   3.1564426681420454e-01   3.1217684134347695e-01   3.1531535494130758e-01   3.1185059966840817e-01   3.1498746956850643e-01   3.1152447205035444e-01   3.1465661106784221e-01   3.1119630741861448e-01   3.1432527112399317e-01   3.1086797765549906e-01   3.1399195880894010e-01   3.1053839374111220e-01   3.1365911225862342e-01   3.1020796441866133e-01   3.1332366265294304e-01   3.0987548200669152e-01   3.1298938477770771e-01   3.0954317826947569e-01   3.1265177514801595e-01   3.0920914784008952e-01   3.1231383916334160e-01   3.0887433982574586e-01   3.1197391338073521e-01   3.0853896702072625e-01   3.1163479838402913e-01   3.0820246340369079e-01   3.1129293759398519e-01   3.0786393921909305e-01   3.1095275076401385e-01   3.0752592693259767e-01   3.1060889678547110e-01   3.0718547708380278e-01   3.1026487564521460e-01   3.0684508068175959e-01   3.0991890761214108e-01   3.0650387754238301e-01   3.0957360871027922e-01   3.0616162392551760e-01   3.0922580000199246e-01   3.0581747315522362e-01   3.0887932549848601e-01   3.0547390398830587e-01   3.0852968797892844e-01   3.0512802798847249e-01   3.0817942854377922e-01   3.0478226439630368e-01   3.0782759486655326e-01   3.3820372136186017e-01   3.3820372136186017e-01   3.3820372136186017e-01   3.3820372136186017e-01   3.3820372136186017e-01   3.3820372136186017e-01   3.3820372136186017e-01   3.0443538614989069e-01   3.3820372136186017e-01   3.0747662421383026e-01   3.0408773054879129e-01   3.0712290038134915e-01   3.0373806003315273e-01   3.0677105725639969e-01   3.0338896477483013e-01   3.0641518597885220e-01   3.0303756027687601e-01   3.0605936452295968e-01   3.0268584720858244e-01   3.0570149483465253e-01   3.0233428170589705e-01   3.0534501164921113e-01   3.0198089216872348e-01   3.0498568992141795e-01   3.0162684583710631e-01   3.0462788308373778e-01   3.0127271430251551e-01   3.0426766005467831e-01   3.0091493634906130e-01   3.0390386151113019e-01   3.0055992078384408e-01   3.0354158902941464e-01   3.0019965071835020e-01   3.0317894452246497e-01   2.9984302304466354e-01   3.0281356599501036e-01   2.9948193536387052e-01   3.0245094570715586e-01   2.9912352117809460e-01   3.0208426944056782e-01   2.9876075547797409e-01   3.0171614982739964e-01   2.9840077585219216e-01   3.0134745561156040e-01   2.9803665006301744e-01   3.0098057636554160e-01   2.9767448725503098e-01   3.0060890098187187e-01   2.9730840981577833e-01   3.0024193585074793e-01   2.9694460205942264e-01   2.9986914537990778e-01   2.9657703792816698e-01   2.9949571308789746e-01   2.9621127277308029e-01   2.9912091985541706e-01   2.9584131929401686e-01   2.9874955625416694e-01   2.9547458388762804e-01   2.9837321852036830e-01   2.9510399619821048e-01   2.9800071915713683e-01   2.9473528751580008e-01   2.9762067916719565e-01   2.9436386770948597e-01   2.9724496276987283e-01   2.9399142903184289e-01   2.9361845539284120e-01   3.3265141872565013e-01   3.2902862861270687e-01   3.3226354205250963e-01   3.2864080792471984e-01   3.3187837248461172e-01   3.2825965265435558e-01   3.3149747863460183e-01   3.2787892119727113e-01   3.3820372136186017e-01   3.3820372136186017e-01   3.3820372136186017e-01   3.3820372136186017e-01   3.3820372136186017e-01   3.3820372136186017e-01   3.3820372136186017e-01   3.3111790005391817e-01   3.3820372136186017e-01   3.2750230889550991e-01   3.3074467993417933e-01   3.2712851470054755e-01   3.3037517820116619e-01   3.2676056222987532e-01   3.3001042450231072e-01   3.2639530426198615e-01   3.2964827308524408e-01   3.2603569789925158e-01   3.2929035254513256e-01   3.2567689134866229e-01   3.2893491406670294e-01   3.2532403322526721e-01   3.2858434323087576e-01   3.2497303832189450e-01   3.2823696635113558e-01   3.2462680027762675e-01   3.2789339762763259e-01   3.2428269382434732e-01   3.2755307364857417e-01   3.2394321812949411e-01   3.2721610518206240e-01   3.2360607123007284e-01   3.2688106824615493e-01   3.2327254478733741e-01   3.2655021137785772e-01   3.2294137164658682e-01   3.2622121913657071e-01   3.2261344214782961e-01   3.2589557044221096e-01   3.2228714409974957e-01   3.2557200960814492e-01   3.2196439779986502e-01   3.2525144691946817e-01   3.2164354718151394e-01   3.2493203353904326e-01   3.2132542977456224e-01   3.2461572007591111e-01   3.2100878907314440e-01   3.2430025950299185e-01   3.2069451336002658e-01   3.2398701891725035e-01   3.2038054980361674e-01   3.2367518280186602e-01   3.2006942078848516e-01   3.2336477942548902e-01   3.1975907893680977e-01   3.2305514925526918e-01   3.1945043451617361e-01   3.2274703407109928e-01   3.1914279109250632e-01   3.2243930405122678e-01   3.1883612384610166e-01   3.2213251728746312e-01   3.1852933638193187e-01   3.2182640088479564e-01   3.1822409555424519e-01   3.2152074959990368e-01   3.1791874510420864e-01   3.2121517618984002e-01   3.1761430235023103e-01   3.2091019354341510e-01   3.1731002831250782e-01   3.2060506382194653e-01   3.1700600766192932e-01   3.2029978864959069e-01   3.1670149336778369e-01   3.3820372136186017e-01   3.3820372136186017e-01   3.3820372136186017e-01   3.3820372136186017e-01   3.3820372136186017e-01   3.3820372136186017e-01   3.3820372136186017e-01   3.1999469130342978e-01   3.1639741299717900e-01   3.1968931364387748e-01   3.1609299395788243e-01   3.1938342567013411e-01   3.1578861087086085e-01   3.1907775588407306e-01   3.1548387406226230e-01   3.1877118195257714e-01   3.1517906193763506e-01   3.1846420775223716e-01   3.1487291094819336e-01   3.1815686996500431e-01   3.1456715964483112e-01   3.1784862725966501e-01   3.1426036520351386e-01   3.1753957039985464e-01   3.1395337163389292e-01   3.1723027438475693e-01   3.1364567881629313e-01   3.1691985986369559e-01   3.1333760539190064e-01   3.1660878143882731e-01   3.1302776414360067e-01   3.1629707220572595e-01   3.1271833976061153e-01   3.1598416222366493e-01   3.1240710464540028e-01   3.1567009280140185e-01   3.1209588172100333e-01   3.1535552997107469e-01   3.1178324963687715e-01   3.1503985057660500e-01   3.1147039057759668e-01   3.1472305737801570e-01   3.1115546906990049e-01   3.1440583965631502e-01   3.1084086991267906e-01   3.1408726801420589e-01   3.1052427525909954e-01   3.1376715770922547e-01   3.1020777355802082e-01   3.1344695421336466e-01   3.0988943261844010e-01   3.1312484229856064e-01   3.0957125946562380e-01   3.1280229419764538e-01   3.0925022977473021e-01   3.1247889315019717e-01   3.0893013126324509e-01   3.1215429630210406e-01   3.0860791662942216e-01   3.1182802154464334e-01   3.0828567023029335e-01   3.1150178705220505e-01   3.0796211074729268e-01   3.1117361418137995e-01   3.0763828532503051e-01   3.1084517530113792e-01   3.0731164786078968e-01   3.1051555835558275e-01   3.0698620706832985e-01   3.1018501914425500e-01   3.0665800552485772e-01   3.0985251043005352e-01   3.0633045125965597e-01   3.0952009929219265e-01   3.0600080770020210e-01   3.0918606521916742e-01   3.3820372136186017e-01   3.3820372136186017e-01   3.3820372136186017e-01   3.3820372136186017e-01   3.3820372136186017e-01   3.0567145452772559e-01   3.3820372136186017e-01   3.0885116085317643e-01   3.0533903886446323e-01   3.0851575245806162e-01   3.0500788225989156e-01   3.0817914896137988e-01   3.0467414388727304e-01   3.0784059898341537e-01   3.0434108918843544e-01   3.0750248796307844e-01   3.0400573945232440e-01   3.0716203331554570e-01   3.0367108651916191e-01   3.0682155058176080e-01   3.0333276997125846e-01   3.0648031015252064e-01   3.0299631944525468e-01   3.0613796631367612e-01   3.0265730132991236e-01   3.0579378909668886e-01   3.0231870391377907e-01   3.0545012151862255e-01   3.0197880865075816e-01   3.0510425232782667e-01   3.0163875510721178e-01   3.0475839493043283e-01   3.0129567222867903e-01   3.0441148629867831e-01   3.0095417197074986e-01   3.0406373753998983e-01   3.0060980896081574e-01   3.0371404775260757e-01   3.0026621668446385e-01   3.0336485007617670e-01   2.9992086089826986e-01   3.0301344985135364e-01   2.9957552489633144e-01   3.0266165745093199e-01   2.9922765840517068e-01   3.0231006703560842e-01   2.9888066910135402e-01   3.0195661360833320e-01   2.9853237146589073e-01   3.0160256798185359e-01   2.9818345593339507e-01   3.0124833495853015e-01   2.9783342556683373e-01   3.0089057713405926e-01   2.9748371236967591e-01   3.0053540714017957e-01   2.9712991363269797e-01   3.0017515958047053e-01   2.9677893259917554e-01   2.9981840816149241e-01   2.9642422938092877e-01   2.9945734914140487e-01   2.9607140912492708e-01   2.9909880332529143e-01   2.9571623906316635e-01   2.9873609087019964e-01   2.9536179917534527e-01   2.9837597841559821e-01   2.9500462790771753e-01   2.9801187012279134e-01   2.9464940115837390e-01   2.9764959392744827e-01   2.9428987408987234e-01   2.9728353824604681e-01   2.9393226982002724e-01   2.9691959832425419e-01   3.3820372136186017e-01   3.3820372136186017e-01   3.3820372136186017e-01   3.3820372136186017e-01   3.3820372136186017e-01   2.9357166529866158e-01   3.3820372136186017e-01   2.9655208306404335e-01   2.9321231185427532e-01   2.9618621806557077e-01   2.9284996347453390e-01   2.9581627721897014e-01   2.9248942032547914e-01   2.9544944094824155e-01   2.9212639318484285e-01   2.9507890554409083e-01   2.9176514802094078e-01   2.9471006175245368e-01   2.9139889426758048e-01   2.9433863833318258e-01   2.9103562291780893e-01   2.9396615249762453e-01   2.9066862013574002e-01   2.9359318797412931e-01   2.9030353831113009e-01   2.8993528025436149e-01   3.2899312446830103e-01   3.2860555803751607e-01   3.2486502752879115e-01   3.2822454037605847e-01   3.2448618235525639e-01   3.2784402452068617e-01   3.2410835292919438e-01   3.2746768904661477e-01   3.2373413370892090e-01   3.2709410272902822e-01   3.2336201440959972e-01   3.2672637545498767e-01   3.2299596584042417e-01   3.2636136441662683e-01   3.2263255762576831e-01   3.2600194533849441e-01   3.2227202737483057e-01   3.2564339075631471e-01   3.2191702455892124e-01   3.2529074474507769e-01   3.2156391332499751e-01   3.2493997191078211e-01   3.2121588923298172e-01   3.2459393589606239e-01   3.2086980848318714e-01   3.2425000608627896e-01   3.2052840699653706e-01   3.2391071490801920e-01   3.2018914045982549e-01   3.2357373176982945e-01   3.1985408316158404e-01   3.2324038063340088e-01   3.1952111859525090e-01   3.2290935591874953e-01   3.1919173435643794e-01   3.2258157935866422e-01   3.1886451160985668e-01   3.2225540068297753e-01   3.1854038326640766e-01   3.2193277626681421e-01   3.1821804207415183e-01   3.2161203342762795e-01   3.1789881526263980e-01   3.2129401349010966e-01   3.1758127403363962e-01   3.2097745872251715e-01   3.1726628458195555e-01   3.2066326039166038e-01   3.1695259709052970e-01   3.2034934824753158e-01   3.3820372136186017e-01   3.3820372136186017e-01   3.3820372136186017e-01   3.3820372136186017e-01   3.3820372136186017e-01   3.1664110023325098e-01   3.2003826852613304e-01   3.1633034568967122e-01   3.1972797086975846e-01   3.1602166437168711e-01   3.1941935712403036e-01   3.1571378609059597e-01   3.1911173504189178e-01   3.1540748041824990e-01   3.1880507994889218e-01   3.1510198270560086e-01   3.1849828186752083e-01   3.1479743511873126e-01   3.1819303110789166e-01   3.1449301994611878e-01   3.1788766316049261e-01   3.1418955138899468e-01   3.1758320208584451e-01   3.1388607264132279e-01   3.1727889172636342e-01   3.1358335665894388e-01   3.1697484437152562e-01   3.1328082345549613e-01   3.1667027135925419e-01   3.1297845837336496e-01   3.1636614477140396e-01   3.1267580274725643e-01   3.1606166618279968e-01   3.1237325046666442e-01   3.1575723260686694e-01   3.1207038243524016e-01   3.15452421