<?xml version="1.0"?>
<VTKFile type="UnstructuredGrid"  version="0.1"  >
<UnstructuredGrid>
<Piece  NumberOfPoints="2374" NumberOfCells="4550">
<Points>
<DataArray  type="Float64"  NumberOfComponents="3"  format="ascii">0.718695652173913 0 0  0.7269565217391304 0 0  0.7269565217391304 0.008333333333333333 0  0.7352173913043478 0 0  0.7352173913043478 0.008333333333333333 0  0.7434782608695653 0 0  0.7434782608695653 0.008333333333333333 0  0.7517391304347827 0 0  0.7517391304347827 0.008333333333333333 0  0.7599999999999999 0 0  0.7599999999999999 0.008333333333333333 0  0.7682608695652173 0 0  0.7682608695652173 0.008333333333333333 0  0.7765217391304348 0 0  0.7765217391304348 0.008333333333333333 0  0.7847826086956522 0 0  0.7847826086956522 0.008333333333333333 0  0.7930434782608695 0 0  0.7930434782608695 0.008333333333333333 0  0.8013043478260868 0 0  0.8013043478260868 0.008333333333333333 0  0.8095652173913043 0 0  0.8095652173913043 0.008333333333333333 0  0.8178260869565217 0 0  0.8178260869565217 0.008333333333333333 0  0.8260869565217391 0 0  0.8260869565217391 0.008333333333333333 0  0.8343478260869565 0 0  0.8343478260869565 0.008333333333333333 0  0.8426086956521739 0 0  0.8426086956521739 0.008333333333333333 0  0.8508695652173912 0 0  0.8508695652173912 0.008333333333333333 0  0.8591304347826086 0 0  0.8591304347826086 0.008333333333333333 0  0.8673913043478261 0 0  0.8673913043478261 0.008333333333333333 0  0.8756521739130434 0 0  0.8756521739130434 0.008333333333333333 0  0.8839130434782608 0 0  0.8839130434782608 0.008333333333333333 0  0.8921739130434783 0 0  0.8921739130434783 0.008333333333333333 0  0.9004347826086956 0 0  0.9004347826086956 0.008333333333333333 0  0.908695652173913 0 0  0.908695652173913 0.008333333333333333 0  0.9169565217391303 0 0  0.9169565217391303 0.008333333333333333 0  0.9252173913043478 0 0  0.9252173913043478 0.008333333333333333 0  0.9334782608695652 0 0  0.9334782608695652 0.008333333333333333 0  0.9417391304347826 0 0  0.9417391304347826 0.008333333333333333 0  0.95 0 0  0.95 0.008333333333333333 0  0.9582608695652173 0 0  0.9582608695652173 0.008333333333333333 0  0.9665217391304347 0 0  0.9665217391304347 0.008333333333333333 0  0.9747826086956521 0 0  0.9747826086956521 0.008333333333333333 0  0.9830434782608696 0 0  0.9830434782608696 0.008333333333333333 0  0.991304347826087 0 0  0.991304347826087 0.008333333333333333 0  0.9995652173913042 0 0  0.9995652173913042 0.008333333333333333 0  1.007826086956522 0 0  1.007826086956522 0.008333333333333333 0  1.016086956521739 0 0  1.016086956521739 0.008333333333333333 0  1.024347826086957 0 0  1.024347826086957 0.008333333333333333 0  1.032608695652174 0 0  1.032608695652174 0.008333333333333333 0  1.040869565217391 0.008333333333333333 0  0.7352173913043478 0.01666666666666667 0  0.7434782608695653 0.01666666666666667 0  0.7517391304347827 0.01666666666666667 0  0.7599999999999999 0.01666666666666667 0  0.7682608695652173 0.01666666666666667 0  0.7765217391304348 0.01666666666666667 0  0.7847826086956522 0.01666666666666667 0  0.7930434782608695 0.01666666666666667 0  0.8013043478260868 0.01666666666666667 0  0.8095652173913043 0.01666666666666667 0  0.8178260869565217 0.01666666666666667 0  0.8260869565217391 0.01666666666666667 0  0.8343478260869565 0.01666666666666667 0  0.8426086956521739 0.01666666666666667 0  0.8508695652173912 0.01666666666666667 0  0.8591304347826086 0.01666666666666667 0  0.8673913043478261 0.01666666666666667 0  0.8756521739130434 0.01666666666666667 0  0.8839130434782608 0.01666666666666667 0  0.8921739130434783 0.01666666666666667 0  0.9004347826086956 0.01666666666666667 0  0.908695652173913 0.01666666666666667 0  0.9169565217391303 0.01666666666666667 0  0.9252173913043478 0.01666666666666667 0  0.9334782608695652 0.01666666666666667 0  0.9417391304347826 0.01666666666666667 0  0.95 0.01666666666666667 0  0.9582608695652173 0.01666666666666667 0  0.9665217391304347 0.01666666666666667 0  0.9747826086956521 0.01666666666666667 0  0.9830434782608696 0.01666666666666667 0  0.991304347826087 0.01666666666666667 0  0.9995652173913042 0.01666666666666667 0  1.007826086956522 0.01666666666666667 0  1.016086956521739 0.01666666666666667 0  1.024347826086957 0.01666666666666667 0  1.032608695652174 0.01666666666666667 0  1.040869565217391 0.01666666666666667 0  1.049130434782609 0.01666666666666667 0  0.7434782608695653 0.025 0  0.7517391304347827 0.025 0  0.7599999999999999 0.025 0  0.7682608695652173 0.025 0  0.7765217391304348 0.025 0  0.7847826086956522 0.025 0  0.7930434782608695 0.025 0  0.8013043478260868 0.025 0  0.8095652173913043 0.025 0  0.8178260869565217 0.025 0  0.8260869565217391 0.025 0  0.8343478260869565 0.025 0  0.8426086956521739 0.025 0  0.8508695652173912 0.025 0  0.8591304347826086 0.025 0  0.8673913043478261 0.025 0  0.8756521739130434 0.025 0  0.8839130434782608 0.025 0  0.8921739130434783 0.025 0  0.9004347826086956 0.025 0  0.908695652173913 0.025 0  0.9169565217391303 0.025 0  0.9252173913043478 0.025 0  0.9334782608695652 0.025 0  0.9417391304347826 0.025 0  0.95 0.025 0  0.9582608695652173 0.025 0  0.9665217391304347 0.025 0  0.9747826086956521 0.025 0  0.9830434782608696 0.025 0  0.991304347826087 0.025 0  0.9995652173913042 0.025 0  1.007826086956522 0.025 0  1.016086956521739 0.025 0  1.024347826086957 0.025 0  1.032608695652174 0.025 0  1.040869565217391 0.025 0  1.049130434782609 0.025 0  1.057391304347826 0.025 0  0.7517391304347827 0.03333333333333333 0  0.7599999999999999 0.03333333333333333 0  0.7682608695652173 0.03333333333333333 0  0.7765217391304348 0.03333333333333333 0  0.7847826086956522 0.03333333333333333 0  0.7930434782608695 0.03333333333333333 0  0.8013043478260868 0.03333333333333333 0  0.8095652173913043 0.03333333333333333 0  0.8178260869565217 0.03333333333333333 0  0.8260869565217391 0.03333333333333333 0  0.8343478260869565 0.03333333333333333 0  0.8426086956521739 0.03333333333333333 0  0.8508695652173912 0.03333333333333333 0  0.8591304347826086 0.03333333333333333 0  0.8673913043478261 0.03333333333333333 0  0.8756521739130434 0.03333333333333333 0  0.8839130434782608 0.03333333333333333 0  0.8921739130434783 0.03333333333333333 0  0.9004347826086956 0.03333333333333333 0  0.908695652173913 0.03333333333333333 0  0.9169565217391303 0.03333333333333333 0  0.9252173913043478 0.03333333333333333 0  0.9334782608695652 0.03333333333333333 0  0.9417391304347826 0.03333333333333333 0  0.95 0.03333333333333333 0  0.9582608695652173 0.03333333333333333 0  0.9665217391304347 0.03333333333333333 0  0.9747826086956521 0.03333333333333333 0  0.9830434782608696 0.03333333333333333 0  0.991304347826087 0.03333333333333333 0  0.9995652173913042 0.03333333333333333 0  1.007826086956522 0.03333333333333333 0  1.016086956521739 0.03333333333333333 0  1.024347826086957 0.03333333333333333 0  1.032608695652174 0.03333333333333333 0  1.040869565217391 0.03333333333333333 0  1.049130434782609 0.03333333333333333 0  1.057391304347826 0.03333333333333333 0  1.065652173913043 0.03333333333333333 0  0.7599999999999999 0.04166666666666666 0  0.7682608695652173 0.04166666666666666 0  0.7765217391304348 0.04166666666666666 0  0.7847826086956522 0.04166666666666666 0  0.7930434782608695 0.04166666666666666 0  0.8013043478260868 0.04166666666666666 0  0.8095652173913043 0.04166666666666666 0  0.8178260869565217 0.04166666666666666 0  0.8260869565217391 0.04166666666666666 0  0.8343478260869565 0.04166666666666666 0  0.8426086956521739 0.04166666666666666 0  0.8508695652173912 0.04166666666666666 0  0.8591304347826086 0.04166666666666666 0  0.8673913043478261 0.04166666666666666 0  0.8756521739130434 0.04166666666666666 0  0.8839130434782608 0.04166666666666666 0  0.8921739130434783 0.04166666666666666 0  0.9004347826086956 0.04166666666666666 0  0.908695652173913 0.04166666666666666 0  0.9169565217391303 0.04166666666666666 0  0.9252173913043478 0.04166666666666666 0  0.9334782608695652 0.04166666666666666 0  0.9417391304347826 0.04166666666666666 0  0.95 0.04166666666666666 0  0.9582608695652173 0.04166666666666666 0  0.9665217391304347 0.04166666666666666 0  0.9747826086956521 0.04166666666666666 0  0.9830434782608696 0.04166666666666666 0  0.991304347826087 0.04166666666666666 0  0.9995652173913042 0.04166666666666666 0  1.007826086956522 0.04166666666666666 0  1.016086956521739 0.04166666666666666 0  1.024347826086957 0.04166666666666666 0  1.032608695652174 0.04166666666666666 0  1.040869565217391 0.04166666666666666 0  1.049130434782609 0.04166666666666666 0  1.057391304347826 0.04166666666666666 0  1.065652173913043 0.04166666666666666 0  1.073913043478261 0.04166666666666666 0  0.7682608695652173 0.05 0  0.7765217391304348 0.05 0  0.7847826086956522 0.05 0  0.7930434782608695 0.05 0  0.8013043478260868 0.05 0  0.8095652173913043 0.05 0  0.8178260869565217 0.05 0  0.8260869565217391 0.05 0  0.8343478260869565 0.05 0  0.8426086956521739 0.05 0  0.8508695652173912 0.05 0  0.8591304347826086 0.05 0  0.8673913043478261 0.05 0  0.8756521739130434 0.05 0  0.8839130434782608 0.05 0  0.8921739130434783 0.05 0  0.9004347826086956 0.05 0  0.908695652173913 0.05 0  0.9169565217391303 0.05 0  0.9252173913043478 0.05 0  0.9334782608695652 0.05 0  0.9417391304347826 0.05 0  0.95 0.05 0  0.9582608695652173 0.05 0  0.9665217391304347 0.05 0  0.9747826086956521 0.05 0  0.9830434782608696 0.05 0  0.991304347826087 0.05 0  0.9995652173913042 0.05 0  1.007826086956522 0.05 0  1.016086956521739 0.05 0  1.024347826086957 0.05 0  1.032608695652174 0.05 0  1.040869565217391 0.05 0  1.049130434782609 0.05 0  1.057391304347826 0.05 0  1.065652173913043 0.05 0  1.073913043478261 0.05 0  1.082173913043478 0.05 0  0.7765217391304348 0.05833333333333333 0  0.7847826086956522 0.05833333333333333 0  0.7930434782608695 0.05833333333333333 0  0.8013043478260868 0.05833333333333333 0  0.8095652173913043 0.05833333333333333 0  0.8178260869565217 0.05833333333333333 0  0.8260869565217391
[...]
<CellData  Scalars="rho_bar"> 
<DataArray  type="Float64"  Name="rho_bar"  format="ascii">1.0000000000000000e+00   1.0000000000000000e+00   1.0000000000000000e+00   1.0000000000000000e+00   1.0000000000000000e+00   1.0000000000000000e+00   1.0000000000000000e+00   9.9999999999999978e-01   9.9999999999999978e-01   1.0000000000000000e+00   1.0000000000000000e+00   1.0000000000000000e+00   1.0000000000000000e+00   1.0000000000000000e+00   1.0000000000000000e+00   9.9999999999999978e-01   9.9999999999999978e-01   9.9999999999999978e-01   9.9999999999999978e-01   1.0000000000000000e+00   1.0000000000000000e+00   1.0000000000000000e+00   1.0000000000000000e+00   1.0000000000000000e+00   1.0000000000000000e+00   9.9999999999999978e-01   9.9999999999999978e-01   1.0000000000000000e+00   1.0000000000000000e+00   9.9999999999999978e-01   9.9999999999999978e-01   1.0000000000000000e+00   1.0000000000000000e+00   1.0000000000000000e+00   1.0000000000000000e+00   9.9999999999999978e-01   9.9999999999999978e-01   1.0000000000000000e+00   1.0000000000000000e+00   1.0000000000000000e+00   1.0000000000000000e+00   9.9999999999999978e-01   9.9999999999999978e-01   1.0000000000000000e+00   1.0000000000000000e+00   9.9999999999999978e-01   9.9999999999999978e-01   1.0000000000000000e+00   1.0000000000000000e+00   1.0000000000000000e+00   1.0000000000000000e+00   1.0000000000000000e+00   1.0000000000000000e+00   9.9999999999999978e-01   9.9999999999999978e-01   9.9999999999999978e-01   9.9999999999999978e-01   1.0000000000000000e+00   1.0000000000000000e+00   1.0000000000000000e+00   1.0000000000000000e+00   1.0000000000000000e+00   1.0000000000000000e+00   1.0000000000000000e+00   1.0000000000000000e+00   9.9999999999999978e-01   9.9999999999999978e-01   1.0000000000000000e+00   1.0000000000000000e+00   9.9999999999999978e-01   9.9999999999999978e-01   1.0000000000000000e+00   1.0000000000000000e+00   9.9999999999999978e-01   9.9999999999999978e-01   9.9999999999999978e-01   1.0000000000000000e+00   1.0000000000000000e+00   1.0000000000000000e+00   1.0000000000000000e+00   1.0000000000000000e+00   9.9999999999999978e-01   9.9999999999999978e-01   1.0000000000000000e+00   1.0000000000000000e+00   1.0000000000000000e+00   1.0000000000000000e+00   1.0000000000000000e+00   1.0000000000000000e+00   9.9999999999999978e-01   9.9999999999999978e-01   9.9999999999999978e-01   9.9999999999999978e-01   1.0000000000000000e+00   1.0000000000000000e+00   1.0000000000000000e+00   1.0000000000000000e+00   1.0000000000000000e+00   1.0000000000000000e+00   9.9999999999999978e-01   9.9999999999999978e-01   1.0000000000000000e+00   1.0000000000000000e+00   9.9999999999999978e-01   9.9999999999999978e-01   1.0000000000000000e+00   1.0000000000000000e+00   1.0000000000000000e+00   1.0000000000000000e+00   9.9999999999999978e-01   9.9999999999999978e-01   1.0000000000000000e+00   1.0000000000000000e+00   1.0000000000000000e+00   1.0000000000000000e+00   9.9999999999999978e-01   9.9999999999999978e-01   1.0000000000000000e+00   1.0000000000000000e+00   9.9999999999999978e-01   9.9999999999999978e-01   1.0000000000000000e+00   1.0000000000000000e+00   1.0000000000000000e+00   1.0000000000000000e+00   1.0000000000000000e+00   1.0000000000000000e+00   9.9999999999999978e-01   9.9999999999999978e-01   9.9999999999999978e-01   9.9999999999999978e-01   1.0000000000000000e+00   1.0000000000000000e+00   1.0000000000000000e+00   1.0000000000000000e+00   1.0000000000000000e+00   1.0000000000000000e+00   1.0000000000000000e+00   1.0000000000000000e+00   9.9999999999999978e-01   9.9999999999999978e-01   1.0000000000000000e+00   1.0000000000000000e+00   9.9999999999999978e-01   9.9999999999999978e-01   1.0000000000000000e+00   1.0000000000000000e+00   9.9999999999999978e-01   9.9999999999999978e-01   9.9999999999999978e-01   9.9999999999999978e-01   1.0000000000000000e+00   9.9999999999999956e-01   9.9999999999999956e-01   9.9999999999999956e-01   1.0000000000000000e+00   1.0000000000000000e+00   9.9999999999999956e-01   9.9999999999999956e-01   9.9999999999999956e-01   9.9999999999999956e-01   9.9999999999999956e-01   9.9999999999999956e-01   1.0000000000000000e+00   1.0000000000000000e+00   1.0000000000000000e+00   1.0000000000000000e+00   9.9999999999999956e-01   9.9999999999999956e-01   9.9999999999999956e-01   9.9999999999999956e-01   9.9999999999999956e-01   9.9999999999999956e-01   1.0000000000000000e+00   1.0000000000000000e+00   9.9999999999999956e-01   9.9999999999999956e-01   1.0000000000000000e+00   1.0000000000000000e+00   9.9999999999999956e-01   9.9999999999999956e-01   9.9999999999999956e-01   9.9999999999999956e-01   1.0000000000000000e+00   1.0000000000000000e+00   9.9999999999999956e-01   9.9999999999999956e-01   9.9999999999999956e-01   9.9999999999999956e-01   1.0000000000000000e+00   1.0000000000000000e+00   9.9999999999999956e-01   9.9999999999999956e-01   1.0000000000000000e+00   1.0000000000000000e+00   9.9999999999999956e-01   9.9999999999999956e-01   9.9999999999999956e-01   9.9999999999999956e-01   9.9999999999999956e-01   9.9999999999999956e-01   1.0000000000000000e+00   1.0000000000000000e+00   1.0000000000000000e+00   1.0000000000000000e+00   9.9999999999999956e-01   9.9999999999999956e-01   9.9999999999999956e-01   9.9999999999999956e-01   9.9999999999999956e-01   9.9999999999999956e-01   9.9999999999999956e-01   9.9999999999999956e-01   1.0000000000000000e+00   1.0000000000000000e+00   9.9999999999999956e-01   9.9999999999999956e-01   1.0000000000000000e+00   1.0000000000000000e+00   9.9999999999999967e-01   9.9999999999999967e-01   1.0000000000000000e+00   1.0000000000000000e+00   1.0000000000000000e+00   1.0000000000000000e+00   9.9999999999999967e-01   9.9999999999999967e-01   1.0000000000000000e+00   1.0000000000000000e+00   1.0000000000000000e+00   1.0000000000000000e+00   1.0000000000000000e+00   1.0000000000000000e+00   1.0000000000000000e+00   1.0000000000000000e+00   1.0000000000000000e+00   1.0000000000000000e+00   1.0000000000000000e+00   1.0000000000000000e+00   1.0000000000000000e+00   1.0000000000000000e+00   1.0000000000000000e+00   1.0000000000000000e+00   1.0000000000000000e+00   1.0000000000000000e+00   1.0000000000000000e+00   1.0000000000000000e+00   1.0000000000000000e+00   1.0000000000000000e+00   1.0000000000000000e+00   1.0000000000000000e+00   1.0000000000000000e+00   1.0000000000000000e+00   1.0000000000000000e+00   1.0000000000000000e+00   1.0000000000000000e+00   1.0000000000000000e+00   1.0000000000000000e+00   1.0000000000000000e+00   1.0000000000000000e+00   1.0000000000000000e+00   1.0000000000000000e+00   1.0000000000000000e+00   1.0000000000000000e+00   1.0000000000000000e+00   1.0000000000000000e+00   1.0000000000000000e+00   1.0000000000000000e+00   1.0000000000000000e+00   1.0000000000000000e+00   1.0000000000000000e+00   1.0000000000000000e+00   1.0000000000000000e+00   1.0000000000000000e+00   1.0000000000000000e+00   1.0000000000000000e+00   1.0000000000000000e+00   1.0000000000000000e+00   1.0000000000000000e+00   1.0000000000000000e+00   1.0000000000000000e+00   1.0000000000000000e+00   1.0000000000000000e+00   1.0000000000000000e+00   1.0000000000000000e+00   1.0000000000000000e+00   1.0000000000000000e+00   1.0000000000000000e+00   1.0000000000000000e+00   1.0000000000000000e+00   1.0000000000000000e+00   1.0000000000000000e+00   1.0000000000000000e+00   9.9999999999999956e-01   9.9999999999999956e-01   1.0000000000000000e+00   1.0000000000000000e+00   1.0000000000000000e+00   1.0000000000000000e+00   9.9999999999999956e-01   9.9999999999999956e-01   1.0000000000000000e+00   1.0000000000000000e+00   1.0000000000000000e+00   1.0000000000000000e+00   1.0000000000000000e+00   1.0000000000000000e+00   1.0000000000000000e+00   1.0000000000000000e+00   1.0000000000000000e+00   1.0000000000000000e+00   1.0000000000000000e+00   1.0000000000000000e+00   1.0000000000000000e+00   1.0000000000000000e+00   1.0000000000000000e+00   1.0000000000000000e+00   1.0000000000000000e+00   1.0000000000000000e+00   1.0000000000000000e+00   1.0000000000000000e+00   1.0000000000000000e+00   1.0000000000000000e+00   1.0000000000000000e+00   1.0000000000000000e+00   1.0000000000000000e+00   1.0000000000000000e+00   1.0000000000000000e+00   1.0000000000000000e+00   1.0000000000000000e+00   1.0000000000000000e+00   1.0000000000000000e+00   1.0000000000000000e+00   1.0000000000000000e+00   1.0000000000000000e+00   1.0000000000000000e+00   1.0000000000000000e+00   1.0000000000000000e+00   1.0000000000000000e+00   1.0000000000000000e+00   1.0000000000000000e+00   1.0000000000000000e+00   1.0000000000000000e+00   1.0000000000000000e+00   1.0000000000000000e+00   1.0000000000000000e+00   1.0000000000000000e+00   1.0000000000000000e+00   1.0000000000000000e+00   1.0000000000000000e+00   1.0000000000000000e+00   1.0000000000000000e+00   1.0000000000000000e+00   1.0000000000000000e+00   1.0000000000000000e+00   1.0000000000000000e+00   1.0000000000000000e+00   1.0000000000000000e+00   1.0000000000000000e+00   1.0000000000000000e+00   1.0000000000000000e+00   1.0000000000000000e+00   1.0000000000000000e+00   1.0000000000000000e+00   1.0000000000000000e+00   1.0000000000000000e+00   1.0000000000000000e+00   9.9999999999999956e-01   9.9999999999999956e-01   1.0000000000000000e+00   1.0000000000000000e+00   1.0000000000000000e+00   1.0000000000000000e+00   9.9999999999999956e-01   9.9999999999999956e-01   1.0000000000000000e+00   1.0000000000000000e+00   1.0000000000000000e+00   1.0000000000000000e+00   9.9999999999999956e-01   9.9999999999999967e-01   9.9999999999999967e-01   9.9999999999999967e-01   9.9999999999999967e-01   9.9999999999999967e-01   9.9999999999999956e-01   9.9999999999999956e-01   9.9999999999999956e-01   9.9999999999999956e-01   9.9999999999999967e-01   9.9999999999999967e-01   9.9999999999999967e-01   9.9999999999999967e-01   9.9999999999999967e-01   9.9999999999999967e-01   9.9999999999999956e-01   9.9999999999999956e-01   9.9999999999999967e-01   9.9999999999999967e-01   9.9999999999999956e-01   9.9999999999999956e-01   9.9999999999999967e-01   9.9999999999999967e-01   9.9999999999999967e-01   9.9999999999999967e-01   9.9999999999999956e-01   9.9999999999999956e-01   9.9999999999999967e-01   9.9999999999999967e-01   9.9999999999999967e-01   9.9999999999999967e-01   9.9999999999999956e-01   9.9999999999999956e-01   9.9999999999999967e-01   9.9999999999999967e-01   9.9999999999999956e-01   9.9999999999999956e-01   9.9999999999999967e-01   9.9999999999999967e-01   9.9999999999999967e-01   9.9999999999999967e-01   9.9999999999999967e-01   9.9999999999999967e-01   9.9999999999999956e-01   9.9999999999999956e-01   9.9999999999999956e-01   9.9999999999999956e-01   9.9999999999999967e-01   9.9999999999999967e-01   9.9999999999999967e-01   9.9999999999999967e-01   9.9999999999999967e-01   9.9999999999999967e-01   9.9999999999999967e-01   9.9999999999999967e-01   1.0000000000000000e+00   1.0000000000000000e+00   9.9999999999999967e-01   9.9999999999999967e-01   9.9999999999999956e-01   9.9999999999999956e-01   1.0000000000000000e+00   1.0000000000000000e+00   9.9999999999999956e-01   9.9999999999999956e-01   9.9999999999999956e-01   9.9999999999999956e-01   1.0000000000000000e+00   1.0000000000000000e+00   9.9999999999999956e-01   9.9999999999999956e-01   9.9999999999999956e-01   9.9999999999999956e-01   1.0000000000000000e+00   1.0000000000000000e+00   9.9999999999999956e-01   1.0000000000000000e+00   1.0000000000000000e+00   1.0000000000000000e+00   1.0000000000000000e+00   1.0000000000000000e+00   1.0000000000000000e+00   1.0000000000000000e+00   1.0000000000000000e+00   1.0000000000000000e+00   1.0000000000000000e+00   1.0000000000000000e+00   1.0000000000000000e+00   1.0000000000000000e+00   1.0000000000000000e+00   1.0000000000000000e+00   1.0000000000000000e+00   1.0000000000000000e+00   1.0000000000000000e+00   1.0000000000000000e+00   1.0000000000000000e+00   1.0000000000000000e+00   1.0000000000000000e+00   1.0000000000000000e+00   1.0000000000000000e+00   1.0000000000000000e+00   1.0000000000000000e+00   1.0000000000000000e+00   1.0000000000000000e+00   1.0000000000000000e+00   1.0000000000000000e+00   1.0000000000000000e+00   1.0000000000000000e+00   1.0000000000000000e+00   1.0000000000000000e+00   1.0000000000000000e+00   1.0000000000000000e+00   1.0000000000000000e+00   1.0000000000000000e+00   1.0000000000000000e+00   1.0000000000000000e+00   1.0000000000000000e+00   1.0000000000000000e+00   1.0000000000000000e+00   1.0000000000000000e+00   1.0000000000000000e+00   1.0000000000000000e+00   1.0000000000000000e+00   1.0000000000000000e+00   1.0000000000000000e+00   1.0000000000000000e+00   1.0000000000000000e+00   1.0000000000000000e+00   1.0000000000000000e+00   1.0000000000000000e+00   1.0000000000000000e+00   1.0000000000000000e+00   1.0000000000000000e+00   1.0000000000000000e+00   1.0000000000000000e+00   9.9999999999999956e-01   9.9999999999999956e-01   1.0000000000000000e+00   1.0000000000000000e+00   1.0000000000000000e+00   1.0000000000000000e+00   9.9999999999999956e-01   9.9999999999999956e-01   1.0000000000000000e+00   1.0000000000000000e+00   1.0000000000000000e+00   1.0000000000000000e+00   9.9999999999999956e-01   9.9999999999999956e-01   1.0000000000000000e+00   1.0000000000000000e+00   1.0000000000000000e+00   1.0000000000000000e+00   1.0000000000000000e+00   1.0000000000000000e+00   1.0000000000000000e+00   1.0000000000000000e+00   1.0000000000000000e+00   1.0000000000000000e+00   1.0000000000000000e+00   1.0000000000000000e+00   1.0000000000000000e+00   1.0000000000000000e+00   1.0000000000000000e+00   1.0000000000000000e+00   1.0000000000000000e+00   1.0000000000000000e+00   1.0000000000000000e+00   1.0000000000000000e+00   1.0000000000000000e+00   1.0000000000000000e+00   1.0000000000000000e+00   1.0000000000000000e+00   1.0000000000000000e+00   1.0000000000000000e+00   1.0000000000000000e+00   1.0000000000000000e+00   1.0000000000000000e+00   1.0000000000000000e+00   1.0000000000000000e+00   1.0000000000000000e+00   1.0000000000000000e+00   1.0000000000000000e+00   1.0000000000000000e+00   1.0000000000000000e+00   1.0000000000000000e+00   1.0000000000000000e+00   1.0000000000000000e+00   1.0000000000000000e+00   1.0000000000000000e+00   1.0000000000000000e+00   1.0000000000000000e+00   1.0000000000000000e+00   1.0000000000000000e+00   1.0000000000000000e+00   1.0000000000000000e+00   1.0000000000000000e+00   1.0000000000000000e+00   1.0000000000000000e+00   1.0000000000000000e+00   1.0000000000000000e+00   1.0000000000000000e+00   1.0000000000000000e+00   1.0000000000000000e+00   1.0000000000000000e+00   1.0000000000000000e+00   1.0000000000000000e+00   1.0000000000000000e+00   1.0000000000000000e+00   9.9999999999999956e-01   9.9999999999999956e-01   1.0000000000000000e+00   1.0000000000000000e+00   1.0000000000000000e+00   1.0000000000000000e+00   9.9999999999999956e-01   9.9999999999999956e-01   1.0000000000000000e+00   1.0000000000000000e+00   1.0000000000000000e+00   1.0000000000000000e+00   9.9999999999999956e-01   9.9999999999999956e-01   1.0000000000000000e+00   1.0000000000000000e+00   1.0000000000000000e+00   1.0000000000000000e+00   9.9999999999999956e-01   1.0000000000000000e+00   1.0000000000000000e+00   1.0000000000000000e+00   1.0000000000000000e+00   1.0000000000000000e+00   1.0000000000000000e+00   1.0000000000000000e+00   1.0000000000000000e+00   1.0000000000000000e+00   1.0000000000000000e+00   1.0000000000000000e+00   1.0000000000000000e+00   1.0000000000000000e+00   1.0000000000000000e+00   1.0000000000000000e+00   1.0000000000000000e+00   1.0000000000000000e+00   1.0000000000000000e+00   1.0000000000000000e+00   1.0000000000000000e+00   1.0000000000000000e+00   1.0000000000000000e+00   1.0000000000000000e+00   1.0000000000000000e+00   1.0000000000000000e+00   1.0000000000000000e+00   1.0000000000000000e+00   1.0000000000000000e+00   1.0000000000000000e+00   1.0000000000000000e+00   1.0000000000000000e+00   1.0000000000000000e+00   1.0000000000000000e+00   1.0000000000000000e+00   1.0000000000000000e+00   1.0000000000000000e+00   1.0000000000000000e+00   1.0000000000000000e+00   1.0000000000000000e+00   1.0000000000000000e+00   9.9944749443617131e-01   1.0000000000000000e+00   9.9697724231556129e-01   1.0000000000000000e+00   9.9446791025221437e-01   1.0000000000000000e+00   9.9191586182530411e-01   1.0000000000000000e+00   9.8931883314511648e-01   1.0000000000000000e+00   9.8667949593427196e-01   1.0000000000000000e+00   9.8399616189653993e-01   1.0000000000000000e+00   9.8126588486855615e-01   9.9999999999999956e-01   9.7849121836118347e-01   1.0000000000000000e+00   9.7567403946380460e-01   1.0000000000000000e+00   9.7281217188956726e-01   9.9999999999999956e-01   9.6992307271670786e-01   1.0000000000000000e+00   9.6700782145115727e-01   1.0000000000000000e+00   9.6408145325890504e-01   9.9999999999999956e-01   9.6114006919678618e-01   1.0000000000000000e+00   9.5816565539279730e-01   1.0000000000000000e+00   9.5511658645014685e-01   9.9999999999999956e-01   9.5192358911623931e-01   1.0000000000000000e+00   1.0000000000000000e+00   1.0000000000000000e+00   1.0000000000000000e+00   1.0000000000000000e+00   1.0000000000000000e+00   9.4844883229394150e-01   1.0000000000000000e+00   1.0000000000000000e+00   9.4483488444422525e-01   1.0000000000000000e+00   9.4090872341980780e-01   1.0000000000000000e+00   9.3642641958276063e-01   1.0000000000000000e+00   9.3042416520318405e-01   1.0000000000000000e+00   9.2470499004090945e-01   1.0000000000000000e+00   9.1919774460774695e-01   1.0000000000000000e+00   9.1360205195266098e-01   1.0000000000000000e+00   9.0784192065329117e-01   1.0000000000000000e+00   9.0190326912901220e-01   8.9578985093430685e-01   1.0000000000000000e+00   1.0000000000000000e+00   7.3919823057077894e-01   1.0000000000000000e+00   7.3353794162347741e-01   1.0000000000000000e+00   7.2823948385489945e-01   1.0000000000000000e+00   7.2341654384433374e-01   1.0000000000000000e+00   7.1948888577970249e-01   1.0000000000000000e+00   7.1128311260193755e-01   1.0000000000000000e+00   7.2128703959954010e-01   1.0000000000000000e+00   7.1773382681847908e-01   1.0000000000000000e+00   7.1379830691215074e-01   1.0000000000000000e+00   7.0980187391217087e-01   1.0000000000000000e+00   7.0588600770312382e-01   1.0000000000000000e+00   7.0215719106158059e-01   1.0000000000000000e+00   6.9867233426829511e-01   9.9999999999999956e-01   6.9544565137032899e-01   1.0000000000000000e+00   6.9247065475753289e-01   1.0000000000000000e+00   6.8971160311237589e-01   9.9999999999999956e-01   6.8713629816934463e-01   1.0000000000000000e+00   6.8469657692823238e-01   1.0000000000000000e+00   6.8236015365260783e-01   9.9999999999999956e-01   6.8010222819545307e-01   1.0000000000000000e+00   6.7791023442220633e-01   1.0000000000000000e+00   6.7576748480931836e-01   9.9999999999999956e-01   6.7368469846275192e-01   1.0000000000000000e+00   6.7166422212041144e-01   1.0000000000000000e+00   1.0000000000000000e+00   1.0000000000000000e+00   1.0000000000000000e+00   1.0000000000000000e+00   1.0000000000000000e+00   6.6970427319672476e-01   1.0000000000000000e+00   6.6778846790683533e-01   1.0000000000000000e+00   6.6590190370929481e-01   1.0000000000000000e+00   6.6396970009077683e-01   1.0000000000000000e+00   6.6014949188191696e-01   1.0000000000000000e+00   6.6027121909442976e-01   1.0000000000000000e+00   6.5872297910939437e-01   1.0000000000000000e+00   6.5721803197942019e-01   1.0000000000000000e+00   6.5439339672822006e-01   1.0000000000000000e+00   6.5327611188252777e-01   1.0000000000000000e+00   6.5193445947978923e-01   1.0000000000000000e+00   6.5070829217949089e-01   1.0000000000000000e+00   6.4954964666619996e-01   1.0000000000000000e+00   6.4834840348952438e-01   1.0000000000000000e+00   6.4702420417912454e-01   1.0000000000000000e+00   6.4557775990874089e-01   1.00000000