<?xml version="1.0"?>
<VTKFile type="UnstructuredGrid"  version="0.1"  >
<UnstructuredGrid>
<Piece  NumberOfPoints="2393" NumberOfCells="4569">
<Points>
<DataArray  type="Float64"  NumberOfComponents="3"  format="ascii">2.139565217391304 0.2583333333333334 0  2.147826086956522 0.2583333333333334 0  2.147826086956522 0.2666666666666667 0  2.139565217391304 0.2666666666666667 0  2.156086956521739 0.2583333333333334 0  2.156086956521739 0.2666666666666667 0  2.164347826086956 0.2583333333333334 0  2.164347826086956 0.2666666666666667 0  2.172608695652174 0.2583333333333334 0  2.172608695652174 0.2666666666666667 0  2.180869565217391 0.2583333333333334 0  2.180869565217391 0.2666666666666667 0  2.189130434782609 0.2583333333333334 0  2.189130434782609 0.2666666666666667 0  2.197391304347826 0.2583333333333334 0  2.197391304347826 0.2666666666666667 0  2.205652173913043 0.2583333333333334 0  2.205652173913043 0.2666666666666667 0  2.213913043478261 0.2583333333333334 0  2.213913043478261 0.2666666666666667 0  2.222173913043478 0.2583333333333334 0  2.222173913043478 0.2666666666666667 0  2.230434782608695 0.2583333333333334 0  2.230434782608695 0.2666666666666667 0  2.238695652173913 0.2583333333333334 0  2.238695652173913 0.2666666666666667 0  2.24695652173913 0.2583333333333334 0  2.24695652173913 0.2666666666666667 0  2.255217391304348 0.2583333333333334 0  2.255217391304348 0.2666666666666667 0  2.263478260869565 0.2583333333333334 0  2.263478260869565 0.2666666666666667 0  2.271739130434783 0.2583333333333334 0  2.271739130434783 0.2666666666666667 0  2.28 0.2583333333333334 0  2.28 0.2666666666666667 0  2.288260869565217 0.2583333333333334 0  2.288260869565217 0.2666666666666667 0  2.296521739130434 0.2583333333333334 0  2.296521739130434 0.2666666666666667 0  2.304782608695652 0.2583333333333334 0  2.304782608695652 0.2666666666666667 0  2.31304347826087 0.2583333333333334 0  2.31304347826087 0.2666666666666667 0  2.321304347826087 0.2583333333333334 0  2.321304347826087 0.2666666666666667 0  2.329565217391304 0.2583333333333334 0  2.329565217391304 0.2666666666666667 0  2.337826086956521 0.2583333333333334 0  2.337826086956521 0.2666666666666667 0  2.346086956521739 0.2583333333333334 0  2.346086956521739 0.2666666666666667 0  2.354347826086956 0.2583333333333334 0  2.354347826086956 0.2666666666666667 0  2.362608695652174 0.2583333333333334 0  2.362608695652174 0.2666666666666667 0  2.370869565217391 0.2583333333333334 0  2.370869565217391 0.2666666666666667 0  2.379130434782609 0.2583333333333334 0  2.379130434782609 0.2666666666666667 0  2.387391304347826 0.2583333333333334 0  2.387391304347826 0.2666666666666667 0  2.395652173913044 0.2583333333333334 0  2.395652173913044 0.2666666666666667 0  2.403913043478261 0.2583333333333334 0  2.403913043478261 0.2666666666666667 0  2.412173913043478 0.2583333333333334 0  2.412173913043478 0.2666666666666667 0  2.420434782608695 0.2583333333333334 0  2.420434782608695 0.2666666666666667 0  2.428695652173913 0.2583333333333334 0  2.428695652173913 0.2666666666666667 0  2.43695652173913 0.2583333333333334 0  2.43695652173913 0.2666666666666667 0  2.445217391304348 0.2583333333333334 0  2.445217391304348 0.2666666666666667 0  2.453478260869565 0.2583333333333334 0  2.453478260869565 0.2666666666666667 0  2.461739130434782 0.2583333333333334 0  2.461739130434782 0.2666666666666667 0  2.47 0.2583333333333334 0  2.47 0.2666666666666667 0  2.478260869565217 0.2583333333333334 0  2.478260869565217 0.2666666666666667 0  2.486521739130435 0.2583333333333334 0  2.486521739130435 0.2666666666666667 0  2.494782608695652 0.2583333333333334 0  2.494782608695652 0.2666666666666667 0  2.503043478260869 0.2583333333333334 0  2.503043478260869 0.2666666666666667 0  2.511304347826087 0.2583333333333334 0  2.511304347826087 0.2666666666666667 0  2.519565217391305 0.2583333333333334 0  2.519565217391305 0.2666666666666667 0  2.527826086956522 0.2583333333333334 0  2.527826086956522 0.2666666666666667 0  2.536086956521739 0.2666666666666667 0  1.908260869565217 0.2666666666666667 0  1.916521739130435 0.2666666666666667 0  1.916521739130435 0.275 0  1.908260869565217 0.275 0  1.924782608695652 0.2666666666666667 0  1.924782608695652 0.275 0  1.933043478260869 0.2666666666666667 0  1.933043478260869 0.275 0  1.941304347826087 0.2666666666666667 0  1.941304347826087 0.275 0  1.949565217391304 0.2666666666666667 0  1.949565217391304 0.275 0  1.957826086956522 0.2666666666666667 0  1.957826086956522 0.275 0  1.966086956521739 0.2666666666666667 0  1.966086956521739 0.275 0  1.974347826086956 0.2666666666666667 0  1.974347826086956 0.275 0  1.982608695652174 0.2666666666666667 0  1.982608695652174 0.275 0  1.990869565217391 0.2666666666666667 0  1.990869565217391 0.275 0  1.999130434782608 0.2666666666666667 0  1.999130434782608 0.275 0  2.007391304347826 0.2666666666666667 0  2.007391304347826 0.275 0  2.015652173913043 0.2666666666666667 0  2.015652173913043 0.275 0  2.023913043478261 0.2666666666666667 0  2.023913043478261 0.275 0  2.032173913043478 0.2666666666666667 0  2.032173913043478 0.275 0  2.040434782608695 0.2666666666666667 0  2.040434782608695 0.275 0  2.048695652173913 0.2666666666666667 0  2.048695652173913 0.275 0  2.05695652173913 0.2666666666666667 0  2.05695652173913 0.275 0  2.065217391304348 0.2666666666666667 0  2.065217391304348 0.275 0  2.073478260869565 0.2666666666666667 0  2.073478260869565 0.275 0  2.081739130434782 0.2666666666666667 0  2.081739130434782 0.275 0  2.09 0.2666666666666667 0  2.09 0.275 0  2.098260869565217 0.2666666666666667 0  2.098260869565217 0.275 0  2.106521739130435 0.2666666666666667 0  2.106521739130435 0.275 0  2.114782608695652 0.2666666666666667 0  2.114782608695652 0.275 0  2.12304347826087 0.2666666666666667 0  2.12304347826087 0.275 0  2.131304347826087 0.2666666666666667 0  2.131304347826087 0.275 0  2.139565217391304 0.275 0  2.147826086956522 0.275 0  2.156086956521739 0.275 0  2.164347826086956 0.275 0  2.172608695652174 0.275 0  2.180869565217391 0.275 0  2.189130434782609 0.275 0  2.197391304347826 0.275 0  2.205652173913043 0.275 0  2.213913043478261 0.275 0  2.222173913043478 0.275 0  2.230434782608695 0.275 0  2.238695652173913 0.275 0  2.24695652173913 0.275 0  2.255217391304348 0.275 0  2.263478260869565 0.275 0  2.271739130434783 0.275 0  2.28 0.275 0  2.288260869565217 0.275 0  2.296521739130434 0.275 0  2.304782608695652 0.275 0  2.31304347826087 0.275 0  2.321304347826087 0.275 0  2.329565217391304 0.275 0  2.337826086956521 0.275 0  2.346086956521739 0.275 0  2.354347826086956 0.275 0  2.362608695652174 0.275 0  2.370869565217391 0.275 0  2.379130434782609 0.275 0  2.387391304347826 0.275 0  2.395652173913044 0.275 0  2.403913043478261 0.275 0  2.412173913043478 0.275 0  2.420434782608695 0.275 0  2.428695652173913 0.275 0  2.43695652173913 0.275 0  2.445217391304348 0.275 0  2.453478260869565 0.275 0  2.461739130434782 0.275 0  2.47 0.275 0  2.478260869565217 0.275 0  2.486521739130435 0.275 0  2.494782608695652 0.275 0  2.503043478260869 0.275 0  2.511304347826087 0.275 0  2.519565217391305 0.275 0  2.527826086956522 0.275 0  2.536086956521739 0.275 0  2.544347826086956 0.275 0  1.916521739130435 0.2833333333333333 0  1.908260869565217 0.2833333333333333 0  1.924782608695652 0.2833333333333333 0  1.933043478260869 0.2833333333333333 0  1.941304347826087 0.2833333333333333 0  1.949565217391304 0.2833333333333333 0  1.957826086956522 0.2833333333333333 0  1.966086956521739 0.2833333333333333 0  1.974347826086956 0.2833333333333333 0  1.982608695652174 0.2833333333333333 0  1.990869565217391 0.2833333333333333 0  1.999130434782608 0.2833333333333333 0  2.007391304347826 0.2833333333333333 0  2.015652173913043 0.2833333333333333 0  2.023913043478261 0.2833333333333333 0  2.032173913043478 0.2833333333333333 0  2.040434782608695 0.2833333333333333 0  2.048695652173913 0.2833333333333333 0  2.05695652173913 0.2833333333333333 0  2.065217391304348 0.2833333333333333 0  2.073478260869565 0.2833333333333333 0  2.081739130434782 0.2833333333333333 0  2.09 0.2833333333333333 0  2.098260869565217 0.2833333333333333 0  2.106521739130435 0.2833333333333333 0  2.114782608695652 0.2833333333333333 0  2.12304347826087 0.2833333333333333 0  2.131304347826087 0.2833333333333333 0  2.139565217391304 0.2833333333333333 0  2.147826086956522 0.2833333333333333 0  2.156086956521739 0.2833333333333333 0  2.164347826086956 0.2833333333333333 0  2.172608695652174 0.2833333333333333 0  2.180869565217391 0.2833333333333333 0  2.189130434782609 0.2833333333333333 0  2.197391304347826 0.2833333333333333 0  2.205652173913043 0.2833333333333333 0  2.213913043478261 0.2833333333333333 0  2.222173913043478 0.2833333333333333 0  2.230434782608695 0.2833333333333333 0  2.238695652173913 0.2833333333333333 0  2.24695652173913 0.2833333333333333 0  2.255217391304348 0.2833333333333333 0  2.263478260869565 0.2833333333333333 0  2.271739130434783 0.2833333333333333 0  2.28 0.2833333333333333 0  2.288260869565217 0.2833333333333333 0  2.296521739130434 0.2833333333333333 0  2.304782608695652 0.2833333333333333 0  2.31304347826087 0.2833333333333333 0  2.321304347826087 0.2833333333333333 0  2.329565217391304 0.2833333333333333 0  2.337826086956521 0.2833333333333333 0  2.346086956521739 0.2833333333333333 0  2.354347826086956 0.2833333333333333 0  2.362608695652174 0.2833333333333333 0  2.370869565217391 0.2833333333333333 0  2.379130434782609 0.2833333333333333 0  2.387391304347826 0.2833333333333333 0  2.395652173913044 0.2833333333333333 0  2.403913043478261 0.2833333333333333 0  2.412173913043478 0.2833333333333333 0  2.420434782608695 0.2833333333333333 0  2.428695652173913 0.2833333333333333 0  2.43695652173913 0.2833333333333333 0  2.445217391304348 0.2833333333333333 0  2.453478260869565 0.2833333333333333 0  2.461739130434782 0.2833333333333333 0  2.47 0.2833333333333333 0  2.478260869565217 0.2833333333333333 0  2.486521739130435 0.283333333333333
[...]
<CellData  Scalars="rho"> 
<DataArray  type="Float64"  Name="rho"  format="ascii">9.9999996504687649e-01   0.0000000000000000e+00   0.0000000000000000e+00   0.0000000000000000e+00   0.0000000000000000e+00   0.0000000000000000e+00   0.0000000000000000e+00   0.0000000000000000e+00   0.0000000000000000e+00   0.0000000000000000e+00   0.0000000000000000e+00   0.0000000000000000e+00   9.9999996999162089e-01   0.0000000000000000e+00   0.0000000000000000e+00   0.0000000000000000e+00   9.9999997412125796e-01   0.0000000000000000e+00   9.9999997498948312e-01   0.0000000000000000e+00   5.6386491477301748e-01   0.0000000000000000e+00   0.0000000000000000e+00   0.0000000000000000e+00   0.0000000000000000e+00   0.0000000000000000e+00   0.0000000000000000e+00   0.0000000000000000e+00   0.0000000000000000e+00   0.0000000000000000e+00   0.0000000000000000e+00   0.0000000000000000e+00   0.0000000000000000e+00   0.0000000000000000e+00   0.0000000000000000e+00   0.0000000000000000e+00   0.0000000000000000e+00   0.0000000000000000e+00   0.0000000000000000e+00   0.0000000000000000e+00   0.0000000000000000e+00   0.0000000000000000e+00   0.0000000000000000e+00   0.0000000000000000e+00   0.0000000000000000e+00   0.0000000000000000e+00   0.0000000000000000e+00   0.0000000000000000e+00   9.9999996889221210e-01   0.0000000000000000e+00   9.9999996519911716e-01   0.0000000000000000e+00   0.0000000000000000e+00   0.0000000000000000e+00   0.0000000000000000e+00   0.0000000000000000e+00   0.0000000000000000e+00   0.0000000000000000e+00   9.9999999407082119e-01   0.0000000000000000e+00   0.0000000000000000e+00   0.0000000000000000e+00   0.0000000000000000e+00   0.0000000000000000e+00   9.9999998639944920e-01   0.0000000000000000e+00   0.0000000000000000e+00   0.0000000000000000e+00   0.0000000000000000e+00   0.0000000000000000e+00   0.0000000000000000e+00   0.0000000000000000e+00   0.0000000000000000e+00   5.7943065616530864e-01   0.0000000000000000e+00   9.9999997733285140e-01   0.0000000000000000e+00   9.9999997722978839e-01   0.0000000000000000e+00   9.9999997653208761e-01   0.0000000000000000e+00   9.9695428312712353e-01   0.0000000000000000e+00   0.0000000000000000e+00   0.0000000000000000e+00   0.0000000000000000e+00   0.0000000000000000e+00   0.0000000000000000e+00   0.0000000000000000e+00   0.0000000000000000e+00   0.0000000000000000e+00   0.0000000000000000e+00   0.0000000000000000e+00   9.9999996724375051e-01   0.0000000000000000e+00   9.9999996511893885e-01   0.0000000000000000e+00   9.9999996557507165e-01   0.0000000000000000e+00   0.0000000000000000e+00   0.0000000000000000e+00   0.0000000000000000e+00   0.0000000000000000e+00   0.0000000000000000e+00   0.0000000000000000e+00   0.0000000000000000e+00   0.0000000000000000e+00   0.0000000000000000e+00   0.0000000000000000e+00   0.0000000000000000e+00   0.0000000000000000e+00   0.0000000000000000e+00   0.0000000000000000e+00   0.0000000000000000e+00   0.0000000000000000e+00   0.0000000000000000e+00   0.0000000000000000e+00   0.0000000000000000e+00   0.0000000000000000e+00   0.0000000000000000e+00   0.0000000000000000e+00   0.0000000000000000e+00   0.0000000000000000e+00   0.0000000000000000e+00   0.0000000000000000e+00   0.0000000000000000e+00   0.0000000000000000e+00   0.0000000000000000e+00   0.0000000000000000e+00   0.0000000000000000e+00   0.0000000000000000e+00   9.9999997145970543e-01   0.0000000000000000e+00   0.0000000000000000e+00   0.0000000000000000e+00   0.0000000000000000e+00   0.0000000000000000e+00   0.0000000000000000e+00   0.0000000000000000e+00   9.9999997370022031e-01   0.0000000000000000e+00   9.9999997438019361e-01   0.0000000000000000e+00   0.0000000000000000e+00   0.0000000000000000e+00   0.0000000000000000e+00   0.0000000000000000e+00   0.0000000000000000e+00   0.0000000000000000e+00   0.0000000000000000e+00   0.0000000000000000e+00   8.4766744243702041e-01   0.0000000000000000e+00   9.9999997956155406e-01   0.0000000000000000e+00   9.9999997023125364e-01   0.0000000000000000e+00   9.9999996885335440e-01   0.0000000000000000e+00   0.0000000000000000e+00   0.0000000000000000e+00   9.9999997177108069e-01   0.0000000000000000e+00   9.9999997324621992e-01   0.0000000000000000e+00   0.0000000000000000e+00   0.0000000000000000e+00   8.9718735099574576e-01   0.0000000000000000e+00   9.9999999033481535e-01   0.0000000000000000e+00   9.9999999789840133e-01   0.0000000000000000e+00   9.9999997126542028e-01   0.0000000000000000e+00   9.9999996687834491e-01   0.0000000000000000e+00   0.0000000000000000e+00   0.0000000000000000e+00   0.0000000000000000e+00   0.0000000000000000e+00   0.0000000000000000e+00   0.0000000000000000e+00   0.0000000000000000e+00   0.0000000000000000e+00   0.0000000000000000e+00   0.0000000000000000e+00   9.9999996963359961e-01   0.0000000000000000e+00   1.0000000000000000e+00   0.0000000000000000e+00   1.0000000000000000e+00   0.0000000000000000e+00   0.0000000000000000e+00   0.0000000000000000e+00   0.0000000000000000e+00   0.0000000000000000e+00   0.0000000000000000e+00   0.0000000000000000e+00   0.0000000000000000e+00   0.0000000000000000e+00   0.0000000000000000e+00   0.0000000000000000e+00   0.0000000000000000e+00   0.0000000000000000e+00   0.0000000000000000e+00   0.0000000000000000e+00   4.0405284417500004e-01   0.0000000000000000e+00   3.7609628658545985e-01   0.0000000000000000e+00   0.0000000000000000e+00   0.0000000000000000e+00   0.0000000000000000e+00   0.0000000000000000e+00   0.0000000000000000e+00   0.0000000000000000e+00   0.0000000000000000e+00   0.0000000000000000e+00   0.0000000000000000e+00   0.0000000000000000e+00   4.8807285845708681e-01   0.0000000000000000e+00   4.2337761398451634e-01   0.0000000000000000e+00   0.0000000000000000e+00   0.0000000000000000e+00   0.0000000000000000e+00   0.0000000000000000e+00   0.0000000000000000e+00   0.0000000000000000e+00   0.0000000000000000e+00   0.0000000000000000e+00   0.0000000000000000e+00   0.0000000000000000e+00   0.0000000000000000e+00   0.0000000000000000e+00   0.0000000000000000e+00   0.0000000000000000e+00   0.0000000000000000e+00   0.0000000000000000e+00   9.9999996504662048e-01   0.0000000000000000e+00   0.0000000000000000e+00   0.0000000000000000e+00   0.0000000000000000e+00   0.0000000000000000e+00   0.0000000000000000e+00   0.0000000000000000e+00   0.0000000000000000e+00   0.0000000000000000e+00   9.9999997100984062e-01   0.0000000000000000e+00   4.4072082406035645e-01   0.0000000000000000e+00   9.9999997569386556e-01   0.0000000000000000e+00   9.9999996623201748e-01   0.0000000000000000e+00   4.6752678989635377e-01   0.0000000000000000e+00   0.0000000000000000e+00   0.0000000000000000e+00   0.0000000000000000e+00   0.0000000000000000e+00   0.0000000000000000e+00   0.0000000000000000e+00   0.0000000000000000e+00   0.0000000000000000e+00   0.0000000000000000e+00   0.0000000000000000e+00   0.0000000000000000e+00   0.0000000000000000e+00   0.0000000000000000e+00   0.0000000000000000e+00   0.0000000000000000e+00   0.0000000000000000e+00   0.0000000000000000e+00   0.0000000000000000e+00   0.0000000000000000e+00   0.0000000000000000e+00   0.0000000000000000e+00   0.0000000000000000e+00   0.0000000000000000e+00   0.0000000000000000e+00   0.0000000000000000e+00   0.0000000000000000e+00   0.0000000000000000e+00   0.0000000000000000e+00   5.6734758547130359e-01   0.0000000000000000e+00   9.9999996642145228e-01   0.0000000000000000e+00   9.9999996642149191e-01   0.0000000000000000e+00   9.9999996642156530e-01   0.0000000000000000e+00   9.9999996642184030e-01   0.0000000000000000e+00   1.0000000000000000e+00   0.0000000000000000e+00   9.9999996827329862e-01   0.0000000000000000e+00   6.9565032831521845e-01   0.0000000000000000e+00   0.0000000000000000e+00   0.0000000000000000e+00   0.0000000000000000e+00   0.0000000000000000e+00   4.4302148993731971e-01   0.0000000000000000e+00   9.9999997120675255e-01   0.0000000000000000e+00   9.9999997511697103e-01   0.0000000000000000e+00   9.9999997358574244e-01   0.0000000000000000e+00   9.9999996836005389e-01   0.0000000000000000e+00   0.0000000000000000e+00   0.0000000000000000e+00   0.0000000000000000e+00   0.0000000000000000e+00   0.0000000000000000e+00   0.0000000000000000e+00   0.0000000000000000e+00   0.0000000000000000e+00   0.0000000000000000e+00   0.0000000000000000e+00   0.0000000000000000e+00   0.0000000000000000e+00   0.0000000000000000e+00   0.0000000000000000e+00   9.9999996594800322e-01   0.0000000000000000e+00   9.9999998002965718e-01   0.0000000000000000e+00   0.0000000000000000e+00   0.0000000000000000e+00   0.0000000000000000e+00   0.0000000000000000e+00   0.0000000000000000e+00   0.0000000000000000e+00   0.0000000000000000e+00   0.0000000000000000e+00   0.0000000000000000e+00   0.0000000000000000e+00   0.0000000000000000e+00   0.0000000000000000e+00   0.0000000000000000e+00   0.0000000000000000e+00   0.0000000000000000e+00   0.0000000000000000e+00   0.0000000000000000e+00   0.0000000000000000e+00   0.0000000000000000e+00   0.0000000000000000e+00   0.0000000000000000e+00   0.0000000000000000e+00   0.0000000000000000e+00   0.0000000000000000e+00   0.0000000000000000e+00   0.0000000000000000e+00   0.0000000000000000e+00   0.0000000000000000e+00   0.0000000000000000e+00   0.0000000000000000e+00   0.0000000000000000e+00   0.0000000000000000e+00   0.0000000000000000e+00   0.0000000000000000e+00   9.9999997145963981e-01   0.0000000000000000e+00   0.0000000000000000e+00   0.0000000000000000e+00   0.0000000000000000e+00   0.0000000000000000e+00   0.0000000000000000e+00   0.0000000000000000e+00   9.9999996593632978e-01   0.0000000000000000e+00   9.9999999000174866e-01   0.0000000000000000e+00   0.0000000000000000e+00   0.0000000000000000e+00   0.0000000000000000e+00   0.0000000000000000e+00   4.6850840927059179e-01   0.0000000000000000e+00   9.9999996827342219e-01   0.0000000000000000e+00   9.9999997165772692e-01   0.0000000000000000e+00   9.9999997212310765e-01   0.0000000000000000e+00   9.9999996883429754e-01   0.0000000000000000e+00   0.0000000000000000e+00   0.0000000000000000e+00   0.0000000000000000e+00   0.0000000000000000e+00   7.6890828294103697e-01   0.0000000000000000e+00   9.9999998579495597e-01   1.0000000000000000e+00   0.0000000000000000e+00   0.0000000000000000e+00   0.0000000000000000e+00   0.0000000000000000e+00   0.0000000000000000e+00   9.9999998197198625e-01   0.0000000000000000e+00   9.9999997384785044e-01   0.0000000000000000e+00   9.9999996891869336e-01   0.0000000000000000e+00   9.9999996644943834e-01   0.0000000000000000e+00   9.9999996641700661e-01   0.0000000000000000e+00   9.9999996732806118e-01   0.0000000000000000e+00   0.0000000000000000e+00   0.0000000000000000e+00   4.7218177059226263e-01   0.0000000000000000e+00   4.5066319414679001e-01   0.0000000000000000e+00   0.0000000000000000e+00   0.0000000000000000e+00   9.9999998041488813e-01   0.0000000000000000e+00   1.0000000000000000e+00   0.0000000000000000e+00   0.0000000000000000e+00   0.0000000000000000e+00   0.0000000000000000e+00   0.0000000000000000e+00   0.0000000000000000e+00   0.0000000000000000e+00   0.0000000000000000e+00   0.0000000000000000e+00   0.0000000000000000e+00   0.0000000000000000e+00   0.0000000000000000e+00   0.0000000000000000e+00   4.4133200755710433e-01   0.0000000000000000e+00   3.7851516455200529e-01   0.0000000000000000e+00   0.0000000000000000e+00   0.0000000000000000e+00   0.0000000000000000e+00   0.0000000000000000e+00   0.0000000000000000e+00   0.0000000000000000e+00   0.0000000000000000e+00   0.0000000000000000e+00   0.0000000000000000e+00   0.0000000000000000e+00   5.3071873448654150e-01   0.0000000000000000e+00   4.0289320764194164e-01   0.0000000000000000e+00   0.0000000000000000e+00   0.0000000000000000e+00   0.0000000000000000e+00   0.0000000000000000e+00   0.0000000000000000e+00   0.0000000000000000e+00   0.0000000000000000e+00   0.0000000000000000e+00   0.0000000000000000e+00   0.0000000000000000e+00   0.0000000000000000e+00   0.0000000000000000e+00   0.0000000000000000e+00   0.0000000000000000e+00   0.0000000000000000e+00   0.0000000000000000e+00   0.0000000000000000e+00   0.0000000000000000e+00   9.9999996504642363e-01   0.0000000000000000e+00   0.0000000000000000e+00   0.0000000000000000e+00   0.0000000000000000e+00   0.0000000000000000e+00   0.0000000000000000e+00   0.0000000000000000e+00   9.9999997317988210e-01   0.0000000000000000e+00   6.0121865739625679e-01   0.0000000000000000e+00   9.9999997289181908e-01   0.0000000000000000e+00   9.2800081352127795e-01   0.0000000000000000e+00   0.0000000000000000e+00   0.0000000000000000e+00   0.0000000000000000e+00   0.0000000000000000e+00   0.0000000000000000e+00   0.0000000000000000e+00   0.0000000000000000e+00   0.0000000000000000e+00   0.0000000000000000e+00   0.0000000000000000e+00   0.0000000000000000e+00   0.0000000000000000e+00   0.0000000000000000e+00   0.0000000000000000e+00   0.0000000000000000e+00   0.0000000000000000e+00   0.0000000000000000e+00   0.0000000000000000e+00   0.0000000000000000e+00   0.0000000000000000e+00   0.0000000000000000e+00   0.0000000000000000e+00   0.0000000000000000e+00   0.0000000000000000e+00   0.0000000000000000e+00   0.0000000000000000e+00   0.0000000000000000e+00   0.0000000000000000e+00   0.0000000000000000e+00   0.0000000000000000e+00   0.0000000000000000e+00   0.0000000000000000e+00   0.0000000000000000e+00   0.0000000000000000e+00   0.0000000000000000e+00   0.0000000000000000e+00   0.0000000000000000e+00   0.0000000000000000e+00   0.0000000000000000e+00   0.0000000000000000e+00   0.0000000000000000e+00   0.0000000000000000e+00   9.9999997895708181e-01   0.0000000000000000e+00   9.9999996594452290e-01   0.0000000000000000e+00   9.9999996540231395e-01   0.0000000000000000e+00   0.0000000000000000e+00   0.0000000000000000e+00   9.9999996921910317e-01   0.0000000000000000e+00   9.9999997918212191e-01   0.0000000000000000e+00   9.9999997817470887e-01   0.0000000000000000e+00   9.9999997507546246e-01   0.0000000000000000e+00   6.0919625519760034e-01   0.0000000000000000e+00   0.0000000000000000e+00   0.0000000000000000e+00   1.0000000000000000e+00   0.0000000000000000e+00   1.0000000000000000e+00   0.0000000000000000e+00   0.0000000000000000e+00   0.0000000000000000e+00   0.0000000000000000e+00   0.0000000000000000e+00   0.0000000000000000e+00   0.0000000000000000e+00   0.0000000000000000e+00   0.0000000000000000e+00   0.0000000000000000e+00   0.0000000000000000e+00   0.0000000000000000e+00   0.0000000000000000e+00   5.1599587013447035e-01   0.0000000000000000e+00   9.9999999585230914e-01   0.0000000000000000e+00   0.0000000000000000e+00   0.0000000000000000e+00   0.0000000000000000e+00   0.0000000000000000e+00   0.0000000000000000e+00   0.0000000000000000e+00   0.0000000000000000e+00   0.0000000000000000e+00   0.0000000000000000e+00   0.0000000000000000e+00   0.0000000000000000e+00   0.0000000000000000e+00   0.0000000000000000e+00   0.0000000000000000e+00   0.0000000000000000e+00   0.0000000000000000e+00   0.0000000000000000e+00   0.0000000000000000e+00   0.0000000000000000e+00   0.0000000000000000e+00   0.0000000000000000e+00   0.0000000000000000e+00   0.0000000000000000e+00   0.0000000000000000e+00   0.0000000000000000e+00   0.0000000000000000e+00   0.0000000000000000e+00   0.0000000000000000e+00   0.0000000000000000e+00   0.0000000000000000e+00   0.0000000000000000e+00   0.0000000000000000e+00   0.0000000000000000e+00   0.0000000000000000e+00   9.9999997145934549e-01   0.0000000000000000e+00   0.0000000000000000e+00   0.0000000000000000e+00   0.0000000000000000e+00   0.0000000000000000e+00   0.0000000000000000e+00   0.0000000000000000e+00   4.7952468879121296e-01   0.0000000000000000e+00   9.9999997974561838e-01   0.0000000000000000e+00   9.9999996760610066e-01   0.0000000000000000e+00   9.9999996895474108e-01   0.0000000000000000e+00   9.9999997015527575e-01   0.0000000000000000e+00   9.9999997146094211e-01   0.0000000000000000e+00   9.9999996832701954e-01   0.0000000000000000e+00   0.0000000000000000e+00   0.0000000000000000e+00   9.9999996850468142e-01   0.0000000000000000e+00   0.0000000000000000e+00   0.0000000000000000e+00   0.0000000000000000e+00   0.0000000000000000e+00   4.4270964572454202e-01   0.0000000000000000e+00   9.9999998738731188e-01   0.0000000000000000e+00   5.5208207048579461e-01   0.0000000000000000e+00   0.0000000000000000e+00   0.0000000000000000e+00   9.9999997648586592e-01   0.0000000000000000e+00   9.9999997181739775e-01   0.0000000000000000e+00   9.9999997035929544e-01   0.0000000000000000e+00   9.9999996602062047e-01   0.0000000000000000e+00   0.0000000000000000e+00   0.0000000000000000e+00   9.9999996723410967e-01   0.0000000000000000e+00   4.0323795520041478e-01   0.0000000000000000e+00   3.9956220866339942e-01   0.0000000000000000e+00   0.0000000000000000e+00   0.0000000000000000e+00   0.0000000000000000e+00   0.0000000000000000e+00   5.8899580777740623e-01   0.0000000000000000e+00   1.0000000000000000e+00   0.0000000000000000e+00   9.9999997257143802e-01   0.0000000000000000e+00   0.0000000000000000e+00   0.0000000000000000e+00   0.0000000000000000e+00   0.0000000000000000e+00   0.0000000000000000e+00   0.0000000000000000e+00   4.0009896063268491e-01   0.0000000000000000e+00   4.1890994174999852e-01   0.0000000000000000e+00   4.1144084079706933e-01   0.0000000000000000e+00   0.0000000000000000e+00   0.0000000000000000e+00   0.0000000000000000e+00   0.0000000000000000e+00   0.0000000000000000e+00   0.0000000000000000e+00   0.0000000000000000e+00   0.0000000000000000e+00   3.7943785563399635e-01   0.0000000000000000e+00   5.0796175107247177e-01   0.0000000000000000e+00   3.8035332346345907e-01   0.0000000000000000e+00   0.0000000000000000e+00   0.0000000000000000e+00   0.0000000000000000e+00   0.0000000000000000e+00   0.0000000000000000e+00   0.0000000000000000e+00   0.0000000000000000e+00   0.0000000000000000e+00   0.0000000000000000e+00   0.0000000000000000e+00   0.0000000000000000e+00   0.0000000000000000e+00   0.0000000000000000e+00   0.0000000000000000e+00   1.0000000000000000e+00   1.0000000000000000e+00   0.0000000000000000e+00   1.0000000000000000e+00   0.0000000000000000e+00   0.0000000000000000e+00   0.0000000000000000e+00   0.0000000000000000e+00   0.0000000000000000e+00   9.9999996494378984e-01   0.0000000000000000e+00   3.9362162004600565e-01   0.0000000000000000e+00   4.0170802202560935e-01   0.0000000000000000e+00   9.9999997260628648e-01   0.0000000000000000e+00   7.8832295564103450e-01   0.0000000000000000e+00   9.9999996795207291e-01   0.0000000000000000e+00   5.0364876017549909e-01   0.0000000000000000e+00   0.0000000000000000e+00   0.0000000000000000e+00   0.0000000000000000e+00   0.0000000000000000e+00   0.0000000000000000e+00   0.0000000000000000e+00   0.0000000000000000e+00   0.0000000000000000e+00   0.0000000000000000e+00   0.0000000000000000e+00   0.0000000000000000e+00   0.0000000000000000e+00   0.0000000000000000e+00   0.0000000000000000e+00   0.0000000000000000e+00   0.0000000000000000e+00   0.0000000000000000e+00   0.0000000000000000e+00   0.0000000000000000e+00   0.0000000000000000e+00   0.0000000000000000e+00   0.0000000000000000e+00   0.0000000000000000e+00   0.0000000000000000e+00   0.0000000000000000e+00   0.0000000000000000e+00   0.0000000000000000e+00   0.0000000000000000e+00   0.0000000000000000e+00   0.0000000000000000e+00   0.0000000000000000e+00   0.0000000000000000e+00   0.0000000000000000e+00   0.0000000000000000e+00   0.0000000000000000e+00   0.0000000000000000e+00   0.0000000000000000e+00   0.0000000000000000e+00   0.0000000000000000e+00   0.0000000000000000e+00   0.0000000000000000e+00   0.0000000000000000e+00   0.0000000000000000e+00   0.0000000000000000e+00   9.9999998073102747e-01   0.0000000000000000e+00   0.0000000000000000e+00   0.0000000000000000e+00   8.4334484509061736e-01   9.9999997756452863e-01   0.0000000000000000e+00   9.9999997924180051e-01   0.0000000000000000e+00   9.9999998160483738e-01   0.0000000000000000e+00   9.9999996581864392