<?xml version="1.0"?>
<VTKFile type="UnstructuredGrid"  version="0.1"  >
<UnstructuredGrid>
<Piece  NumberOfPoints="2417" NumberOfCells="4636">
<Points>
<DataArray  type="Float64"  NumberOfComponents="3"  format="ascii">2.610434782608696 0 0  2.618695652173913 0 0  2.618695652173913 0.008333333333333333 0  2.610434782608696 0.008333333333333333 0  2.62695652173913 0 0  2.62695652173913 0.008333333333333333 0  2.635217391304348 0 0  2.635217391304348 0.008333333333333333 0  2.643478260869565 0 0  2.643478260869565 0.008333333333333333 0  2.651739130434783 0 0  2.651739130434783 0.008333333333333333 0  2.66 0 0  2.66 0.008333333333333333 0  2.668260869565217 0 0  2.668260869565217 0.008333333333333333 0  2.676521739130435 0 0  2.676521739130435 0.008333333333333333 0  2.684782608695652 0 0  2.684782608695652 0.008333333333333333 0  2.693043478260869 0 0  2.693043478260869 0.008333333333333333 0  2.701304347826087 0 0  2.701304347826087 0.008333333333333333 0  2.709565217391304 0 0  2.709565217391304 0.008333333333333333 0  2.717826086956522 0 0  2.717826086956522 0.008333333333333333 0  2.726086956521739 0 0  2.726086956521739 0.008333333333333333 0  2.734347826086956 0 0  2.734347826086956 0.008333333333333333 0  2.742608695652174 0 0  2.742608695652174 0.008333333333333333 0  2.750869565217391 0 0  2.750869565217391 0.008333333333333333 0  2.759130434782609 0 0  2.759130434782609 0.008333333333333333 0  2.767391304347826 0 0  2.767391304347826 0.008333333333333333 0  2.775652173913044 0 0  2.775652173913044 0.008333333333333333 0  2.783913043478261 0 0  2.783913043478261 0.008333333333333333 0  2.792173913043478 0 0  2.792173913043478 0.008333333333333333 0  2.800434782608696 0 0  2.800434782608696 0.008333333333333333 0  2.808695652173913 0 0  2.808695652173913 0.008333333333333333 0  2.81695652173913 0 0  2.81695652173913 0.008333333333333333 0  2.825217391304347 0 0  2.825217391304347 0.008333333333333333 0  2.833478260869565 0 0  2.833478260869565 0.008333333333333333 0  2.841739130434783 0 0  2.841739130434783 0.008333333333333333 0  2.85 0 0  2.85 0.008333333333333333 0  2.858260869565217 0 0  2.858260869565217 0.008333333333333333 0  2.866521739130435 0 0  2.866521739130435 0.008333333333333333 0  2.874782608695652 0 0  2.874782608695652 0.008333333333333333 0  2.88304347826087 0 0  2.88304347826087 0.008333333333333333 0  2.891304347826087 0 0  2.891304347826087 0.008333333333333333 0  2.899565217391304 0 0  2.899565217391304 0.008333333333333333 0  2.907826086956522 0 0  2.907826086956522 0.008333333333333333 0  2.916086956521739 0 0  2.916086956521739 0.008333333333333333 0  2.924347826086957 0 0  2.924347826086957 0.008333333333333333 0  2.618695652173913 0.01666666666666667 0  2.610434782608696 0.01666666666666667 0  2.62695652173913 0.01666666666666667 0  2.635217391304348 0.01666666666666667 0  2.643478260869565 0.01666666666666667 0  2.651739130434783 0.01666666666666667 0  2.66 0.01666666666666667 0  2.668260869565217 0.01666666666666667 0  2.676521739130435 0.01666666666666667 0  2.684782608695652 0.01666666666666667 0  2.693043478260869 0.01666666666666667 0  2.701304347826087 0.01666666666666667 0  2.709565217391304 0.01666666666666667 0  2.717826086956522 0.01666666666666667 0  2.726086956521739 0.01666666666666667 0  2.734347826086956 0.01666666666666667 0  2.742608695652174 0.01666666666666667 0  2.750869565217391 0.01666666666666667 0  2.759130434782609 0.01666666666666667 0  2.767391304347826 0.01666666666666667 0  2.775652173913044 0.01666666666666667 0  2.783913043478261 0.01666666666666667 0  2.792173913043478 0.01666666666666667 0  2.800434782608696 0.01666666666666667 0  2.808695652173913 0.01666666666666667 0  2.81695652173913 0.01666666666666667 0  2.825217391304347 0.01666666666666667 0  2.833478260869565 0.01666666666666667 0  2.841739130434783 0.01666666666666667 0  2.85 0.01666666666666667 0  2.858260869565217 0.01666666666666667 0  2.866521739130435 0.01666666666666667 0  2.874782608695652 0.01666666666666667 0  2.88304347826087 0.01666666666666667 0  2.891304347826087 0.01666666666666667 0  2.899565217391304 0.01666666666666667 0  2.907826086956522 0.01666666666666667 0  2.916086956521739 0.01666666666666667 0  2.924347826086957 0.01666666666666667 0  2.932608695652174 0.01666666666666667 0  2.618695652173913 0.025 0  2.62695652173913 0.025 0  2.635217391304348 0.025 0  2.643478260869565 0.025 0  2.651739130434783 0.025 0  2.66 0.025 0  2.668260869565217 0.025 0  2.676521739130435 0.025 0  2.684782608695652 0.025 0  2.693043478260869 0.025 0  2.701304347826087 0.025 0  2.709565217391304 0.025 0  2.717826086956522 0.025 0  2.726086956521739 0.025 0  2.734347826086956 0.025 0  2.742608695652174 0.025 0  2.750869565217391 0.025 0  2.759130434782609 0.025 0  2.767391304347826 0.025 0  2.775652173913044 0.025 0  2.783913043478261 0.025 0  2.792173913043478 0.025 0  2.800434782608696 0.025 0  2.808695652173913 0.025 0  2.81695652173913 0.025 0  2.825217391304347 0.025 0  2.833478260869565 0.025 0  2.841739130434783 0.025 0  2.85 0.025 0  2.858260869565217 0.025 0  2.866521739130435 0.025 0  2.874782608695652 0.025 0  2.88304347826087 0.025 0  2.891304347826087 0.025 0  2.899565217391304 0.025 0  2.907826086956522 0.025 0  2.916086956521739 0.025 0  2.924347826086957 0.025 0  2.932608695652174 0.025 0  2.940869565217391 0.025 0  2.62695652173913 0.03333333333333333 0  2.635217391304348 0.03333333333333333 0  2.643478260869565 0.03333333333333333 0  2.651739130434783 0.03333333333333333 0  2.66 0.03333333333333333 0  2.668260869565217 0.03333333333333333 0  2.676521739130435 0.03333333333333333 0  2.684782608695652 0.03333333333333333 0  2.693043478260869 0.03333333333333333 0  2.701304347826087 0.03333333333333333 0  2.709565217391304 0.03333333333333333 0  2.717826086956522 0.03333333333333333 0  2.726086956521739 0.03333333333333333 0  2.734347826086956 0.03333333333333333 0  2.742608695652174 0.03333333333333333 0  2.750869565217391 0.03333333333333333 0  2.759130434782609 0.03333333333333333 0  2.767391304347826 0.03333333333333333 0  2.775652173913044 0.03333333333333333 0  2.783913043478261 0.03333333333333333 0  2.792173913043478 0.03333333333333333 0  2.800434782608696 0.03333333333333333 0  2.808695652173913 0.03333333333333333 0  2.81695652173913 0.03333333333333333 0  2.825217391304347 0.03333333333333333 0  2.833478260869565 0.03333333333333333 0  2.841739130434783 0.03333333333333333 0  2.85 0.03333333333333333 0  2.858260869565217 0.03333333333333333 0  2.866521739130435 0.03333333333333333 0  2.874782608695652 0.03333333333333333 0  2.88304347826087 0.03333333333333333 0  2.891304347826087 0.03333333333333333 0  2.899565217391304 0.03333333333333333 0  2.907826086956522 0.03333333333333333 0  2.916086956521739 0.03333333333333333 0  2.924347826086957 0.03333333333333333 0  2.932608695652174 0.03333333333333333 0  2.940869565217391 0.03333333333333333 0  2.949130434782608 0.03333333333333333 0  2.635217391304348 0.04166666666666666 0  2.643478260869565 0.04166666666666666 0  2.651739130434783 0.04166666666666666 0  2.66 0.04166666666666666 0  2.668260869565217 0.04166666666666666 0  2.676521739130435 0.04166666666666666 0  2.684782608695652 0.04166666666666666 0  2.693043478260869 0.04166666666666666 0  2.701304347826087 0.04166666666666666 0  2.709565217391304 0.04166666666666666 0  2.717826086956522 0.04166666666666666 0  2.726086956521739 0.04166666666666666 0  2.734347826086956 0.04166666666666666 0  2.742608695652174 0.04166666666666666 0  2.750869565217391 0.04166666666666666 0  2.759130434782609 0.04166666666666666 0  2.767391304347826 0.04166666666666666 0  2.775652173913044 0.04166666666666666 0  2.783913043478261 0.04166666666666666 0  2.792173913043478 0.04166666666666666 0  2.800434782608696 0.04166666666666666 0  2.808695652173913 0.04166666666666666 0  2.81695652173913 0.04166666666666666 0  2.825217391304347 0.04166666666666666 0  2.833478260869565 0.04166666666666666 0  2.841739130434783 0.04166666666666666 0  2.85 0.04166666666666666 0  2.858260869565217 0.04166666666666666 0  2.866521739130435 0.04166666666666666 0  2.874782608695652 0.04166666666666666 0  2.88304347826087 0.04166666666666666 0  2.891304347826087 0.04166666666666666 0  2.899565217391304 0.04166666666666666 0  2.907826086956522 0.04166666666666666 0  2.916086956521739 0.04166666666666666 0  2.924347826086957 0.04166666666666666 0  2.932608695652174 0.04166666666666666 0  2.940869565217391 0.04166666666666666 0  2.949130434782608 0.04166666666666666 0  2.957391304347826 0.04166666666666666 0  2.643478260869565 0.05 0  2.651739130434783 0.05 0  2.66 0.05 0  2.668260869565217 0.05 0  2.676521739130435 0.05 0  2.684782608695652 0.05 0  2.693043478260869 0.05 0  2.701304347826087 0.05 0  2.709565217391304 0.05 0  2.717826086956522 0.05 0  2.726086956521739 0.05 0  2.734347826086956 0.05 0  2.742608695652174 0.05 0  2.750869565217391 0.05 0  2.759130434782609 0.05 0  2.767391304347826 0.05 0  2.775652173913044 0.05 0  2.783913043478261 0.05 0  2.792173913043478 0.05 0  2.800434782608696 0.05 0  2.808695652173913 0.05 0  2.81695652173913 0.05 0  2.825217391304347 0.05 0  2.833478260869565 0.05 0  2.841739130434783 0.05 0  2.85 0.05 0  2.858260869565217 0.05 0  2.866521739130435 0.05 0  2.874782608695652 0.05 0  2.88304347826087 0.05 0  2.891304347826087 0.05 0  2.899565217391304 0.05 0  2.907826086956522 0.05 0  2.916086956521739 0.05 0  2.924347826086957 0.05 0  2.932608695652174 0.05 0  2.940869565217391 0.05 0  2.949130434782608 0.05 0  2.957391304347826 0.05 0  2.965652173913043 0.05 0  2.651739130434783 0.05833333333333333 0  2.66 0.05833333333333333 0  2.668260869565217 0.05833333333333333 0  2.676521739130435 0.05833333333333333 0  2.684782608695652 0.05833333333333333 0  2.693043478260869 0.05833333333333333 0  2.701304347826087 0.05833333333333333 0  2.709565217391304 0.05833333333333333 0  2.717826086956522 0.05833333333333333 0  2.726086956521739 0.05833333333333333 0  2.7343478
[...]
<CellData  Scalars="rho_bar"> 
<DataArray  type="Float64"  Name="rho_bar"  format="ascii">2.7470783555557815e-01   2.7146319285197146e-01   2.7431624482531641e-01   2.7108070179302601e-01   2.7392215941681763e-01   2.7069839096881027e-01   2.7352982557002137e-01   2.7031498274361265e-01   2.7313472002592831e-01   2.6993214963833284e-01   2.7274111803296991e-01   2.6954895505453547e-01   2.7234537173014634e-01   2.6916480925817055e-01   2.7194997369982365e-01   2.6877994050256143e-01   2.7155321688774559e-01   2.6839560194445744e-01   2.7115719118235215e-01   2.6800975432506641e-01   2.7076001453271820e-01   2.6762481067181210e-01   2.7036294730422716e-01   2.6723924507626479e-01   2.6996512639514120e-01   2.6685346996475373e-01   2.6956782533021162e-01   2.6646685687863536e-01   2.6916888154829732e-01   2.6608058169557930e-01   2.6877130216503448e-01   2.6569358839947005e-01   2.6837173210690490e-01   2.6530688466219671e-01   2.2458712848309428e-01   2.2513483866838255e-01   2.2427259548790360e-01   2.2480242700758468e-01   2.2395926269207508e-01   2.2447279852073004e-01   2.2364805245469321e-01   2.2414608259127985e-01   2.2333944112439116e-01   2.2381938971866233e-01   2.2303240132713037e-01   2.2349558864778482e-01   2.2272610295652431e-01   2.2317322157527303e-01   2.2242209982673675e-01   2.2285128042943098e-01   2.2211992893609991e-01   2.2253237467789300e-01   2.2181921371901386e-01   2.2221622180762282e-01   2.2152148924852597e-01   2.2190041668048635e-01   2.2122576223991106e-01   2.2158948186652763e-01   2.2093136256142218e-01   2.2127866309238270e-01   2.2063930399118017e-01   2.2096901167998664e-01   2.2034983922860932e-01   2.2066204426346922e-01   2.2006086809352152e-01   2.2035758354407770e-01   2.1977455624149753e-01   2.2005367222520772e-01   2.1949107693341136e-01   2.1975359733375638e-01   2.1920769841599583e-01   2.1945468803058263e-01   2.1892840079945461e-01   2.1915740143863344e-01   2.1865118985748058e-01   2.1886303110835695e-01   2.6797270253748295e-01   2.6492000613250494e-01   2.6757259283276746e-01   2.6453230438716147e-01   2.6717211676498476e-01   2.6414431155314549e-01   2.6677101026653283e-01   2.6375659341287677e-01   2.6637114830877640e-01   2.6336841675154027e-01   2.6596942592102119e-01   2.6298037715022798e-01   2.6556946415639554e-01   2.6259249626018155e-01   2.6516723986681029e-01   2.6220392298204787e-01   2.6476669524229557e-01   2.6181460946898516e-01   2.6436350271934106e-01   2.6142607915647031e-01   2.6396249941212302e-01   2.6103651247808513e-01   2.6355899575073438e-01   2.6064780639278862e-01   2.6315764488997645e-01   2.6025857067142477e-01   2.6275380250008262e-01   2.5986889421916831e-01   2.6235110826587466e-01   2.5947852093761242e-01   2.6194662328405782e-01   2.5908915190921977e-01   2.6154348509312997e-01   2.5869933170283693e-01   2.1837557172611052e-01   2.1857229178556628e-01   2.1810244634498649e-01   2.1828237057703301e-01   2.1783230126060826e-01   2.1799539840319948e-01   2.1756354340262590e-01   2.1771057683524922e-01   2.1729787644624857e-01   2.1742888490242571e-01   2.1703461069907876e-01   2.1714899744864205e-01   2.1677437044596778e-01   2.1687397104789410e-01   2.1651722239435500e-01   2.1659978266813185e-01   2.1626371058255203e-01   2.1633031634998268e-01   2.1601063847210628e-01   2.1606370344986431e-01   2.1576328233394518e-01   2.1580109197557681e-01   2.1551803480678172e-01   2.1554215817531294e-01   2.1527677992685271e-01   2.1528692500280794e-01   2.1503965685905146e-01   2.1503543104345960e-01   2.1480631676940090e-01   2.1478860677164904e-01   2.1457609834488553e-01   2.1454677343984696e-01   2.1435149503361450e-01   2.1431041198540762e-01   2.1413171235161321e-01   2.1407971549975105e-01   2.1391657175356629e-01   2.1385429852766979e-01   2.1370695487514110e-01   2.1363332695758458e-01   2.1350190197369953e-01   2.1341855796069262e-01   2.1330179682964298e-01   2.6113912871924772e-01   2.5830980236724549e-01   2.6073589867943425e-01   2.5792077501263533e-01   2.6033122131165931e-01   2.5753077772714789e-01   2.5992825459423746e-01   2.5714056165251931e-01   2.5952275289505733e-01   2.5675095783493973e-01   2.5912041931945040e-01   2.5636110298787601e-01   2.5871513116522493e-01   2.5597202160175964e-01   2.5831213914662360e-01   2.5558284395523212e-01   2.5790708200630019e-01   2.5519335755674744e-01   2.5750288121029435e-01   2.5480269391633997e-01   2.5709744261476020e-01   2.5441374416050960e-01   2.5669426015353475e-01   2.5402384934786498e-01   2.5628927325012324e-01   2.5363553709550163e-01   2.5588541876996501e-01   2.5324656690483199e-01   2.5548103791041116e-01   2.5285814813409979e-01   2.5507653902149052e-01   2.5246885834495453e-01   2.5467227574067464e-01   2.1321044626960384e-01   2.5208096146902975e-01   2.1310793510365392e-01   2.1300934717975800e-01   2.1292044255104892e-01   2.1281551684954567e-01   2.1273903920219284e-01   2.1262868994664269e-01   2.1256418597373120e-01   2.1244818310732377e-01   2.1239550130762835e-01   2.1227536782236389e-01   2.1223358970780942e-01   2.1211015579638950e-01   2.1207834272657586e-01   2.1195345366423432e-01   2.1193069283519989e-01   2.1180471665708742e-01   2.1178979175226498e-01   2.1166404538167366e-01   2.1165607393734218e-01   2.1153060545293606e-01   2.1152933388259831e-01   2.1140534261011959e-01   2.1140953635448673e-01   2.1128790955897103e-01   2.1129701404995246e-01   2.1117884379270596e-01   2.1119129057386105e-01   2.1107766895058486e-01   2.1109283782494428e-01   2.1098395967032049e-01   2.1100105364190561e-01   2.1089639200889590e-01   2.1091543057260495e-01   2.1081597712054598e-01   2.1083559506803329e-01   2.1074178901357873e-01   2.1076179958518432e-01   2.1067391083934101e-01   2.1069354418303585e-01   2.1061145559092864e-01   2.1063057969454499e-01   2.1055430720395787e-01   2.1057222201114387e-01   2.5426924095804293e-01   2.5169253020840526e-01   2.5386507669064057e-01   2.5130527810524628e-01   2.5346238851469965e-01   2.5091773507772391e-01   2.5305841969245613e-01   2.5053073721191615e-01   2.5265575751373437e-01   2.5014290838495512e-01   2.5225211980981188e-01   2.4975691566713420e-01   2.5185051009625736e-01   2.4937018442861805e-01   2.5144770800469290e-01   2.4898498048281920e-01   2.5104601645878150e-01   2.4859939183571228e-01   2.5064387569621566e-01   2.4821455879179150e-01   2.5024238072582594e-01   2.4782871764102998e-01   2.4984047990204394e-01   2.4744478774784490e-01   2.4944104190535873e-01   2.4706047459639693e-01   2.4903994249030073e-01   2.4667747611482668e-01   2.4864046728213127e-01   2.4629461344509276e-01   2.4824027128655676e-01   2.4591192215997393e-01   2.4784041024340317e-01   2.1050133028306997e-01   2.1051842974554685e-01   2.1045255826347098e-01   2.1046817885469368e-01   2.1040714419315590e-01   2.1042170256435538e-01   2.1036482958635291e-01   2.1037821968144016e-01   2.1032519487744455e-01   2.1033764332851604e-01   2.1028771478761435e-01   2.1029935694295157e-01   2.1025205636801841e-01   2.1026317937612934e-01   2.1021782948781684e-01   2.1022858778181122e-01   2.1018473419801789e-01   2.1019535230205133e-01   2.1015246080440977e-01   2.1016306786458006e-01   2.1012064201947939e-01   2.1013129843912093e-01   2.1008900985240880e-01   2.1009969751510718e-01   2.1005747950526757e-01   2.1006800134232181e-01   2.4162150886131178e-01   2.3988988136748446e-01   2.4123450651492817e-01   2.3952158043032309e-01   2.4084984007205065e-01   2.3915462033810436e-01   2.4046456153923226e-01   2.3878929279811373e-01   2.4008324506912673e-01   2.3842362320383381e-01   2.3970145637854531e-01   2.3806042408806111e-01   2.3931967989551023e-01   2.3769789593494725e-01   2.3894028299929024e-01   2.3733598824114299e-01   2.3856145002932896e-01   2.3697587410121079e-01   2.3818363602813489e-01   2.4552913368923082e-01   2.4744071114990079e-01   2.4514789485807575e-01   2.4704320583309158e-01   2.4476681210410606e-01   2.4664483364000289e-01   2.4438692393438907e-01   2.4624847862987376e-01   2.4400782647567903e-01   2.4585130458424206e-01   2.4362898595023882e-01   2.4545563916553956e-01   2.4324997094505890e-01   2.4505915162135930e-01   2.4287234053329884e-01   2.4466465952879568e-01   2.4249497820899077e-01   2.4426930728676541e-01   2.4211900923092500e-01   2.4387666441444719e-01   2.4174345838258190e-01   2.4348287207777006e-01   2.4136917244091363e-01   2.4309111049689278e-01   2.4099443827482403e-01   2.4269885306914790e-01   2.4062197999667373e-01   2.4230792298835169e-01   2.4024881649018251e-01   2.4191745792138833e-01   2.3987775706598513e-01   2.3661655740376936e-01   2.3780722063932128e-01   2.3625863442611722e-01   2.3743212699629984e-01   2.3590178121406075e-01   2.3705647624863560e-01   2.3554579159674868e-01   2.3668359541051320e-01   2.3519064634331072e-01   2.3631181164952350e-01   2.3483723088534195e-01   2.3594092735486560e-01   2.3448519593566258e-01   2.3557162394646200e-01   2.3413501147684873e-01   2.3520411961549856e-01   2.3378553584336248e-01   2.3483642307693087e-01   2.3343759071350381e-01   2.3447157706530455e-01   2.3309047794993787e-01   2.3410871582300377e-01   2.3274598338258423e-01   2.3374563033555221e-01   2.3240225810983170e-01   2.3338470727908697e-01   2.3205962894683288e-01   2.3302557986188821e-01   2.3171896483893409e-01   2.3266582243158429e-01   2.3137910784312724e-01   2.3230974922363579e-01   2.3104088907222944e-01   2.3195474951472289e-01   2.3070474059802484e-01   2.3160103403886323e-01   2.3037007298374668e-01   2.3124995693480763e-01   2.3003702792481659e-01   2.3090034788160549e-01   2.2970599540938552e-01   2.3055000581722854e-01   2.2937586687176559e-01   2.3020348764139878e-01   2.2904720950805049e-01   2.2985838715927229e-01   2.2872092606724473e-01   2.4152852624821167e-01   2.3950806333699814e-01   2.4114021124280496e-01   2.3913933388812175e-01   2.4075311137990174e-01   2.3876946251681988e-01   2.4036685152676457e-01   2.8200915140130850e-01   2.8501327531264148e-01   2.8162697531025188e-01   2.8462259767468734e-01   2.8124339475305882e-01   2.8423279705616866e-01   2.8086026082355814e-01   2.8383937307012064e-01   2.8047499153280669e-01   2.8344523218584844e-01   2.8009014052173165e-01   2.8305170207948205e-01   2.7970482622825671e-01   2.8265823132587531e-01   2.7931851764425558e-01   2.8226413775209175e-01   2.7893261530304392e-01   2.8186640163641757e-01   2.7854449744433274e-01   2.8147048782579137e-01   2.7815939625865921e-01   2.8107253842869645e-01   2.2951466767055143e-01   2.2839599821044923e-01   2.2917264704333370e-01   2.2807249637603313e-01   2.2883323378389672e-01   2.2775129914163933e-01   2.2849253223368349e-01   2.2743088381532034e-01   2.2815632829973351e-01   2.2711223844711098e-01   2.2782088181624091e-01   2.2679519833894285e-01   2.2748714355222172e-01   2.2648027647041338e-01   2.2715600322337731e-01   2.2616737812058285e-01   2.2682692543604605e-01   2.2585663032757833e-01   2.2649815301814272e-01   2.2554808491291869e-01   2.2617259906117934e-01   2.2524020631938677e-01   2.2584922335202792e-01   2.2493450832701545e-01   2.2552651660254042e-01   2.2463097324482134e-01   2.2520586703764697e-01   2.2432910458491206e-01   2.2488798522411005e-01   2.2402944190403651e-01   2.2457020572807174e-01   2.2373159208492024e-01   2.2425610917530020e-01   2.2343489845886541e-01   2.2394327226195532e-01   2.2314104930801312e-01   2.2363248100966956e-01   2.2284825460215602e-01   2.2332435948417056e-01   2.2255886651213755e-01   2.2301779376136777e-01   2.2227047546967937e-01   2.2271201228372228e-01   2.2198389266166998e-01   2.2240856049799770e-01   2.2169828707461012e-01   2.2210692166717552e-01   2.2141422177213174e-01   2.2180674572866779e-01   2.7777052737663854e-01   2.8067663534697024e-01   2.7738222369351589e-01   2.8027970806726260e-01   2.7699311460538184e-01   2.7988138434125853e-01   2.7660163840908086e-01   2.7947908167779123e-01   2.7621118121285620e-01   2.7907911446411310e-01   2.7582022647734555e-01   2.7867676725121815e-01   2.7542875187394356e-01   2.7827628812118954e-01   2.7503749685976125e-01   2.7787540133922090e-01   2.7464462625915520e-01   2.7747322927267049e-01   2.7425286713987096e-01   2.7706864577135415e-01   2.7385865851582814e-01   2.7666554289569945e-01   2.7346616617404740e-01   2.7626036090329487e-01   2.7307093886421047e-01   2.7585668015953613e-01   2.7267719091235465e-01   2.2113287850744578e-01   2.2150961734028438e-01   2.2085427783232803e-01   2.2121448953124970e-01   2.2057752360497090e-01   2.2092069903475148e-01   2.2030239698987239e-01   2.2062932656771519e-01   2.2002898567203349e-01   2.2034054466029152e-01   2.1975806512541737e-01   2.2005229144418625e-01   2.1948913369069495e-01   2.1976672092736801e-01   2.1922143349277154e-01   2.1948399277242295e-01   2.1895661833057034e-01   2.1920146168261079e-01   2.1869426593489213e-01   2.1892306303341824e-01   2.1843313312598409e-01   2.1864683149038855e-01   2.1817579654575470e-01   2.1837210483311348e-01   2.1791913619971864e-01   2.1809996470302059e-01   2.1766564264972557e-01   2.1783084127013547e-01   2.1741418494369691e-01   2.1756316456894539e-01   2.1716546150169272e-01   2.1729861875528281e-01   2.1691861639620183e-01   2.1703655111870082e-01   2.1667501029537162e-01   2.1677753033873615e-01   2.1643372380667822e-01   2.1652165763333639e-01   2.1619577740971463e-01   2.1626937065615565e-01   2.1596043893742342e-01   2.1601763284463446e-01   2.1572807036920347e-01   2.1577168282528950e-01   2.1549846699893549e-01   2.1552790230226201e-01   2.1527257680495582e-01   2.1528818051005150e-01   2.1504940676091217e-01   2.1505259178759356e-01   2.1483008153147312e-01   2.7545150313222044e-01   2.7228130466859063e-01   2.7504626530006937e-01   2.7188576419328042e-01   2.7463782232405826e-01   2.7148887023309715e-01   2.7423131310329829e-01   2.7109269214007753e-01   2.7382209078385855e-01   2.7069539131376974e-01   2.7341466527474645e-01   2.7029817385486465e-01   2.7300709365329562e-01   2.6990018534224697e-01   2.7259824132248694e-01   2.6950271420388627e-01   2.7218856309755768e-01   2.6910365207258730e-01   2.7177849704331736e-01   2.6870591805406319e-01   2.7136787636451676e-01   2.6830624824824850e-01   2.7095755616132994e-01   2.6790706829854855e-01   2.7054707298734337e-01   2.1482079294157480e-01   2.6750683134782610e-01   2.1461486564938659e-01   2.1459218725937612e-01   2.1440311506007256e-01   2.1436929466196547e-01   2.1419603326488243e-01   2.1415115345219221e-01   2.1399281243488089e-01   2.1393763623020584e-01   2.1379412139623610e-01   2.1372966570237556e-01   2.1360056068468747e-01   2.1352624463868317e-01   2.1341123385879862e-01   2.1332782369390485e-01   2.1322697273158719e-01   2.1313555505903012e-01   2.1304731379572159e-01   2.1294960072999561e-01   2.1287354898956740e-01   2.1276958773885241e-01   2.1270490345528284e-01   2.1259603783916106e-01   2.1254215062827836e-01   2.1242856918753950e-01   2.1238496617007360e-01   2.1226783809886451e-01   2.1223396836184794e-01   2.1211353008481260e-01   2.1208839328829640e-01   2.1196667549910653e-01   2.1194944293675011e-01   2.1182625486691167e-01   2.1181591959265614e-01   2.1169276711293769e-01   2.1168858617897471e-01   2.1156602684698494e-01   2.1156718250621420e-01   2.1144601373462357e-01   2.1145204255132122e-01   2.1133293410032994e-01   2.1134270204301753e-01   2.1122638871801705e-01   2.1123965909456019e-01   2.1112675063624328e-01   2.1114192521314540e-01   2.1103335724189967e-01   2.1105022145343846e-01   2.1094584609844225e-01   2.1096369535222076e-01   2.1086384189482571e-01   2.1088269458225067e-01   2.7013561861869112e-01   2.6710621966935794e-01   2.6972173611731592e-01   2.6670496467779986e-01   2.6930945175060678e-01   2.6630495430079792e-01   2.6889468231816088e-01   2.6590311628848762e-01   2.6848192300647883e-01   2.6550301124970904e-01   2.6806948020197702e-01   2.6510063721034388e-01   2.6765577523968109e-01   2.6469994960682464e-01   2.6724119841992111e-01   2.6429662661092246e-01   2.6682663071956297e-01   2.6389549656685690e-01   2.6641055336020897e-01   2.6349188121728123e-01   2.6599588266116408e-01   2.6309040951442131e-01   2.6558085066163439e-01   2.6268644454944079e-01   2.6516545916053141e-01   2.1078754761462354e-01   2.6228363060035426e-01   2.1080627598260812e-01   2.1071652956365827e-01   2.1073510672399548e-01   2.1065049922425519e-01   2.1066828973889601e-01   2.1058883257299857e-01   2.1060594766648777e-01   2.1053164833290713e-01   2.1054765560241950e-01   2.1047792646883021e-01   2.1049308311185397e-01   2.1042806401841530e-01   2.1044206442269558e-01   2.1038128024720568e-01   2.1039437166849267e-01   2.1033763442716971e-01   2.1034983925320483e-01   2.1029659804461584e-01   2.1030814874788525e-01   2.1025804382490967e-01   2.1026906095664180e-01   2.1022147452702764e-01   2.1023218229501281e-01   2.1018670703601164e-01   2.1019725843118034e-01   2.1015329951422301e-01   2.1016385104960372e-01   2.1012082702440896e-01   2.1013145670825201e-01   2.1008896991539047e-01   2.1009961421056597e-01   2.1005769174262873e-01   2.1006797452793832e-01   2.3985027432449077e-01   2.3816391024134673e-01   2.3948228835795643e-01   2.3781425989174704e-01   2.3911556582386034e-01   2.3746542626878514e-01   2.3875049235113199e-01   2.3711829866022630e-01   2.3838512559703920e-01   2.3677240343569811e-01   2.3802223692888835e-01   2.3642692680403440e-01   2.3766000932068410e-01   2.3608289584624403e-01   2.3729841444347460e-01   2.3574000463383690e-01   2.3693861779593375e-01   2.3539914474536042e-01   2.6474758474900334e-01   2.6187902945577857e-01   2.6433147193787282e-01   2.6147576257854616e-01   2.6391232582214713e-01   2.6107132590775900e-01   2.6349623238013270e-01   2.6066796855092694e-01   2.6307911495038594e-01   2.6026314844402287e-01   2.6266243072671575e-01   2.5986004628026427e-01   2.6224291950423406e-01   2.5945442414341452e-01   2.6182571771302493e-01   2.5905196447787388e-01   2.6140592169345511e-01   2.5864659205701918e-01   2.6098901788111784e-01   2.5824348950069292e-01   2.6057140904060511e-01   2.5783832747175367e-01   2.6015365770911092e-01   2.5743401903319724e-01   2.5973318533184225e-01   2.3657961432033650e-01   2.5702846519756817e-01   2.3505817931862183e-01   2.3622201701141829e-01   2.3471973481809427e-01   2.3586546414587467e-01   2.3438098576742825e-01   2.3550978008655840e-01   2.3404427135955022e-01   2.3515496399589869e-01   2.3370830295458231e-01   2.3480187693527485e-01   2.3337411756312007e-01   2.3445020483099330e-01   2.3304105809072209e-01   2.3410037128003877e-01   2.3270983451093960e-01   2.3375124313901813e-01   2.3237939188209794e-01   2.3340362316145691e-01   2.3205026711511864e-01   2.3305688310536110e-01   2.3172283361116872e-01   2.3271271210985831e-01   2.3139631414262821e-01   2.3236935355003194e-01   2.3107175229650953e-01   2.3202708026300245e-01   2.3074847219801367e-01   2.3168677666023615e-01   2.3042640851536492e-01   2.3134729512134328e-01   2.3010614326104506e-01   2.3100947549293116e-01   2.2978721645763514e-01   2.3067371085398203e-01   2.2946992518303511e-01   2.3033944238639595e-01   2.2915399964715313e-01   2.3000679349991504e-01   2.2884043943720911e-01   2.2967614641454104e-01   2.2852743914192813e-01   2.2934642369715863e-01   2.2821714337848648e-01   2.2901818346763009e-01   2.2790760451564473e-01   2.2869228534003924e-01   2.2760002222853201e-01   2.2836777973772723e-01   2.2729381693652376e-01   2.2804469872097710e-01   2.2698982726689609e-01   2.5931501146305075e-01   2.5662517690588454e-01   2.5889408076451875e-01   2.5622011389120281e-01   2.5847649888337104e-01   2.5581615160887744e-01   2.5805809420394882e-01   2.5541168124405628e-01   2.5763971441870964e-01   2.5500706423448388e-01   2.5721900926804675e-01   2.5460271062617212e-01   2.5680053411338111e-01   2.5419955064486993e-01   2.5638054234397795e-01   2.5379531266934269e-01   2.5596268297022323e-01   2.5339252269611756e-01   2.5554447059014346e-01   2.52988450