<?xml version="1.0"?>
<VTKFile type="UnstructuredGrid"  version="0.1"  >
<UnstructuredGrid>
<Piece  NumberOfPoints="2374" NumberOfCells="4550">
<Points>
<DataArray  type="Float64"  NumberOfComponents="3"  format="ascii">0.718695652173913 0 0  0.7269565217391304 0 0  0.7269565217391304 0.008333333333333333 0  0.7352173913043478 0 0  0.7352173913043478 0.008333333333333333 0  0.7434782608695653 0 0  0.7434782608695653 0.008333333333333333 0  0.7517391304347827 0 0  0.7517391304347827 0.008333333333333333 0  0.7599999999999999 0 0  0.7599999999999999 0.008333333333333333 0  0.7682608695652173 0 0  0.7682608695652173 0.008333333333333333 0  0.7765217391304348 0 0  0.7765217391304348 0.008333333333333333 0  0.7847826086956522 0 0  0.7847826086956522 0.008333333333333333 0  0.7930434782608695 0 0  0.7930434782608695 0.008333333333333333 0  0.8013043478260868 0 0  0.8013043478260868 0.008333333333333333 0  0.8095652173913043 0 0  0.8095652173913043 0.008333333333333333 0  0.8178260869565217 0 0  0.8178260869565217 0.008333333333333333 0  0.8260869565217391 0 0  0.8260869565217391 0.008333333333333333 0  0.8343478260869565 0 0  0.8343478260869565 0.008333333333333333 0  0.8426086956521739 0 0  0.8426086956521739 0.008333333333333333 0  0.8508695652173912 0 0  0.8508695652173912 0.008333333333333333 0  0.8591304347826086 0 0  0.8591304347826086 0.008333333333333333 0  0.8673913043478261 0 0  0.8673913043478261 0.008333333333333333 0  0.8756521739130434 0 0  0.8756521739130434 0.008333333333333333 0  0.8839130434782608 0 0  0.8839130434782608 0.008333333333333333 0  0.8921739130434783 0 0  0.8921739130434783 0.008333333333333333 0  0.9004347826086956 0 0  0.9004347826086956 0.008333333333333333 0  0.908695652173913 0 0  0.908695652173913 0.008333333333333333 0  0.9169565217391303 0 0  0.9169565217391303 0.008333333333333333 0  0.9252173913043478 0 0  0.9252173913043478 0.008333333333333333 0  0.9334782608695652 0 0  0.9334782608695652 0.008333333333333333 0  0.9417391304347826 0 0  0.9417391304347826 0.008333333333333333 0  0.95 0 0  0.95 0.008333333333333333 0  0.9582608695652173 0 0  0.9582608695652173 0.008333333333333333 0  0.9665217391304347 0 0  0.9665217391304347 0.008333333333333333 0  0.9747826086956521 0 0  0.9747826086956521 0.008333333333333333 0  0.9830434782608696 0 0  0.9830434782608696 0.008333333333333333 0  0.991304347826087 0 0  0.991304347826087 0.008333333333333333 0  0.9995652173913042 0 0  0.9995652173913042 0.008333333333333333 0  1.007826086956522 0 0  1.007826086956522 0.008333333333333333 0  1.016086956521739 0 0  1.016086956521739 0.008333333333333333 0  1.024347826086957 0 0  1.024347826086957 0.008333333333333333 0  1.032608695652174 0 0  1.032608695652174 0.008333333333333333 0  1.040869565217391 0.008333333333333333 0  0.7352173913043478 0.01666666666666667 0  0.7434782608695653 0.01666666666666667 0  0.7517391304347827 0.01666666666666667 0  0.7599999999999999 0.01666666666666667 0  0.7682608695652173 0.01666666666666667 0  0.7765217391304348 0.01666666666666667 0  0.7847826086956522 0.01666666666666667 0  0.7930434782608695 0.01666666666666667 0  0.8013043478260868 0.01666666666666667 0  0.8095652173913043 0.01666666666666667 0  0.8178260869565217 0.01666666666666667 0  0.8260869565217391 0.01666666666666667 0  0.8343478260869565 0.01666666666666667 0  0.8426086956521739 0.01666666666666667 0  0.8508695652173912 0.01666666666666667 0  0.8591304347826086 0.01666666666666667 0  0.8673913043478261 0.01666666666666667 0  0.8756521739130434 0.01666666666666667 0  0.8839130434782608 0.01666666666666667 0  0.8921739130434783 0.01666666666666667 0  0.9004347826086956 0.01666666666666667 0  0.908695652173913 0.01666666666666667 0  0.9169565217391303 0.01666666666666667 0  0.9252173913043478 0.01666666666666667 0  0.9334782608695652 0.01666666666666667 0  0.9417391304347826 0.01666666666666667 0  0.95 0.01666666666666667 0  0.9582608695652173 0.01666666666666667 0  0.9665217391304347 0.01666666666666667 0  0.9747826086956521 0.01666666666666667 0  0.9830434782608696 0.01666666666666667 0  0.991304347826087 0.01666666666666667 0  0.9995652173913042 0.01666666666666667 0  1.007826086956522 0.01666666666666667 0  1.016086956521739 0.01666666666666667 0  1.024347826086957 0.01666666666666667 0  1.032608695652174 0.01666666666666667 0  1.040869565217391 0.01666666666666667 0  1.049130434782609 0.01666666666666667 0  0.7434782608695653 0.025 0  0.7517391304347827 0.025 0  0.7599999999999999 0.025 0  0.7682608695652173 0.025 0  0.7765217391304348 0.025 0  0.7847826086956522 0.025 0  0.7930434782608695 0.025 0  0.8013043478260868 0.025 0  0.8095652173913043 0.025 0  0.8178260869565217 0.025 0  0.8260869565217391 0.025 0  0.8343478260869565 0.025 0  0.8426086956521739 0.025 0  0.8508695652173912 0.025 0  0.8591304347826086 0.025 0  0.8673913043478261 0.025 0  0.8756521739130434 0.025 0  0.8839130434782608 0.025 0  0.8921739130434783 0.025 0  0.9004347826086956 0.025 0  0.908695652173913 0.025 0  0.9169565217391303 0.025 0  0.9252173913043478 0.025 0  0.9334782608695652 0.025 0  0.9417391304347826 0.025 0  0.95 0.025 0  0.9582608695652173 0.025 0  0.9665217391304347 0.025 0  0.9747826086956521 0.025 0  0.9830434782608696 0.025 0  0.991304347826087 0.025 0  0.9995652173913042 0.025 0  1.007826086956522 0.025 0  1.016086956521739 0.025 0  1.024347826086957 0.025 0  1.032608695652174 0.025 0  1.040869565217391 0.025 0  1.049130434782609 0.025 0  1.057391304347826 0.025 0  0.7517391304347827 0.03333333333333333 0  0.7599999999999999 0.03333333333333333 0  0.7682608695652173 0.03333333333333333 0  0.7765217391304348 0.03333333333333333 0  0.7847826086956522 0.03333333333333333 0  0.7930434782608695 0.03333333333333333 0  0.8013043478260868 0.03333333333333333 0  0.8095652173913043 0.03333333333333333 0  0.8178260869565217 0.03333333333333333 0  0.8260869565217391 0.03333333333333333 0  0.8343478260869565 0.03333333333333333 0  0.8426086956521739 0.03333333333333333 0  0.8508695652173912 0.03333333333333333 0  0.8591304347826086 0.03333333333333333 0  0.8673913043478261 0.03333333333333333 0  0.8756521739130434 0.03333333333333333 0  0.8839130434782608 0.03333333333333333 0  0.8921739130434783 0.03333333333333333 0  0.9004347826086956 0.03333333333333333 0  0.908695652173913 0.03333333333333333 0  0.9169565217391303 0.03333333333333333 0  0.9252173913043478 0.03333333333333333 0  0.9334782608695652 0.03333333333333333 0  0.9417391304347826 0.03333333333333333 0  0.95 0.03333333333333333 0  0.9582608695652173 0.03333333333333333 0  0.9665217391304347 0.03333333333333333 0  0.9747826086956521 0.03333333333333333 0  0.9830434782608696 0.03333333333333333 0  0.991304347826087 0.03333333333333333 0  0.9995652173913042 0.03333333333333333 0  1.007826086956522 0.03333333333333333 0  1.016086956521739 0.03333333333333333 0  1.024347826086957 0.03333333333333333 0  1.032608695652174 0.03333333333333333 0  1.040869565217391 0.03333333333333333 0  1.049130434782609 0.03333333333333333 0  1.057391304347826 0.03333333333333333 0  1.065652173913043 0.03333333333333333 0  0.7599999999999999 0.04166666666666666 0  0.7682608695652173 0.04166666666666666 0  0.7765217391304348 0.04166666666666666 0  0.7847826086956522 0.04166666666666666 0  0.7930434782608695 0.04166666666666666 0  0.8013043478260868 0.04166666666666666 0  0.8095652173913043 0.04166666666666666 0  0.8178260869565217 0.04166666666666666 0  0.8260869565217391 0.04166666666666666 0  0.8343478260869565 0.04166666666666666 0  0.8426086956521739 0.04166666666666666 0  0.8508695652173912 0.04166666666666666 0  0.8591304347826086 0.04166666666666666 0  0.8673913043478261 0.04166666666666666 0  0.8756521739130434 0.04166666666666666 0  0.8839130434782608 0.04166666666666666 0  0.8921739130434783 0.04166666666666666 0  0.9004347826086956 0.04166666666666666 0  0.908695652173913 0.04166666666666666 0  0.9169565217391303 0.04166666666666666 0  0.9252173913043478 0.04166666666666666 0  0.9334782608695652 0.04166666666666666 0  0.9417391304347826 0.04166666666666666 0  0.95 0.04166666666666666 0  0.9582608695652173 0.04166666666666666 0  0.9665217391304347 0.04166666666666666 0  0.9747826086956521 0.04166666666666666 0  0.9830434782608696 0.04166666666666666 0  0.991304347826087 0.04166666666666666 0  0.9995652173913042 0.04166666666666666 0  1.007826086956522 0.04166666666666666 0  1.016086956521739 0.04166666666666666 0  1.024347826086957 0.04166666666666666 0  1.032608695652174 0.04166666666666666 0  1.040869565217391 0.04166666666666666 0  1.049130434782609 0.04166666666666666 0  1.057391304347826 0.04166666666666666 0  1.065652173913043 0.04166666666666666 0  1.073913043478261 0.04166666666666666 0  0.7682608695652173 0.05 0  0.7765217391304348 0.05 0  0.7847826086956522 0.05 0  0.7930434782608695 0.05 0  0.8013043478260868 0.05 0  0.8095652173913043 0.05 0  0.8178260869565217 0.05 0  0.8260869565217391 0.05 0  0.8343478260869565 0.05 0  0.8426086956521739 0.05 0  0.8508695652173912 0.05 0  0.8591304347826086 0.05 0  0.8673913043478261 0.05 0  0.8756521739130434 0.05 0  0.8839130434782608 0.05 0  0.8921739130434783 0.05 0  0.9004347826086956 0.05 0  0.908695652173913 0.05 0  0.9169565217391303 0.05 0  0.9252173913043478 0.05 0  0.9334782608695652 0.05 0  0.9417391304347826 0.05 0  0.95 0.05 0  0.9582608695652173 0.05 0  0.9665217391304347 0.05 0  0.9747826086956521 0.05 0  0.9830434782608696 0.05 0  0.991304347826087 0.05 0  0.9995652173913042 0.05 0  1.007826086956522 0.05 0  1.016086956521739 0.05 0  1.024347826086957 0.05 0  1.032608695652174 0.05 0  1.040869565217391 0.05 0  1.049130434782609 0.05 0  1.057391304347826 0.05 0  1.065652173913043 0.05 0  1.073913043478261 0.05 0  1.082173913043478 0.05 0  0.7765217391304348 0.05833333333333333 0  0.7847826086956522 0.05833333333333333 0  0.7930434782608695 0.05833333333333333 0  0.8013043478260868 0.05833333333333333 0  0.8095652173913043 0.05833333333333333 0  0.8178260869565217 0.05833333333333333 0  0.8260869565217391
[...]
<CellData  Scalars="rho"> 
<DataArray  type="Float64"  Name="rho"  format="ascii">3.4999999999999998e-01   3.4999999999999998e-01   3.4999999999999998e-01   3.4999999999999998e-01   3.4999999999999998e-01   3.4999999999999998e-01   3.4999999999999998e-01   3.4999999999999998e-01   3.4999999999999998e-01   3.4999999999999998e-01   3.4999999999999998e-01   3.4999999999999998e-01   3.4999999999999998e-01   3.4032568774460537e-01   3.3730274487437834e-01   3.4005703485442240e-01   3.3703144192589768e-01   3.3978497095701687e-01   3.3676059660250807e-01   3.3951538087284283e-01   3.3648874548069246e-01   3.3924233644879254e-01   3.3621781057453115e-01   3.3897210158824559e-01   3.3594483939168657e-01   3.3869779185775545e-01   3.3567186798826526e-01   3.3842548587431798e-01   3.3539757158557781e-01   3.3814995607786869e-01   3.3512357521683189e-01   3.3787568811110807e-01   3.3484801772665951e-01   3.3759841569447741e-01   3.3457297698540034e-01   3.3732327824719005e-01   3.3429581848936152e-01   3.3704411512355276e-01   3.3401842196702447e-01   3.3676650289889498e-01   3.3373939722499352e-01   3.3648551865899423e-01   3.3346064345945903e-01   3.3620561534614124e-01   3.3317983377660204e-01   3.3592225260894293e-01   3.3289952579690013e-01   3.3564164505614957e-01   3.3261670549403810e-01   3.3535608958188040e-01   3.3233364504718665e-01   3.3507261403844257e-01   3.3204880410694460e-01   3.3478531380751908e-01   3.3176439011086456e-01   3.3449941770744668e-01   3.3147759588668296e-01   3.3421002199839867e-01   3.3119181149304300e-01   3.3392316508747921e-01   3.3090302466065674e-01   3.3363123493649660e-01   3.3061410581648937e-01   3.3334139687819858e-01   3.3032310208289550e-01   3.3304738139258855e-01   3.3003251383781473e-01   3.3275483991105070e-01   3.2973950761604759e-01   3.3245872804819027e-01   3.2944746108917905e-01   3.3216558629794474e-01   3.2915262192604644e-01   3.3186699347136089e-01   3.2885740695390242e-01   3.3157071728004706e-01   3.4999999999999998e-01   3.4999999999999998e-01   3.4999999999999998e-01   3.4999999999999998e-01   3.4999999999999998e-01   3.4999999999999998e-01   3.4999999999999998e-01   3.4999999999999998e-01   3.4999999999999998e-01   3.4999999999999998e-01   3.4999999999999998e-01   3.2856028390892744e-01   3.3127001246141952e-01   3.2826361672906562e-01   3.3097101839061299e-01   3.2796445012126241e-01   3.3066787897955408e-01   3.2766639701312888e-01   3.3036907313393032e-01   3.2736520205038067e-01   3.3006350762943348e-01   3.2706378643208661e-01   3.2976114963842229e-01   3.2676042403242977e-01   3.2945405838797870e-01   3.2645783305678672e-01   3.2914879055325219e-01   3.2615260035837706e-01   3.2883982144127505e-01   3.2584893100207257e-01   3.2853439778936250e-01   3.2554182391822373e-01   3.2822298800864635e-01   3.2523462682626686e-01   3.2791456755730791e-01   3.2492553086230941e-01   3.2760120475607463e-01   3.2461706438093069e-01   3.2728994031189113e-01   3.2430617360101610e-01   3.2697455007967691e-01   3.2399653153322733e-01   3.2666342103276019e-01   3.2368389651997614e-01   3.2634563037667275e-01   3.2337076179972352e-01   3.2603177200685107e-01   3.2305605581925578e-01   3.2571211365706682e-01   3.2274215283249202e-01   3.2539560974641646e-01   3.2242559043635977e-01   3.2507393084888053e-01   3.2211077954858952e-01   3.2475743204552426e-01   3.2179218327973702e-01   3.2443318318115727e-01   3.2147370377740830e-01   3.2411404665107096e-01   3.2115318505802309e-01   3.2378948363046856e-01   3.2083396116406437e-01   3.2346480983433773e-01   3.2051198438737644e-01   3.2313907477498294e-01   3.2019144334012967e-01   3.2281539426744077e-01   3.1986857724659928e-01   3.2248540709520029e-01   3.1954255271174847e-01   3.2216140430417001e-01   3.1921771261496479e-01   3.2182830857623185e-01   3.1889257258267262e-01   3.2150172111177144e-01   3.1856476814670531e-01   3.4999999999999998e-01   3.4999999999999998e-01   3.4999999999999998e-01   3.4999999999999998e-01   3.4999999999999998e-01   3.4999999999999998e-01   3.4999999999999998e-01   3.4999999999999998e-01   3.4999999999999998e-01   3.2116740586911735e-01   3.1823950007055202e-01   3.2084024810955808e-01   3.1791041275518539e-01   3.2050355091773769e-01   3.1758009457809766e-01   3.2017426079663847e-01   3.1724904739606763e-01   3.1983496257141369e-01   3.1691968826601169e-01   3.1950295955424823e-01   3.1658579576897672e-01   3.1916268339471260e-01   3.1625620263789855e-01   3.1883182471610710e-01   3.1592118991372553e-01   3.1848927384100112e-01   3.1558565470926259e-01   3.1815236472961872e-01   3.1524868522089788e-01   3.1780806439334242e-01   3.1491483839319601e-01   3.1747361459878348e-01   3.1457633437192556e-01   3.1712619600390862e-01   3.1424132607086991e-01   3.1678843266571766e-01   3.1389936883553282e-01   3.1644180925535098e-01   3.1356126033367915e-01   3.4821732642423153e-01   3.4512364826297365e-01   3.4787356169993844e-01   3.4478107396777319e-01   3.4753286392883526e-01   3.4444073344693665e-01   3.4719533151583676e-01   3.4410411588232581e-01   3.4686108723433395e-01   3.4376857096647045e-01   3.4653137564042408e-01   3.4343861780178486e-01   3.4620484311664346e-01   3.4311186636007374e-01   3.4588068358326052e-01   3.4278929810031283e-01   3.4556043019332000e-01   3.4246892910209525e-01   3.4524352429356059e-01   3.4215226960482492e-01   3.4493015431612567e-01   3.4183774063168226e-01   3.4462138820748422e-01   3.4152748060877747e-01   3.4431495885651309e-01   3.4121998262991582e-01   3.4401087378054707e-01   3.4091582173123380e-01   3.4371022601611084e-01   3.4061448741572092e-01   3.4341172612891979e-01   3.4031608172492578e-01   3.4311652284778438e-01   3.4001933641429549e-01   3.4282424433999664e-01   3.3972625123604705e-01   3.4253409637436860e-01   3.4999999999999998e-01   3.4999999999999998e-01   3.4999999999999998e-01   3.4999999999999998e-01   3.4999999999999998e-01   3.4999999999999998e-01   3.4999999999999998e-01   3.3943476100439046e-01   3.4999999999999998e-01   3.4224570450010372e-01   3.3914620506996179e-01   3.4196000287002332e-01   3.3885945697334424e-01   3.4167621969842260e-01   3.3857533250135319e-01   3.4139438079535700e-01   3.3829217577092924e-01   3.4111504018818456e-01   3.3801173774653365e-01   3.4083640060184889e-01   3.3773199863335351e-01   3.4055914231499412e-01   3.3745420548648147e-01   3.4028313557279471e-01   3.3717761942072993e-01   3.4000849006256095e-01   3.3690226888341157e-01   3.3973458783087951e-01   3.3662756163987517e-01   3.3946202097934614e-01   3.3635416682181457e-01   3.3918955401479034e-01   3.3608105989338749e-01   3.3891757407232959e-01   3.3580876683566441e-01   3.3864617553763715e-01   3.3553703019373471e-01   3.3837549767939740e-01   3.3526566936608382e-01   3.3810460720594382e-01   3.3499433407735979e-01   3.3783456569062975e-01   3.3472349432054854e-01   3.3756352273902845e-01   3.3445246324266592e-01   3.3729245294221127e-01   3.3418128045321044e-01   3.3702112562839243e-01   3.3391021245632474e-01   3.3675022998421716e-01   3.3363886226783096e-01   3.3647836506059875e-01   3.3336700301383315e-01   3.3620737554835134e-01   3.3309532014570292e-01   3.3593439172459688e-01   3.3282275339736644e-01   3.3566135025467270e-01   3.3254982718302062e-01   3.3538703421299532e-01   3.3227650687963517e-01   3.3511296952914077e-01   3.3200237026610785e-01   3.3483740039739995e-01   3.3172742834681113e-01   3.3456229043038677e-01   3.3145227560035756e-01   3.3428512130579291e-01   3.3117602212774494e-01   3.3400764280573936e-01   3.3089919455542971e-01   3.3372860168852569e-01   3.3062171290512476e-01   3.3344976842424584e-01   3.3034316236127470e-01   3.3316895516549505e-01   3.4999999999999998e-01   3.4999999999999998e-01   3.4999999999999998e-01   3.4999999999999998e-01   3.4999999999999998e-01   3.4999999999999998e-01   3.4999999999999998e-01   3.3006348300369243e-01   3.4999999999999998e-01   3.3288856563399222e-01   3.2978337114448170e-01   3.3260574132803750e-01   3.2950215047531772e-01   3.3232259111464979e-01   3.2921994828325274e-01   3.3203773959915261e-01   3.2893727762308012e-01   3.3175324383315347e-01   3.2865339601121468e-01   3.3146645470108632e-01   3.2836804275149939e-01   3.3118059098209485e-01   3.2808261053375920e-01   3.3089180084689684e-01   3.2779535809681265e-01   3.3060278955547828e-01   3.2750772868252331e-01   3.3031177555713159e-01   3.2721924001321062e-01   3.3002109838847554e-01   3.2692968621290130e-01   3.2972810341589665e-01   3.2663852154284367e-01   3.2943597121715729e-01   3.2634740639100346e-01   3.2914113770690395e-01   3.2605442003732515e-01   3.2884582232094661e-01   3.2576123304903604e-01   3.2854869551642701e-01   3.2546687250081402e-01   3.2825193024781674e-01   3.2517170281486030e-01   3.2795278971523179e-01   3.2487464434001256e-01   3.2765463964500641e-01   3.2457769046921192e-01   3.2735346261612774e-01   3.2427913801121439e-01   3.2705193867262539e-01   3.2397983451101608e-01   3.2674858289583092e-01   3.2367996972906504e-01   3.2644589414808406e-01   3.2337903701201370e-01   3.2614069726070999e-01   3.2307623972328664e-01   3.2583693757148607e-01   3.2277384253936142e-01   3.2552984525325562e-01   3.2246920614215563e-01   3.2522254499195768e-01   3.2216455874767713e-01   3.2491344634114783e-01   3.2185913017586260e-01   3.2460488606698801e-01   3.2155270161879101e-01   3.2429402283878134e-01   3.2124451411129951e-01   3.2398429189328498e-01   3.2093678689502658e-01   3.2367167231411276e-01   3.2062693226108802e-01   3.2335843501991474e-01   3.2031711676905333e-01   3.2304372761266714e-01   3.4999999999999998e-01   3.4999999999999998e-01   3.4999999999999998e-01   3.4999999999999998e-01   3.4999999999999998e-01   3.4999999999999998e-01   3.4999999999999998e-01   3.2000624051703430e-01   3.4999999999999998e-01   3.2272972983339232e-01   3.1969460514142828e-01   3.2241320576767291e-01   3.1938110040090451e-01   3.2209830158853703e-01   3.1906804802990885e-01   3.2177972805457128e-01   3.1875286072046205e-01   3.2146113450628083e-01   3.1843733207378239e-01   3.2114064169403417e-01   3.1812187110009021e-01   3.2082132527955659e-01   3.1780470805647126e-01   3.2049940015744677e-01   3.1748688968133398e-01   3.2017876614756541e-01   3.1716892871303615e-01   3.1985590015780546e-01   3.1684762646451820e-01   3.1952976125137011e-01   3.1652873795125192e-01   3.1920492215598062e-01   3.1620506122584646e-01   3.1887968107036413e-01   3.1588458888379584e-01   3.1855191856507487e-01   3.1556003955603784e-01   3.1822656130453825e-01   3.1523782422952845e-01   3.1789749475827278e-01   3.1491162674721901e-01   3.1756706182509914e-01   3.1458786457893828e-01   3.1723604154764623e-01   3.1426030236907104e-01   3.1690657951112111e-01   3.1393443500451895e-01   3.1657273780835715e-01   3.1360497316869368e-01   3.1624305494944233e-01   3.1327748195141875e-01   3.1590806520738063e-01   3.1294653621683677e-01   3.1557242439495142e-01   3.1261713710588673e-01   3.1523548538182727e-01   3.1228389170373505e-01   3.1490155532493569e-01   3.1195347104667909e-01   3.1456307690863194e-01   3.1161950452249437e-01   3.1422797557555376e-01   3.1128715627847109e-01   3.1388601343287081e-01   3.1095228840329753e-01   3.1354786480027624e-01   3.1061642528082095e-01   3.1028000263010896e-01   3.4510332380992720e-01   3.4190134634120245e-01   3.4476076903296893e-01   3.4155823935759261e-01   3.4442054208258061e-01   3.4122096558284282e-01   3.4408403006202809e-01   3.4088400358225968e-01   3.4999999999999998e-01   3.4999999999999998e-01   3.4999999999999998e-01   3.4999999999999998e-01   3.4999999999999998e-01   3.4999999999999998e-01   3.4999999999999998e-01   3.4374861865305362e-01   3.4999999999999998e-01   3.4055062482490750e-01   3.4341876590611725e-01   3.4021967915839435e-01   3.4309214076236116e-01   3.3989384555436647e-01   3.4276965523391806e-01   3.3957033896258348e-01   3.4244941379234639e-01   3.3925178032317399e-01   3.4213285800537380e-01   3.3893387304862072e-01   3.4181844257586469e-01   3.3862118033283917e-01   3.4150827929930078e-01   3.3831008368277876e-01   3.4120088910374358e-01   3.3800314922107344e-01   3.4089681693880086e-01   3.3769805115552404e-01   3.4059556561640425e-01   3.3739700677206080e-01   3.4029723453222549e-01   3.3709797617423370e-01   3.4000056402812645e-01   3.3680210622154627e-01   3.3970754637710426e-01   3.3650827405450667e-01   3.3941613215498750e-01   3.3621727076181090e-01   3.3912763237460664e-01   3.3592766666400259e-01   3.3884093565654844e-01   3.3564116714827824e-01   3.3855684955865312e-01   3.3535630322895399e-01   3.3827373640156821e-01   3.3507381940619607e-01   3.3799332591398518e-01   3.3479260073424300e-01   3.3771362685163425e-01   3.3451343685684432e-01   3.3743585188080205e-01   3.3423450476855227e-01   3.3715927848256888e-01   3.3395804599018930e-01   3.3688393222593405e-01   3.3368224197250856e-01   3.3660922843027030e-01   3.3340790211527427e-01   3.3633582558435843e-01   3.3313440787200332e-01   3.3606272145327609e-01   3.3286173750483400e-01   3.3579041151352679e-01   3.3258891625039644e-01   3.3551865377994128e-01   3.3231742662543179e-01   3.3524726618783379e-01   3.3204579571988413e-01   3.3497590492249474e-01   3.3177492858620378e-01   3.3470502549436465e-01   3.3150416787914683e-01   3.3443397256783697e-01   3.3123358893912058e-01   3.3416274742834395e-01   3.3096252675976390e-01   3.4999999999999998e-01   3.4999999999999998e-01   3.4999999999999998e-01   3.4999999999999998e-01   3.4999999999999998e-01   3.4999999999999998e-01   3.4999999999999998e-01   3.3389163720615805e-01   3.3069180690256728e-01   3.3362023467973756e-01   3.3042074146071226e-01   3.3334833517298162e-01   3.3014966384810190e-01   3.3307658608223839e-01   3.2987822686324791e-01   3.3280398937789146e-01   3.2960667829891194e-01   3.3253099271507308e-01   3.2933389208733488e-01   3.3225762845297030e-01   3.2906141700526970e-01   3.3198341472667720e-01   3.2878796701675372e-01   3.3170843180671344e-01   3.2851429402463800e-01   3.3143319096778934e-01   3.2823995189187682e-01   3.3115690928183922e-01   3.2796522438096765e-01   3.3087999086915465e-01   3.2768887384350043e-01   3.3060246480192268e-01   3.2741284841945695e-01   3.3032382313027375e-01   3.2713516053686770e-01   3.3004410200656786e-01   3.2685743611769763e-01   3.2976389414493706e-01   3.2657840637414376e-01   3.2948264397677640e-01   3.2629912594586807e-01   3.2920035334673536e-01   3.2601795572162062e-01   3.2891763600503771e-01   3.2573702440126245e-01   3.2863366311701858e-01   3.2545426168995684e-01   3.2834826922548893e-01   3.2517153230501178e-01   3.2806274254814261e-01   3.2488710970681961e-01   3.2777546385830886e-01   3.2460278657023928e-01   3.2748774551685905e-01   3.2431585956932574e-01   3.2719921534668228e-01   3.2402971348072235e-01   3.2690956685967310e-01   3.2374162382477667e-01   3.2661836905061048e-01   3.2345345357356231e-01   3.2632715486557190e-01   3.2316405645773533e-01   3.2603415748407566e-01   3.2287436855750484e-01   3.2574086936511282e-01   3.2258211130187092e-01   3.2544647558955575e-01   3.2229087094820652e-01   3.2515120398375091e-01   3.2199710544629667e-01   3.2485411820955579e-01   3.2170386459321393e-01   3.2455706454496558e-01   3.2140869800337751e-01   3.2425850497528652e-01   3.4999999999999998e-01   3.4999999999999998e-01   3.4999999999999998e-01   3.4999999999999998e-01   3.4999999999999998e-01   3.2111373589217956e-01   3.4999999999999998e-01   3.2395911145852901e-01   3.2081597465856732e-01   3.2365921094616312e-01   3.2051928474222874e-01   3.2335818496446606e-01   3.2022022459982852e-01   3.2305536061871881e-01   3.1992171974824146e-01   3.2275287110356388e-01   3.1962109992786086e-01   3.2244822636571424e-01   3.1932104658705068e-01   3.2214349764177197e-01   3.1901764921838255e-01   3.2183803159609603e-01   3.1871586611299063e-01   3.2153151813312947e-01   3.1841172017090835e-01   3.2122330277261224e-01   3.1810789159261355e-01   3.2091548322704599e-01   3.1780283792845548e-01   3.2060563046349289e-01   3.1749758140300172e-01   3.2029572667176620e-01   3.1718954375168973e-01   3.1998481890680031e-01   3.1688286529542525e-01   3.1967309571264485e-01   3.1657355345134053e-01   3.1935956933612181e-01   3.1626487115403834e-01   3.1904642074856904e-01   3.1595454122820960e-01   3.1873123285203636e-01   3.1564416548032054e-01   3.1841562859275474e-01   3.1533145097058324e-01   3.1810014080502885e-01   3.1501946041996226e-01   3.1778291591837127e-01   3.1470622847853036e-01   3.1746509364959835e-01   3.1439237537789633e-01   3.1714703700923819e-01   3.1407745347647831e-01   3.1682574822428705e-01   3.1376275076676607e-01   3.1650671639378208e-01   3.1344430407290302e-01   3.1618305519501028e-01   3.1312832633799653e-01   3.1586246698464832e-01   3.1280892947653460e-01   3.1553793867206287e-01   3.1249116002281868e-01   3.1521560027594486e-01   3.1217120541538174e-01   3.1488944586359735e-01   3.1185183961917501e-01   3.1456555943783859e-01   3.1152994287433067e-01   3.1423800809871483e-01   3.1120972888966614e-01   3.1391203384497746e-01   3.1088556748507906e-01   3.1358258665365102e-01   3.1056306875731804e-01   3.1325497153275894e-01   3.4999999999999998e-01   3.4999999999999998e-01   3.4999999999999998e-01   3.4999999999999998e-01   3.4999999999999998e-01   3.1023779245500732e-01   3.4999999999999998e-01   3.1292406480022233e-01   3.0991357271433601e-01   3.1259457077778846e-01   3.0958657795546263e-01   3.1226133168291315e-01   3.0926113947120171e-01   3.1193081509895798e-01   3.0893338528433745e-01   3.1159689057465673e-01   3.0860716648088471e-01   3.1126441542921379e-01   3.0827634974338475e-01   3.1092953911799898e-01   3.0794815209492088e-01   3.1059362825738374e-01   3.0761650750632807e-01   3.1025720859406952e-01   3.0728652305854087e-01   3.0695359100994474e-01   3.4186993835403046e-01   3.4152705035934694e-01   3.3821433960747860e-01   3.4118989251320314e-01   3.3787847836151813e-01   3.4085311551094022e-01   3.3754345349245618e-01   3.4051997607312873e-01   3.3721156652716350e-01   3.4018920879078013e-01   3.3688147929669665e-01   3.3986356904990506e-01   3.3655671597723152e-01   3.3954027567026729e-01   3.3623423509990341e-01   3.3922187754988276e-01   3.3591424871951669e-01   3.3890418816835033e-01   3.3559911026696260e-01   3.3859167817664387e-01   3.3528559382859136e-01   3.3828077315717964e-01   3.3497653818289469e-01   3.3797401268563798e-01   3.3466915308957867e-01   3.3766906618051329e-01   3.3436587000277812e-01   3.3736818044951966e-01   3.3406443016732085e-01   3.3706929017133613e-01   3.3376667795701742e-01   3.3677357087123544e-01   3.3347073385948872e-01   3.3647986558013748e-01   3.3317792126354995e-01   3.3618899324810320e-01   3.3288698006967582e-01   3.3589949037414207e-01   3.3259874083543245e-01   3.3561309438730436e-01   3.3231204205083326e-01   3.3532832152530678e-01   3.3202806518621936e-01   3.3504591966428765e-01   3.3174554018685204e-01   3.3476477274700678e-01   3.3146523857158372e-01   3.3448567307595245e-01   3.3118604891255160e-01   3.3420678213599636e-01   3.4999999999999998e-01   3.4999999999999998e-01   3.4999999999999998e-01   3.4999999999999998e-01   3.4999999999999998e-01   3.3090876282424114e-01   3.3393036266880238e-01   3.3063209159879003e-01   3.3365459344624004e-01   3.3035722069619894e-01   3.3338027639247980e-01   3.3008301958868913e-01   3.3310679666784360e-01   3.2981017409304003e-01   3.3283413265933931e-01   3.2953800351446561e-01   3.3256129750391916e-01   3.2926663479903162e-01   3.3228979459713537e-01   3.2899533946171905e-01   3.3201814366487697e-01   3.2872484326101381e-01   3.3174725577036251e-01   3.2845429345940763e-01   3.3147645826993449e-01   3.2818437921328641e-01   3.3120585108045986e-01   3.2791458349548258e-01   3.3093473212705327e-01   3.2764489321679319e-01   3.3066396660593345e-01   3.2737489915494505e-01   3.3039284359936766e-01   3.2710495255552874e-01   3.3012171646520072e-01   3.2683467934502425e-01   3.2985020890973288