<?xml version="1.0"?>
<VTKFile type="UnstructuredGrid"  version="0.1"  >
<UnstructuredGrid>
<Piece  NumberOfPoints="2488" NumberOfCells="4777">
<Points>
<DataArray  type="Float64"  NumberOfComponents="3"  format="ascii">2.924347826086957 0 0  2.932608695652174 0 0  2.932608695652174 0.008333333333333333 0  2.924347826086957 0.008333333333333333 0  2.940869565217391 0 0  2.940869565217391 0.008333333333333333 0  2.949130434782608 0 0  2.949130434782608 0.008333333333333333 0  2.957391304347826 0 0  2.957391304347826 0.008333333333333333 0  2.965652173913043 0 0  2.965652173913043 0.008333333333333333 0  2.973913043478261 0 0  2.973913043478261 0.008333333333333333 0  2.982173913043478 0 0  2.982173913043478 0.008333333333333333 0  2.990434782608696 0 0  2.990434782608696 0.008333333333333333 0  2.998695652173913 0 0  2.998695652173913 0.008333333333333333 0  3.006956521739131 0 0  3.006956521739131 0.008333333333333333 0  3.015217391304348 0 0  3.015217391304348 0.008333333333333333 0  3.023478260869565 0 0  3.023478260869565 0.008333333333333333 0  3.031739130434782 0 0  3.031739130434782 0.008333333333333333 0  3.04 0 0  3.04 0.008333333333333333 0  3.048260869565218 0 0  3.048260869565218 0.008333333333333333 0  3.056521739130435 0 0  3.056521739130435 0.008333333333333333 0  3.064782608695652 0 0  3.064782608695652 0.008333333333333333 0  3.073043478260869 0 0  3.073043478260869 0.008333333333333333 0  3.081304347826087 0 0  3.081304347826087 0.008333333333333333 0  3.089565217391304 0 0  3.089565217391304 0.008333333333333333 0  3.097826086956522 0 0  3.097826086956522 0.008333333333333333 0  3.106086956521739 0 0  3.106086956521739 0.008333333333333333 0  3.114347826086956 0 0  3.114347826086956 0.008333333333333333 0  3.122608695652174 0 0  3.122608695652174 0.008333333333333333 0  3.130869565217391 0 0  3.130869565217391 0.008333333333333333 0  3.139130434782609 0 0  3.139130434782609 0.008333333333333333 0  3.147391304347826 0 0  3.147391304347826 0.008333333333333333 0  3.155652173913043 0 0  3.155652173913043 0.008333333333333333 0  3.163913043478261 0 0  3.163913043478261 0.008333333333333333 0  3.172173913043478 0 0  3.172173913043478 0.008333333333333333 0  3.180434782608696 0 0  3.180434782608696 0.008333333333333333 0  3.188695652173913 0 0  3.188695652173913 0.008333333333333333 0  3.19695652173913 0 0  3.19695652173913 0.008333333333333333 0  3.205217391304347 0 0  3.205217391304347 0.008333333333333333 0  3.213478260869565 0 0  3.213478260869565 0.008333333333333333 0  3.221739130434782 0 0  3.221739130434782 0.008333333333333333 0  3.23 0 0  3.23 0.008333333333333333 0  3.238260869565217 0 0  3.238260869565217 0.008333333333333333 0  3.246521739130435 0 0  3.246521739130435 0.008333333333333333 0  3.254782608695652 0.008333333333333333 0  2.932608695652174 0.01666666666666667 0  2.940869565217391 0.01666666666666667 0  2.949130434782608 0.01666666666666667 0  2.957391304347826 0.01666666666666667 0  2.965652173913043 0.01666666666666667 0  2.973913043478261 0.01666666666666667 0  2.982173913043478 0.01666666666666667 0  2.990434782608696 0.01666666666666667 0  2.998695652173913 0.01666666666666667 0  3.006956521739131 0.01666666666666667 0  3.015217391304348 0.01666666666666667 0  3.023478260869565 0.01666666666666667 0  3.031739130434782 0.01666666666666667 0  3.04 0.01666666666666667 0  3.048260869565218 0.01666666666666667 0  3.056521739130435 0.01666666666666667 0  3.064782608695652 0.01666666666666667 0  3.073043478260869 0.01666666666666667 0  3.081304347826087 0.01666666666666667 0  3.089565217391304 0.01666666666666667 0  3.097826086956522 0.01666666666666667 0  3.106086956521739 0.01666666666666667 0  3.114347826086956 0.01666666666666667 0  3.122608695652174 0.01666666666666667 0  3.130869565217391 0.01666666666666667 0  3.139130434782609 0.01666666666666667 0  3.147391304347826 0.01666666666666667 0  3.155652173913043 0.01666666666666667 0  3.163913043478261 0.01666666666666667 0  3.172173913043478 0.01666666666666667 0  3.180434782608696 0.01666666666666667 0  3.188695652173913 0.01666666666666667 0  3.19695652173913 0.01666666666666667 0  3.205217391304347 0.01666666666666667 0  3.213478260869565 0.01666666666666667 0  3.221739130434782 0.01666666666666667 0  3.23 0.01666666666666667 0  3.238260869565217 0.01666666666666667 0  3.246521739130435 0.01666666666666667 0  3.254782608695652 0.01666666666666667 0  3.26304347826087 0.01666666666666667 0  2.940869565217391 0.025 0  2.949130434782608 0.025 0  2.957391304347826 0.025 0  2.965652173913043 0.025 0  2.973913043478261 0.025 0  2.982173913043478 0.025 0  2.990434782608696 0.025 0  2.998695652173913 0.025 0  3.006956521739131 0.025 0  3.015217391304348 0.025 0  3.023478260869565 0.025 0  3.031739130434782 0.025 0  3.04 0.025 0  3.048260869565218 0.025 0  3.056521739130435 0.025 0  3.064782608695652 0.025 0  3.073043478260869 0.025 0  3.081304347826087 0.025 0  3.089565217391304 0.025 0  3.097826086956522 0.025 0  3.106086956521739 0.025 0  3.114347826086956 0.025 0  3.122608695652174 0.025 0  3.130869565217391 0.025 0  3.139130434782609 0.025 0  3.147391304347826 0.025 0  3.155652173913043 0.025 0  3.163913043478261 0.025 0  3.172173913043478 0.025 0  3.180434782608696 0.025 0  3.188695652173913 0.025 0  3.19695652173913 0.025 0  3.205217391304347 0.025 0  3.213478260869565 0.025 0  3.221739130434782 0.025 0  3.23 0.025 0  3.238260869565217 0.025 0  3.246521739130435 0.025 0  3.254782608695652 0.025 0  3.26304347826087 0.025 0  3.271304347826087 0.025 0  2.949130434782608 0.03333333333333333 0  2.957391304347826 0.03333333333333333 0  2.965652173913043 0.03333333333333333 0  2.973913043478261 0.03333333333333333 0  2.982173913043478 0.03333333333333333 0  2.990434782608696 0.03333333333333333 0  2.998695652173913 0.03333333333333333 0  3.006956521739131 0.03333333333333333 0  3.015217391304348 0.03333333333333333 0  3.023478260869565 0.03333333333333333 0  3.031739130434782 0.03333333333333333 0  3.04 0.03333333333333333 0  3.048260869565218 0.03333333333333333 0  3.056521739130435 0.03333333333333333 0  3.064782608695652 0.03333333333333333 0  3.073043478260869 0.03333333333333333 0  3.081304347826087 0.03333333333333333 0  3.089565217391304 0.03333333333333333 0  3.097826086956522 0.03333333333333333 0  3.106086956521739 0.03333333333333333 0  3.114347826086956 0.03333333333333333 0  3.122608695652174 0.03333333333333333 0  3.130869565217391 0.03333333333333333 0  3.139130434782609 0.03333333333333333 0  3.147391304347826 0.03333333333333333 0  3.155652173913043 0.03333333333333333 0  3.163913043478261 0.03333333333333333 0  3.172173913043478 0.03333333333333333 0  3.180434782608696 0.03333333333333333 0  3.188695652173913 0.03333333333333333 0  3.19695652173913 0.03333333333333333 0  3.205217391304347 0.03333333333333333 0  3.213478260869565 0.03333333333333333 0  3.221739130434782 0.03333333333333333 0  3.23 0.03333333333333333 0  3.238260869565217 0.03333333333333333 0  3.246521739130435 0.03333333333333333 0  3.254782608695652 0.03333333333333333 0  3.26304347826087 0.03333333333333333 0  3.271304347826087 0.03333333333333333 0  3.279565217391304 0.03333333333333333 0  2.957391304347826 0.04166666666666666 0  2.965652173913043 0.04166666666666666 0  2.973913043478261 0.04166666666666666 0  2.982173913043478 0.04166666666666666 0  2.990434782608696 0.04166666666666666 0  2.998695652173913 0.04166666666666666 0  3.006956521739131 0.04166666666666666 0  3.015217391304348 0.04166666666666666 0  3.023478260869565 0.04166666666666666 0  3.031739130434782 0.04166666666666666 0  3.04 0.04166666666666666 0  3.048260869565218 0.04166666666666666 0  3.056521739130435 0.04166666666666666 0  3.064782608695652 0.04166666666666666 0  3.073043478260869 0.04166666666666666 0  3.081304347826087 0.04166666666666666 0  3.089565217391304 0.04166666666666666 0  3.097826086956522 0.04166666666666666 0  3.106086956521739 0.04166666666666666 0  3.114347826086956 0.04166666666666666 0  3.122608695652174 0.04166666666666666 0  3.130869565217391 0.04166666666666666 0  3.139130434782609 0.04166666666666666 0  3.147391304347826 0.04166666666666666 0  3.155652173913043 0.04166666666666666 0  3.163913043478261 0.04166666666666666 0  3.172173913043478 0.04166666666666666 0  3.180434782608696 0.04166666666666666 0  3.188695652173913 0.04166666666666666 0  3.19695652173913 0.04166666666666666 0  3.205217391304347 0.04166666666666666 0  3.213478260869565 0.04166666666666666 0  3.221739130434782 0.04166666666666666 0  3.23 0.04166666666666666 0  3.238260869565217 0.04166666666666666 0  3.246521739130435 0.04166666666666666 0  3.254782608695652 0.04166666666666666 0  3.26304347826087 0.04166666666666666 0  3.271304347826087 0.04166666666666666 0  3.279565217391304 0.04166666666666666 0  3.287826086956521 0.04166666666666666 0  2.965652173913043 0.05 0  2.973913043478261 0.05 0  2.982173913043478 0.05 0  2.990434782608696 0.05 0  2.998695652173913 0.05 0  3.006956521739131 0.05 0  3.015217391304348 0.05 0  3.023478260869565 0.05 0  3.031739130434782 0.05 0  3.04 0.05 0  3.048260869565218 0.05 0  3.056521739130435 0.05 0  3.064782608695652 0.05 0  3.073043478260869 0.05 0  3.081304347826087 0.05 0  3.089565217391304 0.05 0  3.097826086956522 0.05 0  3.106086956521739 0.05 0  3.114347826086956 0.05 0  3.122608695652174 0.05 0  3.130869565217391 0.05 0  3.139130434782609 0.05 0  3.147391304347826 0.05 0  3.155652173913043 0.05 0  3.163913043478261 0.05 0  3.172173913043478 0.05 0  3.180434782608696 0.05 0  3.188695652173913 0.05 0  3.19695652173913 0.05 0  3.205217391304347 0.05 0  3.213478260869565 0.05 0  3.221739130434782 0.05 0  3.23 0.05 0  3.238260869565217 0.05 0  3.246521739130435 0.05 0  3.254782608695652 0.05 0  3.26304347826087 0.05 0  3.271304347826087 0.05 0  3.279565217391304 0.05 0  3.287826086956521 0.05 0  3.296086956521739 0.05 0  2.973913043478261 0.05833333333333333 0  2.982173913043478 0.05833333333333333 0  2.990434782608696 0.05833333333333
[...]
<CellData  Scalars="rho"> 
<DataArray  type="Float64"  Name="rho"  format="ascii">0.0000000000000000e+00   0.0000000000000000e+00   0.0000000000000000e+00   0.0000000000000000e+00   0.0000000000000000e+00   0.0000000000000000e+00   0.0000000000000000e+00   0.0000000000000000e+00   0.0000000000000000e+00   0.0000000000000000e+00   0.0000000000000000e+00   0.0000000000000000e+00   0.0000000000000000e+00   0.0000000000000000e+00   0.0000000000000000e+00   0.0000000000000000e+00   0.0000000000000000e+00   0.0000000000000000e+00   0.0000000000000000e+00   0.0000000000000000e+00   0.0000000000000000e+00   0.0000000000000000e+00   0.0000000000000000e+00   0.0000000000000000e+00   0.0000000000000000e+00   0.0000000000000000e+00   0.0000000000000000e+00   0.0000000000000000e+00   0.0000000000000000e+00   2.2617921214916417e-01   0.0000000000000000e+00   7.3787774705704534e-01   0.0000000000000000e+00   7.3950210884827361e-01   0.0000000000000000e+00   6.5480523936245971e-01   0.0000000000000000e+00   5.4792577611701787e-01   0.0000000000000000e+00   4.3992787518470761e-01   0.0000000000000000e+00   4.4025171147682374e-01   0.0000000000000000e+00   4.0039408761563444e-01   0.0000000000000000e+00   2.9345186391041156e-01   0.0000000000000000e+00   2.7053521947111531e-01   0.0000000000000000e+00   3.2976470967887633e-01   0.0000000000000000e+00   3.8432869956563903e-01   0.0000000000000000e+00   3.4859978580243389e-01   0.0000000000000000e+00   2.9063111817216986e-01   0.0000000000000000e+00   2.1821548498303467e-01   0.0000000000000000e+00   2.3069188362863186e-01   0.0000000000000000e+00   8.3945493549417383e-02   0.0000000000000000e+00   0.0000000000000000e+00   0.0000000000000000e+00   0.0000000000000000e+00   0.0000000000000000e+00   3.4063534714738830e-02   0.0000000000000000e+00   1.5213263958303599e-01   0.0000000000000000e+00   2.9914284564926152e-01   0.0000000000000000e+00   4.6825325908031806e-01   0.0000000000000000e+00   6.5170509790541653e-01   0.0000000000000000e+00   8.2561664199194185e-01   0.0000000000000000e+00   8.9430265141773946e-01   0.0000000000000000e+00   8.8189616651371361e-01   0.0000000000000000e+00   7.7276446837419488e-01   0.0000000000000000e+00   6.1368037621952687e-01   0.0000000000000000e+00   4.8391952234533397e-01   0.0000000000000000e+00   5.2355565397443404e-01   0.0000000000000000e+00   5.9325686869164473e-01   0.0000000000000000e+00   5.9516950472370256e-01   0.0000000000000000e+00   5.5953184203658046e-01   0.0000000000000000e+00   4.8303764254474346e-01   0.0000000000000000e+00   3.4781574827942818e-01   0.0000000000000000e+00   2.9257379005659151e-01   0.0000000000000000e+00   9.2857705238429386e-02   0.0000000000000000e+00   0.0000000000000000e+00   0.0000000000000000e+00   1.6617162674582870e-02   0.0000000000000000e+00   2.4171407672600467e-02   0.0000000000000000e+00   0.0000000000000000e+00   0.0000000000000000e+00   0.0000000000000000e+00   0.0000000000000000e+00   0.0000000000000000e+00   0.0000000000000000e+00   0.0000000000000000e+00   0.0000000000000000e+00   0.0000000000000000e+00   0.0000000000000000e+00   0.0000000000000000e+00   0.0000000000000000e+00   0.0000000000000000e+00   0.0000000000000000e+00   0.0000000000000000e+00   0.0000000000000000e+00   0.0000000000000000e+00   0.0000000000000000e+00   0.0000000000000000e+00   0.0000000000000000e+00   0.0000000000000000e+00   0.0000000000000000e+00   0.0000000000000000e+00   0.0000000000000000e+00   0.0000000000000000e+00   0.0000000000000000e+00   0.0000000000000000e+00   5.9951068230839205e-03   0.0000000000000000e+00   6.0120809535470172e-02   0.0000000000000000e+00   1.1662932893603369e-01   0.0000000000000000e+00   1.6015185980604676e-01   0.0000000000000000e+00   2.0195308332471976e-01   0.0000000000000000e+00   2.6332914691265402e-01   0.0000000000000000e+00   3.2030347685788740e-01   0.0000000000000000e+00   3.7082552201341423e-01   0.0000000000000000e+00   4.0358403099130036e-01   0.0000000000000000e+00   4.5879080941385952e-01   0.0000000000000000e+00   5.1554070067125912e-01   0.0000000000000000e+00   5.4146019551613700e-01   0.0000000000000000e+00   5.8117014963360747e-01   0.0000000000000000e+00   5.8870810485937819e-01   0.0000000000000000e+00   5.8932139717836884e-01   0.0000000000000000e+00   5.7931856996042586e-01   0.0000000000000000e+00   5.6863003764151565e-01   0.0000000000000000e+00   5.4929385492184735e-01   0.0000000000000000e+00   5.4650159468787807e-01   0.0000000000000000e+00   1.0000000000000000e+00   2.1663775994400308e-02   1.0000000000000000e+00   5.1071019756235569e-02   1.0000000000000000e+00   1.5502986864406515e-02   1.0000000000000000e+00   0.0000000000000000e+00   1.0000000000000000e+00   0.0000000000000000e+00   1.0000000000000000e+00   0.0000000000000000e+00   1.3563210025164357e-01   0.0000000000000000e+00   0.0000000000000000e+00   0.0000000000000000e+00   0.0000000000000000e+00   0.0000000000000000e+00   0.0000000000000000e+00   0.0000000000000000e+00   0.0000000000000000e+00   0.0000000000000000e+00   0.0000000000000000e+00   0.0000000000000000e+00   0.0000000000000000e+00   0.0000000000000000e+00   0.0000000000000000e+00   0.0000000000000000e+00   0.0000000000000000e+00   0.0000000000000000e+00   0.0000000000000000e+00   0.0000000000000000e+00   0.0000000000000000e+00   0.0000000000000000e+00   0.0000000000000000e+00   0.0000000000000000e+00   0.0000000000000000e+00   0.0000000000000000e+00   0.0000000000000000e+00   0.0000000000000000e+00   0.0000000000000000e+00   0.0000000000000000e+00   0.0000000000000000e+00   0.0000000000000000e+00   0.0000000000000000e+00   0.0000000000000000e+00   0.0000000000000000e+00   0.0000000000000000e+00   0.0000000000000000e+00   0.0000000000000000e+00   0.0000000000000000e+00   0.0000000000000000e+00   0.0000000000000000e+00   0.0000000000000000e+00   0.0000000000000000e+00   0.0000000000000000e+00   0.0000000000000000e+00   0.0000000000000000e+00   0.0000000000000000e+00   0.0000000000000000e+00   0.0000000000000000e+00   0.0000000000000000e+00   0.0000000000000000e+00   0.0000000000000000e+00   0.0000000000000000e+00   0.0000000000000000e+00   0.0000000000000000e+00   0.0000000000000000e+00   0.0000000000000000e+00   0.0000000000000000e+00   0.0000000000000000e+00   0.0000000000000000e+00   0.0000000000000000e+00   0.0000000000000000e+00   0.0000000000000000e+00   0.0000000000000000e+00   0.0000000000000000e+00   0.0000000000000000e+00   0.0000000000000000e+00   0.0000000000000000e+00   0.0000000000000000e+00   0.0000000000000000e+00   0.0000000000000000e+00   0.0000000000000000e+00   0.0000000000000000e+00   0.0000000000000000e+00   0.0000000000000000e+00   0.0000000000000000e+00   0.0000000000000000e+00   0.0000000000000000e+00   0.0000000000000000e+00   1.3141539392090007e-01   0.0000000000000000e+00   7.7424736561106200e-01   0.0000000000000000e+00   7.9329777172188565e-01   0.0000000000000000e+00   7.5105765889520693e-01   0.0000000000000000e+00   6.9879438223328005e-01   0.0000000000000000e+00   4.8686275217610386e-01   0.0000000000000000e+00   4.2986193191555971e-01   0.0000000000000000e+00   4.3191721915973591e-01   0.0000000000000000e+00   2.5886952479462910e-01   0.0000000000000000e+00   2.6172534068273018e-01   0.0000000000000000e+00   2.9465268373149545e-01   0.0000000000000000e+00   3.6127710277140490e-01   0.0000000000000000e+00   3.7599145127886480e-01   0.0000000000000000e+00   3.5437306139166852e-01   0.0000000000000000e+00   3.1311581598875016e-01   0.0000000000000000e+00   2.9085636171899704e-01   0.0000000000000000e+00   2.3310283052263039e-01   0.0000000000000000e+00   1.1811045946354636e-01   0.0000000000000000e+00   1.6806767525581509e-01   0.0000000000000000e+00   3.0459667808296753e-01   0.0000000000000000e+00   4.6074032336236898e-01   0.0000000000000000e+00   6.1206664164977231e-01   0.0000000000000000e+00   7.8406860204872142e-01   0.0000000000000000e+00   8.5607818807509473e-01   0.0000000000000000e+00   8.5085044275587141e-01   0.0000000000000000e+00   7.7617511738968525e-01   0.0000000000000000e+00   5.9786695176900562e-01   0.0000000000000000e+00   5.1210037747424342e-01   0.0000000000000000e+00   2.4353086567965199e-02   0.0000000000000000e+00   0.0000000000000000e+00   4.4634190620970504e-01   0.0000000000000000e+00   5.4396490366436157e-01   0.0000000000000000e+00   5.5992933144623769e-01   0.0000000000000000e+00   5.5584789749237384e-01   0.0000000000000000e+00   4.9272100177991779e-01   0.0000000000000000e+00   4.2765203131521395e-01   0.0000000000000000e+00   3.6477482891764762e-01   0.0000000000000000e+00   2.1770951823780810e-01   0.0000000000000000e+00   1.4276492159965817e-01   0.0000000000000000e+00   1.7616914490424657e-03   0.0000000000000000e+00   4.2963720099181701e-02   0.0000000000000000e+00   4.4418727186931073e-02   0.0000000000000000e+00   0.0000000000000000e+00   0.0000000000000000e+00   0.0000000000000000e+00   0.0000000000000000e+00   0.0000000000000000e+00   0.0000000000000000e+00   0.0000000000000000e+00   0.0000000000000000e+00   0.0000000000000000e+00   0.0000000000000000e+00   0.0000000000000000e+00   0.0000000000000000e+00   0.0000000000000000e+00   0.0000000000000000e+00   0.0000000000000000e+00   0.0000000000000000e+00   0.0000000000000000e+00   0.0000000000000000e+00   0.0000000000000000e+00   0.0000000000000000e+00   0.0000000000000000e+00   0.0000000000000000e+00   0.0000000000000000e+00   0.0000000000000000e+00   0.0000000000000000e+00   0.0000000000000000e+00   1.0043438360296077e-01   0.0000000000000000e+00   1.5232343790006903e-01   0.0000000000000000e+00   2.0451089977416442e-01   0.0000000000000000e+00   2.6750568596915120e-01   0.0000000000000000e+00   3.3549011668467432e-01   0.0000000000000000e+00   4.1274488941515491e-01   0.0000000000000000e+00   4.6455478665159722e-01   0.0000000000000000e+00   5.0891754219879826e-01   0.0000000000000000e+00   5.6681318891285559e-01   0.0000000000000000e+00   5.9798061654129686e-01   0.0000000000000000e+00   6.0339423745146348e-01   0.0000000000000000e+00   6.1352699120794585e-01   0.0000000000000000e+00   6.0854271110534652e-01   0.0000000000000000e+00   5.9542348287046831e-01   0.0000000000000000e+00   5.7866860608564541e-01   0.0000000000000000e+00   5.6073144844206946e-01   0.0000000000000000e+00   5.3989361194551166e-01   0.0000000000000000e+00   5.1928340048296329e-01   0.0000000000000000e+00   5.2703626381331703e-01   0.0000000000000000e+00   9.9692762501922794e-01   0.0000000000000000e+00   1.0000000000000000e+00   0.0000000000000000e+00   1.0000000000000000e+00   0.0000000000000000e+00   1.0000000000000000e+00   0.0000000000000000e+00   1.0000000000000000e+00   0.0000000000000000e+00   1.0000000000000000e+00   0.0000000000000000e+00   1.6133388219164010e-01   0.0000000000000000e+00   0.0000000000000000e+00   0.0000000000000000e+00   0.0000000000000000e+00   0.0000000000000000e+00   0.0000000000000000e+00   0.0000000000000000e+00   0.0000000000000000e+00   0.0000000000000000e+00   0.0000000000000000e+00   0.0000000000000000e+00   0.0000000000000000e+00   0.0000000000000000e+00   0.0000000000000000e+00   0.0000000000000000e+00   0.0000000000000000e+00   0.0000000000000000e+00   0.0000000000000000e+00   0.0000000000000000e+00   0.0000000000000000e+00   0.0000000000000000e+00   0.0000000000000000e+00   0.0000000000000000e+00   0.0000000000000000e+00   0.0000000000000000e+00   0.0000000000000000e+00   0.0000000000000000e+00   0.0000000000000000e+00   0.0000000000000000e+00   0.0000000000000000e+00   0.0000000000000000e+00   0.0000000000000000e+00   0.0000000000000000e+00   0.0000000000000000e+00   0.0000000000000000e+00   0.0000000000000000e+00   0.0000000000000000e+00   0.0000000000000000e+00   0.0000000000000000e+00   0.0000000000000000e+00   0.0000000000000000e+00   0.0000000000000000e+00   0.0000000000000000e+00   0.0000000000000000e+00   0.0000000000000000e+00   0.0000000000000000e+00   0.0000000000000000e+00   0.0000000000000000e+00   0.0000000000000000e+00   0.0000000000000000e+00   0.0000000000000000e+00   0.0000000000000000e+00   0.0000000000000000e+00   0.0000000000000000e+00   0.0000000000000000e+00   0.0000000000000000e+00   0.0000000000000000e+00   0.0000000000000000e+00   0.0000000000000000e+00   0.0000000000000000e+00   0.0000000000000000e+00   0.0000000000000000e+00   0.0000000000000000e+00   0.0000000000000000e+00   0.0000000000000000e+00   0.0000000000000000e+00   0.0000000000000000e+00   0.0000000000000000e+00   0.0000000000000000e+00   0.0000000000000000e+00   0.0000000000000000e+00   0.0000000000000000e+00   0.0000000000000000e+00   0.0000000000000000e+00   7.9162960371302027e-01   0.0000000000000000e+00   0.0000000000000000e+00   0.0000000000000000e+00   1.7648164525294494e-01   0.0000000000000000e+00   6.6253695782437705e-01   0.0000000000000000e+00   7.3911067450352441e-01   0.0000000000000000e+00   7.2260239749212252e-01   0.0000000000000000e+00   7.0864852203287743e-01   0.0000000000000000e+00   6.9147425734446732e-01   0.0000000000000000e+00   6.6875940265852007e-01   0.0000000000000000e+00   6.6504680109184111e-01   0.0000000000000000e+00   5.3213342232992666e-01   0.0000000000000000e+00   4.0000094027442751e-01   0.0000000000000000e+00   3.6480417241276508e-01   0.0000000000000000e+00   3.6123157908473108e-01   0.0000000000000000e+00   3.7194309358932715e-01   0.0000000000000000e+00   3.8441762570203297e-01   0.0000000000000000e+00   3.8537506902517615e-01   0.0000000000000000e+00   3.9760213760810359e-01   0.0000000000000000e+00   4.2295304065075184e-01   0.0000000000000000e+00   4.3581847388451084e-01   0.0000000000000000e+00   5.2047899508836470e-01   0.0000000000000000e+00   6.1759388098198609e-01   0.0000000000000000e+00   7.3579093121550720e-01   0.0000000000000000e+00   7.9587610041738410e-01   0.0000000000000000e+00   7.8573876767645201e-01   0.0000000000000000e+00   7.1186930578804719e-01   0.0000000000000000e+00   6.1062441918866406e-01   0.0000000000000000e+00   0.0000000000000000e+00   1.2870469041009461e-01   0.0000000000000000e+00   5.1324176368046726e-01   0.0000000000000000e+00   5.9774832676339928e-01   0.0000000000000000e+00   6.5337501355816097e-01   0.0000000000000000e+00   6.5549612054003925e-01   0.0000000000000000e+00   6.2328028986441519e-01   0.0000000000000000e+00   5.2858558783533682e-01   0.0000000000000000e+00   3.9989121818282020e-01   0.0000000000000000e+00   2.8679160875186643e-01   0.0000000000000000e+00   1.6319601929981942e-01   0.0000000000000000e+00   8.7706136691574316e-02   0.0000000000000000e+00   6.4712949274026016e-02   0.0000000000000000e+00   5.1311065206853052e-02   0.0000000000000000e+00   0.0000000000000000e+00   0.0000000000000000e+00   0.0000000000000000e+00   0.0000000000000000e+00   0.0000000000000000e+00   0.0000000000000000e+00   0.0000000000000000e+00   0.0000000000000000e+00   0.0000000000000000e+00   0.0000000000000000e+00   0.0000000000000000e+00   0.0000000000000000e+00   0.0000000000000000e+00   0.0000000000000000e+00   0.0000000000000000e+00   0.0000000000000000e+00   0.0000000000000000e+00   0.0000000000000000e+00   0.0000000000000000e+00   0.0000000000000000e+00   0.0000000000000000e+00   0.0000000000000000e+00   0.0000000000000000e+00   0.0000000000000000e+00   0.0000000000000000e+00   0.0000000000000000e+00   0.0000000000000000e+00   0.0000000000000000e+00   0.0000000000000000e+00   0.0000000000000000e+00   1.4883690286388671e-01   0.0000000000000000e+00   1.5216431768516930e-01   0.0000000000000000e+00   2.4628875585708471e-01   0.0000000000000000e+00   3.6813278142609884e-01   0.0000000000000000e+00   4.7432365461395992e-01   0.0000000000000000e+00   5.5527260195916706e-01   0.0000000000000000e+00   5.6174800036889250e-01   0.0000000000000000e+00   6.0445909741518544e-01   0.0000000000000000e+00   6.3918337094314714e-01   0.0000000000000000e+00   6.3932066052489034e-01   0.0000000000000000e+00   6.2793522728836892e-01   0.0000000000000000e+00   6.2189046227895906e-01   0.0000000000000000e+00   6.0669913504193618e-01   0.0000000000000000e+00   5.8471172981222064e-01   0.0000000000000000e+00   5.6044587558076864e-01   0.0000000000000000e+00   5.3520280984781188e-01   0.0000000000000000e+00   5.0867018466668579e-01   0.0000000000000000e+00   4.8146203908873786e-01   0.0000000000000000e+00   4.5345821465605546e-01   0.0000000000000000e+00   4.5500480399735521e-01   0.0000000000000000e+00   9.5008094334483739e-01   0.0000000000000000e+00   1.0000000000000000e+00   0.0000000000000000e+00   1.0000000000000000e+00   0.0000000000000000e+00   1.0000000000000000e+00   0.0000000000000000e+00   1.0000000000000000e+00   0.0000000000000000e+00   1.0000000000000000e+00   0.0000000000000000e+00   1.6557968632798933e-01   0.0000000000000000e+00   0.0000000000000000e+00   0.0000000000000000e+00   0.0000000000000000e+00   0.0000000000000000e+00   0.0000000000000000e+00   0.0000000000000000e+00   0.0000000000000000e+00   0.0000000000000000e+00   0.0000000000000000e+00   0.0000000000000000e+00   0.0000000000000000e+00   0.0000000000000000e+00   0.0000000000000000e+00   0.0000000000000000e+00   0.0000000000000000e+00   0.0000000000000000e+00   0.0000000000000000e+00   0.0000000000000000e+00   0.0000000000000000e+00   0.0000000000000000e+00   0.0000000000000000e+00   0.0000000000000000e+00   0.0000000000000000e+00   0.0000000000000000e+00   0.0000000000000000e+00   0.0000000000000000e+00   0.0000000000000000e+00   0.0000000000000000e+00   0.0000000000000000e+00   0.0000000000000000e+00   0.0000000000000000e+00   0.0000000000000000e+00   0.0000000000000000e+00   0.0000000000000000e+00   0.0000000000000000e+00   0.0000000000000000e+00   0.0000000000000000e+00   0.0000000000000000e+00   0.0000000000000000e+00   0.0000000000000000e+00   0.0000000000000000e+00   0.0000000000000000e+00   0.0000000000000000e+00   0.0000000000000000e+00   0.0000000000000000e+00   0.0000000000000000e+00   0.0000000000000000e+00   0.0000000000000000e+00   0.0000000000000000e+00   0.0000000000000000e+00   0.0000000000000000e+00   0.0000000000000000e+00   0.0000000000000000e+00   0.0000000000000000e+00   0.0000000000000000e+00   0.0000000000000000e+00   0.0000000000000000e+00   0.0000000000000000e+00   0.0000000000000000e+00   0.0000000000000000e+00   0.0000000000000000e+00   0.0000000000000000e+00   0.0000000000000000e+00   0.0000000000000000e+00   0.0000000000000000e+00   0.0000000000000000e+00   0.0000000000000000e+00   0.0000000000000000e+00   0.0000000000000000e+00   0.0000000000000000e+00   0.0000000000000000e+00   0.0000000000000000e+00   1.2380204991967746e-01   0.0000000000000000e+00   8.1239437186252739e-01   0.0000000000000000e+00   3.7488716569407943e-02   0.0000000000000000e+00   2.3805273893798254e-01   6.6138825647104202e-02   6.0245247266919966e-01   0.0000000000000000e+00   6.4266737764833071e-01   0.0000000000000000e+00   6.0906537689471718e-01   0.0000000000000000e+00   5.4820764670853861e-01   0.0000000000000000e+00   5.2346865570018009e-01   0.0000000000000000e+00   5.1012773356765861e-01   0.0000000000000000e+00   6.2726895818813988e-01   0.0000000000000000e+00   4.5546351187494560e-01   0.0000000000000000e+00   3.7997194900810782e-01   0.0000000000000000e+00   3.4280012960620820e-01   0.0000000000000000e+00   3.2796955943221079e-01   0.0000000000000000e+00   3.1097845619542763e-01   0.0000000000000000e+00   2.8483436729109574e-01   0.0000000000000000e+00   2.6429092240278002e-01   0.0000000000000000e+00   2.7081901851200307e-01   0.0000000000000000e+00   2.5171951904917839e-01   0.0000000000000000e+00   3.5844096119618968e-01   0.0000000000000000e+00   4.9656387292150195e-01   0.0000000000000000e+00   6.1711460581201416e-01   0.0000000000000000e+00   7.3989708144406729e-01   0.0000000000000000e+00   7.9542660407649435e-01   0.0000000000000000e+00   7.8347067180310859e-01   0.0000000000000000e+00   7.2491757074181540e-01   0.0000000000000000e+00   6.8168389406888585e-01   0.0000000000000000e+00   6.9639214887145096e-01   0.0000000000000000e+00   7.2354649355031930