<?xml version="1.0"?>
<VTKFile type="UnstructuredGrid"  version="0.1"  >
<UnstructuredGrid>
<Piece  NumberOfPoints="2448" NumberOfCells="4682">
<Points>
<DataArray  type="Float64"  NumberOfComponents="3"  format="ascii">0.9417391304347826 0.225 0  0.9417391304347826 0.2333333333333333 0  0.95 0.2333333333333333 0  0.3469565217391304 0.2333333333333333 0  0.3552173913043478 0.2333333333333333 0  0.3552173913043478 0.2416666666666667 0  0.3634782608695652 0.2333333333333333 0  0.3634782608695652 0.2416666666666667 0  0.3717391304347826 0.2333333333333333 0  0.3717391304347826 0.2416666666666667 0  0.3799999999999999 0.2333333333333333 0  0.3799999999999999 0.2416666666666667 0  0.3882608695652174 0.2333333333333333 0  0.3882608695652174 0.2416666666666667 0  0.3965217391304348 0.2333333333333333 0  0.3965217391304348 0.2416666666666667 0  0.4047826086956521 0.2333333333333333 0  0.4047826086956521 0.2416666666666667 0  0.4130434782608696 0.2333333333333333 0  0.4130434782608696 0.2416666666666667 0  0.4213043478260869 0.2333333333333333 0  0.4213043478260869 0.2416666666666667 0  0.4295652173913043 0.2333333333333333 0  0.4295652173913043 0.2416666666666667 0  0.4378260869565217 0.2333333333333333 0  0.4378260869565217 0.2416666666666667 0  0.4460869565217391 0.2333333333333333 0  0.4460869565217391 0.2416666666666667 0  0.4543478260869565 0.2333333333333333 0  0.4543478260869565 0.2416666666666667 0  0.4626086956521739 0.2333333333333333 0  0.4626086956521739 0.2416666666666667 0  0.4708695652173913 0.2333333333333333 0  0.4708695652173913 0.2416666666666667 0  0.4791304347826086 0.2333333333333333 0  0.4791304347826086 0.2416666666666667 0  0.4873913043478261 0.2333333333333333 0  0.4873913043478261 0.2416666666666667 0  0.4956521739130435 0.2333333333333333 0  0.4956521739130435 0.2416666666666667 0  0.5039130434782608 0.2333333333333333 0  0.5039130434782608 0.2416666666666667 0  0.5121739130434783 0.2333333333333333 0  0.5121739130434783 0.2416666666666667 0  0.5204347826086956 0.2333333333333333 0  0.5204347826086956 0.2416666666666667 0  0.528695652173913 0.2333333333333333 0  0.528695652173913 0.2416666666666667 0  0.5369565217391304 0.2333333333333333 0  0.5369565217391304 0.2416666666666667 0  0.5452173913043478 0.2333333333333333 0  0.5452173913043478 0.2416666666666667 0  0.5534782608695652 0.2333333333333333 0  0.5534782608695652 0.2416666666666667 0  0.5617391304347825 0.2333333333333333 0  0.5617391304347825 0.2416666666666667 0  0.57 0.2333333333333333 0  0.57 0.2416666666666667 0  0.5782608695652174 0.2333333333333333 0  0.5782608695652174 0.2416666666666667 0  0.5865217391304348 0.2333333333333333 0  0.5865217391304348 0.2416666666666667 0  0.5947826086956521 0.2333333333333333 0  0.5947826086956521 0.2416666666666667 0  0.6030434782608696 0.2333333333333333 0  0.6030434782608696 0.2416666666666667 0  0.6113043478260869 0.2333333333333333 0  0.6113043478260869 0.2416666666666667 0  0.6195652173913043 0.2333333333333333 0  0.6195652173913043 0.2416666666666667 0  0.6278260869565218 0.2333333333333333 0  0.6278260869565218 0.2416666666666667 0  0.6360869565217391 0.2333333333333333 0  0.6360869565217391 0.2416666666666667 0  0.6443478260869565 0.2333333333333333 0  0.6443478260869565 0.2416666666666667 0  0.6526086956521739 0.2333333333333333 0  0.6526086956521739 0.2416666666666667 0  0.6608695652173913 0.2333333333333333 0  0.6608695652173913 0.2416666666666667 0  0.6691304347826087 0.2333333333333333 0  0.6691304347826087 0.2416666666666667 0  0.677391304347826 0.2333333333333333 0  0.677391304347826 0.2416666666666667 0  0.6856521739130435 0.2333333333333333 0  0.6856521739130435 0.2416666666666667 0  0.6939130434782609 0.2333333333333333 0  0.6939130434782609 0.2416666666666667 0  0.7021739130434783 0.2333333333333333 0  0.7021739130434783 0.2416666666666667 0  0.7104347826086956 0.2333333333333333 0  0.7104347826086956 0.2416666666666667 0  0.718695652173913 0.2333333333333333 0  0.718695652173913 0.2416666666666667 0  0.7269565217391304 0.2333333333333333 0  0.7269565217391304 0.2416666666666667 0  0.7352173913043478 0.2333333333333333 0  0.7352173913043478 0.2416666666666667 0  0.7434782608695653 0.2333333333333333 0  0.7434782608695653 0.2416666666666667 0  0.7517391304347827 0.2333333333333333 0  0.7517391304347827 0.2416666666666667 0  0.7599999999999999 0.2333333333333333 0  0.7599999999999999 0.2416666666666667 0  0.7682608695652173 0.2333333333333333 0  0.7682608695652173 0.2416666666666667 0  0.7765217391304348 0.2333333333333333 0  0.7765217391304348 0.2416666666666667 0  0.7847826086956522 0.2333333333333333 0  0.7847826086956522 0.2416666666666667 0  0.7930434782608695 0.2333333333333333 0  0.7930434782608695 0.2416666666666667 0  0.8013043478260868 0.2333333333333333 0  0.8013043478260868 0.2416666666666667 0  0.8095652173913043 0.2333333333333333 0  0.8095652173913043 0.2416666666666667 0  0.8178260869565217 0.2333333333333333 0  0.8178260869565217 0.2416666666666667 0  0.8260869565217391 0.2333333333333333 0  0.8260869565217391 0.2416666666666667 0  0.8343478260869565 0.2333333333333333 0  0.8343478260869565 0.2416666666666667 0  0.8426086956521739 0.2333333333333333 0  0.8426086956521739 0.2416666666666667 0  0.8508695652173912 0.2333333333333333 0  0.8508695652173912 0.2416666666666667 0  0.8591304347826086 0.2333333333333333 0  0.8591304347826086 0.2416666666666667 0  0.8673913043478261 0.2333333333333333 0  0.8673913043478261 0.2416666666666667 0  0.8756521739130434 0.2333333333333333 0  0.8756521739130434 0.2416666666666667 0  0.8839130434782608 0.2333333333333333 0  0.8839130434782608 0.2416666666666667 0  0.8921739130434783 0.2333333333333333 0  0.8921739130434783 0.2416666666666667 0  0.9004347826086956 0.2333333333333333 0  0.9004347826086956 0.2416666666666667 0  0.908695652173913 0.2333333333333333 0  0.908695652173913 0.2416666666666667 0  0.9169565217391303 0.2333333333333333 0  0.9169565217391303 0.2416666666666667 0  0.9252173913043478 0.2333333333333333 0  0.9252173913043478 0.2416666666666667 0  0.9334782608695652 0.2333333333333333 0  0.9334782608695652 0.2416666666666667 0  0.9417391304347826 0.2416666666666667 0  0.95 0.2416666666666667 0  0.9582608695652173 0.2416666666666667 0  0.3634782608695652 0.25 0  0.3717391304347826 0.25 0  0.3799999999999999 0.25 0  0.3882608695652174 0.25 0  0.3965217391304348 0.25 0  0.4047826086956521 0.25 0  0.4130434782608696 0.25 0  0.4213043478260869 0.25 0  0.4295652173913043 0.25 0  0.4378260869565217 0.25 0  0.4460869565217391 0.25 0  0.4543478260869565 0.25 0  0.4626086956521739 0.25 0  0.4708695652173913 0.25 0  0.4791304347826086 0.25 0  0.4873913043478261 0.25 0  0.4956521739130435 0.25 0  0.5039130434782608 0.25 0  0.5121739130434783 0.25 0  0.5204347826086956 0.25 0  0.528695652173913 0.25 0  0.5369565217391304 0.25 0  0.5452173913043478 0.25 0  0.5534782608695652 0.25 0  0.5617391304347825 0.25 0  0.57 0.25 0  0.5782608695652174 0.25 0  0.5865217391304348 0.25 0  0.5947826086956521 0.25 0  0.6030434782608696 0.25 0  0.6113043478260869 0.25 0  0.6195652173913043 0.25 0  0.6278260869565218 0.25 0  0.6360869565217391 0.25 0  0.6443478260869565 0.25 0  0.6526086956521739 0.25 0  0.6608695652173913 0.25 0  0.6691304347826087 0.25 0  0.677391304347826 0.25 0  0.6856521739130435 0.25 0  0.6939130434782609 0.25 0  0.7021739130434783 0.25 0  0.7104347826086956 0.25 0  0.718695652173913 0.25 0  0.7269565217391304 0.25 0  0.7352173913043478 0.25 0  0.7434782608695653 0.25 0  0.7517391304347827 0.25 0  0.7599999999999999 0.25 0  0.7682608695652173 0.25 0  0.7765217391304348 0.25 0  0.7847826086956522 0.25 0  0.7930434782608695 0.25 0  0.8013043478260868 0.25 0  0.8095652173913043 0.25 0  0.8178260869565217 0.25 0  0.8260869565217391 0.25 0  0.8343478260869565 0.25 0  0.8426086956521739 0.25 0  0.8508695652173912 0.25 0  0.8591304347826086 0.25 0  0.8673913043478261 0.25 0  0.8756521739130434 0.25 0  0.8839130434782608 0.25 0  0.8921739130434783 0.25 0  0.9004347826086956 0.25 0  0.908695652173913 0.25 0  0.9169565217391303 0.25 0  0.9252173913043478 0.25 0  0.9334782608695652 0.25 0  0.9417391304347826 0.25 0  0.95 0.25 0  0.9582608695652173 0.25 0  0.9665217391304347 0.25 0  0.3717391304347826 0.2583333333333334 0  0.3799999999999999 0.2583333333333334 0  0.3882608695652174 0.2583333333333334 0  0.3965217391304348 0.2583333333333334 0  0.4047826086956521 0.2583333333333334 0  0.4130434782608696 0.2583333333333334 0  0.4213043478260869 0.2583333333333334 0  0.4295652173913043 0.2583333333333334 0  0.4378260869565217 0.2583333333333334 0  0.4460869565217391 0.2583333333333334 0  0.4543478260869565 0.2583333333333334 0  0.4626086956521739 0.2583333333333334 0  0.4708695652173913 0.2583333333333334 0  0.4791304347826086 0.2583333333333334 0  0.4873913043478261 0.2583333333333334 0  0.4956521739130435 0.2583333333333334 0  0.5039130434782608 0.2583333333333334 0  0.5121739130434783 0.2583333333333334 0  0.5204347826086956 0.2583333333333334 0  0.528695652173913 0.2583333333333334 0  0.5369565217391304 0.2583333333333334 0  0.5452173913043478 0.2583333333333334 0  0.5534782608695652 0.2583333333333334 0  0.5617391304347825 0.2583333333333334 0  0.57 0.2583333333333334 0  0.5782608695652174 0.2583333333333334 0  0.5865217391304348 0.2583333333333334 0  0.5947826086956521 0.2583333333333334 0  0.6030434782608696 0.2583333333333334 0  0.6113043478260869 0.2583333333333334 0  0.6195652173913043 0.2583333333333334 0  0.6278260869565218 0.2583333333333334 0  0.6360869565217391 0.2583333333333334 0  0.6443478260869565 0.2583333333333334 0  0.6526086956521739 0.2583333333333334 0  0.6608695652173913 0.2583333333333334 0  0.6691304347826087 0.2583333333333334 0  0.677391304347826 0.2583333333333334 0  0.6856521739130435 0.2583333333333334 0  0.6939130434782609 0.2583333333333334 0  0.7021739130434783 0.2583333333333334 0  0.7104347826086956 0.2583333333333334 0  0.718695652173913 0.2583333333333334 0  0.7269565217391304 0.258333333333333
[...]
<CellData  Scalars="rho_bar"> 
<DataArray  type="Float64"  Name="rho_bar"  format="ascii">0.0000000000000000e+00   0.0000000000000000e+00   0.0000000000000000e+00   0.0000000000000000e+00   0.0000000000000000e+00   0.0000000000000000e+00   0.0000000000000000e+00   0.0000000000000000e+00   0.0000000000000000e+00   0.0000000000000000e+00   0.0000000000000000e+00   0.0000000000000000e+00   0.0000000000000000e+00   0.0000000000000000e+00   0.0000000000000000e+00   0.0000000000000000e+00   0.0000000000000000e+00   0.0000000000000000e+00   0.0000000000000000e+00   0.0000000000000000e+00   0.0000000000000000e+00   0.0000000000000000e+00   0.0000000000000000e+00   0.0000000000000000e+00   0.0000000000000000e+00   0.0000000000000000e+00   0.0000000000000000e+00   0.0000000000000000e+00   0.0000000000000000e+00   1.2537034510868657e-02   0.0000000000000000e+00   4.4193628640648609e-03   0.0000000000000000e+00   1.9768753658145979e-02   0.0000000000000000e+00   8.1018929380109003e-02   0.0000000000000000e+00   1.6499213871045904e-01   0.0000000000000000e+00   2.5621953413428078e-01   0.0000000000000000e+00   3.8732083013402752e-01   0.0000000000000000e+00   5.0847705330962212e-01   0.0000000000000000e+00   5.6501499853521686e-01   0.0000000000000000e+00   5.9535298499315825e-01   0.0000000000000000e+00   7.0978788488716649e-01   0.0000000000000000e+00   9.0622122022477281e-01   0.0000000000000000e+00   8.5095420446439896e-01   0.0000000000000000e+00   1.0000000000000000e+00   0.0000000000000000e+00   1.0000000000000000e+00   0.0000000000000000e+00   1.0000000000000000e+00   0.0000000000000000e+00   1.0000000000000000e+00   0.0000000000000000e+00   1.0000000000000000e+00   0.0000000000000000e+00   1.0000000000000000e+00   0.0000000000000000e+00   9.9321940321463142e-01   0.0000000000000000e+00   8.9762655648114631e-01   0.0000000000000000e+00   7.0702799288169371e-01   0.0000000000000000e+00   5.5522648758329507e-01   0.0000000000000000e+00   2.0150581493357925e-01   0.0000000000000000e+00   1.2765986668411847e-01   0.0000000000000000e+00   2.4636771007359515e-01   0.0000000000000000e+00   4.0758902805120401e-01   0.0000000000000000e+00   7.4913902211579997e-01   0.0000000000000000e+00   9.8693733280971219e-01   0.0000000000000000e+00   1.0000000000000000e+00   0.0000000000000000e+00   1.0000000000000000e+00   0.0000000000000000e+00   1.0000000000000000e+00   0.0000000000000000e+00   1.0000000000000000e+00   0.0000000000000000e+00   1.0000000000000000e+00   0.0000000000000000e+00   1.0000000000000000e+00   0.0000000000000000e+00   1.0000000000000000e+00   0.0000000000000000e+00   8.5078977761985775e-01   0.0000000000000000e+00   5.2426140654641751e-01   0.0000000000000000e+00   1.5046794451981471e-01   0.0000000000000000e+00   0.0000000000000000e+00   0.0000000000000000e+00   0.0000000000000000e+00   0.0000000000000000e+00   0.0000000000000000e+00   0.0000000000000000e+00   0.0000000000000000e+00   0.0000000000000000e+00   0.0000000000000000e+00   0.0000000000000000e+00   0.0000000000000000e+00   0.0000000000000000e+00   0.0000000000000000e+00   0.0000000000000000e+00   0.0000000000000000e+00   0.0000000000000000e+00   0.0000000000000000e+00   0.0000000000000000e+00   0.0000000000000000e+00   0.0000000000000000e+00   0.0000000000000000e+00   0.0000000000000000e+00   0.0000000000000000e+00   0.0000000000000000e+00   0.0000000000000000e+00   0.0000000000000000e+00   0.0000000000000000e+00   0.0000000000000000e+00   0.0000000000000000e+00   0.0000000000000000e+00   0.0000000000000000e+00   0.0000000000000000e+00   0.0000000000000000e+00   0.0000000000000000e+00   0.0000000000000000e+00   0.0000000000000000e+00   0.0000000000000000e+00   0.0000000000000000e+00   0.0000000000000000e+00   0.0000000000000000e+00   0.0000000000000000e+00   0.0000000000000000e+00   0.0000000000000000e+00   0.0000000000000000e+00   0.0000000000000000e+00   0.0000000000000000e+00   0.0000000000000000e+00   0.0000000000000000e+00   0.0000000000000000e+00   0.0000000000000000e+00   0.0000000000000000e+00   0.0000000000000000e+00   0.0000000000000000e+00   0.0000000000000000e+00   0.0000000000000000e+00   0.0000000000000000e+00   0.0000000000000000e+00   0.0000000000000000e+00   0.0000000000000000e+00   0.0000000000000000e+00   0.0000000000000000e+00   0.0000000000000000e+00   0.0000000000000000e+00   0.0000000000000000e+00   0.0000000000000000e+00   0.0000000000000000e+00   0.0000000000000000e+00   0.0000000000000000e+00   0.0000000000000000e+00   0.0000000000000000e+00   0.0000000000000000e+00   0.0000000000000000e+00   9.4469030061314161e-03   0.0000000000000000e+00   6.8820565539023570e-01   0.0000000000000000e+00   1.0000000000000000e+00   0.0000000000000000e+00   1.0000000000000000e+00   0.0000000000000000e+00   1.0000000000000000e+00   0.0000000000000000e+00   1.0000000000000000e+00   0.0000000000000000e+00   1.0000000000000000e+00   0.0000000000000000e+00   1.0000000000000000e+00   0.0000000000000000e+00   1.0000000000000000e+00   0.0000000000000000e+00   1.0000000000000000e+00   0.0000000000000000e+00   1.0000000000000000e+00   0.0000000000000000e+00   1.0000000000000000e+00   0.0000000000000000e+00   1.0000000000000000e+00   0.0000000000000000e+00   8.3689750946040586e-01   0.0000000000000000e+00   5.7083535177305367e-01   0.0000000000000000e+00   2.7610578226269455e-01   0.0000000000000000e+00   8.0406207910570127e-02   0.0000000000000000e+00   1.0547478996371602e-02   0.0000000000000000e+00   0.0000000000000000e+00   0.0000000000000000e+00   0.0000000000000000e+00   0.0000000000000000e+00   0.0000000000000000e+00   0.0000000000000000e+00   0.0000000000000000e+00   0.0000000000000000e+00   0.0000000000000000e+00   0.0000000000000000e+00   0.0000000000000000e+00   0.0000000000000000e+00   0.0000000000000000e+00   0.0000000000000000e+00   0.0000000000000000e+00   0.0000000000000000e+00   0.0000000000000000e+00   0.0000000000000000e+00   0.0000000000000000e+00   0.0000000000000000e+00   0.0000000000000000e+00   0.0000000000000000e+00   0.0000000000000000e+00   0.0000000000000000e+00   0.0000000000000000e+00   0.0000000000000000e+00   0.0000000000000000e+00   0.0000000000000000e+00   0.0000000000000000e+00   0.0000000000000000e+00   0.0000000000000000e+00   0.0000000000000000e+00   0.0000000000000000e+00   0.0000000000000000e+00   0.0000000000000000e+00   0.0000000000000000e+00   0.0000000000000000e+00   0.0000000000000000e+00   0.0000000000000000e+00   0.0000000000000000e+00   0.0000000000000000e+00   0.0000000000000000e+00   0.0000000000000000e+00   0.0000000000000000e+00   0.0000000000000000e+00   0.0000000000000000e+00   0.0000000000000000e+00   0.0000000000000000e+00   0.0000000000000000e+00   0.0000000000000000e+00   0.0000000000000000e+00   0.0000000000000000e+00   0.0000000000000000e+00   0.0000000000000000e+00   0.0000000000000000e+00   0.0000000000000000e+00   0.0000000000000000e+00   0.0000000000000000e+00   0.0000000000000000e+00   0.0000000000000000e+00   0.0000000000000000e+00   0.0000000000000000e+00   0.0000000000000000e+00   0.0000000000000000e+00   0.0000000000000000e+00   0.0000000000000000e+00   5.0534737483575254e-03   0.0000000000000000e+00   7.1901058552142322e-02   0.0000000000000000e+00   1.4593606367440609e-01   0.0000000000000000e+00   2.1150604732755152e-01   0.0000000000000000e+00   3.4606350638300698e-01   0.0000000000000000e+00   4.6824129833502737e-01   0.0000000000000000e+00   5.4990170192686205e-01   0.0000000000000000e+00   5.7128547133138297e-01   0.0000000000000000e+00   6.4838919592077726e-01   0.0000000000000000e+00   7.4067896130820787e-01   0.0000000000000000e+00   8.5700249812656948e-01   0.0000000000000000e+00   9.0930234495933593e-01   0.0000000000000000e+00   1.0000000000000000e+00   0.0000000000000000e+00   1.0000000000000000e+00   0.0000000000000000e+00   1.0000000000000000e+00   0.0000000000000000e+00   9.9999999999999956e-01   0.0000000000000000e+00   1.0000000000000000e+00   0.0000000000000000e+00   1.0000000000000000e+00   0.0000000000000000e+00   9.9999999999999956e-01   0.0000000000000000e+00   9.0839407003985784e-01   0.0000000000000000e+00   6.8522875291386576e-01   0.0000000000000000e+00   5.8590363982884652e-01   0.0000000000000000e+00   3.0459314640941482e-01   0.0000000000000000e+00   4.6858166000130108e-01   0.0000000000000000e+00   8.0807814689130253e-01   0.0000000000000000e+00   9.9999999999999956e-01   0.0000000000000000e+00   9.9999999999999956e-01   0.0000000000000000e+00   1.0000000000000000e+00   0.0000000000000000e+00   9.9999999999999956e-01   0.0000000000000000e+00   1.0000000000000000e+00   0.0000000000000000e+00   9.9999999999999956e-01   0.0000000000000000e+00   9.9999999999999956e-01   0.0000000000000000e+00   9.9999999999999956e-01   0.0000000000000000e+00   7.2760901812993661e-01   0.0000000000000000e+00   4.0552750201526450e-01   0.0000000000000000e+00   7.6304279225350852e-02   0.0000000000000000e+00   0.0000000000000000e+00   0.0000000000000000e+00   0.0000000000000000e+00   0.0000000000000000e+00   0.0000000000000000e+00   0.0000000000000000e+00   0.0000000000000000e+00   0.0000000000000000e+00   0.0000000000000000e+00   0.0000000000000000e+00   0.0000000000000000e+00   0.0000000000000000e+00   0.0000000000000000e+00   0.0000000000000000e+00   0.0000000000000000e+00   0.0000000000000000e+00   0.0000000000000000e+00   0.0000000000000000e+00   0.0000000000000000e+00   0.0000000000000000e+00   0.0000000000000000e+00   0.0000000000000000e+00   0.0000000000000000e+00   0.0000000000000000e+00   0.0000000000000000e+00   0.0000000000000000e+00   0.0000000000000000e+00   0.0000000000000000e+00   0.0000000000000000e+00   0.0000000000000000e+00   0.0000000000000000e+00   0.0000000000000000e+00   0.0000000000000000e+00   0.0000000000000000e+00   0.0000000000000000e+00   0.0000000000000000e+00   0.0000000000000000e+00   0.0000000000000000e+00   0.0000000000000000e+00   0.0000000000000000e+00   0.0000000000000000e+00   0.0000000000000000e+00   0.0000000000000000e+00   0.0000000000000000e+00   0.0000000000000000e+00   0.0000000000000000e+00   0.0000000000000000e+00   0.0000000000000000e+00   0.0000000000000000e+00   0.0000000000000000e+00   0.0000000000000000e+00   0.0000000000000000e+00   0.0000000000000000e+00   0.0000000000000000e+00   0.0000000000000000e+00   0.0000000000000000e+00   0.0000000000000000e+00   0.0000000000000000e+00   0.0000000000000000e+00   0.0000000000000000e+00   0.0000000000000000e+00   0.0000000000000000e+00   0.0000000000000000e+00   0.0000000000000000e+00   0.0000000000000000e+00   0.0000000000000000e+00   0.0000000000000000e+00   0.0000000000000000e+00   0.0000000000000000e+00   0.0000000000000000e+00   0.0000000000000000e+00   0.0000000000000000e+00   0.0000000000000000e+00   5.3509113411792586e-01   0.0000000000000000e+00   9.1413179797788457e-01   0.0000000000000000e+00   9.9999999999999956e-01   0.0000000000000000e+00   1.0000000000000000e+00   0.0000000000000000e+00   1.0000000000000000e+00   0.0000000000000000e+00   9.9999999999999956e-01   0.0000000000000000e+00   9.9999999999999956e-01   0.0000000000000000e+00   1.0000000000000000e+00   0.0000000000000000e+00   1.0000000000000000e+00   0.0000000000000000e+00   1.0000000000000000e+00   0.0000000000000000e+00   1.0000000000000000e+00   0.0000000000000000e+00   1.0000000000000000e+00   0.0000000000000000e+00   8.0270455637277183e-01   0.0000000000000000e+00   5.9196846229814382e-01   0.0000000000000000e+00   2.8174440048468330e-01   0.0000000000000000e+00   4.7868333582256666e-02   0.0000000000000000e+00   0.0000000000000000e+00   0.0000000000000000e+00   0.0000000000000000e+00   0.0000000000000000e+00   0.0000000000000000e+00   0.0000000000000000e+00   0.0000000000000000e+00   0.0000000000000000e+00   0.0000000000000000e+00   0.0000000000000000e+00   0.0000000000000000e+00   0.0000000000000000e+00   0.0000000000000000e+00   0.0000000000000000e+00   0.0000000000000000e+00   0.0000000000000000e+00   0.0000000000000000e+00   0.0000000000000000e+00   0.0000000000000000e+00   0.0000000000000000e+00   0.0000000000000000e+00   0.0000000000000000e+00   0.0000000000000000e+00   0.0000000000000000e+00   0.0000000000000000e+00   0.0000000000000000e+00   0.0000000000000000e+00   0.0000000000000000e+00   0.0000000000000000e+00   0.0000000000000000e+00   0.0000000000000000e+00   0.0000000000000000e+00   0.0000000000000000e+00   0.0000000000000000e+00   0.0000000000000000e+00   0.0000000000000000e+00   0.0000000000000000e+00   0.0000000000000000e+00   0.0000000000000000e+00   0.0000000000000000e+00   0.0000000000000000e+00   0.0000000000000000e+00   0.0000000000000000e+00   0.0000000000000000e+00   1.6871463737091148e-02   0.0000000000000000e+00   0.0000000000000000e+00   0.0000000000000000e+00   0.0000000000000000e+00   0.0000000000000000e+00   0.0000000000000000e+00   0.0000000000000000e+00   0.0000000000000000e+00   0.0000000000000000e+00   0.0000000000000000e+00   0.0000000000000000e+00   0.0000000000000000e+00   0.0000000000000000e+00   0.0000000000000000e+00   0.0000000000000000e+00   0.0000000000000000e+00   0.0000000000000000e+00   0.0000000000000000e+00   0.0000000000000000e+00   0.0000000000000000e+00   0.0000000000000000e+00   0.0000000000000000e+00   0.0000000000000000e+00   0.0000000000000000e+00   0.0000000000000000e+00   1.3610544560035109e-02   0.0000000000000000e+00   3.2669609155572328e-02   0.0000000000000000e+00   5.3567656221705416e-02   0.0000000000000000e+00   1.1362173796998820e-01   0.0000000000000000e+00   2.1538624487499894e-01   0.0000000000000000e+00   3.3070943260262564e-01   0.0000000000000000e+00   4.6116694669018643e-01   0.0000000000000000e+00   5.2723304290396367e-01   0.0000000000000000e+00   5.7259609338424522e-01   0.0000000000000000e+00   6.1602101171033385e-01   0.0000000000000000e+00   7.0669974686673609e-01   0.0000000000000000e+00   7.6187391560651996e-01   0.0000000000000000e+00   7.3601770540483313e-01   0.0000000000000000e+00   9.9410696368911211e-01   0.0000000000000000e+00   1.0000000000000000e+00   0.0000000000000000e+00   1.0000000000000000e+00   0.0000000000000000e+00   1.0000000000000000e+00   0.0000000000000000e+00   1.0000000000000000e+00   0.0000000000000000e+00   1.0000000000000000e+00   0.0000000000000000e+00   1.0000000000000000e+00   0.0000000000000000e+00   1.0000000000000000e+00   0.0000000000000000e+00   9.3603789999462617e-01   0.0000000000000000e+00   6.9577140839253959e-01   0.0000000000000000e+00   7.8373022780377233e-01   0.0000000000000000e+00   9.0189100141644762e-01   0.0000000000000000e+00   1.0000000000000000e+00   0.0000000000000000e+00   1.0000000000000000e+00   0.0000000000000000e+00   1.0000000000000000e+00   0.0000000000000000e+00   1.0000000000000000e+00   9.9999999999999956e-01   0.0000000000000000e+00   1.0000000000000000e+00   0.0000000000000000e+00   1.0000000000000000e+00   0.0000000000000000e+00   9.9999999999999956e-01   0.0000000000000000e+00   9.7018101179963101e-01   0.0000000000000000e+00   6.5129155172777986e-01   0.0000000000000000e+00   2.7043366350594872e-01   0.0000000000000000e+00   0.0000000000000000e+00   0.0000000000000000e+00   0.0000000000000000e+00   0.0000000000000000e+00   0.0000000000000000e+00   0.0000000000000000e+00   0.0000000000000000e+00   0.0000000000000000e+00   0.0000000000000000e+00   0.0000000000000000e+00   0.0000000000000000e+00   0.0000000000000000e+00   0.0000000000000000e+00   0.0000000000000000e+00   0.0000000000000000e+00   0.0000000000000000e+00   0.0000000000000000e+00   0.0000000000000000e+00   0.0000000000000000e+00   0.0000000000000000e+00   0.0000000000000000e+00   0.0000000000000000e+00   0.0000000000000000e+00   0.0000000000000000e+00   0.0000000000000000e+00   0.0000000000000000e+00   0.0000000000000000e+00   0.0000000000000000e+00   0.0000000000000000e+00   0.0000000000000000e+00   0.0000000000000000e+00   0.0000000000000000e+00   0.0000000000000000e+00   0.0000000000000000e+00   0.0000000000000000e+00   0.0000000000000000e+00   0.0000000000000000e+00   0.0000000000000000e+00   0.0000000000000000e+00   0.0000000000000000e+00   0.0000000000000000e+00   0.0000000000000000e+00   0.0000000000000000e+00   0.0000000000000000e+00   0.0000000000000000e+00   0.0000000000000000e+00   0.0000000000000000e+00   0.0000000000000000e+00   0.0000000000000000e+00   0.0000000000000000e+00   0.0000000000000000e+00   0.0000000000000000e+00   0.0000000000000000e+00   0.0000000000000000e+00   0.0000000000000000e+00   0.0000000000000000e+00   0.0000000000000000e+00   0.0000000000000000e+00   0.0000000000000000e+00   0.0000000000000000e+00   0.0000000000000000e+00   0.0000000000000000e+00   0.0000000000000000e+00   0.0000000000000000e+00   0.0000000000000000e+00   0.0000000000000000e+00   0.0000000000000000e+00   0.0000000000000000e+00   0.0000000000000000e+00   0.0000000000000000e+00   0.0000000000000000e+00   0.0000000000000000e+00   0.0000000000000000e+00   0.0000000000000000e+00   0.0000000000000000e+00   0.0000000000000000e+00   0.0000000000000000e+00   7.6612171231104931e-01   0.0000000000000000e+00   9.9999999999999956e-01   0.0000000000000000e+00   9.9999999999999956e-01   0.0000000000000000e+00   1.0000000000000000e+00   0.0000000000000000e+00   1.0000000000000000e+00   0.0000000000000000e+00   9.9999999999999956e-01   0.0000000000000000e+00   9.9999999999999956e-01   0.0000000000000000e+00   9.9999999999999956e-01   0.0000000000000000e+00   1.0000000000000000e+00   0.0000000000000000e+00   9.9999999999999956e-01   0.0000000000000000e+00   1.0000000000000000e+00   0.0000000000000000e+00   8.7549319541604087e-01   0.0000000000000000e+00   6.2222623557514001e-01   0.0000000000000000e+00   2.8711096241596828e-01   0.0000000000000000e+00   3.5783865659561744e-02   0.0000000000000000e+00   0.0000000000000000e+00   0.0000000000000000e+00   0.0000000000000000e+00   0.0000000000000000e+00   0.0000000000000000e+00   0.0000000000000000e+00   0.0000000000000000e+00   0.0000000000000000e+00   0.0000000000000000e+00   0.0000000000000000e+00   0.0000000000000000e+00   0.0000000000000000e+00   0.0000000000000000e+00   0.0000000000000000e+00   0.0000000000000000e+00   0.0000000000000000e+00   0.0000000000000000e+00   0.0000000000000000e+00   0.0000000000000000e+00   0.0000000000000000e+00   0.0000000000000000e+00   0.0000000000000000e+00   9.9999999999999956e-01   9.9999999999999956e-01   9.9999999999999956e-01   0.0000000000000000e+00   0.0000000000000000e+00   0.0000000000000000e+00   0.0000000000000000e+00   0.0000000000000000e+00   0.0000000000000000e+00   0.0000000000000000e+00   0.0000000000000000e+00   0.0000000000000000e+00   0.0000000000000000e+00   0.0000000000000000e+00   0.0000000000000000e+00   0.0000000000000000e+00   0.0000000000000000e+00   0.0000000000000000e+00   0.0000000000000000e+00   0.0000000000000000e+00   0.0000000000000000e+00   0.0000000000000000e+00   0.0000000000000000e+00   0.0000000000000000e+00   0.0000000000000000e+00   9.3298085635662817e-02   0.0000000000000000e+00   0.0000000000000000e+00   0.0000000000000000e+00   1.9735714810798426e-02   0.0000000000000000e+00   0.0000000000000000e+00   0.0000000000000000e+00   0.0000000000000000e+00   0.0000000000000000e+00   0.0000000000000000e+00   0.0000000000000000e+00   0.0000000000000000e+00   0.0000000000000000e+00   0.0000000000000000e+00   0.0000000000000000e+00   0.0000000000000000e+00   0.0000000000000000e+00   0.0000000000000000e+00   0.0000000000000000e+00   0.0000000000000000e+00   0.0000000000000000e+00   0.0000000000000000e+00   0.0000000000000000e+00   0.0000000000000000e+00   0.0000000000000000e+00   1.6111469395752920e-02   0.0000000000000000e+00   2.7457701422488660e-02   0.0000000000000000e+00   5.2917028969936414e-02   0.0000000000000000e+00   7.5045066588191489e-02   0.0000000000000000e+00   9.4237810352740550e-02   0.0000000000000000e+00   1.1746583830509268e-01   0.0000000000000000e+00   1.9262165627916025e-01   0.0000000000000000e+00   3.2897354458000305e-01   0.0000000000000000e+00   4.4929421950177961e-01   0.00000000