<?xml version="1.0"?>
<VTKFile type="UnstructuredGrid"  version="0.1"  >
<UnstructuredGrid>
<Piece  NumberOfPoints="2309" NumberOfCells="4411">
<Points>
<DataArray  type="Float64"  NumberOfComponents="3"  format="ascii">1.809130434782608 0 0  1.817391304347826 0 0  1.817391304347826 0.008333333333333333 0  1.825652173913043 0 0  1.825652173913043 0.008333333333333333 0  1.833913043478261 0 0  1.833913043478261 0.008333333333333333 0  1.842173913043478 0 0  1.842173913043478 0.008333333333333333 0  1.850434782608696 0 0  1.850434782608696 0.008333333333333333 0  1.858695652173913 0 0  1.858695652173913 0.008333333333333333 0  1.86695652173913 0 0  1.86695652173913 0.008333333333333333 0  1.875217391304348 0 0  1.875217391304348 0.008333333333333333 0  1.883478260869565 0 0  1.883478260869565 0.008333333333333333 0  1.891739130434782 0 0  1.891739130434782 0.008333333333333333 0  1.9 0 0  1.9 0.008333333333333333 0  1.908260869565217 0 0  1.908260869565217 0.008333333333333333 0  1.916521739130435 0 0  1.916521739130435 0.008333333333333333 0  1.924782608695652 0 0  1.924782608695652 0.008333333333333333 0  1.933043478260869 0 0  1.933043478260869 0.008333333333333333 0  1.941304347826087 0 0  1.941304347826087 0.008333333333333333 0  1.949565217391304 0 0  1.949565217391304 0.008333333333333333 0  1.957826086956522 0 0  1.957826086956522 0.008333333333333333 0  1.966086956521739 0 0  1.966086956521739 0.008333333333333333 0  1.974347826086956 0 0  1.974347826086956 0.008333333333333333 0  1.982608695652174 0 0  1.982608695652174 0.008333333333333333 0  1.990869565217391 0 0  1.990869565217391 0.008333333333333333 0  1.999130434782608 0 0  1.999130434782608 0.008333333333333333 0  2.007391304347826 0 0  2.007391304347826 0.008333333333333333 0  2.015652173913043 0 0  2.015652173913043 0.008333333333333333 0  2.023913043478261 0 0  2.023913043478261 0.008333333333333333 0  2.032173913043478 0 0  2.032173913043478 0.008333333333333333 0  2.040434782608695 0 0  2.040434782608695 0.008333333333333333 0  2.048695652173913 0 0  2.048695652173913 0.008333333333333333 0  2.05695652173913 0 0  2.05695652173913 0.008333333333333333 0  2.065217391304348 0 0  2.065217391304348 0.008333333333333333 0  2.073478260869565 0 0  2.073478260869565 0.008333333333333333 0  2.081739130434782 0 0  2.081739130434782 0.008333333333333333 0  2.09 0 0  2.09 0.008333333333333333 0  2.098260869565217 0 0  2.098260869565217 0.008333333333333333 0  2.106521739130435 0 0  2.106521739130435 0.008333333333333333 0  2.114782608695652 0 0  2.114782608695652 0.008333333333333333 0  2.12304347826087 0 0  2.12304347826087 0.008333333333333333 0  2.131304347826087 0 0  2.131304347826087 0.008333333333333333 0  2.139565217391304 0 0  2.139565217391304 0.008333333333333333 0  2.147826086956522 0 0  2.147826086956522 0.008333333333333333 0  2.156086956521739 0 0  2.156086956521739 0.008333333333333333 0  2.164347826086956 0 0  2.164347826086956 0.008333333333333333 0  2.172608695652174 0 0  2.172608695652174 0.008333333333333333 0  2.180869565217391 0 0  2.180869565217391 0.008333333333333333 0  2.189130434782609 0 0  2.189130434782609 0.008333333333333333 0  2.197391304347826 0 0  2.197391304347826 0.008333333333333333 0  2.205652173913043 0 0  2.205652173913043 0.008333333333333333 0  2.213913043478261 0 0  2.213913043478261 0.008333333333333333 0  2.222173913043478 0 0  2.222173913043478 0.008333333333333333 0  2.230434782608695 0 0  2.230434782608695 0.008333333333333333 0  2.238695652173913 0 0  2.238695652173913 0.008333333333333333 0  2.24695652173913 0 0  2.24695652173913 0.008333333333333333 0  2.255217391304348 0 0  2.255217391304348 0.008333333333333333 0  2.263478260869565 0 0  2.263478260869565 0.008333333333333333 0  2.271739130434783 0 0  2.271739130434783 0.008333333333333333 0  2.28 0 0  2.28 0.008333333333333333 0  2.288260869565217 0 0  2.288260869565217 0.008333333333333333 0  2.296521739130434 0 0  2.296521739130434 0.008333333333333333 0  2.304782608695652 0 0  2.304782608695652 0.008333333333333333 0  2.31304347826087 0 0  2.31304347826087 0.008333333333333333 0  2.321304347826087 0 0  2.321304347826087 0.008333333333333333 0  2.329565217391304 0 0  2.329565217391304 0.008333333333333333 0  1.825652173913043 0.01666666666666667 0  1.817391304347826 0.01666666666666667 0  1.833913043478261 0.01666666666666667 0  1.842173913043478 0.01666666666666667 0  1.850434782608696 0.01666666666666667 0  1.858695652173913 0.01666666666666667 0  1.86695652173913 0.01666666666666667 0  1.875217391304348 0.01666666666666667 0  1.883478260869565 0.01666666666666667 0  1.891739130434782 0.01666666666666667 0  1.9 0.01666666666666667 0  1.908260869565217 0.01666666666666667 0  1.916521739130435 0.01666666666666667 0  1.924782608695652 0.01666666666666667 0  1.933043478260869 0.01666666666666667 0  1.941304347826087 0.01666666666666667 0  1.949565217391304 0.01666666666666667 0  1.957826086956522 0.01666666666666667 0  1.966086956521739 0.01666666666666667 0  1.974347826086956 0.01666666666666667 0  1.982608695652174 0.01666666666666667 0  1.990869565217391 0.01666666666666667 0  1.999130434782608 0.01666666666666667 0  2.007391304347826 0.01666666666666667 0  2.015652173913043 0.01666666666666667 0  2.023913043478261 0.01666666666666667 0  2.032173913043478 0.01666666666666667 0  2.040434782608695 0.01666666666666667 0  2.048695652173913 0.01666666666666667 0  2.05695652173913 0.01666666666666667 0  2.065217391304348 0.01666666666666667 0  2.073478260869565 0.01666666666666667 0  2.081739130434782 0.01666666666666667 0  2.09 0.01666666666666667 0  2.098260869565217 0.01666666666666667 0  2.106521739130435 0.01666666666666667 0  2.114782608695652 0.01666666666666667 0  2.12304347826087 0.01666666666666667 0  2.131304347826087 0.01666666666666667 0  2.139565217391304 0.01666666666666667 0  2.147826086956522 0.01666666666666667 0  2.156086956521739 0.01666666666666667 0  2.164347826086956 0.01666666666666667 0  2.172608695652174 0.01666666666666667 0  2.180869565217391 0.01666666666666667 0  2.189130434782609 0.01666666666666667 0  2.197391304347826 0.01666666666666667 0  2.205652173913043 0.01666666666666667 0  2.213913043478261 0.01666666666666667 0  2.222173913043478 0.01666666666666667 0  2.230434782608695 0.01666666666666667 0  2.238695652173913 0.01666666666666667 0  2.24695652173913 0.01666666666666667 0  2.255217391304348 0.01666666666666667 0  2.263478260869565 0.01666666666666667 0  2.271739130434783 0.01666666666666667 0  2.28 0.01666666666666667 0  2.288260869565217 0.01666666666666667 0  2.296521739130434 0.01666666666666667 0  2.304782608695652 0.01666666666666667 0  2.31304347826087 0.01666666666666667 0  2.321304347826087 0.01666666666666667 0  2.329565217391304 0.01666666666666667 0  2.337826086956521 0.01666666666666667 0  1.825652173913043 0.025 0  1.817391304347826 0.025 0  1.833913043478261 0.025 0  1.842173913043478 0.025 0  1.850434782608696 0.025 0  1.858695652173913 0.025 0  1.86695652173913 0.025 0  1.875217391304348 0.025 0  1.883478260869565 0.025 0  1.891739130434782 0.025 0  1.9 0.025 0  1.908260869565217 0.025 0  1.916521739130435 0.025 0  1.924782608695652 0.025 0  1.933043478260869 0.025 0  1.941304347826087 0.025 0  1.949565217391304 0.025 0  1.957826086956522 0.025 0  1.966086956521739 0.025 0  1.974347826086956 0.025 0  1.982608695652174 0.025 0  1.990869565217391 0.025 0  1.999130434782608 0.025 0  2.007391304347826 0.025 0  2.015652173913043 0.025 0  2.023913043478261 0.025 0  2.032173913043478 0.025 0  2.040434782608695 0.025 0  2.048695652173913 0.025 0  2.05695652173913 0.025 0  2.065217391304348 0.025 0  2.073478260869565 0.025 0  2.081739130434782 0.025 0  2.09 0.025 0  2.098260869565217 0.025 0  2.106521739130435 0.025 0  2.114782608695652 0.025 0  2.12304347826087 0.025 0  2.131304347826087 0.025 0  2.139565217391304 0.025 0  2.147826086956522 0.025 0  2.156086956521739 0.025 0  2.164347826086956 0.025 0  2.172608695652174 0.025 0  2.180869565217391 0.025 0  2.189130434782609 0.025 0  2.197391304347826 0.025 0  2.205652173913043 0.025 0  2.213913043478261 0.025 0  2.222173913043478 0.025 0  2.230434782608695 0.025 0  2.238695652173913 0.025 0  2.24695652173913 0.025 0  2.255217391304348 0.025 0  2.263478260869565 0.025 0  2.271739130434783 0.025 0  2.28 0.025 0  2.288260869565217 0.025 0  2.296521739130434 0.025 0  2.304782608695652 0.025 0  2.31304347826087 0.025 0  2.321304347826087 0.025 0  2.329565217391304 0.025 0  2.337826086956521 0.025 0  2.346086956521739 0.025 0  1.825652173913043 0.03333333333333333 0  1.817391304347826 0.03333333333333333 0  1.833913043478261 0.03333333333333333 0  1.842173913043478 0.03333333333333333 0  1.850434782608696 0.03333333333333333 0  1.858695652173913 0.03333333333333333 0  1.86695652173913 0.03333333333333333 0  1.875217391304348 0.03333333333333333 0  1.883478260869565 0.03333333333333333 0  1.891739130434782 0.03333333333333333 0  1.9 0.03333333333333333 0  1.908260869565217 0.03333333333333333 0  1.916521739130435 0.03333333333333333 0  1.924782608695652 0.03333333333333333 0  1.933043478260869 0.03333333333333333 0  1.941304347826087 0.03333333333333333 0  1.949565217391304 0.03333333333333333 0  1.957826086956522 0.03333333333333333 0  1.966086956521739 0.03333333333333333 0  1.974347826086956 0.03333333333333333 0  1.982608695652174 0.03333333333333333 0  1.990869565217391 0.03333333333333333 0  1.999130434782608 0.03333333333333333 0  2.007391304347826 0.03333333333333333 0  2.015652173913043 0.03333333333333333 0  2.023913043478261 0.03333333333333333 0  2.032173913043478 0.03333333333333333 0  2.040434782608695 0.03333333333333333 0  2.048695652173913 0.03333333333333333 0  2.05695652173913 0.03333333333333333 0  2.065217391304348 0.03333333333333333 0  2.073478260869565 0.03333333333333333 0  2.081739130434782 0.03333333333333333 0  2.09 0.03333333333333333 0  2.098260869565217 0.03333333333333333 0  2.106521739130435 0.03333333333333333 0  2.11478260869565
[...]
<CellData  Scalars="rho"> 
<DataArray  type="Float64"  Name="rho"  format="ascii">2.4505649884780129e-01   2.4725185483098067e-01   2.4499346882873876e-01   2.4717398693692663e-01   2.4493092841382996e-01   2.4709584105494437e-01   2.4486812149985376e-01   2.4701829815429149e-01   2.4480564068625765e-01   2.4694068057517407e-01   2.4474317449857794e-01   2.4686333698105398e-01   2.4468090336434731e-01   2.4678601545992360e-01   2.4461864675080727e-01   2.4670885222684827e-01   2.4455658350257570e-01   2.4663167525497418e-01   2.4449445909242593e-01   2.4655477262145356e-01   2.4443250304877148e-01   2.4647786769470742e-01   2.4437062709349014e-01   2.4640125457249717e-01   2.4430882227619274e-01   2.4632472825819007e-01   2.4424717216796404e-01   2.4624819432819003e-01   2.4418558329159107e-01   2.4617197551920722e-01   2.4412422955010973e-01   2.4609575732136324e-01   2.4406274515717202e-01   2.4601976966105837e-01   2.4400149017603054e-01   2.4594379930636476e-01   2.4394021160139970e-01   2.4586810376442966e-01   2.4387909558085566e-01   2.4579229452019841e-01   2.4381800249992958e-01   2.4571678317867088e-01   2.4375706987372298e-01   2.4564131098106892e-01   2.4369617339616897e-01   2.4556597888825313e-01   2.4363526155036055e-01   2.4549073554341599e-01   2.4357450675624825e-01   2.4541554597187645e-01   2.4351378014228547e-01   2.4534053488889088e-01   2.4345327659703278e-01   2.4526563054441924e-01   2.4339277144396324e-01   2.4519092577239859e-01   2.4333245997023736e-01   2.4511631596402658e-01   2.4327209623764143e-01   2.4504198363812421e-01   2.4321207713449083e-01   2.4496755400871192e-01   2.4315177261962770e-01   2.4489341167911086e-01   2.4309192876636590e-01   2.4481915953212482e-01   2.4303189632010902e-01   2.4474536459228685e-01   2.4297216858873508e-01   2.4467140181616662e-01   2.4291231936551219e-01   2.4459785395490882e-01   2.4285275579398879e-01   2.4452419334084111e-01   2.4279315806875876e-01   2.4445079597406513e-01   2.4273381528045651e-01   2.4437752548760430e-01   2.4267452329302000e-01   2.4430444095658660e-01   2.4261529629250245e-01   2.4423142788727387e-01   2.4255616831717447e-01   2.4415863934005069e-01   2.4249718979202070e-01   2.4408598242565510e-01   2.4243827033237994e-01   2.4401336064957496e-01   2.4237950415521589e-01   2.4394101116040678e-01   2.4232082783242170e-01   2.4386876842797900e-01   2.4226223555725887e-01   2.4379664088487987e-01   2.4220365253941764e-01   2.4372472729347150e-01   2.4214530410456489e-01   2.4365285287148744e-01   2.4208692094714154e-01   2.4358113017988037e-01   2.4202880345181568e-01   2.4350955718257719e-01   2.4197068598813187e-01   2.4343819080572635e-01   2.4191273010359171e-01   2.4336690401954927e-01   2.4185473092052220e-01   2.4329590078170393e-01   2.4179704050318457e-01   2.4322479802491737e-01   2.4173917772021503e-01   2.4315400564865228e-01   2.4168176366495889e-01   2.4308319302969611e-01   2.4162415109818516e-01   2.4301282357692164e-01   2.4156686781222739e-01   2.4294231467414124e-01   2.4150941322708550e-01   2.4287221720635108e-01   2.4145239523612749e-01   2.4280197881300203e-01   2.4139517662153281e-01   2.4273212768388930e-01   2.4133834125671239e-01   2.4266220177609868e-01   2.4128138060355661e-01   2.4259264471561004e-01   2.4122467154742924e-01   2.4252311411341040e-01   2.4116799486700294e-01   2.4245388049607949e-01   2.4111148499197066e-01   2.4238462488083856e-01   2.4105500364836049e-01   2.4231558950170895e-01   2.4099874944901714e-01   2.4224674002092395e-01   2.4094258959898440e-01   2.4217807857031490e-01   2.4088651383605361e-01   2.4210958371942340e-01   2.4083055729531325e-01   2.4204120862091444e-01   2.4077474171526517e-01   2.4197303115794586e-01   2.4071899580531644e-01   2.4190498290388379e-01   2.4066338053781014e-01   2.4183710971008818e-01   2.4060790804580490e-01   2.4176937085651870e-01   2.4055252668010033e-01   2.4170191028430424e-01   2.4049722775544100e-01   2.4163450155883676e-01   2.4044205807959251e-01   2.4156717398532970e-01   2.4038694601909127e-01   2.4150010583040216e-01   2.4033200616460776e-01   2.4143312502239805e-01   2.4027713146778595e-01   2.4136634069085094e-01   2.4022234375689389e-01   2.4129969096245116e-01   2.4016767425732152e-01   2.4123330595483919e-01   2.4011316464940141e-01   2.4116699867938787e-01   2.4005874271529906e-01   2.4110081682911352e-01   2.4000455863897968e-01   2.4103489007042761e-01   2.3995045366469317e-01   2.4096909277310430e-01   2.3989648677944686e-01   2.4090364830497860e-01   2.3984238471209368e-01   2.4083808159673997e-01   2.3978866377475844e-01   2.4077297833402569e-01   2.3973495946254195e-01   2.4070768796920858e-01   2.3968133695778945e-01   2.4064243445163697e-01   2.4057756153444396e-01   2.4807576605427584e-01   2.4799770560383136e-01   2.5061028936842972e-01   2.4791939582128894e-01   2.5051549219617125e-01   2.4784179297008613e-01   2.5042102203410660e-01   2.4776360970517242e-01   2.5032674329427951e-01   2.4768584785801884e-01   2.5023242261218409e-01   2.4760798480939306e-01   2.5013834153691111e-01   2.4753024945369093e-01   2.5004435235284034e-01   2.4745276158197616e-01   2.4995065816580095e-01   2.4737571038896930e-01   2.4985698497364775e-01   2.4729838697675374e-01   2.4976379499774820e-01   2.4722156118649399e-01   2.4967024169765450e-01   2.4714440271869928e-01   2.4957730983636772e-01   2.4706778828270645e-01   2.4948419231206079e-01   2.4699096128495659e-01   2.4939145257014031e-01   2.4691436638822473e-01   2.4929862812056044e-01   2.4683788805325538e-01   2.4920597673400985e-01   2.4676130029103333e-01   2.4911355333280238e-01   2.4668502763547562e-01   2.4902085506373323e-01   2.4660847238886016e-01   2.4892870274903259e-01   2.4653245204992263e-01   2.4883646410647400e-01   2.4645644548415291e-01   2.4874456275470919e-01   2.4638066190638308e-01   2.4865286432613956e-01   2.4630495891075374e-01   2.4856126038188839e-01   2.4622940430166743e-01   2.4846974881875539e-01   2.4615384544045449e-01   2.4837843328702588e-01   2.4607853589537504e-01   2.4828720286826192e-01   2.4600327262172061e-01   2.4819618504955954e-01   2.4592823664317892e-01   2.4810543895979525e-01   2.4585336761616958e-01   2.4801468621033307e-01   2.4577846980341544e-01   2.4792427757646529e-01   2.4570390497153025e-01   2.4783385139021544e-01   2.4562932627226466e-01   2.4774379832133589e-01   2.4555499933313801e-01   2.4765364664388348e-01   2.4548067083606906e-01   2.4756396387812660e-01   2.4540664025013764e-01   2.4747418180155067e-01   2.4533252029749786e-01   2.4738473332832517e-01   2.4525868010496604e-01   2.4729529973504008e-01   2.4518489130981294e-01   2.4720614630437426e-01   2.4511123540125249e-01   2.4711705378475460e-01   2.4503768474463913e-01   2.4702809962828809e-01   2.4496419647389167e-01   2.4693930722893062e-01   2.4489088897301714e-01   2.4685064270687876e-01   2.4481768403754900e-01   2.4676223958292048e-01   2.4474468134250368e-01   2.4667392306355401e-01   2.4467177664944603e-01   2.4658586053902673e-01   2.4459916028526646e-01   2.4649794225098687e-01   2.4452644520705435e-01   2.4641031831046267e-01   2.4445404550850805e-01   2.4632252776598304e-01   2.4438152384313952e-01   2.4623526778062915e-01   2.4430944955971790e-01   2.4614787087338938e-01   2.4423723632260802e-01   2.4606088128136661e-01   2.4416541269227612e-01   2.4597392668244195e-01   2.4409352239996221e-01   2.4588723406762097e-01   2.4402187501162678e-01   2.4580065565044223e-01   2.4395036245380636e-01   2.4571434735217021e-01   2.4387903706964589e-01   2.4562816399813919e-01   2.4380779463569080e-01   2.4554213193611488e-01   2.4373676855307677e-01   2.4545639783459014e-01   2.4366589300169583e-01   2.4537079141009815e-01   2.4359507091747870e-01   2.4528538065662364e-01   2.4352449924221342e-01   2.4520017315361209e-01   2.4345404188758174e-01   2.4511518352269127e-01   2.4338370259525297e-01   2.4503031778223194e-01   2.4331357998004716e-01   2.4494566221059355e-01   2.4324352188801315e-01   2.4486121290281393e-01   2.4317362165817583e-01   2.4477687151409136e-01   2.4310385866012965e-01   2.4469284390944199e-01   2.4303430475383736e-01   2.4460888596059693e-01   2.4296483676320607e-01   2.4452520144780132e-01   2.4289566536141746e-01   2.4444165915821911e-01   2.4282640082360721e-01   2.4435841124043353e-01   2.4275746168748097e-01   2.4427510068961150e-01   2.4268847824277398e-01   2.4419233050111927e-01   2.4261992919156991e-01   2.4410943275901639e-01   2.4255127654735303e-01   2.4402696847413619e-01   2.4248303384083594e-01   2.4394452026670743e-01   2.4241466873018619e-01   2.4386251630806832e-01   2.4234667670688645e-01   2.4378039466272405e-01   2.4227862419148319e-01   2.4369875412707581e-01   2.4221091061843586e-01   2.4361708062081153e-01   2.4214327869619368e-01   2.4353575523800866e-01   2.4207590634177609e-01   2.4345466383634337e-01   2.4200855840288404e-01   2.4337368955626593e-01   2.4194140069726530e-01   2.4329295095341333e-01   2.4187445110295133e-01   2.4321244727575636e-01   2.4180766745501711e-01   2.4313217619993974e-01   2.4174108382731740e-01   2.4305204940915612e-01   2.4167461284053673e-01   2.4297224974976045e-01   2.4160834632383488e-01   2.4289259932621676e-01   2.4154221102716719e-01   2.4281316691230062e-01   2.4147626153953172e-01   2.4273395156455174e-01   2.4141044207125534e-01   2.4265495406622897e-01   2.4134491308095612e-01   2.4257619353773280e-01   2.4127946277003656e-01   2.4249764091441170e-01   2.4121408058500077e-01   2.4241929206006793e-01   2.4114895344529705e-01   2.4234106287747442e-01   2.4108392320198668e-01   2.4226312339692094e-01   2.4101907081804744e-01   2.4218544721709631e-01   2.4095433624842882e-01   2.4210795466957241e-01   2.4088986265602572e-01   2.4203068215212795e-01   2.4082550404347977e-01   2.4195354738465846e-01   2.4076131695023217e-01   2.4187653620700514e-01   2.4069736732002117e-01   2.4179999298751861e-01   2.4063352538411747e-01   2.4172353915913214e-01   2.4057010248453004e-01   2.4164724740131271e-01   2.4050648061974061e-01   2.4157159739385020e-01   2.4044341999764116e-01   2.4149575673757012e-01   2.4038024568991717e-01   2.4142034361823148e-01   2.4031694742988960e-01   2.4134478433613787e-01   2.4025396658307657e-01   2.4126983085885353e-01   2.5011572563978413e-01   2.5002219846321666e-01   2.5276559556791611e-01   2.4992915947434580e-01   2.5265511256576584e-01   2.4983612810857120e-01   2.5254533303952020e-01   2.4974309312141169e-01   2.5243547924048060e-01   2.4965029358642349e-01   2.5232572536793646e-01   2.4955763623702265e-01   2.5221603840705858e-01   2.4946530533331557e-01   2.5210677168521656e-01   2.4937300815465108e-01   2.5199777604259599e-01   2.4928118873310573e-01   2.5188880931215057e-01   2.4918900250138284e-01   2.5178027758152638e-01   2.4909744079873919e-01   2.5167145073219632e-01   2.4900568081898827e-01   2.5156326841401117e-01   2.4891430945135823e-01   2.5145490700918577e-01   2.4882287875672318e-01   2.5134678493599877e-01   2.4873158752575650e-01   2.5123889409244621e-01   2.4864054223528925e-01   2.5113081885338007e-01   2.4854923883780680e-01   2.5102316744125552e-01   2.4845844584284552e-01   2.5091535958403577e-01   2.4836765022414181e-01   2.5080810128369707e-01   2.4827712725581960e-01   2.5070098547214448e-01   2.4818684732152507e-01   2.5059404204659369e-01   2.4809664479176816e-01   2.5048731342453695e-01   2.4800656000885699e-01   2.5038064734408039e-01   2.4791665871784291e-01   2.5027413463685028e-01   2.4782688559062377e-01   2.5016786791256362e-01   2.4773728369164280e-01   2.5006188053709483e-01   2.4764799541826896e-01   2.4995596365636349e-01   2.4755867228881279e-01   2.4985045401181211e-01   2.4746972926683322e-01   2.4974479681738201e-01   2.4738076173335857e-01   2.4963961996341205e-01   2.4729219566722965e-01   2.4953441292103920e-01   2.4720352290372608e-01   2.4942972716082273e-01   2.4711531844928780e-01   2.4932493371249148e-01   2.4702701962458049e-01   2.4922062489940858e-01   2.4693905606110964e-01   2.4911618905192959e-01   2.4685113069328543e-01   2.4901213889777304e-01   2.4676347308422661e-01   2.4890821282720918e-01   2.4667590725658914e-01   2.4880448732797267e-01   2.4658846028305731e-01   2.4870095186379820e-01   2.4650119563774583e-01   2.4859751007086767e-01   2.4641405344909098e-01   2.4849435704315861e-01   2.4632718271876966e-01   2.4839133350452339e-01   2.4624040845949668e-01   2.4828860217788457e-01   2.4615389912527033e-01   2.4818604075439823e-01   2.4606750096005167e-01   2.4808385637394856e-01   2.4598143701577788e-01   2.4798158457105113e-01   2.4589520174521565e-01   2.4787976120172758e-01   2.4580950137921051e-01   2.4777784006675393e-01   2.4572368737109962e-01   2.4767647582504568e-01   2.4563826844075703e-01   2.4757505492497756e-01   2.4555290058030924e-01   2.4747406764912222e-01   2.4546778101481287e-01   2.4737315158008197e-01   2.4538281131402367e-01   2.4727245872272802e-01   2.4529809726250665e-01   2.4717206705576708e-01   2.4521353356988015e-01   2.4707185024816494e-01   2.4512911549188426e-01   2.4697191828691911e-01   2.4504498691575577e-01   2.4687219415561101e-01   2.4496099813160943e-01   2.4677272133717432e-01   2.4487720975162713e-01   2.4667338477964870e-01   2.4479363833005813e-01   2.4657437489615985e-01   2.4471028275295936e-01   2.4647559679678299e-01   2.4462707300722858e-01   2.4637704587192985e-01   2.4454404538264490e-01   2.4627876501169213e-01   2.4446124055291454e-01   2.4618059348985180e-01   2.4437854714891635e-01   2.4608271281684949e-01   2.4429619364835317e-01   2.4598495702302961e-01   2.4421391882250676e-01   2.4588761472747719e-01   2.4413192331075712e-01   2.4579044222389332e-01   2.4405003522228155e-01   2.4569365657985603e-01   2.4396847117992193e-01   2.4559680591312771e-01   2.4388684573007638e-01   2.4550042714479195e-01   2.4380577363606881e-01   2.4540403163065097e-01   2.4372459254507556e-01   2.4530823679528307e-01   2.4364384241676545e-01   2.4521236563667498e-01   2.4356309122060041e-01   2.4511707491773868e-01   2.4348279256942204e-01   2.4502167739160602e-01   2.4340240406055050e-01   2.4492679252512578e-01   2.4332248165944836e-01   2.4483190989856335e-01   2.4324257751778575e-01   2.4473747494263634e-01   2.4316297624907893e-01   2.4464325059583802e-01   2.4308363560969640e-01   2.4454929861662952e-01   2.4300439328707005e-01   2.4445561763374068e-01   2.4292542179558643e-01   2.4436208993455977e-01   2.4284666607944705e-01   2.4426894994760839e-01   2.4276817276926030e-01   2.4417599756717653e-01   2.4268981363509276e-01   2.4408340819964200e-01   2.4261178311047421e-01   2.4399100789511066e-01   2.4253390886021728e-01   2.4389895217921301e-01   2.4245625631488768e-01   2.4380709088140293e-01   2.4237883179904335e-01   2.4371551586117399e-01   2.4230162958300880e-01   2.4362421367968934e-01   2.4222468393975830e-01   2.4353319048569635e-01   2.4214791863650253e-01   2.4344247979345390e-01   2.4207139643102982e-01   2.4335190383400157e-01   2.4199499039960687e-01   2.4326172431801671e-01   2.4191885552790801e-01   2.4317177107293136e-01   2.4184301350705822e-01   2.4308212778890306e-01   2.4176734601854824e-01   2.4299285381037433e-01   2.4169191254603720e-01   2.4290376843805417e-01   2.4161662801898673e-01   2.4281489822224583e-01   2.4154143718457777e-01   2.4272622031391775e-01   2.4146673449976425e-01   2.4263781743085824e-01   2.4139210082746243e-01   2.4254979669118715e-01   2.4131767960463055e-01   2.4246182081049655e-01   2.4124386291067901e-01   2.4237445138618804e-01   2.4116990025702351e-01   2.4228748112284682e-01   2.4109631140812590e-01   2.4220057235239156e-01   2.4102258335451415e-01   2.4211382354628530e-01   2.4094956946297150e-01   2.4202764449893979e-01   2.4194197765983363e-01   2.5229484584995132e-01   2.5218542233904850e-01   2.5503726637343316e-01   2.5207673918748896e-01   2.5491072036542867e-01   2.5196791899257093e-01   2.5478497435880254e-01   2.5185929871664003e-01   2.5465869724566531e-01   2.5175071892374817e-01   2.5453304606140209e-01   2.5164258431106040e-01   2.5440766387905650e-01   2.5153471369790131e-01   2.5428249510181439e-01   2.5142691276975021e-01   2.5415767458533611e-01   2.5131953751117803e-01   2.5403274561210326e-01   2.5121193066434139e-01   2.5390829895870781e-01   2.5110490149635850e-01   2.5378395122542158e-01   2.5099775371649841e-01   2.5365971748436839e-01   2.5089081441014505e-01   2.5353564760965575e-01   2.5078414664078419e-01   2.5341165670975513e-01   2.5067724383734452e-01   2.5328805000082255e-01   2.5057080556381645e-01   2.5316407274575892e-01   2.5046418930799685e-01   2.5304086530203096e-01   2.5035810909223694e-01   2.5291745951706868e-01   2.5025220914839086e-01   2.5279452277064596e-01   2.5014648727716071e-01   2.5267169160399577e-01   2.5004098161570121e-01   2.5254918608048627e-01   2.4993555530503953e-01   2.5242670976045584e-01   2.4983028201688964e-01   2.5230455850458994e-01   2.4972521620513558e-01   2.5218257805719729e-01   2.4962049549859916e-01   2.5206071008626096e-01   2.4951581248461210e-01   2.5193925691333113e-01   2.4941158846824554e-01   2.5181778047347370e-01   2.4930721687839491e-01   2.5169673576136903e-01   2.4920333214473414e-01   2.5157573387436299e-01   2.4909938020018565e-01   2.5145523028921141e-01   2.4899600010346012e-01   2.5133460004277375e-01   2.4889249796284774e-01   2.5121458641881816e-01   2.4878950489624621e-01   2.5109445743362591e-01   2.4868639894404204e-01   2.5097478516046179e-01   2.4858367169785253e-01   2.5085513670061488e-01   2.4848107291841526e-01   2.5073587720068446e-01   2.4837867087077134e-01   2.5061673826644382e-01   2.4827649331169538e-01   2.5049776609211472e-01   2.4817439911113409e-01   2.5037908166020190e-01   2.4807260533784625e-01   2.5026055569356159e-01   2.4797093134261464e-01   2.5014234769222177e-01   2.4786957212038951e-01   2.5002428643343472e-01   2.4776837292570053e-01   2.4990656987051618e-01   2.4766758353545801e-01   2.4978904467494389e-01   2.4756667639179469e-01   2.4967190924198968e-01   2.4746626552049550e-01   2.4955463069226275e-01   2.4736572575198762e-01   2.4943799638864197e-01   2.4726575557089955e-01   2.4932127029344547e-01   2.4716573967252897e-01   2.4920503511494352e-01   2.4706615710257726e-01   2.4908890089245309e-01   2.4696667019496496e-01   2.4897306722914303e-01   2.4686740829104320e-01   2.4885746331969685e-01   2.4676844696438857e-01   2.4874217398530796e-01   2.4666965029011198e-01   2.4862719043589662e-01   2.4657117189019903e-01   2.4851232061739723e-01   2.4647289218579788e-01   2.4839793286952469e-01   2.4637488134886765e-01   2.4828363206746992e-01   2.4627702707462024e-01   2.4816967406413190e-01   2.4617948158606195e-01   2.4805599227589920e-01   2.4608216940050334e-01   2.4794266453600020e-01   2.4598508807462380e-01   2.4782948643578259e-01   2.4588830552931434e-01   2.4771662955676363e-01   2.4579162509904437e-01   2.4760403578190260e-01   2.4569527605259578e-01   2.4749158648722203e-01   2.4559901267751039e-01   2.4737961079105875e-01   2.4550317823309475e-01   2.4726776242014700e-01   2.4540750964239164e-01   2.4715634297305639e-01   2.4531226615124271e-01   2.4704513473784898e-01   2.4521693637030734e-01   2.4693429960360411e-01   2.4512212597274402e-01   2.4682341664192223e-01   2.4502725486358942e-01   2.4671326375374428e-01   2.4493300911047411e-01   2.4660299263865232e-01   2.4483868842841069e-01   2.4649334274829582e-01   2.4474497907354723e-01   2.4638374918173780e-01   2.4465113963988927e-01   2.4627476362618275e-01   2.4455783854692273e-01   2.4616562070663892e-01   2.4446452730672247e-01   2.4605716959650023e-01   2.4437166828337767e-01   2.4594869597486310e-01   2.4427904889907689e-01   2.4584072819970429e-01   2.4418668308998986e-01   2.4573310626687789e-01   2.4409461695526888e-01   2.4562565071405851e-01   2.4400270026515034e-01   2.4551860839867276e-01   2.4391117778041427e-01   2.4541184101918001e-01   2.4381983549529412e-01   2.4530543241872541