<?xml version="1.0"?>
<VTKFile type="UnstructuredGrid"  version="0.1"  >
<UnstructuredGrid>
<Piece  NumberOfPoints="2319" NumberOfCells="4439">
<Points>
<DataArray  type="Float64"  NumberOfComponents="3"  format="ascii">1.032608695652174 0 0  1.040869565217391 0 0  1.040869565217391 0.008333333333333333 0  1.049130434782609 0 0  1.049130434782609 0.008333333333333333 0  1.057391304347826 0 0  1.057391304347826 0.008333333333333333 0  1.065652173913043 0 0  1.065652173913043 0.008333333333333333 0  1.073913043478261 0 0  1.073913043478261 0.008333333333333333 0  1.082173913043478 0 0  1.082173913043478 0.008333333333333333 0  1.090434782608696 0 0  1.090434782608696 0.008333333333333333 0  1.098695652173913 0 0  1.098695652173913 0.008333333333333333 0  1.10695652173913 0 0  1.10695652173913 0.008333333333333333 0  1.115217391304348 0 0  1.115217391304348 0.008333333333333333 0  1.123478260869565 0 0  1.123478260869565 0.008333333333333333 0  1.131739130434783 0 0  1.131739130434783 0.008333333333333333 0  1.14 0 0  1.14 0.008333333333333333 0  1.148260869565217 0 0  1.148260869565217 0.008333333333333333 0  1.156521739130435 0 0  1.156521739130435 0.008333333333333333 0  1.164782608695652 0 0  1.164782608695652 0.008333333333333333 0  1.17304347826087 0 0  1.17304347826087 0.008333333333333333 0  1.181304347826087 0 0  1.181304347826087 0.008333333333333333 0  1.189565217391304 0 0  1.189565217391304 0.008333333333333333 0  1.197826086956522 0 0  1.197826086956522 0.008333333333333333 0  1.206086956521739 0 0  1.206086956521739 0.008333333333333333 0  1.214347826086956 0 0  1.214347826086956 0.008333333333333333 0  1.222608695652174 0 0  1.222608695652174 0.008333333333333333 0  1.230869565217391 0 0  1.230869565217391 0.008333333333333333 0  1.239130434782609 0 0  1.239130434782609 0.008333333333333333 0  1.247391304347826 0 0  1.247391304347826 0.008333333333333333 0  1.255652173913044 0 0  1.255652173913044 0.008333333333333333 0  1.263913043478261 0 0  1.263913043478261 0.008333333333333333 0  1.272173913043478 0 0  1.272173913043478 0.008333333333333333 0  1.280434782608696 0 0  1.280434782608696 0.008333333333333333 0  1.288695652173913 0 0  1.288695652173913 0.008333333333333333 0  1.296956521739131 0 0  1.296956521739131 0.008333333333333333 0  1.305217391304348 0 0  1.305217391304348 0.008333333333333333 0  1.313478260869565 0 0  1.313478260869565 0.008333333333333333 0  1.321739130434783 0 0  1.321739130434783 0.008333333333333333 0  1.33 0 0  1.33 0.008333333333333333 0  1.338260869565217 0 0  1.338260869565217 0.008333333333333333 0  1.346521739130435 0 0  1.346521739130435 0.008333333333333333 0  1.354782608695652 0 0  1.354782608695652 0.008333333333333333 0  1.049130434782609 0.01666666666666667 0  1.057391304347826 0.01666666666666667 0  1.065652173913043 0.01666666666666667 0  1.073913043478261 0.01666666666666667 0  1.082173913043478 0.01666666666666667 0  1.090434782608696 0.01666666666666667 0  1.098695652173913 0.01666666666666667 0  1.10695652173913 0.01666666666666667 0  1.115217391304348 0.01666666666666667 0  1.123478260869565 0.01666666666666667 0  1.131739130434783 0.01666666666666667 0  1.14 0.01666666666666667 0  1.148260869565217 0.01666666666666667 0  1.156521739130435 0.01666666666666667 0  1.164782608695652 0.01666666666666667 0  1.17304347826087 0.01666666666666667 0  1.181304347826087 0.01666666666666667 0  1.189565217391304 0.01666666666666667 0  1.197826086956522 0.01666666666666667 0  1.206086956521739 0.01666666666666667 0  1.214347826086956 0.01666666666666667 0  1.222608695652174 0.01666666666666667 0  1.230869565217391 0.01666666666666667 0  1.239130434782609 0.01666666666666667 0  1.247391304347826 0.01666666666666667 0  1.255652173913044 0.01666666666666667 0  1.263913043478261 0.01666666666666667 0  1.272173913043478 0.01666666666666667 0  1.280434782608696 0.01666666666666667 0  1.288695652173913 0.01666666666666667 0  1.296956521739131 0.01666666666666667 0  1.305217391304348 0.01666666666666667 0  1.313478260869565 0.01666666666666667 0  1.321739130434783 0.01666666666666667 0  1.33 0.01666666666666667 0  1.338260869565217 0.01666666666666667 0  1.346521739130435 0.01666666666666667 0  1.354782608695652 0.01666666666666667 0  1.36304347826087 0.01666666666666667 0  1.057391304347826 0.025 0  1.065652173913043 0.025 0  1.073913043478261 0.025 0  1.082173913043478 0.025 0  1.090434782608696 0.025 0  1.098695652173913 0.025 0  1.10695652173913 0.025 0  1.115217391304348 0.025 0  1.123478260869565 0.025 0  1.131739130434783 0.025 0  1.14 0.025 0  1.148260869565217 0.025 0  1.156521739130435 0.025 0  1.164782608695652 0.025 0  1.17304347826087 0.025 0  1.181304347826087 0.025 0  1.189565217391304 0.025 0  1.197826086956522 0.025 0  1.206086956521739 0.025 0  1.214347826086956 0.025 0  1.222608695652174 0.025 0  1.230869565217391 0.025 0  1.239130434782609 0.025 0  1.247391304347826 0.025 0  1.255652173913044 0.025 0  1.263913043478261 0.025 0  1.272173913043478 0.025 0  1.280434782608696 0.025 0  1.288695652173913 0.025 0  1.296956521739131 0.025 0  1.305217391304348 0.025 0  1.313478260869565 0.025 0  1.321739130434783 0.025 0  1.33 0.025 0  1.338260869565217 0.025 0  1.346521739130435 0.025 0  1.354782608695652 0.025 0  1.36304347826087 0.025 0  1.371304347826087 0.025 0  1.065652173913043 0.03333333333333333 0  1.073913043478261 0.03333333333333333 0  1.082173913043478 0.03333333333333333 0  1.090434782608696 0.03333333333333333 0  1.098695652173913 0.03333333333333333 0  1.10695652173913 0.03333333333333333 0  1.115217391304348 0.03333333333333333 0  1.123478260869565 0.03333333333333333 0  1.131739130434783 0.03333333333333333 0  1.14 0.03333333333333333 0  1.148260869565217 0.03333333333333333 0  1.156521739130435 0.03333333333333333 0  1.164782608695652 0.03333333333333333 0  1.17304347826087 0.03333333333333333 0  1.181304347826087 0.03333333333333333 0  1.189565217391304 0.03333333333333333 0  1.197826086956522 0.03333333333333333 0  1.206086956521739 0.03333333333333333 0  1.214347826086956 0.03333333333333333 0  1.222608695652174 0.03333333333333333 0  1.230869565217391 0.03333333333333333 0  1.239130434782609 0.03333333333333333 0  1.247391304347826 0.03333333333333333 0  1.255652173913044 0.03333333333333333 0  1.263913043478261 0.03333333333333333 0  1.272173913043478 0.03333333333333333 0  1.280434782608696 0.03333333333333333 0  1.288695652173913 0.03333333333333333 0  1.296956521739131 0.03333333333333333 0  1.305217391304348 0.03333333333333333 0  1.313478260869565 0.03333333333333333 0  1.321739130434783 0.03333333333333333 0  1.33 0.03333333333333333 0  1.338260869565217 0.03333333333333333 0  1.346521739130435 0.03333333333333333 0  1.354782608695652 0.03333333333333333 0  1.36304347826087 0.03333333333333333 0  1.371304347826087 0.03333333333333333 0  1.379565217391304 0.03333333333333333 0  1.073913043478261 0.04166666666666666 0  1.082173913043478 0.04166666666666666 0  1.090434782608696 0.04166666666666666 0  1.098695652173913 0.04166666666666666 0  1.10695652173913 0.04166666666666666 0  1.115217391304348 0.04166666666666666 0  1.123478260869565 0.04166666666666666 0  1.131739130434783 0.04166666666666666 0  1.14 0.04166666666666666 0  1.148260869565217 0.04166666666666666 0  1.156521739130435 0.04166666666666666 0  1.164782608695652 0.04166666666666666 0  1.17304347826087 0.04166666666666666 0  1.181304347826087 0.04166666666666666 0  1.189565217391304 0.04166666666666666 0  1.197826086956522 0.04166666666666666 0  1.206086956521739 0.04166666666666666 0  1.214347826086956 0.04166666666666666 0  1.222608695652174 0.04166666666666666 0  1.230869565217391 0.04166666666666666 0  1.239130434782609 0.04166666666666666 0  1.247391304347826 0.04166666666666666 0  1.255652173913044 0.04166666666666666 0  1.263913043478261 0.04166666666666666 0  1.272173913043478 0.04166666666666666 0  1.280434782608696 0.04166666666666666 0  1.288695652173913 0.04166666666666666 0  1.296956521739131 0.04166666666666666 0  1.305217391304348 0.04166666666666666 0  1.313478260869565 0.04166666666666666 0  1.321739130434783 0.04166666666666666 0  1.33 0.04166666666666666 0  1.338260869565217 0.04166666666666666 0  1.346521739130435 0.04166666666666666 0  1.354782608695652 0.04166666666666666 0  1.36304347826087 0.04166666666666666 0  1.371304347826087 0.04166666666666666 0  1.379565217391304 0.04166666666666666 0  1.387826086956522 0.04166666666666666 0  1.082173913043478 0.05 0  1.090434782608696 0.05 0  1.098695652173913 0.05 0  1.10695652173913 0.05 0  1.115217391304348 0.05 0  1.123478260869565 0.05 0  1.131739130434783 0.05 0  1.14 0.05 0  1.148260869565217 0.05 0  1.156521739130435 0.05 0  1.164782608695652 0.05 0  1.17304347826087 0.05 0  1.181304347826087 0.05 0  1.189565217391304 0.05 0  1.197826086956522 0.05 0  1.206086956521739 0.05 0  1.214347826086956 0.05 0  1.222608695652174 0.05 0  1.230869565217391 0.05 0  1.239130434782609 0.05 0  1.247391304347826 0.05 0  1.255652173913044 0.05 0  1.263913043478261 0.05 0  1.272173913043478 0.05 0  1.280434782608696 0.05 0  1.288695652173913 0.05 0  1.296956521739131 0.05 0  1.305217391304348 0.05 0  1.313478260869565 0.05 0  1.321739130434783 0.05 0  1.33 0.05 0  1.338260869565217 0.05 0  1.346521739130435 0.05 0  1.354782608695652 0.05 0  1.36304347826087 0.05 0  1.371304347826087 0.05 0  1.379565217391304 0.05 0  1.387826086956522 0.05 0  1.396086956521739 0.05 0  1.090434782608696 0.05833333333333333 0  1.098695652173913 0.05833333333333333 0  1.10695652173913 0.05833333333333333 0  1.115217391304348 0.05833333333333333 0  1.123478260869565 0.05833333333333333 0  1.131739130434783 0.05833333333333333 0  1.14 0.05833333333333333 0  1.148260869565217 0.05833333333333333 0  1.156521739130435 0.05833333333333333 0  1.164782608695652 0.05833333333333333 0  1.17304347826087 0.05833333333333333 0  1.181304347826087 0.05833333333333333 0  1.189565217391304 0.05833333333333333 0  1.197826086956522 0.05833333333333333 0  
[...]
<CellData  Scalars="rho_bar"> 
<DataArray  type="Float64"  Name="rho_bar"  format="ascii">0.0000000000000000e+00   2.9627478665182422e-01   0.0000000000000000e+00   4.6505027536511789e-01   0.0000000000000000e+00   6.5760030925791690e-01   0.0000000000000000e+00   8.9298299654494651e-01   0.0000000000000000e+00   9.3058568052158719e-01   0.0000000000000000e+00   9.2682537677383725e-01   0.0000000000000000e+00   9.1741912286724991e-01   0.0000000000000000e+00   9.0050150250247007e-01   0.0000000000000000e+00   8.7720688622661425e-01   0.0000000000000000e+00   7.9964432717748812e-01   0.0000000000000000e+00   6.9467153144349159e-01   0.0000000000000000e+00   4.5183633944487384e-01   0.0000000000000000e+00   2.7968854427436640e-01   0.0000000000000000e+00   1.2319206169406478e-01   0.0000000000000000e+00   2.2717093956149709e-02   0.0000000000000000e+00   0.0000000000000000e+00   0.0000000000000000e+00   0.0000000000000000e+00   0.0000000000000000e+00   6.9238904435773144e-02   0.0000000000000000e+00   0.0000000000000000e+00   0.0000000000000000e+00   9.2426300886727056e-02   0.0000000000000000e+00   6.3000506347711677e-02   0.0000000000000000e+00   6.6140112687319175e-02   0.0000000000000000e+00   2.2020867947844933e-01   0.0000000000000000e+00   1.6243144223671910e-01   0.0000000000000000e+00   2.6101799482850163e-01   0.0000000000000000e+00   3.6627736168831054e-01   0.0000000000000000e+00   4.1391050299596843e-01   0.0000000000000000e+00   5.2487231824280023e-01   0.0000000000000000e+00   6.1314570076573394e-01   0.0000000000000000e+00   7.7375185902220367e-01   0.0000000000000000e+00   7.7230346968680030e-01   0.0000000000000000e+00   7.5626771745174470e-01   0.0000000000000000e+00   7.0461986299334134e-01   6.8129399470803198e-01   0.0000000000000000e+00   0.0000000000000000e+00   1.5531680283936780e-01   0.0000000000000000e+00   4.2461306948909261e-02   0.0000000000000000e+00   0.0000000000000000e+00   0.0000000000000000e+00   0.0000000000000000e+00   0.0000000000000000e+00   0.0000000000000000e+00   0.0000000000000000e+00   0.0000000000000000e+00   0.0000000000000000e+00   0.0000000000000000e+00   0.0000000000000000e+00   0.0000000000000000e+00   0.0000000000000000e+00   0.0000000000000000e+00   0.0000000000000000e+00   0.0000000000000000e+00   0.0000000000000000e+00   0.0000000000000000e+00   0.0000000000000000e+00   0.0000000000000000e+00   0.0000000000000000e+00   0.0000000000000000e+00   0.0000000000000000e+00   0.0000000000000000e+00   0.0000000000000000e+00   0.0000000000000000e+00   0.0000000000000000e+00   0.0000000000000000e+00   0.0000000000000000e+00   0.0000000000000000e+00   0.0000000000000000e+00   0.0000000000000000e+00   0.0000000000000000e+00   0.0000000000000000e+00   0.0000000000000000e+00   0.0000000000000000e+00   0.0000000000000000e+00   0.0000000000000000e+00   0.0000000000000000e+00   0.0000000000000000e+00   0.0000000000000000e+00   0.0000000000000000e+00   0.0000000000000000e+00   0.0000000000000000e+00   0.0000000000000000e+00   4.4397986357310154e-01   0.0000000000000000e+00   5.0058225575218451e-01   0.0000000000000000e+00   2.3012873194918052e-01   0.0000000000000000e+00   0.0000000000000000e+00   0.0000000000000000e+00   0.0000000000000000e+00   0.0000000000000000e+00   2.6509549983832700e-02   0.0000000000000000e+00   1.5106038721667128e-01   0.0000000000000000e+00   2.8949700343878793e-01   0.0000000000000000e+00   3.2400937336215307e-01   0.0000000000000000e+00   3.6216303022087437e-01   0.0000000000000000e+00   3.6295726491053504e-01   0.0000000000000000e+00   3.5535402568577190e-01   0.0000000000000000e+00   3.5255542943404655e-01   0.0000000000000000e+00   3.3668120975833143e-01   0.0000000000000000e+00   3.2823019144571292e-01   0.0000000000000000e+00   3.1582357964300883e-01   0.0000000000000000e+00   3.0071055079058162e-01   0.0000000000000000e+00   2.8111961039113131e-01   0.0000000000000000e+00   2.6436279181104294e-01   0.0000000000000000e+00   2.5019208978108781e-01   0.0000000000000000e+00   2.0196729074211786e-01   0.0000000000000000e+00   1.7473191889021361e-01   0.0000000000000000e+00   1.4195062866414537e-01   0.0000000000000000e+00   1.2679203401176117e-01   0.0000000000000000e+00   1.2297134856278444e-01   0.0000000000000000e+00   1.4232768488225619e-01   0.0000000000000000e+00   1.0869873880079624e-01   0.0000000000000000e+00   1.0519541246172692e-01   0.0000000000000000e+00   1.2531001268879333e-01   0.0000000000000000e+00   2.2309947491459425e-01   0.0000000000000000e+00   3.5131869247796382e-01   0.0000000000000000e+00   2.2337939136606752e-01   0.0000000000000000e+00   4.1259506346986628e-02   0.0000000000000000e+00   1.3324562501551657e-01   0.0000000000000000e+00   2.0026022665409499e-01   0.0000000000000000e+00   8.0285287563901442e-01   0.0000000000000000e+00   8.8182875255808069e-01   0.0000000000000000e+00   8.7169248696976576e-01   0.0000000000000000e+00   7.5579310628514862e-01   0.0000000000000000e+00   1.7161115408925143e-01   0.0000000000000000e+00   6.2574233664558454e-01   0.0000000000000000e+00   5.5586007608549581e-01   0.0000000000000000e+00   5.5070094600759167e-01   0.0000000000000000e+00   5.5042183755838736e-01   0.0000000000000000e+00   4.5780799337653405e-01   0.0000000000000000e+00   3.7875911089014791e-01   0.0000000000000000e+00   3.6173784002903175e-01   0.0000000000000000e+00   3.9980406611917135e-01   0.0000000000000000e+00   3.6055311226912390e-01   0.0000000000000000e+00   2.7059886300608077e-01   0.0000000000000000e+00   2.4221288608196531e-01   0.0000000000000000e+00   2.0292399786893625e-01   0.0000000000000000e+00   2.7562917205934484e-01   0.0000000000000000e+00   1.4875135133076789e-01   0.0000000000000000e+00   2.4034128157603057e-01   0.0000000000000000e+00   3.7129057122434816e-01   0.0000000000000000e+00   5.5362501574715250e-01   0.0000000000000000e+00   7.8457993439728113e-01   0.0000000000000000e+00   9.3571638674425828e-01   0.0000000000000000e+00   9.3658425501341980e-01   0.0000000000000000e+00   9.3101006803698416e-01   0.0000000000000000e+00   9.1863233295320801e-01   0.0000000000000000e+00   9.0135360128312825e-01   0.0000000000000000e+00   8.7705258465402336e-01   0.0000000000000000e+00   7.9363342328458542e-01   0.0000000000000000e+00   5.9393237394161491e-01   0.0000000000000000e+00   3.5944182649231432e-01   0.0000000000000000e+00   2.2726994254121108e-01   0.0000000000000000e+00   1.4249936669140398e-01   0.0000000000000000e+00   0.0000000000000000e+00   0.0000000000000000e+00   0.0000000000000000e+00   0.0000000000000000e+00   2.1211004612915339e-04   0.0000000000000000e+00   0.0000000000000000e+00   0.0000000000000000e+00   0.0000000000000000e+00   0.0000000000000000e+00   3.7225571511167239e-02   0.0000000000000000e+00   0.0000000000000000e+00   0.0000000000000000e+00   2.1530460547958377e-01   0.0000000000000000e+00   7.6903139873808507e-02   0.0000000000000000e+00   1.0308599203198761e-01   0.0000000000000000e+00   2.1255565521310746e-01   0.0000000000000000e+00   2.9843787715840681e-01   0.0000000000000000e+00   4.4730229918999992e-01   0.0000000000000000e+00   5.3781371793968047e-01   0.0000000000000000e+00   7.5351234169932202e-01   0.0000000000000000e+00   7.9612635416658240e-01   0.0000000000000000e+00   7.9732057303633719e-01   0.0000000000000000e+00   7.7093057446429536e-01   0.0000000000000000e+00   7.2859142536876886e-01   0.0000000000000000e+00   6.7023501096248472e-01   0.0000000000000000e+00   6.3892183822301685e-01   5.9461393895374592e-01   0.0000000000000000e+00   0.0000000000000000e+00   0.0000000000000000e+00   0.0000000000000000e+00   0.0000000000000000e+00   0.0000000000000000e+00   0.0000000000000000e+00   0.0000000000000000e+00   0.0000000000000000e+00   0.0000000000000000e+00   0.0000000000000000e+00   0.0000000000000000e+00   0.0000000000000000e+00   0.0000000000000000e+00   0.0000000000000000e+00   0.0000000000000000e+00   0.0000000000000000e+00   0.0000000000000000e+00   0.0000000000000000e+00   0.0000000000000000e+00   0.0000000000000000e+00   0.0000000000000000e+00   0.0000000000000000e+00   0.0000000000000000e+00   0.0000000000000000e+00   0.0000000000000000e+00   0.0000000000000000e+00   0.0000000000000000e+00   0.0000000000000000e+00   0.0000000000000000e+00   0.0000000000000000e+00   0.0000000000000000e+00   0.0000000000000000e+00   0.0000000000000000e+00   0.0000000000000000e+00   0.0000000000000000e+00   0.0000000000000000e+00   0.0000000000000000e+00   0.0000000000000000e+00   0.0000000000000000e+00   0.0000000000000000e+00   0.0000000000000000e+00   0.0000000000000000e+00   0.0000000000000000e+00   0.0000000000000000e+00   0.0000000000000000e+00   0.0000000000000000e+00   0.0000000000000000e+00   3.0199527853539787e-01   0.0000000000000000e+00   5.1019454339188541e-01   0.0000000000000000e+00   3.3366784659649673e-01   0.0000000000000000e+00   1.5459006445116760e-01   0.0000000000000000e+00   8.4580190448302783e-02   0.0000000000000000e+00   1.2589276614516931e-01   0.0000000000000000e+00   2.5903186473244671e-01   0.0000000000000000e+00   3.2179764386148518e-01   0.0000000000000000e+00   3.8158996556736663e-01   0.0000000000000000e+00   4.0213349346712118e-01   0.0000000000000000e+00   4.0676846056250848e-01   0.0000000000000000e+00   3.9567481072494232e-01   0.0000000000000000e+00   3.7738217490774872e-01   0.0000000000000000e+00   3.5763691967205780e-01   0.0000000000000000e+00   3.2218616664537930e-01   0.0000000000000000e+00   3.0356889998757119e-01   0.0000000000000000e+00   2.7855486565962823e-01   0.0000000000000000e+00   2.5023492733539915e-01   0.0000000000000000e+00   2.3172695822923395e-01   0.0000000000000000e+00   2.1060491563974681e-01   0.0000000000000000e+00   1.4220332874589270e-01   0.0000000000000000e+00   1.1343427578890199e-01   0.0000000000000000e+00   1.1054330851738642e-01   0.0000000000000000e+00   1.2078115327005132e-01   0.0000000000000000e+00   9.8874351148716053e-02   0.0000000000000000e+00   1.3222377996687076e-01   0.0000000000000000e+00   7.5250662369582319e-02   0.0000000000000000e+00   8.5267522695645942e-02   0.0000000000000000e+00   6.1743868837124717e-02   0.0000000000000000e+00   1.0448658055835364e-01   0.0000000000000000e+00   2.1185631652527212e-01   0.0000000000000000e+00   2.6526356917130833e-01   0.0000000000000000e+00   1.5827516069550807e-01   0.0000000000000000e+00   1.5396690948829300e-01   0.0000000000000000e+00   1.9709789562494726e-01   0.0000000000000000e+00   2.6533307669218265e-01   0.0000000000000000e+00   8.4079268963037612e-01   0.0000000000000000e+00   8.6499817502536203e-01   0.0000000000000000e+00   8.5788112100246683e-01   0.0000000000000000e+00   7.2992969052098589e-01   0.0000000000000000e+00   3.2246609609591648e-01   0.0000000000000000e+00   5.1496811560273925e-01   0.0000000000000000e+00   5.2855228274980126e-01   0.0000000000000000e+00   5.2746753465702900e-01   0.0000000000000000e+00   5.1616989547899361e-01   0.0000000000000000e+00   4.0708683299544840e-01   0.0000000000000000e+00   3.9745842509963991e-01   0.0000000000000000e+00   3.8106751381891324e-01   0.0000000000000000e+00   3.7714287066070246e-01   0.0000000000000000e+00   3.4586334736134389e-01   0.0000000000000000e+00   2.8193673302363309e-01   0.0000000000000000e+00   2.7536492111101918e-01   0.0000000000000000e+00   1.9844183956088962e-01   0.0000000000000000e+00   3.1943575743560410e-01   0.0000000000000000e+00   5.0194470401509961e-01   0.0000000000000000e+00   7.0186037985209482e-01   0.0000000000000000e+00   9.2913215118402459e-01   0.0000000000000000e+00   9.4404022683839084e-01   0.0000000000000000e+00   9.4261887350753837e-01   0.0000000000000000e+00   9.3461699790930364e-01   0.0000000000000000e+00   9.2000276352670729e-01   0.0000000000000000e+00   8.9927942689868445e-01   0.0000000000000000e+00   8.6752014297898994e-01   0.0000000000000000e+00   7.7237015152003041e-01   0.0000000000000000e+00   6.2053257008977325e-01   0.0000000000000000e+00   4.0282439344058629e-01   0.0000000000000000e+00   1.1310224956149093e-01   0.0000000000000000e+00   2.6677672218147493e-02   0.0000000000000000e+00   2.0463158231086350e-02   0.0000000000000000e+00   9.0257721457263809e-02   0.0000000000000000e+00   0.0000000000000000e+00   0.0000000000000000e+00   6.5568572788638957e-03   0.0000000000000000e+00   0.0000000000000000e+00   0.0000000000000000e+00   0.0000000000000000e+00   0.0000000000000000e+00   0.0000000000000000e+00   0.0000000000000000e+00   2.4229474601387257e-02   0.0000000000000000e+00   8.7057407354301536e-02   0.0000000000000000e+00   1.4706271015727351e-01   0.0000000000000000e+00   2.3168756715840197e-01   0.0000000000000000e+00   4.3858298970019222e-01   0.0000000000000000e+00   5.5336775622799261e-01   0.0000000000000000e+00   7.2145368935806597e-01   0.0000000000000000e+00   8.2447416621897673e-01   0.0000000000000000e+00   8.2383631322963002e-01   0.0000000000000000e+00   7.9866675185112768e-01   0.0000000000000000e+00   7.7458434631292183e-01   0.0000000000000000e+00   7.5475816896570413e-01   0.0000000000000000e+00   6.8630450266461729e-01   0.0000000000000000e+00   6.2172197797074336e-01   0.0000000000000000e+00   5.5892856169707272e-01   0.0000000000000000e+00   5.0252257524557120e-01   0.0000000000000000e+00   0.0000000000000000e+00   0.0000000000000000e+00   0.0000000000000000e+00   0.0000000000000000e+00   0.0000000000000000e+00   0.0000000000000000e+00   0.0000000000000000e+00   0.0000000000000000e+00   0.0000000000000000e+00   0.0000000000000000e+00   0.0000000000000000e+00   0.0000000000000000e+00   0.0000000000000000e+00   0.0000000000000000e+00   0.0000000000000000e+00   0.0000000000000000e+00   0.0000000000000000e+00   0.0000000000000000e+00   0.0000000000000000e+00   0.0000000000000000e+00   0.0000000000000000e+00   0.0000000000000000e+00   0.0000000000000000e+00   0.0000000000000000e+00   0.0000000000000000e+00   0.0000000000000000e+00   0.0000000000000000e+00   0.0000000000000000e+00   0.0000000000000000e+00   0.0000000000000000e+00   0.0000000000000000e+00   0.0000000000000000e+00   0.0000000000000000e+00   0.0000000000000000e+00   0.0000000000000000e+00   0.0000000000000000e+00   0.0000000000000000e+00   0.0000000000000000e+00   0.0000000000000000e+00   0.0000000000000000e+00   0.0000000000000000e+00   0.0000000000000000e+00   0.0000000000000000e+00   0.0000000000000000e+00   0.0000000000000000e+00   1.3743151759651201e-01   0.0000000000000000e+00   3.7234556486200143e-01   0.0000000000000000e+00   3.3230994727768864e-01   0.0000000000000000e+00   3.0588990898264168e-01   0.0000000000000000e+00   2.8430144217126635e-01   0.0000000000000000e+00   2.9265576245944430e-01   0.0000000000000000e+00   3.1720257170388677e-01   0.0000000000000000e+00   3.4535997519754535e-01   0.0000000000000000e+00   4.1763817471699544e-01   0.0000000000000000e+00   4.2860528669920800e-01   0.0000000000000000e+00   4.2586847666806815e-01   0.0000000000000000e+00   4.0858795865272440e-01   0.0000000000000000e+00   3.8094011433721764e-01   0.0000000000000000e+00   3.4753145079229636e-01   0.0000000000000000e+00   3.0030702259835124e-01   0.0000000000000000e+00   2.7689571818837028e-01   0.0000000000000000e+00   2.4871530015611373e-01   0.0000000000000000e+00   2.1066724766047229e-01   0.0000000000000000e+00   1.8348528983186133e-01   0.0000000000000000e+00   1.1960206566083222e-01   0.0000000000000000e+00   8.9092939609974914e-02   0.0000000000000000e+00   9.1141527290924187e-02   0.0000000000000000e+00   8.9959307446077344e-02   0.0000000000000000e+00   8.4198092299215627e-02   0.0000000000000000e+00   8.1895084352275715e-02   0.0000000000000000e+00   1.0565735824271313e-01   0.0000000000000000e+00   9.7958265469632683e-02   0.0000000000000000e+00   3.2566229270058353e-02   0.0000000000000000e+00   1.5293784129210022e-02   0.0000000000000000e+00   6.9895896286811518e-02   0.0000000000000000e+00   1.3568913209287667e-01   0.0000000000000000e+00   1.6354217774503274e-01   0.0000000000000000e+00   2.3165813861818521e-01   0.0000000000000000e+00   2.1760766313001825e-01   0.0000000000000000e+00   2.1922342725627977e-01   0.0000000000000000e+00   2.4383128356605521e-01   0.0000000000000000e+00   4.0418859379853478e-01   0.0000000000000000e+00   8.4184409282766826e-01   0.0000000000000000e+00   8.5685492757097170e-01   0.0000000000000000e+00   8.4347908769112923e-01   0.0000000000000000e+00   6.8037249368442354e-01   0.0000000000000000e+00   3.6985847827223584e-01   0.0000000000000000e+00   4.5913420968928825e-01   0.0000000000000000e+00   4.8339299706050110e-01   0.0000000000000000e+00   4.9148077653796951e-01   0.0000000000000000e+00   4.2470005436248826e-01   0.0000000000000000e+00   4.2152316867653727e-01   0.0000000000000000e+00   3.8086128850880613e-01   0.0000000000000000e+00   3.8326363501309274e-01   0.0000000000000000e+00   3.7491915395911074e-01   0.0000000000000000e+00   3.3850995355684854e-01   0.0000000000000000e+00   2.5886738834308648e-01   0.0000000000000000e+00   4.0775269752001975e-01   0.0000000000000000e+00   5.9852199247312587e-01   0.0000000000000000e+00   8.3088258906797963e-01   0.0000000000000000e+00   9.4992233798224113e-01   0.0000000000000000e+00   9.5177081466349434e-01   0.0000000000000000e+00   9.4763663956245370e-01   0.0000000000000000e+00   9.3687963644397110e-01   0.0000000000000000e+00   9.1917250677966356e-01   0.0000000000000000e+00   8.9533922569044133e-01   0.0000000000000000e+00   8.4147481456464290e-01   0.0000000000000000e+00   6.6294364842265430e-01   0.0000000000000000e+00   3.1438703004784613e-01   0.0000000000000000e+00   3.3571248763446826e-01   0.0000000000000000e+00   2.7074489924032791e-01   0.0000000000000000e+00   3.5346955626018761e-01   0.0000000000000000e+00   1.7342200995980964e-01   0.0000000000000000e+00   0.0000000000000000e+00   0.0000000000000000e+00   1.1617485413727743e-01   0.0000000000000000e+00   5.4401827035702330e-02   0.0000000000000000e+00   0.0000000000000000e+00   0.0000000000000000e+00   0.0000000000000000e+00   0.0000000000000000e+00   0.0000000000000000e+00   0.0000000000000000e+00   3.7206662258477970e-02   0.0000000000000000e+00   1.1696111154203263e-01   0.0000000000000000e+00   1.8877856702291931e-01   0.0000000000000000e+00   3.1692923836694747e-01   0.0000000000000000e+00   5.9157922347745506e-01   0.0000000000000000e+00   7.6468387420451867e-01   0.0000000000000000e+00   8.5641375326232083e-01   0.0000000000000000e+00   8.5000697169223804e-01   0.0000000000000000e+00   8.3759496871629124e-01   0.0000000000000000e+00   8.0559814194393775e-01   0.0000000000000000e+00   7.7119356005951578e-01   0.0000000000000000e+00   7.4236998133739596e-01   0.0000000000000000e+00   6.8134593902001683e-01   0.0000000000000000e+00   5.6728665562072145e-01   0.0000000000000000e+00   4.9307046574117469e-01   0.0000000000000000e+00   4.2604687634537197e-01   0.0000000000000000e+00   3.5536354745703708e-01   0.0000000000000000e+00   0.0000000000000000e+00   0.0000000000000000e+00   0.0000000000000000e+00   0.0000000000000000e+00   0.0000000000000000e+00   0.0000000000000000e+00   0.0000000000000000e+00   0.0000000000000000e+00   0.0000000000000000e+00   0.0000000000000000e+00   0.0000000000000000e+00   0.0000000000000000e+00   0.0000000000000000e+00   0.0000000000000000e+00   0.0000000000000000e+00   0.0000000000000000e+00   0.0000000000000000e+00   0.0000000000000000e+00   0.0000000000000000e+00   0.0000000000000000e+00   0.0000000000000000e+00   0.0000000000000000e+00   0.0000000000000000e+00   0.0000000000000000e+00   0.0000000000000000e+00   0.0000000000000000e+00   0.0000000000000000e+00   0.0000000000000000e+00   0.0000000000000000e+00   0.0000000000000000e+00   0.0000000000000000e+00   0.0000000000000000e+00   0.0000000000000000e+00   0.0000000000000000e+00   0.0000000000000000e+00   0.0000000000000000e+00   0.0000000000000000e+00   0.0000000000000000e+00   0.0000000000000000e+00   0.0000000000000000e+00   0.0000000000000000e+00   0.0000000000000000e+00   0.00000000