<?xml version="1.0"?>
<VTKFile type="UnstructuredGrid"  version="0.1"  >
<UnstructuredGrid>
<Piece  NumberOfPoints="2309" NumberOfCells="4411">
<Points>
<DataArray  type="Float64"  NumberOfComponents="3"  format="ascii">1.809130434782608 0 0  1.817391304347826 0 0  1.817391304347826 0.008333333333333333 0  1.825652173913043 0 0  1.825652173913043 0.008333333333333333 0  1.833913043478261 0 0  1.833913043478261 0.008333333333333333 0  1.842173913043478 0 0  1.842173913043478 0.008333333333333333 0  1.850434782608696 0 0  1.850434782608696 0.008333333333333333 0  1.858695652173913 0 0  1.858695652173913 0.008333333333333333 0  1.86695652173913 0 0  1.86695652173913 0.008333333333333333 0  1.875217391304348 0 0  1.875217391304348 0.008333333333333333 0  1.883478260869565 0 0  1.883478260869565 0.008333333333333333 0  1.891739130434782 0 0  1.891739130434782 0.008333333333333333 0  1.9 0 0  1.9 0.008333333333333333 0  1.908260869565217 0 0  1.908260869565217 0.008333333333333333 0  1.916521739130435 0 0  1.916521739130435 0.008333333333333333 0  1.924782608695652 0 0  1.924782608695652 0.008333333333333333 0  1.933043478260869 0 0  1.933043478260869 0.008333333333333333 0  1.941304347826087 0 0  1.941304347826087 0.008333333333333333 0  1.949565217391304 0 0  1.949565217391304 0.008333333333333333 0  1.957826086956522 0 0  1.957826086956522 0.008333333333333333 0  1.966086956521739 0 0  1.966086956521739 0.008333333333333333 0  1.974347826086956 0 0  1.974347826086956 0.008333333333333333 0  1.982608695652174 0 0  1.982608695652174 0.008333333333333333 0  1.990869565217391 0 0  1.990869565217391 0.008333333333333333 0  1.999130434782608 0 0  1.999130434782608 0.008333333333333333 0  2.007391304347826 0 0  2.007391304347826 0.008333333333333333 0  2.015652173913043 0 0  2.015652173913043 0.008333333333333333 0  2.023913043478261 0 0  2.023913043478261 0.008333333333333333 0  2.032173913043478 0 0  2.032173913043478 0.008333333333333333 0  2.040434782608695 0 0  2.040434782608695 0.008333333333333333 0  2.048695652173913 0 0  2.048695652173913 0.008333333333333333 0  2.05695652173913 0 0  2.05695652173913 0.008333333333333333 0  2.065217391304348 0 0  2.065217391304348 0.008333333333333333 0  2.073478260869565 0 0  2.073478260869565 0.008333333333333333 0  2.081739130434782 0 0  2.081739130434782 0.008333333333333333 0  2.09 0 0  2.09 0.008333333333333333 0  2.098260869565217 0 0  2.098260869565217 0.008333333333333333 0  2.106521739130435 0 0  2.106521739130435 0.008333333333333333 0  2.114782608695652 0 0  2.114782608695652 0.008333333333333333 0  2.12304347826087 0 0  2.12304347826087 0.008333333333333333 0  2.131304347826087 0 0  2.131304347826087 0.008333333333333333 0  2.139565217391304 0 0  2.139565217391304 0.008333333333333333 0  2.147826086956522 0 0  2.147826086956522 0.008333333333333333 0  2.156086956521739 0 0  2.156086956521739 0.008333333333333333 0  2.164347826086956 0 0  2.164347826086956 0.008333333333333333 0  2.172608695652174 0 0  2.172608695652174 0.008333333333333333 0  2.180869565217391 0 0  2.180869565217391 0.008333333333333333 0  2.189130434782609 0 0  2.189130434782609 0.008333333333333333 0  2.197391304347826 0 0  2.197391304347826 0.008333333333333333 0  2.205652173913043 0 0  2.205652173913043 0.008333333333333333 0  2.213913043478261 0 0  2.213913043478261 0.008333333333333333 0  2.222173913043478 0 0  2.222173913043478 0.008333333333333333 0  2.230434782608695 0 0  2.230434782608695 0.008333333333333333 0  2.238695652173913 0 0  2.238695652173913 0.008333333333333333 0  2.24695652173913 0 0  2.24695652173913 0.008333333333333333 0  2.255217391304348 0 0  2.255217391304348 0.008333333333333333 0  2.263478260869565 0 0  2.263478260869565 0.008333333333333333 0  2.271739130434783 0 0  2.271739130434783 0.008333333333333333 0  2.28 0 0  2.28 0.008333333333333333 0  2.288260869565217 0 0  2.288260869565217 0.008333333333333333 0  2.296521739130434 0 0  2.296521739130434 0.008333333333333333 0  2.304782608695652 0 0  2.304782608695652 0.008333333333333333 0  2.31304347826087 0 0  2.31304347826087 0.008333333333333333 0  2.321304347826087 0 0  2.321304347826087 0.008333333333333333 0  2.329565217391304 0 0  2.329565217391304 0.008333333333333333 0  1.825652173913043 0.01666666666666667 0  1.817391304347826 0.01666666666666667 0  1.833913043478261 0.01666666666666667 0  1.842173913043478 0.01666666666666667 0  1.850434782608696 0.01666666666666667 0  1.858695652173913 0.01666666666666667 0  1.86695652173913 0.01666666666666667 0  1.875217391304348 0.01666666666666667 0  1.883478260869565 0.01666666666666667 0  1.891739130434782 0.01666666666666667 0  1.9 0.01666666666666667 0  1.908260869565217 0.01666666666666667 0  1.916521739130435 0.01666666666666667 0  1.924782608695652 0.01666666666666667 0  1.933043478260869 0.01666666666666667 0  1.941304347826087 0.01666666666666667 0  1.949565217391304 0.01666666666666667 0  1.957826086956522 0.01666666666666667 0  1.966086956521739 0.01666666666666667 0  1.974347826086956 0.01666666666666667 0  1.982608695652174 0.01666666666666667 0  1.990869565217391 0.01666666666666667 0  1.999130434782608 0.01666666666666667 0  2.007391304347826 0.01666666666666667 0  2.015652173913043 0.01666666666666667 0  2.023913043478261 0.01666666666666667 0  2.032173913043478 0.01666666666666667 0  2.040434782608695 0.01666666666666667 0  2.048695652173913 0.01666666666666667 0  2.05695652173913 0.01666666666666667 0  2.065217391304348 0.01666666666666667 0  2.073478260869565 0.01666666666666667 0  2.081739130434782 0.01666666666666667 0  2.09 0.01666666666666667 0  2.098260869565217 0.01666666666666667 0  2.106521739130435 0.01666666666666667 0  2.114782608695652 0.01666666666666667 0  2.12304347826087 0.01666666666666667 0  2.131304347826087 0.01666666666666667 0  2.139565217391304 0.01666666666666667 0  2.147826086956522 0.01666666666666667 0  2.156086956521739 0.01666666666666667 0  2.164347826086956 0.01666666666666667 0  2.172608695652174 0.01666666666666667 0  2.180869565217391 0.01666666666666667 0  2.189130434782609 0.01666666666666667 0  2.197391304347826 0.01666666666666667 0  2.205652173913043 0.01666666666666667 0  2.213913043478261 0.01666666666666667 0  2.222173913043478 0.01666666666666667 0  2.230434782608695 0.01666666666666667 0  2.238695652173913 0.01666666666666667 0  2.24695652173913 0.01666666666666667 0  2.255217391304348 0.01666666666666667 0  2.263478260869565 0.01666666666666667 0  2.271739130434783 0.01666666666666667 0  2.28 0.01666666666666667 0  2.288260869565217 0.01666666666666667 0  2.296521739130434 0.01666666666666667 0  2.304782608695652 0.01666666666666667 0  2.31304347826087 0.01666666666666667 0  2.321304347826087 0.01666666666666667 0  2.329565217391304 0.01666666666666667 0  2.337826086956521 0.01666666666666667 0  1.825652173913043 0.025 0  1.817391304347826 0.025 0  1.833913043478261 0.025 0  1.842173913043478 0.025 0  1.850434782608696 0.025 0  1.858695652173913 0.025 0  1.86695652173913 0.025 0  1.875217391304348 0.025 0  1.883478260869565 0.025 0  1.891739130434782 0.025 0  1.9 0.025 0  1.908260869565217 0.025 0  1.916521739130435 0.025 0  1.924782608695652 0.025 0  1.933043478260869 0.025 0  1.941304347826087 0.025 0  1.949565217391304 0.025 0  1.957826086956522 0.025 0  1.966086956521739 0.025 0  1.974347826086956 0.025 0  1.982608695652174 0.025 0  1.990869565217391 0.025 0  1.999130434782608 0.025 0  2.007391304347826 0.025 0  2.015652173913043 0.025 0  2.023913043478261 0.025 0  2.032173913043478 0.025 0  2.040434782608695 0.025 0  2.048695652173913 0.025 0  2.05695652173913 0.025 0  2.065217391304348 0.025 0  2.073478260869565 0.025 0  2.081739130434782 0.025 0  2.09 0.025 0  2.098260869565217 0.025 0  2.106521739130435 0.025 0  2.114782608695652 0.025 0  2.12304347826087 0.025 0  2.131304347826087 0.025 0  2.139565217391304 0.025 0  2.147826086956522 0.025 0  2.156086956521739 0.025 0  2.164347826086956 0.025 0  2.172608695652174 0.025 0  2.180869565217391 0.025 0  2.189130434782609 0.025 0  2.197391304347826 0.025 0  2.205652173913043 0.025 0  2.213913043478261 0.025 0  2.222173913043478 0.025 0  2.230434782608695 0.025 0  2.238695652173913 0.025 0  2.24695652173913 0.025 0  2.255217391304348 0.025 0  2.263478260869565 0.025 0  2.271739130434783 0.025 0  2.28 0.025 0  2.288260869565217 0.025 0  2.296521739130434 0.025 0  2.304782608695652 0.025 0  2.31304347826087 0.025 0  2.321304347826087 0.025 0  2.329565217391304 0.025 0  2.337826086956521 0.025 0  2.346086956521739 0.025 0  1.825652173913043 0.03333333333333333 0  1.817391304347826 0.03333333333333333 0  1.833913043478261 0.03333333333333333 0  1.842173913043478 0.03333333333333333 0  1.850434782608696 0.03333333333333333 0  1.858695652173913 0.03333333333333333 0  1.86695652173913 0.03333333333333333 0  1.875217391304348 0.03333333333333333 0  1.883478260869565 0.03333333333333333 0  1.891739130434782 0.03333333333333333 0  1.9 0.03333333333333333 0  1.908260869565217 0.03333333333333333 0  1.916521739130435 0.03333333333333333 0  1.924782608695652 0.03333333333333333 0  1.933043478260869 0.03333333333333333 0  1.941304347826087 0.03333333333333333 0  1.949565217391304 0.03333333333333333 0  1.957826086956522 0.03333333333333333 0  1.966086956521739 0.03333333333333333 0  1.974347826086956 0.03333333333333333 0  1.982608695652174 0.03333333333333333 0  1.990869565217391 0.03333333333333333 0  1.999130434782608 0.03333333333333333 0  2.007391304347826 0.03333333333333333 0  2.015652173913043 0.03333333333333333 0  2.023913043478261 0.03333333333333333 0  2.032173913043478 0.03333333333333333 0  2.040434782608695 0.03333333333333333 0  2.048695652173913 0.03333333333333333 0  2.05695652173913 0.03333333333333333 0  2.065217391304348 0.03333333333333333 0  2.073478260869565 0.03333333333333333 0  2.081739130434782 0.03333333333333333 0  2.09 0.03333333333333333 0  2.098260869565217 0.03333333333333333 0  2.106521739130435 0.03333333333333333 0  2.11478260869565
[...]
<CellData  Scalars="rho_bar"> 
<DataArray  type="Float64"  Name="rho_bar"  format="ascii">0.0000000000000000e+00   2.9506503421941382e-01   0.0000000000000000e+00   2.9607631642977777e-01   0.0000000000000000e+00   2.9714793921890159e-01   0.0000000000000000e+00   2.9819932392231391e-01   0.0000000000000000e+00   2.9891829591555291e-01   0.0000000000000000e+00   3.0377365720206606e-01   0.0000000000000000e+00   3.0175916321060126e-01   0.0000000000000000e+00   2.9972060670102646e-01   0.0000000000000000e+00   3.0162013532028820e-01   0.0000000000000000e+00   3.0603365429497226e-01   0.0000000000000000e+00   3.0622575753263742e-01   0.0000000000000000e+00   2.9492481588893338e-01   0.0000000000000000e+00   2.9606290103103267e-01   0.0000000000000000e+00   3.0165644263335567e-01   0.0000000000000000e+00   3.0167444127882548e-01   0.0000000000000000e+00   2.9913696567766962e-01   0.0000000000000000e+00   2.9686161306885483e-01   0.0000000000000000e+00   2.9575909438679365e-01   0.0000000000000000e+00   2.9573695654417292e-01   0.0000000000000000e+00   2.9592122776347124e-01   0.0000000000000000e+00   2.9611447692043708e-01   0.0000000000000000e+00   2.9854498446293970e-01   0.0000000000000000e+00   3.0166934961584030e-01   0.0000000000000000e+00   2.9877344922632720e-01   0.0000000000000000e+00   2.9662809986232924e-01   0.0000000000000000e+00   2.8906748917147979e-01   0.0000000000000000e+00   2.8932802124771478e-01   0.0000000000000000e+00   3.0459238748603840e-01   0.0000000000000000e+00   2.9930474454040507e-01   0.0000000000000000e+00   2.9923230376960119e-01   0.0000000000000000e+00   2.9681368265977542e-01   0.0000000000000000e+00   2.8559158607628804e-01   0.0000000000000000e+00   3.3507012210157289e-01   0.0000000000000000e+00   2.7737427090812855e-01   0.0000000000000000e+00   2.8422921420305775e-01   0.0000000000000000e+00   2.9186503525756546e-01   0.0000000000000000e+00   2.9724984874493843e-01   0.0000000000000000e+00   2.9679744688483561e-01   0.0000000000000000e+00   2.9238836239500771e-01   0.0000000000000000e+00   2.8974215982163010e-01   0.0000000000000000e+00   2.8440540460970731e-01   0.0000000000000000e+00   2.9648960562557969e-01   0.0000000000000000e+00   2.9421463075355642e-01   0.0000000000000000e+00   2.5923509577646681e-01   0.0000000000000000e+00   3.6001427621158127e-01   0.0000000000000000e+00   2.8491699911522761e-01   0.0000000000000000e+00   2.9033192329312058e-01   0.0000000000000000e+00   2.9729881416249793e-01   0.0000000000000000e+00   2.9973085214779899e-01   0.0000000000000000e+00   2.9342127156491099e-01   0.0000000000000000e+00   2.9177361738312702e-01   0.0000000000000000e+00   2.9311151110832373e-01   0.0000000000000000e+00   2.9055950375742046e-01   0.0000000000000000e+00   2.9210626716885124e-01   0.0000000000000000e+00   2.9279450374770588e-01   0.0000000000000000e+00   2.9361148005822391e-01   0.0000000000000000e+00   2.9418650157983112e-01   0.0000000000000000e+00   2.9420161189189953e-01   0.0000000000000000e+00   2.9251811636415015e-01   0.0000000000000000e+00   2.8935486795426790e-01   0.0000000000000000e+00   2.8711625566410243e-01   0.0000000000000000e+00   2.8623017308336740e-01   0.0000000000000000e+00   2.8571089250173060e-01   0.0000000000000000e+00   2.8605062775143808e-01   0.0000000000000000e+00   2.8672579964759720e-01   0.0000000000000000e+00   2.8796535521083144e-01   0.0000000000000000e+00   2.8901057321436119e-01   0.0000000000000000e+00   2.8893795822860485e-01   0.0000000000000000e+00   2.8892963157926288e-01   0.0000000000000000e+00   2.9335201553533785e-01   0.0000000000000000e+00   2.9367908313051622e-01   0.0000000000000000e+00   2.8662057574338679e-01   0.0000000000000000e+00   2.8722439675859868e-01   0.0000000000000000e+00   2.8675745158505322e-01   0.0000000000000000e+00   2.8818463320251436e-01   0.0000000000000000e+00   2.9070109869509780e-01   0.0000000000000000e+00   2.9359144800777481e-01   0.0000000000000000e+00   2.9631463223978449e-01   0.0000000000000000e+00   2.9826932877955348e-01   0.0000000000000000e+00   2.9939192041454399e-01   0.0000000000000000e+00   3.0000584354508852e-01   0.0000000000000000e+00   3.0036673679939896e-01   0.0000000000000000e+00   3.0054127917701046e-01   0.0000000000000000e+00   3.0077767543657585e-01   0.0000000000000000e+00   3.0139749764159984e-01   0.0000000000000000e+00   3.0226572741762420e-01   0.0000000000000000e+00   3.0323309822452277e-01   0.0000000000000000e+00   3.0424833989199795e-01   0.0000000000000000e+00   3.0519610346838616e-01   0.0000000000000000e+00   3.0609627788554361e-01   0.0000000000000000e+00   3.0702294392296609e-01   0.0000000000000000e+00   3.0812832087255576e-01   0.0000000000000000e+00   3.0958352723175281e-01   3.1143680264664780e-01   0.0000000000000000e+00   0.0000000000000000e+00   2.8776486429300846e-01   0.0000000000000000e+00   2.8530560390515364e-01   0.0000000000000000e+00   2.9471676258401286e-01   0.0000000000000000e+00   2.8952661334965291e-01   0.0000000000000000e+00   2.8812201879468219e-01   0.0000000000000000e+00   2.8603463215850100e-01   0.0000000000000000e+00   2.8250416816738283e-01   0.0000000000000000e+00   2.9987292073555155e-01   0.0000000000000000e+00   2.9584682935224904e-01   0.0000000000000000e+00   2.9456284444388808e-01   0.0000000000000000e+00   2.9459248119597747e-01   0.0000000000000000e+00   2.9405402318811497e-01   0.0000000000000000e+00   2.9481131461868265e-01   0.0000000000000000e+00   2.9253430904574612e-01   0.0000000000000000e+00   2.9358258582464775e-01   0.0000000000000000e+00   2.9516515279861250e-01   0.0000000000000000e+00   2.9691700277337152e-01   0.0000000000000000e+00   2.9840635263405185e-01   0.0000000000000000e+00   2.9973898036067148e-01   0.0000000000000000e+00   3.0118257781816687e-01   0.0000000000000000e+00   3.0214320339368000e-01   0.0000000000000000e+00   3.0138073442136243e-01   0.0000000000000000e+00   3.0829756295340899e-01   0.0000000000000000e+00   3.0382494794077175e-01   0.0000000000000000e+00   3.0243327024814920e-01   0.0000000000000000e+00   3.0235999008491804e-01   0.0000000000000000e+00   3.1209327130301701e-01   0.0000000000000000e+00   3.1304832456634818e-01   0.0000000000000000e+00   2.8601066818300580e-01   0.0000000000000000e+00   3.0236649756364747e-01   0.0000000000000000e+00   2.8647706530014228e-01   0.0000000000000000e+00   2.8493508959875868e-01   0.0000000000000000e+00   2.8492489332633936e-01   0.0000000000000000e+00   2.8502478064295672e-01   0.0000000000000000e+00   2.8538650575161167e-01   0.0000000000000000e+00   2.8607498462443953e-01   0.0000000000000000e+00   2.8623527587889841e-01   0.0000000000000000e+00   2.8602272943886586e-01   0.0000000000000000e+00   2.8912871736584911e-01   0.0000000000000000e+00   2.9282369395537866e-01   0.0000000000000000e+00   2.8944011281165188e-01   0.0000000000000000e+00   2.8894803734611790e-01   0.0000000000000000e+00   2.7887212607934625e-01   0.0000000000000000e+00   2.7719303885134344e-01   0.0000000000000000e+00   3.1547600598681502e-01   0.0000000000000000e+00   2.8293925551878762e-01   0.0000000000000000e+00   2.9699779431415141e-01   0.0000000000000000e+00   2.9547587724386953e-01   0.0000000000000000e+00   2.9889472312223575e-01   0.0000000000000000e+00   3.2133854389582905e-01   0.0000000000000000e+00   2.8829536278513368e-01   0.0000000000000000e+00   2.8663134643798061e-01   0.0000000000000000e+00   2.9206930641014961e-01   0.0000000000000000e+00   2.9925584269540806e-01   0.0000000000000000e+00   2.9937079382988746e-01   0.0000000000000000e+00   2.9537021157415860e-01   0.0000000000000000e+00   2.9668565987789824e-01   0.0000000000000000e+00   2.7587993793412124e-01   0.0000000000000000e+00   3.0498675249223861e-01   0.0000000000000000e+00   2.7131627319017032e-01   0.0000000000000000e+00   2.7989677974804761e-01   0.0000000000000000e+00   3.3877854963927451e-01   0.0000000000000000e+00   2.9960741550595699e-01   0.0000000000000000e+00   2.9709185382261066e-01   0.0000000000000000e+00   3.0169047588784431e-01   0.0000000000000000e+00   3.0542411207589515e-01   0.0000000000000000e+00   2.9663038454982288e-01   0.0000000000000000e+00   2.9723292499320236e-01   0.0000000000000000e+00   2.9867811346066664e-01   0.0000000000000000e+00   2.9879342354769001e-01   0.0000000000000000e+00   3.0127144615113788e-01   0.0000000000000000e+00   3.0291596198529652e-01   0.0000000000000000e+00   3.0329347879950669e-01   0.0000000000000000e+00   3.0310818786624355e-01   0.0000000000000000e+00   3.0292838384126786e-01   0.0000000000000000e+00   2.8820903928742636e-01   0.0000000000000000e+00   2.8506724119670368e-01   0.0000000000000000e+00   2.8391630246429794e-01   0.0000000000000000e+00   2.9587728788460893e-01   0.0000000000000000e+00   2.9657649349878978e-01   0.0000000000000000e+00   2.9786676546474977e-01   0.0000000000000000e+00   2.9972300543300512e-01   0.0000000000000000e+00   3.0135927197963652e-01   0.0000000000000000e+00   3.0134292489389836e-01   0.0000000000000000e+00   2.9858350730963112e-01   0.0000000000000000e+00   2.9517941801454473e-01   0.0000000000000000e+00   3.0450645670320542e-01   0.0000000000000000e+00   2.9836243586181810e-01   0.0000000000000000e+00   2.9253742133028920e-01   0.0000000000000000e+00   2.9513387424496396e-01   0.0000000000000000e+00   3.0010907702315731e-01   0.0000000000000000e+00   3.0408925189669939e-01   0.0000000000000000e+00   3.0701828040210727e-01   0.0000000000000000e+00   3.0923859320080022e-01   0.0000000000000000e+00   3.1032841241241904e-01   0.0000000000000000e+00   3.1020282601599541e-01   0.0000000000000000e+00   3.0967636993366277e-01   0.0000000000000000e+00   3.0928226672470366e-01   0.0000000000000000e+00   3.0926454493263200e-01   0.0000000000000000e+00   3.0968974102379121e-01   0.0000000000000000e+00   3.1065665012519539e-01   0.0000000000000000e+00   3.1171868539944880e-01   0.0000000000000000e+00   3.1254371107181178e-01   0.0000000000000000e+00   3.1311629330525281e-01   0.0000000000000000e+00   3.1348640383338788e-01   0.0000000000000000e+00   3.1388130978443074e-01   0.0000000000000000e+00   3.1452953154720964e-01   0.0000000000000000e+00   3.1563667553169539e-01   0.0000000000000000e+00   3.1725631223279599e-01   0.0000000000000000e+00   3.1925928665077663e-01   0.0000000000000000e+00   0.0000000000000000e+00   2.8741623644866521e-01   0.0000000000000000e+00   2.8479638099101279e-01   0.0000000000000000e+00   2.9435397985473760e-01   0.0000000000000000e+00   2.9012977188057915e-01   0.0000000000000000e+00   2.8908735222362986e-01   0.0000000000000000e+00   2.8772659212604923e-01   0.0000000000000000e+00   2.8483486712785405e-01   0.0000000000000000e+00   2.8933227944238560e-01   0.0000000000000000e+00   2.8599441372488615e-01   0.0000000000000000e+00   2.8552655564585422e-01   0.0000000000000000e+00   2.8429491799519563e-01   0.0000000000000000e+00   2.8324434401348625e-01   0.0000000000000000e+00   2.8335685937911331e-01   0.0000000000000000e+00   2.8168677126337494e-01   0.0000000000000000e+00   2.8311985549529189e-01   0.0000000000000000e+00   2.8464762419564610e-01   0.0000000000000000e+00   2.8571464761834608e-01   0.0000000000000000e+00   2.8653649247688195e-01   0.0000000000000000e+00   2.8724613049647418e-01   0.0000000000000000e+00   2.8806503453870780e-01   0.0000000000000000e+00   2.8800086749767739e-01   0.0000000000000000e+00   2.8576289634770424e-01   0.0000000000000000e+00   2.9529482351659569e-01   0.0000000000000000e+00   2.9040760228935958e-01   0.0000000000000000e+00   2.8944920589168144e-01   0.0000000000000000e+00   2.8632291157991285e-01   0.0000000000000000e+00   3.0560409408102496e-01   0.0000000000000000e+00   3.1358933450305615e-01   0.0000000000000000e+00   2.6385447455179140e-01   0.0000000000000000e+00   2.7065079112754403e-01   0.0000000000000000e+00   2.7422624917100674e-01   0.0000000000000000e+00   2.7613580274532501e-01   0.0000000000000000e+00   2.7724282213564100e-01   0.0000000000000000e+00   2.7727349419790132e-01   0.0000000000000000e+00   2.7751933406942270e-01   0.0000000000000000e+00   2.7779878414702364e-01   0.0000000000000000e+00   2.7746591763430473e-01   0.0000000000000000e+00   2.7659252145096713e-01   0.0000000000000000e+00   2.8084842260996840e-01   0.0000000000000000e+00   2.8363196141949082e-01   0.0000000000000000e+00   2.8233345187916753e-01   0.0000000000000000e+00   2.8126663217788495e-01   0.0000000000000000e+00   2.6688921635726559e-01   0.0000000000000000e+00   2.6179915743143040e-01   0.0000000000000000e+00   3.0780806571107616e-01   0.0000000000000000e+00   2.9315665969740468e-01   0.0000000000000000e+00   2.9234809292959169e-01   0.0000000000000000e+00   2.9212881996498308e-01   0.0000000000000000e+00   3.0484423942271355e-01   0.0000000000000000e+00   3.1069080029821988e-01   0.0000000000000000e+00   2.8356236121103695e-01   0.0000000000000000e+00   2.7990766461967836e-01   0.0000000000000000e+00   2.8489622300053113e-01   0.0000000000000000e+00   2.9284263275695188e-01   0.0000000000000000e+00   3.0604128637046080e-01   0.0000000000000000e+00   2.9890329797020104e-01   0.0000000000000000e+00   3.0219635453746002e-01   0.0000000000000000e+00   2.5336144631029300e-01   0.0000000000000000e+00   3.0966983542362775e-01   0.0000000000000000e+00   2.7958249361712062e-01   0.0000000000000000e+00   3.0482479315233924e-01   0.0000000000000000e+00   3.2202268138365137e-01   0.0000000000000000e+00   2.9153168103721921e-01   0.0000000000000000e+00   2.8854606329214422e-01   0.0000000000000000e+00   2.9203219970666022e-01   0.0000000000000000e+00   2.9539571764476880e-01   0.0000000000000000e+00   2.8532171329543937e-01   0.0000000000000000e+00   2.8631372440393188e-01   0.0000000000000000e+00   2.8893189164678884e-01   0.0000000000000000e+00   2.9094060204245492e-01   0.0000000000000000e+00   2.9141244304075753e-01   0.0000000000000000e+00   2.9099100709458620e-01   0.0000000000000000e+00   2.9003513240324380e-01   0.0000000000000000e+00   2.8992307251955135e-01   0.0000000000000000e+00   2.9078228868522715e-01   0.0000000000000000e+00   2.8901286406124049e-01   0.0000000000000000e+00   2.8574966032291321e-01   0.0000000000000000e+00   2.8637112204904386e-01   0.0000000000000000e+00   2.8726545104214563e-01   0.0000000000000000e+00   2.8970780305301219e-01   0.0000000000000000e+00   2.9171556471325394e-01   0.0000000000000000e+00   2.9270134704869000e-01   0.0000000000000000e+00   2.9283338428183353e-01   0.0000000000000000e+00   2.9131670560486217e-01   0.0000000000000000e+00   2.8694327650334450e-01   0.0000000000000000e+00   2.8099603150717067e-01   0.0000000000000000e+00   3.1398259093053654e-01   0.0000000000000000e+00   2.8466402823454501e-01   0.0000000000000000e+00   3.0519352873969563e-01   0.0000000000000000e+00   3.0978703756857756e-01   0.0000000000000000e+00   3.1279065968229491e-01   0.0000000000000000e+00   3.1459389703694485e-01   0.0000000000000000e+00   3.1532754146395348e-01   0.0000000000000000e+00   3.1530044380511735e-01   0.0000000000000000e+00   3.1432290441678934e-01   0.0000000000000000e+00   3.1323886950595276e-01   0.0000000000000000e+00   3.1285747321276380e-01   0.0000000000000000e+00   3.1338882630161691e-01   0.0000000000000000e+00   3.1462083232228222e-01   0.0000000000000000e+00   3.1612070351354837e-01   0.0000000000000000e+00   3.1737618312376276e-01   0.0000000000000000e+00   3.1802600814137216e-01   0.0000000000000000e+00   3.1823902919725172e-01   0.0000000000000000e+00   3.1823076814496148e-01   0.0000000000000000e+00   3.1837820270387840e-01   0.0000000000000000e+00   3.1905562667778603e-01   0.0000000000000000e+00   3.2037858505293954e-01   0.0000000000000000e+00   3.2212692242869956e-01   0.0000000000000000e+00   3.2401388056250469e-01   3.2567736751925025e-01   0.0000000000000000e+00   0.0000000000000000e+00   2.8870842576691363e-01   0.0000000000000000e+00   2.8669248788689417e-01   0.0000000000000000e+00   2.9371492951278466e-01   0.0000000000000000e+00   2.9111755979072923e-01   0.0000000000000000e+00   2.8971962221976943e-01   0.0000000000000000e+00   2.8446458868596869e-01   0.0000000000000000e+00   2.8349700793140520e-01   0.0000000000000000e+00   2.8719468698068928e-01   0.0000000000000000e+00   2.8408092479550734e-01   0.0000000000000000e+00   2.8430278386042623e-01   0.0000000000000000e+00   2.8418740388622499e-01   0.0000000000000000e+00   2.8413147043553388e-01   0.0000000000000000e+00   2.8390822964979234e-01   0.0000000000000000e+00   2.8388649556679318e-01   0.0000000000000000e+00   2.8577639706874913e-01   0.0000000000000000e+00   2.8667610052954190e-01   0.0000000000000000e+00   2.8706751211631282e-01   0.0000000000000000e+00   2.8697981991472077e-01   0.0000000000000000e+00   2.8735906008815726e-01   0.0000000000000000e+00   2.8859279700787976e-01   0.0000000000000000e+00   2.8850716442322177e-01   0.0000000000000000e+00   2.8746338490957291e-01   0.0000000000000000e+00   2.9664431503031186e-01   0.0000000000000000e+00   2.9314671698746886e-01   0.0000000000000000e+00   2.9239664305239482e-01   0.0000000000000000e+00   2.8726988836361089e-01   0.0000000000000000e+00   2.8475439097262267e-01   0.0000000000000000e+00   2.9840674956275753e-01   0.0000000000000000e+00   2.7765003374534364e-01   0.0000000000000000e+00   2.7926553450943231e-01   0.0000000000000000e+00   2.8182265115987176e-01   0.0000000000000000e+00   2.8342636108428415e-01   0.0000000000000000e+00   2.8439665412427212e-01   0.0000000000000000e+00   2.8343612619244235e-01   0.0000000000000000e+00   2.8395759297924644e-01   0.0000000000000000e+00   2.8349592522008776e-01   0.0000000000000000e+00   2.8270629565700861e-01   0.0000000000000000e+00   2.8168215890312220e-01   0.0000000000000000e+00   2.8977304481374822e-01   0.0000000000000000e+00   2.8863787428096521e-01   0.0000000000000000e+00   2.8946395904765282e-01   0.0000000000000000e+00   2.9293212448615902e-01   0.0000000000000000e+00   2.6374221986985408e-01   0.0000000000000000e+00   2.6505130105947511e-01   0.0000000000000000e+00   2.7694929263866996e-01   0.0000000000000000e+00   2.7725485031059188e-01   0.0000000000000000e+00   2.7799782960170738e-01   0.0000000000000000e+00   2.8098507884971902e-01   0.0000000000000000e+00   2.8449035767488268e-01   0.0000000000000000e+00   2.8320605330016768e-01   0.0000000000000000e+00   2.7912242086416988e-01   0.0000000000000000e+00   2.7681346594729750e-01   0.0000000000000000e+00   2.8197844766241664e-01   0.0000000000000000e+00   2.8700822223708250e-01   0.0000000000000000e+00   2.8725372853090048e-01   0.0000000000000000e+00   2.7126017967800753e-01   0.0000000000000000e+00   2.7941659036410088e-01   0.0000000000000000e+00   2.6871966080384785e-01   0.0000000000000000e+00   2.7617159666574109e-01   0.0000000000000000e+00   2.7743182716580328e-01   0.0000000000000000e+00   2.8352221080894652e-01   0.0000000000000000e+00   2.8566369618755794e-01   0.0000000000000000e+00   2.8240044910434176e-01   0.0000000000000000e+00   2.8269731245239027e-01   0.0000000000000000e+00   2.8630664423037194e-01   0.0000000000000000e+00   2.8758274156438635e-01   0.0000000000000000e+00   2.7975715400107010e-01   0.0000000000000000e+00   2.8056234599073293e-01   0.0000000000000000e+00   2.8297136438279646e-01   0.0000000000000000e+00   2.8231281235602418e-01   0.0000000000000000e+00   2.8068067132819974e-01   0.0000000000000000e+00   2.8026033998743716e-01   0.0000000000000000e+00   2.8043077623490459e-01   0.0000000000000000e+00   2.8177320217524671e-01   0.0000000000000000e+00   2.8405572483318126e-01   0.0000000000000000e+00   2.8198307758223873e-01   0.0000000000000000e+00   2.7954279231747015e-01   0.0000000000000000e+00   2.8183368506334855e-01   0.0000000000000000e+00   2.8401715885885748e-01   0.0000000000000000e+00   2.8464109540205129e-01   0.0000000000000000e+00   2.8368030628717544e-01   0.0000000000000000e+00   2.8263267960270122e-01   0.0000000000000000e+00   2.8237365836015466e-01   0.0000000000000000e+00   2.81242917