<?xml version="1.0"?>
<VTKFile type="UnstructuredGrid"  version="0.1"  >
<UnstructuredGrid>
<Piece  NumberOfPoints="2351" NumberOfCells="4503">
<Points>
<DataArray  type="Float64"  NumberOfComponents="3"  format="ascii">3.246521739130435 0 0  3.254782608695652 0 0  3.254782608695652 0.008333333333333333 0  3.26304347826087 0 0  3.26304347826087 0.008333333333333333 0  3.271304347826087 0 0  3.271304347826087 0.008333333333333333 0  3.279565217391304 0 0  3.279565217391304 0.008333333333333333 0  3.287826086956521 0 0  3.287826086956521 0.008333333333333333 0  3.296086956521739 0 0  3.296086956521739 0.008333333333333333 0  3.304347826086957 0 0  3.304347826086957 0.008333333333333333 0  3.312608695652174 0 0  3.312608695652174 0.008333333333333333 0  3.320869565217391 0 0  3.320869565217391 0.008333333333333333 0  3.329130434782608 0 0  3.329130434782608 0.008333333333333333 0  3.337391304347826 0 0  3.337391304347826 0.008333333333333333 0  3.345652173913043 0 0  3.345652173913043 0.008333333333333333 0  3.353913043478261 0 0  3.353913043478261 0.008333333333333333 0  3.362173913043478 0 0  3.362173913043478 0.008333333333333333 0  3.370434782608696 0 0  3.370434782608696 0.008333333333333333 0  3.378695652173913 0 0  3.378695652173913 0.008333333333333333 0  3.386956521739131 0 0  3.386956521739131 0.008333333333333333 0  3.395217391304348 0 0  3.395217391304348 0.008333333333333333 0  3.403478260869565 0 0  3.403478260869565 0.008333333333333333 0  3.411739130434782 0 0  3.411739130434782 0.008333333333333333 0  3.419999999999999 0 0  3.419999999999999 0.008333333333333333 0  3.428260869565217 0 0  3.428260869565217 0.008333333333333333 0  3.436521739130435 0 0  3.436521739130435 0.008333333333333333 0  3.444782608695652 0 0  3.444782608695652 0.008333333333333333 0  3.453043478260869 0 0  3.453043478260869 0.008333333333333333 0  3.461304347826087 0 0  3.461304347826087 0.008333333333333333 0  3.469565217391304 0 0  3.469565217391304 0.008333333333333333 0  3.477826086956522 0 0  3.477826086956522 0.008333333333333333 0  3.486086956521739 0 0  3.486086956521739 0.008333333333333333 0  3.494347826086956 0 0  3.494347826086956 0.008333333333333333 0  3.502608695652174 0 0  3.502608695652174 0.008333333333333333 0  3.510869565217391 0 0  3.510869565217391 0.008333333333333333 0  3.519130434782609 0 0  3.519130434782609 0.008333333333333333 0  3.527391304347826 0 0  3.527391304347826 0.008333333333333333 0  3.535652173913043 0 0  3.535652173913043 0.008333333333333333 0  3.54391304347826 0 0  3.54391304347826 0.008333333333333333 0  3.552173913043478 0 0  3.552173913043478 0.008333333333333333 0  3.560434782608696 0 0  3.560434782608696 0.008333333333333333 0  3.568695652173913 0 0  3.568695652173913 0.008333333333333333 0  3.57695652173913 0 0  3.57695652173913 0.008333333333333333 0  3.585217391304347 0 0  3.585217391304347 0.008333333333333333 0  3.593478260869565 0 0  3.593478260869565 0.008333333333333333 0  3.601739130434782 0 0  3.601739130434782 0.008333333333333333 0  3.61 0 0  3.61 0.008333333333333333 0  3.618260869565217 0 0  3.618260869565217 0.008333333333333333 0  3.626521739130435 0 0  3.626521739130435 0.008333333333333333 0  3.634782608695652 0 0  3.634782608695652 0.008333333333333333 0  3.64304347826087 0 0  3.64304347826087 0.008333333333333333 0  3.651304347826087 0 0  3.651304347826087 0.008333333333333333 0  3.659565217391304 0 0  3.659565217391304 0.008333333333333333 0  3.667826086956521 0 0  3.667826086956521 0.008333333333333333 0  3.676086956521739 0 0  3.676086956521739 0.008333333333333333 0  3.684347826086956 0 0  3.684347826086956 0.008333333333333333 0  3.692608695652174 0 0  3.692608695652174 0.008333333333333333 0  3.700869565217391 0 0  3.700869565217391 0.008333333333333333 0  3.709130434782608 0 0  3.709130434782608 0.008333333333333333 0  3.717391304347826 0 0  3.717391304347826 0.008333333333333333 0  3.725652173913043 0 0  3.725652173913043 0.008333333333333333 0  3.733913043478261 0 0  3.733913043478261 0.008333333333333333 0  3.742173913043478 0 0  3.742173913043478 0.008333333333333333 0  3.750434782608695 0 0  3.750434782608695 0.008333333333333333 0  3.758695652173913 0 0  3.758695652173913 0.008333333333333333 0  3.766956521739131 0 0  3.766956521739131 0.008333333333333333 0  3.775217391304348 0 0  3.775217391304348 0.008333333333333333 0  3.783478260869565 0 0  3.783478260869565 0.008333333333333333 0  3.791739130434782 0 0  3.791739130434782 0.008333333333333333 0  3.8 0 0  3.8 0.008333333333333333 0  3.26304347826087 0.01666666666666667 0  3.271304347826087 0.01666666666666667 0  3.279565217391304 0.01666666666666667 0  3.287826086956521 0.01666666666666667 0  3.296086956521739 0.01666666666666667 0  3.304347826086957 0.01666666666666667 0  3.312608695652174 0.01666666666666667 0  3.320869565217391 0.01666666666666667 0  3.329130434782608 0.01666666666666667 0  3.337391304347826 0.01666666666666667 0  3.345652173913043 0.01666666666666667 0  3.353913043478261 0.01666666666666667 0  3.362173913043478 0.01666666666666667 0  3.370434782608696 0.01666666666666667 0  3.378695652173913 0.01666666666666667 0  3.386956521739131 0.01666666666666667 0  3.395217391304348 0.01666666666666667 0  3.403478260869565 0.01666666666666667 0  3.411739130434782 0.01666666666666667 0  3.419999999999999 0.01666666666666667 0  3.428260869565217 0.01666666666666667 0  3.436521739130435 0.01666666666666667 0  3.444782608695652 0.01666666666666667 0  3.453043478260869 0.01666666666666667 0  3.461304347826087 0.01666666666666667 0  3.469565217391304 0.01666666666666667 0  3.477826086956522 0.01666666666666667 0  3.486086956521739 0.01666666666666667 0  3.494347826086956 0.01666666666666667 0  3.502608695652174 0.01666666666666667 0  3.510869565217391 0.01666666666666667 0  3.519130434782609 0.01666666666666667 0  3.527391304347826 0.01666666666666667 0  3.535652173913043 0.01666666666666667 0  3.54391304347826 0.01666666666666667 0  3.552173913043478 0.01666666666666667 0  3.560434782608696 0.01666666666666667 0  3.568695652173913 0.01666666666666667 0  3.57695652173913 0.01666666666666667 0  3.585217391304347 0.01666666666666667 0  3.593478260869565 0.01666666666666667 0  3.601739130434782 0.01666666666666667 0  3.61 0.01666666666666667 0  3.618260869565217 0.01666666666666667 0  3.626521739130435 0.01666666666666667 0  3.634782608695652 0.01666666666666667 0  3.64304347826087 0.01666666666666667 0  3.651304347826087 0.01666666666666667 0  3.659565217391304 0.01666666666666667 0  3.667826086956521 0.01666666666666667 0  3.676086956521739 0.01666666666666667 0  3.684347826086956 0.01666666666666667 0  3.692608695652174 0.01666666666666667 0  3.700869565217391 0.01666666666666667 0  3.709130434782608 0.01666666666666667 0  3.717391304347826 0.01666666666666667 0  3.725652173913043 0.01666666666666667 0  3.733913043478261 0.01666666666666667 0  3.742173913043478 0.01666666666666667 0  3.750434782608695 0.01666666666666667 0  3.758695652173913 0.01666666666666667 0  3.766956521739131 0.01666666666666667 0  3.775217391304348 0.01666666666666667 0  3.783478260869565 0.01666666666666667 0  3.791739130434782 0.01666666666666667 0  3.8 0.01666666666666667 0  3.271304347826087 0.025 0  3.279565217391304 0.025 0  3.287826086956521 0.025 0  3.296086956521739 0.025 0  3.304347826086957 0.025 0  3.312608695652174 0.025 0  3.320869565217391 0.025 0  3.329130434782608 0.025 0  3.337391304347826 0.025 0  3.345652173913043 0.025 0  3.353913043478261 0.025 0  3.362173913043478 0.025 0  3.370434782608696 0.025 0  3.378695652173913 0.025 0  3.386956521739131 0.025 0  3.395217391304348 0.025 0  3.403478260869565 0.025 0  3.411739130434782 0.025 0  3.419999999999999 0.025 0  3.428260869565217 0.025 0  3.436521739130435 0.025 0  3.444782608695652 0.025 0  3.453043478260869 0.025 0  3.461304347826087 0.025 0  3.469565217391304 0.025 0  3.477826086956522 0.025 0  3.486086956521739 0.025 0  3.494347826086956 0.025 0  3.502608695652174 0.025 0  3.510869565217391 0.025 0  3.519130434782609 0.025 0  3.527391304347826 0.025 0  3.535652173913043 0.025 0  3.54391304347826 0.025 0  3.552173913043478 0.025 0  3.560434782608696 0.025 0  3.568695652173913 0.025 0  3.57695652173913 0.025 0  3.585217391304347 0.025 0  3.593478260869565 0.025 0  3.601739130434782 0.025 0  3.61 0.025 0  3.618260869565217 0.025 0  3.626521739130435 0.025 0  3.634782608695652 0.025 0  3.64304347826087 0.025 0  3.651304347826087 0.025 0  3.659565217391304 0.025 0  3.667826086956521 0.025 0  3.676086956521739 0.025 0  3.684347826086956 0.025 0  3.692608695652174 0.025 0  3.700869565217391 0.025 0  3.709130434782608 0.025 0  3.717391304347826 0.025 0  3.725652173913043 0.025 0  3.733913043478261 0.025 0  3.742173913043478 0.025 0  3.750434782608695 0.025 0  3.758695652173913 0.025 0  3.766956521739131 0.025 0  3.775217391304348 0.025 0  3.783478260869565 0.025 0  3.791739130434782 0.025 0  3.8 0.025 0  3.279565217391304 0.03333333333333333 0  3.287826086956521 0.03333333333333333 0  3.296086956521739 0.03333333333333333 0  3.304347826086957 0.03333333333333333 0  3.312608695652174 0.03333333333333333 0  3.320869565217391 0.03333333333333333 0  3.329130434782608 0.03333333333333333 0  3.337391304347826 0.03333333333333333 0  3.345652173913043 0.03333333333333333 0  3.353913043478261 0.03333333333333333 0  3.362173913043478 0.03333333333333333 0  3.370434782608696 0.03333333333333333 0  3.378695652173913 0.03333333333333333 0  3.386956521739131 0.03333333333333333 0  3.395217391304348 0.03333333333333333 0  3.403478260869565 0.03333333333333333 0  3.411739130434782 0.03333333333333333 0  3.419999999999999 0.03333333333333333 0  3.428260869565217 0.03333333333333333 0  3.436521739130435 0.03333333333333333 0  3.444782608695652 0.03333333333333333 0  3.453043478260869 0.03333333333333333 0  3.461304347826087 0.03333333333333333 0  3.469565217391304 0.03333333333333333 0  3.477826086956522 0.03333333333333333 0  3.486086956521739 0.03333333333333333 0
[...]
<CellData  Scalars="rho_bar"> 
<DataArray  type="Float64"  Name="rho_bar"  format="ascii">2.1663239196967388e-01   2.1735522953912292e-01   2.1654979643630790e-01   2.1726051670027419e-01   2.1646715255804666e-01   2.1716600669353531e-01   2.1638434368218115e-01   2.1707132120060113e-01   2.1630157418774865e-01   2.1697673313793078e-01   2.1621848134178295e-01   2.1688201342564947e-01   2.1613532789854975e-01   2.1678714254922851e-01   2.1605191078224767e-01   2.1669222290341433e-01   2.1596839872981435e-01   2.1659714873384595e-01   2.1588451917048579e-01   2.1650197443536115e-01   2.1580035230244954e-01   2.1640641961825127e-01   2.1571588099449332e-01   2.1631080939975431e-01   2.1563121783670638e-01   2.1621492669334416e-01   2.1554617363090287e-01   2.1611893123803647e-01   2.1546073288800838e-01   2.1602244194893788e-01   2.1537506593872513e-01   2.1592599126407019e-01   2.1528897677435094e-01   2.1582895423509907e-01   2.1520233863480936e-01   2.1573176508004427e-01   2.1511548886579840e-01   2.1563406295368440e-01   2.1502838442709474e-01   2.1553626844940102e-01   2.1494090928023946e-01   2.1543810397894644e-01   2.1485326253772116e-01   2.1534002922905499e-01   2.1476504066225841e-01   2.1524123168283771e-01   2.1467671377868291e-01   2.1514270216353273e-01   2.1458815720491367e-01   2.1504361451192111e-01   2.1449972668262057e-01   2.1494482352745251e-01   2.1441069860318288e-01   2.1484544484661883e-01   2.1432216449887750e-01   2.1474656061107431e-01   2.1423329124556459e-01   2.1464733595992960e-01   2.1414501532885771e-01   2.1454888889082818e-01   2.1405653842907563e-01   2.1445010553194369e-01   2.1396891732928133e-01   2.1435234864852529e-01   2.1388156924305277e-01   2.1425469052894930e-01   2.1379511521335726e-01   2.1415827269925186e-01   2.1370932652976540e-01   2.1406222310171288e-01   2.1362512785125198e-01   2.1396793384849266e-01   2.1354223475744638e-01   2.1387485416044666e-01   2.1346110908805643e-01   2.1378386513563835e-01   2.1338150043912238e-01   2.1369429786461486e-01   2.1330438238996308e-01   2.1360751274493164e-01   2.1322973310330051e-01   2.1352313016681176e-01   2.1315756454652440e-01   2.1344166351912799e-01   2.1308833033906549e-01   2.1336319351941080e-01   2.1302228157301364e-01   2.1328872055514503e-01   2.1295996124839153e-01   2.1321781603236675e-01   2.1290075692958302e-01   2.1315120363211015e-01   2.1284548366755232e-01   2.1308840030868401e-01   2.1279412404940712e-01   2.1303028605867641e-01   2.1274661798257197e-01   2.1297647009588033e-01   2.1270255565310794e-01   2.1292672929130502e-01   2.1266165103079718e-01   2.1288063905255436e-01   2.1262359491371166e-01   2.1283805168667275e-01   2.1258891422358678e-01   2.1279887420111435e-01   2.1255564241139535e-01   2.1276118792316001e-01   2.1252470382485061e-01   2.1272575675214395e-01   2.1249504442707029e-01   2.1269118890822242e-01   2.1246702832995029e-01   2.1265775689687239e-01   2.1243906818838620e-01   2.1262367503365701e-01   2.1241188443700407e-01   2.1258902482024236e-01   2.1238502657687788e-01   2.1255350941170056e-01   2.1235950881434359e-01   2.1251787720498097e-01   2.1233507483607411e-01   2.1248162125736211e-01   2.1231226790441349e-01   2.1244575339326258e-01   2.1229297073752165e-01   2.1241173058097651e-01   2.1227906209666747e-01   2.1238190172965551e-01   2.1227119492739124e-01   2.1235646681612330e-01   2.1227206876246157e-01   2.1233856978984977e-01   2.1228358122228178e-01   2.1232914778711662e-01   2.1230857615072746e-01   2.1233218323478575e-01   2.1234887494388649e-01   2.1234791887161086e-01   2.1240891417108274e-01   2.1238135547498133e-01   2.1249079943077176e-01   2.1243285465142669e-01   2.1259802460507873e-01   2.1250749420852483e-01   2.1273669775884552e-01   2.1260770661763159e-01   2.1291120424204502e-01   2.1273993557229376e-01   2.1312707057218297e-01   2.1290644965289174e-01   2.1339059680845385e-01   2.1311571325457696e-01   2.1370889509791932e-01   2.1337222510517195e-01   2.1409237449443000e-01   2.1368588359885471e-01   2.1454833225352485e-01   2.1406569361745803e-01   2.1508806163162977e-01   2.1452179277816888e-01   2.2015509124106636e-01   2.2005463743325540e-01   2.2124515974639813e-01   2.1995493681298248e-01   2.2113038815901476e-01   2.1985558438326175e-01   2.2101605044856307e-01   2.1975643274391846e-01   2.2090204413848327e-01   2.1965736956587559e-01   2.2078839593429064e-01   2.1955889564461709e-01   2.2067509962409312e-01   2.1946073435564881e-01   2.2056188223778572e-01   2.1936292783473005e-01   2.2044936663424111e-01   2.1926546459153154e-01   2.2033735385175401e-01   2.1916840401318849e-01   2.2022561500953924e-01   2.1907161307855577e-01   2.2011443287735938e-01   2.1897516184086060e-01   2.2000351296622681e-01   2.1887871694105906e-01   2.1989280442976758e-01   2.1878281714722314e-01   2.1978258971683268e-01   2.1868712687758335e-01   2.1967272033927401e-01   2.1859181504634725e-01   2.1956331221720773e-01   2.1849686727158416e-01   2.1945443972608264e-01   2.1840221626728692e-01   2.1934586649116039e-01   2.1830771344927391e-01   2.1923749050673261e-01   2.1821351648101739e-01   2.1912944197292800e-01   2.1811931314055030e-01   2.1902163951809625e-01   2.1802551114794499e-01   2.1891408875119187e-01   2.1793181716717608e-01   2.1880683708532411e-01   2.1783834688133946e-01   2.1869982556713666e-01   2.1774484642495412e-01   2.1859297202083439e-01   2.1765183168973801e-01   2.1848670544877458e-01   2.1755872267255577e-01   2.1838036629084942e-01   2.1746591986374567e-01   2.1827434506518945e-01   2.1737290914604110e-01   2.1816863002675640e-01   2.1728025964284237e-01   2.1806299941200863e-01   2.1718734076311408e-01   2.1795719902388949e-01   2.1709465091635000e-01   2.1785169393294346e-01   2.1700181000209773e-01   2.1774622484964981e-01   2.1690912289942105e-01   2.1764092489179204e-01   2.1681624452371706e-01   2.1753579480289167e-01   2.1672344279093980e-01   2.1743057619354875e-01   2.1663053200193091e-01   2.1732527843574595e-01   2.1653744436848035e-01   2.1722007927378537e-01   2.1644432582786657e-01   2.1711476176555755e-01   2.1635099779759942e-01   2.1700948411973156e-01   2.1625755258676532e-01   2.1690416910382698e-01   2.1616369449185108e-01   2.1679854030549250e-01   2.1606977558163981e-01   2.1669285110026970e-01   2.1597554224612081e-01   2.1658706913556316e-01   2.1588118069737033e-01   2.1648115541777344e-01   2.1578630607390273e-01   2.1637481651773993e-01   2.1569138222926318e-01   2.1626877204594824e-01   2.1559584742755850e-01   2.1616196929961287e-01   2.1550015789356136e-01   2.1605496590394621e-01   2.1540392973460351e-01   2.1594769727198626e-01   2.1530758187293450e-01   2.1584030885634142e-01   2.1521074705718710e-01   2.1573250757085405e-01   2.1511392503759841e-01   2.1562499047112083e-01   2.1501630377436121e-01   2.1551662027151638e-01   2.1491896639051453e-01   2.1540831479230527e-01   2.1482102045566917e-01   2.1529975420991151e-01   2.1472330272318335e-01   2.1519135766402200e-01   2.1462493544567132e-01   2.1508230263427233e-01   2.1452688765667383e-01   2.1497394400876207e-01   2.1442845975904040e-01   2.1486488976831267e-01   2.1433065364405143e-01   2.1475662989653846e-01   2.1423246823367673e-01   2.1464795936271955e-01   2.1413519087573277e-01   2.1454028632626390e-01   2.1403793812852040e-01   2.1443247253419462e-01   2.1394173757675145e-01   2.1432608742131920e-01   2.1384585575772347e-01   2.1421967044603096e-01   2.1375158049576223e-01   2.1411513531177892e-01   2.1365838535570114e-01   2.1401142125822151e-01   2.1356712412557285e-01   2.1390992138258066e-01   2.1347726384214544e-01   2.1380956156203249e-01   2.1338997347671970e-01   2.1371231951331682e-01   2.1330503516791829e-01   2.1361708987828926e-01   2.1322282499138442e-01   2.1352508170975251e-01   2.1314359225157131e-01   2.1343602459375463e-01   2.1306814228973850e-01   2.1335145149999088e-01   2.1299629059552666e-01   2.1327051047122206e-01   2.1292851634516125e-01   2.1319449634675786e-01   2.1286472211367174e-01   2.1312252317554289e-01   2.1280554137558008e-01   2.1305611831515553e-01   2.1275072721186425e-01   2.1299437836645302e-01   2.1270013420283684e-01   2.1293763293104159e-01   2.1265348530349534e-01   2.1288529606452336e-01   2.1261071329588646e-01   2.1283752209781101e-01   2.1257186430824476e-01   2.1279394127849088e-01   2.1253533774559735e-01   2.1275266501206300e-01   2.1250185602801949e-01   2.1271449910771389e-01   2.1247020299618888e-01   2.1267804480018337e-01   2.1244069747441541e-01   2.1264294327766289e-01   2.1241200678913469e-01   2.1260751311214854e-01   2.1238438444787469e-01   2.1257188557646553e-01   2.1235733683352426e-01   2.1253555776560415e-01   2.1233203526005867e-01   2.1249911908114716e-01   2.1230771312243377e-01   2.1246222377337312e-01   2.1228569459349869e-01   2.1242554449969528e-01   2.1226739572881453e-01   2.1239148840314870e-01   2.1225512207836836e-01   2.1236156097857303e-01   2.1224966039689844e-01   2.1233712055874882e-01   2.1225425363884351e-01   2.1232097862654725e-01   2.1226994209602129e-01   2.1231505516365165e-01   2.1230157158075535e-01   2.1232242833234299e-01   2.1235006124894665e-01   2.1234490274024834e-01   2.1242123967049079e-01   2.1238703075994983e-01   2.1251529588921056e-01   2.1245002198512097e-01   2.1263979523704654e-01   2.1253777027438961e-01   2.1279807617238380e-01   2.1265613397139277e-01   2.1299766052323166e-01   2.1280859925226867e-01   2.1324211244111604e-01   2.1300055892127437e-01   2.1354089716008540e-01   2.1323838452984803e-01   2.1390025065124324e-01   2.1352980236307220e-01   2.1433069051665291e-01   2.1388355693372146e-01   2.1484025250412594e-01   2.1430878366239592e-01   2.1544046303728681e-01   2.1481643906341558e-01   2.2093426509241781e-01   2.2217762689926251e-01   2.2082106898553669e-01   2.2204931194818162e-01   2.2070830312246872e-01   2.2192101405962811e-01   2.2059588324341997e-01   2.2179289506674449e-01   2.2048386748665136e-01   2.2166518418898448e-01   2.2037229413510859e-01   2.2153791858512462e-01   2.2026080467573050e-01   2.2141118012913971e-01   2.2014997250188331e-01   2.2128485946522594e-01   2.2003966719362536e-01   2.2115922204237695e-01   2.1992962829567897e-01   2.2103398905211952e-01   2.1982015461601626e-01   2.2090934679107965e-01   2.1971093578753492e-01   2.2078508485202122e-01   2.1960197179744220e-01   2.2066103026653033e-01   2.1949348304086028e-01   2.2053770356489991e-01   2.1938535390588226e-01   2.2041467076104188e-01   2.1927767397886580e-01   2.2029222960101777e-01   2.1917053297524758e-01   2.2017043271026390e-01   2.1906371746533942e-01   2.2004898001482462e-01   2.1895711229232001e-01   2.1992795995646627e-01   2.1885081116110813e-01   2.1980719593948714e-01   2.1874481912442009e-01   2.1968661298900183e-01   2.1863906503940775e-01   2.1956670826828478e-01   2.1853364629769476e-01   2.1944698318336586e-01   2.1842840441034050e-01   2.1932777329712314e-01   2.1832332784239300e-01   2.1920866904958489e-01   2.1821879494861926e-01   2.1909031171290450e-01   2.1811426556393870e-01   2.1897184074391043e-01   2.1800996592922423e-01   2.1885399232864280e-01   2.1790603889847796e-01   2.1873616275683005e-01   2.1780220826657673e-01   2.1861899585605626e-01   2.1769822423720789e-01   2.1850154532790902e-01   2.1759449311540152e-01   2.1838458596644977e-01   2.1749078253587570e-01   2.1826764742483165e-01   2.1738723943314370e-01   2.1815101895366848e-01   2.1728384574367443e-01   2.1803454109665785e-01   2.1718042752766328e-01   2.1791819187548578e-01   2.1707687754730273e-01   2.1780194537478303e-01   2.1697341192628969e-01   2.1768575243071331e-01   2.1686981385097673e-01   2.1756954793906824e-01   2.1676624954663004e-01   2.1745341415366359e-01   2.1666263868971333e-01   2.1733741252237473e-01   2.1655873928267186e-01   2.1722119095456380e-01   2.1645469464981595e-01   2.1710520077089190e-01   2.1635057702725885e-01   2.1698891077707907e-01   2.1624626687003382e-01   2.1687283513180322e-01   2.1614153014060003e-01   2.1675614906463686e-01   2.1603702018109897e-01   2.1663999201875461e-01   2.1593180703680231e-01   2.1652305391236457e-01   2.1582628382946262e-01   2.1640629824715499e-01   2.1572043149393438e-01   2.1628900244675051e-01   2.1561440524860956e-01   2.1617162219398015e-01   2.1550793998514015e-01   2.1605393168026454e-01   2.1540172405965299e-01   2.1593633623522884e-01   2.1529468964193388e-01   2.1581835706908548e-01   2.1518757338252392e-01   2.1570031996631561e-01   2.1508014734273376e-01   2.1558194333558528e-01   2.1497278103859552e-01   2.1546377858350410e-01   2.1486470517332740e-01   2.1534493912136671e-01   2.1475719488882883e-01   2.1522658486709018e-01   2.1464901002108686e-01   2.1510773925921989e-01   2.1454146974045704e-01   2.1498956381526038e-01   2.1443343978658100e-01   2.1487107838872826e-01   2.1432624895503075e-01   2.1475323139457386e-01   2.1421885824346365e-01   2.1463530179049736e-01   2.1411273843234940e-01   2.1451851050758586e-01   2.1400656938469453e-01   2.1440182779235201e-01   2.1390204019702719e-01   2.1428672549320457e-01   2.1379830996571955e-01   2.1417233889257450e-01   2.1369656955496902e-01   2.1406006359118759e-01   2.1359590539016826e-01   2.1394876805365076e-01   2.1349811184006051e-01   2.1384052574009965e-01   2.1340226284654870e-01   2.1373412337891803e-01   2.1330947383816709e-01   2.1363099245454878e-01   2.1321948365334484e-01   2.1353091894106285e-01   2.1313385519994099e-01   2.1343518322041918e-01   2.1305174507194755e-01   2.1334360483434439e-01   2.1297445780045274e-01   2.1325718524641421e-01   2.1290118217788642e-01   2.1317529285830364e-01   2.1283346145640331e-01   2.1309938290985014e-01   2.1277042822467929e-01   2.1302906701862986e-01   2.1271261500930119e-01   2.1296425214278775e-01   2.1265942273349017e-01   2.1290504479471736e-01   2.1261119569995859e-01   2.1285135537747865e-01   2.1256760179193032e-01   2.1280286659750647e-01   2.1252713189833344e-01   2.1275772889854994e-01   2.1249049539037793e-01   2.1271627908387236e-01   2.1245684352609029e-01   2.1267733367769090e-01   2.1242592242353134e-01   2.1264051357035268e-01   2.1239621920247356e-01   2.1260399317335857e-01   2.1236771148032027e-01   2.1256700169464601e-01   2.1234048567353270e-01   2.1252962447138907e-01   2.1231475567272495e-01   2.1249207805847112e-01   2.1229076688579035e-01   2.1245386071829025e-01   2.1226841324947637e-01   2.1241611255138768e-01   2.1225051916385412e-01   2.1238056842759623e-01   2.1223867485649472e-01   2.1234984248589997e-01   2.1223424121747164e-01   2.1232469980520582e-01   2.1224015009143901e-01   2.1230868444964887e-01   2.1225951904317830e-01   2.1230376603202522e-01   2.1229566526996888e-01   2.1231458099756279e-01   2.1235081481933743e-01   2.1234186452714049e-01   2.1242965408335543e-01   2.1239080410959232e-01   2.1253674650193466e-01   2.1246260437094111e-01   2.1267489338986748e-01   2.1256392539294633e-01   2.1285233708985846e-01   2.1269676536890558e-01   2.1307522469640597e-01   2.1286930370885171e-01   2.1334874400576900e-01   2.1308510629387237e-01   2.1368149006095202e-01   2.1335223563276948e-01   2.1408236253190768e-01   2.1367743563190175e-01   2.1456027898366073e-01   2.1407189709609706e-01   2.1512663756933600e-01   2.1454310822035638e-01   2.1579457531740026e-01   2.1510571583263607e-01   2.2187426467630206e-01   2.2174744683873751e-01   2.2302457132119763e-01   2.2162062918941819e-01   2.2288208383492622e-01   2.2149412089036738e-01   2.2273898283520271e-01   2.2136804863558449e-01   2.2259646237222264e-01   2.2124237887343340e-01   2.2245474291036055e-01   2.2111719248412406e-01   2.2231376165590297e-01   2.2099246174506973e-01   2.2217303828033938e-01   2.2086836639814661e-01   2.2203328426024882e-01   2.2074467044607565e-01   2.2189368750117242e-01   2.2062161432798225e-01   2.2175480948751494e-01   2.2049892886487535e-01   2.2161638760819705e-01   2.2037649618356397e-01   2.2147830432429269e-01   2.2025478844915103e-01   2.2134097278793771e-01   2.2013338685347400e-01   2.2120421769362508e-01   2.2001257807936245e-01   2.2106797312642507e-01   2.1989238067523428e-01   2.2093267612538639e-01   2.1977253108534101e-01   2.2079763328448204e-01   2.1965317044271021e-01   2.2066289825962682e-01   2.1953410032667683e-01   2.2052875475346168e-01   2.1941520520129118e-01   2.2039493399757876e-01   2.1929696057623882e-01   2.2026178958061551e-01   2.1917891492405769e-01   2.2012902900406039e-01   2.1906139689422316e-01   2.1999673157046154e-01   2.1894402206413824e-01   2.1986470610010525e-01   2.1882737466201146e-01   2.1973358564709275e-01   2.1871062307910971e-01   2.1960252680973130e-01   2.1859452233164775e-01   2.1947196706918537e-01   2.1847837971908921e-01   2.1934206344892848e-01   2.1836287462547579e-01   2.1921232850953803e-01   2.1824710456455232e-01   2.1908266271379689e-01   2.1813184586592746e-01   2.1895351563004828e-01   2.1801662512881101e-01   2.1882452262938185e-01   2.1790170880587523e-01   2.1869599952024896e-01   2.1778696144718765e-01   2.1856767290239021e-01   2.1767229931653992e-01   2.1843967691585203e-01   2.1755777212054517e-01   2.1831171779449859e-01   2.1744329410284019e-01   2.1818416983593367e-01   2.1732880410887706e-01   2.1805653158909902e-01   2.1721435509268197e-01   2.1792926189222883e-01   2.1710000757961140e-01   2.1780205752216561e-01   2.1698542717401811e-01   2.1767486329871916e-01   2.1687104352386810e-01   2.1754789934120525e-01   2.1675636098603304e-01   2.1742092088350057e-01   2.1664190941321923e-01   2.1729385860916889e-01   2.1652685125705654e-01   2.1716672028784736e-01   2.1641229154505784e-01   2.1703997013646806e-01   2.1629690705643598e-01   2.1691278808340850e-01   2.1618166054484322e-01   2.1678569700398542e-01   2.1606589015052580e-01   2.1665828306116558e-01   2.1594999744513449e-01   2.1653072580315738e-01   2.1583374915596243e-01   2.1640306239433757e-01   2.1571750756243480e-01   2.1627555032636001e-01   2.1560080899592818e-01   2.1614757088245376e-01   2.1548399220210501e-01   2.1601955675871090e-01   2.1536679457008534e-01   2.1589140640047322e-01   2.1524975889983439e-01   2.1576313032521066e-01   2.1513201725668826e-01   2.1563453338973740e-01   2.1501467143747510e-01   2.1550631390737768e-01   2.1489670664283922e-01   2.1537765309609688e-01   2.1477929979594923e-01   2.1524967685916066e-01   2.1466149042184432e-01   2.1512115033363713e-01   2.1454422223049779e-01   2.1499333351452457e-01   2.1442677177461172e-01   2.1486522022305282e-01   2.1431029172017491e-01   2.1473829742894271e-01   2.1419383431531580e-01   2.1461102763905582e-01   2.1407879302354632e-01   2.1448536660314407e-01   2.1396432947201224e-01   2.1436029318891348e-01   2.1385181438540687e-01   2.1423696818624557e-01   2.1374017894575018e-01   2.1411456516133417e-01   2.1363142597069326e-01   2.1399499352975637e-01   2.1352436916114592e-01   2.1387715463783954e-01   2.1342036229547526e-01   2.1376262820381894e-01   2.1331931535200604e-01   2.1365075636899672e-01   2.1322241182175300e-01   2.1354355170485664e-01   2.1312947639369101e-01   2.1344040416577162e-01   2.1304155447249537e-01   2.1334277664581897e-01   2.1295812953053725e-01   2.1324988584305979e-01   2.1288057554438330e-01   2.1316366347963339e-01   2.1280857665938935e-01   2.1308364742210201e-01   2.1274223471168785e-01   2.1300992263541457e-01   2.1268168589695274e-01   2.1294264101607649e-01   2.1262701980384127e-01   2.1288209576360898e-01   2.1257812798271192e-01   2.1282796411386945e-01   2.1253339582186495e-01   2.1277832083697124e-01   2.1249351357634300e-01   2.1273339949857256e-01   2.1245729766637308e-01   2.1269207481642766e-01   2.1242455508937261e-01   2.1265348048946978e-01   2.1239391682849243e-01   2.1261533254348913e-01   2.1236463432482647e-01   2.1257719684246343e-01   2.1233681216422950e-01   2.1253870727281149e-01   2.1231063442346712e-01   2.1249961684587668e-01   2.1228584345495732e-01   2.1245952715429070e-01   2.12263485