<?xml version="1.0"?>
<VTKFile type="UnstructuredGrid"  version="0.1"  >
<UnstructuredGrid>
<Piece  NumberOfPoints="2393" NumberOfCells="4569">
<Points>
<DataArray  type="Float64"  NumberOfComponents="3"  format="ascii">2.139565217391304 0.2583333333333334 0  2.147826086956522 0.2583333333333334 0  2.147826086956522 0.2666666666666667 0  2.139565217391304 0.2666666666666667 0  2.156086956521739 0.2583333333333334 0  2.156086956521739 0.2666666666666667 0  2.164347826086956 0.2583333333333334 0  2.164347826086956 0.2666666666666667 0  2.172608695652174 0.2583333333333334 0  2.172608695652174 0.2666666666666667 0  2.180869565217391 0.2583333333333334 0  2.180869565217391 0.2666666666666667 0  2.189130434782609 0.2583333333333334 0  2.189130434782609 0.2666666666666667 0  2.197391304347826 0.2583333333333334 0  2.197391304347826 0.2666666666666667 0  2.205652173913043 0.2583333333333334 0  2.205652173913043 0.2666666666666667 0  2.213913043478261 0.2583333333333334 0  2.213913043478261 0.2666666666666667 0  2.222173913043478 0.2583333333333334 0  2.222173913043478 0.2666666666666667 0  2.230434782608695 0.2583333333333334 0  2.230434782608695 0.2666666666666667 0  2.238695652173913 0.2583333333333334 0  2.238695652173913 0.2666666666666667 0  2.24695652173913 0.2583333333333334 0  2.24695652173913 0.2666666666666667 0  2.255217391304348 0.2583333333333334 0  2.255217391304348 0.2666666666666667 0  2.263478260869565 0.2583333333333334 0  2.263478260869565 0.2666666666666667 0  2.271739130434783 0.2583333333333334 0  2.271739130434783 0.2666666666666667 0  2.28 0.2583333333333334 0  2.28 0.2666666666666667 0  2.288260869565217 0.2583333333333334 0  2.288260869565217 0.2666666666666667 0  2.296521739130434 0.2583333333333334 0  2.296521739130434 0.2666666666666667 0  2.304782608695652 0.2583333333333334 0  2.304782608695652 0.2666666666666667 0  2.31304347826087 0.2583333333333334 0  2.31304347826087 0.2666666666666667 0  2.321304347826087 0.2583333333333334 0  2.321304347826087 0.2666666666666667 0  2.329565217391304 0.2583333333333334 0  2.329565217391304 0.2666666666666667 0  2.337826086956521 0.2583333333333334 0  2.337826086956521 0.2666666666666667 0  2.346086956521739 0.2583333333333334 0  2.346086956521739 0.2666666666666667 0  2.354347826086956 0.2583333333333334 0  2.354347826086956 0.2666666666666667 0  2.362608695652174 0.2583333333333334 0  2.362608695652174 0.2666666666666667 0  2.370869565217391 0.2583333333333334 0  2.370869565217391 0.2666666666666667 0  2.379130434782609 0.2583333333333334 0  2.379130434782609 0.2666666666666667 0  2.387391304347826 0.2583333333333334 0  2.387391304347826 0.2666666666666667 0  2.395652173913044 0.2583333333333334 0  2.395652173913044 0.2666666666666667 0  2.403913043478261 0.2583333333333334 0  2.403913043478261 0.2666666666666667 0  2.412173913043478 0.2583333333333334 0  2.412173913043478 0.2666666666666667 0  2.420434782608695 0.2583333333333334 0  2.420434782608695 0.2666666666666667 0  2.428695652173913 0.2583333333333334 0  2.428695652173913 0.2666666666666667 0  2.43695652173913 0.2583333333333334 0  2.43695652173913 0.2666666666666667 0  2.445217391304348 0.2583333333333334 0  2.445217391304348 0.2666666666666667 0  2.453478260869565 0.2583333333333334 0  2.453478260869565 0.2666666666666667 0  2.461739130434782 0.2583333333333334 0  2.461739130434782 0.2666666666666667 0  2.47 0.2583333333333334 0  2.47 0.2666666666666667 0  2.478260869565217 0.2583333333333334 0  2.478260869565217 0.2666666666666667 0  2.486521739130435 0.2583333333333334 0  2.486521739130435 0.2666666666666667 0  2.494782608695652 0.2583333333333334 0  2.494782608695652 0.2666666666666667 0  2.503043478260869 0.2583333333333334 0  2.503043478260869 0.2666666666666667 0  2.511304347826087 0.2583333333333334 0  2.511304347826087 0.2666666666666667 0  2.519565217391305 0.2583333333333334 0  2.519565217391305 0.2666666666666667 0  2.527826086956522 0.2583333333333334 0  2.527826086956522 0.2666666666666667 0  2.536086956521739 0.2666666666666667 0  1.908260869565217 0.2666666666666667 0  1.916521739130435 0.2666666666666667 0  1.916521739130435 0.275 0  1.908260869565217 0.275 0  1.924782608695652 0.2666666666666667 0  1.924782608695652 0.275 0  1.933043478260869 0.2666666666666667 0  1.933043478260869 0.275 0  1.941304347826087 0.2666666666666667 0  1.941304347826087 0.275 0  1.949565217391304 0.2666666666666667 0  1.949565217391304 0.275 0  1.957826086956522 0.2666666666666667 0  1.957826086956522 0.275 0  1.966086956521739 0.2666666666666667 0  1.966086956521739 0.275 0  1.974347826086956 0.2666666666666667 0  1.974347826086956 0.275 0  1.982608695652174 0.2666666666666667 0  1.982608695652174 0.275 0  1.990869565217391 0.2666666666666667 0  1.990869565217391 0.275 0  1.999130434782608 0.2666666666666667 0  1.999130434782608 0.275 0  2.007391304347826 0.2666666666666667 0  2.007391304347826 0.275 0  2.015652173913043 0.2666666666666667 0  2.015652173913043 0.275 0  2.023913043478261 0.2666666666666667 0  2.023913043478261 0.275 0  2.032173913043478 0.2666666666666667 0  2.032173913043478 0.275 0  2.040434782608695 0.2666666666666667 0  2.040434782608695 0.275 0  2.048695652173913 0.2666666666666667 0  2.048695652173913 0.275 0  2.05695652173913 0.2666666666666667 0  2.05695652173913 0.275 0  2.065217391304348 0.2666666666666667 0  2.065217391304348 0.275 0  2.073478260869565 0.2666666666666667 0  2.073478260869565 0.275 0  2.081739130434782 0.2666666666666667 0  2.081739130434782 0.275 0  2.09 0.2666666666666667 0  2.09 0.275 0  2.098260869565217 0.2666666666666667 0  2.098260869565217 0.275 0  2.106521739130435 0.2666666666666667 0  2.106521739130435 0.275 0  2.114782608695652 0.2666666666666667 0  2.114782608695652 0.275 0  2.12304347826087 0.2666666666666667 0  2.12304347826087 0.275 0  2.131304347826087 0.2666666666666667 0  2.131304347826087 0.275 0  2.139565217391304 0.275 0  2.147826086956522 0.275 0  2.156086956521739 0.275 0  2.164347826086956 0.275 0  2.172608695652174 0.275 0  2.180869565217391 0.275 0  2.189130434782609 0.275 0  2.197391304347826 0.275 0  2.205652173913043 0.275 0  2.213913043478261 0.275 0  2.222173913043478 0.275 0  2.230434782608695 0.275 0  2.238695652173913 0.275 0  2.24695652173913 0.275 0  2.255217391304348 0.275 0  2.263478260869565 0.275 0  2.271739130434783 0.275 0  2.28 0.275 0  2.288260869565217 0.275 0  2.296521739130434 0.275 0  2.304782608695652 0.275 0  2.31304347826087 0.275 0  2.321304347826087 0.275 0  2.329565217391304 0.275 0  2.337826086956521 0.275 0  2.346086956521739 0.275 0  2.354347826086956 0.275 0  2.362608695652174 0.275 0  2.370869565217391 0.275 0  2.379130434782609 0.275 0  2.387391304347826 0.275 0  2.395652173913044 0.275 0  2.403913043478261 0.275 0  2.412173913043478 0.275 0  2.420434782608695 0.275 0  2.428695652173913 0.275 0  2.43695652173913 0.275 0  2.445217391304348 0.275 0  2.453478260869565 0.275 0  2.461739130434782 0.275 0  2.47 0.275 0  2.478260869565217 0.275 0  2.486521739130435 0.275 0  2.494782608695652 0.275 0  2.503043478260869 0.275 0  2.511304347826087 0.275 0  2.519565217391305 0.275 0  2.527826086956522 0.275 0  2.536086956521739 0.275 0  2.544347826086956 0.275 0  1.916521739130435 0.2833333333333333 0  1.908260869565217 0.2833333333333333 0  1.924782608695652 0.2833333333333333 0  1.933043478260869 0.2833333333333333 0  1.941304347826087 0.2833333333333333 0  1.949565217391304 0.2833333333333333 0  1.957826086956522 0.2833333333333333 0  1.966086956521739 0.2833333333333333 0  1.974347826086956 0.2833333333333333 0  1.982608695652174 0.2833333333333333 0  1.990869565217391 0.2833333333333333 0  1.999130434782608 0.2833333333333333 0  2.007391304347826 0.2833333333333333 0  2.015652173913043 0.2833333333333333 0  2.023913043478261 0.2833333333333333 0  2.032173913043478 0.2833333333333333 0  2.040434782608695 0.2833333333333333 0  2.048695652173913 0.2833333333333333 0  2.05695652173913 0.2833333333333333 0  2.065217391304348 0.2833333333333333 0  2.073478260869565 0.2833333333333333 0  2.081739130434782 0.2833333333333333 0  2.09 0.2833333333333333 0  2.098260869565217 0.2833333333333333 0  2.106521739130435 0.2833333333333333 0  2.114782608695652 0.2833333333333333 0  2.12304347826087 0.2833333333333333 0  2.131304347826087 0.2833333333333333 0  2.139565217391304 0.2833333333333333 0  2.147826086956522 0.2833333333333333 0  2.156086956521739 0.2833333333333333 0  2.164347826086956 0.2833333333333333 0  2.172608695652174 0.2833333333333333 0  2.180869565217391 0.2833333333333333 0  2.189130434782609 0.2833333333333333 0  2.197391304347826 0.2833333333333333 0  2.205652173913043 0.2833333333333333 0  2.213913043478261 0.2833333333333333 0  2.222173913043478 0.2833333333333333 0  2.230434782608695 0.2833333333333333 0  2.238695652173913 0.2833333333333333 0  2.24695652173913 0.2833333333333333 0  2.255217391304348 0.2833333333333333 0  2.263478260869565 0.2833333333333333 0  2.271739130434783 0.2833333333333333 0  2.28 0.2833333333333333 0  2.288260869565217 0.2833333333333333 0  2.296521739130434 0.2833333333333333 0  2.304782608695652 0.2833333333333333 0  2.31304347826087 0.2833333333333333 0  2.321304347826087 0.2833333333333333 0  2.329565217391304 0.2833333333333333 0  2.337826086956521 0.2833333333333333 0  2.346086956521739 0.2833333333333333 0  2.354347826086956 0.2833333333333333 0  2.362608695652174 0.2833333333333333 0  2.370869565217391 0.2833333333333333 0  2.379130434782609 0.2833333333333333 0  2.387391304347826 0.2833333333333333 0  2.395652173913044 0.2833333333333333 0  2.403913043478261 0.2833333333333333 0  2.412173913043478 0.2833333333333333 0  2.420434782608695 0.2833333333333333 0  2.428695652173913 0.2833333333333333 0  2.43695652173913 0.2833333333333333 0  2.445217391304348 0.2833333333333333 0  2.453478260869565 0.2833333333333333 0  2.461739130434782 0.2833333333333333 0  2.47 0.2833333333333333 0  2.478260869565217 0.2833333333333333 0  2.486521739130435 0.283333333333333
[...]
<CellData  Scalars="rho_bar"> 
<DataArray  type="Float64"  Name="rho_bar"  format="ascii">2.9314724062373121e-01   0.0000000000000000e+00   2.6553067798107177e-01   0.0000000000000000e+00   2.6234220945420333e-01   0.0000000000000000e+00   2.6522607417486121e-01   0.0000000000000000e+00   2.6916969838532567e-01   0.0000000000000000e+00   2.6866859457940312e-01   0.0000000000000000e+00   2.6914028688162028e-01   0.0000000000000000e+00   2.6943574480938898e-01   0.0000000000000000e+00   2.7664745320482259e-01   0.0000000000000000e+00   2.5953449851528271e-01   0.0000000000000000e+00   2.6554025072402854e-01   0.0000000000000000e+00   2.6272583830590418e-01   0.0000000000000000e+00   2.6104154770817473e-01   0.0000000000000000e+00   2.6045286406896045e-01   0.0000000000000000e+00   2.5998225397797015e-01   0.0000000000000000e+00   2.6531044710879853e-01   0.0000000000000000e+00   2.6836498031610795e-01   0.0000000000000000e+00   2.5544893548619674e-01   0.0000000000000000e+00   2.5814814664250285e-01   0.0000000000000000e+00   2.5800449932004860e-01   0.0000000000000000e+00   2.5931836403447317e-01   0.0000000000000000e+00   2.6020080381393240e-01   0.0000000000000000e+00   2.5118492760153055e-01   0.0000000000000000e+00   2.5576338978699903e-01   0.0000000000000000e+00   2.7108453414757766e-01   0.0000000000000000e+00   2.5918080146849359e-01   0.0000000000000000e+00   2.5326674526664494e-01   0.0000000000000000e+00   2.5461306005055018e-01   0.0000000000000000e+00   2.5729119273912443e-01   0.0000000000000000e+00   2.5665837530446522e-01   0.0000000000000000e+00   2.5056245651710030e-01   0.0000000000000000e+00   2.5477275941008060e-01   0.0000000000000000e+00   2.6770893915094418e-01   0.0000000000000000e+00   2.8719193771338708e-01   2.8719991621023711e-01   0.0000000000000000e+00   2.8888351812799834e-01   0.0000000000000000e+00   2.8847991027900810e-01   0.0000000000000000e+00   2.8896487555760642e-01   0.0000000000000000e+00   2.8892498750856660e-01   0.0000000000000000e+00   2.8890114269167599e-01   0.0000000000000000e+00   2.8909828776160995e-01   0.0000000000000000e+00   2.8950340927899182e-01   0.0000000000000000e+00   2.9015014527009714e-01   0.0000000000000000e+00   2.9106074935417298e-01   0.0000000000000000e+00   2.9273687624972833e-01   0.0000000000000000e+00   2.9583967048776411e-01   0.0000000000000000e+00   3.0036462986678830e-01   0.0000000000000000e+00   3.0357821977402399e-01   0.0000000000000000e+00   2.9584252494227947e-01   0.0000000000000000e+00   2.7173090690709722e-01   0.0000000000000000e+00   2.6771919481963635e-01   0.0000000000000000e+00   2.7767961486949178e-01   0.0000000000000000e+00   3.0094927740702909e-01   0.0000000000000000e+00   2.8503435556522000e-01   0.0000000000000000e+00   2.8758570228393293e-01   0.0000000000000000e+00   2.9564703895603345e-01   0.0000000000000000e+00   2.9963414066847815e-01   0.0000000000000000e+00   2.9173645613501287e-01   0.0000000000000000e+00   2.9375052794939471e-01   0.0000000000000000e+00   2.9570019247584195e-01   0.0000000000000000e+00   2.9498105412376519e-01   0.0000000000000000e+00   2.9325066663325161e-01   0.0000000000000000e+00   2.9156652087415652e-01   0.0000000000000000e+00   2.9077089670011730e-01   0.0000000000000000e+00   2.9330365375911599e-01   0.0000000000000000e+00   2.9902168170658006e-01   0.0000000000000000e+00   2.9831387882263843e-01   0.0000000000000000e+00   2.6919947078689488e-01   0.0000000000000000e+00   2.7725172258363828e-01   0.0000000000000000e+00   2.7752551003643899e-01   1.5478443857937478e-02   3.0059934602171440e-01   6.6099620669016444e-03   2.9343037602065447e-01   0.0000000000000000e+00   2.9003351811766914e-01   0.0000000000000000e+00   2.9271922600697214e-01   0.0000000000000000e+00   2.9478783057405372e-01   0.0000000000000000e+00   2.9494901321888023e-01   0.0000000000000000e+00   2.9426373265374767e-01   0.0000000000000000e+00   2.9386149997885425e-01   0.0000000000000000e+00   2.9521313742987898e-01   0.0000000000000000e+00   2.9604809245674651e-01   0.0000000000000000e+00   2.9670399631466471e-01   0.0000000000000000e+00   3.0220278862148153e-01   0.0000000000000000e+00   3.1418213924361094e-01   0.0000000000000000e+00   2.5290279125585230e-01   0.0000000000000000e+00   2.5794940816004586e-01   8.9298779156971819e-02   3.0092132977307701e-01   0.0000000000000000e+00   2.8843342557451107e-01   0.0000000000000000e+00   2.8949496488408410e-01   0.0000000000000000e+00   2.9093273089019384e-01   0.0000000000000000e+00   2.9599190186989355e-01   0.0000000000000000e+00   3.0344252862798793e-01   0.0000000000000000e+00   3.0389049768746940e-01   0.0000000000000000e+00   2.9861869900556776e-01   0.0000000000000000e+00   2.9601391906917740e-01   0.0000000000000000e+00   2.9886074053447859e-01   0.0000000000000000e+00   3.0940203751527673e-01   0.0000000000000000e+00   3.3892516373964987e-01   0.0000000000000000e+00   2.4004937577606081e-01   0.0000000000000000e+00   2.5376305268256283e-01   0.0000000000000000e+00   2.8890265574210883e-01   0.0000000000000000e+00   2.7270156439976212e-01   0.0000000000000000e+00   2.7461634977882504e-01   0.0000000000000000e+00   2.7784946067789523e-01   0.0000000000000000e+00   2.8093965934625958e-01   0.0000000000000000e+00   2.8380816646190299e-01   0.0000000000000000e+00   2.8465903333124898e-01   0.0000000000000000e+00   2.8405101868154681e-01   0.0000000000000000e+00   2.7899723429487627e-01   0.0000000000000000e+00   3.0607644744800933e-01   0.0000000000000000e+00   2.5947436610090696e-01   0.0000000000000000e+00   2.5464278020857845e-01   0.0000000000000000e+00   2.8044102376791658e-01   0.0000000000000000e+00   2.7167544669116206e-01   0.0000000000000000e+00   2.7103947378215409e-01   0.0000000000000000e+00   2.7239812617638864e-01   0.0000000000000000e+00   2.7362959053620373e-01   0.0000000000000000e+00   2.7594743250497400e-01   0.0000000000000000e+00   2.8414330198458787e-01   0.0000000000000000e+00   2.8394810360895378e-01   0.0000000000000000e+00   2.8826584919911569e-01   0.0000000000000000e+00   2.6774751336146529e-01   0.0000000000000000e+00   2.8120773095020479e-01   0.0000000000000000e+00   2.6837990287893360e-01   0.0000000000000000e+00   2.6414500962999610e-01   0.0000000000000000e+00   2.6722530904682240e-01   0.0000000000000000e+00   2.6957907006639725e-01   0.0000000000000000e+00   2.7011171857727428e-01   0.0000000000000000e+00   2.6915984641953750e-01   0.0000000000000000e+00   2.6807446970495252e-01   0.0000000000000000e+00   2.6897859020192716e-01   0.0000000000000000e+00   2.6121710530590309e-01   0.0000000000000000e+00   2.6196289954430874e-01   0.0000000000000000e+00   2.6041503183463649e-01   0.0000000000000000e+00   2.6009058022202647e-01   0.0000000000000000e+00   2.6055956099540362e-01   0.0000000000000000e+00   2.6206850771747353e-01   0.0000000000000000e+00   2.6330520019445103e-01   0.0000000000000000e+00   2.6143774637671530e-01   0.0000000000000000e+00   2.5666539514588405e-01   0.0000000000000000e+00   2.5771441921864502e-01   0.0000000000000000e+00   2.5955528731552929e-01   0.0000000000000000e+00   2.5799648582605234e-01   0.0000000000000000e+00   2.5481863101435609e-01   0.0000000000000000e+00   2.5203164110775805e-01   0.0000000000000000e+00   2.5560593621596228e-01   0.0000000000000000e+00   2.7481636053853903e-01   0.0000000000000000e+00   2.5799390158115471e-01   0.0000000000000000e+00   2.5946546113230662e-01   0.0000000000000000e+00   2.6107828320892862e-01   0.0000000000000000e+00   2.6132578930007982e-01   0.0000000000000000e+00   2.5877477968149148e-01   0.0000000000000000e+00   2.5030606174154285e-01   0.0000000000000000e+00   2.5480747636676321e-01   1.4635996804121792e-02   2.5862279409784018e-02   2.8493805987859094e-01   2.8697471571406202e-01   0.0000000000000000e+00   2.8777110355587610e-01   0.0000000000000000e+00   2.8883576307817416e-01   0.0000000000000000e+00   2.8841426271018339e-01   0.0000000000000000e+00   2.8807372085939958e-01   0.0000000000000000e+00   2.8791629852698530e-01   0.0000000000000000e+00   2.8782397983628732e-01   0.0000000000000000e+00   2.8793821167520689e-01   0.0000000000000000e+00   2.8846256519267904e-01   0.0000000000000000e+00   2.8922390783052404e-01   0.0000000000000000e+00   2.9124106937511252e-01   0.0000000000000000e+00   2.9551387889151781e-01   0.0000000000000000e+00   3.0269487633719172e-01   0.0000000000000000e+00   3.1184817927847230e-01   0.0000000000000000e+00   3.0414264003850244e-01   0.0000000000000000e+00   2.5988351554228606e-01   0.0000000000000000e+00   2.6538637246743729e-01   0.0000000000000000e+00   2.7873637495200404e-01   1.5144315004391768e-02   3.0211943746159542e-01   0.0000000000000000e+00   2.8983924823872304e-01   0.0000000000000000e+00   2.8657666302190693e-01   0.0000000000000000e+00   2.9137875214419268e-01   0.0000000000000000e+00   2.9414436186419080e-01   0.0000000000000000e+00   2.9324334600348401e-01   0.0000000000000000e+00   2.9603180347690905e-01   0.0000000000000000e+00   2.9626119429564540e-01   0.0000000000000000e+00   2.9437141392678551e-01   0.0000000000000000e+00   2.9244459820811886e-01   0.0000000000000000e+00   2.9119719505864999e-01   0.0000000000000000e+00   2.9007238711529415e-01   0.0000000000000000e+00   2.9222058553448382e-01   0.0000000000000000e+00   3.0101861256471268e-01   0.0000000000000000e+00   3.0972636711293972e-01   0.0000000000000000e+00   2.4641259540760380e-01   0.0000000000000000e+00   2.5835594953339386e-01   1.2967368181884742e-01   2.6470175548714076e-01   0.0000000000000000e+00   3.0656706629685404e-01   0.0000000000000000e+00   2.9170284485047698e-01   0.0000000000000000e+00   2.9297971950961876e-01   0.0000000000000000e+00   2.9324427829567468e-01   0.0000000000000000e+00   2.9412514731958667e-01   0.0000000000000000e+00   2.9449635980538402e-01   0.0000000000000000e+00   2.9498807983193071e-01   0.0000000000000000e+00   2.9570937693000832e-01   0.0000000000000000e+00   2.9496461647688926e-01   0.0000000000000000e+00   2.9433085726643948e-01   0.0000000000000000e+00   2.9550610531954546e-01   0.0000000000000000e+00   3.0522384225041094e-01   0.0000000000000000e+00   3.4003796855727253e-01   1.0000000000000000e+00   0.0000000000000000e+00   2.3731171623391489e-01   0.0000000000000000e+00   2.5483330842795815e-01   0.0000000000000000e+00   2.8980101855914236e-01   0.0000000000000000e+00   2.7902944403516428e-01   0.0000000000000000e+00   2.8116415474127815e-01   0.0000000000000000e+00   2.8289185492028507e-01   0.0000000000000000e+00   2.8678801862555947e-01   0.0000000000000000e+00   2.9632409434228618e-01   0.0000000000000000e+00   2.9302691950669785e-01   0.0000000000000000e+00   2.8793582513102467e-01   0.0000000000000000e+00   2.9007838613932191e-01   0.0000000000000000e+00   2.9221427647748444e-01   0.0000000000000000e+00   2.8827124667603471e-01   0.0000000000000000e+00   3.1453963887636738e-01   1.6543165251693141e-02   2.6955665650012772e-01   0.0000000000000000e+00   2.6254981147970508e-01   0.0000000000000000e+00   2.8283463107674789e-01   0.0000000000000000e+00   2.7346889101872135e-01   0.0000000000000000e+00   2.7548664820023772e-01   0.0000000000000000e+00   2.7961156804848719e-01   0.0000000000000000e+00   2.8154598612052312e-01   0.0000000000000000e+00   2.8054410041732136e-01   0.0000000000000000e+00   2.7767687407517450e-01   0.0000000000000000e+00   2.7542050910733612e-01   0.0000000000000000e+00   2.7940761658155761e-01   0.0000000000000000e+00   2.9415020386450752e-01   0.0000000000000000e+00   2.6854433318966087e-01   0.0000000000000000e+00   2.6305938790289252e-01   0.0000000000000000e+00   2.7594601430455662e-01   0.0000000000000000e+00   2.7232387911271372e-01   0.0000000000000000e+00   2.6990885396999875e-01   0.0000000000000000e+00   2.6834466728352840e-01   0.0000000000000000e+00   2.6667408341618465e-01   0.0000000000000000e+00   2.6994779283502013e-01   0.0000000000000000e+00   2.9614103727056534e-01   0.0000000000000000e+00   2.8078114998914505e-01   0.0000000000000000e+00   2.8825676034954650e-01   0.0000000000000000e+00   2.8272299501670933e-01   0.0000000000000000e+00   2.8103272206970653e-01   0.0000000000000000e+00   2.6492452653422571e-01   0.0000000000000000e+00   2.6477253068633483e-01   0.0000000000000000e+00   2.6780412838393930e-01   0.0000000000000000e+00   2.6857815897555126e-01   0.0000000000000000e+00   2.6666942684830697e-01   0.0000000000000000e+00   2.6481386303714100e-01   0.0000000000000000e+00   2.6489714596497682e-01   0.0000000000000000e+00   2.6481723633215565e-01   0.0000000000000000e+00   2.6145550396237927e-01   0.0000000000000000e+00   2.6159967794745786e-01   0.0000000000000000e+00   2.6116443410576845e-01   0.0000000000000000e+00   2.6079410687276394e-01   0.0000000000000000e+00   2.6085591649285872e-01   0.0000000000000000e+00   2.6061882868303177e-01   0.0000000000000000e+00   2.5993282279166474e-01   0.0000000000000000e+00   2.5672505800823336e-01   0.0000000000000000e+00   2.5396928291420184e-01   2.2294488706739023e-02   2.5338920920225894e-01   2.2230263887196584e-02   2.5814757139213290e-01   2.3433058365364006e-02   2.5876364527788559e-01   0.0000000000000000e+00   2.5619730522256495e-01   0.0000000000000000e+00   2.5040480012229560e-01   0.0000000000000000e+00   2.4290100907028822e-01   0.0000000000000000e+00   2.8878778946780104e-01   0.0000000000000000e+00   2.7738183748746037e-01   0.0000000000000000e+00   2.7046219841705338e-01   0.0000000000000000e+00   2.7186390981175129e-01   0.0000000000000000e+00   2.7802055214977700e-01   0.0000000000000000e+00   2.8306021163722106e-01   0.0000000000000000e+00   2.5560844171164682e-01   0.0000000000000000e+00   2.7149805940326993e-01   0.0000000000000000e+00   2.8897079205689613e-01   0.0000000000000000e+00   2.8830737995305178e-01   0.0000000000000000e+00   2.8914131367815621e-01   0.0000000000000000e+00   2.8959469473104782e-01   0.0000000000000000e+00   2.8994141244566030e-01   0.0000000000000000e+00   2.9002522761369665e-01   0.0000000000000000e+00   2.8979610205236117e-01   0.0000000000000000e+00   1.0000000000000000e+00   2.8936846115304027e-01   1.0000000000000000e+00   0.0000000000000000e+00   2.8902406788484181e-01   0.0000000000000000e+00   2.8938842393573505e-01   0.0000000000000000e+00   2.8946328797706100e-01   0.0000000000000000e+00   2.9098058694856194e-01   0.0000000000000000e+00   2.9360834014817960e-01   0.0000000000000000e+00   3.0148456130277107e-01   1.0875514079521677e-03   3.2152849484292123e-01   6.9364267156644920e-03   3.1731257679856933e-01   0.0000000000000000e+00   2.3714880346070796e-01   0.0000000000000000e+00   2.5672994722645986e-01   1.1803151620211495e-01   2.7778664277939885e-01   0.0000000000000000e+00   3.1796998712365648e-01   0.0000000000000000e+00   2.8409554529402770e-01   0.0000000000000000e+00   2.8075621255791172e-01   0.0000000000000000e+00   2.8862547730622723e-01   0.0000000000000000e+00   2.9602185562630784e-01   0.0000000000000000e+00   2.9731120836825081e-01   0.0000000000000000e+00   2.9499679539789914e-01   0.0000000000000000e+00   2.9217119358406229e-01   0.0000000000000000e+00   2.9017348159487205e-01   0.0000000000000000e+00   2.8938473134569914e-01   0.0000000000000000e+00   2.9025780561876802e-01   0.0000000000000000e+00   2.8933277434215360e-01   0.0000000000000000e+00   2.9127397560340534e-01   0.0000000000000000e+00   3.0473234327743276e-01   0.0000000000000000e+00   3.4169921743422493e-01   0.0000000000000000e+00   2.3068974282365262e-01   0.0000000000000000e+00   2.6879136209679266e-01   0.0000000000000000e+00   2.5517002947904172e-01   0.0000000000000000e+00   2.9579611701957081e-01   0.0000000000000000e+00   2.8450199342225985e-01   0.0000000000000000e+00   2.8456302374949805e-01   0.0000000000000000e+00   2.8528995747407548e-01   0.0000000000000000e+00   2.8577964196415301e-01   0.0000000000000000e+00   2.8624865716420539e-01   0.0000000000000000e+00   2.8674806185023255e-01   0.0000000000000000e+00   2.8678595460480621e-01   0.0000000000000000e+00   2.8686760841407255e-01   0.0000000000000000e+00   2.8778435378091966e-01   0.0000000000000000e+00   2.8708764538361381e-01   0.0000000000000000e+00   2.8142251666841128e-01   1.6510664735765804e-02   3.0901015385102409e-01   3.1266982345573284e-02   2.6711144869560993e-01   0.0000000000000000e+00   2.6235340401794044e-01   0.0000000000000000e+00   2.8653504120590578e-01   0.0000000000000000e+00   2.7949127689947534e-01   0.0000000000000000e+00   2.7804750554679691e-01   0.0000000000000000e+00   2.7814385664786395e-01   0.0000000000000000e+00   2.8281834834462088e-01   0.0000000000000000e+00   3.0779201344515661e-01   0.0000000000000000e+00   2.8878726116363795e-01   0.0000000000000000e+00   2.9130294511921379e-01   0.0000000000000000e+00   2.8904113731848846e-01   0.0000000000000000e+00   2.8574418242523147e-01   2.6989624170299174e-02   2.8760536668512421e-01   3.0653388572915372e-02   3.0713815155442548e-01   3.2035319415444755e-02   2.7967258425726760e-01   0.0000000000000000e+00   2.7225521443181760e-01   0.0000000000000000e+00   2.7646598352000706e-01   0.0000000000000000e+00   2.7440051253388820e-01   0.0000000000000000e+00   2.7764414984993646e-01   0.0000000000000000e+00   2.7737658147824967e-01   0.0000000000000000e+00   2.7487112817805687e-01   0.0000000000000000e+00   2.7258019998810723e-01   0.0000000000000000e+00   2.7094370780231508e-01   0.0000000000000000e+00   2.7493169225028352e-01   2.7469821775828476e-02   2.8017351976891769e-01   0.0000000000000000e+00   2.8651853805875377e-01   0.0000000000000000e+00   2.7187931174539082e-01   0.0000000000000000e+00   2.6880387131886579e-01   0.0000000000000000e+00   2.7370408976286820e-01   0.0000000000000000e+00   2.7078947082918631e-01   0.0000000000000000e+00   2.6747856652190427e-01   0.0000000000000000e+00   2.6437636072706006e-01   0.0000000000000000e+00   2.5882384757322646e-01   0.0000000000000000e+00   2.4969635656564404e-01   0.0000000000000000e+00   3.2365804867988363e-01   0.0000000000000000e+00   1.0000000000000000e+00   1.0000000000000000e+00   3.1619839939878130e-01   1.0000000000000000e+00   0.0000000000000000e+00   3.1303761174929801e-01   0.0000000000000000e+00   3.2010722694651755e-01   0.0000000000000000e+00   3.2292225118318968e-01   0.0000000000000000e+00   2.5869704465270166e-01   0.0000000000000000e+00   2.7808849644956590e-01   0.0000000000000000e+00   2.7283228131051385e-01   0.0000000000000000e+00   2.7244748139333302e-01   0.0000000000000000e+00   2.7341410269893462e-01   0.0000000000000000e+00   2.7435416168807630e-01   0.0000000000000000e+00   2.7757107144971926e-01   0.0000000000000000e+00   2.7772835288926839e-01   0.0000000000000000e+00   2.7529648585668981e-01   0.0000000000000000e+00   2.7555038020745132e-01   0.0000000000000000e+00   2.7511170456145573e-01   0.0000000000000000e+00   2.7389891177698200e-01   0.0000000000000000e+00   2.7300318222909636e-01   0.0000000000000000e+00   2.7298831224653480e-01   0.0000000000000000e+00   2.7424203269085345e-01   0.0000000000000000e+00   2.7184889144544860e-01   0.0000000000000000e+00   2.7165410017919212e-01   0.0000000000000000e+00   2.6733018567942946e-01   0.0000000000000000e+00   2.7157271570386587e-01   0.0000000000000000e+00   2.6931511935129981e-01   0.0000000000000000e+00   2.6924253630544315e-01   0.0000000000000000e+00   2.7075730508542167e-01   0.0000000000000000e+00   2.5930190379235479e-01   0.0000000000000000e+00   2.7687950129677469e-01   0.0000000000000000e+00   2.7755215328795740e-01   0.0000000000000000e+00   2.7444659001012134e-01   0.0000000000000000e+00   2.7461885759291033e-01   0.0000000000000000e+00   2.8753154227790217e-01   0.0000000000000000e+00   3.0799141638851063e-01   0.0000000000000000e+00   2.3198399250801013e-01   0.0000000000000000e+00   2.8898238390725156e-01   2.9043570416424114e-01   0.0000000000000000e+00   2.8891591027713809e-01   0.0000000000000000e+00   2.8966079462971350e-01   0.0000000000000000e+00   2.89785321