<?xml version="1.0"?>
<VTKFile type="UnstructuredGrid"  version="0.1"  >
<UnstructuredGrid>
<Piece  NumberOfPoints="2388" NumberOfCells="4574">
<Points>
<DataArray  type="Float64"  NumberOfComponents="3"  format="ascii">0 0.06666666666666667 0  0.008260869565217391 0.06666666666666667 0  0.008260869565217391 0.075 0  0 0.075 0  0.01652173913043478 0.075 0  0.008260869565217391 0.08333333333333333 0  0 0.08333333333333333 0  0.01652173913043478 0.08333333333333333 0  0.02478260869565217 0.075 0  0.02478260869565217 0.08333333333333333 0  0.03304347826086956 0.08333333333333333 0  0.008260869565217391 0.09166666666666666 0  0 0.09166666666666666 0  0.01652173913043478 0.09166666666666666 0  0.02478260869565217 0.09166666666666666 0  0.03304347826086956 0.09166666666666666 0  0.04130434782608695 0.08333333333333333 0  0.04130434782608695 0.09166666666666666 0  0.04956521739130434 0.09166666666666666 0  0.008260869565217391 0.1 0  0 0.1 0  0.01652173913043478 0.1 0  0.02478260869565217 0.1 0  0.03304347826086956 0.1 0  0.04130434782608695 0.1 0  0.04956521739130434 0.1 0  0.05782608695652174 0.1 0  0.008260869565217391 0.1083333333333333 0  0 0.1083333333333333 0  0.01652173913043478 0.1083333333333333 0  0.02478260869565217 0.1083333333333333 0  0.03304347826086956 0.1083333333333333 0  0.04130434782608695 0.1083333333333333 0  0.04956521739130434 0.1083333333333333 0  0.05782608695652174 0.1083333333333333 0  0.06608695652173913 0.1 0  0.06608695652173913 0.1083333333333333 0  0.07434782608695652 0.1083333333333333 0  0.008260869565217391 0.1166666666666667 0  0 0.1166666666666667 0  0.01652173913043478 0.1166666666666667 0  0.02478260869565217 0.1166666666666667 0  0.03304347826086956 0.1166666666666667 0  0.04130434782608695 0.1166666666666667 0  0.04956521739130434 0.1166666666666667 0  0.05782608695652174 0.1166666666666667 0  0.06608695652173913 0.1166666666666667 0  0.07434782608695652 0.1166666666666667 0  0.08260869565217391 0.1166666666666667 0  0.008260869565217391 0.125 0  0 0.125 0  0.01652173913043478 0.125 0  0.02478260869565217 0.125 0  0.03304347826086956 0.125 0  0.04130434782608695 0.125 0  0.04956521739130434 0.125 0  0.05782608695652174 0.125 0  0.06608695652173913 0.125 0  0.07434782608695652 0.125 0  0.08260869565217391 0.125 0  0.0908695652173913 0.1166666666666667 0  0.0908695652173913 0.125 0  0.09913043478260869 0.125 0  0.008260869565217391 0.1333333333333333 0  0 0.1333333333333333 0  0.01652173913043478 0.1333333333333333 0  0.02478260869565217 0.1333333333333333 0  0.03304347826086956 0.1333333333333333 0  0.04130434782608695 0.1333333333333333 0  0.04956521739130434 0.1333333333333333 0  0.05782608695652174 0.1333333333333333 0  0.06608695652173913 0.1333333333333333 0  0.07434782608695652 0.1333333333333333 0  0.08260869565217391 0.1333333333333333 0  0.0908695652173913 0.1333333333333333 0  0.09913043478260869 0.1333333333333333 0  0.1073913043478261 0.125 0  0.1073913043478261 0.1333333333333333 0  0.1156521739130435 0.1333333333333333 0  0.008260869565217391 0.1416666666666667 0  0 0.1416666666666667 0  0.01652173913043478 0.1416666666666667 0  0.02478260869565217 0.1416666666666667 0  0.03304347826086956 0.1416666666666667 0  0.04130434782608695 0.1416666666666667 0  0.04956521739130434 0.1416666666666667 0  0.05782608695652174 0.1416666666666667 0  0.06608695652173913 0.1416666666666667 0  0.07434782608695652 0.1416666666666667 0  0.08260869565217391 0.1416666666666667 0  0.0908695652173913 0.1416666666666667 0  0.09913043478260869 0.1416666666666667 0  0.1073913043478261 0.1416666666666667 0  0.1156521739130435 0.1416666666666667 0  0.1239130434782609 0.1333333333333333 0  0.1239130434782609 0.1416666666666667 0  0.1321739130434783 0.1416666666666667 0  0.008260869565217391 0.15 0  0 0.15 0  0.01652173913043478 0.15 0  0.02478260869565217 0.15 0  0.03304347826086956 0.15 0  0.04130434782608695 0.15 0  0.04956521739130434 0.15 0  0.05782608695652174 0.15 0  0.06608695652173913 0.15 0  0.07434782608695652 0.15 0  0.08260869565217391 0.15 0  0.0908695652173913 0.15 0  0.09913043478260869 0.15 0  0.1073913043478261 0.15 0  0.1156521739130435 0.15 0  0.1239130434782609 0.15 0  0.1321739130434783 0.15 0  0.1404347826086956 0.1416666666666667 0  0.1404347826086956 0.15 0  0.148695652173913 0.15 0  0.008260869565217391 0.1583333333333333 0  0 0.1583333333333333 0  0.01652173913043478 0.1583333333333333 0  0.02478260869565217 0.1583333333333333 0  0.03304347826086956 0.1583333333333333 0  0.04130434782608695 0.1583333333333333 0  0.04956521739130434 0.1583333333333333 0  0.05782608695652174 0.1583333333333333 0  0.06608695652173913 0.1583333333333333 0  0.07434782608695652 0.1583333333333333 0  0.08260869565217391 0.1583333333333333 0  0.0908695652173913 0.1583333333333333 0  0.09913043478260869 0.1583333333333333 0  0.1073913043478261 0.1583333333333333 0  0.1156521739130435 0.1583333333333333 0  0.1239130434782609 0.1583333333333333 0  0.1321739130434783 0.1583333333333333 0  0.1404347826086956 0.1583333333333333 0  0.148695652173913 0.1583333333333333 0  0.1569565217391304 0.15 0  0.1569565217391304 0.1583333333333333 0  0.1652173913043478 0.1583333333333333 0  0.008260869565217391 0.1666666666666667 0  0 0.1666666666666667 0  0.01652173913043478 0.1666666666666667 0  0.02478260869565217 0.1666666666666667 0  0.03304347826086956 0.1666666666666667 0  0.04130434782608695 0.1666666666666667 0  0.04956521739130434 0.1666666666666667 0  0.05782608695652174 0.1666666666666667 0  0.06608695652173913 0.1666666666666667 0  0.07434782608695652 0.1666666666666667 0  0.08260869565217391 0.1666666666666667 0  0.0908695652173913 0.1666666666666667 0  0.09913043478260869 0.1666666666666667 0  0.1073913043478261 0.1666666666666667 0  0.1156521739130435 0.1666666666666667 0  0.1239130434782609 0.1666666666666667 0  0.1321739130434783 0.1666666666666667 0  0.1404347826086956 0.1666666666666667 0  0.148695652173913 0.1666666666666667 0  0.1569565217391304 0.1666666666666667 0  0.1652173913043478 0.1666666666666667 0  0.1734782608695652 0.1583333333333333 0  0.1734782608695652 0.1666666666666667 0  0.1817391304347826 0.1583333333333333 0  0.1817391304347826 0.1666666666666667 0  0.19 0.1666666666666667 0  0.008260869565217391 0.175 0  0 0.175 0  0.01652173913043478 0.175 0  0.02478260869565217 0.175 0  0.03304347826086956 0.175 0  0.04130434782608695 0.175 0  0.04956521739130434 0.175 0  0.05782608695652174 0.175 0  0.06608695652173913 0.175 0  0.07434782608695652 0.175 0  0.08260869565217391 0.175 0  0.0908695652173913 0.175 0  0.09913043478260869 0.175 0  0.1073913043478261 0.175 0  0.1156521739130435 0.175 0  0.1239130434782609 0.175 0  0.1321739130434783 0.175 0  0.1404347826086956 0.175 0  0.148695652173913 0.175 0  0.1569565217391304 0.175 0  0.1652173913043478 0.175 0  0.1734782608695652 0.175 0  0.1817391304347826 0.175 0  0.19 0.175 0  0.1982608695652174 0.1666666666666667 0  0.1982608695652174 0.175 0  0.2065217391304348 0.1666666666666667 0  0.2065217391304348 0.175 0  0.2147826086956522 0.1666666666666667 0  0.2147826086956522 0.175 0  0.2230434782608696 0.1666666666666667 0  0.2230434782608696 0.175 0  0.2313043478260869 0.1666666666666667 0  0.2313043478260869 0.175 0  0.2395652173913043 0.1666666666666667 0  0.2395652173913043 0.175 0  0.2478260869565218 0.1666666666666667 0  0.2478260869565218 0.175 0  0.2560869565217391 0.1666666666666667 0  0.2560869565217391 0.175 0  0.2643478260869565 0.175 0  0.008260869565217391 0.1833333333333333 0  0 0.1833333333333333 0  0.01652173913043478 0.1833333333333333 0  0.02478260869565217 0.1833333333333333 0  0.03304347826086956 0.1833333333333333 0  0.04130434782608695 0.1833333333333333 0  0.04956521739130434 0.1833333333333333 0  0.05782608695652174 0.1833333333333333 0  0.06608695652173913 0.1833333333333333 0  0.07434782608695652 0.1833333333333333 0  0.08260869565217391 0.1833333333333333 0  0.0908695652173913 0.1833333333333333 0  0.09913043478260869 0.1833333333333333 0  0.1073913043478261 0.1833333333333333 0  0.1156521739130435 0.1833333333333333 0  0.1239130434782609 0.1833333333333333 0  0.1321739130434783 0.1833333333333333 0  0.1404347826086956 0.1833333333333333 0  0.148695652173913 0.1833333333333333 0  0.1569565217391304 0.1833333333333333 0  0.1652173913043478 0.1833333333333333 0  0.1734782608695652 0.1833333333333333 0  0.1817391304347826 0.1833333333333333 0  0.19 0.1833333333333333 0  0.1982608695652174 0.1833333333333333 0  0.2065217391304348 0.1833333333333333 0  0.2147826086956522 0.1833333333333333 0  0.2230434782608696 0.1833333333333333 0  0.2313043478260869 0.1833333333333333 0  0.2395652173913043 0.1833333333333333 0  0.2478260869565218 0.1833333333333333 0  0.2560869565217391 0.1833333333333333 0  0.2643478260869565 0.1833333333333333 0  0.2726086956521739 0.1833333333333333 0  0.008260869565217391 0.1916666666666667 0  0 0.1916666666666667 0  0.01652173913043478 0.1916666666666667 0  0.02478260869565217 0.1916666666666667 0  0.03304347826086956 0.1916666666666667 0  0.04130434782608695 0.1916666666666667 0  0.04956521739130434 0.1916666666666667 0  0.05782608695652174 0.1916666666666667 0  0.06608695652173913 0.1916666666666667 0  0.07434782608695652 0.1916666666666667 0  0.08260869565217391 0.1916666666666667 0  0.0908695652173913 0.1916666666666667 0  0.09913043478260869 0.1916666666666667 0  0.1073913043478261 0.1916666666666667 0  0.1156521739130435 0.1916666666666667 0  0.1239130434782609 0.1916666666666667 0  0.1321739130434783 0.1916666666666667 0  0.1404347826086956 0.1916666666666667 0  0.148695652173913 0.1916666666666667 0  0.1569565217391304 0.1916666666666667 0  0.1652173913043478 0.1916666666666667 0  0.1734782608695652 0.1916666666666667 0  0.1817391304347826 0.1916666666666667 0  0.19 0.1916666666666667 0  0.1982608695652174 0.1916666666666667 0  0.2065217391304348 0.1916666666666667 0  0.2147826086956522 0.1916666666666667 0  0.2230434782608696 0.1916666666666667 0  0.2313043478260869 0.19166666666
[...]
<CellData  Scalars="rho_bar"> 
<DataArray  type="Float64"  Name="rho_bar"  format="ascii">1.0000000000000000e+00   1.0000000000000000e+00   1.0000000000000000e+00   1.0000000000000000e+00   1.0000000000000000e+00   1.0000000000000000e+00   1.0000000000000000e+00   1.0000000000000000e+00   1.0000000000000000e+00   1.0000000000000000e+00   1.0000000000000000e+00   1.0000000000000000e+00   1.0000000000000000e+00   1.0000000000000000e+00   1.0000000000000000e+00   1.0000000000000000e+00   1.0000000000000000e+00   1.0000000000000000e+00   1.0000000000000000e+00   1.0000000000000000e+00   1.0000000000000000e+00   1.0000000000000000e+00   1.0000000000000000e+00   1.0000000000000000e+00   1.0000000000000000e+00   1.0000000000000000e+00   1.0000000000000000e+00   1.0000000000000000e+00   1.0000000000000000e+00   1.0000000000000000e+00   1.0000000000000000e+00   1.0000000000000000e+00   1.0000000000000000e+00   1.0000000000000000e+00   1.0000000000000000e+00   1.0000000000000000e+00   1.0000000000000000e+00   1.0000000000000000e+00   1.0000000000000000e+00   1.0000000000000000e+00   1.0000000000000000e+00   1.0000000000000000e+00   1.0000000000000000e+00   1.0000000000000000e+00   1.0000000000000000e+00   1.0000000000000000e+00   1.0000000000000000e+00   1.0000000000000000e+00   1.0000000000000000e+00   1.0000000000000000e+00   1.0000000000000000e+00   1.0000000000000000e+00   1.0000000000000000e+00   1.0000000000000000e+00   1.0000000000000000e+00   1.0000000000000000e+00   1.0000000000000000e+00   1.0000000000000000e+00   1.0000000000000000e+00   1.0000000000000000e+00   1.0000000000000000e+00   1.0000000000000000e+00   1.0000000000000000e+00   1.0000000000000000e+00   1.0000000000000000e+00   1.0000000000000000e+00   1.0000000000000000e+00   1.0000000000000000e+00   1.0000000000000000e+00   1.0000000000000000e+00   1.0000000000000000e+00   1.0000000000000000e+00   1.0000000000000000e+00   1.0000000000000000e+00   1.0000000000000000e+00   1.0000000000000000e+00   1.0000000000000000e+00   1.0000000000000000e+00   1.0000000000000000e+00   1.0000000000000000e+00   1.0000000000000000e+00   1.0000000000000000e+00   1.0000000000000000e+00   1.0000000000000000e+00   1.0000000000000000e+00   1.0000000000000000e+00   1.0000000000000000e+00   1.0000000000000000e+00   1.0000000000000000e+00   1.0000000000000000e+00   1.0000000000000000e+00   1.0000000000000000e+00   1.0000000000000000e+00   1.0000000000000000e+00   1.0000000000000000e+00   1.0000000000000000e+00   1.0000000000000000e+00   1.0000000000000000e+00   1.0000000000000000e+00   1.0000000000000000e+00   1.0000000000000000e+00   1.0000000000000000e+00   1.0000000000000000e+00   1.0000000000000000e+00   1.0000000000000000e+00   1.0000000000000000e+00   1.0000000000000000e+00   1.0000000000000000e+00   1.0000000000000000e+00   1.0000000000000000e+00   1.0000000000000000e+00   1.0000000000000000e+00   1.0000000000000000e+00   1.0000000000000000e+00   1.0000000000000000e+00   1.0000000000000000e+00   1.0000000000000000e+00   1.0000000000000000e+00   1.0000000000000000e+00   1.0000000000000000e+00   1.0000000000000000e+00   1.0000000000000000e+00   1.0000000000000000e+00   1.0000000000000000e+00   1.0000000000000000e+00   1.0000000000000000e+00   1.0000000000000000e+00   1.0000000000000000e+00   1.0000000000000000e+00   1.0000000000000000e+00   1.0000000000000000e+00   1.0000000000000000e+00   1.0000000000000000e+00   1.0000000000000000e+00   1.0000000000000000e+00   1.0000000000000000e+00   1.0000000000000000e+00   1.0000000000000000e+00   1.0000000000000000e+00   1.0000000000000000e+00   1.0000000000000000e+00   1.0000000000000000e+00   1.0000000000000000e+00   1.0000000000000000e+00   1.0000000000000000e+00   1.0000000000000000e+00   1.0000000000000000e+00   1.0000000000000000e+00   1.0000000000000000e+00   1.0000000000000000e+00   1.0000000000000000e+00   1.0000000000000000e+00   1.0000000000000000e+00   1.0000000000000000e+00   1.0000000000000000e+00   1.0000000000000000e+00   1.0000000000000000e+00   1.0000000000000000e+00   1.0000000000000000e+00   1.0000000000000000e+00   1.0000000000000000e+00   1.0000000000000000e+00   1.0000000000000000e+00   1.0000000000000000e+00   1.0000000000000000e+00   1.0000000000000000e+00   1.0000000000000000e+00   1.0000000000000000e+00   1.0000000000000000e+00   1.0000000000000000e+00   1.0000000000000000e+00   1.0000000000000000e+00   1.0000000000000000e+00   1.0000000000000000e+00   1.0000000000000000e+00   1.0000000000000000e+00   1.0000000000000000e+00   1.0000000000000000e+00   1.0000000000000000e+00   1.0000000000000000e+00   1.0000000000000000e+00   1.0000000000000000e+00   1.0000000000000000e+00   1.0000000000000000e+00   1.0000000000000000e+00   1.0000000000000000e+00   1.0000000000000000e+00   1.0000000000000000e+00   1.0000000000000000e+00   1.0000000000000000e+00   1.0000000000000000e+00   1.0000000000000000e+00   1.0000000000000000e+00   1.0000000000000000e+00   1.0000000000000000e+00   1.0000000000000000e+00   1.0000000000000000e+00   1.0000000000000000e+00   1.0000000000000000e+00   1.0000000000000000e+00   1.0000000000000000e+00   1.0000000000000000e+00   1.0000000000000000e+00   1.0000000000000000e+00   1.0000000000000000e+00   1.0000000000000000e+00   1.0000000000000000e+00   1.0000000000000000e+00   1.0000000000000000e+00   1.0000000000000000e+00   1.0000000000000000e+00   1.0000000000000000e+00   1.0000000000000000e+00   1.0000000000000000e+00   1.0000000000000000e+00   1.0000000000000000e+00   1.0000000000000000e+00   1.0000000000000000e+00   1.0000000000000000e+00   1.0000000000000000e+00   1.0000000000000000e+00   1.0000000000000000e+00   1.0000000000000000e+00   1.0000000000000000e+00   1.0000000000000000e+00   1.0000000000000000e+00   1.0000000000000000e+00   1.0000000000000000e+00   1.0000000000000000e+00   1.0000000000000000e+00   1.0000000000000000e+00   1.0000000000000000e+00   1.0000000000000000e+00   1.0000000000000000e+00   1.0000000000000000e+00   1.0000000000000000e+00   1.0000000000000000e+00   1.0000000000000000e+00   1.0000000000000000e+00   1.0000000000000000e+00   1.0000000000000000e+00   1.0000000000000000e+00   1.0000000000000000e+00   1.0000000000000000e+00   1.0000000000000000e+00   1.0000000000000000e+00   1.0000000000000000e+00   1.0000000000000000e+00   1.0000000000000000e+00   1.0000000000000000e+00   1.0000000000000000e+00   1.0000000000000000e+00   1.0000000000000000e+00   1.0000000000000000e+00   1.0000000000000000e+00   1.0000000000000000e+00   1.0000000000000000e+00   1.0000000000000000e+00   1.0000000000000000e+00   1.0000000000000000e+00   1.0000000000000000e+00   1.0000000000000000e+00   1.0000000000000000e+00   1.0000000000000000e+00   1.0000000000000000e+00   1.0000000000000000e+00   1.0000000000000000e+00   1.0000000000000000e+00   1.0000000000000000e+00   1.0000000000000000e+00   1.0000000000000000e+00   1.0000000000000000e+00   1.0000000000000000e+00   1.0000000000000000e+00   1.0000000000000000e+00   1.0000000000000000e+00   1.0000000000000000e+00   1.0000000000000000e+00   1.0000000000000000e+00   1.0000000000000000e+00   1.0000000000000000e+00   1.0000000000000000e+00   1.0000000000000000e+00   1.0000000000000000e+00   1.0000000000000000e+00   1.0000000000000000e+00   1.0000000000000000e+00   1.0000000000000000e+00   1.0000000000000000e+00   1.0000000000000000e+00   1.0000000000000000e+00   1.0000000000000000e+00   1.0000000000000000e+00   1.0000000000000000e+00   1.0000000000000000e+00   1.0000000000000000e+00   1.0000000000000000e+00   1.0000000000000000e+00   1.0000000000000000e+00   1.0000000000000000e+00   1.0000000000000000e+00   1.0000000000000000e+00   1.0000000000000000e+00   1.0000000000000000e+00   1.0000000000000000e+00   1.0000000000000000e+00   1.0000000000000000e+00   1.0000000000000000e+00   1.0000000000000000e+00   1.0000000000000000e+00   1.0000000000000000e+00   1.0000000000000000e+00   1.0000000000000000e+00   1.0000000000000000e+00   1.0000000000000000e+00   1.0000000000000000e+00   1.0000000000000000e+00   1.0000000000000000e+00   1.0000000000000000e+00   1.0000000000000000e+00   1.0000000000000000e+00   1.0000000000000000e+00   1.0000000000000000e+00   1.0000000000000000e+00   1.0000000000000000e+00   1.0000000000000000e+00   1.0000000000000000e+00   1.0000000000000000e+00   1.0000000000000000e+00   1.0000000000000000e+00   1.0000000000000000e+00   1.0000000000000000e+00   1.0000000000000000e+00   1.0000000000000000e+00   1.0000000000000000e+00   1.0000000000000000e+00   1.0000000000000000e+00   1.0000000000000000e+00   1.0000000000000000e+00   1.0000000000000000e+00   1.0000000000000000e+00   1.0000000000000000e+00   1.0000000000000000e+00   1.0000000000000000e+00   1.0000000000000000e+00   1.0000000000000000e+00   1.0000000000000000e+00   1.0000000000000000e+00   1.0000000000000000e+00   1.0000000000000000e+00   1.0000000000000000e+00   1.0000000000000000e+00   1.0000000000000000e+00   1.0000000000000000e+00   1.0000000000000000e+00   1.0000000000000000e+00   1.0000000000000000e+00   1.0000000000000000e+00   1.0000000000000000e+00   1.0000000000000000e+00   1.0000000000000000e+00   1.0000000000000000e+00   1.0000000000000000e+00   1.0000000000000000e+00   1.0000000000000000e+00   1.0000000000000000e+00   1.0000000000000000e+00   1.0000000000000000e+00   1.0000000000000000e+00   1.0000000000000000e+00   1.0000000000000000e+00   1.0000000000000000e+00   1.0000000000000000e+00   1.0000000000000000e+00   1.0000000000000000e+00   1.0000000000000000e+00   1.0000000000000000e+00   1.0000000000000000e+00   1.0000000000000000e+00   1.0000000000000000e+00   1.0000000000000000e+00   1.0000000000000000e+00   1.0000000000000000e+00   1.0000000000000000e+00   1.0000000000000000e+00   1.0000000000000000e+00   1.0000000000000000e+00   1.0000000000000000e+00   1.0000000000000000e+00   1.0000000000000000e+00   1.0000000000000000e+00   1.0000000000000000e+00   1.0000000000000000e+00   1.0000000000000000e+00   1.0000000000000000e+00   1.0000000000000000e+00   1.0000000000000000e+00   1.0000000000000000e+00   1.0000000000000000e+00   1.0000000000000000e+00   1.0000000000000000e+00   1.0000000000000000e+00   1.0000000000000000e+00   1.0000000000000000e+00   1.0000000000000000e+00   1.0000000000000000e+00   1.0000000000000000e+00   1.0000000000000000e+00   1.0000000000000000e+00   1.0000000000000000e+00   1.0000000000000000e+00   1.0000000000000000e+00   1.0000000000000000e+00   1.0000000000000000e+00   1.0000000000000000e+00   1.0000000000000000e+00   1.0000000000000000e+00   1.0000000000000000e+00   1.0000000000000000e+00   1.0000000000000000e+00   1.0000000000000000e+00   1.0000000000000000e+00   1.0000000000000000e+00   1.0000000000000000e+00   1.0000000000000000e+00   1.0000000000000000e+00   7.9632735426647006e-01   2.0309325352166996e-01   1.0000000000000000e+00   2.2278245596170465e-01   1.0000000000000000e+00   3.2425607147312685e-01   1.0000000000000000e+00   5.6513844364447108e-01   1.0000000000000000e+00   8.2122320134350235e-01   1.0000000000000000e+00   8.8435309394725448e-01   1.0000000000000000e+00   9.5433112129684239e-01   1.0000000000000000e+00   9.7376886178728872e-01   1.0000000000000000e+00   1.0000000000000000e+00   1.0000000000000000e+00   1.0000000000000000e+00   1.0000000000000000e+00   1.0000000000000000e+00   1.0000000000000000e+00   1.0000000000000000e+00   1.0000000000000000e+00   1.0000000000000000e+00   1.0000000000000000e+00   1.0000000000000000e+00   1.0000000000000000e+00   1.0000000000000000e+00   9.9999999999999956e-01   9.9999999999999956e-01   1.0000000000000000e+00   1.0000000000000000e+00   1.0000000000000000e+00   1.0000000000000000e+00   1.0000000000000000e+00   1.0000000000000000e+00   1.0000000000000000e+00   1.0000000000000000e+00   9.9999999999999956e-01   9.9999999999999956e-01   1.0000000000000000e+00   1.0000000000000000e+00   1.0000000000000000e+00   1.0000000000000000e+00   1.0000000000000000e+00   1.0000000000000000e+00   1.0000000000000000e+00   1.0000000000000000e+00   1.0000000000000000e+00   1.0000000000000000e+00   1.0000000000000000e+00   1.0000000000000000e+00   1.0000000000000000e+00   1.0000000000000000e+00   1.0000000000000000e+00   1.0000000000000000e+00   1.0000000000000000e+00   1.0000000000000000e+00   1.0000000000000000e+00   1.0000000000000000e+00   1.0000000000000000e+00   1.0000000000000000e+00   1.0000000000000000e+00   1.0000000000000000e+00   1.0000000000000000e+00   1.0000000000000000e+00   1.0000000000000000e+00   1.0000000000000000e+00   1.0000000000000000e+00   1.0000000000000000e+00   1.0000000000000000e+00   1.0000000000000000e+00   1.0000000000000000e+00   1.0000000000000000e+00   1.0000000000000000e+00   1.0000000000000000e+00   1.0000000000000000e+00   1.0000000000000000e+00   1.0000000000000000e+00   1.0000000000000000e+00   1.0000000000000000e+00   1.0000000000000000e+00   1.0000000000000000e+00   1.0000000000000000e+00   1.0000000000000000e+00   1.0000000000000000e+00   1.0000000000000000e+00   1.0000000000000000e+00   1.0000000000000000e+00   1.0000000000000000e+00   1.0000000000000000e+00   1.0000000000000000e+00   1.0000000000000000e+00   1.0000000000000000e+00   1.0000000000000000e+00   1.0000000000000000e+00   1.0000000000000000e+00   1.0000000000000000e+00   1.0000000000000000e+00   1.0000000000000000e+00   1.0000000000000000e+00   1.0000000000000000e+00   1.0000000000000000e+00   1.0000000000000000e+00   1.0000000000000000e+00   1.0000000000000000e+00   1.0000000000000000e+00   1.0000000000000000e+00   1.0000000000000000e+00   1.0000000000000000e+00   1.0000000000000000e+00   1.0000000000000000e+00   1.0000000000000000e+00   1.0000000000000000e+00   1.0000000000000000e+00   1.0000000000000000e+00   1.0000000000000000e+00   1.0000000000000000e+00   1.0000000000000000e+00   1.0000000000000000e+00   1.0000000000000000e+00   1.0000000000000000e+00   1.0000000000000000e+00   1.0000000000000000e+00   1.0000000000000000e+00   1.0000000000000000e+00   1.0000000000000000e+00   1.0000000000000000e+00   1.0000000000000000e+00   1.0000000000000000e+00   1.0000000000000000e+00   1.0000000000000000e+00   1.0000000000000000e+00   1.0000000000000000e+00   1.0000000000000000e+00   1.0000000000000000e+00   1.0000000000000000e+00   1.0000000000000000e+00   1.0000000000000000e+00   1.0000000000000000e+00   1.0000000000000000e+00   1.0000000000000000e+00   1.0000000000000000e+00   1.0000000000000000e+00   1.0000000000000000e+00   1.0000000000000000e+00   1.0000000000000000e+00   1.0000000000000000e+00   1.0000000000000000e+00   9.9640412132641332e-01   1.0000000000000000e+00   9.8823492018614567e-01   1.0000000000000000e+00   9.8019360126829780e-01   1.0000000000000000e+00   9.7234622901111722e-01   1.0000000000000000e+00   9.6461324241378710e-01   1.0000000000000000e+00   9.5693803233650010e-01   1.0000000000000000e+00   9.4934281725828928e-01   1.0000000000000000e+00   9.4188618102803756e-01   1.0000000000000000e+00   9.3228602723693277e-01   1.0000000000000000e+00   9.2217112704357773e-01   1.0000000000000000e+00   9.1246986044633516e-01   1.0000000000000000e+00   9.0225438310864825e-01   1.0000000000000000e+00   8.9179714196099424e-01   1.0000000000000000e+00   8.8462689238821912e-01   1.0000000000000000e+00   8.7474871754419881e-01   1.0000000000000000e+00   7.8504767196236780e-01   1.0000000000000000e+00   7.7108540320399133e-01   1.0000000000000000e+00   7.6067644617226648e-01   1.0000000000000000e+00   7.5230358522586305e-01   7.4193529321608120e-01   1.4409208157996592e-01   5.7650670887826896e-02   1.9191514636519807e-01   7.7303219153468911e-02   2.3651896520241794e-01   9.7916836792049433e-02   2.9332428939458655e-01   1.2816615470667062e-01   3.5640227651808859e-01   1.5513378087350199e-01   6.2712628870942799e-01   1.7385221298972303e-01   7.7945086437783850e-01   1.8779016540516508e-01   9.0826126526628803e-01   1.9942835409713000e-01   9.3379669823131572e-01   2.1005550789025720e-01   9.8465708438478161e-01   2.9348857934622541e-01   1.0000000000000000e+00   4.9700994481500121e-01   1.0000000000000000e+00   6.0994740786579393e-01   1.0000000000000000e+00   7.1346965852010225e-01   1.0000000000000000e+00   8.1324109416561219e-01   1.0000000000000000e+00   8.6695708832231433e-01   1.0000000000000000e+00   9.0718282018746765e-01   1.0000000000000000e+00   9.2273667862912201e-01   1.0000000000000000e+00   9.5262786868130145e-01   1.0000000000000000e+00   1.0000000000000000e+00   1.0000000000000000e+00   1.0000000000000000e+00   1.0000000000000000e+00   1.0000000000000000e+00   1.0000000000000000e+00   1.0000000000000000e+00   1.0000000000000000e+00   1.0000000000000000e+00   1.0000000000000000e+00   1.0000000000000000e+00   1.0000000000000000e+00   1.0000000000000000e+00   1.0000000000000000e+00   1.0000000000000000e+00   1.0000000000000000e+00   1.0000000000000000e+00   1.0000000000000000e+00   1.0000000000000000e+00   1.0000000000000000e+00   1.0000000000000000e+00   1.0000000000000000e+00   1.0000000000000000e+00   1.0000000000000000e+00   1.0000000000000000e+00   1.0000000000000000e+00   1.0000000000000000e+00   1.0000000000000000e+00   1.0000000000000000e+00   1.0000000000000000e+00   1.0000000000000000e+00   1.0000000000000000e+00   1.0000000000000000e+00   1.0000000000000000e+00   1.0000000000000000e+00   1.0000000000000000e+00   1.0000000000000000e+00   1.0000000000000000e+00   1.0000000000000000e+00   1.0000000000000000e+00   1.0000000000000000e+00   1.0000000000000000e+00   1.0000000000000000e+00   1.0000000000000000e+00   1.0000000000000000e+00   1.0000000000000000e+00   1.0000000000000000e+00   1.0000000000000000e+00   1.0000000000000000e+00   1.0000000000000000e+00   1.0000000000000000e+00   1.0000000000000000e+00   1.0000000000000000e+00   1.0000000000000000e+00   1.0000000000000000e+00   1.0000000000000000e+00   1.0000000000000000e+00   1.0000000000000000e+00   1.0000000000000000e+00   1.0000000000000000e+00   1.0000000000000000e+00   1.0000000000000000e+00   1.0000000000000000e+00   1.0000000000000000e+00   1.0000000000000000e+00   1.0000000000000000e+00   1.0000000000000000e+00   1.0000000000000000e+00   1.0000000000000000e+00   1.0000000000000000e+00   1.0000000000000000e+00   1.0000000000000000e+00   1.0000000000000000e+00   1.0000000000000000e+00   1.0000000000000000e+00   1.0000000000000000e+00   9.9193190429163569e-01   1.0000000000000000e+00   9.7736326365454995e-01   1.0000000000000000e+00   9.5483158457791228e-01   1.0000000000000000e+00   9.2985564385403507e-01   1.0000000000000000e+00   9.0270224645721453e-01   1.0000000000000000e+00   8.7347638878991785e-01   1.0000000000000000e+00   8.4037165561286409e-01   1.0000000000000000e+00   7.8425365015398807e-01   1.0000000000000000e+00   6.8773595659444497e-01   1.0000000000000000e+00   6.5518107940071790e-01   1.0000000000000000e+00   6.0926623581256611e-01   1.0000000000000000e+00   5.6606081778276751e-01   1.0000000000000000e+00   5.2675766296848936e-01   1.0000000000000000e+00   4.8921278015856606e-01   1.0000000000000000e+00   4.5325712945559810e-01   1.0000000000000000e+00   4.1805927917136498e-01   1.0000000000000000e+00   3.8317584950009004e-01   1.0000000000000000e+00   3.4870388101221400e-01   1.0000000000000000e+00   3.2556754767618917e-01   9.9519889782860371e-01   3.0603972700304055e-01   9.8692326880042114e-01   2.8722468730185552e-01   9.7874540129373711e-01   2.6920956358075759e-01   9.7072981906211753e-01   2.5221055999135866e-01   9.6281482466392665e-01   2.3599044387020915e-01   9.5495939373762340e-01   2.2267982676365927e-01   9.4718947137583120e-01   2.1307017820932564e-01   9.3956405101360485e-01   2.0401917835469177e-01   9.2849589379018149e-01   1.9562968333985686e-01   9.1818667435977619e-01   1.8795929806869494e-01   9.0837487936329209e-01   1.8101623428997807e-01   8.9820641909005949e-01   1.7450426115956619e-01   8.8751182237703641e-01   1.6566203138304028e-01   8.8058827144724483e-01   1.5842027911921308e-01   8.7060284644197161e-01   1.5102849133773691e-01   7.8169768589567024e-01   1.44578620