<?xml version="1.0"?>
<VTKFile type="UnstructuredGrid"  version="0.1"  >
<UnstructuredGrid>
<Piece  NumberOfPoints="2393" NumberOfCells="4569">
<Points>
<DataArray  type="Float64"  NumberOfComponents="3"  format="ascii">2.139565217391304 0.2583333333333334 0  2.147826086956522 0.2583333333333334 0  2.147826086956522 0.2666666666666667 0  2.139565217391304 0.2666666666666667 0  2.156086956521739 0.2583333333333334 0  2.156086956521739 0.2666666666666667 0  2.164347826086956 0.2583333333333334 0  2.164347826086956 0.2666666666666667 0  2.172608695652174 0.2583333333333334 0  2.172608695652174 0.2666666666666667 0  2.180869565217391 0.2583333333333334 0  2.180869565217391 0.2666666666666667 0  2.189130434782609 0.2583333333333334 0  2.189130434782609 0.2666666666666667 0  2.197391304347826 0.2583333333333334 0  2.197391304347826 0.2666666666666667 0  2.205652173913043 0.2583333333333334 0  2.205652173913043 0.2666666666666667 0  2.213913043478261 0.2583333333333334 0  2.213913043478261 0.2666666666666667 0  2.222173913043478 0.2583333333333334 0  2.222173913043478 0.2666666666666667 0  2.230434782608695 0.2583333333333334 0  2.230434782608695 0.2666666666666667 0  2.238695652173913 0.2583333333333334 0  2.238695652173913 0.2666666666666667 0  2.24695652173913 0.2583333333333334 0  2.24695652173913 0.2666666666666667 0  2.255217391304348 0.2583333333333334 0  2.255217391304348 0.2666666666666667 0  2.263478260869565 0.2583333333333334 0  2.263478260869565 0.2666666666666667 0  2.271739130434783 0.2583333333333334 0  2.271739130434783 0.2666666666666667 0  2.28 0.2583333333333334 0  2.28 0.2666666666666667 0  2.288260869565217 0.2583333333333334 0  2.288260869565217 0.2666666666666667 0  2.296521739130434 0.2583333333333334 0  2.296521739130434 0.2666666666666667 0  2.304782608695652 0.2583333333333334 0  2.304782608695652 0.2666666666666667 0  2.31304347826087 0.2583333333333334 0  2.31304347826087 0.2666666666666667 0  2.321304347826087 0.2583333333333334 0  2.321304347826087 0.2666666666666667 0  2.329565217391304 0.2583333333333334 0  2.329565217391304 0.2666666666666667 0  2.337826086956521 0.2583333333333334 0  2.337826086956521 0.2666666666666667 0  2.346086956521739 0.2583333333333334 0  2.346086956521739 0.2666666666666667 0  2.354347826086956 0.2583333333333334 0  2.354347826086956 0.2666666666666667 0  2.362608695652174 0.2583333333333334 0  2.362608695652174 0.2666666666666667 0  2.370869565217391 0.2583333333333334 0  2.370869565217391 0.2666666666666667 0  2.379130434782609 0.2583333333333334 0  2.379130434782609 0.2666666666666667 0  2.387391304347826 0.2583333333333334 0  2.387391304347826 0.2666666666666667 0  2.395652173913044 0.2583333333333334 0  2.395652173913044 0.2666666666666667 0  2.403913043478261 0.2583333333333334 0  2.403913043478261 0.2666666666666667 0  2.412173913043478 0.2583333333333334 0  2.412173913043478 0.2666666666666667 0  2.420434782608695 0.2583333333333334 0  2.420434782608695 0.2666666666666667 0  2.428695652173913 0.2583333333333334 0  2.428695652173913 0.2666666666666667 0  2.43695652173913 0.2583333333333334 0  2.43695652173913 0.2666666666666667 0  2.445217391304348 0.2583333333333334 0  2.445217391304348 0.2666666666666667 0  2.453478260869565 0.2583333333333334 0  2.453478260869565 0.2666666666666667 0  2.461739130434782 0.2583333333333334 0  2.461739130434782 0.2666666666666667 0  2.47 0.2583333333333334 0  2.47 0.2666666666666667 0  2.478260869565217 0.2583333333333334 0  2.478260869565217 0.2666666666666667 0  2.486521739130435 0.2583333333333334 0  2.486521739130435 0.2666666666666667 0  2.494782608695652 0.2583333333333334 0  2.494782608695652 0.2666666666666667 0  2.503043478260869 0.2583333333333334 0  2.503043478260869 0.2666666666666667 0  2.511304347826087 0.2583333333333334 0  2.511304347826087 0.2666666666666667 0  2.519565217391305 0.2583333333333334 0  2.519565217391305 0.2666666666666667 0  2.527826086956522 0.2583333333333334 0  2.527826086956522 0.2666666666666667 0  2.536086956521739 0.2666666666666667 0  1.908260869565217 0.2666666666666667 0  1.916521739130435 0.2666666666666667 0  1.916521739130435 0.275 0  1.908260869565217 0.275 0  1.924782608695652 0.2666666666666667 0  1.924782608695652 0.275 0  1.933043478260869 0.2666666666666667 0  1.933043478260869 0.275 0  1.941304347826087 0.2666666666666667 0  1.941304347826087 0.275 0  1.949565217391304 0.2666666666666667 0  1.949565217391304 0.275 0  1.957826086956522 0.2666666666666667 0  1.957826086956522 0.275 0  1.966086956521739 0.2666666666666667 0  1.966086956521739 0.275 0  1.974347826086956 0.2666666666666667 0  1.974347826086956 0.275 0  1.982608695652174 0.2666666666666667 0  1.982608695652174 0.275 0  1.990869565217391 0.2666666666666667 0  1.990869565217391 0.275 0  1.999130434782608 0.2666666666666667 0  1.999130434782608 0.275 0  2.007391304347826 0.2666666666666667 0  2.007391304347826 0.275 0  2.015652173913043 0.2666666666666667 0  2.015652173913043 0.275 0  2.023913043478261 0.2666666666666667 0  2.023913043478261 0.275 0  2.032173913043478 0.2666666666666667 0  2.032173913043478 0.275 0  2.040434782608695 0.2666666666666667 0  2.040434782608695 0.275 0  2.048695652173913 0.2666666666666667 0  2.048695652173913 0.275 0  2.05695652173913 0.2666666666666667 0  2.05695652173913 0.275 0  2.065217391304348 0.2666666666666667 0  2.065217391304348 0.275 0  2.073478260869565 0.2666666666666667 0  2.073478260869565 0.275 0  2.081739130434782 0.2666666666666667 0  2.081739130434782 0.275 0  2.09 0.2666666666666667 0  2.09 0.275 0  2.098260869565217 0.2666666666666667 0  2.098260869565217 0.275 0  2.106521739130435 0.2666666666666667 0  2.106521739130435 0.275 0  2.114782608695652 0.2666666666666667 0  2.114782608695652 0.275 0  2.12304347826087 0.2666666666666667 0  2.12304347826087 0.275 0  2.131304347826087 0.2666666666666667 0  2.131304347826087 0.275 0  2.139565217391304 0.275 0  2.147826086956522 0.275 0  2.156086956521739 0.275 0  2.164347826086956 0.275 0  2.172608695652174 0.275 0  2.180869565217391 0.275 0  2.189130434782609 0.275 0  2.197391304347826 0.275 0  2.205652173913043 0.275 0  2.213913043478261 0.275 0  2.222173913043478 0.275 0  2.230434782608695 0.275 0  2.238695652173913 0.275 0  2.24695652173913 0.275 0  2.255217391304348 0.275 0  2.263478260869565 0.275 0  2.271739130434783 0.275 0  2.28 0.275 0  2.288260869565217 0.275 0  2.296521739130434 0.275 0  2.304782608695652 0.275 0  2.31304347826087 0.275 0  2.321304347826087 0.275 0  2.329565217391304 0.275 0  2.337826086956521 0.275 0  2.346086956521739 0.275 0  2.354347826086956 0.275 0  2.362608695652174 0.275 0  2.370869565217391 0.275 0  2.379130434782609 0.275 0  2.387391304347826 0.275 0  2.395652173913044 0.275 0  2.403913043478261 0.275 0  2.412173913043478 0.275 0  2.420434782608695 0.275 0  2.428695652173913 0.275 0  2.43695652173913 0.275 0  2.445217391304348 0.275 0  2.453478260869565 0.275 0  2.461739130434782 0.275 0  2.47 0.275 0  2.478260869565217 0.275 0  2.486521739130435 0.275 0  2.494782608695652 0.275 0  2.503043478260869 0.275 0  2.511304347826087 0.275 0  2.519565217391305 0.275 0  2.527826086956522 0.275 0  2.536086956521739 0.275 0  2.544347826086956 0.275 0  1.916521739130435 0.2833333333333333 0  1.908260869565217 0.2833333333333333 0  1.924782608695652 0.2833333333333333 0  1.933043478260869 0.2833333333333333 0  1.941304347826087 0.2833333333333333 0  1.949565217391304 0.2833333333333333 0  1.957826086956522 0.2833333333333333 0  1.966086956521739 0.2833333333333333 0  1.974347826086956 0.2833333333333333 0  1.982608695652174 0.2833333333333333 0  1.990869565217391 0.2833333333333333 0  1.999130434782608 0.2833333333333333 0  2.007391304347826 0.2833333333333333 0  2.015652173913043 0.2833333333333333 0  2.023913043478261 0.2833333333333333 0  2.032173913043478 0.2833333333333333 0  2.040434782608695 0.2833333333333333 0  2.048695652173913 0.2833333333333333 0  2.05695652173913 0.2833333333333333 0  2.065217391304348 0.2833333333333333 0  2.073478260869565 0.2833333333333333 0  2.081739130434782 0.2833333333333333 0  2.09 0.2833333333333333 0  2.098260869565217 0.2833333333333333 0  2.106521739130435 0.2833333333333333 0  2.114782608695652 0.2833333333333333 0  2.12304347826087 0.2833333333333333 0  2.131304347826087 0.2833333333333333 0  2.139565217391304 0.2833333333333333 0  2.147826086956522 0.2833333333333333 0  2.156086956521739 0.2833333333333333 0  2.164347826086956 0.2833333333333333 0  2.172608695652174 0.2833333333333333 0  2.180869565217391 0.2833333333333333 0  2.189130434782609 0.2833333333333333 0  2.197391304347826 0.2833333333333333 0  2.205652173913043 0.2833333333333333 0  2.213913043478261 0.2833333333333333 0  2.222173913043478 0.2833333333333333 0  2.230434782608695 0.2833333333333333 0  2.238695652173913 0.2833333333333333 0  2.24695652173913 0.2833333333333333 0  2.255217391304348 0.2833333333333333 0  2.263478260869565 0.2833333333333333 0  2.271739130434783 0.2833333333333333 0  2.28 0.2833333333333333 0  2.288260869565217 0.2833333333333333 0  2.296521739130434 0.2833333333333333 0  2.304782608695652 0.2833333333333333 0  2.31304347826087 0.2833333333333333 0  2.321304347826087 0.2833333333333333 0  2.329565217391304 0.2833333333333333 0  2.337826086956521 0.2833333333333333 0  2.346086956521739 0.2833333333333333 0  2.354347826086956 0.2833333333333333 0  2.362608695652174 0.2833333333333333 0  2.370869565217391 0.2833333333333333 0  2.379130434782609 0.2833333333333333 0  2.387391304347826 0.2833333333333333 0  2.395652173913044 0.2833333333333333 0  2.403913043478261 0.2833333333333333 0  2.412173913043478 0.2833333333333333 0  2.420434782608695 0.2833333333333333 0  2.428695652173913 0.2833333333333333 0  2.43695652173913 0.2833333333333333 0  2.445217391304348 0.2833333333333333 0  2.453478260869565 0.2833333333333333 0  2.461739130434782 0.2833333333333333 0  2.47 0.2833333333333333 0  2.478260869565217 0.2833333333333333 0  2.486521739130435 0.283333333333333
[...]
<CellData  Scalars="rho"> 
<DataArray  type="Float64"  Name="rho"  format="ascii">2.4806527695570071e-01   2.4686829887424139e-01   2.4791094657450441e-01   2.4672929369558785e-01   2.4775725641814200e-01   2.4659096195063063e-01   2.4760409726574081e-01   2.4645301436098135e-01   2.4745143878891013e-01   2.4631565739867001e-01   2.4729950238668219e-01   2.4617876160183189e-01   2.4714796035755904e-01   2.4604247673547180e-01   2.4699715875039757e-01   2.4590662454458120e-01   2.4684684990342806e-01   2.4577133789805966e-01   2.4669725692120886e-01   2.4563669318186124e-01   2.4654830641707731e-01   2.4550255193874254e-01   2.4640000739974088e-01   2.4536902624249740e-01   2.4625219323844560e-01   2.4523604996738937e-01   2.4610506854855280e-01   2.4510360075343415e-01   2.4595858079690422e-01   2.4497169390467044e-01   2.4581268016913871e-01   2.4484055577940758e-01   2.4566757796540067e-01   2.4470977072963743e-01   2.4552294758413010e-01   2.4457973526826332e-01   2.4537900414974306e-01   2.4445021451951643e-01   2.4523576463314126e-01   2.4432110354033496e-01   2.4509284137899157e-01   2.4419277206111686e-01   2.4495097608588834e-01   2.4406486828853158e-01   2.4480943382120729e-01   2.4393753839005172e-01   2.4466877694073300e-01   2.4381106799469029e-01   2.4452912257569653e-01   2.4368498205952283e-01   2.4438966731475184e-01   2.4355995347127871e-01   2.4425157089752755e-01   2.4343509612402447e-01   2.4411383367640818e-01   2.4331096850188239e-01   2.4397637219863161e-01   2.4318770896292427e-01   2.4384008155318859e-01   2.4306471085839190e-01   2.4370420871488310e-01   2.4294248821422265e-01   2.4356927862817696e-01   2.4282122652439553e-01   2.4343494621898804e-01   2.4270022017848486e-01   2.6021393070711474e-01   2.6004441532348743e-01   2.5757071808363213e-01   2.5987505659101123e-01   2.5741743774075254e-01   2.5970592255139308e-01   2.5726588063848910e-01   2.5953687207806431e-01   2.5711325992748801e-01   2.5936813689915644e-01   2.5696121729678362e-01   2.5919993257150553e-01   2.5680947357215406e-01   2.5903181649124596e-01   2.5665802273627319e-01   2.5886395320971073e-01   2.5650683993585188e-01   2.5869640089325030e-01   2.5635580622773091e-01   2.5852872011196582e-01   2.5620507604372300e-01   2.5836153612883561e-01   2.5605428036043432e-01   2.5819467259208362e-01   2.5590403648585508e-01   2.5802783438021942e-01   2.5575402679818704e-01   2.5786149973203348e-01   2.5560411578822351e-01   2.5769518818782639e-01   2.5545462151250004e-01   2.5752921327007955e-01   2.5530518042479550e-01   2.5736347039921476e-01   2.5515623475906452e-01   2.5719820011084105e-01   2.5500742150590561e-01   2.5703293179631276e-01   2.5485898951780878e-01   2.5686824035809108e-01   2.5471067361170396e-01   2.5670358131640497e-01   2.5456289486910078e-01   2.5653922464696466e-01   2.5441502664998766e-01   2.5637507349421618e-01   2.5426784670749647e-01   2.5621163149883341e-01   2.5412063181718381e-01   2.5604799229450376e-01   2.5397389879921545e-01   2.5588503074666280e-01   2.5382726139472017e-01   2.5572207775427774e-01   2.5368100615975953e-01   2.5555941769494134e-01   2.5353493369673269e-01   2.5539713407850989e-01   2.5338933644204686e-01   2.5523534473905896e-01   2.5324387453512692e-01   2.5507361150599345e-01   2.5309894150013856e-01   2.5491250253754683e-01   2.5295411687127750e-01   2.5475140532461843e-01   2.5280971957966447e-01   2.5459071762961766e-01   2.5266542988576474e-01   2.5443037255684553e-01   2.5252172704489989e-01   2.5427048546047670e-01   2.5237810246921782e-01   2.5411067370955376e-01   2.5223497032046260e-01   2.5395146994173590e-01   2.5209193718871603e-01   2.5379239283086763e-01   2.5194961383464137e-01   2.5363380958941922e-01   2.5180713629617968e-01   2.5347540301181587e-01   2.5166554402612490e-01   2.5331774110534994e-01   2.5152380926140155e-01   2.5316004341438553e-01   2.5138278688620042e-01   2.5300294896132902e-01   2.5124177677634940e-01   2.5284606412008032e-01   2.5110126731942467e-01   2.5268947385218826e-01   2.5096102996495789e-01   2.5253341158883486e-01   2.5082125364462243e-01   2.5237775984137845e-01   2.5068173591143189e-01   2.5222236119181074e-01   2.5054270195374090e-01   2.5206751860003040e-01   2.5040393677650952e-01   2.5191289896966079e-01   2.5026554873570078e-01   2.5175861224141199e-01   2.5012741936153032e-01   2.5160483632343128e-01   2.4998977604591435e-01   2.5145149621519736e-01   2.4985247081514908e-01   2.5129842347072318e-01   2.4971547133524793e-01   2.5114584257341832e-01   2.4957890703989566e-01   2.5099367106013942e-01   2.4944271593873765e-01   2.5084177653415923e-01   2.4930685331763597e-01   2.5069039078795052e-01   2.4917148087180188e-01   2.5053959704434120e-01   2.4903644672790437e-01   2.5038903775594729e-01   2.4890184809714064e-01   2.5023900589485060e-01   2.4876760656967151e-01   2.5008937992834374e-01   2.4863369416279710e-01   2.4994005480481832e-01   2.4850029123209172e-01   2.4979133394461714e-01   2.4836724984124778e-01   2.4964315294159675e-01   2.4823466941514571e-01   2.4949527863998622e-01   2.4810251496195779e-01   2.4934795935980963e-01   2.4797079197545346e-01   2.4920099522725583e-01   2.4783933329811136e-01   2.4905435775646942e-01   2.4770839525185553e-01   2.4890834602609979e-01   2.4757775837929299e-01   2.4876284064414536e-01   2.4744769826375290e-01   2.4861765180517637e-01   2.4731787759486268e-01   2.4847306542576261e-01   2.4718866793214603e-01   2.4832890346786676e-01   2.4705980561682575e-01   2.4818508129568900e-01   2.4693130343803713e-01   2.4804182572820710e-01   2.4680333515294392e-01   2.4789926304083526e-01   2.4667581795296190e-01   2.4775698329408177e-01   2.4654870769655002e-01   2.4761535476885435e-01   2.4642210113668300e-01   2.4747416076057577e-01   2.4629590131205364e-01   2.4733345877366522e-01   2.4617022204910913e-01   2.4719330411905002e-01   2.4604502800276706e-01   2.4705375235370830e-01   2.4592022093104429e-01   2.4691460115344496e-01   2.4579597411842244e-01   2.4677609702294925e-01   2.4567215570160952e-01   2.4663794024102265e-01   2.4554866759071772e-01   2.4650025311153817e-01   2.4542575839589947e-01   2.4636323275348279e-01   2.4530319961590313e-01   2.4622662758922531e-01   2.4518122402164941e-01   2.4609060021024606e-01   2.4505957623893015e-01   2.4595505363298983e-01   2.4493856690180504e-01   2.4582011785890909e-01   2.4481784759145880e-01   2.4568561455644128e-01   2.4469776879300886e-01   2.4555170976160645e-01   2.4457806773702281e-01   2.4541842973518177e-01   2.4445891044633902e-01   2.4528567039241189e-01   2.4434027375525760e-01   2.4515353740456849e-01   2.4422216255598297e-01   2.4502195766256576e-01   2.4410449297629400e-01   2.4489090593573420e-01   2.4398740112795392e-01   2.4476044037550265e-01   2.4387086567105917e-01   2.4463072632781441e-01   2.4375476640731011e-01   2.4450136965015046e-01   2.4363924890092559e-01   2.4437278480583396e-01   2.4352422837003673e-01   2.4424468216895701e-01   2.4340966273500367e-01   2.4411703546115249e-01   2.4329569636813220e-01   2.4399018506916620e-01   2.4318213836710342e-01   2.4386374046163156e-01   2.4306922499965361e-01   2.4373792939538921e-01   2.4295666350715484e-01   2.4361291510881092e-01   2.4284471348231690e-01   2.4348832421554809e-01   2.4273350291628049e-01   2.4336476179699587e-01   2.4262246312269833e-01   2.4324136355897449e-01   2.4251241509885202e-01   2.4311880255856300e-01   2.4240271223323984e-01   2.4299704074955950e-01   2.4229336371491941e-01   2.4287552441381519e-01   2.4218490095811407e-01   2.4275483674704215e-01   2.4207671023170219e-01   2.4263504762917437e-01   2.4196949617634803e-01   2.4251556062889049e-01   2.4186270348913722e-01   2.4175621707273423e-01   2.5722793441452180e-01   2.5707555204417659e-01   2.5477463473789819e-01   2.5692476673104125e-01   2.5463912550158224e-01   2.5677294730122835e-01   2.5450490112678592e-01   2.5662166480004323e-01   2.5436978506144864e-01   2.5647071718207970e-01   2.5423562815692385e-01   2.5632008131752537e-01   2.5410139465476345e-01   2.5616970189060445e-01   2.5396745272680316e-01   2.5601948905321464e-01   2.5383387890068110e-01   2.5586960623313398e-01   2.5370046234050192e-01   2.5571964879742570e-01   2.5356716294363119e-01   2.5557029223154532e-01   2.5343430288100610e-01   2.5542116317496494e-01   2.5330143301668462e-01   2.5527213318155167e-01   2.5316910073635340e-01   2.5512352446948694e-01   2.5303674082147709e-01   2.5497498484391656e-01   2.5290479394577248e-01   2.5482692311967442e-01   2.5277293782240678e-01   2.5467901358673450e-01   2.5264169687949306e-01   2.5453148853990459e-01   2.5251028878714171e-01   2.5438411364110530e-01   2.5237969395403220e-01   2.5423727366003229e-01   2.5224894665344177e-01   2.5409036516702976e-01   2.5211866723072834e-01   2.5394410965158631e-01   2.5198841013437512e-01   2.5379783303637254e-01   2.5185881780357705e-01   2.5365205755671250e-01   2.5172900102743756e-01   2.5350637705830531e-01   2.5159988578169218e-01   2.5336110466812850e-01   2.5147077487048758e-01   2.5321602570667373e-01   2.5134200973572690e-01   2.5307140136741230e-01   2.5121346008853718e-01   2.5292695075607075e-01   2.5108545138840677e-01   2.5278302915787348e-01   2.5095742271883731e-01   2.5263921275189838e-01   2.5083002842019086e-01   2.5249584719329460e-01   2.5070260659488336e-01   2.5235258603751148e-01   2.5057556358291244e-01   2.5220990003277366e-01   2.5044882241144861e-01   2.5206731567550278e-01   2.5032248717972094e-01   2.5192522706307063e-01   2.5019616940336337e-01   2.5178327264657646e-01   2.5007060730497910e-01   2.5164201426219052e-01   2.4994496496813012e-01   2.5150062892125086e-01   2.4981990059078707e-01   2.5136009701128059e-01   2.4969482637558865e-01   2.5121943945391434e-01   2.4957048170205681e-01   2.5107950452601963e-01   2.4944602820108522e-01   2.5093959434791718e-01   2.4932224208520840e-01   2.5080020192337832e-01   2.4919854366790620e-01   2.5066108879652998e-01   2.4907521676370159e-01   2.5052242333245434e-01   2.4895226502857365e-01   2.5038404881129411e-01   2.4882967146520868e-01   2.5024616107654807e-01   2.4870732778024970e-01   2.5010853295057395e-01   3.4999999999999998e-01   2.4858543049616183e-01   2.4997130948991753e-01   2.4846379285382192e-01   2.4983435132054743e-01   2.4834240507138874e-01   2.4969787376947020e-01   2.4822144981732669e-01   2.4956173857599989e-01   2.4810079342199151e-01   2.4942592677946090e-01   2.4798040507653846e-01   2.4929056201083366e-01   2.4786050440353349e-01   2.4915558272934352e-01   2.4774093344882817e-01   2.4902094303431188e-01   2.4762161187651105e-01   2.4888677690817196e-01   2.4750268490569766e-01   2.4875295385383861e-01   2.4738417143078698e-01   2.4861958695795761e-01   2.4726594366308266e-01   2.4848657144624800e-01   2.4714812188330187e-01   2.4835391625337150e-01   2.4703067854921776e-01   2.4822177072760468e-01   2.4691349432433018e-01   2.4808997981467937e-01   2.4679678769865887e-01   2.4795867419303175e-01   2.4668048598733217e-01   2.4782781338097387e-01   2.4656450459047533e-01   2.4769736187277741e-01   2.4644894197601480e-01   2.4756721591958150e-01   2.4633374132025196e-01   2.4743756943626177e-01   2.4621872504960121e-01   2.4730823354792952e-01   2.4610427528352347e-01   2.4717947779727217e-01   2.4599011381794819e-01   2.4705099195166827e-01   2.4587632050848887e-01   2.4692311974148048e-01   2.4576304368230215e-01   2.4679561412693371e-01   2.4565012220239255e-01   2.4666846825271951e-01   2.4553742709937068e-01   2.4654184155655659e-01   2.4542518996612239e-01   2.4641566364795009e-01   2.4531343992399346e-01   2.4628992639829222e-01   2.4520197544344244e-01   2.4616468366212044e-01   2.4509101288565893e-01   2.4603987986733022e-01   2.4498047984841351e-01   2.4591559481639935e-01   2.4487028934181948e-01   2.4579178913765407e-01   2.4476054491787883e-01   2.4566839472889834e-01   2.4465126368273596e-01   2.4554557469303334e-01   2.4454232678578300e-01   2.4542315653351660e-01   2.4443380796627845e-01   2.4530111119916459e-01   2.4432568904957541e-01   2.4517963529504119e-01   2.4421790173478694e-01   2.4505852357094340e-01   2.4411066302895296e-01   2.4493799773992334e-01   2.4400363193684804e-01   2.4481781740833278e-01   2.4389721494365532e-01   2.4469827225334914e-01   2.4379108370882385e-01   2.4457903486009255e-01   2.4368543416163529e-01   2.4446045646534401e-01   2.4358020653105031e-01   2.4434224621766645e-01   2.4347538807485319e-01   2.4422458872188541e-01   2.4337096744148035e-01   2.4410745827292166e-01   2.4326700878490065e-01   2.4399085323607678e-01   2.4316353481869263e-01   2.4387471025816002e-01   2.4306049262715529e-01   2.4375916384950513e-01   2.4295792064713012e-01   2.4364415741629142e-01   2.4285579245110464e-01   2.4352960495592346e-01   2.4275419669497092e-01   2.4341565220540398e-01   2.4265290177057838e-01   2.4330217106035065e-01   2.4255217976037746e-01   2.4318918666811884e-01   2.4245187728124784e-01   2.4307678657750631e-01   2.4235193251223811e-01   2.4296479443160382e-01   2.4225260118894962e-01   2.4285347977520896e-01   2.4215364304319517e-01   2.4274249221083943e-01   2.4205501314322964e-01   2.4263216224661813e-01   2.4195705106726298e-01   2.4252254717823679e-01   2.4185941705218630e-01   2.4241312134729587e-01   2.4176233225171562e-01   2.4230469778928265e-01   2.4166549036229554e-01   2.4219654050193545e-01   2.4156938146329943e-01   2.4208879055737295e-01   2.4147359558774742e-01   2.4198198390872494e-01   2.4137837251404612e-01   2.4187539490712104e-01   2.4128355762026596e-01   2.4176985295558368e-01   2.4118966166701100e-01   2.4166471236771098e-01   2.4109583692633457e-01   2.4155991251473360e-01   2.4100278850810267e-01   2.5440295287482151e-01   2.5227991705912223e-01   2.5426837390135060e-01   2.5216226674888115e-01   2.5413514679044108e-01   2.5204451820566121e-01   2.5400102387189333e-01   2.5192744894907704e-01   2.5386780235593653e-01   2.5180985267661071e-01   2.5373449952269456e-01   2.5169290699057639e-01   2.5360153740774349e-01   2.5157614549402779e-01   3.4822799466546905e-01   2.5346894605350595e-01   3.4999999999999998e-01   2.5145967604870056e-01   2.5333652764657982e-01   2.5134336126533352e-01   2.5320426616293568e-01   2.5122740343760058e-01   2.5307238895768591e-01   2.5111138379454190e-01   2.5294057881512366e-01   2.5099596025320847e-01   2.5280927155785843e-01   2.5088037516489747e-01   2.5267795860412795e-01   2.5076536027654650e-01   2.5254705330556948e-01   2.5065015069539093e-01   2.5241627442165004e-01   2.5053563286424402e-01   2.5228608685258042e-01   2.5042106404148851e-01   2.5215578631372410e-01   2.5030706053361951e-01   2.5202626401985423e-01   2.5019304901588385e-01   2.5189659934099035e-01   2.5007964044176301e-01   2.5176740997093294e-01   2.4996601769578664e-01   2.5163826270862322e-01   2.4985299596830354e-01   2.5150977686547937e-01   2.4973996651409169e-01   2.5138108560012357e-01   2.4962733116211086e-01   2.5125308973923738e-01   2.4951482558443663e-01   2.5112509499210439e-01   2.4940271074714371e-01   2.5099745756333436e-01   2.4929067669144825e-01   2.5087007605013723e-01   2.4917911544766264e-01   2.5074322168266949e-01   2.4906762921322506e-01   2.5061636328730252e-01   2.4895656381087058e-01   2.5049013871835563e-01   2.4884569559419140e-01   2.5036387738756305e-01   2.4873505840438359e-01   2.5023801643018306e-01   2.4862463012152000e-01   2.5011246089233535e-01   2.4851460639593173e-01   2.4998732315094055e-01   2.4840475341654544e-01   2.4986223274321165e-01   2.4829524238865872e-01   2.4973787654150592e-01   2.4818598883584575e-01   2.4961343975228928e-01   2.4807712089397013e-01   2.4948959750858890e-01   2.4796829401473380e-01   2.4936575550028423e-01   2.4785994481009957e-01   2.4924265571154500e-01   2.4775176072849828e-01   2.4911945063439767e-01   2.4764394159995778e-01   2.4899692874639839e-01   2.4753636756056827e-01   2.4887447444694216e-01   2.4742904607368893e-01   2.4875241434082618e-01   2.4732208417424970e-01   2.4863073913443837e-01   2.4721536238017225e-01   2.4850942847634722e-01   2.4710898205666237e-01   2.4838837743465303e-01   2.4700286904875129e-01   2.4826778701185831e-01   2.4689717039044748e-01   2.4814744530726099e-01   2.4679161260221905e-01   2.4802737756623650e-01   2.4668639670255360e-01   2.4790773402115587e-01   2.4658142027450905e-01   2.4778840568290439e-01   2.4647683607676391e-01   2.4766936818174048e-01   2.4637242706567272e-01   2.4755081209946631e-01   2.4626848492551101e-01   2.4743257717185299e-01   2.4616475978696881e-01   2.4731460779336856e-01   2.4606137893572466e-01   2.4719704300387874e-01   2.4595822834389164e-01   2.4707990129890642e-01   2.4585551118430923e-01   2.4696304586658183e-01   2.4575298860061751e-01   2.4684661662248361e-01   2.4565092684482615e-01   2.4673054855060131e-01   2.4554901165726645e-01   2.4661475954582157e-01   2.4544758350144077e-01   2.4649946824188540e-01   2.4534636874981244e-01   2.4638457884517320e-01   2.4524556023035476e-01   2.4627001459020403e-01   2.4514505216622443e-01   2.4615588848329789e-01   2.4504495945282781e-01   2.4604210593463957e-01   2.4494502341613833e-01   2.4592853647190258e-01   2.4484548781636525e-01   2.4581554169936090e-01   2.4474621168064822e-01   2.4570283642913224e-01   2.4464733509304618e-01   2.4559052328103909e-01   2.4454871928776187e-01   2.4547871386525918e-01   2.4445057439966006e-01   2.4536724978661112e-01   2.4435268690323567e-01   2.4525603165329524e-01   2.4425505491417615e-01   2.4514529148235759e-01   2.4415781764317351e-01   2.4503504253973263e-01   2.4406096448497352e-01   2.4492508238118946e-01   2.4396437281469444e-01   2.4481563516793647e-01   2.4386825594449985e-01   2.4470660052919108e-01   2.4377238917788482e-01   2.4459792640082023e-01   2.4367698604429119e-01   2.4448972098731245e-01   2.4358188553209320e-01   2.4438197889701924e-01   2.4348711502637332e-01   2.4427457697509158e-01   2.4339273817948232e-01   2.4416762230108591e-01   2.4329872763145008e-01   3.4788421670466907e-01   3.4999999999999998e-01   2.4406105580590989e-01   3.4754343805295190e-01   2.4320494847321725e-01   2.4395483551958561e-01   2.4311162818261037e-01   2.4384917234121053e-01   2.4301860580595394e-01   2.4374373119099371e-01   2.4292592930715098e-01   2.4363890995878865e-01   2.4283358473077307e-01   2.4353437653943630e-01   2.4274167823787066e-01   2.4343033603416614e-01   2.4265003256412040e-01   2.4332670424714117e-01   2.4255883907135331e-01   2.4322350721247646e-01   2.4246795726244921e-01   2.4312070175097333e-01   2.4237739987340520e-01   2.4301838568504283e-01   2.4228728827972398e-01   2.4291655080114738e-01   2.4219752482101928e-01   2.4281516789889654e-01   2.4210820668986743e-01   2.4271424310924378e-01   2.4201922454076974e-01   2.4261378844190026e-01   2.4193070684716539e-01   2.4251386067747932e-01   2.4184247214953725e-01   2.4241423077968505e-01   2.4175467076355311e-01   2.4231519547873359e-01   2.4166728054446607e-01   2.4221656258033933e-01   2.4158021366317761e-01   2.4211831242229842e-01   2.4149355693895183e-01   2.4202068097320711e-01   2.4140731288149014e-01   2.4192340883446015e-01   2.4132143004127171e-01   2.4182650827645505e-01   2.4123590720302693e-01   2.4173022759687460e-01   2.4115071855956982e-01   2.4163429545379445e-01   2.4106608983670677e-01   2.4153890739281189e-01   2.4098151714328900e-01   2.4144378088707155e-01   2.4089756088539302e-01   2.4134946614334721e-01   2.4081408117123584e-01   2.4125543670211952e-01   2.4073075026682339e-01   2.4116191940338816e-01   2.4064794598517525e-01   2.4106892910708480e-01   2.4056570308538974e-01   2.4097675596032500e-01   2.4048383516203406e-01   2.4088474118118325e-01   2.4040254532280694e-01   2.4079347678950236e-01   2.4032153953585211e-01   2.5187825205585734e-01   2.5176174415078117e-01   2.4985691104833338e-01   2.5164511668366440e-01   2.4975640732170365e-01   2.5152920525707589e-01   2.4965572209687228e-01   2.5141272159452027