<?xml version="1.0"?>
<VTKFile type="UnstructuredGrid"  version="0.1"  >
<UnstructuredGrid>
<Piece  NumberOfPoints="2516" NumberOfCells="4793">
<Points>
<DataArray  type="Float64"  NumberOfComponents="3"  format="ascii">0 0 0  0.008260869565217391 0 0  0.008260869565217391 0.008333333333333333 0  0 0.008333333333333333 0  0.01652173913043478 0 0  0.01652173913043478 0.008333333333333333 0  0.02478260869565217 0 0  0.02478260869565217 0.008333333333333333 0  0.03304347826086956 0 0  0.03304347826086956 0.008333333333333333 0  0.04130434782608695 0 0  0.04130434782608695 0.008333333333333333 0  0.04956521739130434 0 0  0.04956521739130434 0.008333333333333333 0  0.05782608695652174 0 0  0.05782608695652174 0.008333333333333333 0  0.06608695652173913 0 0  0.06608695652173913 0.008333333333333333 0  0.07434782608695652 0 0  0.07434782608695652 0.008333333333333333 0  0.08260869565217391 0 0  0.08260869565217391 0.008333333333333333 0  0.0908695652173913 0 0  0.0908695652173913 0.008333333333333333 0  0.09913043478260869 0 0  0.09913043478260869 0.008333333333333333 0  0.1073913043478261 0 0  0.1073913043478261 0.008333333333333333 0  0.1156521739130435 0 0  0.1156521739130435 0.008333333333333333 0  0.1239130434782609 0 0  0.1239130434782609 0.008333333333333333 0  0.1321739130434783 0 0  0.1321739130434783 0.008333333333333333 0  0.1404347826086956 0 0  0.1404347826086956 0.008333333333333333 0  0.148695652173913 0 0  0.148695652173913 0.008333333333333333 0  0.1569565217391304 0 0  0.1569565217391304 0.008333333333333333 0  0.1652173913043478 0 0  0.1652173913043478 0.008333333333333333 0  0.1734782608695652 0 0  0.1734782608695652 0.008333333333333333 0  0.1817391304347826 0 0  0.1817391304347826 0.008333333333333333 0  0.19 0 0  0.19 0.008333333333333333 0  0.1982608695652174 0 0  0.1982608695652174 0.008333333333333333 0  0.2065217391304348 0 0  0.2065217391304348 0.008333333333333333 0  0.2147826086956522 0 0  0.2147826086956522 0.008333333333333333 0  0.2230434782608696 0 0  0.2230434782608696 0.008333333333333333 0  0.2313043478260869 0 0  0.2313043478260869 0.008333333333333333 0  0.2395652173913043 0 0  0.2395652173913043 0.008333333333333333 0  0.2478260869565218 0 0  0.2478260869565218 0.008333333333333333 0  0.2560869565217391 0 0  0.2560869565217391 0.008333333333333333 0  0.2643478260869565 0 0  0.2643478260869565 0.008333333333333333 0  0.2726086956521739 0 0  0.2726086956521739 0.008333333333333333 0  0.2808695652173913 0 0  0.2808695652173913 0.008333333333333333 0  0.2891304347826087 0 0  0.2891304347826087 0.008333333333333333 0  0.2973913043478261 0 0  0.2973913043478261 0.008333333333333333 0  0.3056521739130434 0 0  0.3056521739130434 0.008333333333333333 0  0.3139130434782609 0 0  0.3139130434782609 0.008333333333333333 0  0.3221739130434783 0 0  0.3221739130434783 0.008333333333333333 0  0.3304347826086956 0 0  0.3304347826086956 0.008333333333333333 0  0.338695652173913 0 0  0.338695652173913 0.008333333333333333 0  0.3469565217391304 0 0  0.3469565217391304 0.008333333333333333 0  0.3552173913043478 0 0  0.3552173913043478 0.008333333333333333 0  0.3634782608695652 0 0  0.3634782608695652 0.008333333333333333 0  0.3717391304347826 0 0  0.3717391304347826 0.008333333333333333 0  0.3799999999999999 0 0  0.3799999999999999 0.008333333333333333 0  0.3882608695652174 0 0  0.3882608695652174 0.008333333333333333 0  0.3965217391304348 0 0  0.3965217391304348 0.008333333333333333 0  0.4047826086956521 0 0  0.4047826086956521 0.008333333333333333 0  0.4130434782608696 0 0  0.4130434782608696 0.008333333333333333 0  0.4213043478260869 0 0  0.4213043478260869 0.008333333333333333 0  0.4295652173913043 0 0  0.4295652173913043 0.008333333333333333 0  0.4378260869565217 0 0  0.4378260869565217 0.008333333333333333 0  0.4460869565217391 0 0  0.4460869565217391 0.008333333333333333 0  0.4543478260869565 0 0  0.4543478260869565 0.008333333333333333 0  0.4626086956521739 0 0  0.4626086956521739 0.008333333333333333 0  0.4708695652173913 0 0  0.4708695652173913 0.008333333333333333 0  0.4791304347826086 0 0  0.4791304347826086 0.008333333333333333 0  0.4873913043478261 0 0  0.4873913043478261 0.008333333333333333 0  0.4956521739130435 0 0  0.4956521739130435 0.008333333333333333 0  0.5039130434782608 0 0  0.5039130434782608 0.008333333333333333 0  0.5121739130434783 0 0  0.5121739130434783 0.008333333333333333 0  0.5204347826086956 0 0  0.5204347826086956 0.008333333333333333 0  0.528695652173913 0 0  0.528695652173913 0.008333333333333333 0  0.5369565217391304 0 0  0.5369565217391304 0.008333333333333333 0  0.5452173913043478 0 0  0.5452173913043478 0.008333333333333333 0  0.5534782608695652 0 0  0.5534782608695652 0.008333333333333333 0  0.5617391304347825 0 0  0.5617391304347825 0.008333333333333333 0  0.57 0 0  0.57 0.008333333333333333 0  0.5782608695652174 0 0  0.5782608695652174 0.008333333333333333 0  0.5865217391304348 0 0  0.5865217391304348 0.008333333333333333 0  0.5947826086956521 0 0  0.5947826086956521 0.008333333333333333 0  0.6030434782608696 0 0  0.6030434782608696 0.008333333333333333 0  0.6113043478260869 0 0  0.6113043478260869 0.008333333333333333 0  0.6195652173913043 0 0  0.6195652173913043 0.008333333333333333 0  0.6278260869565218 0 0  0.6278260869565218 0.008333333333333333 0  0.6360869565217391 0 0  0.6360869565217391 0.008333333333333333 0  0.6443478260869565 0 0  0.6443478260869565 0.008333333333333333 0  0.6526086956521739 0 0  0.6526086956521739 0.008333333333333333 0  0.6608695652173913 0 0  0.6608695652173913 0.008333333333333333 0  0.6691304347826087 0 0  0.6691304347826087 0.008333333333333333 0  0.677391304347826 0 0  0.677391304347826 0.008333333333333333 0  0.6856521739130435 0 0  0.6856521739130435 0.008333333333333333 0  0.6939130434782609 0 0  0.6939130434782609 0.008333333333333333 0  0.7021739130434783 0 0  0.7021739130434783 0.008333333333333333 0  0.7104347826086956 0 0  0.7104347826086956 0.008333333333333333 0  0.718695652173913 0 0  0.718695652173913 0.008333333333333333 0  0.7269565217391304 0.008333333333333333 0  0.008260869565217391 0.01666666666666667 0  0 0.01666666666666667 0  0.01652173913043478 0.01666666666666667 0  0.02478260869565217 0.01666666666666667 0  0.03304347826086956 0.01666666666666667 0  0.04130434782608695 0.01666666666666667 0  0.04956521739130434 0.01666666666666667 0  0.05782608695652174 0.01666666666666667 0  0.06608695652173913 0.01666666666666667 0  0.07434782608695652 0.01666666666666667 0  0.08260869565217391 0.01666666666666667 0  0.0908695652173913 0.01666666666666667 0  0.09913043478260869 0.01666666666666667 0  0.1073913043478261 0.01666666666666667 0  0.1156521739130435 0.01666666666666667 0  0.1239130434782609 0.01666666666666667 0  0.1321739130434783 0.01666666666666667 0  0.1404347826086956 0.01666666666666667 0  0.148695652173913 0.01666666666666667 0  0.1569565217391304 0.01666666666666667 0  0.1652173913043478 0.01666666666666667 0  0.1734782608695652 0.01666666666666667 0  0.1817391304347826 0.01666666666666667 0  0.19 0.01666666666666667 0  0.1982608695652174 0.01666666666666667 0  0.2065217391304348 0.01666666666666667 0  0.2147826086956522 0.01666666666666667 0  0.2230434782608696 0.01666666666666667 0  0.2313043478260869 0.01666666666666667 0  0.2395652173913043 0.01666666666666667 0  0.2478260869565218 0.01666666666666667 0  0.2560869565217391 0.01666666666666667 0  0.2643478260869565 0.01666666666666667 0  0.2726086956521739 0.01666666666666667 0  0.2808695652173913 0.01666666666666667 0  0.2891304347826087 0.01666666666666667 0  0.2973913043478261 0.01666666666666667 0  0.3056521739130434 0.01666666666666667 0  0.3139130434782609 0.01666666666666667 0  0.3221739130434783 0.01666666666666667 0  0.3304347826086956 0.01666666666666667 0  0.338695652173913 0.01666666666666667 0  0.3469565217391304 0.01666666666666667 0  0.3552173913043478 0.01666666666666667 0  0.3634782608695652 0.01666666666666667 0  0.3717391304347826 0.01666666666666667 0  0.3799999999999999 0.01666666666666667 0  0.3882608695652174 0.01666666666666667 0  0.3965217391304348 0.01666666666666667 0  0.4047826086956521 0.01666666666666667 0  0.4130434782608696 0.01666666666666667 0  0.4213043478260869 0.01666666666666667 0  0.4295652173913043 0.01666666666666667 0  0.4378260869565217 0.01666666666666667 0  0.4460869565217391 0.01666666666666667 0  0.4543478260869565 0.01666666666666667 0  0.4626086956521739 0.01666666666666667 0  0.4708695652173913 0.01666666666666667 0  0.4791304347826086 0.01666666666666667 0  0.4873913043478261 0.01666666666666667 0  0.4956521739130435 0.01666666666666667 0  0.5039130434782608 0.01666666666666667 0  0.5121739130434783 0.01666666666666667 0  0.5204347826086956 0.01666666666666667 0  0.528695652173913 0.01666666666666667 0  0.5369565217391304 0.01666666666666667 0  0.5452173913043478 0.01666666666666667 0  0.5534782608695652 0.01666666666666667 0  0.5617391304347825 0.01666666666666667 0  0.57 0.01666666666666667 0  0.5782608695652174 0.01666666666666667 0  0.5865217391304348 0.01666666666666667 0  0.5947826086956521 0.01666666666666667 0  0.6030434782608696 0.01666666666666667 0  0.6113043478260869 0.01666666666666667 0  0.6195652173913043 0.01666666666666667 0  0.6278260869565218 0.01666666666666667 0  0.6360869565217391 0.01666666666666667 0  0.6443478260869565 0.01666666666666667 0  0.6526086956521739 0.01666666666666667 0  0.6608695652173913 0.01666666666666667 0  0.6691304347826087 0.01666666666666667 0  0.677391304347826 0.01666666666666667 0  0.6856521739130435 0.01666666666666667 0  0.6939130434782609 0.01666666666666667 0  0.7021739130434783 0.01666666666666667 0  0.7104347826086956 0.01666666666666667 0  0.718695652173913 0.01666666666666667 0  0.7269565217391304 0.01666666666666667 0  0.7352173913043478 0.01666666666666667 0  0.008260869565217391 0.025 0  0 0.025 0  0.01652173913043478 0.025 0  0.02478260869565217 0.025 0  0.03304347826086956 0.025 0  0.04130434782608695 0.025 0  0.0495652173913043
[...]
<CellData  Scalars="rho"> 
<DataArray  type="Float64"  Name="rho"  format="ascii">2.6604323096372556e-01   2.6207320542601409e-01   2.6582091893844312e-01   2.6188057095578182e-01   2.6560374154040733e-01   2.6169086555880228e-01   2.6539104466090208e-01   2.6150639667924186e-01   2.6518226947523099e-01   2.6132533484129988e-01   2.6497864565080148e-01   2.6114935502081710e-01   2.6478091201190457e-01   2.6097835880749637e-01   2.6458739603946568e-01   2.6081270528909406e-01   2.6440033859308520e-01   2.6065134849063287e-01   2.6421661314584927e-01   2.6049652474292095e-01   2.6403943565687044e-01   2.6034367364430300e-01   2.6386564418988123e-01   2.6019883538704541e-01   2.6369715092502383e-01   2.6005508440090080e-01   2.6353094577630548e-01   2.5991667214739822e-01   2.6336892767044873e-01   2.5978109413152384e-01   2.6321034668955784e-01   2.5964887753809934e-01   2.6305472160334159e-01   2.5952054076454989e-01   2.6290353094885999e-01   2.5939347859587358e-01   2.6275345932130506e-01   2.5927154562032573e-01   2.6260521559314964e-01   2.5914794696567445e-01   2.6245789914208545e-01   2.5902899543117036e-01   2.6231137227212681e-01   2.5890804176568233e-01   2.6216657487432143e-01   2.5879048290151502e-01   2.6202279134615175e-01   2.5867182328255478e-01   2.6188011962408270e-01   2.5855578966258186e-01   2.6173737794744800e-01   2.5843802770784652e-01   2.6159381352472866e-01   2.5832088429211075e-01   2.6145037192527126e-01   2.5820200779159996e-01   2.6130479143561541e-01   2.5808233133467329e-01   2.6115865257860260e-01   2.5796071524591985e-01   2.6101072917114382e-01   2.5783781750879275e-01   2.6086124899914487e-01   2.5771204124309371e-01   2.6070945847362414e-01   2.5758471424532031e-01   2.6055576967643151e-01   2.5745384693633355e-01   2.6039918005823565e-01   2.5732081682066515e-01   2.6024047561488339e-01   2.5718385925792137e-01   2.6007878938218543e-01   2.5704437146668280e-01   2.5991427253787303e-01   2.5690033437027693e-01   2.5974650300338553e-01   2.5675336764204487e-01   2.5957617897367502e-01   2.5660191333454313e-01   2.5940248083910039e-01   2.5644725143728392e-01   2.5922613821312551e-01   2.5628830960462479e-01   2.5904696705900204e-01   2.5612596287574746e-01   2.5886526160036050e-01   2.5595998378201573e-01   2.5868089810307177e-01   2.5579016648560082e-01   2.5849445365035584e-01   2.5561739218802848e-01   2.5830586643416636e-01   2.5544101174961903e-01   2.5811592715240977e-01   2.5526301858811179e-01   2.5792427700067466e-01   2.5508170542920944e-01   2.5773182434459818e-01   2.5489852587176470e-01   2.5753906124429854e-01   2.5471415121218233e-01   2.5734654903163751e-01   2.5452890839454151e-01   2.5715441687766843e-01   2.5434326332779633e-01   2.5696407874926031e-01   2.5415827229837212e-01   2.5677505935639361e-01   2.5397416451924104e-01   2.5658895327001202e-01   2.5379157206813463e-01   2.5640532535503952e-01   2.5361134748395014e-01   2.5622504794536805e-01   2.5343347090984253e-01   2.5604825658963232e-01   2.5325902358151936e-01   2.5587599085803991e-01   2.5308850512621128e-01   2.5570812859844427e-01   2.5292243863251312e-01   2.5554498400749232e-01   2.5276042729473708e-01   2.5538752193620046e-01   2.5260463451122367e-01   2.5523564570489399e-01   2.5245366006045239e-01   2.5508987982898401e-01   2.5230956332445775e-01   2.5494945819457004e-01   2.5217091614612314e-01   2.5481552087322490e-01   2.5203886622158694e-01   2.5468680952028971e-01   2.5191298991162225e-01   2.5456416836305962e-01   2.5179345646704016e-01   2.5444670452820345e-01   2.5167937366275289e-01   2.5433545871480179e-01   2.5157192450619142e-01   2.5423003424043294e-01   2.5147054959282517e-01   2.5412903298650091e-01   2.5137465430974376e-01   2.5403322077500984e-01   2.5128429361175098e-01   2.5394277787742325e-01   2.5119955750542133e-01   2.5385383924892990e-01   2.5111908312334075e-01   2.5376871988102229e-01   2.5104252208605987e-01   2.5096899437195214e-01   2.5850130247546504e-01   2.5425837991456574e-01   2.5663754873602429e-01   2.5220463247206576e-01   2.5547649074406442e-01   2.5089864645776089e-01   2.5491666033043908e-01   2.5023680203400483e-01   2.5484284990655431e-01   2.5010366411233076e-01   2.5513414854989008e-01   2.5037328217089783e-01   2.5568072887971549e-01   2.5093236542069108e-01   2.5638980707186465e-01   2.5167774335044146e-01   2.5718283025969785e-01   2.5252667100724724e-01   2.5799730828413381e-01   2.5341072540728182e-01   2.5878905439588279e-01   2.5428123316646156e-01   2.5952667989832701e-01   2.5510204023840982e-01   2.6019082220328743e-01   2.5585026223533286e-01   2.6076827838514610e-01   2.5651216691501078e-01   2.6125593253934398e-01   2.5708071131660348e-01   2.6165271897319470e-01   2.5755584963671974e-01   2.6196171486817110e-01   2.5793965988098505e-01   2.6219161551539399e-01   2.5823888735309591e-01   2.6234671483899386e-01   2.5846017642811986e-01   2.6243748537622535e-01   2.5861125292559872e-01   2.6247112703760522e-01   2.5870135909172032e-01   2.6245577709565182e-01   2.5873862377512730e-01   2.6239933535855908e-01   2.5873048788391378e-01   2.6230804362431354e-01   2.5868480520992643e-01   2.6218932932179045e-01   2.5860770943048944e-01   2.6204819873780827e-01   2.5850638272056153e-01   2.6189029405890490e-01   2.5838505158648439e-01   2.6171962681233368e-01   2.5824926258387804e-01   2.6153983710774853e-01   2.5810266706872631e-01   2.6135415549000357e-01   2.5794854833276692e-01   2.6116596405470227e-01   2.5779060254034419e-01   2.6097510783019495e-01   2.5762940867968237e-01   2.6078639895130407e-01   2.5746859701054264e-01   2.6059802496772788e-01   2.5730873296464263e-01   2.6041253541796988e-01   2.5714986626835795e-01   2.6023031754297332e-01   2.5699431449978993e-01   2.6005304616861125e-01   2.5684206603100190e-01   2.5987935024830078e-01   2.5669428354179835e-01   2.5971045752363298e-01   2.5655051017021524e-01   2.5954661177533606e-01   2.5641210136686055e-01   2.5938749129370109e-01   2.5627744853071588e-01   2.5923314303115419e-01   2.5614937697726059e-01   2.5908442285369282e-01   2.5602365265685645e-01   2.5893811850782633e-01   2.5590419493837013e-01   2.5879890143480322e-01   2.5578682725327267e-01   2.5866121173855117e-01   2.5567597539082387e-01   2.5852838845654597e-01   2.5556668420371242e-01   2.5839855121065541e-01   2.5546204086783958e-01   2.5827183873216564e-01   2.5535952700067494e-01   2.5814834453464452e-01   2.5525960273121839e-01   2.5802619162381313e-01   2.5516214019920180e-01   2.5790889327858030e-01   2.5506840265025121e-01   2.5779023508263205e-01   2.5497521229279957e-01   2.5767610310771066e-01   2.5488492339274660e-01   2.5756022605695789e-01   2.5479439848280350e-01   2.5744733405971948e-01   2.5470508852284351e-01   2.5733356803612362e-01   2.5461582591997889e-01   2.5722203455598974e-01   2.5452782116967637e-01   2.5710920461368159e-01   2.5443941786174057e-01   2.5699693099335358e-01   2.5435049955517797e-01   2.5688316797745930e-01   2.5426082750194401e-01   2.5676896813511640e-01   2.5416995348762622e-01   2.5665301985435091e-01   2.5407746554691651e-01   2.5653598845712505e-01   2.5398333790524535e-01   2.5641641854302205e-01   2.5388658056171370e-01   2.5629555332884235e-01   2.5378790820060665e-01   2.5617157254577222e-01   2.5368608506317653e-01   2.5604569305482139e-01   2.5358149612593006e-01   2.5591635481704850e-01   2.5347325808737853e-01   2.5578479322575670e-01   2.5336193843347549e-01   2.5564925580017450e-01   2.5324635617945890e-01   2.5551117124812750e-01   2.5312701806721344e-01   2.5536918176639761e-01   2.5300337872485335e-01   2.5522434822607426e-01   2.5287573138317621e-01   2.5507579701102878e-01   2.5274353215834189e-01   2.5492417327883049e-01   2.5260723125885853e-01   2.5476949079450317e-01   2.5246701552092821e-01   2.5461155200578867e-01   2.5232255705141859e-01   2.5445115056235601e-01   2.5217427073527005e-01   2.5428781440766118e-01   2.5202223000236051e-01   2.5412325062149366e-01   2.5186716546198074e-01   2.5395578800028729e-01   2.5170861942443540e-01   2.5378695856597827e-01   2.5154769228004181e-01   2.5361740398126886e-01   2.5138443056829385e-01   2.5344740282799999e-01   2.5121983591982155e-01   2.5327727796148597e-01   2.5105369458296839e-01   2.5310813833708801e-01   2.5088769507010078e-01   2.5293999785274179e-01   2.5072160893561646e-01   2.5277363943863640e-01   2.5055670025585908e-01   2.5260980286910223e-01   2.5039336157480097e-01   2.5244845621843459e-01   2.5023172646313491e-01   2.5229048056479536e-01   2.5007271956715188e-01   2.5213643663661656e-01   2.4991706623047480e-01   2.5198652083883422e-01   2.4976530936379623e-01   2.5184065052765553e-01   2.4961751785118372e-01   2.5170057257504841e-01   2.4947491198043809e-01   2.5156507456457688e-01   2.4933722778936016e-01   2.5143605415650983e-01   2.4920564773456824e-01   2.5131219615294920e-01   2.4907981345740410e-01   2.5119442275004450e-01   2.4896011758714495e-01   2.5108229825358080e-01   2.4884625860072906e-01   2.5097593686823416e-01   2.4873893790857021e-01   2.5087451336139799e-01   2.4863713395957840e-01   2.5077906585823850e-01   2.4854139993305999e-01   2.5068892377670277e-01   2.4845150279257852e-01   2.5060386875781487e-01   2.4836766031705765e-01   2.5052358218712262e-01   2.4828891051823185e-01   2.5044823424222062e-01   2.4821607975113505e-01   2.5037693211369016e-01   2.4814808602715860e-01   2.5030849582579451e-01   2.4808394617645263e-01   2.5024246893234536e-01   2.4802338216992231e-01   2.5018075046895094e-01   2.4796655708872353e-01   2.4791238465898510e-01   2.5540707758665310e-01   2.5144865191357924e-01   2.5319786604655081e-01   2.4912127138083101e-01   2.5170524149718987e-01   2.4755254148662259e-01   2.5083443742085831e-01   2.4665130255250275e-01   2.5047924144611816e-01   2.4630464093269464e-01   2.5052378951804771e-01   2.4638937190372256e-01   2.5086054961785020e-01   2.4679183893434428e-01   2.5139406419845989e-01   2.4741023209649821e-01   2.5204391152597405e-01   2.4815683547781572e-01   2.5274593140459700e-01   2.4896308264648939e-01   2.5345135433933313e-01   2.4977463834853805e-01   2.5412521761245699e-01   2.5055437086849164e-01   2.5474367122236441e-01   2.5127515109732912e-01   2.5529297123179501e-01   2.5192231448491398e-01   2.5576440341491469e-01   2.5248572483133480e-01   2.5615731470754882e-01   2.5296460240090141e-01   2.5647200552913052e-01   2.5335803855701355e-01   2.5671404827714922e-01   2.5367331886620753e-01   2.5688893337302654e-01   2.5391416990446153e-01   2.5700292163386962e-01   2.5408934908524622e-01   2.5706429913007639e-01   2.5420533502924808e-01   2.5707982392472412e-01   2.5427127739499655e-01   2.5705614937438442e-01   2.5429339133100198e-01   2.5700008925754447e-01   2.5427893863030615e-01   2.5691702038149511e-01   2.5423456876944933e-01   2.5681334045651549e-01   2.5416563505794731e-01   2.5669269540864814e-01   2.5407814915452365e-01   2.5656013758028401e-01   2.5397568538934062e-01   2.5641867261637363e-01   2.5386301074970052e-01   2.5627123968974280e-01   2.5374234426707776e-01   2.5612123323684743e-01   2.5361787909398142e-01   2.5596868564298564e-01   2.5348972838519424e-01   2.5581729447151724e-01   2.5336181708552757e-01   2.5566683472605911e-01   2.5323406561402095e-01   2.5551763273236722e-01   2.5310743549523207e-01   2.5537195509558236e-01   2.5298378057823362e-01   2.5522938482320812e-01   2.5286253531801556e-01   2.5509152395542461e-01   2.5274573514882009e-01   2.5495747849162342e-01   2.5263244090884096e-01   2.5482839066608354e-01   2.5252363402382622e-01   2.5470269037278331e-01   2.5241917261130320e-01   2.5458298064833945e-01   2.5231857269160440e-01   2.5446552271057377e-01   2.5222340002451282e-01   2.5435408778429736e-01   2.5213093608166337e-01   2.5424479557530166e-01   2.5204361707384554e-01   2.5414160414247583e-01   2.5195923429366757e-01   2.5403938989514058e-01   2.5187813819339988e-01   2.5394158801928329e-01   2.5180046432495223e-01   2.5384548200539736e-01   2.5172460998197732e-01   2.5375230486428513e-01   2.5165248710608107e-01   2.5366133757082343e-01   2.5158077032323395e-01   2.5357385822224365e-01   2.5151464981354860e-01   2.5348690344504804e-01   2.5144714549894559e-01   2.5340242452628375e-01   2.5138394644750783e-01   2.5331781937955700e-01   2.5131938889510547e-01   2.5323441115586592e-01   2.5125738113523188e-01   2.5315114377442527e-01   2.5119410965843775e-01   2.5306925566344740e-01   2.5113339480458141e-01   2.5298704396622756e-01   2.5107103637302691e-01   2.5290447312518594e-01   2.5100948232400105e-01   2.5282124115754029e-01   2.5094593131496185e-01   2.5273692898852190e-01   2.5088230481389606e-01   2.5265128334421555e-01   2.5081630771035096e-01   2.5256421225553749e-01   2.5074966153590106e-01   2.5247481590595661e-01   2.5067926510696859e-01   2.5238383880514254e-01   2.5060831096209368e-01   2.5229000416831437e-01   2.5053284528287301e-01   2.5219379317962926e-01   2.5045592685339302e-01   2.5209443147141508e-01   2.5037424229771088e-01   2.5199233814045968e-01   2.5029031836471494e-01   2.5188660450940858e-01   2.5020149102455186e-01   2.5177755888352421e-01   2.5010923875712088e-01   2.5166481093007725e-01   2.5001199354972714e-01   2.5154855499412238e-01   2.4991090427360441e-01   2.5142832032922635e-01   2.4980447898577318e-01   2.5130463572841050e-01   2.4969416076175172e-01   2.5117755159245764e-01   2.4957901867651755e-01   2.5104671403962342e-01   2.4945918880727266e-01   2.5091267066558176e-01   2.4933514580854643e-01   2.5077529444515756e-01   2.4920613200491409e-01   2.5063559443877464e-01   2.4907430934725028e-01   2.5049297127146469e-01   2.4893766635603054e-01   2.5034840313449308e-01   2.4879823939228696e-01   2.5020188152482448e-01   2.4865548040606145e-01   2.5005449165168442e-01   2.4851041491555104e-01   2.4990601956644884e-01   2.4836333772572178e-01   2.4975800089938366e-01   2.4821498238776968e-01   2.4961013908857432e-01   2.4806627938499695e-01   2.4946364923353720e-01   2.4791727369100885e-01   2.4931865829025113e-01   2.4776935357720478e-01   2.4917540680331068e-01   2.4762184481197946e-01   2.4903483408880231e-01   2.4747659092506163e-01   2.4889751464828780e-01   2.4733346075015616e-01   2.4876398433230704e-01   2.4719398894064373e-01   2.4863409797934763e-01   2.4705738095002189e-01   2.4850913574192715e-01   2.4692595950990515e-01   2.4838860912687338e-01   2.4679808338481335e-01   2.4827375995972087e-01   2.4667634436961558e-01   2.4816417506645874e-01   2.4655957054022862e-01   2.4806013709831087e-01   2.4644876679480626e-01   2.4796141694521145e-01   2.4634385104279358e-01   2.4786863029149853e-01   2.4624478085166401e-01   2.4778070535540736e-01   2.4615150606896133e-01   2.4769824066537593e-01   2.4606420618595995e-01   2.4762084166618764e-01   2.4598234506397698e-01   2.4754889614213732e-01   2.4590688115921852e-01   2.4748123399358468e-01   2.4583588525773084e-01   2.4741857865387296e-01   2.4577107073080109e-01   2.4736020206035222e-01   2.4571102803407593e-01   2.4730473233002132e-01   2.4565516225444525e-01   2.4725246068150089e-01   2.4560369119763678e-01   2.4720301876089265e-01   2.4555596335899782e-01   2.4715590241106963e-01   2.4551048164768074e-01   2.4711151287598485e-01   2.4546875799656015e-01   2.4543003496413840e-01   2.5284531401465521e-01   2.4928782585899734e-01   2.5033594261774417e-01   2.4674242172299182e-01   2.4854777154490390e-01   2.4496496460253347e-01   2.4740064588940541e-01   2.4386831985013216e-01   2.4679376852212478e-01   2.4334430507102917e-01   2.4661479139374859e-01   2.4327619221845626e-01   2.4675791760972415e-01   2.4354832069164734e-01   2.4712922790679065e-01   2.4405928127632956e-01   2.4764520737780504e-01   2.4471869864576301e-01   2.4824046317952000e-01   2.4545700139297111e-01   2.4886224034845647e-01   2.4621734687903199e-01   2.4947331034177209e-01   2.4695959144618321e-01   2.5004655958481070e-01   2.4765553008402574e-01   2.5056556988708389e-01   2.4828725942098492e-01   2.5101964160632634e-01   2.4884465043809967e-01   2.5140576270063503e-01   2.4932384899105972e-01   2.5172226146348065e-01   2.4972458230566325e-01   2.5197424862552903e-01   2.5005109526858688e-01   2.5216440418289560e-01   2.5030799034134782e-01   2.5229949590392831e-01   2.5050166090364390e-01   2.5238502218938630e-01   2.5063939373779087e-01   2.5242835957328230e-01   2.5072863685883828e-01   2.5243495405816141e-01   2.5077584786187856e-01   2.5241102940882754e-01   2.5078823144142670e-01   2.5236204562635900e-01   2.5077115449913051e-01   2.5229279467883142e-01   2.5073064180203425e-01   2.5220817970354975e-01   2.5067138173081643e-01   2.5211131311215873e-01   2.5059789164516721e-01   2.5200623816665352e-01   2.5051362195263843e-01   2.5189509119932157e-01   2.5042220561942874e-01   2.5178117248017673e-01   2.5032584122761209e-01   2.5166470347764458e-01   2.5022655522404696e-01   2.5154878476400711e-01   2.5012603813032624e-01   2.5143337020572448e-01   2.5002620889857619e-01   2.5131928587613606e-01   2.4992707384310586e-01   2.5120818784333043e-01   2.4983032938455266e-01   2.5109939527942571e-01   2.4973622273073082e-01   2.5099503154665553e-01   2.4964564432785380e-01   2.5089366508857885e-01   2.4955820758968264e-01   2.5079646046963211e-01   2.4947443569410513e-01   2.5070280137511597e-01   2.4939424260451881e-01   2.5061314759759701e-01   2.4931880193747336e-01   2.5052822793075830e-01   2.4924680765181798e-01   2.5044621007702977e-01   2.4918015651347242e-01   2.5036864192556718e-01   2.4911525960088368e-01   2.5029340233036296e-01   2.4905489911616882e-01   2.5022119566820328e-01   2.4899635736007117e-01   2.5015228048058369e-01   2.4894186922260941e-01   2.5008514564830925e-01   2.4888935449753752e-01   2.5002114113936719e-01   2.4883903261865614e-01   2.4995748599394263e-01   2.4879033464603637e-01   2.4989860841532216e-01   2.4874561383294430e-01   2.4983861181369374e-01   2.4870072053346609e-01   2.4978245195545040e-01   2.4865871794401850e-01   2.4972528663747368e-01   2.4861702088489759e-01   2.4967035127176865e-01   2.4857672065608793e-01   2.4961437158506880e-01   2.4853617112421036e-01   2.4956046963972273e-01   2.4849716947030726e-01   2.4950534495573917e-01   2.4845747920146691e-01   2.4945095680721244e-01   2.4841811098216071e-01   2.4939487584474890e-01   2.4837757500928886e-01   2.4933897670406482e-01   2.4833675171947592e-01   2.4928096107204062e-01   2.4829407263779163e-01   2.4922247116703994e-01   2.4825061268633042e-01   2.4916069677078856e-01   2.4820415489950337e-01   2.4909846036191879e-01   2.4815632015418559e-01   2.4903234712131164e-01   2.4810543650946790e-01   2.4896504512255038e-01   2.4805208571218793e-01   2.4889372056319695e-01   2.4799524771383918e-01   2.4882036100380484e-01   2.4793535254604937e-01   2.4874283577605905e-01   2.4787121937036985e-01   2.4866216142547301e-01   2.4780309111276855e-01   2.4857724537279313e-01   2.4773033974383060e-01   2.4848893980045386e-01   2.4765325814589151e-01   2.4839604468278839e-01   2.4757112603417158e-01   2.4829972062591410e-01   2.4748427485629884e-01   2.4819929042171898e-01   2.4739272899619139e-01   2.4809497223739790e-01   2.4729618666290587e-01   2.4798702164614633e-01   2.4719461710967569e-01   2.4787485480598609e-01   2.4708799315270574e-01   2.4776023493499022e-01   2.4697705888652896e-01   2.4764142456105265e-01   2.4686149105188726e-01   2.4752027442434296e-01   2.4674168302030861e-01   2.4739642976879833e-01   2.4661817649197559e-01   2.4727075029924298e-01   2.4649120838471952e-01   2.4714332604857028e-01   2.4636106685837356e-01   2.4701502829062233e-01   2.4622887798769902e-01   2.4688646784391466e-01   2.4609512358347707e-01   2.4675782662400569e-01   2.4596002146639978e-01   2.4663036375713787e-01   2.4582513568647338e-01   2.4650342873962763e-01   2.4568972317625604e-01   2.4637873164720131e-01   2.4555544111317013e-01   2.4625597526760518e-01   2.4542230296970774e-01   2.4613652766619096e-01   2.4529163697392034