<?xml version="1.0"?>
<VTKFile type="UnstructuredGrid"  version="0.1"  >
<UnstructuredGrid>
<Piece  NumberOfPoints="2411" NumberOfCells="4617">
<Points>
<DataArray  type="Float64"  NumberOfComponents="3"  format="ascii">1.354782608695652 0 0  1.36304347826087 0 0  1.36304347826087 0.008333333333333333 0  1.354782608695652 0.008333333333333333 0  1.371304347826087 0 0  1.371304347826087 0.008333333333333333 0  1.379565217391304 0 0  1.379565217391304 0.008333333333333333 0  1.387826086956522 0 0  1.387826086956522 0.008333333333333333 0  1.396086956521739 0 0  1.396086956521739 0.008333333333333333 0  1.404347826086957 0 0  1.404347826086957 0.008333333333333333 0  1.412608695652174 0 0  1.412608695652174 0.008333333333333333 0  1.420869565217391 0 0  1.420869565217391 0.008333333333333333 0  1.429130434782609 0 0  1.429130434782609 0.008333333333333333 0  1.437391304347826 0 0  1.437391304347826 0.008333333333333333 0  1.445652173913043 0 0  1.445652173913043 0.008333333333333333 0  1.453913043478261 0 0  1.453913043478261 0.008333333333333333 0  1.462173913043478 0 0  1.462173913043478 0.008333333333333333 0  1.470434782608696 0 0  1.470434782608696 0.008333333333333333 0  1.478695652173913 0 0  1.478695652173913 0.008333333333333333 0  1.486956521739131 0 0  1.486956521739131 0.008333333333333333 0  1.495217391304348 0 0  1.495217391304348 0.008333333333333333 0  1.503478260869565 0 0  1.503478260869565 0.008333333333333333 0  1.511739130434782 0 0  1.511739130434782 0.008333333333333333 0  1.52 0 0  1.52 0.008333333333333333 0  1.528260869565217 0 0  1.528260869565217 0.008333333333333333 0  1.536521739130435 0 0  1.536521739130435 0.008333333333333333 0  1.544782608695652 0 0  1.544782608695652 0.008333333333333333 0  1.55304347826087 0 0  1.55304347826087 0.008333333333333333 0  1.561304347826087 0 0  1.561304347826087 0.008333333333333333 0  1.569565217391304 0 0  1.569565217391304 0.008333333333333333 0  1.577826086956522 0 0  1.577826086956522 0.008333333333333333 0  1.586086956521739 0 0  1.586086956521739 0.008333333333333333 0  1.594347826086957 0 0  1.594347826086957 0.008333333333333333 0  1.602608695652174 0 0  1.602608695652174 0.008333333333333333 0  1.610869565217391 0 0  1.610869565217391 0.008333333333333333 0  1.619130434782609 0 0  1.619130434782609 0.008333333333333333 0  1.627391304347826 0 0  1.627391304347826 0.008333333333333333 0  1.635652173913043 0 0  1.635652173913043 0.008333333333333333 0  1.643913043478261 0 0  1.643913043478261 0.008333333333333333 0  1.652173913043478 0 0  1.652173913043478 0.008333333333333333 0  1.660434782608696 0 0  1.660434782608696 0.008333333333333333 0  1.668695652173913 0 0  1.668695652173913 0.008333333333333333 0  1.67695652173913 0 0  1.67695652173913 0.008333333333333333 0  1.685217391304348 0 0  1.685217391304348 0.008333333333333333 0  1.693478260869565 0 0  1.693478260869565 0.008333333333333333 0  1.701739130434782 0 0  1.701739130434782 0.008333333333333333 0  1.71 0 0  1.71 0.008333333333333333 0  1.718260869565217 0 0  1.718260869565217 0.008333333333333333 0  1.726521739130435 0 0  1.726521739130435 0.008333333333333333 0  1.734782608695652 0 0  1.734782608695652 0.008333333333333333 0  1.743043478260869 0 0  1.743043478260869 0.008333333333333333 0  1.751304347826087 0 0  1.751304347826087 0.008333333333333333 0  1.759565217391304 0 0  1.759565217391304 0.008333333333333333 0  1.767826086956522 0 0  1.767826086956522 0.008333333333333333 0  1.776086956521739 0 0  1.776086956521739 0.008333333333333333 0  1.784347826086957 0 0  1.784347826086957 0.008333333333333333 0  1.792608695652174 0 0  1.792608695652174 0.008333333333333333 0  1.800869565217391 0 0  1.800869565217391 0.008333333333333333 0  1.809130434782608 0 0  1.809130434782608 0.008333333333333333 0  1.817391304347826 0.008333333333333333 0  1.36304347826087 0.01666666666666667 0  1.371304347826087 0.01666666666666667 0  1.379565217391304 0.01666666666666667 0  1.387826086956522 0.01666666666666667 0  1.396086956521739 0.01666666666666667 0  1.404347826086957 0.01666666666666667 0  1.412608695652174 0.01666666666666667 0  1.420869565217391 0.01666666666666667 0  1.429130434782609 0.01666666666666667 0  1.437391304347826 0.01666666666666667 0  1.445652173913043 0.01666666666666667 0  1.453913043478261 0.01666666666666667 0  1.462173913043478 0.01666666666666667 0  1.470434782608696 0.01666666666666667 0  1.478695652173913 0.01666666666666667 0  1.486956521739131 0.01666666666666667 0  1.495217391304348 0.01666666666666667 0  1.503478260869565 0.01666666666666667 0  1.511739130434782 0.01666666666666667 0  1.52 0.01666666666666667 0  1.528260869565217 0.01666666666666667 0  1.536521739130435 0.01666666666666667 0  1.544782608695652 0.01666666666666667 0  1.55304347826087 0.01666666666666667 0  1.561304347826087 0.01666666666666667 0  1.569565217391304 0.01666666666666667 0  1.577826086956522 0.01666666666666667 0  1.586086956521739 0.01666666666666667 0  1.594347826086957 0.01666666666666667 0  1.602608695652174 0.01666666666666667 0  1.610869565217391 0.01666666666666667 0  1.619130434782609 0.01666666666666667 0  1.627391304347826 0.01666666666666667 0  1.635652173913043 0.01666666666666667 0  1.643913043478261 0.01666666666666667 0  1.652173913043478 0.01666666666666667 0  1.660434782608696 0.01666666666666667 0  1.668695652173913 0.01666666666666667 0  1.67695652173913 0.01666666666666667 0  1.685217391304348 0.01666666666666667 0  1.693478260869565 0.01666666666666667 0  1.701739130434782 0.01666666666666667 0  1.71 0.01666666666666667 0  1.718260869565217 0.01666666666666667 0  1.726521739130435 0.01666666666666667 0  1.734782608695652 0.01666666666666667 0  1.743043478260869 0.01666666666666667 0  1.751304347826087 0.01666666666666667 0  1.759565217391304 0.01666666666666667 0  1.767826086956522 0.01666666666666667 0  1.776086956521739 0.01666666666666667 0  1.784347826086957 0.01666666666666667 0  1.792608695652174 0.01666666666666667 0  1.800869565217391 0.01666666666666667 0  1.809130434782608 0.01666666666666667 0  1.817391304347826 0.01666666666666667 0  1.371304347826087 0.025 0  1.379565217391304 0.025 0  1.387826086956522 0.025 0  1.396086956521739 0.025 0  1.404347826086957 0.025 0  1.412608695652174 0.025 0  1.420869565217391 0.025 0  1.429130434782609 0.025 0  1.437391304347826 0.025 0  1.445652173913043 0.025 0  1.453913043478261 0.025 0  1.462173913043478 0.025 0  1.470434782608696 0.025 0  1.478695652173913 0.025 0  1.486956521739131 0.025 0  1.495217391304348 0.025 0  1.503478260869565 0.025 0  1.511739130434782 0.025 0  1.52 0.025 0  1.528260869565217 0.025 0  1.536521739130435 0.025 0  1.544782608695652 0.025 0  1.55304347826087 0.025 0  1.561304347826087 0.025 0  1.569565217391304 0.025 0  1.577826086956522 0.025 0  1.586086956521739 0.025 0  1.594347826086957 0.025 0  1.602608695652174 0.025 0  1.610869565217391 0.025 0  1.619130434782609 0.025 0  1.627391304347826 0.025 0  1.635652173913043 0.025 0  1.643913043478261 0.025 0  1.652173913043478 0.025 0  1.660434782608696 0.025 0  1.668695652173913 0.025 0  1.67695652173913 0.025 0  1.685217391304348 0.025 0  1.693478260869565 0.025 0  1.701739130434782 0.025 0  1.71 0.025 0  1.718260869565217 0.025 0  1.726521739130435 0.025 0  1.734782608695652 0.025 0  1.743043478260869 0.025 0  1.751304347826087 0.025 0  1.759565217391304 0.025 0  1.767826086956522 0.025 0  1.776086956521739 0.025 0  1.784347826086957 0.025 0  1.792608695652174 0.025 0  1.800869565217391 0.025 0  1.809130434782608 0.025 0  1.817391304347826 0.025 0  1.379565217391304 0.03333333333333333 0  1.387826086956522 0.03333333333333333 0  1.396086956521739 0.03333333333333333 0  1.404347826086957 0.03333333333333333 0  1.412608695652174 0.03333333333333333 0  1.420869565217391 0.03333333333333333 0  1.429130434782609 0.03333333333333333 0  1.437391304347826 0.03333333333333333 0  1.445652173913043 0.03333333333333333 0  1.453913043478261 0.03333333333333333 0  1.462173913043478 0.03333333333333333 0  1.470434782608696 0.03333333333333333 0  1.478695652173913 0.03333333333333333 0  1.486956521739131 0.03333333333333333 0  1.495217391304348 0.03333333333333333 0  1.503478260869565 0.03333333333333333 0  1.511739130434782 0.03333333333333333 0  1.52 0.03333333333333333 0  1.528260869565217 0.03333333333333333 0  1.536521739130435 0.03333333333333333 0  1.544782608695652 0.03333333333333333 0  1.55304347826087 0.03333333333333333 0  1.561304347826087 0.03333333333333333 0  1.569565217391304 0.03333333333333333 0  1.577826086956522 0.03333333333333333 0  1.586086956521739 0.03333333333333333 0  1.594347826086957 0.03333333333333333 0  1.602608695652174 0.03333333333333333 0  1.610869565217391 0.03333333333333333 0  1.619130434782609 0.03333333333333333 0  1.627391304347826 0.03333333333333333 0  1.635652173913043 0.03333333333333333 0  1.643913043478261 0.03333333333333333 0  1.652173913043478 0.03333333333333333 0  1.660434782608696 0.03333333333333333 0  1.668695652173913 0.03333333333333333 0  1.67695652173913 0.03333333333333333 0  1.685217391304348 0.03333333333333333 0  1.693478260869565 0.03333333333333333 0  1.701739130434782 0.03333333333333333 0  1.71 0.03333333333333333 0  1.718260869565217 0.03333333333333333 0  1.726521739130435 0.03333333333333333 0  1.734782608695652 0.03333333333333333 0  1.743043478260869 0.03333333333333333 0  1.751304347826087 0.03333333333333333 0  1.759565217391304 0.03333333333333333 0  1.767826086956522 0.03333333333333333 0  1.776086956521739 0.03333333333333333 0  1.784347826086957 0.03333333333333333 0  1.792608695652174 0.03333333333333333 0  1.800869565217391 0.03333333333333333 0  1.809130434782608 0.03333333333333333 0  1.817391304347826 0.03333333333333333 0  1.387826086956522 0.04166666666666666 0  1.396086956521739 0.04166666666666666 0  1.404347826086957 0.04166666666666666 0  1.412608695652174 0.04166666666666666 0  1.420869565217391 0.04166666666666666 0  1.429130434782609 0.04166666666666666 0  
[...]
<CellData  Scalars="rho_bar"> 
<DataArray  type="Float64"  Name="rho_bar"  format="ascii">0.0000000000000000e+00   0.0000000000000000e+00   0.0000000000000000e+00   0.0000000000000000e+00   0.0000000000000000e+00   0.0000000000000000e+00   0.0000000000000000e+00   0.0000000000000000e+00   7.5579269443943875e-01   0.0000000000000000e+00   9.9992908697465388e-01   0.0000000000000000e+00   9.9992964809096596e-01   0.0000000000000000e+00   9.9993114300150354e-01   0.0000000000000000e+00   9.9993310062082130e-01   0.0000000000000000e+00   9.9993237424017145e-01   0.0000000000000000e+00   9.9993164179306082e-01   0.0000000000000000e+00   9.9993248453617456e-01   0.0000000000000000e+00   9.9993083170291408e-01   0.0000000000000000e+00   9.9992850940919153e-01   0.0000000000000000e+00   0.0000000000000000e+00   0.0000000000000000e+00   0.0000000000000000e+00   0.0000000000000000e+00   0.0000000000000000e+00   0.0000000000000000e+00   0.0000000000000000e+00   0.0000000000000000e+00   0.0000000000000000e+00   0.0000000000000000e+00   0.0000000000000000e+00   0.0000000000000000e+00   0.0000000000000000e+00   0.0000000000000000e+00   9.9993520257339685e-01   0.0000000000000000e+00   0.0000000000000000e+00   0.0000000000000000e+00   3.8519866142053821e-01   0.0000000000000000e+00   9.9787640813536660e-01   0.0000000000000000e+00   9.9993045719380236e-01   0.0000000000000000e+00   9.9993012801446168e-01   0.0000000000000000e+00   4.7894293704555585e-01   0.0000000000000000e+00   0.0000000000000000e+00   0.0000000000000000e+00   0.0000000000000000e+00   0.0000000000000000e+00   9.9992922899202774e-01   0.0000000000000000e+00   9.9993411303549895e-01   0.0000000000000000e+00   9.9993901585650924e-01   0.0000000000000000e+00   9.9992886863434338e-01   0.0000000000000000e+00   0.0000000000000000e+00   0.0000000000000000e+00   0.0000000000000000e+00   0.0000000000000000e+00   0.0000000000000000e+00   0.0000000000000000e+00   9.9993188044418979e-01   0.0000000000000000e+00   9.9993376676810619e-01   0.0000000000000000e+00   0.0000000000000000e+00   0.0000000000000000e+00   0.0000000000000000e+00   0.0000000000000000e+00   0.0000000000000000e+00   0.0000000000000000e+00   0.0000000000000000e+00   0.0000000000000000e+00   0.0000000000000000e+00   0.0000000000000000e+00   0.0000000000000000e+00   0.0000000000000000e+00   0.0000000000000000e+00   0.0000000000000000e+00   9.9995563530060150e-01   0.0000000000000000e+00   9.9995583657467002e-01   0.0000000000000000e+00   9.9995595809356297e-01   0.0000000000000000e+00   9.9995607632336581e-01   9.9995627919106866e-01   9.9998391971837952e-01   9.9998558347848332e-01   9.9999916262900090e-01   9.9998429305670133e-01   9.9999734292487952e-01   9.9998182964840077e-01   9.9999144378305871e-01   9.9997894074640847e-01   9.9998315207242527e-01   9.9997571432490984e-01   9.9997572713916516e-01   0.0000000000000000e+00   0.0000000000000000e+00   0.0000000000000000e+00   0.0000000000000000e+00   0.0000000000000000e+00   0.0000000000000000e+00   0.0000000000000000e+00   0.0000000000000000e+00   0.0000000000000000e+00   0.0000000000000000e+00   0.0000000000000000e+00   0.0000000000000000e+00   9.9993093795937305e-01   0.0000000000000000e+00   9.9994148569122909e-01   0.0000000000000000e+00   9.9993212276068399e-01   0.0000000000000000e+00   9.9992836215688019e-01   0.0000000000000000e+00   0.0000000000000000e+00   0.0000000000000000e+00   0.0000000000000000e+00   0.0000000000000000e+00   0.0000000000000000e+00   0.0000000000000000e+00   9.9993058110231015e-01   0.0000000000000000e+00   3.7644546938001833e-01   0.0000000000000000e+00   0.0000000000000000e+00   0.0000000000000000e+00   9.9994712017307463e-01   0.0000000000000000e+00   0.0000000000000000e+00   0.0000000000000000e+00   0.0000000000000000e+00   0.0000000000000000e+00   0.0000000000000000e+00   0.0000000000000000e+00   0.0000000000000000e+00   0.0000000000000000e+00   0.0000000000000000e+00   0.0000000000000000e+00   0.0000000000000000e+00   0.0000000000000000e+00   0.0000000000000000e+00   0.0000000000000000e+00   0.0000000000000000e+00   0.0000000000000000e+00   0.0000000000000000e+00   0.0000000000000000e+00   0.0000000000000000e+00   0.0000000000000000e+00   0.0000000000000000e+00   0.0000000000000000e+00   0.0000000000000000e+00   0.0000000000000000e+00   0.0000000000000000e+00   0.0000000000000000e+00   0.0000000000000000e+00   0.0000000000000000e+00   0.0000000000000000e+00   0.0000000000000000e+00   0.0000000000000000e+00   0.0000000000000000e+00   0.0000000000000000e+00   0.0000000000000000e+00   0.0000000000000000e+00   0.0000000000000000e+00   0.0000000000000000e+00   0.0000000000000000e+00   6.8990426915360537e-01   0.0000000000000000e+00   9.9733229654260647e-01   0.0000000000000000e+00   0.0000000000000000e+00   0.0000000000000000e+00   0.0000000000000000e+00   0.0000000000000000e+00   0.0000000000000000e+00   0.0000000000000000e+00   0.0000000000000000e+00   0.0000000000000000e+00   0.0000000000000000e+00   0.0000000000000000e+00   0.0000000000000000e+00   0.0000000000000000e+00   0.0000000000000000e+00   0.0000000000000000e+00   0.0000000000000000e+00   9.9997548036533523e-01   0.0000000000000000e+00   9.9997255911314120e-01   9.9997490844303283e-01   9.9997058748050283e-01   9.9997369494406829e-01   9.9996912085220935e-01   9.9997224967775322e-01   9.9996862594304636e-01   9.9997171454657618e-01   9.9997125121684161e-01   9.9997362870345219e-01   9.9997752427044295e-01   9.9997311970657698e-01   9.9998179008653454e-01   9.9997141865555017e-01   9.9998342264646711e-01   9.9997008838276591e-01   9.9998280281644003e-01   9.9996868823221496e-01   0.0000000000000000e+00   0.0000000000000000e+00   0.0000000000000000e+00   0.0000000000000000e+00   0.0000000000000000e+00   2.5878237100633961e-01   0.0000000000000000e+00   9.8290732895896871e-01   0.0000000000000000e+00   9.9992875907496703e-01   0.0000000000000000e+00   9.9625303751522132e-01   0.0000000000000000e+00   0.0000000000000000e+00   0.0000000000000000e+00   0.0000000000000000e+00   0.0000000000000000e+00   0.0000000000000000e+00   0.0000000000000000e+00   0.0000000000000000e+00   0.0000000000000000e+00   0.0000000000000000e+00   0.0000000000000000e+00   0.0000000000000000e+00   0.0000000000000000e+00   0.0000000000000000e+00   0.0000000000000000e+00   0.0000000000000000e+00   0.0000000000000000e+00   0.0000000000000000e+00   0.0000000000000000e+00   0.0000000000000000e+00   0.0000000000000000e+00   0.0000000000000000e+00   0.0000000000000000e+00   0.0000000000000000e+00   0.0000000000000000e+00   0.0000000000000000e+00   0.0000000000000000e+00   0.0000000000000000e+00   0.0000000000000000e+00   0.0000000000000000e+00   0.0000000000000000e+00   0.0000000000000000e+00   0.0000000000000000e+00   0.0000000000000000e+00   0.0000000000000000e+00   0.0000000000000000e+00   0.0000000000000000e+00   0.0000000000000000e+00   0.0000000000000000e+00   1.2843261056821417e-01   0.0000000000000000e+00   7.9681358232982669e-01   0.0000000000000000e+00   9.9992985668043155e-01   0.0000000000000000e+00   9.9993000165959023e-01   0.0000000000000000e+00   9.9993064941936827e-01   0.0000000000000000e+00   9.9993121253610850e-01   0.0000000000000000e+00   9.9993183699051325e-01   0.0000000000000000e+00   9.9993116175374663e-01   0.0000000000000000e+00   9.9993000949898836e-01   0.0000000000000000e+00   9.9993169610031996e-01   0.0000000000000000e+00   9.9992897837202932e-01   0.0000000000000000e+00   9.8964972660267292e-01   0.0000000000000000e+00   0.0000000000000000e+00   0.0000000000000000e+00   0.0000000000000000e+00   0.0000000000000000e+00   0.0000000000000000e+00   0.0000000000000000e+00   0.0000000000000000e+00   0.0000000000000000e+00   0.0000000000000000e+00   0.0000000000000000e+00   0.0000000000000000e+00   0.0000000000000000e+00   0.0000000000000000e+00   0.0000000000000000e+00   0.0000000000000000e+00   0.0000000000000000e+00   9.9997900154493669e-01   9.9993485021972683e-01   9.9996456958146729e-01   9.9997070921288911e-01   9.9996125261293645e-01   9.9996311500235613e-01   9.9995811571512794e-01   9.9995694689911885e-01   9.9995532025786360e-01   9.9995360827798585e-01   9.9995512340426373e-01   9.9995377034251387e-01   9.9995408828280974e-01   9.9995365466751884e-01   9.9995257025642970e-01   9.9995273990884170e-01   9.9995121272968102e-01   9.9995134435805144e-01   0.0000000000000000e+00   9.9992836154088205e-01   0.0000000000000000e+00   9.9992997845263609e-01   0.0000000000000000e+00   9.9992988539777239e-01   0.0000000000000000e+00   9.6616242946831632e-01   0.0000000000000000e+00   0.0000000000000000e+00   0.0000000000000000e+00   0.0000000000000000e+00   0.0000000000000000e+00   0.0000000000000000e+00   0.0000000000000000e+00   0.0000000000000000e+00   0.0000000000000000e+00   9.9993139648637785e-01   0.0000000000000000e+00   9.9993377069148337e-01   0.0000000000000000e+00   9.9993137279736466e-01   0.0000000000000000e+00   9.9992932518349742e-01   0.0000000000000000e+00   0.0000000000000000e+00   0.0000000000000000e+00   0.0000000000000000e+00   0.0000000000000000e+00   0.0000000000000000e+00   0.0000000000000000e+00   9.8711152147061476e-01   0.0000000000000000e+00   9.9993817284747444e-01   0.0000000000000000e+00   6.1764255094709997e-01   0.0000000000000000e+00   0.0000000000000000e+00   0.0000000000000000e+00   0.0000000000000000e+00   0.0000000000000000e+00   0.0000000000000000e+00   0.0000000000000000e+00   0.0000000000000000e+00   0.0000000000000000e+00   0.0000000000000000e+00   0.0000000000000000e+00   0.0000000000000000e+00   0.0000000000000000e+00   0.0000000000000000e+00   0.0000000000000000e+00   0.0000000000000000e+00   0.0000000000000000e+00   0.0000000000000000e+00   0.0000000000000000e+00   7.9040736133348707e-02   0.0000000000000000e+00   2.6454832315140847e-01   0.0000000000000000e+00   8.1412412304746684e-01   0.0000000000000000e+00   0.0000000000000000e+00   0.0000000000000000e+00   9.9993628022588499e-01   0.0000000000000000e+00   9.9993227693590236e-01   0.0000000000000000e+00   9.9993334624936947e-01   0.0000000000000000e+00   0.0000000000000000e+00   0.0000000000000000e+00   7.0348670869611857e-02   0.0000000000000000e+00   9.9993016337064355e-01   0.0000000000000000e+00   6.8321110793187992e-02   0.0000000000000000e+00   0.0000000000000000e+00   0.0000000000000000e+00   0.0000000000000000e+00   0.0000000000000000e+00   9.9994712011501663e-01   0.0000000000000000e+00   0.0000000000000000e+00   0.0000000000000000e+00   0.0000000000000000e+00   0.0000000000000000e+00   0.0000000000000000e+00   0.0000000000000000e+00   0.0000000000000000e+00   0.0000000000000000e+00   9.9995000998092864e-01   9.9994988338337021e-01   9.9994894462737205e-01   9.9994852699999048e-01   9.9994804523700809e-01   9.9994738259942584e-01   9.9994738414359019e-01   9.9994653095738117e-01   9.9994706330102689e-01   9.9994600048475735e-01   9.9994714429288178e-01   9.9994571948125088e-01   9.9994755990659412e-01   9.9994570088650703e-01   9.9994846882376887e-01   9.9994638277400183e-01   0.0000000000000000e+00   0.0000000000000000e+00   0.0000000000000000e+00   0.0000000000000000e+00   0.0000000000000000e+00   0.0000000000000000e+00   0.0000000000000000e+00   0.0000000000000000e+00   0.0000000000000000e+00   0.0000000000000000e+00   0.0000000000000000e+00   0.0000000000000000e+00   0.0000000000000000e+00   0.0000000000000000e+00   0.0000000000000000e+00   0.0000000000000000e+00   0.0000000000000000e+00   0.0000000000000000e+00   0.0000000000000000e+00   0.0000000000000000e+00   0.0000000000000000e+00   0.0000000000000000e+00   0.0000000000000000e+00   0.0000000000000000e+00   0.0000000000000000e+00   0.0000000000000000e+00   0.0000000000000000e+00   0.0000000000000000e+00   4.2505485133298976e-01   0.0000000000000000e+00   9.9992830113365783e-01   0.0000000000000000e+00   0.0000000000000000e+00   0.0000000000000000e+00   0.0000000000000000e+00   0.0000000000000000e+00   0.0000000000000000e+00   0.0000000000000000e+00   0.0000000000000000e+00   0.0000000000000000e+00   0.0000000000000000e+00   0.0000000000000000e+00   0.0000000000000000e+00   0.0000000000000000e+00   0.0000000000000000e+00   0.0000000000000000e+00   0.0000000000000000e+00   0.0000000000000000e+00   0.0000000000000000e+00   0.0000000000000000e+00   0.0000000000000000e+00   0.0000000000000000e+00   0.0000000000000000e+00   0.0000000000000000e+00   0.0000000000000000e+00   0.0000000000000000e+00   7.4143094890932459e-02   0.0000000000000000e+00   8.4859411250288608e-01   0.0000000000000000e+00   9.9992924185845977e-01   0.0000000000000000e+00   9.9817590704940451e-01   0.0000000000000000e+00   2.6292560241952390e-01   0.0000000000000000e+00   0.0000000000000000e+00   0.0000000000000000e+00   0.0000000000000000e+00   0.0000000000000000e+00   0.0000000000000000e+00   0.0000000000000000e+00   0.0000000000000000e+00   0.0000000000000000e+00   0.0000000000000000e+00   0.0000000000000000e+00   0.0000000000000000e+00   0.0000000000000000e+00   0.0000000000000000e+00   0.0000000000000000e+00   0.0000000000000000e+00   0.0000000000000000e+00   0.0000000000000000e+00   0.0000000000000000e+00   0.0000000000000000e+00   0.0000000000000000e+00   0.0000000000000000e+00   0.0000000000000000e+00   0.0000000000000000e+00   9.9994938952952572e-01   0.0000000000000000e+00   9.9994776718506029e-01   9.9994990566535580e-01   9.9994927497508057e-01   9.9995032142373330e-01   9.9995067831566309e-01   9.9995083023610676e-01   9.9995218080289627e-01   9.9995163286436572e-01   9.9995401623094249e-01   9.9995293959520515e-01   9.9995630516971346e-01   9.9995488935493770e-01   9.9995875402163803e-01   9.9995690428473905e-01   9.9996014491116725e-01   0.0000000000000000e+00   0.0000000000000000e+00   0.0000000000000000e+00   0.0000000000000000e+00   0.0000000000000000e+00   0.0000000000000000e+00   4.2896390980673244e-01   0.0000000000000000e+00   9.8965573464774226e-01   0.0000000000000000e+00   9.9992958949034327e-01   0.0000000000000000e+00   9.9993051236772679e-01   0.0000000000000000e+00   9.9993047946894087e-01   0.0000000000000000e+00   9.9993063793424808e-01   0.0000000000000000e+00   9.9993095260076093e-01   0.0000000000000000e+00   9.9993133864841288e-01   0.0000000000000000e+00   9.9993065453003471e-01   0.0000000000000000e+00   9.9993074855805231e-01   0.0000000000000000e+00   9.9595250099752408e-01   0.0000000000000000e+00   9.9992841739926286e-01   0.0000000000000000e+00   9.9657952231214775e-01   0.0000000000000000e+00   0.0000000000000000e+00   0.0000000000000000e+00   0.0000000000000000e+00   0.0000000000000000e+00   0.0000000000000000e+00   0.0000000000000000e+00   0.0000000000000000e+00   0.0000000000000000e+00   0.0000000000000000e+00   0.0000000000000000e+00   0.0000000000000000e+00   0.0000000000000000e+00   0.0000000000000000e+00   0.0000000000000000e+00   0.0000000000000000e+00   0.0000000000000000e+00   0.0000000000000000e+00   0.0000000000000000e+00   9.9993841942298745e-01   0.0000000000000000e+00   9.9993465374558488e-01   0.0000000000000000e+00   9.9992889437993515e-01   0.0000000000000000e+00   0.0000000000000000e+00   0.0000000000000000e+00   0.0000000000000000e+00   0.0000000000000000e+00   0.0000000000000000e+00   0.0000000000000000e+00   0.0000000000000000e+00   0.0000000000000000e+00   0.0000000000000000e+00   0.0000000000000000e+00   0.0000000000000000e+00   0.0000000000000000e+00   9.9993384195681545e-01   0.0000000000000000e+00   9.9993214058018209e-01   0.0000000000000000e+00   9.9993065923979674e-01   0.0000000000000000e+00   9.9992928730068720e-01   0.0000000000000000e+00   0.0000000000000000e+00   0.0000000000000000e+00   0.0000000000000000e+00   0.0000000000000000e+00   0.0000000000000000e+00   0.0000000000000000e+00   1.6155738817794299e-01   0.0000000000000000e+00   9.9993507009656923e-01   0.0000000000000000e+00   9.9993055487363203e-01   0.0000000000000000e+00   0.0000000000000000e+00   9.9995750561677332e-01   9.9996119539373496e-01   9.9996097352909363e-01   9.9996750778115406e-01   9.9996232364773097e-01   9.9997215471826328e-01   9.9996231274748359e-01   9.9997010934208319e-01   9.9996077397431471e-01   9.9996288047730764e-01   9.9995991221658742e-01   9.9995784224289319e-01   9.9996202994622863e-01   9.9995833815979285e-01   9.9996200956571590e-01   9.9995913873740994e-01   9.9996188001634201e-01   0.0000000000000000e+00   0.0000000000000000e+00   0.0000000000000000e+00   0.0000000000000000e+00   0.0000000000000000e+00   0.0000000000000000e+00   0.0000000000000000e+00   0.0000000000000000e+00   0.0000000000000000e+00   0.0000000000000000e+00   0.0000000000000000e+00   0.0000000000000000e+00   0.0000000000000000e+00   0.0000000000000000e+00   0.0000000000000000e+00   7.4095689628273875e-01   0.0000000000000000e+00   9.4235461474197701e-01   0.0000000000000000e+00   2.0051918709794089e-01   0.0000000000000000e+00   0.0000000000000000e+00   0.0000000000000000e+00   0.0000000000000000e+00   0.0000000000000000e+00   9.9992947956315437e-01   0.0000000000000000e+00   9.9993064701961210e-01   0.0000000000000000e+00   9.9993641765209818e-01   0.0000000000000000e+00   9.9993037110121208e-01   0.0000000000000000e+00   9.9993033723102864e-01   0.0000000000000000e+00   0.0000000000000000e+00   0.0000000000000000e+00   0.0000000000000000e+00   0.0000000000000000e+00   0.0000000000000000e+00   0.0000000000000000e+00   0.0000000000000000e+00   0.0000000000000000e+00   9.9994712023236132e-01   0.0000000000000000e+00   0.0000000000000000e+00   0.0000000000000000e+00   0.0000000000000000e+00   0.0000000000000000e+00   0.0000000000000000e+00   0.0000000000000000e+00   0.0000000000000000e+00   0.0000000000000000e+00   0.0000000000000000e+00   0.0000000000000000e+00   0.0000000000000000e+00   0.0000000000000000e+00   0.0000000000000000e+00   0.0000000000000000e+00   0.0000000000000000e+00   0.0000000000000000e+00   0.0000000000000000e+00   0.0000000000000000e+00   0.0000000000000000e+00   0.0000000000000000e+00   0.0000000000000000e+00   0.0000000000000000e+00   0.0000000000000000e+00   0.0000000000000000e+00   0.0000000000000000e+00   0.0000000000000000e+00   0.0000000000000000e+00   0.0000000000000000e+00   0.0000000000000000e+00   0.0000000000000000e+00   0.0000000000000000e+00   0.0000000000000000e+00   0.0000000000000000e+00   0.0000000000000000e+00   1.8996583456220764e-01   0.0000000000000000e+00   9.9992878239297067e-01   0.0000000000000000e+00   0.0000000000000000e+00   0.0000000000000000e+00   0.0000000000000000e+00   0.0000000000000000e+00   9.9995944336451881e-01   0.0000000000000000e+00   9.9996163876731858e-01   9.9995980969612575e-01   9.9996105697459148e-01   9.9996051921746443e-01   9.9996010477589770e-01   9.9996232260871998e-01   9.9995889071823352e-01   9.9996478008613621e-01   9.9995558044854715e-01   9.9996376441884627e-01   9.9995348331928569e-01   9.9996080868709525e-01   9.9995209571869015e-01   9.9995795544777499e-01   9.9995108446020287e-01   9.9995589622332970e-01   0.0000000000000000e+00   0.0000000000000000e+00   0.0000000000000000e+00   9.9720281245520204e-01   0.0000000000000000e+00   9.9993252989884696e-01   0.0000000000000000e+00   0.0000000000000000e+00   0.0000000000000000e+00   0.0000000000000000e+00   0.0000000000000000e+00   0.0000000000000000e+00   0.0000000000000000e+00   0.0000000000000000e+00   0.0000000000000000e+00   0.0000000000000000e+00   0.0000000000000000e+00   0.0000000000000000e+00   0.0000000000000000e+00   0.0000000000000000e+00   0.0000000000000000e+00   0.0000000000000000e+00   0.0000000000000000e+00   0.0000000000000000e+00   5.6381781910277529e-01   0.0000000000000000e+00   9.9992819424044166e-01   0.0000000000000000e+00   9.9992820245122238e-01   0.0000000000000000e+00   8.5739188693931656e-01   0.0000000000000000e+00   0.0000000000000000e+00   0.0000000000000000e+00   0.0000000000000000e+00   0.0000000000000000e+00   0.0000000000000000e+00   0.0000000000000000e+00   0.0000000000000000e+00   0.0000000000000000e+00   0.0000000000000000e+00   0.00000000