<?xml version="1.0"?>
<VTKFile type="UnstructuredGrid"  version="0.1"  >
<UnstructuredGrid>
<Piece  NumberOfPoints="2374" NumberOfCells="4550">
<Points>
<DataArray  type="Float64"  NumberOfComponents="3"  format="ascii">0.718695652173913 0 0  0.7269565217391304 0 0  0.7269565217391304 0.008333333333333333 0  0.7352173913043478 0 0  0.7352173913043478 0.008333333333333333 0  0.7434782608695653 0 0  0.7434782608695653 0.008333333333333333 0  0.7517391304347827 0 0  0.7517391304347827 0.008333333333333333 0  0.7599999999999999 0 0  0.7599999999999999 0.008333333333333333 0  0.7682608695652173 0 0  0.7682608695652173 0.008333333333333333 0  0.7765217391304348 0 0  0.7765217391304348 0.008333333333333333 0  0.7847826086956522 0 0  0.7847826086956522 0.008333333333333333 0  0.7930434782608695 0 0  0.7930434782608695 0.008333333333333333 0  0.8013043478260868 0 0  0.8013043478260868 0.008333333333333333 0  0.8095652173913043 0 0  0.8095652173913043 0.008333333333333333 0  0.8178260869565217 0 0  0.8178260869565217 0.008333333333333333 0  0.8260869565217391 0 0  0.8260869565217391 0.008333333333333333 0  0.8343478260869565 0 0  0.8343478260869565 0.008333333333333333 0  0.8426086956521739 0 0  0.8426086956521739 0.008333333333333333 0  0.8508695652173912 0 0  0.8508695652173912 0.008333333333333333 0  0.8591304347826086 0 0  0.8591304347826086 0.008333333333333333 0  0.8673913043478261 0 0  0.8673913043478261 0.008333333333333333 0  0.8756521739130434 0 0  0.8756521739130434 0.008333333333333333 0  0.8839130434782608 0 0  0.8839130434782608 0.008333333333333333 0  0.8921739130434783 0 0  0.8921739130434783 0.008333333333333333 0  0.9004347826086956 0 0  0.9004347826086956 0.008333333333333333 0  0.908695652173913 0 0  0.908695652173913 0.008333333333333333 0  0.9169565217391303 0 0  0.9169565217391303 0.008333333333333333 0  0.9252173913043478 0 0  0.9252173913043478 0.008333333333333333 0  0.9334782608695652 0 0  0.9334782608695652 0.008333333333333333 0  0.9417391304347826 0 0  0.9417391304347826 0.008333333333333333 0  0.95 0 0  0.95 0.008333333333333333 0  0.9582608695652173 0 0  0.9582608695652173 0.008333333333333333 0  0.9665217391304347 0 0  0.9665217391304347 0.008333333333333333 0  0.9747826086956521 0 0  0.9747826086956521 0.008333333333333333 0  0.9830434782608696 0 0  0.9830434782608696 0.008333333333333333 0  0.991304347826087 0 0  0.991304347826087 0.008333333333333333 0  0.9995652173913042 0 0  0.9995652173913042 0.008333333333333333 0  1.007826086956522 0 0  1.007826086956522 0.008333333333333333 0  1.016086956521739 0 0  1.016086956521739 0.008333333333333333 0  1.024347826086957 0 0  1.024347826086957 0.008333333333333333 0  1.032608695652174 0 0  1.032608695652174 0.008333333333333333 0  1.040869565217391 0.008333333333333333 0  0.7352173913043478 0.01666666666666667 0  0.7434782608695653 0.01666666666666667 0  0.7517391304347827 0.01666666666666667 0  0.7599999999999999 0.01666666666666667 0  0.7682608695652173 0.01666666666666667 0  0.7765217391304348 0.01666666666666667 0  0.7847826086956522 0.01666666666666667 0  0.7930434782608695 0.01666666666666667 0  0.8013043478260868 0.01666666666666667 0  0.8095652173913043 0.01666666666666667 0  0.8178260869565217 0.01666666666666667 0  0.8260869565217391 0.01666666666666667 0  0.8343478260869565 0.01666666666666667 0  0.8426086956521739 0.01666666666666667 0  0.8508695652173912 0.01666666666666667 0  0.8591304347826086 0.01666666666666667 0  0.8673913043478261 0.01666666666666667 0  0.8756521739130434 0.01666666666666667 0  0.8839130434782608 0.01666666666666667 0  0.8921739130434783 0.01666666666666667 0  0.9004347826086956 0.01666666666666667 0  0.908695652173913 0.01666666666666667 0  0.9169565217391303 0.01666666666666667 0  0.9252173913043478 0.01666666666666667 0  0.9334782608695652 0.01666666666666667 0  0.9417391304347826 0.01666666666666667 0  0.95 0.01666666666666667 0  0.9582608695652173 0.01666666666666667 0  0.9665217391304347 0.01666666666666667 0  0.9747826086956521 0.01666666666666667 0  0.9830434782608696 0.01666666666666667 0  0.991304347826087 0.01666666666666667 0  0.9995652173913042 0.01666666666666667 0  1.007826086956522 0.01666666666666667 0  1.016086956521739 0.01666666666666667 0  1.024347826086957 0.01666666666666667 0  1.032608695652174 0.01666666666666667 0  1.040869565217391 0.01666666666666667 0  1.049130434782609 0.01666666666666667 0  0.7434782608695653 0.025 0  0.7517391304347827 0.025 0  0.7599999999999999 0.025 0  0.7682608695652173 0.025 0  0.7765217391304348 0.025 0  0.7847826086956522 0.025 0  0.7930434782608695 0.025 0  0.8013043478260868 0.025 0  0.8095652173913043 0.025 0  0.8178260869565217 0.025 0  0.8260869565217391 0.025 0  0.8343478260869565 0.025 0  0.8426086956521739 0.025 0  0.8508695652173912 0.025 0  0.8591304347826086 0.025 0  0.8673913043478261 0.025 0  0.8756521739130434 0.025 0  0.8839130434782608 0.025 0  0.8921739130434783 0.025 0  0.9004347826086956 0.025 0  0.908695652173913 0.025 0  0.9169565217391303 0.025 0  0.9252173913043478 0.025 0  0.9334782608695652 0.025 0  0.9417391304347826 0.025 0  0.95 0.025 0  0.9582608695652173 0.025 0  0.9665217391304347 0.025 0  0.9747826086956521 0.025 0  0.9830434782608696 0.025 0  0.991304347826087 0.025 0  0.9995652173913042 0.025 0  1.007826086956522 0.025 0  1.016086956521739 0.025 0  1.024347826086957 0.025 0  1.032608695652174 0.025 0  1.040869565217391 0.025 0  1.049130434782609 0.025 0  1.057391304347826 0.025 0  0.7517391304347827 0.03333333333333333 0  0.7599999999999999 0.03333333333333333 0  0.7682608695652173 0.03333333333333333 0  0.7765217391304348 0.03333333333333333 0  0.7847826086956522 0.03333333333333333 0  0.7930434782608695 0.03333333333333333 0  0.8013043478260868 0.03333333333333333 0  0.8095652173913043 0.03333333333333333 0  0.8178260869565217 0.03333333333333333 0  0.8260869565217391 0.03333333333333333 0  0.8343478260869565 0.03333333333333333 0  0.8426086956521739 0.03333333333333333 0  0.8508695652173912 0.03333333333333333 0  0.8591304347826086 0.03333333333333333 0  0.8673913043478261 0.03333333333333333 0  0.8756521739130434 0.03333333333333333 0  0.8839130434782608 0.03333333333333333 0  0.8921739130434783 0.03333333333333333 0  0.9004347826086956 0.03333333333333333 0  0.908695652173913 0.03333333333333333 0  0.9169565217391303 0.03333333333333333 0  0.9252173913043478 0.03333333333333333 0  0.9334782608695652 0.03333333333333333 0  0.9417391304347826 0.03333333333333333 0  0.95 0.03333333333333333 0  0.9582608695652173 0.03333333333333333 0  0.9665217391304347 0.03333333333333333 0  0.9747826086956521 0.03333333333333333 0  0.9830434782608696 0.03333333333333333 0  0.991304347826087 0.03333333333333333 0  0.9995652173913042 0.03333333333333333 0  1.007826086956522 0.03333333333333333 0  1.016086956521739 0.03333333333333333 0  1.024347826086957 0.03333333333333333 0  1.032608695652174 0.03333333333333333 0  1.040869565217391 0.03333333333333333 0  1.049130434782609 0.03333333333333333 0  1.057391304347826 0.03333333333333333 0  1.065652173913043 0.03333333333333333 0  0.7599999999999999 0.04166666666666666 0  0.7682608695652173 0.04166666666666666 0  0.7765217391304348 0.04166666666666666 0  0.7847826086956522 0.04166666666666666 0  0.7930434782608695 0.04166666666666666 0  0.8013043478260868 0.04166666666666666 0  0.8095652173913043 0.04166666666666666 0  0.8178260869565217 0.04166666666666666 0  0.8260869565217391 0.04166666666666666 0  0.8343478260869565 0.04166666666666666 0  0.8426086956521739 0.04166666666666666 0  0.8508695652173912 0.04166666666666666 0  0.8591304347826086 0.04166666666666666 0  0.8673913043478261 0.04166666666666666 0  0.8756521739130434 0.04166666666666666 0  0.8839130434782608 0.04166666666666666 0  0.8921739130434783 0.04166666666666666 0  0.9004347826086956 0.04166666666666666 0  0.908695652173913 0.04166666666666666 0  0.9169565217391303 0.04166666666666666 0  0.9252173913043478 0.04166666666666666 0  0.9334782608695652 0.04166666666666666 0  0.9417391304347826 0.04166666666666666 0  0.95 0.04166666666666666 0  0.9582608695652173 0.04166666666666666 0  0.9665217391304347 0.04166666666666666 0  0.9747826086956521 0.04166666666666666 0  0.9830434782608696 0.04166666666666666 0  0.991304347826087 0.04166666666666666 0  0.9995652173913042 0.04166666666666666 0  1.007826086956522 0.04166666666666666 0  1.016086956521739 0.04166666666666666 0  1.024347826086957 0.04166666666666666 0  1.032608695652174 0.04166666666666666 0  1.040869565217391 0.04166666666666666 0  1.049130434782609 0.04166666666666666 0  1.057391304347826 0.04166666666666666 0  1.065652173913043 0.04166666666666666 0  1.073913043478261 0.04166666666666666 0  0.7682608695652173 0.05 0  0.7765217391304348 0.05 0  0.7847826086956522 0.05 0  0.7930434782608695 0.05 0  0.8013043478260868 0.05 0  0.8095652173913043 0.05 0  0.8178260869565217 0.05 0  0.8260869565217391 0.05 0  0.8343478260869565 0.05 0  0.8426086956521739 0.05 0  0.8508695652173912 0.05 0  0.8591304347826086 0.05 0  0.8673913043478261 0.05 0  0.8756521739130434 0.05 0  0.8839130434782608 0.05 0  0.8921739130434783 0.05 0  0.9004347826086956 0.05 0  0.908695652173913 0.05 0  0.9169565217391303 0.05 0  0.9252173913043478 0.05 0  0.9334782608695652 0.05 0  0.9417391304347826 0.05 0  0.95 0.05 0  0.9582608695652173 0.05 0  0.9665217391304347 0.05 0  0.9747826086956521 0.05 0  0.9830434782608696 0.05 0  0.991304347826087 0.05 0  0.9995652173913042 0.05 0  1.007826086956522 0.05 0  1.016086956521739 0.05 0  1.024347826086957 0.05 0  1.032608695652174 0.05 0  1.040869565217391 0.05 0  1.049130434782609 0.05 0  1.057391304347826 0.05 0  1.065652173913043 0.05 0  1.073913043478261 0.05 0  1.082173913043478 0.05 0  0.7765217391304348 0.05833333333333333 0  0.7847826086956522 0.05833333333333333 0  0.7930434782608695 0.05833333333333333 0  0.8013043478260868 0.05833333333333333 0  0.8095652173913043 0.05833333333333333 0  0.8178260869565217 0.05833333333333333 0  0.8260869565217391
[...]
<CellData  Scalars="rho"> 
<DataArray  type="Float64"  Name="rho"  format="ascii">1.0000000000000000e+00   1.0000000000000000e+00   1.0000000000000000e+00   1.0000000000000000e+00   1.0000000000000000e+00   1.0000000000000000e+00   1.0000000000000000e+00   1.0000000000000000e+00   1.0000000000000000e+00   1.0000000000000000e+00   1.0000000000000000e+00   1.0000000000000000e+00   1.0000000000000000e+00   1.0000000000000000e+00   1.0000000000000000e+00   1.0000000000000000e+00   1.0000000000000000e+00   1.0000000000000000e+00   1.0000000000000000e+00   1.0000000000000000e+00   1.0000000000000000e+00   1.0000000000000000e+00   1.0000000000000000e+00   1.0000000000000000e+00   1.0000000000000000e+00   1.0000000000000000e+00   1.0000000000000000e+00   1.0000000000000000e+00   1.0000000000000000e+00   1.0000000000000000e+00   1.0000000000000000e+00   1.0000000000000000e+00   1.0000000000000000e+00   1.0000000000000000e+00   1.0000000000000000e+00   1.0000000000000000e+00   1.0000000000000000e+00   1.0000000000000000e+00   1.0000000000000000e+00   1.0000000000000000e+00   1.0000000000000000e+00   1.0000000000000000e+00   1.0000000000000000e+00   1.0000000000000000e+00   1.0000000000000000e+00   1.0000000000000000e+00   1.0000000000000000e+00   1.0000000000000000e+00   1.0000000000000000e+00   1.0000000000000000e+00   1.0000000000000000e+00   1.0000000000000000e+00   1.0000000000000000e+00   1.0000000000000000e+00   1.0000000000000000e+00   1.0000000000000000e+00   1.0000000000000000e+00   1.0000000000000000e+00   1.0000000000000000e+00   1.0000000000000000e+00   1.0000000000000000e+00   1.0000000000000000e+00   1.0000000000000000e+00   1.0000000000000000e+00   1.0000000000000000e+00   1.0000000000000000e+00   1.0000000000000000e+00   1.0000000000000000e+00   1.0000000000000000e+00   1.0000000000000000e+00   1.0000000000000000e+00   1.0000000000000000e+00   1.0000000000000000e+00   1.0000000000000000e+00   1.0000000000000000e+00   1.0000000000000000e+00   1.0000000000000000e+00   1.0000000000000000e+00   1.0000000000000000e+00   1.0000000000000000e+00   1.0000000000000000e+00   1.0000000000000000e+00   1.0000000000000000e+00   1.0000000000000000e+00   1.0000000000000000e+00   1.0000000000000000e+00   1.0000000000000000e+00   1.0000000000000000e+00   1.0000000000000000e+00   1.0000000000000000e+00   1.0000000000000000e+00   1.0000000000000000e+00   1.0000000000000000e+00   1.0000000000000000e+00   1.0000000000000000e+00   1.0000000000000000e+00   1.0000000000000000e+00   1.0000000000000000e+00   1.0000000000000000e+00   1.0000000000000000e+00   1.0000000000000000e+00   1.0000000000000000e+00   1.0000000000000000e+00   1.0000000000000000e+00   1.0000000000000000e+00   1.0000000000000000e+00   1.0000000000000000e+00   1.0000000000000000e+00   1.0000000000000000e+00   1.0000000000000000e+00   1.0000000000000000e+00   1.0000000000000000e+00   1.0000000000000000e+00   1.0000000000000000e+00   1.0000000000000000e+00   1.0000000000000000e+00   1.0000000000000000e+00   1.0000000000000000e+00   1.0000000000000000e+00   1.0000000000000000e+00   1.0000000000000000e+00   1.0000000000000000e+00   1.0000000000000000e+00   1.0000000000000000e+00   1.0000000000000000e+00   1.0000000000000000e+00   1.0000000000000000e+00   1.0000000000000000e+00   1.0000000000000000e+00   1.0000000000000000e+00   1.0000000000000000e+00   1.0000000000000000e+00   1.0000000000000000e+00   1.0000000000000000e+00   1.0000000000000000e+00   1.0000000000000000e+00   1.0000000000000000e+00   1.0000000000000000e+00   1.0000000000000000e+00   1.0000000000000000e+00   1.0000000000000000e+00   1.0000000000000000e+00   1.0000000000000000e+00   1.0000000000000000e+00   1.0000000000000000e+00   1.0000000000000000e+00   1.0000000000000000e+00   1.0000000000000000e+00   1.0000000000000000e+00   1.0000000000000000e+00   1.0000000000000000e+00   1.0000000000000000e+00   1.0000000000000000e+00   1.0000000000000000e+00   1.0000000000000000e+00   1.0000000000000000e+00   1.0000000000000000e+00   1.0000000000000000e+00   1.0000000000000000e+00   1.0000000000000000e+00   1.0000000000000000e+00   1.0000000000000000e+00   1.0000000000000000e+00   1.0000000000000000e+00   1.0000000000000000e+00   1.0000000000000000e+00   1.0000000000000000e+00   1.0000000000000000e+00   1.0000000000000000e+00   1.0000000000000000e+00   1.0000000000000000e+00   1.0000000000000000e+00   1.0000000000000000e+00   1.0000000000000000e+00   1.0000000000000000e+00   1.0000000000000000e+00   1.0000000000000000e+00   1.0000000000000000e+00   1.0000000000000000e+00   1.0000000000000000e+00   1.0000000000000000e+00   1.0000000000000000e+00   1.0000000000000000e+00   1.0000000000000000e+00   1.0000000000000000e+00   1.0000000000000000e+00   1.0000000000000000e+00   1.0000000000000000e+00   1.0000000000000000e+00   1.0000000000000000e+00   1.0000000000000000e+00   1.0000000000000000e+00   1.0000000000000000e+00   1.0000000000000000e+00   1.0000000000000000e+00   1.0000000000000000e+00   1.0000000000000000e+00   1.0000000000000000e+00   1.0000000000000000e+00   1.0000000000000000e+00   1.0000000000000000e+00   1.0000000000000000e+00   1.0000000000000000e+00   1.0000000000000000e+00   1.0000000000000000e+00   1.0000000000000000e+00   1.0000000000000000e+00   1.0000000000000000e+00   1.0000000000000000e+00   1.0000000000000000e+00   1.0000000000000000e+00   1.0000000000000000e+00   1.0000000000000000e+00   1.0000000000000000e+00   1.0000000000000000e+00   1.0000000000000000e+00   1.0000000000000000e+00   1.0000000000000000e+00   1.0000000000000000e+00   1.0000000000000000e+00   1.0000000000000000e+00   1.0000000000000000e+00   1.0000000000000000e+00   1.0000000000000000e+00   1.0000000000000000e+00   1.0000000000000000e+00   1.0000000000000000e+00   1.0000000000000000e+00   1.0000000000000000e+00   1.0000000000000000e+00   1.0000000000000000e+00   1.0000000000000000e+00   1.0000000000000000e+00   1.0000000000000000e+00   1.0000000000000000e+00   1.0000000000000000e+00   1.0000000000000000e+00   1.0000000000000000e+00   1.0000000000000000e+00   1.0000000000000000e+00   1.0000000000000000e+00   1.0000000000000000e+00   1.0000000000000000e+00   1.0000000000000000e+00   1.0000000000000000e+00   1.0000000000000000e+00   1.0000000000000000e+00   1.0000000000000000e+00   1.0000000000000000e+00   1.0000000000000000e+00   1.0000000000000000e+00   1.0000000000000000e+00   1.0000000000000000e+00   1.0000000000000000e+00   1.0000000000000000e+00   1.0000000000000000e+00   1.0000000000000000e+00   1.0000000000000000e+00   1.0000000000000000e+00   1.0000000000000000e+00   1.0000000000000000e+00   1.0000000000000000e+00   1.0000000000000000e+00   1.0000000000000000e+00   1.0000000000000000e+00   1.0000000000000000e+00   1.0000000000000000e+00   1.0000000000000000e+00   1.0000000000000000e+00   1.0000000000000000e+00   1.0000000000000000e+00   1.0000000000000000e+00   1.0000000000000000e+00   1.0000000000000000e+00   1.0000000000000000e+00   1.0000000000000000e+00   1.0000000000000000e+00   1.0000000000000000e+00   1.0000000000000000e+00   1.0000000000000000e+00   1.0000000000000000e+00   1.0000000000000000e+00   1.0000000000000000e+00   1.0000000000000000e+00   1.0000000000000000e+00   1.0000000000000000e+00   1.0000000000000000e+00   1.0000000000000000e+00   1.0000000000000000e+00   1.0000000000000000e+00   1.0000000000000000e+00   1.0000000000000000e+00   1.0000000000000000e+00   1.0000000000000000e+00   1.0000000000000000e+00   1.0000000000000000e+00   1.0000000000000000e+00   1.0000000000000000e+00   1.0000000000000000e+00   1.0000000000000000e+00   1.0000000000000000e+00   1.0000000000000000e+00   1.0000000000000000e+00   1.0000000000000000e+00   1.0000000000000000e+00   1.0000000000000000e+00   1.0000000000000000e+00   1.0000000000000000e+00   1.0000000000000000e+00   1.0000000000000000e+00   1.0000000000000000e+00   1.0000000000000000e+00   1.0000000000000000e+00   1.0000000000000000e+00   1.0000000000000000e+00   1.0000000000000000e+00   1.0000000000000000e+00   1.0000000000000000e+00   1.0000000000000000e+00   1.0000000000000000e+00   1.0000000000000000e+00   1.0000000000000000e+00   1.0000000000000000e+00   1.0000000000000000e+00   1.0000000000000000e+00   1.0000000000000000e+00   1.0000000000000000e+00   1.0000000000000000e+00   1.0000000000000000e+00   1.0000000000000000e+00   1.0000000000000000e+00   1.0000000000000000e+00   1.0000000000000000e+00   1.0000000000000000e+00   1.0000000000000000e+00   1.0000000000000000e+00   1.0000000000000000e+00   1.0000000000000000e+00   1.0000000000000000e+00   1.0000000000000000e+00   1.0000000000000000e+00   1.0000000000000000e+00   1.0000000000000000e+00   1.0000000000000000e+00   1.0000000000000000e+00   1.0000000000000000e+00   1.0000000000000000e+00   1.0000000000000000e+00   1.0000000000000000e+00   1.0000000000000000e+00   1.0000000000000000e+00   1.0000000000000000e+00   1.0000000000000000e+00   1.0000000000000000e+00   1.0000000000000000e+00   1.0000000000000000e+00   1.0000000000000000e+00   1.0000000000000000e+00   1.0000000000000000e+00   1.0000000000000000e+00   1.0000000000000000e+00   1.0000000000000000e+00   1.0000000000000000e+00   1.0000000000000000e+00   1.0000000000000000e+00   1.0000000000000000e+00   1.0000000000000000e+00   1.0000000000000000e+00   1.0000000000000000e+00   1.0000000000000000e+00   1.0000000000000000e+00   1.0000000000000000e+00   1.0000000000000000e+00   1.0000000000000000e+00   1.0000000000000000e+00   1.0000000000000000e+00   1.0000000000000000e+00   1.0000000000000000e+00   1.0000000000000000e+00   1.0000000000000000e+00   1.0000000000000000e+00   1.0000000000000000e+00   1.0000000000000000e+00   1.0000000000000000e+00   1.0000000000000000e+00   1.0000000000000000e+00   1.0000000000000000e+00   1.0000000000000000e+00   1.0000000000000000e+00   1.0000000000000000e+00   1.0000000000000000e+00   1.0000000000000000e+00   1.0000000000000000e+00   1.0000000000000000e+00   1.0000000000000000e+00   1.0000000000000000e+00   1.0000000000000000e+00   1.0000000000000000e+00   1.0000000000000000e+00   1.0000000000000000e+00   1.0000000000000000e+00   1.0000000000000000e+00   1.0000000000000000e+00   1.0000000000000000e+00   1.0000000000000000e+00   1.0000000000000000e+00   1.0000000000000000e+00   1.0000000000000000e+00   1.0000000000000000e+00   1.0000000000000000e+00   1.0000000000000000e+00   1.0000000000000000e+00   1.0000000000000000e+00   1.0000000000000000e+00   1.0000000000000000e+00   1.0000000000000000e+00   1.0000000000000000e+00   1.0000000000000000e+00   1.0000000000000000e+00   1.0000000000000000e+00   1.0000000000000000e+00   1.0000000000000000e+00   1.0000000000000000e+00   1.0000000000000000e+00   1.0000000000000000e+00   1.0000000000000000e+00   1.0000000000000000e+00   1.0000000000000000e+00   1.0000000000000000e+00   1.0000000000000000e+00   1.0000000000000000e+00   1.0000000000000000e+00   1.0000000000000000e+00   1.0000000000000000e+00   1.0000000000000000e+00   1.0000000000000000e+00   1.0000000000000000e+00   1.0000000000000000e+00   1.0000000000000000e+00   1.0000000000000000e+00   1.0000000000000000e+00   1.0000000000000000e+00   1.0000000000000000e+00   1.0000000000000000e+00   1.0000000000000000e+00   1.0000000000000000e+00   1.0000000000000000e+00   1.0000000000000000e+00   1.0000000000000000e+00   1.0000000000000000e+00   1.0000000000000000e+00   1.0000000000000000e+00   1.0000000000000000e+00   1.0000000000000000e+00   1.0000000000000000e+00   1.0000000000000000e+00   1.0000000000000000e+00   1.0000000000000000e+00   1.0000000000000000e+00   1.0000000000000000e+00   1.0000000000000000e+00   1.0000000000000000e+00   1.0000000000000000e+00   1.0000000000000000e+00   1.0000000000000000e+00   1.0000000000000000e+00   1.0000000000000000e+00   1.0000000000000000e+00   1.0000000000000000e+00   1.0000000000000000e+00   1.0000000000000000e+00   1.0000000000000000e+00   1.0000000000000000e+00   1.0000000000000000e+00   1.0000000000000000e+00   1.0000000000000000e+00   1.0000000000000000e+00   1.0000000000000000e+00   1.0000000000000000e+00   1.0000000000000000e+00   1.0000000000000000e+00   1.0000000000000000e+00   1.0000000000000000e+00   1.0000000000000000e+00   1.0000000000000000e+00   1.0000000000000000e+00   1.0000000000000000e+00   1.0000000000000000e+00   1.0000000000000000e+00   1.0000000000000000e+00   1.0000000000000000e+00   1.0000000000000000e+00   1.0000000000000000e+00   1.0000000000000000e+00   1.0000000000000000e+00   1.0000000000000000e+00   1.0000000000000000e+00   1.0000000000000000e+00   1.0000000000000000e+00   1.0000000000000000e+00   1.0000000000000000e+00   1.0000000000000000e+00   1.0000000000000000e+00   1.0000000000000000e+00   1.0000000000000000e+00   1.0000000000000000e+00   1.0000000000000000e+00   1.0000000000000000e+00   1.0000000000000000e+00   1.0000000000000000e+00   1.0000000000000000e+00   1.0000000000000000e+00   1.0000000000000000e+00   1.0000000000000000e+00   1.0000000000000000e+00   1.0000000000000000e+00   1.0000000000000000e+00   1.0000000000000000e+00   1.0000000000000000e+00   1.0000000000000000e+00   1.0000000000000000e+00   1.0000000000000000e+00   1.0000000000000000e+00   1.0000000000000000e+00   1.0000000000000000e+00   1.0000000000000000e+00   1.0000000000000000e+00   1.0000000000000000e+00   1.0000000000000000e+00   1.0000000000000000e+00   1.0000000000000000e+00   1.0000000000000000e+00   1.0000000000000000e+00   1.0000000000000000e+00   1.0000000000000000e+00   1.0000000000000000e+00   1.0000000000000000e+00   1.0000000000000000e+00   1.0000000000000000e+00   1.0000000000000000e+00   1.0000000000000000e+00   1.0000000000000000e+00   1.0000000000000000e+00   1.0000000000000000e+00   1.0000000000000000e+00   1.0000000000000000e+00   1.0000000000000000e+00   1.0000000000000000e+00   1.0000000000000000e+00   1.0000000000000000e+00   1.0000000000000000e+00   1.0000000000000000e+00   1.0000000000000000e+00   1.0000000000000000e+00   1.0000000000000000e+00   1.0000000000000000e+00   1.0000000000000000e+00   1.0000000000000000e+00   1.0000000000000000e+00   1.0000000000000000e+00   1.0000000000000000e+00   1.0000000000000000e+00   1.0000000000000000e+00   1.0000000000000000e+00   1.0000000000000000e+00   1.0000000000000000e+00   1.0000000000000000e+00   1.0000000000000000e+00   1.0000000000000000e+00   1.0000000000000000e+00   1.0000000000000000e+00   1.0000000000000000e+00   1.0000000000000000e+00   1.0000000000000000e+00   1.0000000000000000e+00   1.0000000000000000e+00   1.0000000000000000e+00   1.0000000000000000e+00   1.0000000000000000e+00   1.0000000000000000e+00   1.0000000000000000e+00   1.0000000000000000e+00   1.0000000000000000e+00   1.0000000000000000e+00   1.0000000000000000e+00   1.0000000000000000e+00   1.0000000000000000e+00   1.0000000000000000e+00   1.0000000000000000e+00   1.0000000000000000e+00   1.0000000000000000e+00   1.0000000000000000e+00   1.0000000000000000e+00   1.0000000000000000e+00   1.0000000000000000e+00   1.0000000000000000e+00   1.0000000000000000e+00   1.0000000000000000e+00   1.0000000000000000e+00   1.0000000000000000e+00   1.0000000000000000e+00   1.0000000000000000e+00   1.0000000000000000e+00   1.0000000000000000e+00   1.0000000000000000e+00   1.0000000000000000e+00   1.0000000000000000e+00   1.0000000000000000e+00   1.0000000000000000e+00   1.0000000000000000e+00   1.0000000000000000e+00   1.0000000000000000e+00   1.0000000000000000e+00   1.0000000000000000e+00   1.0000000000000000e+00   1.0000000000000000e+00   1.0000000000000000e+00   1.0000000000000000e+00   1.0000000000000000e+00   1.0000000000000000e+00   1.0000000000000000e+00   1.0000000000000000e+00   1.0000000000000000e+00   1.0000000000000000e+00   1.0000000000000000e+00   1.0000000000000000e+00   1.0000000000000000e+00   1.0000000000000000e+00   1.0000000000000000e+00   1.0000000000000000e+00   1.0000000000000000e+00   1.0000000000000000e+00   1.0000000000000000e+00   1.0000000000000000e+00   1.0000000000000000e+00   1.0000000000000000e+00   1.0000000000000000e+00   1.0000000000000000e+00   1.0000000000000000e+00   1.0000000000000000e+00   1.0000000000000000e+00   1.0000000000000000e+00   1.0000000000000000e+00   1.0000000000000000e+00   1.0000000000000000e+00   1.0000000000000000e+00   1.0000000000000000e+00   1.0000000000000000e+00   9.9920142871347795e-01   1.0000000000000000e+00   9.9564459477035061e-01   1.0000000000000000e+00   9.9205394176229433e-01   1.0000000000000000e+00   9.8842499872209177e-01   1.0000000000000000e+00   9.8475534811842114e-01   1.0000000000000000e+00   9.8104955094274482e-01   1.0000000000000000e+00   9.7730599836389487e-01   1.0000000000000000e+00   9.7352139268163407e-01   1.0000000000000000e+00   9.6970007954928983e-01   1.0000000000000000e+00   9.6584537856503383e-01   1.0000000000000000e+00   9.6195503786136238e-01   1.0000000000000000e+00   9.5805329815822993e-01   1.0000000000000000e+00   9.5414187076893431e-01   1.0000000000000000e+00   9.5024096417913329e-01   1.0000000000000000e+00   9.4634526886757531e-01   1.0000000000000000e+00   9.4243109255595492e-01   1.0000000000000000e+00   9.3844457423094729e-01   1.0000000000000000e+00   9.3429747095732718e-01   1.0000000000000000e+00   1.0000000000000000e+00   1.0000000000000000e+00   1.0000000000000000e+00   1.0000000000000000e+00   1.0000000000000000e+00   9.2981588024611728e-01   1.0000000000000000e+00   1.0000000000000000e+00   9.2518885988607280e-01   1.0000000000000000e+00   9.2020066064712236e-01   1.0000000000000000e+00   9.1455382910757377e-01   1.0000000000000000e+00   9.0707001720769576e-01   1.0000000000000000e+00   9.0001956046186959e-01   1.0000000000000000e+00   8.9330212441370094e-01   1.0000000000000000e+00   8.8654665903041852e-01   1.0000000000000000e+00   8.7966392914790958e-01   1.0000000000000000e+00   8.7264117363315474e-01   8.6548695378089202e-01   1.0000000000000000e+00   1.0000000000000000e+00   7.0185095447020729e-01   1.0000000000000000e+00   6.9646236961114460e-01   1.0000000000000000e+00   6.9144245186738995e-01   1.0000000000000000e+00   6.8689281857225903e-01   1.0000000000000000e+00   6.8320129019063680e-01   1.0000000000000000e+00   6.7552689054036930e-01   1.0000000000000000e+00   6.8488984866247016e-01   1.0000000000000000e+00   6.8155560220091160e-01   1.0000000000000000e+00   6.7787384037210685e-01   1.0000000000000000e+00   6.7414691429446549e-01   1.0000000000000000e+00   6.7050641788849086e-01   1.0000000000000000e+00   6.6704998007232053e-01   1.0000000000000000e+00   6.6382845256350809e-01   1.0000000000000000e+00   6.6085299364671368e-01   1.0000000000000000e+00   6.5811581328643343e-01   1.0000000000000000e+00   6.5558252832904162e-01   1.0000000000000000e+00   6.5322240637997508e-01   1.0000000000000000e+00   6.5099044272922291e-01   1.0000000000000000e+00   6.4885648808269603e-01   1.0000000000000000e+00   6.4679744303819142e-01   1.0000000000000000e+00   6.4480150280441428e-01   1.0000000000000000e+00   6.4285320199945706e-01   1.0000000000000000e+00   6.4096204058910922e-01   1.0000000000000000e+00   6.3912989023162015e-01   1.0000000000000000e+00   1.0000000000000000e+00   1.0000000000000000e+00   1.0000000000000000e+00   1.0000000000000000e+00   1.0000000000000000e+00   6.3735488679183672e-01   1.0000000000000000e+00   6.3562198689253402e-01   1.0000000000000000e+00   6.3391756464241600e-01   1.0000000000000000e+00   6.3217397007805320e-01   1.0000000000000000e+00   6.2873270250310398e-01   1.0000000000000000e+00   6.2884223297308328e-01   1.0000000000000000e+00   6.2744971497397151e-01   1.0000000000000000e+00   6.2609736009608741e-01   1.0000000000000000e+00   6.2356234255820597e-01   1.0000000000000000e+00   6.2256076069723121e-01   1.0000000000000000e+00   6.2135889346670958e-01   1.0000000000000000e+00   6.2026128102386335e-01   1.0000000000000000e+00   6.1922480903352961e-01   1.0000000000000000e+00   6.1815094119502656e-01   1.0000000000000000e+00   6.1696798568028022e-01   1.0000000000000000e+00   6.1567681063697988e-01   1.0000000000000000