<?xml version="1.0"?>
<VTKFile type="UnstructuredGrid"  version="0.1"  >
<UnstructuredGrid>
<Piece  NumberOfPoints="2448" NumberOfCells="4682">
<Points>
<DataArray  type="Float64"  NumberOfComponents="3"  format="ascii">0.9417391304347826 0.225 0  0.9417391304347826 0.2333333333333333 0  0.95 0.2333333333333333 0  0.3469565217391304 0.2333333333333333 0  0.3552173913043478 0.2333333333333333 0  0.3552173913043478 0.2416666666666667 0  0.3634782608695652 0.2333333333333333 0  0.3634782608695652 0.2416666666666667 0  0.3717391304347826 0.2333333333333333 0  0.3717391304347826 0.2416666666666667 0  0.3799999999999999 0.2333333333333333 0  0.3799999999999999 0.2416666666666667 0  0.3882608695652174 0.2333333333333333 0  0.3882608695652174 0.2416666666666667 0  0.3965217391304348 0.2333333333333333 0  0.3965217391304348 0.2416666666666667 0  0.4047826086956521 0.2333333333333333 0  0.4047826086956521 0.2416666666666667 0  0.4130434782608696 0.2333333333333333 0  0.4130434782608696 0.2416666666666667 0  0.4213043478260869 0.2333333333333333 0  0.4213043478260869 0.2416666666666667 0  0.4295652173913043 0.2333333333333333 0  0.4295652173913043 0.2416666666666667 0  0.4378260869565217 0.2333333333333333 0  0.4378260869565217 0.2416666666666667 0  0.4460869565217391 0.2333333333333333 0  0.4460869565217391 0.2416666666666667 0  0.4543478260869565 0.2333333333333333 0  0.4543478260869565 0.2416666666666667 0  0.4626086956521739 0.2333333333333333 0  0.4626086956521739 0.2416666666666667 0  0.4708695652173913 0.2333333333333333 0  0.4708695652173913 0.2416666666666667 0  0.4791304347826086 0.2333333333333333 0  0.4791304347826086 0.2416666666666667 0  0.4873913043478261 0.2333333333333333 0  0.4873913043478261 0.2416666666666667 0  0.4956521739130435 0.2333333333333333 0  0.4956521739130435 0.2416666666666667 0  0.5039130434782608 0.2333333333333333 0  0.5039130434782608 0.2416666666666667 0  0.5121739130434783 0.2333333333333333 0  0.5121739130434783 0.2416666666666667 0  0.5204347826086956 0.2333333333333333 0  0.5204347826086956 0.2416666666666667 0  0.528695652173913 0.2333333333333333 0  0.528695652173913 0.2416666666666667 0  0.5369565217391304 0.2333333333333333 0  0.5369565217391304 0.2416666666666667 0  0.5452173913043478 0.2333333333333333 0  0.5452173913043478 0.2416666666666667 0  0.5534782608695652 0.2333333333333333 0  0.5534782608695652 0.2416666666666667 0  0.5617391304347825 0.2333333333333333 0  0.5617391304347825 0.2416666666666667 0  0.57 0.2333333333333333 0  0.57 0.2416666666666667 0  0.5782608695652174 0.2333333333333333 0  0.5782608695652174 0.2416666666666667 0  0.5865217391304348 0.2333333333333333 0  0.5865217391304348 0.2416666666666667 0  0.5947826086956521 0.2333333333333333 0  0.5947826086956521 0.2416666666666667 0  0.6030434782608696 0.2333333333333333 0  0.6030434782608696 0.2416666666666667 0  0.6113043478260869 0.2333333333333333 0  0.6113043478260869 0.2416666666666667 0  0.6195652173913043 0.2333333333333333 0  0.6195652173913043 0.2416666666666667 0  0.6278260869565218 0.2333333333333333 0  0.6278260869565218 0.2416666666666667 0  0.6360869565217391 0.2333333333333333 0  0.6360869565217391 0.2416666666666667 0  0.6443478260869565 0.2333333333333333 0  0.6443478260869565 0.2416666666666667 0  0.6526086956521739 0.2333333333333333 0  0.6526086956521739 0.2416666666666667 0  0.6608695652173913 0.2333333333333333 0  0.6608695652173913 0.2416666666666667 0  0.6691304347826087 0.2333333333333333 0  0.6691304347826087 0.2416666666666667 0  0.677391304347826 0.2333333333333333 0  0.677391304347826 0.2416666666666667 0  0.6856521739130435 0.2333333333333333 0  0.6856521739130435 0.2416666666666667 0  0.6939130434782609 0.2333333333333333 0  0.6939130434782609 0.2416666666666667 0  0.7021739130434783 0.2333333333333333 0  0.7021739130434783 0.2416666666666667 0  0.7104347826086956 0.2333333333333333 0  0.7104347826086956 0.2416666666666667 0  0.718695652173913 0.2333333333333333 0  0.718695652173913 0.2416666666666667 0  0.7269565217391304 0.2333333333333333 0  0.7269565217391304 0.2416666666666667 0  0.7352173913043478 0.2333333333333333 0  0.7352173913043478 0.2416666666666667 0  0.7434782608695653 0.2333333333333333 0  0.7434782608695653 0.2416666666666667 0  0.7517391304347827 0.2333333333333333 0  0.7517391304347827 0.2416666666666667 0  0.7599999999999999 0.2333333333333333 0  0.7599999999999999 0.2416666666666667 0  0.7682608695652173 0.2333333333333333 0  0.7682608695652173 0.2416666666666667 0  0.7765217391304348 0.2333333333333333 0  0.7765217391304348 0.2416666666666667 0  0.7847826086956522 0.2333333333333333 0  0.7847826086956522 0.2416666666666667 0  0.7930434782608695 0.2333333333333333 0  0.7930434782608695 0.2416666666666667 0  0.8013043478260868 0.2333333333333333 0  0.8013043478260868 0.2416666666666667 0  0.8095652173913043 0.2333333333333333 0  0.8095652173913043 0.2416666666666667 0  0.8178260869565217 0.2333333333333333 0  0.8178260869565217 0.2416666666666667 0  0.8260869565217391 0.2333333333333333 0  0.8260869565217391 0.2416666666666667 0  0.8343478260869565 0.2333333333333333 0  0.8343478260869565 0.2416666666666667 0  0.8426086956521739 0.2333333333333333 0  0.8426086956521739 0.2416666666666667 0  0.8508695652173912 0.2333333333333333 0  0.8508695652173912 0.2416666666666667 0  0.8591304347826086 0.2333333333333333 0  0.8591304347826086 0.2416666666666667 0  0.8673913043478261 0.2333333333333333 0  0.8673913043478261 0.2416666666666667 0  0.8756521739130434 0.2333333333333333 0  0.8756521739130434 0.2416666666666667 0  0.8839130434782608 0.2333333333333333 0  0.8839130434782608 0.2416666666666667 0  0.8921739130434783 0.2333333333333333 0  0.8921739130434783 0.2416666666666667 0  0.9004347826086956 0.2333333333333333 0  0.9004347826086956 0.2416666666666667 0  0.908695652173913 0.2333333333333333 0  0.908695652173913 0.2416666666666667 0  0.9169565217391303 0.2333333333333333 0  0.9169565217391303 0.2416666666666667 0  0.9252173913043478 0.2333333333333333 0  0.9252173913043478 0.2416666666666667 0  0.9334782608695652 0.2333333333333333 0  0.9334782608695652 0.2416666666666667 0  0.9417391304347826 0.2416666666666667 0  0.95 0.2416666666666667 0  0.9582608695652173 0.2416666666666667 0  0.3634782608695652 0.25 0  0.3717391304347826 0.25 0  0.3799999999999999 0.25 0  0.3882608695652174 0.25 0  0.3965217391304348 0.25 0  0.4047826086956521 0.25 0  0.4130434782608696 0.25 0  0.4213043478260869 0.25 0  0.4295652173913043 0.25 0  0.4378260869565217 0.25 0  0.4460869565217391 0.25 0  0.4543478260869565 0.25 0  0.4626086956521739 0.25 0  0.4708695652173913 0.25 0  0.4791304347826086 0.25 0  0.4873913043478261 0.25 0  0.4956521739130435 0.25 0  0.5039130434782608 0.25 0  0.5121739130434783 0.25 0  0.5204347826086956 0.25 0  0.528695652173913 0.25 0  0.5369565217391304 0.25 0  0.5452173913043478 0.25 0  0.5534782608695652 0.25 0  0.5617391304347825 0.25 0  0.57 0.25 0  0.5782608695652174 0.25 0  0.5865217391304348 0.25 0  0.5947826086956521 0.25 0  0.6030434782608696 0.25 0  0.6113043478260869 0.25 0  0.6195652173913043 0.25 0  0.6278260869565218 0.25 0  0.6360869565217391 0.25 0  0.6443478260869565 0.25 0  0.6526086956521739 0.25 0  0.6608695652173913 0.25 0  0.6691304347826087 0.25 0  0.677391304347826 0.25 0  0.6856521739130435 0.25 0  0.6939130434782609 0.25 0  0.7021739130434783 0.25 0  0.7104347826086956 0.25 0  0.718695652173913 0.25 0  0.7269565217391304 0.25 0  0.7352173913043478 0.25 0  0.7434782608695653 0.25 0  0.7517391304347827 0.25 0  0.7599999999999999 0.25 0  0.7682608695652173 0.25 0  0.7765217391304348 0.25 0  0.7847826086956522 0.25 0  0.7930434782608695 0.25 0  0.8013043478260868 0.25 0  0.8095652173913043 0.25 0  0.8178260869565217 0.25 0  0.8260869565217391 0.25 0  0.8343478260869565 0.25 0  0.8426086956521739 0.25 0  0.8508695652173912 0.25 0  0.8591304347826086 0.25 0  0.8673913043478261 0.25 0  0.8756521739130434 0.25 0  0.8839130434782608 0.25 0  0.8921739130434783 0.25 0  0.9004347826086956 0.25 0  0.908695652173913 0.25 0  0.9169565217391303 0.25 0  0.9252173913043478 0.25 0  0.9334782608695652 0.25 0  0.9417391304347826 0.25 0  0.95 0.25 0  0.9582608695652173 0.25 0  0.9665217391304347 0.25 0  0.3717391304347826 0.2583333333333334 0  0.3799999999999999 0.2583333333333334 0  0.3882608695652174 0.2583333333333334 0  0.3965217391304348 0.2583333333333334 0  0.4047826086956521 0.2583333333333334 0  0.4130434782608696 0.2583333333333334 0  0.4213043478260869 0.2583333333333334 0  0.4295652173913043 0.2583333333333334 0  0.4378260869565217 0.2583333333333334 0  0.4460869565217391 0.2583333333333334 0  0.4543478260869565 0.2583333333333334 0  0.4626086956521739 0.2583333333333334 0  0.4708695652173913 0.2583333333333334 0  0.4791304347826086 0.2583333333333334 0  0.4873913043478261 0.2583333333333334 0  0.4956521739130435 0.2583333333333334 0  0.5039130434782608 0.2583333333333334 0  0.5121739130434783 0.2583333333333334 0  0.5204347826086956 0.2583333333333334 0  0.528695652173913 0.2583333333333334 0  0.5369565217391304 0.2583333333333334 0  0.5452173913043478 0.2583333333333334 0  0.5534782608695652 0.2583333333333334 0  0.5617391304347825 0.2583333333333334 0  0.57 0.2583333333333334 0  0.5782608695652174 0.2583333333333334 0  0.5865217391304348 0.2583333333333334 0  0.5947826086956521 0.2583333333333334 0  0.6030434782608696 0.2583333333333334 0  0.6113043478260869 0.2583333333333334 0  0.6195652173913043 0.2583333333333334 0  0.6278260869565218 0.2583333333333334 0  0.6360869565217391 0.2583333333333334 0  0.6443478260869565 0.2583333333333334 0  0.6526086956521739 0.2583333333333334 0  0.6608695652173913 0.2583333333333334 0  0.6691304347826087 0.2583333333333334 0  0.677391304347826 0.2583333333333334 0  0.6856521739130435 0.2583333333333334 0  0.6939130434782609 0.2583333333333334 0  0.7021739130434783 0.2583333333333334 0  0.7104347826086956 0.2583333333333334 0  0.718695652173913 0.2583333333333334 0  0.7269565217391304 0.258333333333333
[...]
<CellData  Scalars="rho"> 
<DataArray  type="Float64"  Name="rho"  format="ascii">2.9927807358540909e-01   3.0499435248590778e-01   2.9899965307591214e-01   3.0470105220461746e-01   2.9872645787373736e-01   3.0441180870367041e-01   2.9845947693883157e-01   3.0412831533901774e-01   2.9820119294642122e-01   3.0385132729853309e-01   2.9795111409705233e-01   3.0358288152998369e-01   2.9771184089286507e-01   3.0332380772302675e-01   2.9748450500671403e-01   3.0307599706315513e-01   2.9726878341137364e-01   3.0283952581250284e-01   2.9706932761614752e-01   3.0261865324135506e-01   2.9688474015668176e-01   3.0241402132851841e-01   2.9671619378514563e-01   3.0222491670844126e-01   2.9656337469542976e-01   3.0205235074253894e-01   2.9642442862751223e-01   3.0189405011856779e-01   2.9629779568180803e-01   3.0174800973497101e-01   2.9618106354903911e-01   3.0161248189387485e-01   2.9607185888079773e-01   3.0148428819328055e-01   2.9596417936255665e-01   3.0135749101424830e-01   2.9585546473983859e-01   3.0122870088283510e-01   2.9574038461509106e-01   3.0109157749754811e-01   2.9561297207449966e-01   3.0093966811200717e-01   2.9547370918428389e-01   3.0077391685077953e-01   2.9531731676656053e-01   3.0059160535459462e-01   2.9514233629808989e-01   3.0038774067460638e-01   2.9494648767242465e-01   3.0016157480071143e-01   2.9472902554871305e-01   2.9991485292522957e-01   2.9448975419598672e-01   2.9964451744728160e-01   2.9422845343154386e-01   2.9935376508974465e-01   2.9394530483082509e-01   2.9903972509357590e-01   2.9363933718021107e-01   2.9870418718994851e-01   2.9330923276262999e-01   2.9834819978317378e-01   2.9295813781016306e-01   2.9796805688770900e-01   2.9258424802699107e-01   2.9756832733349009e-01   2.9218976657730800e-01   2.9714578682782888e-01   2.9177561891246306e-01   2.9670524055938197e-01   2.9134258219085174e-01   2.9624609836389609e-01   2.9089559768650841e-01   2.9577306836057810e-01   2.9043561695299541e-01   2.9528775170311738e-01   2.8996724992866801e-01   2.9479323041682992e-01   2.8949473539857745e-01   2.9429666851241471e-01   2.8902226825650962e-01   2.9380135121242462e-01   2.8855623610375214e-01   2.9331376278082111e-01   2.8809920309904857e-01   2.9284048085983133e-01   2.8765644192530970e-01   2.9238256164307985e-01   2.8722953155541187e-01   2.9194588628214524e-01   2.8682247136899419e-01   2.9153019056126744e-01   2.8643427444417763e-01   2.9113694324509243e-01   2.8606717686192762e-01   2.9076660079288386e-01   2.8571907563968019e-01   2.9041879299654111e-01   2.8539095796191999e-01   2.9009045229017594e-01   2.8508036148977739e-01   2.8978162431668808e-01   2.8478686215670901e-01   2.8949028978184838e-01   2.8450819750789780e-01   2.8921471297967088e-01   2.8424480361112803e-01   2.8895258086491982e-01   2.8399199161883087e-01   2.8870304896584637e-01   2.8375167124064565e-01   2.8846311407079289e-01   2.8352006104491356e-01   2.8823275038786239e-01   2.8329660905260434e-01   2.8800930122144797e-01   2.8308257520751984e-01   2.8779369616928052e-01   2.8287117233793996e-01   2.8758405884875454e-01   2.9993905349438799e-01   3.0727865306371455e-01   3.0110325991553805e-01   3.0882786510733368e-01   3.0273174888303245e-01   3.1069467946747464e-01   3.0463993042669668e-01   3.1270882156340479e-01   3.0666562643178280e-01   3.1472938850304022e-01   3.0868078217564576e-01   3.1665580229377882e-01   3.1058886597214419e-01   3.1841770606088921e-01   3.1232768609524875e-01   3.1997634855274470e-01   3.1386205156216113e-01   3.2131529803830539e-01   3.1517880891801497e-01   3.2243179989126508e-01   3.1627694580576926e-01   3.2333533965743860e-01   3.1716833183044851e-01   3.2404292917258487e-01   3.1786783933106538e-01   3.2457255521436740e-01   3.1839408709047073e-01   3.2494510858703646e-01   3.1876726966853147e-01   3.2518107314803796e-01   3.1900562366975899e-01   3.2529786483716533e-01   3.1912915456454022e-01   3.2531541111033341e-01   3.1915320970195943e-01   3.2524737561263134e-01   3.1909340756435955e-01   3.2510824118819059e-01   3.1896506237638866e-01   3.2491248957878227e-01   3.1877917993666138e-01   3.2466909305706432e-01   3.1854769699098157e-01   3.2438995476297866e-01   3.1827905887302521e-01   3.2408174273430113e-01   3.1798129060474017e-01   3.2375126167330387e-01   3.1766103625080028e-01   3.2340463645279510e-01   3.1732359175927632e-01   3.2304560047417530e-01   3.1697359954909077e-01   3.2267871307875146e-01   3.1661494626174569e-01   3.2230644115368706e-01   3.1625086923583473e-01   3.2193235098230816e-01   3.1588327066729111e-01   3.2155669890561517e-01   3.1551486407650314e-01   3.2118284346174025e-01   3.1514689136009683e-01   3.2081021341071381e-01   3.1478023022191792e-01   3.2044110512097929e-01   3.1441643361201987e-01   3.2007467524704253e-01   3.1405611304757375e-01   3.1971335694871433e-01   3.1369902795933585e-01   3.1935459849495162e-01   3.1334596823209082e-01   3.1900152059320758e-01   3.1299672574395182e-01   3.1865101908907878e-01   3.1265059856004568e-01   3.1830527090302002e-01   3.1230911218294610e-01   3.1796247693033042e-01   3.1197104235763695e-01   3.1762381695978636e-01   3.1163675791472761e-01   3.1728807651758967e-01   3.1130592204055224e-01   3.1695625508677960e-01   3.1097837243446386e-01   3.1662674938104274e-01   3.1065223832851291e-01   3.1629879511709325e-01   3.1032986561522402e-01   3.1597403098701449e-01   3.1000915632335790e-01   3.1565023925619312e-01   3.0969097388626055e-01   3.1532925430336917e-01   3.0937481488611990e-01   3.1500975644907719e-01   3.0906017661368212e-01   3.1469127737863034e-01   3.0874532892275147e-01   3.1437254356303113e-01   3.0843277690898824e-01   3.1405555247488892e-01   3.0811973733986048e-01   3.1373763403187449e-01   3.0780874983206280e-01   3.1342177328159410e-01   3.0749920590495772e-01   3.1310592908999246e-01   3.0718967824483362e-01   3.1279085038935495e-01   3.0688067024182114e-01   3.1247623242628275e-01   3.0657263892002906e-01   3.1216110241814826e-01   3.0626444382777251e-01   3.1184542710787405e-01   3.0595698392353732e-01   3.1153025256780309e-01   3.0565051272010180e-01   3.1121420379360959e-01   3.0534490750566562e-01   3.1089979500301052e-01   3.0504119340204949e-01   3.1058644075505265e-01   3.0473942099872070e-01   3.1027375177214506e-01   3.0444034049400515e-01   3.0996320359136564e-01   3.0414478596866912e-01   3.0965471549458223e-01   3.0385333560490407e-01   3.0934997333961795e-01   3.0356782203301769e-01   3.0904942964402715e-01   3.0328903532695983e-01   3.0875507060486695e-01   3.0301913653407037e-01   3.0846790946073055e-01   3.0275904737945553e-01   3.0819013547394442e-01   3.0251076911909175e-01   3.0792332046953352e-01   3.0227457711981637e-01   3.0766797133455348e-01   3.0205482985517362e-01   3.0742887365637817e-01   3.0185237498635364e-01   3.0720691026757502e-01   3.0166667977787265e-01   3.0700219649831667e-01   3.0149899768202482e-01   3.0681480044966908e-01   3.0134733404258268e-01   3.0664497792379203e-01   3.0120972715172079e-01   3.0648921262287598e-01   3.0108449100419099e-01   3.0634671691613069e-01   3.0096821732174212e-01   3.0621409185894766e-01   3.0085521529654285e-01   3.0608234137733420e-01   3.0074176565123334e-01   3.0595160073823752e-01   3.0062135156735803e-01   3.0580970988782680e-01   3.0048761612021402e-01   3.0565310472329238e-01   3.0034053604557165e-01   3.0548147701564460e-01   3.0017767897141956e-01   3.0529081530258284e-01   2.9999344725157517e-01   3.0507887167756176e-01   2.9978717932893401e-01   3.0484194555080940e-01   2.9956000084658058e-01   3.0458440975501194e-01   2.9930890947062366e-01   3.0430348274487684e-01   2.9903674062599178e-01   3.0400100277498909e-01   2.9874042828919101e-01   3.0367882679908881e-01   2.9842120595505672e-01   3.0333172885597898e-01   2.9808078791718107e-01   3.0296340500258584e-01   2.9771460994077925e-01   3.0257348086558256e-01   2.9732771682791526e-01   3.0216089751922981e-01   2.9691603666055333e-01   3.0172740821092370e-01   2.9648494083050120e-01   3.0127138498923978e-01   2.9603336017261173e-01   3.0079722020292876e-01   2.9556619879952845e-01   3.0030582831134656e-01   2.9508497817799156e-01   2.9980101262679509e-01   2.9459312415378419e-01   2.9928603042160168e-01   2.9409743337146393e-01   2.9876836003498414e-01   2.9360176034139202e-01   2.9825214679215517e-01   2.9311217942030293e-01   2.9774579588956240e-01   2.9263588654499573e-01   2.9725364957693140e-01   2.9217361815751630e-01   2.9678170481980093e-01   2.9173193265996933e-01   2.9633111844267634e-01   2.9131015375414632e-01   2.9590671462944462e-01   2.9091047371781481e-01   2.9550524883559653e-01   2.9053305713274064e-01   2.9513005307308626e-01   2.9017804643160228e-01   2.9477743584570665e-01   2.8984222924350295e-01   2.9444729656925744e-01   2.8952592213966533e-01   2.9413609657016193e-01   2.8922713645278691e-01   2.9384297385843150e-01   2.8894429046428038e-01   2.9356536018478729e-01   2.8867517408855642e-01   2.9330121803728387e-01   2.8841896040305437e-01   2.9304927928532754e-01   2.8817272290460538e-01   2.9280656272262973e-01   2.8793665089793485e-01   2.9257314476000906e-01   2.8770766447393198e-01   2.9234685840204744e-01   2.8748704770513922e-01   2.9212432492989365e-01   2.8727297482229147e-01   2.9190786810392261e-01   2.9169466977160285e-01   3.0486997685988376e-01   3.1247542326886107e-01   3.0632522819727953e-01   3.1426882292545233e-01   3.0820854974839346e-01   3.1633222416263407e-01   3.1032569928720655e-01   3.1848504192474114e-01   3.1250753132058506e-01   3.2058860191237532e-01   3.1462593644960291e-01   3.2254784914889323e-01   3.1658980373380063e-01   3.2430222426436844e-01   3.1834472138113973e-01   3.2582231043785048e-01   3.1986562731902907e-01   3.2710113571165239e-01   3.2114527573592577e-01   3.2814424416890348e-01   3.2219167073759075e-01   3.2896700421607572e-01   3.2302231056504566e-01   3.2959201871618260e-01   3.2365656464499398e-01   3.3004080076937264e-01   3.2411732796821441e-01   3.3033650533927889e-01   3.2442723606868296e-01   3.3050161475278084e-01   3.2460572744272514e-01   3.3055427035098611e-01   3.2467452806085406e-01   3.3051529822442310e-01   3.2464896307485358e-01   3.3039780665318530e-01   3.2454494162808156e-01   3.3021615026610462e-01   3.2437815043155088e-01   3.2998437412027565e-01   3.2415852479147844e-01   3.2971139611136902e-01   3.2389878076565159e-01   3.2940773706510729e-01   3.2360633808050621e-01   3.2908053038311336e-01   3.2328854424645098e-01   3.2873488005154533e-01   3.2295205028183055e-01   3.2837701648794088e-01   3.2260095324324084e-01   3.2800959616670300e-01   3.2224026497860869e-01   3.2763640672971966e-01   3.2187265561723732e-01   3.2726035168481582e-01   3.2150200405106827e-01   3.2688346273435359e-01   3.2112868787002091e-01   3.2650727735364837e-01   3.2075628664781569e-01   3.2613323048337023e-01   3.2038435444805757e-01   3.2576157317822496e-01   3.2001537993225709e-01   3.2539306271508178e-01   3.1964859790669548e-01   3.2502829946485817e-01   3.1928655690782631e-01   3.2466734702968486e-01   3.1892670812013418e-01   3.2431072482831746e-01   3.1857226824665513e-01   3.2395841618111304e-01   3.1822018014629599e-01   3.2360953877027920e-01   3.1787273464777588e-01   3.2326362410810044e-01   3.1752814954161418e-01   3.2292163261054802e-01   3.1718761443904547e-01   3.2258250430130991e-01   3.1684991713729332e-01   3.2224682999172172e-01   3.1651609127191471e-01   3.2191373679880225e-01   3.1618456697910557e-01   3.2158324593446952e-01   3.1585461093375827e-01   3.2125339081364607e-01   3.1552789884245053e-01   3.2092656201175485e-01   3.1520211135087783e-01   3.2060086185123488e-01   3.1487914252461052e-01   3.2027692852506834e-01   3.1455760835772045e-01   3.1995463365770160e-01   3.1423704455204310e-01   3.1963303774999041e-01   3.1391631911487056e-01   3.1930975965840075e-01   3.1359735130560634e-01   3.1898878650292184e-01   3.1327752323857161e-01   3.1866558400864586e-01   3.1295973440260977e-01   3.1834487606629663e-01   3.1264189747890087e-01   3.1802458708553871e-01   3.1232475623152933e-01   3.1770357937851323e-01   3.1200806175968426e-01   3.1738317542887007e-01   3.1169076091415093e-01   3.1706171773227293e-01   3.1137298357567716e-01   3.1673850367969475e-01   3.1105568552089036e-01   3.1641537474629927e-01   3.1073741446045916e-01   3.1609148509136670e-01   3.1042074727646440e-01   3.1576754007012481e-01   3.1010506562558882e-01   3.1544413491797596e-01   3.0979001275821955e-01   3.1512107467337619e-01   3.0947707880029851e-01   3.1479872283598143e-01   3.0916614971948936e-01   3.1447820688822875e-01   3.0885899099470948e-01   3.1415959530486137e-01   3.0855605144322384e-01   3.1384483774378102e-01   3.0825943072124395e-01   3.1353427658005384e-01   3.0797027281466433e-01   3.1323029050839962e-01   3.0769076965636150e-01   3.1293465882913712e-01   3.0742276245153666e-01   3.1264935947576705e-01   3.0716684030432412e-01   3.1237543508052640e-01   3.0692805848432247e-01   3.1211781534374056e-01   3.0670736522478392e-01   3.1187880834441922e-01   3.0650515057569161e-01   3.1165794172072320e-01   3.0632165509340947e-01   3.1145665962153390e-01   3.0615745888278456e-01   3.1127466865303871e-01   3.0600902287167825e-01   3.1111079273312447e-01   3.0587579877364607e-01   3.1096132051003866e-01   3.0575428971296637e-01   3.1082442301736163e-01   3.0563540251356519e-01   3.1069056032378417e-01   3.0551943838980050e-01   3.1055501438293376e-01   3.0539364063010965e-01   3.1041088631698960e-01   3.0525460431703599e-01   3.1024869894321405e-01   3.0510127841405305e-01   3.1007066060278937e-01   3.0492955918706910e-01   3.0987223672498415e-01   3.0473659000063341e-01   3.0965049325954014e-01   3.0451898110211278e-01   3.0940199122139178e-01   3.0428036025007338e-01   3.0913287241193843e-01   3.0401773049979242e-01   3.0884155858031498e-01   3.0373295651970200e-01   3.0852766809108551e-01   3.0342745236821389e-01   3.0819380228555787e-01   3.0309635591918116e-01   3.0783648647331685e-01   3.0274270496458411e-01   3.0745908705144315e-01   3.0236612976709903e-01   3.0705863125283328e-01   3.0196535726278578e-01   3.0663701360584145e-01   3.0154216245848320e-01   3.0619188752986504e-01   3.0109481824931528e-01   3.0572486683216638e-01   3.0062750843889091e-01   3.0523692094725285e-01   3.0014127157492415e-01   3.0472966191447043e-01   2.9963970588022443e-01   3.0420760984523820e-01   2.9912631568239911e-01   3.0367356956866814e-01   2.9860879197926826e-01   3.0313562405107908e-01   2.9809117489754988e-01   3.0259964282049662e-01   2.9758220833796345e-01   3.0207458845531687e-01   2.9708623262448453e-01   3.0156750855395487e-01   2.9660934415546564e-01   3.3681195266273062e-01   3.0108235886090984e-01   2.9615295035508621e-01   3.0062397127415791e-01   2.9572179710621421e-01   3.0019226664321186e-01   2.9531316322527890e-01   2.9978793898764489e-01   2.9493049763900520e-01   2.9941003224147733e-01   2.9457011016981960e-01   2.9905835002899445e-01   2.9423220297686831e-01   2.9872782908721424e-01   2.9391325803818225e-01   2.9841831024828985e-01   2.9361255996325203e-01   2.9812627596628233e-01   2.9332760726737706e-01   2.9785001519179538e-01   2.9305638400036566e-01   2.9758624703377395e-01   2.9279774552520044e-01   2.9733476712851192e-01   2.9254873980375340e-01   2.9709099153460317e-01   2.9230946762768895e-01   2.9685606008993165e-01   2.9207795855144036e-01   2.9662646080572397e-01   2.9185041179288967e-01   2.9640257379669732e-01   2.9162936631460168e-01   2.9618113707096733e-01   2.9141177657021394e-01   2.9596540031689295e-01   2.9575153187851588e-01   3.0978928711476983e-01   3.1765398216731683e-01   3.1152294982590334e-01   3.1968170027708825e-01   3.1364948492053540e-01   3.2192542928229517e-01   3.1595870816871363e-01   3.2419672922927967e-01   3.1827615577870583e-01   3.2636029415358003e-01   3.2047468450952632e-01   3.2832605034519663e-01   3.2246977314203318e-01   3.3004575584308682e-01   3.2421653211836637e-01   3.3150202732146916e-01   3.2569998267115380e-01   3.3269855542715970e-01   3.2692222713880587e-01   3.3364887622673878e-01   3.2789863013217435e-01   3.3437590309845633e-01   3.2865348343950729e-01   3.3490621360381573e-01   3.2921078536735593e-01   3.3526467660309422e-01   3.2959653009072198e-01   3.3547726989225213e-01   3.2983594703757452e-01   3.3556695298780631e-01   3.2994968819304893e-01   3.3555338945982011e-01   3.2996078364468967e-01   3.3545642016672744e-01   3.2988417756731053e-01   3.3529004157874992e-01   3.2973584839620718e-01   3.3506769763340222e-01   3.2953112169188797e-01   3.3480262447779974e-01   3.2928000999447754e-01   3.3450266823470809e-01   3.2899390223844005e-01   3.3417831693881694e-01   3.2868069066945821e-01   3.3383506521764778e-01   3.2834610122367969e-01   3.3347810872791434e-01   3.2799683839100802e-01   3.3311231602178304e-01   3.2763601556811339e-01   3.3274011232260342e-01   3.2726774983881524e-01   3.3236468457450152e-01   3.2689522084858830e-01   3.3198815702004020e-01   3.2652069354079771e-01   3.3161276244198601e-01   3.2614590848015235e-01   3.3123876010196029e-01   3.2577239883449494e-01   3.3086814686800559e-01   3.2540073734066649e-01   3.3049961720157589e-01   3.2503166280703916e-01   3.3013509745115077e-01   3.2466598556590148e-01   3.2977404170811592e-01   3.2430371964133869e-01   3.2941775410012070e-01   3.2394554564501321e-01   3.2906439875019783e-01   3.2359143255640627e-01   3.2871584835143181e-01   3.2324069261142263e-01   3.2836977710409582e-01   3.2289276157640151e-01   3.2802704562393187e-01   3.2254872617691949e-01   3.2768735966689988e-01   3.2220746258856131e-01   3.2735010699076617e-01   3.2186969388617664e-01   3.2701592833023563e-01   3.2153442075586453e-01   3.2668420672406612e-01   3.2120178893811574e-01   3.2635432934039105e-01   3.2086983786685475e-01   3.2602467916288635e-01   3.2054091254628636e-01   3.2569826378227362e-01   3.2021316635515168e-01   3.2537133966741405e-01   3.1988721324518166e-01   3.2504713885747644e-01   3.1956289545181848e-01   3.2472324474592507e-01   3.1923935677680348e-01   3.2439973506612779e-01   3.1891412595067836e-01   3.2407513241338759e-01   3.1859127740012211e-01   3.2375149161931832e-01   3.1826609594032124e-01   3.2342675790200726e-01   3.1794345893813197e-01   3.3349951711762243e-01   3.3652767359135605e-01   3.3321702222210120e-01   3.2310269326624652e-01   3.1762115848244665e-01   3.2277865685859264e-01   3.1729826335273142e-01   3.2245380427522607e-01   3.1697585487566865e-01   3.2213000759892862e-01   3.1665238870912760e-01   3.2180356376934599e-01   3.1632716717210951e-01   3.2147615473597502e-01   3.1600195957701499e-01   3.2114750848972556e-01   3.1567594391112613e-01   3.2081662818789053e-01   3.1534988942972547e-01   3.2048643332272997e-01   3.1502415999104832e-01   3.2015555799430723e-01   3.1469878886640790e-01   3.1982406629209958e-01   3.1437390908857626e-01   3.1949293846108168e-01   3.1405099676581144e-01   3.1916146143838464e-01   3.1372978120621492e-01   3.1883196263261226e-01   3.1341260683758632e-01   3.1850379203079571e-01   3.1309948801038467e-01   3.1818048939820059e-01   3.1279322290734346e-01   3.1786065294517518e-01   3.1249545728881156e-01   3.1754884579762832e-01   3.1220840901570263e-01   3.1724626325429495e-01   3.1193322482204411e-01   3.1695440100992611e-01   3.1167503024900012e-01   3.1667861778715400e-01   3.1143644215200905e-01   3.1642141052012634e-01   3.1121706264693677e-01   3.1618402183155814e-01   3.1101873659619167e-01   3.1596891321449222e-01   3.1084117338708356e-01   3.1577549343539763e-01   3.1068393950382706e-01   3.1560144367248144e-01   3.1054280775192222e-01   3.1544732696966099e-01   3.1041643620130349e-01   3.1530682938893917e-01   3.1029489410338523e-01   3.1517099620472100e-01   3.1017358500174114e-01   3.1503457544047386e-01   3.1004499356081278e-01   3.1488662937071599e-01   3.0989983506010088e-01   3.1471870859491674e-01   3.0973970647209309e-01   3.1453284626148748e-01   3.0955951248355940