<?xml version="1.0"?>
<VTKFile type="UnstructuredGrid"  version="0.1"  >
<UnstructuredGrid>
<Piece  NumberOfPoints="2516" NumberOfCells="4793">
<Points>
<DataArray  type="Float64"  NumberOfComponents="3"  format="ascii">0 0 0  0.008260869565217391 0 0  0.008260869565217391 0.008333333333333333 0  0 0.008333333333333333 0  0.01652173913043478 0 0  0.01652173913043478 0.008333333333333333 0  0.02478260869565217 0 0  0.02478260869565217 0.008333333333333333 0  0.03304347826086956 0 0  0.03304347826086956 0.008333333333333333 0  0.04130434782608695 0 0  0.04130434782608695 0.008333333333333333 0  0.04956521739130434 0 0  0.04956521739130434 0.008333333333333333 0  0.05782608695652174 0 0  0.05782608695652174 0.008333333333333333 0  0.06608695652173913 0 0  0.06608695652173913 0.008333333333333333 0  0.07434782608695652 0 0  0.07434782608695652 0.008333333333333333 0  0.08260869565217391 0 0  0.08260869565217391 0.008333333333333333 0  0.0908695652173913 0 0  0.0908695652173913 0.008333333333333333 0  0.09913043478260869 0 0  0.09913043478260869 0.008333333333333333 0  0.1073913043478261 0 0  0.1073913043478261 0.008333333333333333 0  0.1156521739130435 0 0  0.1156521739130435 0.008333333333333333 0  0.1239130434782609 0 0  0.1239130434782609 0.008333333333333333 0  0.1321739130434783 0 0  0.1321739130434783 0.008333333333333333 0  0.1404347826086956 0 0  0.1404347826086956 0.008333333333333333 0  0.148695652173913 0 0  0.148695652173913 0.008333333333333333 0  0.1569565217391304 0 0  0.1569565217391304 0.008333333333333333 0  0.1652173913043478 0 0  0.1652173913043478 0.008333333333333333 0  0.1734782608695652 0 0  0.1734782608695652 0.008333333333333333 0  0.1817391304347826 0 0  0.1817391304347826 0.008333333333333333 0  0.19 0 0  0.19 0.008333333333333333 0  0.1982608695652174 0 0  0.1982608695652174 0.008333333333333333 0  0.2065217391304348 0 0  0.2065217391304348 0.008333333333333333 0  0.2147826086956522 0 0  0.2147826086956522 0.008333333333333333 0  0.2230434782608696 0 0  0.2230434782608696 0.008333333333333333 0  0.2313043478260869 0 0  0.2313043478260869 0.008333333333333333 0  0.2395652173913043 0 0  0.2395652173913043 0.008333333333333333 0  0.2478260869565218 0 0  0.2478260869565218 0.008333333333333333 0  0.2560869565217391 0 0  0.2560869565217391 0.008333333333333333 0  0.2643478260869565 0 0  0.2643478260869565 0.008333333333333333 0  0.2726086956521739 0 0  0.2726086956521739 0.008333333333333333 0  0.2808695652173913 0 0  0.2808695652173913 0.008333333333333333 0  0.2891304347826087 0 0  0.2891304347826087 0.008333333333333333 0  0.2973913043478261 0 0  0.2973913043478261 0.008333333333333333 0  0.3056521739130434 0 0  0.3056521739130434 0.008333333333333333 0  0.3139130434782609 0 0  0.3139130434782609 0.008333333333333333 0  0.3221739130434783 0 0  0.3221739130434783 0.008333333333333333 0  0.3304347826086956 0 0  0.3304347826086956 0.008333333333333333 0  0.338695652173913 0 0  0.338695652173913 0.008333333333333333 0  0.3469565217391304 0 0  0.3469565217391304 0.008333333333333333 0  0.3552173913043478 0 0  0.3552173913043478 0.008333333333333333 0  0.3634782608695652 0 0  0.3634782608695652 0.008333333333333333 0  0.3717391304347826 0 0  0.3717391304347826 0.008333333333333333 0  0.3799999999999999 0 0  0.3799999999999999 0.008333333333333333 0  0.3882608695652174 0 0  0.3882608695652174 0.008333333333333333 0  0.3965217391304348 0 0  0.3965217391304348 0.008333333333333333 0  0.4047826086956521 0 0  0.4047826086956521 0.008333333333333333 0  0.4130434782608696 0 0  0.4130434782608696 0.008333333333333333 0  0.4213043478260869 0 0  0.4213043478260869 0.008333333333333333 0  0.4295652173913043 0 0  0.4295652173913043 0.008333333333333333 0  0.4378260869565217 0 0  0.4378260869565217 0.008333333333333333 0  0.4460869565217391 0 0  0.4460869565217391 0.008333333333333333 0  0.4543478260869565 0 0  0.4543478260869565 0.008333333333333333 0  0.4626086956521739 0 0  0.4626086956521739 0.008333333333333333 0  0.4708695652173913 0 0  0.4708695652173913 0.008333333333333333 0  0.4791304347826086 0 0  0.4791304347826086 0.008333333333333333 0  0.4873913043478261 0 0  0.4873913043478261 0.008333333333333333 0  0.4956521739130435 0 0  0.4956521739130435 0.008333333333333333 0  0.5039130434782608 0 0  0.5039130434782608 0.008333333333333333 0  0.5121739130434783 0 0  0.5121739130434783 0.008333333333333333 0  0.5204347826086956 0 0  0.5204347826086956 0.008333333333333333 0  0.528695652173913 0 0  0.528695652173913 0.008333333333333333 0  0.5369565217391304 0 0  0.5369565217391304 0.008333333333333333 0  0.5452173913043478 0 0  0.5452173913043478 0.008333333333333333 0  0.5534782608695652 0 0  0.5534782608695652 0.008333333333333333 0  0.5617391304347825 0 0  0.5617391304347825 0.008333333333333333 0  0.57 0 0  0.57 0.008333333333333333 0  0.5782608695652174 0 0  0.5782608695652174 0.008333333333333333 0  0.5865217391304348 0 0  0.5865217391304348 0.008333333333333333 0  0.5947826086956521 0 0  0.5947826086956521 0.008333333333333333 0  0.6030434782608696 0 0  0.6030434782608696 0.008333333333333333 0  0.6113043478260869 0 0  0.6113043478260869 0.008333333333333333 0  0.6195652173913043 0 0  0.6195652173913043 0.008333333333333333 0  0.6278260869565218 0 0  0.6278260869565218 0.008333333333333333 0  0.6360869565217391 0 0  0.6360869565217391 0.008333333333333333 0  0.6443478260869565 0 0  0.6443478260869565 0.008333333333333333 0  0.6526086956521739 0 0  0.6526086956521739 0.008333333333333333 0  0.6608695652173913 0 0  0.6608695652173913 0.008333333333333333 0  0.6691304347826087 0 0  0.6691304347826087 0.008333333333333333 0  0.677391304347826 0 0  0.677391304347826 0.008333333333333333 0  0.6856521739130435 0 0  0.6856521739130435 0.008333333333333333 0  0.6939130434782609 0 0  0.6939130434782609 0.008333333333333333 0  0.7021739130434783 0 0  0.7021739130434783 0.008333333333333333 0  0.7104347826086956 0 0  0.7104347826086956 0.008333333333333333 0  0.718695652173913 0 0  0.718695652173913 0.008333333333333333 0  0.7269565217391304 0.008333333333333333 0  0.008260869565217391 0.01666666666666667 0  0 0.01666666666666667 0  0.01652173913043478 0.01666666666666667 0  0.02478260869565217 0.01666666666666667 0  0.03304347826086956 0.01666666666666667 0  0.04130434782608695 0.01666666666666667 0  0.04956521739130434 0.01666666666666667 0  0.05782608695652174 0.01666666666666667 0  0.06608695652173913 0.01666666666666667 0  0.07434782608695652 0.01666666666666667 0  0.08260869565217391 0.01666666666666667 0  0.0908695652173913 0.01666666666666667 0  0.09913043478260869 0.01666666666666667 0  0.1073913043478261 0.01666666666666667 0  0.1156521739130435 0.01666666666666667 0  0.1239130434782609 0.01666666666666667 0  0.1321739130434783 0.01666666666666667 0  0.1404347826086956 0.01666666666666667 0  0.148695652173913 0.01666666666666667 0  0.1569565217391304 0.01666666666666667 0  0.1652173913043478 0.01666666666666667 0  0.1734782608695652 0.01666666666666667 0  0.1817391304347826 0.01666666666666667 0  0.19 0.01666666666666667 0  0.1982608695652174 0.01666666666666667 0  0.2065217391304348 0.01666666666666667 0  0.2147826086956522 0.01666666666666667 0  0.2230434782608696 0.01666666666666667 0  0.2313043478260869 0.01666666666666667 0  0.2395652173913043 0.01666666666666667 0  0.2478260869565218 0.01666666666666667 0  0.2560869565217391 0.01666666666666667 0  0.2643478260869565 0.01666666666666667 0  0.2726086956521739 0.01666666666666667 0  0.2808695652173913 0.01666666666666667 0  0.2891304347826087 0.01666666666666667 0  0.2973913043478261 0.01666666666666667 0  0.3056521739130434 0.01666666666666667 0  0.3139130434782609 0.01666666666666667 0  0.3221739130434783 0.01666666666666667 0  0.3304347826086956 0.01666666666666667 0  0.338695652173913 0.01666666666666667 0  0.3469565217391304 0.01666666666666667 0  0.3552173913043478 0.01666666666666667 0  0.3634782608695652 0.01666666666666667 0  0.3717391304347826 0.01666666666666667 0  0.3799999999999999 0.01666666666666667 0  0.3882608695652174 0.01666666666666667 0  0.3965217391304348 0.01666666666666667 0  0.4047826086956521 0.01666666666666667 0  0.4130434782608696 0.01666666666666667 0  0.4213043478260869 0.01666666666666667 0  0.4295652173913043 0.01666666666666667 0  0.4378260869565217 0.01666666666666667 0  0.4460869565217391 0.01666666666666667 0  0.4543478260869565 0.01666666666666667 0  0.4626086956521739 0.01666666666666667 0  0.4708695652173913 0.01666666666666667 0  0.4791304347826086 0.01666666666666667 0  0.4873913043478261 0.01666666666666667 0  0.4956521739130435 0.01666666666666667 0  0.5039130434782608 0.01666666666666667 0  0.5121739130434783 0.01666666666666667 0  0.5204347826086956 0.01666666666666667 0  0.528695652173913 0.01666666666666667 0  0.5369565217391304 0.01666666666666667 0  0.5452173913043478 0.01666666666666667 0  0.5534782608695652 0.01666666666666667 0  0.5617391304347825 0.01666666666666667 0  0.57 0.01666666666666667 0  0.5782608695652174 0.01666666666666667 0  0.5865217391304348 0.01666666666666667 0  0.5947826086956521 0.01666666666666667 0  0.6030434782608696 0.01666666666666667 0  0.6113043478260869 0.01666666666666667 0  0.6195652173913043 0.01666666666666667 0  0.6278260869565218 0.01666666666666667 0  0.6360869565217391 0.01666666666666667 0  0.6443478260869565 0.01666666666666667 0  0.6526086956521739 0.01666666666666667 0  0.6608695652173913 0.01666666666666667 0  0.6691304347826087 0.01666666666666667 0  0.677391304347826 0.01666666666666667 0  0.6856521739130435 0.01666666666666667 0  0.6939130434782609 0.01666666666666667 0  0.7021739130434783 0.01666666666666667 0  0.7104347826086956 0.01666666666666667 0  0.718695652173913 0.01666666666666667 0  0.7269565217391304 0.01666666666666667 0  0.7352173913043478 0.01666666666666667 0  0.008260869565217391 0.025 0  0 0.025 0  0.01652173913043478 0.025 0  0.02478260869565217 0.025 0  0.03304347826086956 0.025 0  0.04130434782608695 0.025 0  0.0495652173913043
[...]
<CellData  Scalars="rho"> 
<DataArray  type="Float64"  Name="rho"  format="ascii">2.8302501762422611e-01   0.0000000000000000e+00   3.2554035286310007e-01   0.0000000000000000e+00   3.6152803771301389e-01   5.0146538185895720e-02   3.4828428131792594e-01   1.0065004658745894e-01   3.5952629051068596e-01   1.1033463330659340e-01   3.7814730048649453e-01   1.6095227320176639e-01   3.9127679245537572e-01   1.9210043855342349e-01   3.9926304316814426e-01   2.1412452288213848e-01   4.0318460073057488e-01   2.2885334580966352e-01   4.0956579463228326e-01   2.4373052090767255e-01   4.1989481545377488e-01   2.2268741647605728e-01   4.0998254755205910e-01   2.3931296027664231e-01   4.1712170615512334e-01   2.5422270426708177e-01   4.1617837426222831e-01   2.6514996789775430e-01   4.1919596997188213e-01   2.7470276586111747e-01   4.1698640937339176e-01   2.8072676358989701e-01   4.1541381690516910e-01   2.8649754104270547e-01   4.1488369739834108e-01   2.9331351369083786e-01   4.1425612442169857e-01   2.9823751132672444e-01   4.1259638449433966e-01   3.0076744365168762e-01   4.0931363203249493e-01   3.0230768888605730e-01   4.1077192511788496e-01   3.0380548156186854e-01   4.1290305157050367e-01   3.0307946384420659e-01   4.1530666809741512e-01   2.8956920474862141e-01   4.1332534741291999e-01   2.8947031530819384e-01   4.1541568536863510e-01   2.9240208812906532e-01   4.1523358250803638e-01   2.9469462550392012e-01   4.1294814508518440e-01   2.9612697814704814e-01   4.1207624612597415e-01   2.9475025926544784e-01   4.0901769788712639e-01   2.9252946617267106e-01   4.0524986704111166e-01   2.9066192782063255e-01   4.0499164582862412e-01   2.9202278575746726e-01   4.0483261202461868e-01   2.9093279122050614e-01   4.0355202457320705e-01   2.8859664002168711e-01   4.0157638595619449e-01   2.8577443138837932e-01   3.9931283568931569e-01   2.8273606674960583e-01   3.9793048776102558e-01   2.8025319162018875e-01   3.9815275049134985e-01   2.7923228066470224e-01   3.9921980338476659e-01   2.7968026400711316e-01   3.9646856551797105e-01   2.7814123472347202e-01   3.9395455579603045e-01   2.6899447148728184e-01   3.9153350609662541e-01   2.6546900543003554e-01   3.8665123076516222e-01   2.6173858196283917e-01   3.7891123070784760e-01   2.5176419374642311e-01   3.6870532654677907e-01   2.3526493614003630e-01   3.5441822448508503e-01   2.3359643253723791e-01   3.4930946500247329e-01   2.2897495842241120e-01   3.3980735265041295e-01   2.2202483371563192e-01   3.2603657102654826e-01   2.4137032477426190e-01   3.2285525498100159e-01   2.2560261588118102e-01   3.1166454610632444e-01   2.0275991618606745e-01   3.1234350812724254e-01   1.9700661555172785e-01   3.0361832927502203e-01   2.0746370659243962e-01   3.0916259619665365e-01   1.9812498967643552e-01   3.0517581872524624e-01   1.7758332059795198e-01   2.9750558822047352e-01   1.7178568826709847e-01   3.0027085770185380e-01   1.6549494610131490e-01   3.1565147107932812e-01   1.6512495399837362e-01   3.0934924845133210e-01   1.2264923404992743e-01   3.0586797428871121e-01   1.1290732326565737e-01   3.0796705164163357e-01   1.2722081393424625e-01   3.0865242784887431e-01   1.2386348808662510e-01   3.0552917466582741e-01   1.1523450352678130e-01   3.0954583189136403e-01   1.0682220431347302e-01   3.0785554560177297e-01   9.9830768204282050e-02   3.0673280200914099e-01   9.4925930937361486e-02   3.0468987401114378e-01   8.9650783515505816e-02   3.1272051062030654e-01   8.0417158434179681e-02   3.1149738473668581e-01   6.3672119069031211e-02   3.1076484471346077e-01   5.4571893771121385e-02   3.1086280512798303e-01   4.9796891197750971e-02   3.0055892183335176e-01   5.9115326580646992e-02   3.0183245989186736e-01   6.9041249341618136e-02   3.0583929566300821e-01   7.0911705498221206e-02   3.0565036687536079e-01   6.1077472891284644e-02   3.0694323810472157e-01   5.9664574047351475e-02   3.0527336520531756e-01   5.8907933481614570e-02   5.8800964712528832e-02   0.0000000000000000e+00   0.0000000000000000e+00   0.0000000000000000e+00   0.0000000000000000e+00   0.0000000000000000e+00   0.0000000000000000e+00   0.0000000000000000e+00   0.0000000000000000e+00   0.0000000000000000e+00   0.0000000000000000e+00   0.0000000000000000e+00   0.0000000000000000e+00   0.0000000000000000e+00   0.0000000000000000e+00   0.0000000000000000e+00   0.0000000000000000e+00   0.0000000000000000e+00   0.0000000000000000e+00   0.0000000000000000e+00   0.0000000000000000e+00   0.0000000000000000e+00   0.0000000000000000e+00   0.0000000000000000e+00   0.0000000000000000e+00   0.0000000000000000e+00   0.0000000000000000e+00   0.0000000000000000e+00   0.0000000000000000e+00   0.0000000000000000e+00   0.0000000000000000e+00   0.0000000000000000e+00   0.0000000000000000e+00   0.0000000000000000e+00   0.0000000000000000e+00   0.0000000000000000e+00   0.0000000000000000e+00   0.0000000000000000e+00   0.0000000000000000e+00   0.0000000000000000e+00   0.0000000000000000e+00   0.0000000000000000e+00   0.0000000000000000e+00   0.0000000000000000e+00   0.0000000000000000e+00   0.0000000000000000e+00   0.0000000000000000e+00   0.0000000000000000e+00   0.0000000000000000e+00   0.0000000000000000e+00   0.0000000000000000e+00   0.0000000000000000e+00   0.0000000000000000e+00   0.0000000000000000e+00   0.0000000000000000e+00   0.0000000000000000e+00   0.0000000000000000e+00   0.0000000000000000e+00   0.0000000000000000e+00   5.4257565403541326e-02   0.0000000000000000e+00   1.3666776444390705e-01   0.0000000000000000e+00   1.6809941427573871e-01   0.0000000000000000e+00   1.8109842334195045e-01   0.0000000000000000e+00   2.4632520357482263e-01   0.0000000000000000e+00   2.8262319511566081e-01   5.6452836379236516e-02   3.1310953544546111e-01   1.0015871099642423e-01   3.4669278018247085e-01   1.2567269357847272e-01   3.5244619006894701e-01   1.5793834608286930e-01   3.3611723790502079e-01   2.0699855082050925e-01   3.4896847306084428e-01   2.3821259747403245e-01   3.6041594670435811e-01   2.5939905834788463e-01   3.7122318488895534e-01   2.7655538344146713e-01   3.8459275725928749e-01   2.5499703223899861e-01   3.9367559350349379e-01   2.6858358404717469e-01   3.8200921844259933e-01   2.9013031622506152e-01   3.8300560811541556e-01   3.0093467316075007e-01   3.8564625240072598e-01   3.1195519114109244e-01   3.8755298191916665e-01   3.1845030858082896e-01   3.9202619082070961e-01   3.2485062277722920e-01   3.9610047536076165e-01   3.2039345029124333e-01   3.9515061737201140e-01   3.2381358547565664e-01   3.9454929197818328e-01   3.2436810111715392e-01   3.9499474620568242e-01   3.2724189915066643e-01   3.9157108844972355e-01   3.3009412571207347e-01   3.9241148062175968e-01   3.2962488124090861e-01   3.9125199284701662e-01   3.2922507443671140e-01   3.9295949168273697e-01   3.2868636911260862e-01   3.8912311588526788e-01   3.2736389045940822e-01   3.8681394657628626e-01   3.2788338024064478e-01   3.8648392138368082e-01   3.3005938502122734e-01   3.8628507763810721e-01   3.3178432620217779e-01   3.8659121631064025e-01   3.3210753448007424e-01   3.8453709617149406e-01   3.2989333656868558e-01   3.8102860625237100e-01   3.2705001592691446e-01   3.7896111286238293e-01   3.2989512261162618e-01   3.7913356525690356e-01   3.2690131269923522e-01   3.7868087603400258e-01   3.2557360514371886e-01   3.7721595195836310e-01   3.2375725985771270e-01   3.7496150587231880e-01   3.2118686504577992e-01   3.7245458010334287e-01   3.1818671564425199e-01   3.7028027393180302e-01   3.1510904180380078e-01   3.7185091037198836e-01   3.1460537637360725e-01   3.8050319095286889e-01   3.2489541607909156e-01   3.7383063165873853e-01   3.1105676239923380e-01   3.7025947117949987e-01   3.1167290886398236e-01   3.6877813608613408e-01   3.1019198217494232e-01   3.6683208465339112e-01   3.0589232793544241e-01   3.5949454747859227e-01   2.9673750265628562e-01   3.3202917001270188e-01   2.7159637959215682e-01   3.3164152235146355e-01   2.6861410552460441e-01   3.2655813163864650e-01   2.5659132881235780e-01   3.2155029410621200e-01   2.5137173311881239e-01   3.1995821767827054e-01   2.3853774927013027e-01   3.2191897280502757e-01   2.3472521605474556e-01   3.0525119259557604e-01   2.0409276318528813e-01   2.9315779342457565e-01   2.5575517635504569e-01   2.9444904772789365e-01   2.0484743444670667e-01   2.8038131444779085e-01   2.1868174353501693e-01   2.8248364127362285e-01   2.0957806466628234e-01   2.8463472101203346e-01   1.9493612378267972e-01   2.9086041657920469e-01   1.7872696182132503e-01   3.3379037750806878e-01   1.4985455169651415e-01   3.3484013975142801e-01   0.0000000000000000e+00   3.2747662617622431e-01   0.0000000000000000e+00   3.2160157279390883e-01   0.0000000000000000e+00   3.1823594044480824e-01   0.0000000000000000e+00   3.1662687951353002e-01   0.0000000000000000e+00   3.1505177260684092e-01   0.0000000000000000e+00   3.1379265933637823e-01   0.0000000000000000e+00   3.1356221321822575e-01   0.0000000000000000e+00   3.1019301450620529e-01   0.0000000000000000e+00   3.1220348252167568e-01   0.0000000000000000e+00   3.1116173092766225e-01   0.0000000000000000e+00   3.0997726285960803e-01   0.0000000000000000e+00   3.1208828631332114e-01   0.0000000000000000e+00   3.0844156267668360e-01   0.0000000000000000e+00   3.0819594126873640e-01   0.0000000000000000e+00   3.0959391806953862e-01   0.0000000000000000e+00   3.0901891652216629e-01   0.0000000000000000e+00   3.0809759170583240e-01   0.0000000000000000e+00   3.0765223424692822e-01   0.0000000000000000e+00   3.0754088561895732e-01   0.0000000000000000e+00   0.0000000000000000e+00   0.0000000000000000e+00   0.0000000000000000e+00   0.0000000000000000e+00   0.0000000000000000e+00   0.0000000000000000e+00   0.0000000000000000e+00   0.0000000000000000e+00   0.0000000000000000e+00   0.0000000000000000e+00   0.0000000000000000e+00   0.0000000000000000e+00   0.0000000000000000e+00   0.0000000000000000e+00   0.0000000000000000e+00   0.0000000000000000e+00   0.0000000000000000e+00   0.0000000000000000e+00   0.0000000000000000e+00   0.0000000000000000e+00   0.0000000000000000e+00   0.0000000000000000e+00   0.0000000000000000e+00   0.0000000000000000e+00   0.0000000000000000e+00   0.0000000000000000e+00   0.0000000000000000e+00   0.0000000000000000e+00   0.0000000000000000e+00   0.0000000000000000e+00   0.0000000000000000e+00   0.0000000000000000e+00   0.0000000000000000e+00   0.0000000000000000e+00   0.0000000000000000e+00   0.0000000000000000e+00   0.0000000000000000e+00   0.0000000000000000e+00   0.0000000000000000e+00   0.0000000000000000e+00   0.0000000000000000e+00   0.0000000000000000e+00   0.0000000000000000e+00   0.0000000000000000e+00   0.0000000000000000e+00   0.0000000000000000e+00   0.0000000000000000e+00   0.0000000000000000e+00   0.0000000000000000e+00   0.0000000000000000e+00   0.0000000000000000e+00   0.0000000000000000e+00   0.0000000000000000e+00   0.0000000000000000e+00   0.0000000000000000e+00   0.0000000000000000e+00   0.0000000000000000e+00   0.0000000000000000e+00   0.0000000000000000e+00   0.0000000000000000e+00   0.0000000000000000e+00   6.2189532224672425e-02   0.0000000000000000e+00   1.1281870401300849e-01   0.0000000000000000e+00   1.8587445466048416e-01   4.4198793595725580e-02   1.9629613073047891e-01   0.0000000000000000e+00   2.1447522864296292e-01   1.4565853023035749e-01   2.4912647063766996e-01   1.7664407881930458e-01   2.7337538217332119e-01   2.1213582941079995e-01   2.9426510030240810e-01   2.3023126247927994e-01   3.1120020489713851e-01   2.5454532985611261e-01   3.0168965745392001e-01   2.9241680904268302e-01   3.2757544321295895e-01   2.8717352663657675e-01   3.3259471879972563e-01   3.0585701928836562e-01   3.4135041118119891e-01   3.1206336859423012e-01   3.4652859201424285e-01   3.2531815739230585e-01   3.4662562138925057e-01   3.3754212767907588e-01   3.5279029449228183e-01   3.3743905689052944e-01   3.5592359601263207e-01   3.4621980730231910e-01   3.5731551583201410e-01   3.4840552279387405e-01   3.5634984893603788e-01   3.5352985809473519e-01   3.6056249852359645e-01   3.5922950460276354e-01   3.5685636131866622e-01   3.6330565818589405e-01   3.6114334487305233e-01   3.6380291600132308e-01   3.5980738735889661e-01   3.6098375882317379e-01   3.5744270978197573e-01   3.7338126921433451e-01   3.5946068456808761e-01   3.6600432763490215e-01   3.5899655603061092e-01   3.6561294325123328e-01   3.5833846872776520e-01   3.6553181179687960e-01   3.5632367028768952e-01   3.6529228007520187e-01   3.5285152280117699e-01   3.6422582228680939e-01   3.5075650296495092e-01   3.6394421200299304e-01   3.5086092956574111e-01   3.6433202780687263e-01   3.5248869186469378e-01   3.6430232396280449e-01   3.5574660359563381e-01   3.6346254040964215e-01   3.6039687558257927e-01   3.5341666714932940e-01   3.4865836769838515e-01   3.5694497712290330e-01   3.4721114916880630e-01   3.5894026710117366e-01   3.4628132465423650e-01   3.5903544824650252e-01   3.4532481799532500e-01   3.5812247436254746e-01   3.4371318474051088e-01   3.5622412766179690e-01   3.4145542263369988e-01   3.5369616435425172e-01   3.3803153259153185e-01   3.5068248267339358e-01   3.3092304565373615e-01   3.4592331998193832e-01   3.1928842691170745e-01   3.3715932718558406e-01   2.7160183583991732e-01   4.3383669373884953e-01   2.7199549442702431e-01   4.2108200844322846e-01   2.8010343722027320e-01   4.0996612594516041e-01   2.9052320192771008e-01   4.0313690864086443e-01   3.0329097150862411e-01   3.9843283538673457e-01   3.1706042895062730e-01   3.8960980767554776e-01   2.8823180496722334e-01   3.0237741514041827e-01   3.2790463567994699e-01   2.9300775138387392e-01   3.7300258149552940e-01   1.9532033247381725e-01   3.7002633663103435e-01   1.9254061891293250e-01   3.4712511045499422e-01   1.9059203978556088e-01   3.5831611657873974e-01   1.8513888457165606e-01   2.5225674975192125e-01   2.2260192897834341e-01   2.6651219705301599e-01   2.3467870227418738e-01   2.5315387293061103e-01   2.3764287168750370e-01   2.5151424242339582e-01   2.4049429839711911e-01   2.4528653629412814e-01   2.4558792578313271e-01   2.3690573448640639e-01   2.4253893609926963e-01   2.1263974191142387e-01   2.4852668923191465e-01   2.6186132970209264e-01   2.4431861497909671e-01   2.5620477927247892e-01   2.2728045635774119e-01   2.5200500207497895e-01   2.2764132266905349e-01   2.4937920181235387e-01   2.2268721245702483e-01   2.4943977737774439e-01   2.1858123508615168e-01   2.4849770947982755e-01   2.1485094807675301e-01   2.4842250438371508e-01   2.1263332897859075e-01   2.4891215830361768e-01   2.1113973442175513e-01   2.4804916767130486e-01   2.0932122729052005e-01   2.4848539338231024e-01   2.0712680434022909e-01   2.4913963080417584e-01   2.0585363983765145e-01   2.4972179090597252e-01   2.0414928441427979e-01   2.5210485797516435e-01   2.0253642403402652e-01   2.5299198693704439e-01   2.0033791176956475e-01   2.5294360464528176e-01   1.9654110689084467e-01   2.5361357314679439e-01   1.9428564603788823e-01   2.5350829544050263e-01   1.9266536961443009e-01   2.5323950959826130e-01   1.9166530345495483e-01   2.5345342532830328e-01   1.9076034678237630e-01   2.5389932979152247e-01   1.8969981289742985e-01   2.5459339840912987e-01   1.8870217699603939e-01   2.5639098043273623e-01   1.8920714724362186e-01   1.9233374625188926e-01   0.0000000000000000e+00   0.0000000000000000e+00   0.0000000000000000e+00   0.0000000000000000e+00   0.0000000000000000e+00   0.0000000000000000e+00   0.0000000000000000e+00   0.0000000000000000e+00   0.0000000000000000e+00   0.0000000000000000e+00   0.0000000000000000e+00   0.0000000000000000e+00   0.0000000000000000e+00   0.0000000000000000e+00   0.0000000000000000e+00   0.0000000000000000e+00   0.0000000000000000e+00   0.0000000000000000e+00   0.0000000000000000e+00   0.0000000000000000e+00   0.0000000000000000e+00   0.0000000000000000e+00   0.0000000000000000e+00   0.0000000000000000e+00   0.0000000000000000e+00   0.0000000000000000e+00   0.0000000000000000e+00   0.0000000000000000e+00   0.0000000000000000e+00   0.0000000000000000e+00   0.0000000000000000e+00   0.0000000000000000e+00   0.0000000000000000e+00   0.0000000000000000e+00   0.0000000000000000e+00   0.0000000000000000e+00   0.0000000000000000e+00   0.0000000000000000e+00   0.0000000000000000e+00   0.0000000000000000e+00   0.0000000000000000e+00   0.0000000000000000e+00   0.0000000000000000e+00   0.0000000000000000e+00   0.0000000000000000e+00   0.0000000000000000e+00   0.0000000000000000e+00   0.0000000000000000e+00   0.0000000000000000e+00   0.0000000000000000e+00   0.0000000000000000e+00   0.0000000000000000e+00   0.0000000000000000e+00   0.0000000000000000e+00   0.0000000000000000e+00   0.0000000000000000e+00   0.0000000000000000e+00   0.0000000000000000e+00   0.0000000000000000e+00   0.0000000000000000e+00   0.0000000000000000e+00   0.0000000000000000e+00   3.0171891348389754e-02   3.3818370244560358e-02   1.3085331857307173e-01   6.6951279840797406e-02   2.1513534402647977e-01   6.0547297413574057e-02   2.5423906504935062e-01   0.0000000000000000e+00   3.0066565498521702e-01   0.0000000000000000e+00   3.3572491466010262e-01   0.0000000000000000e+00   3.6261964194780227e-01   0.0000000000000000e+00   3.8030472736073800e-01   0.0000000000000000e+00   3.6424585773930540e-01   6.0530326572975246e-02   3.3036922307008926e-01   2.1534108668276636e-01   2.8619450141567154e-01   3.0114275717786926e-01   2.6986224042645207e-01   3.7069153325245868e-01   2.7502483704599656e-01   3.7561584117055757e-01   2.7038137934564060e-01   3.9675872597863249e-01   2.5829628550377204e-01   4.1643454136248209e-01   2.4012315767695108e-01   4.3374729058112216e-01   2.2550000160470896e-01   4.4890251555217880e-01   2.1104010136163476e-01   4.5937415117832536e-01   1.9854700411321996e-01   4.6778784294240522e-01   1.6201458027839549e-01   4.7079548456628734e-01   1.3112352028121060e-01   4.7522740822746840e-01   1.4366028878137130e-01   4.7357743177842493e-01   1.6397844604439973e-01   4.8321307368875061e-01   1.6223895963119894e-01   4.8827557465860172e-01   1.6128605963735332e-01   4.8615315777777235e-01   1.6101536598821517e-01   4.8335855916922221e-01   1.6085601781263950e-01   4.8143465479626008e-01   1.6073648706656002e-01   4.7928176684750012e-01   1.6059864739915930e-01   4.7689723009501278e-01   1.6064152597997150e-01   4.7543154205088489e-01   1.6073613339789233e-01   4.7545996483217856e-01   1.5985413922087127e-01   4.7588635941703844e-01   1.6177583285020553e-01   4.7713393928077624e-01   1.6145870833778944e-01   4.7490347712428466e-01   1.6129967066770745e-01   4.7147916076475355e-01   1.6166144242561087e-01   4.7062862089520263e-01   1.6203824452456855e-01   4.6981122400385578e-01   1.6230211784286291e-01   4.6809304225488513e-01   1.6234044928905686e-01   4.6504509462180071e-01   1.6206417070605428e-01   4.6138299214136785e-01   1.6141578730639231e-01   4.5914480984882228e-01   1.6083035641358756e-01   4.6149475833120457e-01   1.6164771621837065e-01   4.4758268892160369e-01   1.6271047732494287e-01   4.6544896969916638e-01   1.6269011920600696e-01   4.6422259949900485e-01   1.6319810784564759e-01   4.6001162630826942e-01   1.6549983929523396e-01   4.5951987899559432e-01   1.7306639066974774e-01   4.6838910366081182e-01   2.0056509456942118e-01   4.9799517655110087e-01   2.4104824776116579e-01   2.9626494398680531e-01   2.6728046029329777e-01   3.1418159138233481e-01   2.6472132158564393e-01   3.1463384096409641e-01   2.6412400442155670e-01   3.1818213525036587e-01   2.3614542502250704e-01   3.0012724377495631e-01   2.4308559187257733e-01   3.0456293706288334e-01   2.4442084020950630e-01   2.8059277026452073e-01   2.3365528489661497e-01   2.6970239684231762e-01   2.3351190104055095e-01   2.6731168487778678e-01   2.2746613036059182e-01   2.6703983825721522e-01   2.1805860379296543e-01   2.6526812282513612e-01   2.1025206439326330e-01   2.6309950117791980e-01   2.2401980649898717e-01   2.5410778911187315e-01   2.3240962726760864e-01   2.5875275806675474