<?xml version="1.0"?>
<VTKFile type="UnstructuredGrid"  version="0.1"  >
<UnstructuredGrid>
<Piece  NumberOfPoints="2425" NumberOfCells="4649">
<Points>
<DataArray  type="Float64"  NumberOfComponents="3"  format="ascii">2.329565217391304 0 0  2.337826086956521 0 0  2.337826086956521 0.008333333333333333 0  2.329565217391304 0.008333333333333333 0  2.346086956521739 0 0  2.346086956521739 0.008333333333333333 0  2.354347826086956 0 0  2.354347826086956 0.008333333333333333 0  2.362608695652174 0 0  2.362608695652174 0.008333333333333333 0  2.370869565217391 0 0  2.370869565217391 0.008333333333333333 0  2.379130434782609 0 0  2.379130434782609 0.008333333333333333 0  2.387391304347826 0 0  2.387391304347826 0.008333333333333333 0  2.395652173913044 0 0  2.395652173913044 0.008333333333333333 0  2.403913043478261 0 0  2.403913043478261 0.008333333333333333 0  2.412173913043478 0 0  2.412173913043478 0.008333333333333333 0  2.420434782608695 0 0  2.420434782608695 0.008333333333333333 0  2.428695652173913 0 0  2.428695652173913 0.008333333333333333 0  2.43695652173913 0 0  2.43695652173913 0.008333333333333333 0  2.445217391304348 0 0  2.445217391304348 0.008333333333333333 0  2.453478260869565 0 0  2.453478260869565 0.008333333333333333 0  2.461739130434782 0 0  2.461739130434782 0.008333333333333333 0  2.47 0 0  2.47 0.008333333333333333 0  2.478260869565217 0 0  2.478260869565217 0.008333333333333333 0  2.486521739130435 0 0  2.486521739130435 0.008333333333333333 0  2.494782608695652 0 0  2.494782608695652 0.008333333333333333 0  2.503043478260869 0 0  2.503043478260869 0.008333333333333333 0  2.511304347826087 0 0  2.511304347826087 0.008333333333333333 0  2.519565217391305 0 0  2.519565217391305 0.008333333333333333 0  2.527826086956522 0 0  2.527826086956522 0.008333333333333333 0  2.536086956521739 0 0  2.536086956521739 0.008333333333333333 0  2.544347826086956 0 0  2.544347826086956 0.008333333333333333 0  2.552608695652174 0 0  2.552608695652174 0.008333333333333333 0  2.560869565217391 0 0  2.560869565217391 0.008333333333333333 0  2.569130434782608 0 0  2.569130434782608 0.008333333333333333 0  2.577391304347826 0 0  2.577391304347826 0.008333333333333333 0  2.585652173913043 0 0  2.585652173913043 0.008333333333333333 0  2.593913043478261 0 0  2.593913043478261 0.008333333333333333 0  2.602173913043478 0 0  2.602173913043478 0.008333333333333333 0  2.610434782608696 0 0  2.610434782608696 0.008333333333333333 0  2.337826086956521 0.01666666666666667 0  2.346086956521739 0.01666666666666667 0  2.354347826086956 0.01666666666666667 0  2.362608695652174 0.01666666666666667 0  2.370869565217391 0.01666666666666667 0  2.379130434782609 0.01666666666666667 0  2.387391304347826 0.01666666666666667 0  2.395652173913044 0.01666666666666667 0  2.403913043478261 0.01666666666666667 0  2.412173913043478 0.01666666666666667 0  2.420434782608695 0.01666666666666667 0  2.428695652173913 0.01666666666666667 0  2.43695652173913 0.01666666666666667 0  2.445217391304348 0.01666666666666667 0  2.453478260869565 0.01666666666666667 0  2.461739130434782 0.01666666666666667 0  2.47 0.01666666666666667 0  2.478260869565217 0.01666666666666667 0  2.486521739130435 0.01666666666666667 0  2.494782608695652 0.01666666666666667 0  2.503043478260869 0.01666666666666667 0  2.511304347826087 0.01666666666666667 0  2.519565217391305 0.01666666666666667 0  2.527826086956522 0.01666666666666667 0  2.536086956521739 0.01666666666666667 0  2.544347826086956 0.01666666666666667 0  2.552608695652174 0.01666666666666667 0  2.560869565217391 0.01666666666666667 0  2.569130434782608 0.01666666666666667 0  2.577391304347826 0.01666666666666667 0  2.585652173913043 0.01666666666666667 0  2.593913043478261 0.01666666666666667 0  2.602173913043478 0.01666666666666667 0  2.610434782608696 0.01666666666666667 0  2.346086956521739 0.025 0  2.354347826086956 0.025 0  2.362608695652174 0.025 0  2.370869565217391 0.025 0  2.379130434782609 0.025 0  2.387391304347826 0.025 0  2.395652173913044 0.025 0  2.403913043478261 0.025 0  2.412173913043478 0.025 0  2.420434782608695 0.025 0  2.428695652173913 0.025 0  2.43695652173913 0.025 0  2.445217391304348 0.025 0  2.453478260869565 0.025 0  2.461739130434782 0.025 0  2.47 0.025 0  2.478260869565217 0.025 0  2.486521739130435 0.025 0  2.494782608695652 0.025 0  2.503043478260869 0.025 0  2.511304347826087 0.025 0  2.519565217391305 0.025 0  2.527826086956522 0.025 0  2.536086956521739 0.025 0  2.544347826086956 0.025 0  2.552608695652174 0.025 0  2.560869565217391 0.025 0  2.569130434782608 0.025 0  2.577391304347826 0.025 0  2.585652173913043 0.025 0  2.593913043478261 0.025 0  2.602173913043478 0.025 0  2.610434782608696 0.025 0  2.618695652173913 0.025 0  2.354347826086956 0.03333333333333333 0  2.362608695652174 0.03333333333333333 0  2.370869565217391 0.03333333333333333 0  2.379130434782609 0.03333333333333333 0  2.387391304347826 0.03333333333333333 0  2.395652173913044 0.03333333333333333 0  2.403913043478261 0.03333333333333333 0  2.412173913043478 0.03333333333333333 0  2.420434782608695 0.03333333333333333 0  2.428695652173913 0.03333333333333333 0  2.43695652173913 0.03333333333333333 0  2.445217391304348 0.03333333333333333 0  2.453478260869565 0.03333333333333333 0  2.461739130434782 0.03333333333333333 0  2.47 0.03333333333333333 0  2.478260869565217 0.03333333333333333 0  2.486521739130435 0.03333333333333333 0  2.494782608695652 0.03333333333333333 0  2.503043478260869 0.03333333333333333 0  2.511304347826087 0.03333333333333333 0  2.519565217391305 0.03333333333333333 0  2.527826086956522 0.03333333333333333 0  2.536086956521739 0.03333333333333333 0  2.544347826086956 0.03333333333333333 0  2.552608695652174 0.03333333333333333 0  2.560869565217391 0.03333333333333333 0  2.569130434782608 0.03333333333333333 0  2.577391304347826 0.03333333333333333 0  2.585652173913043 0.03333333333333333 0  2.593913043478261 0.03333333333333333 0  2.602173913043478 0.03333333333333333 0  2.610434782608696 0.03333333333333333 0  2.618695652173913 0.03333333333333333 0  2.62695652173913 0.03333333333333333 0  2.362608695652174 0.04166666666666666 0  2.370869565217391 0.04166666666666666 0  2.379130434782609 0.04166666666666666 0  2.387391304347826 0.04166666666666666 0  2.395652173913044 0.04166666666666666 0  2.403913043478261 0.04166666666666666 0  2.412173913043478 0.04166666666666666 0  2.420434782608695 0.04166666666666666 0  2.428695652173913 0.04166666666666666 0  2.43695652173913 0.04166666666666666 0  2.445217391304348 0.04166666666666666 0  2.453478260869565 0.04166666666666666 0  2.461739130434782 0.04166666666666666 0  2.47 0.04166666666666666 0  2.478260869565217 0.04166666666666666 0  2.486521739130435 0.04166666666666666 0  2.494782608695652 0.04166666666666666 0  2.503043478260869 0.04166666666666666 0  2.511304347826087 0.04166666666666666 0  2.519565217391305 0.04166666666666666 0  2.527826086956522 0.04166666666666666 0  2.536086956521739 0.04166666666666666 0  2.544347826086956 0.04166666666666666 0  2.552608695652174 0.04166666666666666 0  2.560869565217391 0.04166666666666666 0  2.569130434782608 0.04166666666666666 0  2.577391304347826 0.04166666666666666 0  2.585652173913043 0.04166666666666666 0  2.593913043478261 0.04166666666666666 0  2.602173913043478 0.04166666666666666 0  2.610434782608696 0.04166666666666666 0  2.618695652173913 0.04166666666666666 0  2.62695652173913 0.04166666666666666 0  2.635217391304348 0.04166666666666666 0  2.370869565217391 0.05 0  2.379130434782609 0.05 0  2.387391304347826 0.05 0  2.395652173913044 0.05 0  2.403913043478261 0.05 0  2.412173913043478 0.05 0  2.420434782608695 0.05 0  2.428695652173913 0.05 0  2.43695652173913 0.05 0  2.445217391304348 0.05 0  2.453478260869565 0.05 0  2.461739130434782 0.05 0  2.47 0.05 0  2.478260869565217 0.05 0  2.486521739130435 0.05 0  2.494782608695652 0.05 0  2.503043478260869 0.05 0  2.511304347826087 0.05 0  2.519565217391305 0.05 0  2.527826086956522 0.05 0  2.536086956521739 0.05 0  2.544347826086956 0.05 0  2.552608695652174 0.05 0  2.560869565217391 0.05 0  2.569130434782608 0.05 0  2.577391304347826 0.05 0  2.585652173913043 0.05 0  2.593913043478261 0.05 0  2.602173913043478 0.05 0  2.610434782608696 0.05 0  2.618695652173913 0.05 0  2.62695652173913 0.05 0  2.635217391304348 0.05 0  2.643478260869565 0.05 0  2.379130434782609 0.05833333333333333 0  2.387391304347826 0.05833333333333333 0  2.395652173913044 0.05833333333333333 0  2.403913043478261 0.05833333333333333 0  2.412173913043478 0.05833333333333333 0  2.420434782608695 0.05833333333333333 0  2.428695652173913 0.05833333333333333 0  2.43695652173913 0.05833333333333333 0  2.445217391304348 0.05833333333333333 0  2.453478260869565 0.05833333333333333 0  2.461739130434782 0.05833333333333333 0  2.47 0.05833333333333333 0  2.478260869565217 0.05833333333333333 0  2.486521739130435 0.05833333333333333 0  2.494782608695652 0.05833333333333333 0  2.503043478260869 0.05833333333333333 0  2.511304347826087 0.05833333333333333 0  2.519565217391305 0.05833333333333333 0  2.527826086956522 0.05833333333333333 0  2.536086956521739 0.05833333333333333 0  2.544347826086956 0.05833333333333333 0  2.552608695652174 0.05833333333333333 0  2.560869565217391 0.05833333333333333 0  2.569130434782608 0.05833333333333333 0  2.577391304347826 0.05833333333333333 0  2.585652173913043 0.05833333333333333 0  2.593913043478261 0.05833333333333333 0  2.602173913043478 0.05833333333333333 0  2.610434782608696 0.05833333333333333 0  2.618695652173913 0.05833333333333333 0  2.62695652173913 0.05833333333333333 0  2.635217391304348 0.05833333333333333 0  2.643478260869565 0.05833333333333333 0  2.651739130434783 0.05833333333333333 0  2.387391304347826 0.06666666666666667 0  2.395652173913044 0.06666666666666667 0  2.403913043478261 0.06666666666666667 0  2.412173913043478 0.06666666666666667 0  2.420434782608695 0.06666666666666667 0  2.428695652173913 0.06666666666666667 
[...]
<CellData  Scalars="rho"> 
<DataArray  type="Float64"  Name="rho"  format="ascii">3.1609822649981090e-01   3.1321842869376271e-01   3.1575038780263426e-01   3.1287921392222617e-01   3.1540388155295274e-01   3.1253502926308585e-01   3.1505498405845345e-01   3.1219097941246093e-01   3.1470846284458165e-01   3.1184651671535163e-01   3.1435769817109738e-01   3.1150254090707430e-01   3.1400846075829913e-01   3.1115656771722933e-01   3.1365605697446031e-01   3.1081102667167620e-01   3.1330721151734409e-01   3.1046363994766796e-01   3.1295214054602416e-01   3.1011430241524562e-01   3.1259964179365735e-01   3.0976490196890533e-01   3.1224280187707476e-01   3.0941508508000087e-01   3.1188862389218147e-01   3.0906414436201524e-01   3.1152975385664117e-01   3.0871345092308328e-01   3.1117603380977554e-01   3.0836068057512422e-01   3.1081481945436856e-01   3.0800687776546587e-01   3.1045716506160298e-01   3.0765174884073720e-01   3.1009454371281381e-01   3.0729771039700549e-01   3.0973519316362752e-01   3.0694107709813978e-01   3.0937080868281991e-01   3.0658586721263770e-01   3.0901143263052866e-01   3.0622766160083392e-01   3.0864484979872175e-01   3.0586902999267279e-01   3.0828187418481340e-01   3.0550895310336690e-01   3.0791394530749816e-01   3.0515013651478945e-01   3.0754957301734615e-01   3.0478870262687630e-01   3.0717982835570484e-01   3.0442870680744166e-01   3.0681555265357230e-01   3.0406577008198432e-01   3.0644339469646276e-01   3.0370232175202216e-01   3.0607628315866603e-01   3.0333738872461546e-01   3.0570190248040513e-01   3.0297412425090742e-01   3.0533384197822350e-01   3.0260743820656205e-01   3.0495803356520373e-01   3.0224399749284397e-01   3.0458983232081094e-01   3.0187579237512607e-01   3.0421219827743051e-01   3.0150804450712626e-01   3.0383908161606504e-01   3.0113773194672894e-01   3.0346032592814409e-01   3.0077079444301241e-01   3.0308637212623357e-01   3.0039911367550565e-01   3.0270601952233422e-01   3.0003176486372723e-01   3.0233272233078323e-01   2.9965869072175316e-01   3.0195005855826967e-01   2.9928665205973076e-01   3.0157213993204823e-01   2.9891182080794165e-01   3.0118890960633932e-01   2.9854044440690841e-01   3.0080914028951827e-01   2.9816455866803804e-01   3.0042454826367571e-01   2.9779184752466159e-01   3.0004501160609209e-01   2.9741488690979695e-01   2.9965793614381586e-01   2.9703758213955478e-01   2.9927503131569611e-01   2.9665905961333644e-01   2.9888633259432951e-01   2.9628227085356584e-01   2.9850253123140957e-01   2.9590246700638156e-01   2.9811260209380830e-01   2.9552530670840216e-01   2.9772917504485713e-01   2.9514443400944196e-01   2.9733725215353679e-01   2.9476315563033056e-01   2.9694947904731966e-01   2.9438054800376984e-01   2.9655643176674601e-01   2.9400022086407490e-01   2.9616796968888026e-01   2.9361641380597420e-01   2.9577361976907945e-01   2.9323569817885292e-01   2.9538637656052152e-01   2.9285083968927733e-01   2.9498979625948807e-01   2.9246619299734211e-01   2.9459830345092824e-01   2.9207977780706756e-01   2.9420119220618479e-01   2.9169580562792430e-01   2.9380819463594754e-01   2.9130849018530980e-01   2.9341007029086114e-01   2.9092351644787007e-01   2.9301770705184937e-01   2.9053538685632235e-01   2.9261752804600238e-01   2.9014673676600372e-01   2.9222180351995658e-01   2.8975723093796696e-01   2.9182023028953324e-01   2.8936910597882193e-01   2.9142363096415336e-01   2.8897852715841826e-01   2.9102102200588387e-01   2.8859039671955072e-01   2.9062539556193484e-01   2.8819896300886000e-01   2.9022102677335138e-01   2.8780723595733299e-01   2.8982134329505466e-01   2.8741426725544333e-01   2.8941612611159967e-01   2.8702368317122057e-01   2.8901619342741208e-01   2.8662984465430064e-01   2.8860992473711367e-01   2.8623948536191007e-01   2.8821156123078701e-01   2.8584488373484779e-01   2.8780360990374165e-01   2.8545085771229706e-01   2.8740135295931601e-01   2.8505520777383481e-01   2.8699337041688794e-01   2.8466206112984077e-01   2.8658970612996015e-01   2.8426581702208331e-01   2.8618153355085346e-01   2.8387260995991859e-01   2.8577820856938724e-01   2.8347575514091128e-01   2.8536777653394657e-01   2.8307893288563823e-01   2.8496318404009330e-01   2.8268145812283768e-01   2.8455335660227937e-01   2.8228491012289147e-01   2.8414347632945813e-01   2.8188724048023961e-01   2.8373357246367076e-01   2.8149160899435371e-01   2.8332818632328410e-01   2.8109427938931369e-01   2.8291464884405543e-01   2.8069329804904153e-01   2.8250895356343875e-01   2.8029494464055021e-01   2.8209293723091106e-01   2.7989675671350323e-01   2.8168444945068133e-01   2.7949578932856822e-01   2.8126897563409531e-01   2.7910138285212982e-01   2.8086563286153626e-01   2.7870049401306429e-01   2.8044888578019345e-01   2.7830070768174292e-01   2.8004141331396226e-01   2.7789933735838923e-01   2.7962477628774007e-01   2.7750227078016920e-01   2.7921461727553915e-01   2.7709982038381120e-01   2.7879954083566955e-01   2.7670436779460322e-01   2.7839133715603698e-01   2.7630268666471514e-01   2.7797556289306968e-01   2.7590217279578250e-01   2.7756531402754198e-01   2.7550115152508753e-01   2.7714910222798245e-01   2.7510185606735066e-01   2.7673692762031005e-01   2.7470047189968511e-01   2.7632135653572110e-01   2.7430264869065252e-01   2.7591158079232347e-01   2.7390186939897188e-01   2.7549514579027717e-01   2.7350118275488772e-01   2.7508379312443593e-01   2.7310035885880557e-01   2.7466668611541434e-01   2.7270130662881592e-01   2.7425518193879661e-01   2.7229989914747038e-01   2.7383895140020093e-01   2.7190354843584952e-01   2.7343016487191507e-01   2.7150280761221635e-01   2.7301412711431794e-01   2.7110397455705215e-01   2.7260344400145575e-01   2.7070374406457570e-01   2.7218814096739152e-01   2.7030706910496827e-01   2.7177679965733009e-01   2.6990720839851523e-01   2.7136278188645696e-01   2.6951191690034904e-01   2.7095427939253064e-01   2.6911339790831595e-01   2.7053918727891074e-01   2.6871617443453766e-01   2.7013077901730126e-01   2.6831789917650589e-01   2.6971530450235581e-01   2.6792223751627386e-01   2.6930774772559612e-01   2.6752420505699059e-01   2.6889689809117451e-01   2.6713056707792138e-01   2.6848212804958438e-01   2.6673416960138446e-01   3.1320496743026088e-01   3.1286582037015837e-01   3.0994452968898889e-01   3.1252157540018766e-01   3.0960518327450653e-01   3.1217747023660680e-01   3.0926670587907351e-01   3.1183297015874140e-01   3.0892785731510619e-01   3.1148892568276598e-01   3.0858838879599521e-01   3.1114296873479474e-01   3.0824730781300475e-01   3.1079737493877330e-01   3.0790654513887988e-01   3.1044997861116186e-01   3.0756259480753395e-01   3.1010057199185792e-01   3.0722003185129282e-01   3.0975115900686806e-01   3.0687602687962512e-01   3.0940127435329556e-01   3.0653174529873128e-01   3.0905034398171344e-01   3.0618614844297970e-01   3.0869958295899352e-01   3.0584071383845490e-01   3.0834682565611771e-01   3.0549334947589640e-01   3.0799294149619555e-01   3.0514596454429210e-01   3.0763781657116213e-01   3.0479702992292329e-01   3.0728370294460006e-01   3.0444841721122468e-01   3.0692710462488609e-01   3.0409749396974101e-01   3.0657181602770783e-01   3.0374762868330063e-01   3.0621363045973471e-01   3.0339543833205196e-01   3.0585491042772961e-01   3.0304357876245175e-01   3.0549484586316028e-01   3.0269064851927430e-01   3.0513595785388842e-01   3.0233745938388062e-01   3.0477455383337559e-01   3.0198219522043823e-01   3.0441449370781454e-01   3.0162814554901579e-01   3.0405156617554108e-01   3.0127123781085691e-01   3.0368804012325856e-01   3.0091534167535994e-01   3.0332310280425379e-01   3.0055757509223530e-01   3.0295976297711380e-01   3.0020040330715969e-01   3.0259312241500813e-01   2.9984047862413654e-01   3.0222960046406427e-01   2.9948236921366511e-01   3.0186143771929569e-01   2.9912188095194348e-01   3.0149358904931062e-01   2.9876182548068692e-01   3.0112330601699233e-01   2.9839998971396331e-01   3.0075627923565773e-01   2.9803903530464160e-01   3.0038467108384248e-01   2.9767514806413392e-01   3.0001722713596307e-01   2.9731301775329388e-01   2.9964419525492170e-01   2.9694865078384874e-01   2.9927204532076146e-01   2.9658431039104233e-01   2.9889726538900935e-01   2.9621936259480031e-01   2.9852579851822919e-01   2.9585376476747216e-01   2.9814998362767414e-01   2.9548641186091484e-01   2.9777718774521855e-01   2.9512007051129557e-01   2.9740025876065473e-01   2.9475125645707634e-01   2.9702285766123576e-01   2.9438309092461218e-01   2.9664436229708313e-01   2.9401372826054539e-01   2.9626748951833759e-01   2.9364438171521956e-01   2.9588774896287501e-01   2.9327303545464417e-01   2.9551050800585266e-01   2.9290293932927397e-01   2.9512967894634046e-01   2.9253099995020376e-01   2.9474831246272098e-01   2.9215933564169783e-01   2.9436573452407128e-01   2.9178641640133668e-01   2.9398533518657144e-01   2.9141414847219332e-01   2.9360159500464389e-01   2.9103941563959124e-01   2.9322080463500444e-01   2.9066623700315580e-01   2.9283598016182621e-01   2.9029097601177145e-01   2.9245124822140756e-01   2.8991602609709982e-01   2.9206487461548231e-01   2.8954041231395250e-01   2.9168083480640761e-01   2.8916458938645484e-01   2.9129358306090136e-01   2.8878701674102963e-01   2.9090854798558807e-01   2.8841070979249639e-01   2.9052044695008544e-01   2.8803178701465049e-01   2.9013172403133902e-01   2.8765411213563358e-01   2.8974224409274707e-01   2.8727502627337648e-01   2.8935405373128986e-01   2.8689651447030162e-01   2.8896353596084234e-01   2.8651584908797872e-01   2.8857534163419057e-01   2.8613690787124507e-01   2.8818395607914110e-01   2.8575587163091576e-01   2.8779215291943994e-01   2.8537562748236267e-01   2.8739922316275834e-01   2.8499396253367892e-01   2.8700857652657391e-01   2.8461344936496835e-01   2.8661481412763773e-01   2.8423025530517060e-01   2.8622438793674515e-01   2.8384923425766878e-01   2.8582983725379690e-01   2.8346591339186600e-01   2.8543572898314951e-01   2.8308343625470950e-01   2.8504013937076200e-01   2.8270031123971767e-01   2.8464693091748888e-01   2.8231743399357218e-01   2.8425077162586931e-01   2.8193248092386830e-01   2.8385751670280412e-01   2.8154973573278680e-01   2.8346070564028314e-01   2.8116315131653402e-01   2.8306380145923304e-01   2.8077882343769761e-01   2.8266638088016172e-01   2.8039427681523688e-01   2.8226977761079913e-01   2.8000949948049131e-01   2.8187219023346444e-01   2.7962384361267384e-01   2.8147651754301900e-01   2.7924013288535005e-01   2.8107920590854202e-01   2.7885186464407064e-01   2.8067816805553270e-01   2.7846868542188480e-01   2.8027985120181875e-01   2.7807848598768437e-01   2.7988159981829541e-01   2.7769582089779776e-01   2.7948073193018586e-01   2.7730644035727403e-01   2.7908627565203653e-01   2.7692327811115391e-01   2.7868545674369649e-01   2.7653410192965844e-01   2.7828557604328980e-01   2.7614971466199473e-01   2.7788432407426672e-01   2.7576196243339945e-01   2.7748718788350096e-01   2.7537711626527922e-01   2.7708486154804057e-01   2.7498861938312436e-01   2.7668936355936502e-01   2.7460407248915014e-01   2.7628775181845577e-01   2.7421506139098512e-01   2.7588716082964154e-01   2.7382961591602617e-01   2.7548622350829199e-01   2.7344285293761422e-01   2.7508688447505608e-01   2.7305710343160289e-01   2.7468558113711394e-01   2.7266940000533657e-01   2.7428773284684888e-01   2.7228449467318966e-01   2.7388700896038426e-01   2.7189701548026046e-01   2.7348628753406051e-01   2.7151228221986634e-01   2.7308552689774795e-01   2.7112554009427559e-01   2.7268644987469109e-01   2.7074135627581708e-01   2.7228512750591960e-01   2.7035443824944533e-01   2.7188875976509580e-01   2.6997086497784217e-01   2.7148808448057488e-01   2.6958486248277441e-01   2.7108922185096362e-01   2.6920135232410125e-01   2.7068907958324834e-01   2.6881706937427063e-01   2.7029240452567826e-01   2.6843402554893370e-01   2.6989261563352263e-01   2.6804959234819714e-01   2.6949733890900490e-01   2.6766776085138438e-01   2.6909885387690263e-01   2.6728410635347827e-01   2.6870162331774716e-01   2.6690257687501989e-01   2.6830340069724107e-01   2.6652040607302852e-01   2.6790773133759826e-01   2.6613901517424804e-01   2.6750979207160419e-01   2.6575758656046550e-01   2.6711620162267763e-01   2.6537787457426781e-01   2.6671987723193136e-01   2.6499631011308905e-01   3.0992162734957684e-01   3.0958230933344510e-01   3.0662439190025020e-01   3.0924378699732463e-01   3.0628914432357107e-01   3.0890489878127575e-01   3.0595621700113829e-01   3.0856535189976741e-01   3.0562060200312180e-01   3.0822424170866941e-01   3.0528681599197577e-01   3.0788341170314809e-01   3.0495034960535855e-01   3.0753946625594186e-01   3.0461471501657211e-01   3.0719685224121823e-01   3.0427592781057433e-01   3.0685283380983769e-01   3.0393891115177329e-01   3.0650848815079568e-01   3.0359976619077689e-01   3.0616287982613888e-01   3.0326112617435563e-01   3.0581736288945188e-01   3.0292102700493001e-01   3.0547001257651074e-01   3.0258113796096098e-01   3.0512255571975677e-01   3.0223874869087780e-01   3.0477360747320931e-01   3.0189745498221632e-01   3.0442491786482362e-01   3.0155416807664170e-01   3.0407400297678211e-01   3.0121153637915837e-01   3.0372405315736989e-01   3.0086660800729487e-01   3.0337188958127975e-01   3.0052300495787593e-01   3.0301996656898778e-01   3.0017594623786975e-01   3.0266702740616802e-01   2.9983106990627156e-01   3.0231376980611724e-01   2.9948350019520537e-01   3.0195850873222202e-01   2.9913691164453937e-01   3.0160439178089682e-01   2.9878847067876829e-01   3.0124750875803186e-01   2.9844097195794156e-01   3.0089154875860702e-01   2.9808998771703271e-01   3.0053376759972850e-01   2.9774098564962642e-01   3.0017652927805966e-01   2.9738971196500968e-01   2.9981661288743972e-01   2.9703904423790845e-01   2.9945842438773090e-01   2.9668753161869632e-01   2.9909799709959406e-01   2.9633610445655528e-01   2.9873786582699496e-01   2.9598177179708635e-01   2.9837604249122829e-01   2.9562931178903112e-01   2.9801500183468160e-01   2.9527474729097442e-01   2.9765115562242178e-01   2.9492118020872587e-01   2.9728893078316559e-01   2.9456521403341812e-01   2.9692462915674533e-01   2.9421090748965073e-01   2.9656022939258170e-01   2.9385251382995453e-01   2.9619528882264673e-01   2.9349718466636932e-01   2.9582963108583943e-01   2.9313901492985683e-01   2.9546230388640476e-01   2.9278198311297787e-01   2.9509589848877743e-01   2.9242257685506362e-01   2.9472713369499470e-01   2.9206473136191108e-01   2.9435892380610251e-01   2.9170293762473443e-01   2.9398955833827756e-01   2.9134405899668236e-01   2.9362016817842462e-01   2.9098232976682420e-01   2.9324883432087889e-01   2.9062184960927850e-01   2.9287868556403213e-01   2.9025985496704204e-01   2.9250680697509446e-01   2.8989860207262430e-01   2.9213510089844935e-01   2.8953450122581059e-01   2.9176219859913721e-01   2.8917248096453596e-01   2.9138987363104013e-01   2.8880823977565717e-01   2.9101518193640624e-01   2.8844528754323406e-01   2.9064193934463223e-01   2.8807984600936420e-01   2.9026674134929759e-01   2.8771635730119638e-01   2.8989176119168736e-01   2.8734914988991361e-01   2.8951616357470822e-01   2.8698489196301868e-01   2.8914030092457232e-01   2.8661785247034116e-01   2.8876276401725925e-01   2.8625231116997440e-01   2.8838641669905807e-01   2.8588443076418935e-01   2.8800755449335913e-01   2.8551844062535769e-01   2.8762985339896624e-01   2.8514866701918379e-01   2.8725078850966845e-01   2.8478199752558614e-01   2.8687224270981432e-01   2.8441231678058632e-01   2.8649161181920640e-01   2.8404452290238480e-01   2.8611263208872062e-01   2.8367505088274558e-01   2.8573167951777101e-01   2.8330682337652990e-01   2.8535140731636344e-01   2.8293561367446002e-01   2.8496978498790348e-01   2.8256684159666673e-01   2.8458922375112594e-01   2.8219574796801000e-01   2.8420609570875122e-01   2.8182645623983160e-01   2.8382502426975731e-01   2.8145454170725137e-01   2.8344179732200503e-01   2.8108515740844120e-01   2.8305930346729091e-01   2.8071181112246879e-01   2.8267622739342890e-01   2.8034207141235323e-01   2.8229331853951928e-01   2.7996914938618950e-01   2.8190842949567702e-01   2.7959847777783087e-01   2.8152565390347783e-01   2.7922529382198541e-01   2.8113915806193940e-01   2.7885454633535378e-01   2.8075483648125760e-01   2.7847990486857654e-01   2.8037034093192459e-01   2.7810824033698300e-01   2.7998557533117874e-01   2.7773563238312143e-01   2.7959999380302830e-01   2.7736300460565333e-01   2.7921624150490837e-01   2.7699044308728094e-01   2.7882811147262943e-01   2.7661861875386096e-01   2.7844483585639546e-01   2.7624337567036289e-01   2.7805476219624276e-01   2.7587163924797792e-01   2.7767202165543303e-01   2.7549739117049121e-01   2.7728278554431018e-01   2.7512606616202345e-01   2.7689952287128616e-01   2.7475126646140291e-01   2.7651053428385242e-01   2.7438022783162669e-01   2.7612611152704308e-01   2.7400491004060862e-01   2.7573849990616378e-01   2.7363427543942515e-01   2.7535359540807308e-01   2.7325978893680980e-01   2.7496523900570086e-01   2.7288860748916538e-01   2.7458064065162402e-01   2.7251407152934165e-01   2.7419179197701876e-01   2.7214333600316781e-01   2.7380635464280645e-01   2.7176814133213034e-01   2.7341970606160970e-01   2.7139785146659251e-01   2.7303396178828654e-01   2.7102399619901840e-01   2.7264634584098946e-01   2.7065304002684837e-01   2.7226144766719840e-01   2.7028093682282406e-01   2.7187410726909556e-01   2.6991018816471601e-01   2.7148939874033973e-01   2.6953794188498387e-01   2.7110276755766238e-01   2.6916786758400002e-01   2.7071859352349770e-01   2.6879647718818844e-01   2.7033177955992443e-01   2.6842689331184316e-01   2.6994821301711613e-01   2.6805621569872584e-01   2.6956235647126470e-01   2.6768759808145565e-01   2.6917889339451689e-01   2.6731707410586214e-01   2.6879473377034502e-01   2.6694952891045443e-01   2.6841172765723675e-01   2.6658019966217511e-01   2.6802741198782393e-01   2.6621294263019080e-01   2.6764562598099134e-01   2.6584473229635314e-01   2.6726211386555704e-01   2.6547862055693100e-01   2.6688064818868740e-01   2.6511046053552911e-01   2.6649857791786674e-01   2.6474509709386207e-01   2.6611725166739564e-01   2.6437848906393396e-01   2.6573591176542927e-01   2.6401316858034202e-01   2.6535631113106201e-01   2.6365118886507294e-01   2.6497493429360020e-01   2.6328838063275706e-01   2.6292225613765541e-01   3.0659112468795680e-01   3.0358760421828623e-01   3.0625578796261110e-01   3.0326073223380690e-01   3.0592280879501588e-01   3.0293288658049167e-01   3.0558714713773100e-01   3.0260509221187776e-01   3.0525331516172077e-01   3.0227625859793628e-01   3.0491681546781529e-01   3.0194761625389022e-01   3.0458116036081229e-01   3.0161682757757841e-01   3.0424231460507600e-01   3.0128719966002204e-01   3.0390526596618617e-01   3.0095468971596384e-01   3.0356607040787842e-01   3.0062348632172048e-01   3.0322740516997299e-01   3.0029049608558772e-01   3.0288724963560648e-01   2.9995801749239515e-01   3.0254733948684392e-01   2.9962410286749863e-01   3.0220488713775562e-01   2.9929044560076401e-01   3.0186356366869765e-01   2.9895482899345427e-01   3.0152022879800888e-01   2.9861992016274264e-01   3.0117758327834748e-01   2.9828329285876998e-01   3.0083260283950308e-01   2.9794711365055948e-01   3.0048898197891100e-01   2.9760923284363483e-01   3.0014186793067082e-01   2.9727205748311464e-01   2.9979696515139742e-01   2.9693260777997466e-01   2.9944936021924717e-01   2.9659418347417832e-01   2.9910277226281229e-01   2.9625408593526803e-01   2.9875429471005505e-01   2.9591448711143908e-01   2.9840678928688802e-01   2.9557337388061161e-01   2.9805573684210857e-01   2.9523300769393429e-01   2.9770672626384487e-01   2.9488983470958396e-01   2.9735539492663560e-01   2.9454814048507821e-01   2.9700476317267938e-01   2.9420499867056460e-01   2.9665319492746245e-01   2.9386216804370191e-01   2.9630178273318131e-01   2.9351816002338982