<?xml version="1.0"?>
<VTKFile type="UnstructuredGrid"  version="0.1"  >
<UnstructuredGrid>
<Piece  NumberOfPoints="4741" NumberOfCells="9202">
<Points>
<DataArray  type="Float64"  NumberOfComponents="3"  format="ascii">2.337826086956521 0 0  2.346086956521739 0 0  2.346086956521739 0.008333333333333333 0  2.354347826086956 0 0  2.354347826086956 0.008333333333333333 0  2.362608695652174 0 0  2.362608695652174 0.008333333333333333 0  2.370869565217391 0 0  2.370869565217391 0.008333333333333333 0  2.379130434782609 0 0  2.379130434782609 0.008333333333333333 0  2.387391304347826 0 0  2.387391304347826 0.008333333333333333 0  2.395652173913044 0 0  2.395652173913044 0.008333333333333333 0  2.403913043478261 0 0  2.403913043478261 0.008333333333333333 0  2.412173913043478 0 0  2.412173913043478 0.008333333333333333 0  2.420434782608695 0 0  2.420434782608695 0.008333333333333333 0  2.428695652173913 0 0  2.428695652173913 0.008333333333333333 0  2.43695652173913 0 0  2.43695652173913 0.008333333333333333 0  2.445217391304348 0 0  2.445217391304348 0.008333333333333333 0  2.453478260869565 0 0  2.453478260869565 0.008333333333333333 0  2.461739130434782 0 0  2.461739130434782 0.008333333333333333 0  2.47 0 0  2.47 0.008333333333333333 0  2.478260869565217 0 0  2.478260869565217 0.008333333333333333 0  2.486521739130435 0 0  2.486521739130435 0.008333333333333333 0  2.494782608695652 0 0  2.494782608695652 0.008333333333333333 0  2.503043478260869 0 0  2.503043478260869 0.008333333333333333 0  2.511304347826087 0 0  2.511304347826087 0.008333333333333333 0  2.519565217391305 0 0  2.519565217391305 0.008333333333333333 0  2.527826086956522 0 0  2.527826086956522 0.008333333333333333 0  2.536086956521739 0 0  2.536086956521739 0.008333333333333333 0  2.544347826086956 0 0  2.544347826086956 0.008333333333333333 0  2.552608695652174 0 0  2.552608695652174 0.008333333333333333 0  2.560869565217391 0 0  2.560869565217391 0.008333333333333333 0  2.569130434782608 0 0  2.569130434782608 0.008333333333333333 0  2.577391304347826 0 0  2.577391304347826 0.008333333333333333 0  2.585652173913043 0 0  2.585652173913043 0.008333333333333333 0  2.593913043478261 0 0  2.593913043478261 0.008333333333333333 0  2.602173913043478 0 0  2.602173913043478 0.008333333333333333 0  2.610434782608696 0 0  2.610434782608696 0.008333333333333333 0  2.618695652173913 0 0  2.618695652173913 0.008333333333333333 0  2.62695652173913 0 0  2.62695652173913 0.008333333333333333 0  2.635217391304348 0 0  2.635217391304348 0.008333333333333333 0  2.643478260869565 0 0  2.643478260869565 0.008333333333333333 0  2.651739130434783 0 0  2.651739130434783 0.008333333333333333 0  2.66 0 0  2.66 0.008333333333333333 0  2.668260869565217 0 0  2.668260869565217 0.008333333333333333 0  2.676521739130435 0 0  2.676521739130435 0.008333333333333333 0  2.684782608695652 0 0  2.684782608695652 0.008333333333333333 0  2.693043478260869 0 0  2.693043478260869 0.008333333333333333 0  2.701304347826087 0 0  2.701304347826087 0.008333333333333333 0  2.709565217391304 0 0  2.709565217391304 0.008333333333333333 0  2.717826086956522 0 0  2.717826086956522 0.008333333333333333 0  2.726086956521739 0 0  2.726086956521739 0.008333333333333333 0  2.734347826086956 0 0  2.734347826086956 0.008333333333333333 0  2.742608695652174 0 0  2.742608695652174 0.008333333333333333 0  2.750869565217391 0 0  2.750869565217391 0.008333333333333333 0  2.759130434782609 0 0  2.759130434782609 0.008333333333333333 0  2.767391304347826 0 0  2.767391304347826 0.008333333333333333 0  2.775652173913044 0 0  2.775652173913044 0.008333333333333333 0  2.783913043478261 0 0  2.783913043478261 0.008333333333333333 0  2.792173913043478 0 0  2.792173913043478 0.008333333333333333 0  2.800434782608696 0 0  2.800434782608696 0.008333333333333333 0  2.808695652173913 0 0  2.808695652173913 0.008333333333333333 0  2.81695652173913 0 0  2.81695652173913 0.008333333333333333 0  2.825217391304347 0 0  2.825217391304347 0.008333333333333333 0  2.833478260869565 0 0  2.833478260869565 0.008333333333333333 0  2.841739130434783 0 0  2.841739130434783 0.008333333333333333 0  2.85 0 0  2.85 0.008333333333333333 0  2.858260869565217 0 0  2.858260869565217 0.008333333333333333 0  2.866521739130435 0 0  2.866521739130435 0.008333333333333333 0  2.874782608695652 0 0  2.874782608695652 0.008333333333333333 0  2.88304347826087 0 0  2.88304347826087 0.008333333333333333 0  2.891304347826087 0 0  2.891304347826087 0.008333333333333333 0  2.899565217391304 0 0  2.899565217391304 0.008333333333333333 0  2.907826086956522 0 0  2.907826086956522 0.008333333333333333 0  2.916086956521739 0 0  2.916086956521739 0.008333333333333333 0  2.924347826086957 0 0  2.924347826086957 0.008333333333333333 0  2.932608695652174 0 0  2.932608695652174 0.008333333333333333 0  2.940869565217391 0 0  2.940869565217391 0.008333333333333333 0  2.949130434782608 0 0  2.949130434782608 0.008333333333333333 0  2.957391304347826 0 0  2.957391304347826 0.008333333333333333 0  2.965652173913043 0 0  2.965652173913043 0.008333333333333333 0  2.973913043478261 0 0  2.973913043478261 0.008333333333333333 0  2.982173913043478 0 0  2.982173913043478 0.008333333333333333 0  2.990434782608696 0 0  2.990434782608696 0.008333333333333333 0  2.998695652173913 0 0  2.998695652173913 0.008333333333333333 0  3.006956521739131 0 0  3.006956521739131 0.008333333333333333 0  3.015217391304348 0 0  3.015217391304348 0.008333333333333333 0  2.354347826086956 0.01666666666666667 0  2.346086956521739 0.01666666666666667 0  2.362608695652174 0.01666666666666667 0  2.370869565217391 0.01666666666666667 0  2.379130434782609 0.01666666666666667 0  2.387391304347826 0.01666666666666667 0  2.395652173913044 0.01666666666666667 0  2.403913043478261 0.01666666666666667 0  2.412173913043478 0.01666666666666667 0  2.420434782608695 0.01666666666666667 0  2.428695652173913 0.01666666666666667 0  2.43695652173913 0.01666666666666667 0  2.445217391304348 0.01666666666666667 0  2.453478260869565 0.01666666666666667 0  2.461739130434782 0.01666666666666667 0  2.47 0.01666666666666667 0  2.478260869565217 0.01666666666666667 0  2.486521739130435 0.01666666666666667 0  2.494782608695652 0.01666666666666667 0  2.503043478260869 0.01666666666666667 0  2.511304347826087 0.01666666666666667 0  2.519565217391305 0.01666666666666667 0  2.527826086956522 0.01666666666666667 0  2.536086956521739 0.01666666666666667 0  2.544347826086956 0.01666666666666667 0  2.552608695652174 0.01666666666666667 0  2.560869565217391 0.01666666666666667 0  2.569130434782608 0.01666666666666667 0  2.577391304347826 0.01666666666666667 0  2.585652173913043 0.01666666666666667 0  2.593913043478261 0.01666666666666667 0  2.602173913043478 0.01666666666666667 0  2.610434782608696 0.01666666666666667 0  2.618695652173913 0.01666666666666667 0  2.62695652173913 0.01666666666666667 0  2.635217391304348 0.01666666666666667 0  2.643478260869565 0.01666666666666667 0  2.651739130434783 0.01666666666666667 0  2.66 0.01666666666666667 0  2.668260869565217 0.01666666666666667 0  2.676521739130435 0.01666666666666667 0  2.684782608695652 0.01666666666666667 0  2.693043478260869 0.01666666666666667 0  2.701304347826087 0.01666666666666667 0  2.709565217391304 0.01666666666666667 0  2.717826086956522 0.01666666666666667 0  2.726086956521739 0.01666666666666667 0  2.734347826086956 0.01666666666666667 0  2.742608695652174 0.01666666666666667 0  2.750869565217391 0.01666666666666667 0  2.759130434782609 0.01666666666666667 0  2.767391304347826 0.01666666666666667 0  2.775652173913044 0.01666666666666667 0  2.783913043478261 0.01666666666666667 0  2.792173913043478 0.01666666666666667 0  2.800434782608696 0.01666666666666667 0  2.808695652173913 0.01666666666666667 0  2.81695652173913 0.01666666666666667 0  2.825217391304347 0.01666666666666667 0  2.833478260869565 0.01666666666666667 0  2.841739130434783 0.01666666666666667 0  2.85 0.01666666666666667 0  2.858260869565217 0.01666666666666667 0  2.866521739130435 0.01666666666666667 0  2.874782608695652 0.01666666666666667 0  2.88304347826087 0.01666666666666667 0  2.891304347826087 0.01666666666666667 0  2.899565217391304 0.01666666666666667 0  2.907826086956522 0.01666666666666667 0  2.916086956521739 0.01666666666666667 0  2.924347826086957 0.01666666666666667 0  2.932608695652174 0.01666666666666667 0  2.940869565217391 0.01666666666666667 0  2.949130434782608 0.01666666666666667 0  2.957391304347826 0.01666666666666667 0  2.965652173913043 0.01666666666666667 0  2.973913043478261 0.01666666666666667 0  2.982173913043478 0.01666666666666667 0  2.990434782608696 0.01666666666666667 0  2.998695652173913 0.01666666666666667 0  3.006956521739131 0.01666666666666667 0  3.015217391304348 0.01666666666666667 0  2.354347826086956 0.025 0  2.362608695652174 0.025 0  2.370869565217391 0.025 0  2.379130434782609 0.025 0  2.387391304347826 0.025 0  2.395652173913044 0.025 0  2.403913043478261 0.025 0  2.412173913043478 0.025 0  2.420434782608695 0.025 0  2.428695652173913 0.025 0  2.43695652173913 0.025 0  2.445217391304348 0.025 0  2.453478260869565 0.025 0  2.461739130434782 0.025 0  2.47 0.025 0  2.478260869565217 0.025 0  2.486521739130435 0.025 0  2.494782608695652 0.025 0  2.503043478260869 0.025 0  2.511304347826087 0.025 0  2.519565217391305 0.025 0  2.527826086956522 0.025 0  2.536086956521739 0.025 0  2.544347826086956 0.025 0  2.552608695652174 0.025 0  2.560869565217391 0.025 0  2.569130434782608 0.025 0  2.577391304347826 0.025 0  2.585652173913043 0.025 0  2.593913043478261 0.025 0  2.602173913043478 0.025 0  2.610434782608696 0.025 0  2.618695652173913 0.025 0  2.62695652173913 0.025 0  2.635217391304348 0.025 0  2.643478260869565 0.025 0  2.651739130434783 0.025 0  2.66 0.025 0  2.668260869565217 0.025 0  2.676521739130435 0.025 0  2.684782608695652 0.025 0  2.693043478260869 0.025 0  2.701304347826087 0.025 0  2.709565217391304 0.025 0  2.717826086956522 0.025 0  2.72608
[...]
<CellData  Scalars="rho_bar"> 
<DataArray  type="Float64"  Name="rho_bar"  format="ascii">9.9999453899333102e-01   9.9999346566860292e-01   9.9999318336342446e-01   9.9999170329172848e-01   9.9999151449877377e-01   9.9998815267409724e-01   9.9998846994083479e-01   9.9997890617551477e-01   9.9998107240516898e-01   9.9994847762471573e-01   9.9995765428343364e-01   9.9983020849146886e-01   9.9986563491729497e-01   9.9940012788477028e-01   9.9949222955497019e-01   9.9830064659630213e-01   9.9833289748831378e-01   9.9662153906967932e-01   9.9613653952333825e-01   9.9517800396592671e-01   9.9382079696705783e-01   9.9460893039731901e-01   9.9260835145108339e-01   9.9481188036107848e-01   9.9266874814588735e-01   9.9534270278906445e-01   9.9339371827422918e-01   9.9585995336577671e-01   9.9419737027202160e-01   9.9622087156416816e-01   9.9479707010626206e-01   9.9641466753785168e-01   9.9513950090734649e-01   9.9648797019415780e-01   9.9528043739366867e-01   9.9649907258271897e-01   9.9530677499679376e-01   9.9649417420764363e-01   9.9529453924107802e-01   9.9649880228572074e-01   9.9529050566942456e-01   9.9651951731878030e-01   9.9531108063462392e-01   9.9655141529882341e-01   9.9535212945755125e-01   9.9658573228564407e-01   9.9540097674962602e-01   9.9661565110641448e-01   9.9544585437428346e-01   9.9663902387804248e-01   9.9548116197056746e-01   9.9665799322518422e-01   9.9550841156507519e-01   9.9667571087023310e-01   9.9553247508011544e-01   9.9669395625042867e-01   9.9555701137909225e-01   9.9671270682005364e-01   9.9558274673069658e-01   9.9673091985519024e-01   9.9560845760698791e-01   9.9674736111087481e-01   9.9563223195670592e-01   9.9676143641941106e-01   9.9565282000377231e-01   9.9677306982113856e-01   9.9566991069280864e-01   9.9678256283199484e-01   9.9568383662120286e-01   9.9679035483265921e-01   9.9569516319308249e-01   9.9679703875197223e-01   9.9570469393672034e-01   9.9680302435094759e-01   9.9571311958164421e-01   9.9680859757825813e-01   9.9572089514290429e-01   9.9681397011128847e-01   9.9572827658215612e-01   9.9681954685624630e-01   9.9573572119975606e-01   9.9682576983255167e-01   9.9574385605458282e-01   9.9683289930997010e-01   9.9575323159406537e-01   9.9684069478683279e-01   9.9576373818743402e-01   9.9684884393855511e-01   9.9577487297964362e-01   9.9685720569628877e-01   9.9578626242643276e-01   9.9686603800069618e-01   9.9579809033922539e-01   9.9687574995286665e-01   9.9581090320184351e-01   9.9688673390960714e-01   9.9582535575313103e-01   9.9689898051775927e-01   9.9584168179445054e-01   9.9691197512129648e-01   9.9585942636263447e-01   9.9692490151516056e-01   9.9587745246515946e-01   9.9693736224134089e-01   9.9589490998252994e-01   9.9694910271895365e-01   9.9591144407661891e-01   9.9695989911095051e-01   9.9592677021367892e-01   9.9696967656115953e-01   9.9594061474758255e-01   9.9697895091988986e-01   9.9595337822765551e-01   9.9698852861715381e-01   9.9596612938670237e-01   9.9699912233331545e-01   9.9598003872868979e-01   9.9701106088466562e-01   9.9599575714602973e-01   9.9702435410651291e-01   9.9601346256095014e-01   9.9703857379905714e-01   9.9603274496172667e-01   9.9705304106429349e-01   9.9605275088991307e-01   9.9706697915289377e-01   9.9607236134286314e-01   9.9707983174867498e-01   9.9609067063654844e-01   9.9709122667129613e-01   9.9610706270254301e-01   9.9710105798321391e-01   9.9612129470778321e-01   9.9710933458156492e-01   9.9613332496041984e-01   9.9711626969645306e-01   9.9614336061912057e-01   9.9712223976747050e-01   9.9615180932832215e-01   9.9712799420004095e-01   9.9615953604654806e-01   9.9713443678345792e-01   9.9616777742182028e-01   9.9714227416481271e-01   9.9617773644052476e-01   9.9715166565564495e-01   9.9618991193921702e-01   9.9716242789719622e-01   9.9620418799459021e-01   9.9717399109695359e-01   9.9621995483077042e-01   9.9718529063012562e-01   9.9623604960551049e-01   9.9719447335996214e-01   9.9625026712692033e-01   9.9719933988263776e-01   9.9625951801338686e-01   9.9719869029359820e-01   9.9626126117771707e-01   9.9719339801620710e-01   9.9625557462226244e-01   9.9718609698922578e-01   9.9624542786721804e-01   9.9998800679943622e-01   9.9998428389430094e-01   9.9998511404973578e-01   9.9998054311385709e-01   9.9997952594947948e-01   9.9997490817755175e-01   9.9996291391996861e-01   9.9995960313330656e-01   9.9989296898450797e-01   9.9989628384472284e-01   9.9949124330755668e-01   9.9951504373024902e-01   9.9726450612192041e-01   9.9693306240474233e-01   9.8963877002230960e-01   9.8476480606223937e-01   9.7680568385048094e-01   9.5612457038609788e-01   9.6681609140684577e-01   9.2558631938942759e-01   9.6478797995004650e-01   9.1313979218293861e-01   9.6837944942921961e-01   9.1877071151234602e-01   9.7336802502431086e-01   9.3158031078980175e-01   9.7733101390864530e-01   9.4321325677990175e-01   9.7963408944930408e-01   9.5063104445864299e-01   9.8055137586603991e-01   9.5397829674373158e-01   9.8064352243015940e-01   9.5460491498935807e-01   9.8043403781275462e-01   9.5400992744841051e-01   9.8026506498176691e-01   9.5331537521021592e-01   9.8027306754423371e-01   9.5307180056063412e-01   9.8044550584076984e-01   9.5334637376826803e-01   9.8070214897637686e-01   9.5394686125971950e-01   9.8095608619212482e-01   9.5462228252799597e-01   9.8115103259790837e-01   9.5518074363945149e-01   9.8128123524122968e-01   9.5555461758360272e-01   9.8138158227572203e-01   9.5580418690779045e-01   9.8148593524643502e-01   9.5603610284415930e-01   9.8160401487745230e-01   9.5630650452804533e-01   9.8173061138651030e-01   9.5661251343217779e-01   9.8185297668655969e-01   9.5692363725816754e-01   9.8195978660694405e-01   9.5720526887413326e-01   9.8204793669538037e-01   9.5743930052547876e-01   9.8211916649662290e-01   9.5762746179824931e-01   9.8217580071081201e-01   9.5777655816408536e-01   9.8222154563155106e-01   9.5789494619537952e-01   9.8226123023336021e-01   9.5799399215797276e-01   9.8229790826374863e-01   9.5808427668987206e-01   9.8233188776972791e-01   9.5816866954231716e-01   9.8236399248161466e-01   9.5824742762903714e-01   9.8239700176276024e-01   9.5832480090541283e-01   9.8243616076043938e-01   9.5841252143228339e-01   9.8248364608578476e-01   9.5852096582749968e-01   9.8253573667612115e-01   9.5864675152837187e-01   9.8258812596211875e-01   9.5877674418244285e-01   9.8264005875871296e-01   9.5890418428846669e-01   9.8269396875110415e-01   9.5903218891768627e-01   9.8275448721195746e-01   9.5917162158352653e-01   9.8282522120939653e-01   9.5933401263095652e-01   9.8290728125202353e-01   9.5952599048568799e-01   9.8299465163941180e-01   9.5973965216723656e-01   9.8307871967967786e-01   9.5995309980656829e-01   9.8315847871197837e-01   9.6015364344225185e-01   9.8323409158176578e-01   9.6034342125758410e-01   9.8330218507381706e-01   9.6051819477129108e-01   9.8336077914403897e-01   9.6066959044516287e-01   9.8341457964304313e-01   9.6080141417559750e-01   9.8347210700452892e-01   9.6093367378266947e-01   9.8353815718877002e-01   9.6108444010278793e-01   9.8361501354580261e-01   9.6126192211796080e-01   9.8370227444440228e-01   9.6146740685446419e-01   9.8379685216286439e-01   9.6169578673937550e-01   9.8389244243028628e-01   9.6193358556136987e-01   9.8398325059257652e-01   9.6216442799584845e-01   9.8406536495917063e-01   9.6237592357877622e-01   9.8413708297680569e-01   9.6256204398947043e-01   9.8419785199747223e-01   9.6272065328294154e-01   9.8424812960281205e-01   9.6285236780675965e-01   9.8428867061411518e-01   9.6295859042743126e-01   9.8432172377690896e-01   9.6304304197551927e-01   9.8435272807999441e-01   9.6311565419911271e-01   9.8439045793387969e-01   9.6319650413198687e-01   9.8444008229189905e-01   9.6330443409734312e-01   9.8450173960239173e-01   9.6344500201518779e-01   9.8457348798870092e-01   9.6361393768574244e-01   9.8465317295391275e-01   9.6380630269069145e-01   9.8473431381715171e-01   9.6401170998076680e-01   9.8480277982082765e-01   9.6420287519720893e-01   9.8483639522320943e-01   9.6432856214337059e-01   9.8482377867719251e-01   9.6434203166829324e-01   9.8477410431086165e-01   9.6424404041955969e-01   9.8470794559749630e-01   9.6407899811684383e-01   9.9994714019132047e-01   9.9994022231308954e-01   9.9988985589780377e-01   9.9993053072385885e-01   9.9988317041484798e-01   9.9988438378818545e-01   9.9984483779494882e-01   9.9960400564212448e-01   9.9959227289604446e-01   9.9690348641678961e-01   9.9722325527755418e-01   9.7060845770355442e-01   9.6990606248865896e-01   8.5368246022131433e-01   8.0615959992718922e-01   6.8259240936965671e-01   5.2174717452241803e-01   5.7076350908705265e-01   3.4076080497477645e-01   5.3573838630031456e-01   2.7213121708889787e-01   5.5123639298833893e-01   2.6355952176156949e-01   5.8806986761952729e-01   2.8441379390883736e-01   6.2411796997346380e-01   3.1508590631595434e-01   6.4694777400959469e-01   3.4045494296978995e-01   6.5434524233239955e-01   3.5209153320828807e-01   6.5157158439486373e-01   3.5103160074270895e-01   6.4561186548906113e-01   3.4411929765626070e-01   6.4110197946370606e-01   3.3753862515421790e-01   6.3963493158831142e-01   3.3407255381515671e-01   6.4080217331488265e-01   3.3383581013006675e-01   6.4339541199387829e-01   3.3572325643849171e-01   6.4617202753527891e-01   3.3838539219585018e-01   6.4827697910780424e-01   3.4072415229472430e-01   6.4950306995549456e-01   3.4220054494347479e-01   6.5028124417852529e-01   3.4298813986141430e-01   6.5115952569452085e-01   3.4368008256016558e-01   6.5232655901710801e-01   3.4466757806290599e-01   6.5368825291913968e-01   3.4594485619864801e-01   6.5506360311835243e-01   3.4733985132178996e-01   6.5627198405634712e-01   3.4864615117852576e-01   6.5725022838790603e-01   3.4973112103995324e-01   6.5802566369998983e-01   3.5059114544595160e-01   6.5863565926904288e-01   3.5126939688974707e-01   6.5911711093355640e-01   3.5180103416722069e-01   6.5953088581685737e-01   3.5223728609874760e-01   6.5992277574392644e-01   3.5263843193859939e-01   6.6029503162983372e-01   3.5302719303391589e-01   6.6064067632146473e-01   3.5339183692137294e-01   6.6098619970460937e-01   3.5374102506222305e-01   6.6139771134515934e-01   3.5412565705029997e-01   6.6192870319624342e-01   3.5461991641895763e-01   6.6253795893290357e-01   3.5522937140207844e-01   6.6314907462282224e-01   3.5587568518648183e-01   6.6373487459045855e-01   3.5649832261385744e-01   6.6432548099647226e-01   3.5710520628503273e-01   6.6498425819272533e-01   3.5775192053205263e-01   6.6577330660679745e-01   3.5851237459762919e-01   6.6672095291573896e-01   3.5943565514239401e-01   6.6777204549186098e-01   3.6051149482238781e-01   6.6878801584968728e-01   3.6161976714761418e-01   6.6972772183683016e-01   3.6264686991222933e-01   6.7062344399122897e-01   3.6361091142929614e-01   6.7144422020274597e-01   3.6452156303454142e-01   6.7213610232624332e-01   3.6531885129049568e-01   6.7273499321873331e-01   3.6598576907482372e-01   6.7336548198555435e-01   3.6662276915762959e-01   6.7411547211501677e-01   3.6736032690845699e-01   6.7501353219061999e-01   3.6825319938700535e-01   6.7606174340532654e-01   3.6931537546856585e-01   6.7722535347605561e-01   3.7052735488445121e-01   6.7842483010101440e-01   3.7182504166794028e-01   6.7956850752767917e-01   3.7310518828950273e-01   6.8060009205018679e-01   3.7428556391182577e-01   6.8149483993548488e-01   3.7532406976427374e-01   6.8224951583891957e-01   3.7620960360018318e-01   6.8286862781334245e-01   3.7694404652245261e-01   6.8336087266450263e-01   3.7753618919916032e-01   6.8374408571079115e-01   3.7799832544213680e-01   6.8408061232843786e-01   3.7837386793026034e-01   6.8449482979342513e-01   3.7877210391154742e-01   6.8508827931881733e-01   3.7933516363430619e-01   6.8586738610413234e-01   3.8011932694536071e-01   6.8679958127393337e-01   3.8109785526022044e-01   6.8786373811319612e-01   3.8223786986836822e-01   6.8900733225935984e-01   3.8350861729470881e-01   6.9005954092666422e-01   3.8478595640929958e-01   6.9070306645968593e-01   3.8578345380000395e-01   6.9069420456015218e-01   3.8614560603561210e-01   6.9013950715760586e-01   3.8580948001350696e-01   6.8935864942718483e-01   3.8507886727774449e-01   3.8439512560834588e-01   9.9929053730213890e-01   9.9949236669417085e-01   9.9858351863462302e-01   9.9944319319157138e-01   9.9897728210769665e-01   9.9837262141675676e-01   9.9826487652837803e-01   9.8478750775085888e-01   9.8922582781233959e-01   8.2523555558673611e-01   8.7265375147047075e-01   3.9216985701695584e-01   4.1927770251284469e-01   1.2793600552507051e-01   1.0538157322591234e-01   5.3320972318129531e-02   3.2255970844616358e-02   3.3525220029098274e-02   1.5576374593953278e-02   2.8793582007847748e-02   1.0881962033930472e-02   2.9634149678437943e-02   9.6906789751956997e-03   3.2556440440966943e-02   9.7891881273808237e-03   3.5063301892295409e-02   1.0191159604200898e-02   3.5548441990184622e-02   1.0264199341060123e-02   3.4180699197322750e-02   9.8349628458800093e-03   3.2236560549925519e-02   9.1753080571444351e-03   3.0706614837273948e-02   8.5978674924957303e-03   2.9895263935170984e-02   8.2303608990267792e-03   2.9699047804649614e-02   8.0626126512471068e-03   2.9880793933070731e-02   8.0329827255768756e-03   3.0201074555206948e-02   8.0738208234110743e-03   3.0477954697923176e-02   8.1289041391347933e-03   3.0631155706436850e-02   8.1638077114949501e-03   3.0699278275399793e-02   8.1737756592292366e-03   3.0778113969312834e-02   8.1794751214364636e-03   3.0921733027984306e-02   8.2011877591774314e-03   3.1120891910924788e-02   8.2412193010140775e-03   3.1340977811721134e-02   8.2916032141211477e-03   3.1545926380885658e-02   8.3429665263126829e-03   3.1715161289494073e-02   8.3873583168552601e-03   3.1849051386454573e-02   8.4229054538056333e-03   3.1954569637599482e-02   8.4511359920549957e-03   3.2037928624245191e-02   8.4735576154133345e-03   3.2108001393993557e-02   8.4916876004412049e-03   3.2174298413567587e-02   8.5081658335019236e-03   3.2239369318399519e-02   8.5245634407258644e-03   3.2301274130807203e-02   8.5405587446321374e-03   3.2362119367946265e-02   8.5558960951275000e-03   3.2431929835829071e-02   8.5721712310390871e-03   3.2522354372557537e-02   8.5924540389272219e-03   3.2631898687491646e-02   8.6185480000127868e-03   3.2746389233624072e-02   8.6476376198249758e-03   3.2856553905227494e-02   8.6762589815550430e-03   3.2965137185936008e-02   8.7038755431116960e-03   3.3083268670374436e-02   8.7325673599482640e-03   3.3223778241527537e-02   8.7655421305720925e-03   3.3394660820124690e-02   8.8054480780245109e-03   3.3590998178677715e-02   8.8528223664511609e-03   3.3789890704289005e-02   8.9040875314982688e-03   3.3974131734899382e-02   8.9524342122407133e-03   3.4147430621131646e-02   8.9970163994744536e-03   3.4310288955064383e-02   9.0397012564490432e-03   3.4452443220540099e-02   9.0786382938010234e-03   3.4573414482545146e-02   9.1116296173586984e-03   3.4693369044767906e-02   9.1415308580628084e-03   3.4834552341459032e-02   9.1748959298678257e-03   3.5006411131097079e-02   9.2154009930323910e-03   3.5210402597419560e-02   9.2638486581340506e-03   3.5442013526088778e-02   9.3199078754030596e-03   3.5687637099878669e-02   9.3812534356011428e-03   3.5928068071296726e-02   9.4434092318266463e-03   3.6148249832024859e-02   9.5017122133879330e-03   3.6341152887782224e-02   9.5536900327791580e-03   3.6505008190768920e-02   9.5984093315216804e-03   3.6640726931648361e-02   9.6359795970999418e-03   3.6750040994311478e-02   9.6668112104577597e-03   3.6836294769522104e-02   9.6916552914942944e-03   3.6909631768852466e-02   9.7120290014021653e-03   3.6993529688017585e-02   9.7321779339302177e-03   3.7114054199918652e-02   9.7592668320951610e-03   3.7280255863823018e-02   9.7981477227390094e-03   3.7486361679480655e-02   9.8483030785953950e-03   3.7726901128568871e-02   9.9079117807479456e-03   3.7994631183428849e-02   9.9759516289514832e-03   3.8262382310756710e-02   1.0048994857327369e-02   3.8470420844632147e-02   1.0116626894053557e-02   3.8558014372875808e-02   1.0162505526987367e-02   3.8530568685637215e-02   1.0179272478908191e-02   3.8463592749301168e-02   1.0182283865572706e-02   3.8459885126733651e-02   1.0197770940130654e-02   1.0257335533721001e-02   9.9184995773484153e-01   9.9629219771865674e-01   9.8912499057190673e-01   9.9462482279643694e-01   9.9318777660510660e-01   9.6630753952653892e-01   9.8018738604707645e-01   6.6606381790061042e-01   8.2271168966219932e-01   1.5429867557672874e-01   2.6945297400629781e-01   2.4757199121508765e-02   3.5969361255907044e-02   6.3150680210411411e-03   6.7615119004887560e-03   2.5757675002046209e-03   2.1098786552483967e-03   1.4828363278462959e-03   9.7726655109846359e-04   1.0735926192835677e-03   5.9845131689977992e-04   8.8899854234384095e-04   4.3949246542393863e-04   7.8286576991813358e-04   3.5805228322424612e-04   7.0045255982191794e-04   3.0596369360273002e-04   6.2734708503203761e-04   2.6627623447395330e-04   5.6649926476579765e-04   2.3506869674736258e-04   5.2172788378538346e-04   2.1205759567105963e-04   4.9236057920591225e-04   1.9639684200895607e-04   4.7496867697143007e-04   1.8645979342730228e-04   4.6557576074394259e-04   1.8050041254748320e-04   4.6071730639294658e-04   1.7701911381787138e-04   4.5785534346693622e-04   1.7488307013568293e-04   4.5559069654472264e-04   1.7336493632561490e-04   4.5366165030758605e-04   1.7215213630815632e-04   4.5247053683241685e-04   1.7125929360096089e-04   4.5231778331064967e-04   1.7078984288367642e-04   4.5306551114720475e-04   1.7072455643261423e-04   4.5433652550859379e-04   1.7093708234281913e-04   4.5574593469579268e-04   1.7128493444870934e-04   4.5703284616723341e-04   1.7165090250813964e-04   4.5811503704383440e-04   1.7197658776361673e-04   4.5900773664530372e-04   1.7225435820954210e-04   4.5974795011440809e-04   1.7248934424930304e-04   4.6039416485558425e-04   1.7269313014047887e-04   4.6101578687606469e-04   1.7288580690009322e-04   4.6164502124635282e-04   1.7308441885100333e-04   4.6228020768111924e-04   1.7328980765178969e-04   4.6294060123523338e-04   1.7350264466696569e-04   4.6369547167328715e-04   1.7373723405779399e-04   4.6462547344612153e-04   1.7402007095753368e-04   4.6573335016092778e-04   1.7436706539567353e-04   4.6692610674595777e-04   1.7475910738470540e-04   4.6812494566627103e-04   1.7516216684251734e-04   4.6934014199406766e-04   1.7556795356557024e-04   4.7065479774069987e-04   1.7599458651546167e-04   4.7216945612627763e-04   1.7647432337268803e-04   4.7394217534370585e-04   1.7703221608162434e-04   4.7593515036275141e-04   1.7767050579548281e-04   4.7798884627447361e-04   1.7835576620361664e-04   4.7994476863622140e-04   1.7902570372600537e-04   4.8178009409857888e-04   1.7965181582736911e-04   4.8350359015082001e-04   1.8024441608424600e-04   4.8506930370525910e-04   1.8079494977748896e-04   4.8647938767365571e-04   1.8129142907998160e-04   4.8787406039081508e-04   1.8175851703231496e-04   4.8943793312572221e-04   1.8225892808534060e-04   4.9127419792070835e-04   1.8283867020991965e-04   4.9340232755678822e-04   1.8351201425637008e-04   4.9578031254630505e-04   1.8427314776597929e-04   4.9829271043299445e-04   1.8509556543031967e-04   5.0077545824547007e-04   1.8593034829109904e-04   5.0308447538244890e-04   1.8672531220894229e-04   5.0514022881205909e-04   1.8744580123592229e-04   5.0691713006582244e-04   1.8807822418666177e-04   5.0842437589597575e-04   1.8862184446991038e-04   5.0969276942555632e-04   1.8908601955468682e-04   5.1078010998942920e-04   1.8948689642992022e-04   5.1179910014459147e-04   1.8985448751366259e-04   5.1295110755289128e-04   1.9024117143621929e-04   5.1446909073498001e-04   1.9072552570009092e-04   5.1648322832125977e-04   1.9137229598972168e-04   5.1899537376266997e-04   1.9220020730867325e-04   5.2197286026169683e-04   1.9320307784464864e-04   5.2536231646056828e-04   1.9437740942323005e-04   5.28998351