<?xml version="1.0"?>
<VTKFile type="UnstructuredGrid"  version="0.1"  >
<UnstructuredGrid>
<Piece  NumberOfPoints="4670" NumberOfCells="9067">
<Points>
<DataArray  type="Float64"  NumberOfComponents="3"  format="ascii">0 0 0  0.008260869565217391 0 0  0.008260869565217391 0.008333333333333333 0  0 0.008333333333333333 0  0.01652173913043478 0 0  0.01652173913043478 0.008333333333333333 0  0.02478260869565217 0 0  0.02478260869565217 0.008333333333333333 0  0.03304347826086956 0 0  0.03304347826086956 0.008333333333333333 0  0.04130434782608695 0 0  0.04130434782608695 0.008333333333333333 0  0.04956521739130434 0 0  0.04956521739130434 0.008333333333333333 0  0.05782608695652174 0 0  0.05782608695652174 0.008333333333333333 0  0.06608695652173913 0 0  0.06608695652173913 0.008333333333333333 0  0.07434782608695652 0 0  0.07434782608695652 0.008333333333333333 0  0.08260869565217391 0 0  0.08260869565217391 0.008333333333333333 0  0.0908695652173913 0 0  0.0908695652173913 0.008333333333333333 0  0.09913043478260869 0 0  0.09913043478260869 0.008333333333333333 0  0.1073913043478261 0 0  0.1073913043478261 0.008333333333333333 0  0.1156521739130435 0 0  0.1156521739130435 0.008333333333333333 0  0.1239130434782609 0 0  0.1239130434782609 0.008333333333333333 0  0.1321739130434783 0 0  0.1321739130434783 0.008333333333333333 0  0.1404347826086956 0 0  0.1404347826086956 0.008333333333333333 0  0.148695652173913 0 0  0.148695652173913 0.008333333333333333 0  0.1569565217391304 0 0  0.1569565217391304 0.008333333333333333 0  0.1652173913043478 0 0  0.1652173913043478 0.008333333333333333 0  0.1734782608695652 0 0  0.1734782608695652 0.008333333333333333 0  0.1817391304347826 0 0  0.1817391304347826 0.008333333333333333 0  0.19 0 0  0.19 0.008333333333333333 0  0.1982608695652174 0 0  0.1982608695652174 0.008333333333333333 0  0.2065217391304348 0 0  0.2065217391304348 0.008333333333333333 0  0.2147826086956522 0 0  0.2147826086956522 0.008333333333333333 0  0.2230434782608696 0 0  0.2230434782608696 0.008333333333333333 0  0.2313043478260869 0 0  0.2313043478260869 0.008333333333333333 0  0.2395652173913043 0 0  0.2395652173913043 0.008333333333333333 0  0.2478260869565218 0 0  0.2478260869565218 0.008333333333333333 0  0.2560869565217391 0 0  0.2560869565217391 0.008333333333333333 0  0.2643478260869565 0 0  0.2643478260869565 0.008333333333333333 0  0.2726086956521739 0 0  0.2726086956521739 0.008333333333333333 0  0.2808695652173913 0 0  0.2808695652173913 0.008333333333333333 0  0.2891304347826087 0 0  0.2891304347826087 0.008333333333333333 0  0.2973913043478261 0 0  0.2973913043478261 0.008333333333333333 0  0.3056521739130434 0 0  0.3056521739130434 0.008333333333333333 0  0.3139130434782609 0 0  0.3139130434782609 0.008333333333333333 0  0.3221739130434783 0 0  0.3221739130434783 0.008333333333333333 0  0.3304347826086956 0 0  0.3304347826086956 0.008333333333333333 0  0.338695652173913 0 0  0.338695652173913 0.008333333333333333 0  0.3469565217391304 0 0  0.3469565217391304 0.008333333333333333 0  0.3552173913043478 0 0  0.3552173913043478 0.008333333333333333 0  0.3634782608695652 0 0  0.3634782608695652 0.008333333333333333 0  0.3717391304347826 0 0  0.3717391304347826 0.008333333333333333 0  0.3799999999999999 0 0  0.3799999999999999 0.008333333333333333 0  0.3882608695652174 0 0  0.3882608695652174 0.008333333333333333 0  0.3965217391304348 0 0  0.3965217391304348 0.008333333333333333 0  0.4047826086956521 0 0  0.4047826086956521 0.008333333333333333 0  0.4130434782608696 0 0  0.4130434782608696 0.008333333333333333 0  0.4213043478260869 0 0  0.4213043478260869 0.008333333333333333 0  0.4295652173913043 0 0  0.4295652173913043 0.008333333333333333 0  0.4378260869565217 0 0  0.4378260869565217 0.008333333333333333 0  0.4460869565217391 0 0  0.4460869565217391 0.008333333333333333 0  0.4543478260869565 0 0  0.4543478260869565 0.008333333333333333 0  0.4626086956521739 0 0  0.4626086956521739 0.008333333333333333 0  0.4708695652173913 0 0  0.4708695652173913 0.008333333333333333 0  0.4791304347826086 0 0  0.4791304347826086 0.008333333333333333 0  0.4873913043478261 0 0  0.4873913043478261 0.008333333333333333 0  0.008260869565217391 0.01666666666666667 0  0 0.01666666666666667 0  0.01652173913043478 0.01666666666666667 0  0.02478260869565217 0.01666666666666667 0  0.03304347826086956 0.01666666666666667 0  0.04130434782608695 0.01666666666666667 0  0.04956521739130434 0.01666666666666667 0  0.05782608695652174 0.01666666666666667 0  0.06608695652173913 0.01666666666666667 0  0.07434782608695652 0.01666666666666667 0  0.08260869565217391 0.01666666666666667 0  0.0908695652173913 0.01666666666666667 0  0.09913043478260869 0.01666666666666667 0  0.1073913043478261 0.01666666666666667 0  0.1156521739130435 0.01666666666666667 0  0.1239130434782609 0.01666666666666667 0  0.1321739130434783 0.01666666666666667 0  0.1404347826086956 0.01666666666666667 0  0.148695652173913 0.01666666666666667 0  0.1569565217391304 0.01666666666666667 0  0.1652173913043478 0.01666666666666667 0  0.1734782608695652 0.01666666666666667 0  0.1817391304347826 0.01666666666666667 0  0.19 0.01666666666666667 0  0.1982608695652174 0.01666666666666667 0  0.2065217391304348 0.01666666666666667 0  0.2147826086956522 0.01666666666666667 0  0.2230434782608696 0.01666666666666667 0  0.2313043478260869 0.01666666666666667 0  0.2395652173913043 0.01666666666666667 0  0.2478260869565218 0.01666666666666667 0  0.2560869565217391 0.01666666666666667 0  0.2643478260869565 0.01666666666666667 0  0.2726086956521739 0.01666666666666667 0  0.2808695652173913 0.01666666666666667 0  0.2891304347826087 0.01666666666666667 0  0.2973913043478261 0.01666666666666667 0  0.3056521739130434 0.01666666666666667 0  0.3139130434782609 0.01666666666666667 0  0.3221739130434783 0.01666666666666667 0  0.3304347826086956 0.01666666666666667 0  0.338695652173913 0.01666666666666667 0  0.3469565217391304 0.01666666666666667 0  0.3552173913043478 0.01666666666666667 0  0.3634782608695652 0.01666666666666667 0  0.3717391304347826 0.01666666666666667 0  0.3799999999999999 0.01666666666666667 0  0.3882608695652174 0.01666666666666667 0  0.3965217391304348 0.01666666666666667 0  0.4047826086956521 0.01666666666666667 0  0.4130434782608696 0.01666666666666667 0  0.4213043478260869 0.01666666666666667 0  0.4295652173913043 0.01666666666666667 0  0.4378260869565217 0.01666666666666667 0  0.4460869565217391 0.01666666666666667 0  0.4543478260869565 0.01666666666666667 0  0.4626086956521739 0.01666666666666667 0  0.4708695652173913 0.01666666666666667 0  0.4791304347826086 0.01666666666666667 0  0.4873913043478261 0.01666666666666667 0  0.4956521739130435 0.01666666666666667 0  0.008260869565217391 0.025 0  0 0.025 0  0.01652173913043478 0.025 0  0.02478260869565217 0.025 0  0.03304347826086956 0.025 0  0.04130434782608695 0.025 0  0.04956521739130434 0.025 0  0.05782608695652174 0.025 0  0.06608695652173913 0.025 0  0.07434782608695652 0.025 0  0.08260869565217391 0.025 0  0.0908695652173913 0.025 0  0.09913043478260869 0.025 0  0.1073913043478261 0.025 0  0.1156521739130435 0.025 0  0.1239130434782609 0.025 0  0.1321739130434783 0.025 0  0.1404347826086956 0.025 0  0.148695652173913 0.025 0  0.1569565217391304 0.025 0  0.1652173913043478 0.025 0  0.1734782608695652 0.025 0  0.1817391304347826 0.025 0  0.19 0.025 0  0.1982608695652174 0.025 0  0.2065217391304348 0.025 0  0.2147826086956522 0.025 0  0.2230434782608696 0.025 0  0.2313043478260869 0.025 0  0.2395652173913043 0.025 0  0.2478260869565218 0.025 0  0.2560869565217391 0.025 0  0.2643478260869565 0.025 0  0.2726086956521739 0.025 0  0.2808695652173913 0.025 0  0.2891304347826087 0.025 0  0.2973913043478261 0.025 0  0.3056521739130434 0.025 0  0.3139130434782609 0.025 0  0.3221739130434783 0.025 0  0.3304347826086956 0.025 0  0.338695652173913 0.025 0  0.3469565217391304 0.025 0  0.3552173913043478 0.025 0  0.3634782608695652 0.025 0  0.3717391304347826 0.025 0  0.3799999999999999 0.025 0  0.3882608695652174 0.025 0  0.3965217391304348 0.025 0  0.4047826086956521 0.025 0  0.4130434782608696 0.025 0  0.4213043478260869 0.025 0  0.4295652173913043 0.025 0  0.4378260869565217 0.025 0  0.4460869565217391 0.025 0  0.4543478260869565 0.025 0  0.4626086956521739 0.025 0  0.4708695652173913 0.025 0  0.4791304347826086 0.025 0  0.4873913043478261 0.025 0  0.4956521739130435 0.025 0  0.5039130434782608 0.025 0  0.008260869565217391 0.03333333333333333 0  0 0.03333333333333333 0  0.01652173913043478 0.03333333333333333 0  0.02478260869565217 0.03333333333333333 0  0.03304347826086956 0.03333333333333333 0  0.04130434782608695 0.03333333333333333 0  0.04956521739130434 0.03333333333333333 0  0.05782608695652174 0.03333333333333333 0  0.06608695652173913 0.03333333333333333 0  0.07434782608695652 0.03333333333333333 0  0.08260869565217391 0.03333333333333333 0  0.0908695652173913 0.03333333333333333 0  0.09913043478260869 0.03333333333333333 0  0.1073913043478261 0.03333333333333333 0  0.1156521739130435 0.03333333333333333 0  0.1239130434782609 0.03333333333333333 0  0.1321739130434783 0.03333333333333333 0  0.1404347826086956 0.03333333333333333 0  0.148695652173913 0.03333333333333333 0  0.1569565217391304 0.03333333333333333 0  0.1652173913043478 0.03333333333333333 0  0.1734782608695652 0.03333333333333333 0  0.1817391304347826 0.03333333333333333 0  0.19 0.03333333333333333 0  0.1982608695652174 0.03333333333333333 0  0.2065217391304348 0.03333333333333333 0  0.2147826086956522 0.03333333333333333 0  0.2230434782608696 0.03333333333333333 0  0.2313043478260869 0.03333333333333333 0  0.2395652173913043 0.03333333333333333 0  0.2478260869565218 0.03333333333333333 0  0.2560869565217391 0.03333333333333333 0  0.2643478260869565 0.03333333333333333 0  0.2726086956521739 0.03333333333333333 0  0.2808695652173913 0.03333333333333333 0  0.2891304347826087 0.03333333333333333 0  0.2973913043478261 0.03333333333333333 0  0.3056521739
[...]
<PointData  Vectors="Displacement"> 
<DataArray  type="Float64"  Name="Displacement"  NumberOfComponents="3" format="ascii">0.0000000000000000e+00 0.0000000000000000e+00 0.0000000000000000e+00  2.2805999905708295e-06 1.4570882360191994e-06 0.0000000000000000e+00  1.5665465899226521e-06 8.9678222005503493e-07 0.0000000000000000e+00  0.0000000000000000e+00 0.0000000000000000e+00 0.0000000000000000e+00  4.1822455142215365e-06 2.5620253957833925e-06 0.0000000000000000e+00  3.2422251966502960e-06 1.9990964663661733e-06 0.0000000000000000e+00  5.9354202382578765e-06 3.7187460342279412e-06 0.0000000000000000e+00  4.8337119096390405e-06 3.1805611428728509e-06 0.0000000000000000e+00  7.5911813477785364e-06 4.9908332216694024e-06 0.0000000000000000e+00  6.3437202533632497e-06 4.4772249166086222e-06 0.0000000000000000e+00  9.1670069110265120e-06 6.3882994512068617e-06 0.0000000000000000e+00  7.7834409628423413e-06 5.8970482243933579e-06 0.0000000000000000e+00  1.0670550113363927e-05 7.9097218337465839e-06 0.0000000000000000e+00  9.1604844554279260e-06 7.4395490150854903e-06 0.0000000000000000e+00  1.2105133384924266e-05 9.5487687047021979e-06 0.0000000000000000e+00  1.0479033332736017e-05 9.0992783815502069e-06 0.0000000000000000e+00  1.3473444587781830e-05 1.1293903705066124e-05 0.0000000000000000e+00  1.1742618179470429e-05 1.0864211442679237e-05 0.0000000000000000e+00  1.4779135735222726e-05 1.3132358232520741e-05 0.0000000000000000e+00  1.2955007928796970e-05 1.2721066888534387e-05 0.0000000000000000e+00  1.6025832527920202e-05 1.5053614751625385e-05 0.0000000000000000e+00  1.4119238234191070e-05 1.4659686943836212e-05 0.0000000000000000e+00  1.7216422214481140e-05 1.7048219005454624e-05 0.0000000000000000e+00  1.5237516835786728e-05 1.6670977073535844e-05 0.0000000000000000e+00  1.8353391056667305e-05 1.9106588323604202e-05 0.0000000000000000e+00  1.6311749052046084e-05 1.8745410128461534e-05 0.0000000000000000e+00  1.9439640922063104e-05 2.1218709898818822e-05 0.0000000000000000e+00  1.7344236352865883e-05 2.0872651688731404e-05 0.0000000000000000e+00  2.0478703280514408e-05 2.3375404167788242e-05 0.0000000000000000e+00  1.8337707958057433e-05 2.3043272539317736e-05 0.0000000000000000e+00  2.1473977507434987e-05 2.5569584855334435e-05 0.0000000000000000e+00  1.9294618085508402e-05 2.5250419194742073e-05 0.0000000000000000e+00  2.2428243768976711e-05 2.7795323047288034e-05 0.0000000000000000e+00  2.0216956157731632e-05 2.7488440897868784e-05 0.0000000000000000e+00  2.3343906823540971e-05 3.0046776008579708e-05 0.0000000000000000e+00  2.1106544822228003e-05 2.9751566552225317e-05 0.0000000000000000e+00  2.4223624845574023e-05 3.2317799373785111e-05 0.0000000000000000e+00  2.1965504175236239e-05 3.2033459459933563e-05 0.0000000000000000e+00  2.5070726968701717e-05 3.4602502808374192e-05 0.0000000000000000e+00  2.2796457598172333e-05 3.4327964950301871e-05 0.0000000000000000e+00  2.5889139057784519e-05 3.6896068306607651e-05 0.0000000000000000e+00  2.3602368365932489e-05 3.6630149990872295e-05 0.0000000000000000e+00  2.6683305951006773e-05 3.9194733457774683e-05 0.0000000000000000e+00  2.4386516509371952e-05 3.8936144531676261e-05 0.0000000000000000e+00  2.7458375264765819e-05 4.1495652858636660e-05 0.0000000000000000e+00  2.5152669894108703e-05 4.1242886350655411e-05 0.0000000000000000e+00  2.8220498071519301e-05 4.3797125148267442e-05 0.0000000000000000e+00  2.5905284181267562e-05 4.3548340918325509e-05 0.0000000000000000e+00  2.8976977521763338e-05 4.6099260437953403e-05 0.0000000000000000e+00  2.6649551570619431e-05 4.5852264162277177e-05 0.0000000000000000e+00  2.9736232442962601e-05 4.8404651649762559e-05 0.0000000000000000e+00  2.7391369378466083e-05 4.8156895082503834e-05 0.0000000000000000e+00  3.0507567018120697e-05 5.0719053152018811e-05 0.0000000000000000e+00  2.8137237586626417e-05 5.0467658542730286e-05 0.0000000000000000e+00  3.1300550327994684e-05 5.3052165186601275e-05 0.0000000000000000e+00  2.8893934017283823e-05 5.2794086822394106e-05 0.0000000000000000e+00  3.2123826992704789e-05 5.5418147204134418e-05 0.0000000000000000e+00  2.9667879225631539e-05 5.5150529259177573e-05 0.0000000000000000e+00  3.2983304911049181e-05 5.7835374460850983e-05 0.0000000000000000e+00  3.0464131441975199e-05 5.7556151287808503e-05 0.0000000000000000e+00  3.3879889055377792e-05 6.0324887471807401e-05 0.0000000000000000e+00  3.1285018840266854e-05 6.0033603534441790e-05 0.0000000000000000e+00  3.4807313420810281e-05 6.2907053376831491e-05 0.0000000000000000e+00  3.2128636092799420e-05 6.2605727211492333e-05 0.0000000000000000e+00  3.5751089495386603e-05 6.5596330902846668e-05 0.0000000000000000e+00  3.2987778452428936e-05 6.5290010614407811e-05 0.0000000000000000e+00  3.6689991310143280e-05 6.8394912886596648e-05 0.0000000000000000e+00  3.3850125934849506e-05 6.8091304160670333e-05 0.0000000000000000e+00  3.7602575320428616e-05 7.1285894956045354e-05 0.0000000000000000e+00  3.4702140655746559e-05 7.0992375257802168e-05 0.0000000000000000e+00  3.8477153581768144e-05 7.4234136747294201e-05 0.0000000000000000e+00  3.5535848069605364e-05 7.3953537620695590e-05 0.0000000000000000e+00  3.9320477690521277e-05 7.7196643038397172e-05 0.0000000000000000e+00  3.6355999187675646e-05 7.6923511724883152e-05 0.0000000000000000e+00  4.0147779881480183e-05 8.0155858170055845e-05 0.0000000000000000e+00  3.7170245811906981e-05 7.9884704407934173e-05 0.0000000000000000e+00  4.0970363133524243e-05 8.3114658470698761e-05 0.0000000000000000e+00  3.7982708459231570e-05 8.2843242479259049e-05 0.0000000000000000e+00  4.1792815753259988e-05 8.6080504069731758e-05 0.0000000000000000e+00  3.8794437753900005e-05 8.5808633488310016e-05 0.0000000000000000e+00  4.2615636268075192e-05 8.9058275118749478e-05 0.0000000000000000e+00  3.9605292516213831e-05 8.8786347017466262e-05 0.0000000000000000e+00  4.3437903442825072e-05 9.2049834488377040e-05 0.0000000000000000e+00  4.0414910781076341e-05 9.1778243669739064e-05 0.0000000000000000e+00  4.4258610440403204e-05 9.5055190532093294e-05 0.0000000000000000e+00  4.1223007873609264e-05 9.4784201314540470e-05 0.0000000000000000e+00  4.5077076656770594e-05 9.8073477890551846e-05 0.0000000000000000e+00  4.2029396538384763e-05 9.7803252481555504e-05 0.0000000000000000e+00  4.5893032519469833e-05 1.0110346162656255e-04 0.0000000000000000e+00  4.2833982930642344e-05 1.0083406507110052e-04 0.0000000000000000e+00  4.6706684033901390e-05 1.0414383540392805e-04 0.0000000000000000e+00  4.3636846960850859e-05 1.0387518430782470e-04 0.0000000000000000e+00  4.7518774466416861e-05 1.0719353348243924e-04 0.0000000000000000e+00  4.4438387191104689e-05 1.0692534314590325e-04 0.0000000000000000e+00  4.8330530089655649e-05 1.1025209369499866e-04 0.0000000000000000e+00  4.5239394600456482e-05 1.0998387943218436e-04 0.0000000000000000e+00  4.9142974185921248e-05 1.1332056491849700e-04 0.0000000000000000e+00  4.6040453297008707e-05 1.1305205217487934e-04 0.0000000000000000e+00  4.9956113073118774e-05 1.1640114219951467e-04 0.0000000000000000e+00  4.6841294758281199e-05 1.1613260134234226e-04 0.0000000000000000e+00  5.0769530707611437e-05 1.1949480168866446e-04 0.0000000000000000e+00  4.7641519615863995e-05 1.1922645715951033e-04 0.0000000000000000e+00  5.1583463236974642e-05 1.2260132885204969e-04 0.0000000000000000e+00  4.8441389226562411e-05 1.2233292631802018e-04 0.0000000000000000e+00  5.2398658907915116e-05 1.2572137146494235e-04 0.0000000000000000e+00  4.9241483393389165e-05 1.2545253057564675e-04 0.0000000000000000e+00  5.3215388077052045e-05 1.2885706958049476e-04 0.0000000000000000e+00  5.0041942621236787e-05 1.2858776782155050e-04 0.0000000000000000e+00  5.4033045023673079e-05 1.3201060053937642e-04 0.0000000000000000e+00  5.0842375785588809e-05 1.3174113642013189e-04 0.0000000000000000e+00  5.4850530909946348e-05 1.3518303434643128e-04 0.0000000000000000e+00  5.1642202678093599e-05 1.3491377118564436e-04 0.0000000000000000e+00  5.5666760026234309e-05 1.3837429137131556e-04 0.0000000000000000e+00  5.2440922683607184e-05 1.3810550833332765e-04 0.0000000000000000e+00  5.6480907759504143e-05 1.4158356994543758e-04 0.0000000000000000e+00  5.3238193801762000e-05 1.4131544438984254e-04 0.0000000000000000e+00  5.7292430434496266e-05 1.4480969892027577e-04 0.0000000000000000e+00  5.4033810345257146e-05 1.4454234415324800e-04 0.0000000000000000e+00  5.8101010451474523e-05 1.4805128533402416e-04 0.0000000000000000e+00  5.4827657027456965e-05 1.4778479413303999e-04 0.0000000000000000e+00  1.2393215537286269e-06 6.1671213526952941e-07 0.0000000000000000e+00  0.0000000000000000e+00 0.0000000000000000e+00 0.0000000000000000e+00  2.5846737070248033e-06 1.5618888804143672e-06 0.0000000000000000e+00  3.9468608717223017e-06 2.7192883673299132e-06 0.0000000000000000e+00  5.2721706519384766e-06 4.0238149843454468e-06 0.0000000000000000e+00  6.5529967023498270e-06 5.4566144279887470e-06 0.0000000000000000e+00  7.7899555867359162e-06 7.0139831082492524e-06 0.0000000000000000e+00  8.9828685768023667e-06 8.6907374598697344e-06 0.0000000000000000e+00  1.0133478167743480e-05 1.0471969541624397e-05 0.0000000000000000e+00  1.1245515092150775e-05 1.2342812527068921e-05 0.0000000000000000e+00  1.2321449436949242e-05 1.4294650060872284e-05 0.0000000000000000e+00  1.3362201375950862e-05 1.6319319219000850e-05 0.0000000000000000e+00  1.4368293433040395e-05 1.8407237514619861e-05 0.0000000000000000e+00  1.5341257014082452e-05 2.0547000844692197e-05 0.0000000000000000e+00  1.6283560515646636e-05 2.2728561033827512e-05 0.0000000000000000e+00  1.7197002380198891e-05 2.4945965000244551e-05 0.0000000000000000e+00  1.8082464219290681e-05 2.7194266740918491e-05 0.0000000000000000e+00  1.8940579322033052e-05 2.9467767055463381e-05 0.0000000000000000e+00  1.9772521570943197e-05 3.1759605744983475e-05 0.0000000000000000e+00  2.0580151578556933e-05 3.4063151750048619e-05 0.0000000000000000e+00  2.1365413115699164e-05 3.6373620313170335e-05 0.0000000000000000e+00  2.2130199798912702e-05 3.8687267390251167e-05 0.0000000000000000e+00  2.2876658043177988e-05 4.1000851673262656e-05 0.0000000000000000e+00  2.3607501046060523e-05 4.3311903464912935e-05 0.0000000000000000e+00  2.4326023060670233e-05 4.5619758986663257e-05 0.0000000000000000e+00  2.5036130398210071e-05 4.7926141139624783e-05 0.0000000000000000e+00  2.5742511817670370e-05 5.0235739406154627e-05 0.0000000000000000e+00  2.6450690050299402e-05 5.2557320009210725e-05 0.0000000000000000e+00  2.7166879505320298e-05 5.4904697281029013e-05 0.0000000000000000e+00  2.7897527220541856e-05 5.7297177634865303e-05 0.0000000000000000e+00  2.8648263958809546e-05 5.9758866249919018e-05 0.0000000000000000e+00  2.9422026380753156e-05 6.2315923209923266e-05 0.0000000000000000e+00  3.0216629773934265e-05 6.4991044895416190e-05 0.0000000000000000e+00  3.1022760263670509e-05 6.7795436440353012e-05 0.0000000000000000e+00  3.1826840961959693e-05 7.0712660369214644e-05 0.0000000000000000e+00  3.2618886309280720e-05 7.3694172505820517e-05 0.0000000000000000e+00  3.3407646032338696e-05 7.6668040980335341e-05 0.0000000000000000e+00  3.4201338075321562e-05 7.9623574181331949e-05 0.0000000000000000e+00  3.4999670489132851e-05 8.2576931492720567e-05 0.0000000000000000e+00  3.5799335469088388e-05 8.5540198680951991e-05 0.0000000000000000e+00  3.6598146179275062e-05 8.8517748398936132e-05 0.0000000000000000e+00  3.7395388676491508e-05 9.1510260538378181e-05 0.0000000000000000e+00  3.8191087857366694e-05 9.4517029740175088e-05 0.0000000000000000e+00  3.8985396945051421e-05 9.7536984530047775e-05 0.0000000000000000e+00  3.9778308457510413e-05 1.0056882527363142e-04 0.0000000000000000e+00  4.0569673909578604e-05 1.0361097020896824e-04 0.0000000000000000e+00  4.1359585850050480e-05 1.0666173915265205e-04 0.0000000000000000e+00  4.2148955416170431e-05 1.0971984724083547e-04 0.0000000000000000e+00  4.2938499962151833e-05 1.1278719286960545e-04 0.0000000000000000e+00  4.3727255722595202e-05 1.1586813273908487e-04 0.0000000000000000e+00  4.4514112822533543e-05 1.1896310907297242e-04 0.0000000000000000e+00  4.5299459329963863e-05 1.2206985613944302e-04 0.0000000000000000e+00  4.6084368764013996e-05 1.2518869318619533e-04 0.0000000000000000e+00  4.6869123537277042e-05 1.2832320041901947e-04 0.0000000000000000e+00  4.7653283870067229e-05 1.3147648336754914e-04 0.0000000000000000e+00  4.8436409694579398e-05 1.3464954449869123e-04 0.0000000000000000e+00  4.9218358285952978e-05 1.3784190677399640e-04 0.0000000000000000e+00  4.9999194045622866e-05 1.4105248960865095e-04 0.0000000000000000e+00  5.0779030054020493e-05 1.4428004211693027e-04 0.0000000000000000e+00  5.1557914259531039e-05 1.4752325586322890e-04 0.0000000000000000e+00  5.2335734099727993e-05 1.5078071498458032e-04 0.0000000000000000e+00  9.9451566350110292e-07 4.2127905065300943e-07 0.0000000000000000e+00  0.0000000000000000e+00 0.0000000000000000e+00 0.0000000000000000e+00  2.0809217386671758e-06 1.2425228252770419e-06 0.0000000000000000e+00  3.2064125677784261e-06 2.3523755972016675e-06 0.0000000000000000e+00  4.3301664993527750e-06 3.6466288533078693e-06 0.0000000000000000e+00  5.4380690845163248e-06 5.0771401427685445e-06 0.0000000000000000e+00  6.5255732100247239e-06 6.6392481621749952e-06 0.0000000000000000e+00  7.5856866620408128e-06 8.3287508538400400e-06 0.0000000000000000e+00  8.6169500259354023e-06 1.0122442374803124e-05 0.0000000000000000e+00  9.6235372894886884e-06 1.2001515149362361e-05 0.0000000000000000e+00  1.0607322797015228e-05 1.3961490459720604e-05 0.0000000000000000e+00  1.1567309929809482e-05 1.5996123830160133e-05 0.0000000000000000e+00  1.2501787925446796e-05 1.8095493623740833e-05 0.0000000000000000e+00  1.3411404910294603e-05 2.0245425693305459e-05 0.0000000000000000e+00  1.4298973152109334e-05 2.2434447350638120e-05 0.0000000000000000e+00  1.5165743401220976e-05 2.4659001645808129e-05 0.0000000000000000e+00  1.6011123740003117e-05 2.6915660394250555e-05 0.0000000000000000e+00  1.6834090989541407e-05 2.9198774939312753e-05 0.0000000000000000e+00  1.7634722242368120e-05 3.1500241521018158e-05 0.0000000000000000e+00  1.8414272063268039e-05 3.3812487941224420e-05 0.0000000000000000e+00  1.9173636706570274e-05 3.6131415841604014e-05 0.0000000000000000e+00  1.9913133427403072e-05 3.8453775348220787e-05 0.0000000000000000e+00  2.0633148333752711e-05 4.0776112175028351e-05 0.0000000000000000e+00  2.1334697124565366e-05 4.3095234825748168e-05 0.0000000000000000e+00  2.2019300893973966e-05 4.5409925592870075e-05 0.0000000000000000e+00  2.2689058184567969e-05 4.7721119295538216e-05 0.0000000000000000e+00  2.3347164539546788e-05 5.0032113772647599e-05 0.0000000000000000e+00  2.3998297932017052e-05 5.2350028954062426e-05 0.0000000000000000e+00  2.4648908932039597e-05 5.4687085437675855e-05 0.0000000000000000e+00  2.5307337018472188e-05 5.7061715804199816e-05 0.0000000000000000e+00  2.5983240620837229e-05 5.9499154677445359e-05 0.0000000000000000e+00  2.6685428294306345e-05 6.2030350975291894e-05 0.0000000000000000e+00  2.7417274197501701e-05 6.4687261065683854e-05 0.0000000000000000e+00  2.8170923922126868e-05 6.7494014121883623e-05 0.0000000000000000e+00  2.8933103958472601e-05 7.0438799187467132e-05 0.0000000000000000e+00  2.9690291533702488e-05 7.3459086956364556e-05 0.0000000000000000e+00  3.0456095728338255e-05 7.6434192478698541e-05 0.0000000000000000e+00  3.1235350514278005e-05 7.9374060318330574e-05 0.0000000000000000e+00  3.2021816352456185e-05 8.2316082140213037e-05 0.0000000000000000e+00  3.2809256463871519e-05 8.5275309821357588e-05 0.0000000000000000e+00  3.3595043574502750e-05 8.8252558090179222e-05 0.0000000000000000e+00  3.4378961546389144e-05 9.1245953134075448e-05 0.0000000000000000e+00  3.5161587544966277e-05 9.4253697987191896e-05 0.0000000000000000e+00  3.5943445369092894e-05 9.7274641926552594e-05 0.0000000000000000e+00  3.6724653189269372e-05 1.0030777367825803e-04 0.0000000000000000e+00  3.7504734221749119e-05 1.0335156435645024e-04 0.0000000000000000e+00  3.8283044527495907e-05 1.0640348682206126e-04 0.0000000000000000e+00  3.9060627927292542e-05 1.0946037310345590e-04 0.0000000000000000e+00  3.9838832451187667e-05 1.1252550698664324e-04 0.0000000000000000e+00  4.0615824629988944e-05 1.1560738408255818e-04 0.0000000000000000e+00  4.1389410851960763e-05 1.1870512535816361e-04 0.0000000000000000e+00  4.2160168696382285e-05 1.2181263343261232e-04 0.0000000000000000e+00  4.2929880045327087e-05 1.2492988262413922e-04 0.0000000000000000e+00  4.3698906238462542e-05 1.2806300364459587e-04 0.0000000000000000e+00  4.4466657757689391e-05 1.3121622152636328e-04 0.0000000000000000e+00  4.5232862915347843e-05 1.3439004416274702e-04 0.0000000000000000e+00  4.5997804743515383e-05 1.3758330826671173e-04 0.0000000000000000e+00  4.6761977398528339e-05 1.4079463383719231e-04 0.0000000000000000e+00  4.7525799507649704e-05 1.4402279181925529e-04 0.0000000000000000e+00  4.8289485760209500e-05 1.4726669267625702e-04 0.0000000000000000e+00  4.9052957149874770e-05 1.5052530457362968e-04 0.0000000000000000e+00  4.9815667985634562e-05 1.5379749585050579e-04 0.0000000000000000e+00  7.5721920451000354e-07 2.5044262845099440e-07 0.0000000000000000e+00  0.0000000000000000e+00 0.0000000000000000e+00 0.0000000000000000e+00  1.6085926861193055e-06 9.8083301529407756e-07 0.0000000000000000e+00  2.5277458878860567e-06 2.0646556204754572e-06 0.0000000000000000e+00  3.4646767528434860e-06 3.3500202892567127e-06 0.0000000000000000e+00  4.3954171684733660e-06 4.7624769909504933e-06 0.0000000000000000e+00  5.3288698041925900e-06 6.3165741440092810e-06 0.0000000000000000e+00  6.2537468844664417e-06 8.0168431780269761e-06 0.0000000000000000e+00  7.1626131307684916e-06 9.8201535658461567e-06 0.0000000000000000e+00  8.0609339580841145e-06 1.1699517744933785e-05 0.0000000000000000e+00  8.9507756714860303e-06 1.3661140811968260e-05 0.0000000000000000e+00  9.8292139287782314e-06 1.5702330320766257e-05 0.0000000000000000e+00  1.0691003657215089e-05 1.7812403195290267e-05 0.0000000000000000e+00  1.1535418924666960e-05 1.9970657580541960e-05 0.0000000000000000e+00  1.2366683193150220e-05 2.2162604988067204e-05 0.0000000000000000e+00  1.3185675899841965e-05 2.4390564417491638e-05 0.0000000000000000e+00  1.3989865107445046e-05 2.6653839811996685e-05 0.0000000000000000e+00  1.4775980816619336e-05 2.8946576799613613e-05 0.0000000000000000e+00  1.5543038709478351e-05 3.1257876280827931e-05 0.0000000000000000e+00  1.6292263165504595e-05 3.3578395267590403e-05 0.0000000000000000e+00  1.7023512601852413e-05 3.5906046454195117e-05 0.0000000000000000e+00  1.7735226925346954e-05 3.8238623361861148e-05 0.0000000000000000e+00  1.8425876418008585e-05 4.0572242422976459e-05 0.0000000000000000e+00  1.9094914934788970e-05 4.2902444110026495e-05 0.0000000000000000e+00  1.9742128450693558e-05 4.5227492816746842e-05 0.0000000000000000e+00  2.0367666968816558e-05 4.7547380998463502e-05 0.0000000000000000e+00  2.0973058137169738e-05 4.9863262609700316e-05 0.0000000000000000e+00  2.1561757249884047e-05 5.2179722365696010e-05 0.0000000000000000e+00  2.2139694450898929e-05 5.4506197412756033e-05 0.0000000000000000e+00  2.2716025364849538e-05 5.6858687089790821e-05 0.0000000000000000e+00  2.3303617745574140e-05 5.9262077031555413e-05 0.0000000000000000e+00  2.3917867540476592e-05 6.1752361214891969e-05 0.0000000000000000e+00  2.4570912004822323e-05 6.4376076052677375e-05 0.0000000000000000e+00  2.5257090959582340e-05 6.7181838301284881e-05 0.0000000000000000e+00  2.5963522136657727e-05 7.0160301344827962e-05 0.0000000000000000e+00  2.6699696282138133e-05 7.3243925208645039e-05 0.0000000000000000e+00  2.7486879372785057e-05 7.6216036589173155e-05 0.0000000000000000e+00  2.8278118313977399e-05 7.9131503730901607e-05 0.0000000000000000e+00  2.9056090006905247e-05 8.2058568814344184e-05 0.0000000000000000e+00  2.9827963486008544e-05 8.5014063411347092e-05 0.0000000000000000e+00  3.0596800643475180e-05 8.7991591114194354e-05 0.0000000000000000e+