<?xml version="1.0"?>
<VTKFile type="UnstructuredGrid"  version="0.1"  >
<UnstructuredGrid>
<Piece  NumberOfPoints="4789" NumberOfCells="9309">
<Points>
<DataArray  type="Float64"  NumberOfComponents="3"  format="ascii">1.17304347826087 0 0  1.181304347826087 0 0  1.181304347826087 0.008333333333333333 0  1.17304347826087 0.008333333333333333 0  1.189565217391304 0 0  1.189565217391304 0.008333333333333333 0  1.197826086956522 0 0  1.197826086956522 0.008333333333333333 0  1.206086956521739 0 0  1.206086956521739 0.008333333333333333 0  1.214347826086956 0 0  1.214347826086956 0.008333333333333333 0  1.222608695652174 0 0  1.222608695652174 0.008333333333333333 0  1.230869565217391 0 0  1.230869565217391 0.008333333333333333 0  1.239130434782609 0 0  1.239130434782609 0.008333333333333333 0  1.247391304347826 0 0  1.247391304347826 0.008333333333333333 0  1.255652173913044 0 0  1.255652173913044 0.008333333333333333 0  1.263913043478261 0 0  1.263913043478261 0.008333333333333333 0  1.272173913043478 0 0  1.272173913043478 0.008333333333333333 0  1.280434782608696 0 0  1.280434782608696 0.008333333333333333 0  1.288695652173913 0 0  1.288695652173913 0.008333333333333333 0  1.296956521739131 0 0  1.296956521739131 0.008333333333333333 0  1.305217391304348 0 0  1.305217391304348 0.008333333333333333 0  1.313478260869565 0 0  1.313478260869565 0.008333333333333333 0  1.321739130434783 0 0  1.321739130434783 0.008333333333333333 0  1.33 0 0  1.33 0.008333333333333333 0  1.338260869565217 0 0  1.338260869565217 0.008333333333333333 0  1.346521739130435 0 0  1.346521739130435 0.008333333333333333 0  1.354782608695652 0 0  1.354782608695652 0.008333333333333333 0  1.36304347826087 0 0  1.36304347826087 0.008333333333333333 0  1.371304347826087 0 0  1.371304347826087 0.008333333333333333 0  1.379565217391304 0 0  1.379565217391304 0.008333333333333333 0  1.387826086956522 0 0  1.387826086956522 0.008333333333333333 0  1.396086956521739 0 0  1.396086956521739 0.008333333333333333 0  1.404347826086957 0 0  1.404347826086957 0.008333333333333333 0  1.412608695652174 0 0  1.412608695652174 0.008333333333333333 0  1.420869565217391 0 0  1.420869565217391 0.008333333333333333 0  1.429130434782609 0 0  1.429130434782609 0.008333333333333333 0  1.437391304347826 0 0  1.437391304347826 0.008333333333333333 0  1.445652173913043 0 0  1.445652173913043 0.008333333333333333 0  1.453913043478261 0 0  1.453913043478261 0.008333333333333333 0  1.462173913043478 0 0  1.462173913043478 0.008333333333333333 0  1.470434782608696 0 0  1.470434782608696 0.008333333333333333 0  1.478695652173913 0 0  1.478695652173913 0.008333333333333333 0  1.486956521739131 0 0  1.486956521739131 0.008333333333333333 0  1.495217391304348 0 0  1.495217391304348 0.008333333333333333 0  1.503478260869565 0 0  1.503478260869565 0.008333333333333333 0  1.511739130434782 0 0  1.511739130434782 0.008333333333333333 0  1.52 0 0  1.52 0.008333333333333333 0  1.528260869565217 0 0  1.528260869565217 0.008333333333333333 0  1.536521739130435 0 0  1.536521739130435 0.008333333333333333 0  1.544782608695652 0 0  1.544782608695652 0.008333333333333333 0  1.55304347826087 0 0  1.55304347826087 0.008333333333333333 0  1.561304347826087 0 0  1.561304347826087 0.008333333333333333 0  1.569565217391304 0 0  1.569565217391304 0.008333333333333333 0  1.577826086956522 0 0  1.577826086956522 0.008333333333333333 0  1.586086956521739 0 0  1.586086956521739 0.008333333333333333 0  1.594347826086957 0 0  1.594347826086957 0.008333333333333333 0  1.602608695652174 0 0  1.602608695652174 0.008333333333333333 0  1.610869565217391 0 0  1.610869565217391 0.008333333333333333 0  1.619130434782609 0 0  1.619130434782609 0.008333333333333333 0  1.627391304347826 0 0  1.627391304347826 0.008333333333333333 0  1.635652173913043 0 0  1.635652173913043 0.008333333333333333 0  1.643913043478261 0 0  1.643913043478261 0.008333333333333333 0  1.652173913043478 0 0  1.652173913043478 0.008333333333333333 0  1.660434782608696 0 0  1.660434782608696 0.008333333333333333 0  1.668695652173913 0 0  1.668695652173913 0.008333333333333333 0  1.67695652173913 0 0  1.67695652173913 0.008333333333333333 0  1.685217391304348 0 0  1.685217391304348 0.008333333333333333 0  1.693478260869565 0 0  1.693478260869565 0.008333333333333333 0  1.701739130434782 0 0  1.701739130434782 0.008333333333333333 0  1.71 0 0  1.71 0.008333333333333333 0  1.718260869565217 0 0  1.718260869565217 0.008333333333333333 0  1.726521739130435 0 0  1.726521739130435 0.008333333333333333 0  1.734782608695652 0 0  1.734782608695652 0.008333333333333333 0  1.743043478260869 0 0  1.743043478260869 0.008333333333333333 0  1.751304347826087 0 0  1.751304347826087 0.008333333333333333 0  1.759565217391304 0 0  1.759565217391304 0.008333333333333333 0  1.181304347826087 0.01666666666666667 0  1.17304347826087 0.01666666666666667 0  1.189565217391304 0.01666666666666667 0  1.197826086956522 0.01666666666666667 0  1.206086956521739 0.01666666666666667 0  1.214347826086956 0.01666666666666667 0  1.222608695652174 0.01666666666666667 0  1.230869565217391 0.01666666666666667 0  1.239130434782609 0.01666666666666667 0  1.247391304347826 0.01666666666666667 0  1.255652173913044 0.01666666666666667 0  1.263913043478261 0.01666666666666667 0  1.272173913043478 0.01666666666666667 0  1.280434782608696 0.01666666666666667 0  1.288695652173913 0.01666666666666667 0  1.296956521739131 0.01666666666666667 0  1.305217391304348 0.01666666666666667 0  1.313478260869565 0.01666666666666667 0  1.321739130434783 0.01666666666666667 0  1.33 0.01666666666666667 0  1.338260869565217 0.01666666666666667 0  1.346521739130435 0.01666666666666667 0  1.354782608695652 0.01666666666666667 0  1.36304347826087 0.01666666666666667 0  1.371304347826087 0.01666666666666667 0  1.379565217391304 0.01666666666666667 0  1.387826086956522 0.01666666666666667 0  1.396086956521739 0.01666666666666667 0  1.404347826086957 0.01666666666666667 0  1.412608695652174 0.01666666666666667 0  1.420869565217391 0.01666666666666667 0  1.429130434782609 0.01666666666666667 0  1.437391304347826 0.01666666666666667 0  1.445652173913043 0.01666666666666667 0  1.453913043478261 0.01666666666666667 0  1.462173913043478 0.01666666666666667 0  1.470434782608696 0.01666666666666667 0  1.478695652173913 0.01666666666666667 0  1.486956521739131 0.01666666666666667 0  1.495217391304348 0.01666666666666667 0  1.503478260869565 0.01666666666666667 0  1.511739130434782 0.01666666666666667 0  1.52 0.01666666666666667 0  1.528260869565217 0.01666666666666667 0  1.536521739130435 0.01666666666666667 0  1.544782608695652 0.01666666666666667 0  1.55304347826087 0.01666666666666667 0  1.561304347826087 0.01666666666666667 0  1.569565217391304 0.01666666666666667 0  1.577826086956522 0.01666666666666667 0  1.586086956521739 0.01666666666666667 0  1.594347826086957 0.01666666666666667 0  1.602608695652174 0.01666666666666667 0  1.610869565217391 0.01666666666666667 0  1.619130434782609 0.01666666666666667 0  1.627391304347826 0.01666666666666667 0  1.635652173913043 0.01666666666666667 0  1.643913043478261 0.01666666666666667 0  1.652173913043478 0.01666666666666667 0  1.660434782608696 0.01666666666666667 0  1.668695652173913 0.01666666666666667 0  1.67695652173913 0.01666666666666667 0  1.685217391304348 0.01666666666666667 0  1.693478260869565 0.01666666666666667 0  1.701739130434782 0.01666666666666667 0  1.71 0.01666666666666667 0  1.718260869565217 0.01666666666666667 0  1.726521739130435 0.01666666666666667 0  1.734782608695652 0.01666666666666667 0  1.743043478260869 0.01666666666666667 0  1.751304347826087 0.01666666666666667 0  1.759565217391304 0.01666666666666667 0  1.767826086956522 0.01666666666666667 0  1.181304347826087 0.025 0  1.17304347826087 0.025 0  1.189565217391304 0.025 0  1.197826086956522 0.025 0  1.206086956521739 0.025 0  1.214347826086956 0.025 0  1.222608695652174 0.025 0  1.230869565217391 0.025 0  1.239130434782609 0.025 0  1.247391304347826 0.025 0  1.255652173913044 0.025 0  1.263913043478261 0.025 0  1.272173913043478 0.025 0  1.280434782608696 0.025 0  1.288695652173913 0.025 0  1.296956521739131 0.025 0  1.305217391304348 0.025 0  1.313478260869565 0.025 0  1.321739130434783 0.025 0  1.33 0.025 0  1.338260869565217 0.025 0  1.346521739130435 0.025 0  1.354782608695652 0.025 0  1.36304347826087 0.025 0  1.371304347826087 0.025 0  1.379565217391304 0.025 0  1.387826086956522 0.025 0  1.396086956521739 0.025 0  1.404347826086957 0.025 0  1.412608695652174 0.025 0  1.420869565217391 0.025 0  1.429130434782609 0.025 0  1.437391304347826 0.025 0  1.445652173913043 0.025 0  1.453913043478261 0.025 0  1.462173913043478 0.025 0  1.470434782608696 0.025 0  1.478695652173913 0.025 0  1.486956521739131 0.025 0  1.495217391304348 0.025 0  1.503478260869565 0.025 0  1.511739130434782 0.025 0  1.52 0.025 0  1.528260869565217 0.025 0  1.536521739130435 0.025 0  1.544782608695652 0.025 0  1.55304347826087 0.025 0  1.561304347826087 0.025 0  1.569565217391304 0.025 0  1.577826086956522 0.025 0  1.586086956521739 0.025 0  1.594347826086957 0.025 0  1.602608695652174 0.025 0  1.610869565217391 0.025 0  1.619130434782609 0.025 0  1.627391304347826 0.025 0  1.635652173913043 0.025 0  1.643913043478261 0.025 0  1.652173913043478 0.025 0  1.660434782608696 0.025 0  1.668695652173913 0.025 0  1.67695652173913 0.025 0  1.685217391304348 0.025 0  1.693478260869565 0.025 0  1.701739130434782 0.025 0  1.71 0.025 0  1.718260869565217 0.025 0  1.726521739130435 0.025 0  1.734782608695652 0.025 0  1.743043478260869 0.025 0  1.751304347826087 0.025 0  1.759565217391304 0.025 0  1.767826086956522 0.025 0  1.181304347826087 0.03333333333333333 0  1.189565217391304 0.03333333333333333 0  1.197826086956522 0.03333333333333333 0  1.206086956521739 0.03333333333333333 0  1.214347826086956 0.03333333333333333 0  1.222608695652174 0.03333333333333333 0  1.230869565217391 0.03333333333333333 0  1.239130434782609 0.0
[...]
<CellData  Scalars="rho_bar"> 
<DataArray  type="Float64"  Name="rho_bar"  format="ascii">9.6794910276791069e-01   9.6667273483283023e-01   9.6800136896763422e-01   9.6672536095433570e-01   9.6805909105119314e-01   9.6678431911924867e-01   9.6812052615434030e-01   9.6684791859415331e-01   9.6818378785932790e-01   9.6691396937727070e-01   9.6824788853568267e-01   9.6698108488868684e-01   9.6831224429631790e-01   9.6704855716986604e-01   9.6837649647034685e-01   9.6711609996324344e-01   9.6843979539060554e-01   9.6718301465487744e-01   9.6850105489968785e-01   9.6724829473688523e-01   9.6855865397739938e-01   9.6731037297626876e-01   9.6861078729932037e-01   9.6736747006276425e-01   9.6865515079840514e-01   9.6741728629206891e-01   9.6868937013402767e-01   9.6745737205461702e-01   9.6871090429508577e-01   9.6748499653296327e-01   9.6871788047394791e-01   9.6749787356690731e-01   9.6870945593836910e-01   9.6749454858744421e-01   9.6868682628590308e-01   9.6747549848751613e-01   9.6865322439880031e-01   9.6744340254051842e-01   9.6861365191152304e-01   9.6740324847515125e-01   9.6857269706369864e-01   9.6736048887471338e-01   9.6853257214418109e-01   9.6731881711406786e-01   9.6849144203551074e-01   9.6727781756513653e-01   9.6844427578708159e-01   9.6723300984592198e-01   9.6838517106476496e-01   9.6717759018169369e-01   9.6831220054488376e-01   9.6710699213761686e-01   9.6823246612022684e-01   9.6702429138945500e-01   9.6816671347053007e-01   9.6694592228419773e-01   9.6814962147092598e-01   9.6690377947948680e-01   9.6822598811722493e-01   9.6694276808645907e-01   9.6844348886005061e-01   9.6711357687845090e-01   9.6884553887542846e-01   9.6746489290601567e-01   9.6946355194679235e-01   9.6803518647293774e-01   9.7031040002843649e-01   9.6884551203576552e-01   9.7137482771719352e-01   9.6989296823985771e-01   9.7261892734706024e-01   9.7114712363019551e-01   9.7397784780258045e-01   9.7254873935007136e-01   9.7536400397109302e-01   9.7401269592662365e-01   9.7667477658381741e-01   9.7543486824745818e-01   9.7780238504160599e-01   9.7670247854028380e-01   9.7864191577466519e-01   9.7770343502107526e-01   9.7909674109237554e-01   9.7833326125771780e-01   9.7907950139992783e-01   9.7849737384295732e-01   9.7851109115274459e-01   9.7811030764851692e-01   9.7731908593714933e-01   9.7709351723474203e-01   9.7543843452810119e-01   9.7537513296278866e-01   9.7281395412981875e-01   9.7289169247371066e-01   9.6940708950217092e-01   9.6959364312737517e-01   9.6520822531653183e-01   9.6545600367684781e-01   9.6025642034986347e-01   9.6049710408830780e-01   9.5466233630684905e-01   9.5480286094737454e-01   9.4862897005049751e-01   9.4855169828695374e-01   9.4245699317671638e-01   9.4202817674525985e-01   9.3652404742471485e-01   9.3561195615721726e-01   9.3123582016601014e-01   9.2973413087631096e-01   9.2696162656404291e-01   9.2481123469620963e-01   9.2397183430473628e-01   9.2117387670550122e-01   9.2239945734185913e-01   9.1901465470357224e-01   9.2223583460862868e-01   9.1837066484228436e-01   9.2335919664510724e-01   9.1914467075584583e-01   9.2557885558875996e-01   9.2114966108380025e-01   9.2867935938604895e-01   9.2415926180573726e-01   9.3244858918152984e-01   9.2794499543003106e-01   9.3668469078118788e-01   9.3229206494651651e-01   9.4117996015167005e-01   9.3698897856575214e-01   9.4569668558770448e-01   9.4180108779205407e-01   9.4995635841829218e-01   9.4644958035623350e-01   9.5365725074410124e-01   9.5061933435611867e-01   9.5650754080241773e-01   9.5399174081809568e-01   9.5825603980557850e-01   9.5628160490607361e-01   9.5871118366935648e-01   9.5726096034161035e-01   9.6109226359188826e-01   9.5651247560400421e-01   9.6115975280996002e-01   9.5658645722041746e-01   9.6123488104660648e-01   9.5667067781708370e-01   9.6131434775602143e-01   9.5676138401413247e-01   9.6139553880628714e-01   9.5685472716502618e-01   9.6147715515299670e-01   9.5694845882120372e-01   9.6155920066222111e-01   9.5704244808901817e-01   9.6164134069329010e-01   9.5713679889509717e-01   9.6172268562246233e-01   9.5723092250969244e-01   9.6180161100735684e-01   9.5732312017912069e-01   9.6187628172868023e-01   9.5741140805461999e-01   9.6194422151012715e-01   9.5749316278290220e-01   9.6200264645601008e-01   9.5756537833310218e-01   9.6204815263193433e-01   9.5762425505542070e-01   9.6207737694919659e-01   9.5766579036577670e-01   9.6208723853868339e-01   9.5768594503227245e-01   9.6207637192589579e-01   9.5768211006604720e-01   9.6204600875463986e-01   9.5765427966854255e-01   9.6200131651114595e-01   9.5760700132588061e-01   9.6195031892734328e-01   9.5754922242945117e-01   9.6190104208999283e-01   9.5749180356281594e-01   9.6185713629433667e-01   9.5744198582226958e-01   9.6181588192444212e-01   9.5739958869041120e-01   9.6176830575593419e-01   9.5735571583034673e-01   9.6170331034043821e-01   9.5729619187011661e-01   9.6161409296335154e-01   9.5720822290483609e-01   9.6150717194573310e-01   9.5709097123586284e-01   9.6140945318069704e-01   9.5696575118360294e-01   9.6136973209748022e-01   9.5688154794182312e-01   9.6145066549659319e-01   9.5690889129080559e-01   9.6171821672773428e-01   9.5712681223565765e-01   9.6223120241981708e-01   9.5760929718278753e-01   9.6303202875246730e-01   9.5841433381204255e-01   9.6413716673558469e-01   9.5957258535709289e-01   9.6553104055735084e-01   9.6107893043479420e-01   9.6716259661976833e-01   9.6288747957402321e-01   9.6894555709584740e-01   9.6491093931188832e-01   9.7076327492368575e-01   9.6702399954056084e-01   9.7248100071595733e-01   9.6907535574899251e-01   9.7395902871166662e-01   9.7090388789958582e-01   9.7506407803485895e-01   9.7235343704769961e-01   9.7567533890726799e-01   9.7328170443671447e-01   9.7568454947664318e-01   9.7356219607336492e-01   9.7499152700263558e-01   9.7307882992410999e-01   9.7350130280011293e-01   9.7172024207990304e-01   9.7112427277415125e-01   9.6937772460737492e-01   9.6777953856633447e-01   9.6594797749111316e-01   9.6340220663878307e-01   9.6133922394018179e-01   9.5796159586578467e-01   9.5548779577410792e-01   9.5149019430937209e-01   9.4838921129704779e-01   9.4411985888508332e-01   9.4014174069586520e-01   9.3611684185567090e-01   9.3099331490634107e-01   9.2789537300719693e-01   9.2137408865610626e-01   9.1998457419791035e-01   9.1187906515832207e-01   9.1295499680642833e-01   9.0319156072020013e-01   9.0731982601327776e-01   8.9596657099538879e-01   9.0344496059915291e-01   8.9071134263549134e-01   9.0149474548073938e-01   8.8770131632413019e-01   9.0143345279583209e-01   8.8696081125451043e-01   9.0307158956660949e-01   8.8830631623377843e-01   9.0613498250883329e-01   8.9142789199456907e-01   9.1032837752616502e-01   8.9597255443926738e-01   9.1537799842168166e-01   9.0160736515551843e-01   9.2103864520184042e-01   9.0804324126677960e-01   9.2706441479383417e-01   9.1501245770000628e-01   9.3315664466421833e-01   9.2220516028179311e-01   9.3894043207951705e-01   9.2921647530474438e-01   9.4399549379248338e-01   9.3555916878931833e-01   9.4791597424670182e-01   9.4073516506505106e-01   9.5035543184532567e-01   9.4430433269354686e-01   9.5104580735148425e-01   9.4591582126986251e-01   9.4531518832151218e-01   9.4167037961562272e-01   9.3058134687904270e-01   9.4178479709795426e-01   9.3071525701628333e-01   9.4191406458041060e-01   9.3087158714162843e-01   9.4204973550849380e-01   9.3104018114771747e-01   9.4218543892214179e-01   9.3121005016038361e-01   9.4232014800763986e-01   9.3137733737758510e-01   9.4245549101466208e-01   9.3154398031939922e-01   9.4259239699348896e-01   9.3171281614017010e-01   9.4272892137727671e-01   9.3188289888234954e-01   9.4286234538246239e-01   9.3205083695605739e-01   9.4298949936396348e-01   9.3221268365101073e-01   9.4310681857751899e-01   9.3236445778112265e-01   9.4320939017525363e-01   9.3250070851052369e-01   9.4329146285273102e-01   9.3261467395994924e-01   9.4334623550158436e-01   9.3269796062582255e-01   9.4336738949369259e-01   9.3274191391067163e-01   9.4335059220628803e-01   9.3273918978016923e-01   9.4329716498672689e-01   9.3268798103546624e-01   9.4321728902460533e-01   9.3259675499254713e-01   9.4313047986290988e-01   9.3248779696482054e-01   9.4305671279907288e-01   9.3238993340510123e-01   9.4300632863431411e-01   9.3232412571765444e-01   9.4297362946147678e-01   9.3229138647996435e-01   9.4293763693583199e-01   9.3227039834990699e-01   9.4286834375890449e-01   9.3222263627646118e-01   9.4274107028601617e-01   9.3210763752225556e-01   9.4255573254916414e-01   9.3190649318157381e-01   9.4235745587084963e-01   9.3165119010582642e-01   9.4224064079199510e-01   9.3144120387415374e-01   9.4232737280607437e-01   9.3142722798930144e-01   9.4274111119888027e-01   9.3177229972252729e-01   9.4358972670567443e-01   9.3262389540466817e-01   9.4494865563903252e-01   9.3409385455871352e-01   9.4684440747902532e-01   9.3623761811382156e-01   9.4924428796875304e-01   9.3903726906487606e-01   9.5205550346777390e-01   9.4239832956679959e-01   9.5512474374495460e-01   9.4615105102517061e-01   9.5824679129559442e-01   9.5005673876250951e-01   9.6118983631362820e-01   9.5383254570149079e-01   9.6372172596726069e-01   9.5718865802141639e-01   9.6562823706587353e-01   9.5985503781837689e-01   9.6672344617979045e-01   9.6159719304878466e-01   9.6684266918361295e-01   9.6221317969663211e-01   9.6582648674837768e-01   9.6151246367168652e-01   9.6350934888880091e-01   9.5929380200914594e-01   9.5972070571778167e-01   9.5533928852728778e-01   9.5428897561041537e-01   9.4941912798551120e-01   9.4705307305740549e-01   9.4130266527058692e-01   9.3789802168837255e-01   9.3079206269905090e-01   9.2682226732775230e-01   9.1780040131722351e-01   9.1401372178996876e-01   9.0245589806956550e-01   8.9993843243990368e-01   8.8521759941140843e-01   8.8538318133293992e-01   8.6696557411803854e-01   8.7137300017533048e-01   8.4895217848757909e-01   8.5900035563630284e-01   8.3258916586658394e-01   8.4921681942504057e-01   8.1917372106196795e-01   8.4266062949224929e-01   8.0964194699434056e-01   8.3957033565001060e-01   8.0443264664765346e-01   8.3980982577616958e-01   8.0348645767930815e-01   8.4297968125182465e-01   8.0636943909536107e-01   8.4855400910971768e-01   8.1244620324840588e-01   8.5600524136025791e-01   8.2104589380877180e-01   8.6488440179317239e-01   8.3158294505046348e-01   8.7484021697280268e-01   8.4361119273608387e-01   8.8554555777529165e-01   8.5677046399476509e-01   8.9653935512667293e-01   8.7059982861985674e-01   9.0713724438806964e-01   8.8434441389577845e-01   9.1652318077086425e-01   8.9698493634724663e-01   9.2391317682646812e-01   9.0745982355945631e-01   9.2866473181603315e-01   9.1486752144304839e-01   9.3028377690785091e-01   9.1852038042757977e-01   9.2840038218163401e-01   9.1789292798188404e-01   8.9520613232402180e-01   8.9544577098360267e-01   8.6889427886811432e-01   8.9572363194034965e-01   8.6924585267240817e-01   8.9601098885245267e-01   8.6962533541251053e-01   8.9628952266259077e-01   8.6999641608135725e-01   8.9655980558795112e-01   8.7035014966628699e-01   8.9683266036703768e-01   8.7070049969999297e-01   8.9711291992028008e-01   8.7106090488007326e-01   8.9739528024754411e-01   8.7142960606432185e-01   8.9767236100378367e-01   8.7179540441421610e-01   8.9793877425658397e-01   8.7215003684670833e-01   8.9818805952666214e-01   8.7248640565920088e-01   8.9841113180842513e-01   8.7279475350202640e-01   8.9859530121775333e-01   8.7306012966677427e-01   8.9872536977423800e-01   8.7326354189376398e-01   8.9878460480051947e-01   8.7338248227722448e-01   8.9875973162282274e-01   8.7339588233761034e-01   8.9864823171491637e-01   8.7329212342345719e-01   8.9847358764781404e-01   8.7308749114606476e-01   8.9829133767979652e-01   8.7284348700964454e-01   8.9816343785733799e-01   8.7265078468952928e-01   8.9812304082559669e-01   8.7257741140389677e-01   8.9815909630100021e-01   8.7263332091961032e-01   8.9821516404443114e-01   8.7276217271859668e-01   8.9820407423801707e-01   8.7285390173021082e-01   8.9803961437925739e-01   8.7277796022130361e-01   8.9769031716354231e-01   8.7244721223356936e-01   8.9724436660933848e-01   8.7190694372927502e-01   8.9693557429787807e-01   8.7140457456051457e-01   8.9706136455977936e-01   8.7133281357310988e-01   8.9790524147824735e-01   8.7209403684502529e-01   8.9970135941210838e-01   8.7402599957257487e-01   9.0260647636531699e-01   8.7737148274933274e-01   9.0665985653127379e-01   8.8223265403899231e-01   9.1176273261973961e-01   8.8853014047614798e-01   9.1769523305840961e-01   8.9601157689423183e-01   9.2412484762133851e-01   9.0428105262612790e-01   9.3061348825868651e-01   9.1280549397087951e-01   9.3668317459147543e-01   9.2096855306778469e-01   9.4187798408049328e-01   9.2816702196612133e-01   9.4579451173279516e-01   9.3386567690185440e-01   9.4810217562231880e-01   9.3762215443666475e-01   9.4851808002921212e-01   9.3907630193400016e-01   9.4674389793107083e-01   9.3787277381546530e-01   9.4242534509454134e-01   9.3358025987249271e-01   9.3516038209295493e-01   9.2567460331191731e-01   9.2451859307220674e-01   9.1357346751368784e-01   9.1007050441543680e-01   8.9668257777943450e-01   8.9150129831133129e-01   8.7452034404817847e-01   8.6882529557419064e-01   8.4699434583579392e-01   8.4254973155590362e-01   8.1468362461910360e-01   8.1382846905217654e-01   7.7898500570158691e-01   7.8453885737466111e-01   7.4218094838772564e-01   7.5693211983501463e-01   7.0710972905523395e-01   7.3315472282114402e-01   6.7646552754999900e-01   7.1484378527853376e-01   6.5227037840615287e-01   7.0291950868137898e-01   6.3564986623856679e-01   6.9755723522971225e-01   6.2686490152564978e-01   6.9832615474488102e-01   6.2548573514563954e-01   7.0442529591190717e-01   6.3065420218358226e-01   7.1491890785908685e-01   6.4134720417955027e-01   7.2892817260277998e-01   6.5658232545322481e-01   7.4577249370365650e-01   6.7558132808476989e-01   7.6501518934778534e-01   6.9786286693016342e-01   7.8632933292140572e-01   7.2317791130751086e-01   8.0904618458795263e-01   7.5107680238787911e-01   8.3175340535716114e-01   7.8022788044540603e-01   8.5249144938241994e-01   8.0826470445183829e-01   8.6928992441799591e-01   8.3240741274429231e-01   8.8058321410933260e-01   8.5021981973408722e-01   8.8526675747109740e-01   8.5995935023653336e-01   8.8250988414067244e-01   8.6041729481044682e-01   8.5070778623475440e-01   7.8633567947460969e-01   7.8697512736459496e-01   7.2706653290938261e-01   7.8763346938793666e-01   7.2791489173557222e-01   7.8824661024636367e-01   7.2872163289070335e-01   7.8882353060545585e-01   7.2946042156876145e-01   7.8940673542701001e-01   7.3018222273606315e-01   7.9002063396554656e-01   7.3093985330699074e-01   7.9064683552103021e-01   7.3173116298156793e-01   7.9126215913257691e-01   7.3251983115230734e-01   7.9185651455631290e-01   7.3328470022097580e-01   7.9242129889729784e-01   7.3401820617684066e-01   7.9293915612777510e-01   7.3470508308943228e-01   7.9338342917642113e-01   7.3531695211380332e-01   7.9371884036651552e-01   7.3581283729446167e-01   7.9390515873016188e-01   7.3614340053639093e-01   7.9390495083526613e-01   7.3625736945632991e-01   7.9370214664974525e-01   7.3612039885808300e-01   7.9334089670323849e-01   7.3575291082625660e-01   7.9296999037432614e-01   7.3529638324338398e-01   7.9277796680452084e-01   7.3499869354705305e-01   7.9287478261338673e-01   7.3506560402447985e-01   7.9324849615898263e-01   7.3554843388944302e-01   7.9376225796868216e-01   7.3633003884027526e-01   7.9418625542971200e-01   7.3714880598542387e-01   7.9426662060794184e-01   7.3766910925052187e-01   7.9387057891421109e-01   7.3763197684006365e-01   7.9316200166875039e-01   7.3708047970128687e-01   7.9273316801918170e-01   7.3658010056733647e-01   7.9335210047383375e-01   7.3710889725886386e-01   7.9568760400825322e-01   7.3961318919860719e-01   8.0025465220005698e-01   7.4481664344979326e-01   8.0736224583095251e-01   7.5319486127100044e-01   8.1705463855061555e-01   7.6491425858898077e-01   8.2903594680907067e-01   7.7973738085795341e-01   8.4273602334314179e-01   7.9702105782773924e-01   8.5738914264336874e-01   8.1584603486809715e-01   8.7202298704466430e-01   8.3505112113028501e-01   8.8558318358170363e-01   8.5329040267585443e-01   8.9710461215411375e-01   8.6926188255141479e-01   9.0575816909660989e-01   8.8183993889254808e-01   9.1087790589568174e-01   8.9009777414850966e-01   9.1191216196322178e-01   8.9328951665244660e-01   9.0824155150889851e-01   8.9066966424585714e-01   8.9902448920648936e-01   8.8123955840625268e-01   8.8327491723183638e-01   8.6373402089315998e-01   8.6005610991056547e-01   8.3692900329641251e-01   8.2868914789912573e-01   8.0005557663043025e-01   7.8912978418624269e-01   7.5328376983123868e-01   7.4258593937913298e-01   6.9838955995610308e-01   6.9158351381683902e-01   6.3893938703901254e-01   6.3946157252018432e-01   5.7931324114758709e-01   5.9003672619424619e-01   5.2375470527428492e-01   5.4672848933844209e-01   4.7573839744606883e-01   5.1179219631708484e-01   4.3724827313390596e-01   4.8623416997488939e-01   4.0883512137028538e-01   4.7010352267089023e-01   3.9012202241306249e-01   4.6283206944572319e-01   3.8028564385774333e-01   4.6351276506919081e-01   3.7833757428403986e-01   4.7114290341433945e-01   3.8330945185752135e-01   4.8480352236264973e-01   3.9438831348988868e-01   5.0378897224030894e-01   4.1101100304998367e-01   5.2773084876785326e-01   4.3296008084476545e-01   5.5668033995272059e-01   4.6047421245335207e-01   5.9098303825317433e-01   4.9425146409870740e-01   6.3056089536284399e-01   5.3502784028838068e-01   6.7369208790646462e-01   5.8232877101958558e-01   7.1658405310733042e-01   6.3314336953017236e-01   7.5420169037531914e-01   6.8188030775603714e-01   7.8169978187847977e-01   7.2174490966734373e-01   7.9558440627273719e-01   7.4683236824529342e-01   7.9376108509962040e-01   7.5335738667096752e-01   7.7521630841623845e-01   7.3950774951384191e-01   7.0576655117976372e-01   5.7277203271422361e-01   4.8153503018071475e-01   5.7392192214469129e-01   4.8273808822182246e-01   5.7497874449139663e-01   4.8389791813482858e-01   5.7594071358710019e-01   4.8493679409751639e-01   5.7690046626572666e-01   4.8592904367434947e-01   5.7792644183453479e-01   4.8697186414233834e-01   5.7899628272061765e-01   4.8808491409732091e-01   5.8005341412751288e-01   4.8920939387703877e-01   5.8107753312863797e-01   4.9030432346051173e-01   5.8206327744853381e-01   4.9136403841661669e-01   5.8299144608026787e-01   4.9237911662362127e-01   5.8382271810869102e-01   4.9331867670325180e-01   5.8450242624497695e-01   4.9413385204219828e-01   5.8496614788978196e-01   4.9476355841360353e-01   5.8515394189151149e-01   4.9514684636617035e-01   5.8503771967286911e-01   4.9524547355495924e-01   5.8467972269486168e-01   4.9508865625260706e-01   5.8432137540210161e-01   4.9485128658038857e-01   5.8433415301037184e-01   4.9489279616018461e-01   5.8497790127298133e-01   4.9556895558268443e-01   5.8628845163184695e-01   4.9702337786820794e-01   5.8807211768960155e-01   4.9915910592536400e-01   5.8995731618264802e-01   5.0166883999458289e-01   5.9150097815951064e-01   5.0412541731655180e-01   5.9244533337779026e-01   5.0618037613246203e-01   5.9303069575470690e-01   5.0789211863021777e-01   5.9426383185703791e-01   5.1002635937535989e-01   5.9759472425364890e-01   5.1405002846258441e-01   6.0424950660740295e-01   5.2144661741157217e-01   6.1512696082967333e-01   5.3331949181595795e-01   6.3076198657426730e-01   5.5043090056374822e-01   6.5124511634618742e-01   5.7311015412799926e-01   6.7608503586110003e-01   6.0112763511797096e-01   7.0419271641682746e-01   6.3353632289594830e-01   7.3407928322121596e-01   6.6878212695199446e-01   7.6387626200674941e-01   7.0483352001208321e-01   7.9146782980364083e-01   7.3921659430077358e-01   8.1484672433931804e-01   7.6936142667585083e-01   8.3227910643162262e-01   7.9295906883981293e-01   8.4230865645400188e-01   8.08021704