<?xml version="1.0"?>
<VTKFile type="UnstructuredGrid"  version="0.1"  >
<UnstructuredGrid>
<Piece  NumberOfPoints="4754" NumberOfCells="9224">
<Points>
<DataArray  type="Float64"  NumberOfComponents="3"  format="ascii">0.4873913043478261 0 0  0.4956521739130435 0 0  0.4956521739130435 0.008333333333333333 0  0.4873913043478261 0.008333333333333333 0  0.5039130434782608 0 0  0.5039130434782608 0.008333333333333333 0  0.5121739130434783 0 0  0.5121739130434783 0.008333333333333333 0  0.5204347826086956 0 0  0.5204347826086956 0.008333333333333333 0  0.528695652173913 0 0  0.528695652173913 0.008333333333333333 0  0.5369565217391304 0 0  0.5369565217391304 0.008333333333333333 0  0.5452173913043478 0 0  0.5452173913043478 0.008333333333333333 0  0.5534782608695652 0 0  0.5534782608695652 0.008333333333333333 0  0.5617391304347825 0 0  0.5617391304347825 0.008333333333333333 0  0.57 0 0  0.57 0.008333333333333333 0  0.5782608695652174 0 0  0.5782608695652174 0.008333333333333333 0  0.5865217391304348 0 0  0.5865217391304348 0.008333333333333333 0  0.5947826086956521 0 0  0.5947826086956521 0.008333333333333333 0  0.6030434782608696 0 0  0.6030434782608696 0.008333333333333333 0  0.6113043478260869 0 0  0.6113043478260869 0.008333333333333333 0  0.6195652173913043 0 0  0.6195652173913043 0.008333333333333333 0  0.6278260869565218 0 0  0.6278260869565218 0.008333333333333333 0  0.6360869565217391 0 0  0.6360869565217391 0.008333333333333333 0  0.6443478260869565 0 0  0.6443478260869565 0.008333333333333333 0  0.6526086956521739 0 0  0.6526086956521739 0.008333333333333333 0  0.6608695652173913 0 0  0.6608695652173913 0.008333333333333333 0  0.6691304347826087 0 0  0.6691304347826087 0.008333333333333333 0  0.677391304347826 0 0  0.677391304347826 0.008333333333333333 0  0.6856521739130435 0 0  0.6856521739130435 0.008333333333333333 0  0.6939130434782609 0 0  0.6939130434782609 0.008333333333333333 0  0.7021739130434783 0 0  0.7021739130434783 0.008333333333333333 0  0.7104347826086956 0 0  0.7104347826086956 0.008333333333333333 0  0.718695652173913 0 0  0.718695652173913 0.008333333333333333 0  0.7269565217391304 0 0  0.7269565217391304 0.008333333333333333 0  0.7352173913043478 0 0  0.7352173913043478 0.008333333333333333 0  0.7434782608695653 0 0  0.7434782608695653 0.008333333333333333 0  0.7517391304347827 0 0  0.7517391304347827 0.008333333333333333 0  0.7599999999999999 0 0  0.7599999999999999 0.008333333333333333 0  0.7682608695652173 0 0  0.7682608695652173 0.008333333333333333 0  0.7765217391304348 0 0  0.7765217391304348 0.008333333333333333 0  0.7847826086956522 0 0  0.7847826086956522 0.008333333333333333 0  0.7930434782608695 0 0  0.7930434782608695 0.008333333333333333 0  0.8013043478260868 0 0  0.8013043478260868 0.008333333333333333 0  0.8095652173913043 0 0  0.8095652173913043 0.008333333333333333 0  0.8178260869565217 0 0  0.8178260869565217 0.008333333333333333 0  0.8260869565217391 0 0  0.8260869565217391 0.008333333333333333 0  0.8343478260869565 0 0  0.8343478260869565 0.008333333333333333 0  0.8426086956521739 0 0  0.8426086956521739 0.008333333333333333 0  0.8508695652173912 0 0  0.8508695652173912 0.008333333333333333 0  0.8591304347826086 0 0  0.8591304347826086 0.008333333333333333 0  0.8673913043478261 0 0  0.8673913043478261 0.008333333333333333 0  0.8756521739130434 0 0  0.8756521739130434 0.008333333333333333 0  0.8839130434782608 0 0  0.8839130434782608 0.008333333333333333 0  0.8921739130434783 0 0  0.8921739130434783 0.008333333333333333 0  0.9004347826086956 0 0  0.9004347826086956 0.008333333333333333 0  0.908695652173913 0 0  0.908695652173913 0.008333333333333333 0  0.9169565217391303 0 0  0.9169565217391303 0.008333333333333333 0  0.9252173913043478 0 0  0.9252173913043478 0.008333333333333333 0  0.9334782608695652 0 0  0.9334782608695652 0.008333333333333333 0  0.9417391304347826 0 0  0.9417391304347826 0.008333333333333333 0  0.95 0 0  0.95 0.008333333333333333 0  0.9582608695652173 0 0  0.9582608695652173 0.008333333333333333 0  0.9665217391304347 0 0  0.9665217391304347 0.008333333333333333 0  0.9747826086956521 0 0  0.9747826086956521 0.008333333333333333 0  0.9830434782608696 0 0  0.9830434782608696 0.008333333333333333 0  0.991304347826087 0 0  0.991304347826087 0.008333333333333333 0  0.9995652173913042 0 0  0.9995652173913042 0.008333333333333333 0  1.007826086956522 0 0  1.007826086956522 0.008333333333333333 0  1.016086956521739 0 0  1.016086956521739 0.008333333333333333 0  1.024347826086957 0 0  1.024347826086957 0.008333333333333333 0  1.032608695652174 0 0  1.032608695652174 0.008333333333333333 0  1.040869565217391 0 0  1.040869565217391 0.008333333333333333 0  1.049130434782609 0 0  1.049130434782609 0.008333333333333333 0  1.057391304347826 0 0  1.057391304347826 0.008333333333333333 0  1.065652173913043 0 0  1.065652173913043 0.008333333333333333 0  1.073913043478261 0 0  1.073913043478261 0.008333333333333333 0  1.082173913043478 0 0  1.082173913043478 0.008333333333333333 0  1.090434782608696 0 0  1.090434782608696 0.008333333333333333 0  1.098695652173913 0 0  1.098695652173913 0.008333333333333333 0  1.10695652173913 0 0  1.10695652173913 0.008333333333333333 0  1.115217391304348 0 0  1.115217391304348 0.008333333333333333 0  1.123478260869565 0 0  1.123478260869565 0.008333333333333333 0  1.131739130434783 0 0  1.131739130434783 0.008333333333333333 0  1.14 0 0  1.14 0.008333333333333333 0  1.148260869565217 0 0  1.148260869565217 0.008333333333333333 0  1.156521739130435 0 0  1.156521739130435 0.008333333333333333 0  1.164782608695652 0 0  1.164782608695652 0.008333333333333333 0  1.17304347826087 0 0  1.17304347826087 0.008333333333333333 0  0.4956521739130435 0.01666666666666667 0  0.5039130434782608 0.01666666666666667 0  0.5121739130434783 0.01666666666666667 0  0.5204347826086956 0.01666666666666667 0  0.528695652173913 0.01666666666666667 0  0.5369565217391304 0.01666666666666667 0  0.5452173913043478 0.01666666666666667 0  0.5534782608695652 0.01666666666666667 0  0.5617391304347825 0.01666666666666667 0  0.57 0.01666666666666667 0  0.5782608695652174 0.01666666666666667 0  0.5865217391304348 0.01666666666666667 0  0.5947826086956521 0.01666666666666667 0  0.6030434782608696 0.01666666666666667 0  0.6113043478260869 0.01666666666666667 0  0.6195652173913043 0.01666666666666667 0  0.6278260869565218 0.01666666666666667 0  0.6360869565217391 0.01666666666666667 0  0.6443478260869565 0.01666666666666667 0  0.6526086956521739 0.01666666666666667 0  0.6608695652173913 0.01666666666666667 0  0.6691304347826087 0.01666666666666667 0  0.677391304347826 0.01666666666666667 0  0.6856521739130435 0.01666666666666667 0  0.6939130434782609 0.01666666666666667 0  0.7021739130434783 0.01666666666666667 0  0.7104347826086956 0.01666666666666667 0  0.718695652173913 0.01666666666666667 0  0.7269565217391304 0.01666666666666667 0  0.7352173913043478 0.01666666666666667 0  0.7434782608695653 0.01666666666666667 0  0.7517391304347827 0.01666666666666667 0  0.7599999999999999 0.01666666666666667 0  0.7682608695652173 0.01666666666666667 0  0.7765217391304348 0.01666666666666667 0  0.7847826086956522 0.01666666666666667 0  0.7930434782608695 0.01666666666666667 0  0.8013043478260868 0.01666666666666667 0  0.8095652173913043 0.01666666666666667 0  0.8178260869565217 0.01666666666666667 0  0.8260869565217391 0.01666666666666667 0  0.8343478260869565 0.01666666666666667 0  0.8426086956521739 0.01666666666666667 0  0.8508695652173912 0.01666666666666667 0  0.8591304347826086 0.01666666666666667 0  0.8673913043478261 0.01666666666666667 0  0.8756521739130434 0.01666666666666667 0  0.8839130434782608 0.01666666666666667 0  0.8921739130434783 0.01666666666666667 0  0.9004347826086956 0.01666666666666667 0  0.908695652173913 0.01666666666666667 0  0.9169565217391303 0.01666666666666667 0  0.9252173913043478 0.01666666666666667 0  0.9334782608695652 0.01666666666666667 0  0.9417391304347826 0.01666666666666667 0  0.95 0.01666666666666667 0  0.9582608695652173 0.01666666666666667 0  0.9665217391304347 0.01666666666666667 0  0.9747826086956521 0.01666666666666667 0  0.9830434782608696 0.01666666666666667 0  0.991304347826087 0.01666666666666667 0  0.9995652173913042 0.01666666666666667 0  1.007826086956522 0.01666666666666667 0  1.016086956521739 0.01666666666666667 0  1.024347826086957 0.01666666666666667 0  1.032608695652174 0.01666666666666667 0  1.040869565217391 0.01666666666666667 0  1.049130434782609 0.01666666666666667 0  1.057391304347826 0.01666666666666667 0  1.065652173913043 0.01666666666666667 0  1.073913043478261 0.01666666666666667 0  1.082173913043478 0.01666666666666667 0  1.090434782608696 0.01666666666666667 0  1.098695652173913 0.01666666666666667 0  1.10695652173913 0.01666666666666667 0  1.115217391304348 0.01666666666666667 0  1.123478260869565 0.01666666666666667 0  1.131739130434783 0.01666666666666667 0  1.14 0.01666666666666667 0  1.148260869565217 0.01666666666666667 0  1.156521739130435 0.01666666666666667 0  1.164782608695652 0.01666666666666667 0  1.17304347826087 0.01666666666666667 0  0.5039130434782608 0.025 0  0.5121739130434783 0.025 0  0.5204347826086956 0.025 0  0.528695652173913 0.025 0  0.5369565217391304 0.025 0  0.5452173913043478 0.025 0  0.5534782608695652 0.025 0  0.5617391304347825 0.025 0  0.57 0.025 0  0.5782608695652174 0.025 0  0.5865217391304348 0.025 0  0.5947826086956521 0.025 0  0.6030434782608696 0.025 0  0.6113043478260869 0.025 0  0.6195652173913043 0.025 0  0.6278260869565218 0.025 0  0.6360869565217391 0.025 0  0.6443478260869565 0.025 0  0.6526086956521739 0.025 0  0.6608695652173913 0.025 0  0.6691304347826087 0.025 0  0.677391304347826 0.025 0  0.6856521739130435 0.025 0  0.6939130434782609 0.025 0  0.7021739130434783 0.025 0  0.7104347826086956 0.025 0  0.718695652173913 0.025 0  0.7269565217391304 0.025 0  0.7352173913043478 0.025 0  0.7434782608695653 0.025 0  0.7517391304347827 0.025 0  0.7599999999999999 0.0
[...]
<CellData  Scalars="sigma_m"> 
<DataArray  type="Float64"  Name="sigma_m"  format="ascii">7.0837256839597253e+06   7.0758667947663004e+06   7.0503058478104677e+06   7.0553081388109811e+06   7.0175679568243958e+06   7.0346861089128824e+06   6.9880670048350226e+06   7.0140982688463777e+06   6.9678600336208912e+06   6.9946851876472486e+06   6.9674608370536929e+06   6.9807744285632139e+06   6.9986866834190823e+06   6.9806292855773978e+06   7.0633620612134915e+06   6.9988128360723453e+06   7.1408325889752414e+06   7.0243404303932581e+06   7.2055356182287950e+06   7.0438649029527064e+06   7.2448392490714593e+06   7.0521483746745232e+06   7.2591057130297553e+06   7.0500787698556734e+06   7.2545589562710058e+06   7.0405516024739044e+06   7.2379497502539130e+06   7.0263255769427745e+06   7.2144143715360258e+06   7.0093914230859019e+06   7.1872315802455507e+06   6.9909971060763188e+06   7.1582671676315563e+06   6.9718566850686949e+06   7.1284933703576149e+06   6.9523521938336119e+06   7.0983798531251308e+06   6.9326774284700109e+06   7.0681379247371834e+06   6.9129265383085469e+06   7.0378560894437861e+06   6.8931436989606610e+06   7.0075688701395635e+06   6.8733491900236085e+06   6.9772891053009564e+06   6.8535523309628153e+06   6.9470221542838998e+06   6.8337577031837478e+06   6.9167718165225349e+06   6.8139680473236879e+06   6.8865429464666890e+06   6.7941857128489707e+06   6.8563428706417093e+06   6.7744134044188159e+06   6.8261826603384567e+06   6.7546547818438252e+06   6.7960784432273926e+06   6.7349151518773641e+06   6.7660524099442326e+06   6.7152025760968952e+06   6.7361318510475792e+06   6.6955293005683590e+06   6.7063432827615952e+06   6.6759132721125707e+06   6.6766970391909750e+06   6.6563784702401897e+06   6.6471582126869140e+06   6.6369509238150213e+06   6.6176076129599465e+06   6.6176433411639296e+06   6.5878268909169817e+06   6.5984185364562916e+06   6.5576207044627639e+06   6.5791358245476028e+06   6.5273191722216215e+06   6.5595759788047038e+06   6.4988638428503964e+06   6.5399043814240703e+06   6.4770455896218056e+06   6.5219414067800650e+06   6.4696267835306888e+06   6.5105109000225598e+06   6.4854796834102115e+06   6.5132493769004950e+06   6.5223962790685901e+06   6.5300048217126140e+06   6.5608653658153089e+06   6.5472842777734818e+06   6.5851173820200805e+06   6.5555532887378838e+06   6.5942533335592747e+06   6.5545287782325093e+06   6.5986717505612373e+06   6.5493169215154508e+06   6.6138869306322476e+06   6.5480389742841301e+06   6.6546522848585239e+06   6.5601313204166489e+06   6.7270139380001575e+06   6.5912945880235098e+06   6.8180779976228327e+06   6.6343959711697400e+06   6.9029476537976637e+06   6.6743919863035139e+06   6.9630249788455805e+06   6.7010054761946257e+06   6.9941727889617598e+06   6.7127198014372000e+06   7.0016875290653473e+06   6.7126419383489015e+06   6.9933802784167305e+06   6.7047062726269104e+06   6.9758725694061890e+06   6.6921018479362410e+06   6.9536263795587327e+06   6.6769692330042757e+06   6.9292365831852062e+06   6.6605829668001095e+06   6.9040388051396674e+06   6.6436334525635364e+06   6.8786377270814208e+06   6.6264629580930574e+06   6.8532623272145921e+06   6.6092251925414903e+06   6.8279714562447704e+06   6.5919804297615914e+06   6.8027593167288406e+06   6.5747470219341423e+06   6.7776032262626765e+06   6.5575269200579254e+06   6.7524818230230091e+06   6.5403171176438443e+06   6.7273798887189440e+06   6.5231141204008926e+06   6.7022880570357852e+06   6.5059152898203498e+06   6.6772011504721632e+06   6.4887189674431318e+06   6.6521165793593023e+06   6.4715242343912907e+06   6.6270331916861236e+06   6.4543306391313672e+06   6.6019505611552922e+06   6.4371379925856199e+06   6.5768685911062537e+06   6.4199462387611084e+06   6.5517873143160669e+06   6.4027553820623010e+06   6.5267068018438071e+06   6.3855654503561612e+06   6.5016271270806948e+06   6.3683764781172294e+06   6.4765483549365429e+06   6.3511884997673258e+06   6.4514705409374675e+06   6.3340015476832893e+06   6.4263937333202120e+06   6.3168156520220554e+06   6.4013179753903253e+06   6.2996308411082886e+06   6.3762433073033420e+06   6.2824471418729788e+06   6.3511697671758831e+06   6.2652645801770361e+06   6.3260973917160900e+06   6.2480831810122840e+06   7.0738479068771992e+06   7.0537710163312247e+06   7.0551571192019228e+06   7.0331319393379800e+06   7.0446886949230069e+06   7.0117068286627075e+06   7.0299818835784271e+06   6.9906155801477507e+06   7.0072890119883372e+06   6.9752717381081786e+06   6.9746665631616851e+06   6.9761237407835051e+06   6.9419151893998049e+06   6.9977524802858261e+06   6.9246694141603122e+06   7.0238299197939737e+06   6.9133404045752445e+06   7.0400914330709800e+06   6.8945485359896058e+06   7.0439002279265281e+06   6.8694271284658406e+06   7.0381860718164686e+06   6.8444027306521796e+06   7.0264383165317578e+06   6.8232236934274081e+06   7.0112115978041440e+06   6.8064285633376781e+06   6.9940934336811081e+06   6.7930618126090793e+06   6.9759904187940247e+06   6.7819238446490308e+06   6.9573920743356915e+06   6.7720712692646869e+06   6.9385518096522558e+06   6.7628952719794558e+06   6.9195965272312975e+06   6.7540482134843962e+06   6.9005882792483093e+06   6.7453490874181679e+06   6.8815569174343785e+06   6.7367107211594824e+06   6.8625167831365308e+06   6.7280940288100475e+06   6.8434748652559100e+06   6.7194824549271474e+06   6.8244348360967841e+06   6.7108690344959507e+06   6.8053989634716250e+06   6.7022501936087478e+06   6.7863692016132250e+06   6.6936230593728200e+06   6.7673477562987134e+06   6.6849841521656318e+06   6.7483376989091830e+06   6.6763288486735877e+06   6.7293437730605574e+06   6.6676514248591820e+06   6.7103738735052338e+06   6.6589464343100954e+06   6.6914409645555932e+06   6.6502119273014488e+06   6.6725650976163354e+06   6.6414553143054098e+06   6.6537732906025611e+06   6.6327008619310912e+06   6.6350919489638573e+06   6.6239931136833848e+06   6.6165199410373224e+06   6.6153772453352595e+06   6.5979659372882731e+06   6.6068129786417773e+06   6.5791533239181871e+06   6.5979444619422974e+06   6.5596257747163912e+06   6.5876565799172185e+06   6.5393517800671719e+06   6.5736855684862081e+06   6.5203907730749110e+06   6.5540969008070072e+06   6.5086108878133763e+06   6.5326303448667470e+06   6.5136426750714071e+06   6.5248061841555964e+06   6.5336814439462340e+06   6.5359647694444293e+06   6.5504635383505449e+06   6.5438643640158102e+06   6.5554245785843525e+06   6.5357523572155945e+06   6.5504918753281450e+06   6.5150861545730885e+06   6.5419603847643211e+06   6.4872298683154909e+06   6.5389109246648969e+06   6.4575013365333723e+06   6.5519524119528998e+06   6.4364865331318183e+06   6.5867566834598491e+06   6.4366668439239627e+06   6.6321170763872461e+06   6.4511986781131523e+06   6.6699888187939199e+06   6.4602602652548961e+06   6.6915546615324365e+06   6.4549422587658977e+06   6.6983266147239320e+06   6.4402374142138753e+06   6.6948195254897336e+06   6.4233553058097744e+06   6.6850250979286917e+06   6.4079913803519299e+06   6.6716976552509684e+06   6.3949620952979838e+06   6.6565258786436925e+06   6.3838412924332386e+06   6.6404616457152450e+06   6.3739485526442137e+06   6.6240027675691899e+06   6.3647311166916061e+06   6.6073902829762371e+06   6.3558356738413284e+06   6.5907307624835717e+06   6.3470688439112101e+06   6.5740656635403642e+06   6.3383386519411402e+06   6.5574076919725994e+06   6.3296083736986304e+06   6.5407584123948272e+06   6.3208675297316695e+06   6.5241160177678009e+06   6.3121161583198616e+06   6.5074783311286857e+06   6.3033573575049927e+06   6.4908437049515611e+06   6.2945942885583779e+06   6.4742111102795461e+06   6.2858292912723804e+06   6.4575799852608424e+06   6.2770638494380945e+06   6.4409500622156449e+06   6.2682988103841934e+06   6.4243212377265589e+06   6.2595346182544203e+06   6.4076934909500470e+06   6.2507714884247798e+06   6.3910668379690396e+06   6.2420095182765946e+06   6.3744413087697867e+06   6.2332487500940897e+06   6.3578169368547639e+06   6.2244892035068618e+06   6.3411937552170539e+06   6.2157308905957369e+06   6.3245717952087158e+06   6.2069738220505165e+06   6.3079510864965478e+06   6.1982180091709662e+06   6.2913316573501891e+06   6.1894634641503980e+06   6.2747135349422721e+06   6.1807101998036020e+06   6.2580967455604635e+06   6.1719582292330870e+06   6.2414813147428017e+06   6.1632075655498579e+06   7.0540705291991178e+06   7.0434646609342676e+06   7.0556100968736038e+06   7.0276550662221778e+06   7.0514631655362295e+06   7.0023950653349552e+06   7.0357551951355133e+06   6.9663710167933404e+06   6.9962826628651237e+06   6.9337976636218140e+06   6.9266093524184274e+06   6.9222988701269384e+06   6.8559009548612628e+06   6.9118218243113142e+06   6.7914820274068443e+06   6.8887090224554241e+06   6.7277914413749613e+06   6.8587095016927784e+06   6.6702205086416872e+06   6.8304496388916550e+06   6.6264507167536234e+06   6.8077349424781110e+06   6.5980473843513317e+06   6.7905440943564204e+06   6.5820308222043561e+06   6.7774146540500550e+06   6.5743417198185828e+06   6.7668265111058969e+06   6.5716299437052831e+06   6.7576645854975954e+06   6.5716487922661994e+06   6.7492376829317408e+06   6.5730654922562828e+06   6.7411619785470972e+06   6.5751548480014456e+06   6.7332419077291368e+06   6.5775485719355987e+06   6.7253848577868911e+06   6.5800701753260978e+06   6.7175498767959708e+06   6.5826392094310252e+06   6.7097196950597372e+06   6.5852199799622428e+06   6.7018869834996443e+06   6.5877961860501617e+06   6.6940477626210842e+06   6.5903585864732582e+06   6.6861987091904972e+06   6.5928995172530077e+06   6.6783356956471466e+06   6.5954099381578220e+06   6.6704533308671853e+06   6.5978778635528814e+06   6.6625450321171554e+06   6.6002869831415573e+06   6.6546047821194855e+06   6.6026165710930703e+06   6.6466306181099070e+06   6.6048428849278232e+06   6.6386307870084457e+06   6.6069438251727344e+06   6.6306304281528061e+06   6.6089068462286936e+06   6.6226713704807814e+06   6.6107381762955226e+06   6.6147811970480653e+06   6.6124594853183758e+06   6.6068603586156648e+06   6.6140523149968050e+06   6.5983971458179448e+06   6.6152492011374207e+06   6.5879359408081425e+06   6.6149348862294517e+06   6.5726676134007527e+06   6.6097001424746625e+06   6.5505723549588779e+06   6.5918110098802121e+06   6.5273355152896252e+06   6.5570576248493148e+06   6.5237678681992739e+06   6.5330717670925790e+06   6.5416691799964253e+06   6.5397281772342874e+06   6.5481964856598061e+06   6.5390360131569151e+06   6.5347623479413884e+06   6.5142406593229845e+06   6.5087502082191883e+06   6.4761103000356900e+06   6.4762562728711478e+06   6.4303920424066773e+06   6.4434603535974501e+06   6.3745039739964493e+06   6.4235409001273662e+06   6.3156022269083960e+06   6.4303864214360518e+06   6.2795364310079152e+06   6.4496637352463827e+06   6.2645695206203023e+06   6.4563802044530632e+06   6.2435536127941245e+06   6.4447024004597450e+06   6.2066992859408939e+06   6.4245285017225342e+06   6.1659473221142404e+06   6.4043529647624437e+06   6.1329647611393081e+06   6.3874684634188302e+06   6.1108634404491093e+06   6.3740163391922042e+06   6.0978441291356236e+06   6.3630571908527445e+06   6.0909038684381228e+06   6.3536019098762525e+06   6.0875011987804854e+06   6.3449360713977506e+06   6.0859363748406190e+06   6.3366309753365107e+06   6.0852227928466089e+06   6.3284623915793169e+06   6.0848491091208849e+06   6.3203280587181281e+06   6.0845789965569768e+06   6.3121893044785578e+06   6.0843183635673402e+06   6.3040364426075900e+06   6.0840387737809541e+06   6.2958707937922869e+06   6.0837379233044600e+06   6.2876964969829805e+06   6.0834214191604145e+06   6.2795173902999917e+06   6.0830955289344620e+06   6.2713361986873932e+06   6.0827649828785174e+06   6.2631546023912830e+06   6.0824327858153433e+06   6.2549735380772734e+06   6.0821006390312361e+06   6.2467934846209995e+06   6.0817694154444663e+06   6.2386146672474304e+06   6.0814395189830968e+06   6.2304371834333399e+06   6.0811111130360402e+06   6.2222610726896357e+06   6.0807842498734165e+06   6.2140863517003264e+06   6.0804589370228695e+06   6.2059130302291838e+06   6.0801351679569427e+06   6.1977411173271425e+06   6.0798129344476787e+06   6.1895706231652983e+06   6.0794922304427074e+06   6.1814015591456247e+06   6.0791730525405845e+06   6.1732339374905704e+06   6.0788553993803710e+06   6.1650677708297307e+06   6.0785392709042765e+06   6.1569030718733696e+06   6.0782246677972004e+06   7.0558930462073432e+06   7.0518289628352998e+06   7.0849776489858869e+06   7.0354286069812663e+06   7.0947063600112936e+06   6.9929122609935580e+06   7.0921874505165750e+06   6.9196922834584927e+06   7.0337331496193809e+06   6.8538371609701440e+06   6.8435222216461198e+06   6.7870135052732565e+06   6.6240951528909225e+06   6.7153165126225129e+06   6.4854235323495958e+06   6.6521126194706969e+06   6.4060680411198568e+06   6.6066408225013912e+06   6.3640140527961785e+06   6.5787854259271128e+06   6.3461872333888374e+06   6.5640788556336351e+06   6.3430299686051365e+06   6.5577573578097597e+06   6.3481336917161895e+06   6.5562579334494695e+06   6.3576423826071536e+06   6.5573249688450471e+06   6.3694032312693046e+06   6.5596728577469885e+06   6.3822749369741865e+06   6.5626231305499058e+06   6.3956761791459350e+06   6.5658400540391225e+06   6.4093197594517907e+06   6.5691660888632312e+06   6.4230675896042660e+06   6.5725307958487030e+06   6.4368540806191200e+06   6.5759030856617894e+06   6.4506479543564459e+06   6.5792686681911601e+06   6.4644328278729776e+06   6.5826188055136334e+06   6.4781982768745814e+06   6.5859458721677698e+06   6.4919342420139154e+06   6.5892403544035098e+06   6.5056285835433332e+06   6.5924896546678618e+06   6.5192646726129381e+06   6.5956764039463298e+06   6.5328193659234624e+06   6.5987787223565886e+06   6.5462587084687958e+06   6.6017712216766011e+06   6.5595340119510926e+06   6.6046297169301640e+06   6.5725781070375098e+06   6.6073382471288862e+06   6.5853055550624635e+06   6.6098972600509655e+06   6.5976193343384936e+06   6.6123166134903766e+06   6.6094330367290927e+06   6.6145510432882477e+06   6.6207124689548686e+06   6.6162631252305638e+06   6.6315107714483021e+06   6.6161276055851579e+06   6.6418359685433488e+06   6.6100780075017288e+06   6.6506392265177267e+06   6.5888427488279752e+06   6.6512631397846211e+06   6.5493863978984682e+06   6.6189737544732327e+06   6.5316270133531168e+06   6.5695031029606331e+06   6.5500889973803898e+06   6.5477736786210481e+06   6.5446232652327605e+06   6.5167594579683645e+06   6.5111680253849756e+06   6.4700228740328047e+06   6.4674588383852988e+06   6.4257550557216080e+06   6.4178727449417990e+06   6.3859970727610132e+06   6.3582776901990836e+06   6.3335457914772052e+06   6.2992470942661138e+06   6.2468361405161694e+06   6.2721278572598677e+06   6.1496964552591797e+06   6.2634002023075745e+06   6.0660931101938114e+06   6.2373691428286629e+06   5.9916445683206338e+06   6.1907896033679321e+06   5.9191127828046139e+06   6.1442582333426811e+06   5.8587358611710705e+06   6.1094279476981740e+06   5.8199649247093992e+06   6.0874994673863100e+06   5.8003625198547700e+06   6.0753616038559079e+06   5.7937348051935574e+06   6.0694109311767714e+06   5.7947018530667918e+06   6.0669085500846906e+06   5.7996842550626341e+06   6.0661287303856276e+06   5.8066044892408773e+06   6.0661124804431023e+06   5.8143684433398126e+06   6.0663819062928744e+06   5.8224492740512220e+06   6.0667256684217304e+06   5.8306182350519253e+06   6.0670649984996645e+06   5.8387900009163134e+06   6.0673796859582216e+06   5.8469414599432638e+06   6.0676713358437046e+06   5.8550726499593193e+06   6.0679471571446992e+06   5.8631898208990674e+06   6.0682139255775101e+06   5.8712991445705751e+06   6.0684764312503906e+06   5.8794050400381265e+06   6.0687375959810773e+06   5.8875102104249522e+06   6.0689990202707453e+06   5.8956161322280997e+06   6.0692614984340677e+06   5.9037235308057601e+06   6.0695253830950959e+06   5.9118327195596602e+06   6.0697908076088568e+06   5.9199438075128058e+06   6.0700578079838306e+06   5.9280568131354935e+06   6.0703263834153395e+06   5.9361717208653074e+06   6.0705965231861975e+06   5.9442885062102890e+06   6.0708682168427948e+06   5.9524071452457448e+06   6.0711414569425844e+06   5.9605276171809090e+06   6.0714162389963120e+06   5.9686499043027069e+06   6.0716925606347341e+06   5.9767739912146544e+06   6.0719704208029294e+06   5.9848998640868478e+06   6.0722498191860402e+06   5.9930275101288659e+06   6.0011569172531571e+06   7.0894952708174177e+06   7.1032863599396581e+06   7.1759015162560856e+06   7.1087288572992375e+06   7.2546184181927638e+06   7.0548954883161904e+06   7.3993865428018216e+06   6.8494740479958011e+06   7.2737157131892443e+06   6.6091995333402790e+06   6.2451351263169702e+06   6.4567133247801298e+06   5.9902582742680693e+06   6.3746753814130509e+06   5.9972446039991565e+06   6.3361204586386159e+06   6.0305710738220466e+06   6.3228935147522967e+06   6.0621694138665609e+06   6.3234819288114719e+06   6.0902789710560162e+06   6.3312394106092891e+06   6.1162624853136744e+06   6.3425849887406155e+06   6.1413250612750072e+06   6.3556768336192761e+06   6.1661131717597311e+06   6.3695975582434377e+06   6.1909104913221169e+06   6.3839025199313071e+06   6.2157878656400256e+06   6.3983790923435465e+06   6.2407489649970140e+06   6.4129275836119018e+06   6.2657553332829643e+06   6.4275002316834265e+06   6.2907876061640913e+06   6.4420741578296563e+06   6.3158173761149570e+06   6.4566361100118402e+06   6.3408393047155580e+06   6.4711773081313120e+06   6.3658359273051275e+06   6.4856877858954193e+06   6.3908074780140035e+06   6.5001557266042028e+06   6.4157329981612526e+06   6.5145640599899497e+06   6.4406044577113111e+06   6.5288895514126355e+06   6.4653918003496490e+06   6.5430967966822246e+06   6.4900701413915353e+06   6.5571347629160648e+06   6.5145688163583884e+06   6.5709306304322453e+06   6.5387875930915615e+06   6.5843896340534678e+06   6.5625403216313636e+06   6.5973995336169014e+06   6.5855660222044010e+06   6.6098566133326925e+06   6.6074958322386565e+06   6.6217190870727086e+06   6.6279823645779081e+06   6.6330724897313081e+06   6.6469999692347795e+06   6.6440255711263446e+06   6.6655691626433525e+06   6.6535502848088909e+06   6.6868850191775486e+06   6.6537656161488360e+06   6.7173366365441913e+06   6.6142683324650265e+06   6.7627902558346642e+06   6.5696373099598754e+06   6.7580003133783648e+06   6.5632137361974241e+06   6.5910577675171569e+06   6.5197644460798362e+06   6.4016884715126911e+06   6.4609806046134960e+06   6.3424393160846308e+06   6.4143889809065619e+06   6.3333493347797450e+06   6.3759954583566664e+06   6.3462304791757567e+06   6.3237896653722906e+06   6.3625201770150932e+06   6.2350750980885150e+06   6.3438548521540165e+06   6.1439553009880427e+06   6.1688270556694334e+06   6.0621356043606494e+06   5.8424800981679317e+06   5.9772807245343011e+06   5.6096729788086619e+06   5.8905882657284960e+06   5.5223585557260038e+06   5.8265543788012266e+06   5.4805237262958530e+06   5.7899008899018653e+06   5.4675840858115759e+06   5.7736594574638102e+06   5.4706584344178913e+06   5.7698932121047694e+06   5.4813445172763783e+06   5.7729164493567692e+06   5.4954080378465550e+06   5.7793139910174087e+06   5.5109260082083223e+06   5.7872407254701871e+06   5.5270591072961362e+06   5.7957827557252785e+06   5.5434464595575118e+06   5.8045269851894695e+06   5.5599348259788314e+06   5.8133079438529490e+06   5.5764607462251671e+06   5.8220719702853635e+06   5.5929992563612228e+06   5.8308100963805327e+06   5.6095414822264835e+06   5.8395277564742267e+06   5.6260849130039820e+06   5.8482326969432402e+06   5.6426292929840451e+06   5.8569311007005116e+06   5.6591749859314505e+06   5.8656269873373015e+06   5.6757223954419224e+06   5.8743226584743131e+06   5.6922718086360348e+06   5.8830192995920368e+06   5.7088233899758253e+06   5.8917174557281584e+06   5.7253772149149626e+06   5.9004173400494102e+06   5.7419333042403497e+06   5.9091190108579574e+06   5.75849164