<?xml version="1.0"?>
<VTKFile type="UnstructuredGrid"  version="0.1"  >
<UnstructuredGrid>
<Piece  NumberOfPoints="4741" NumberOfCells="9202">
<Points>
<DataArray  type="Float64"  NumberOfComponents="3"  format="ascii">2.337826086956521 0 0  2.346086956521739 0 0  2.346086956521739 0.008333333333333333 0  2.354347826086956 0 0  2.354347826086956 0.008333333333333333 0  2.362608695652174 0 0  2.362608695652174 0.008333333333333333 0  2.370869565217391 0 0  2.370869565217391 0.008333333333333333 0  2.379130434782609 0 0  2.379130434782609 0.008333333333333333 0  2.387391304347826 0 0  2.387391304347826 0.008333333333333333 0  2.395652173913044 0 0  2.395652173913044 0.008333333333333333 0  2.403913043478261 0 0  2.403913043478261 0.008333333333333333 0  2.412173913043478 0 0  2.412173913043478 0.008333333333333333 0  2.420434782608695 0 0  2.420434782608695 0.008333333333333333 0  2.428695652173913 0 0  2.428695652173913 0.008333333333333333 0  2.43695652173913 0 0  2.43695652173913 0.008333333333333333 0  2.445217391304348 0 0  2.445217391304348 0.008333333333333333 0  2.453478260869565 0 0  2.453478260869565 0.008333333333333333 0  2.461739130434782 0 0  2.461739130434782 0.008333333333333333 0  2.47 0 0  2.47 0.008333333333333333 0  2.478260869565217 0 0  2.478260869565217 0.008333333333333333 0  2.486521739130435 0 0  2.486521739130435 0.008333333333333333 0  2.494782608695652 0 0  2.494782608695652 0.008333333333333333 0  2.503043478260869 0 0  2.503043478260869 0.008333333333333333 0  2.511304347826087 0 0  2.511304347826087 0.008333333333333333 0  2.519565217391305 0 0  2.519565217391305 0.008333333333333333 0  2.527826086956522 0 0  2.527826086956522 0.008333333333333333 0  2.536086956521739 0 0  2.536086956521739 0.008333333333333333 0  2.544347826086956 0 0  2.544347826086956 0.008333333333333333 0  2.552608695652174 0 0  2.552608695652174 0.008333333333333333 0  2.560869565217391 0 0  2.560869565217391 0.008333333333333333 0  2.569130434782608 0 0  2.569130434782608 0.008333333333333333 0  2.577391304347826 0 0  2.577391304347826 0.008333333333333333 0  2.585652173913043 0 0  2.585652173913043 0.008333333333333333 0  2.593913043478261 0 0  2.593913043478261 0.008333333333333333 0  2.602173913043478 0 0  2.602173913043478 0.008333333333333333 0  2.610434782608696 0 0  2.610434782608696 0.008333333333333333 0  2.618695652173913 0 0  2.618695652173913 0.008333333333333333 0  2.62695652173913 0 0  2.62695652173913 0.008333333333333333 0  2.635217391304348 0 0  2.635217391304348 0.008333333333333333 0  2.643478260869565 0 0  2.643478260869565 0.008333333333333333 0  2.651739130434783 0 0  2.651739130434783 0.008333333333333333 0  2.66 0 0  2.66 0.008333333333333333 0  2.668260869565217 0 0  2.668260869565217 0.008333333333333333 0  2.676521739130435 0 0  2.676521739130435 0.008333333333333333 0  2.684782608695652 0 0  2.684782608695652 0.008333333333333333 0  2.693043478260869 0 0  2.693043478260869 0.008333333333333333 0  2.701304347826087 0 0  2.701304347826087 0.008333333333333333 0  2.709565217391304 0 0  2.709565217391304 0.008333333333333333 0  2.717826086956522 0 0  2.717826086956522 0.008333333333333333 0  2.726086956521739 0 0  2.726086956521739 0.008333333333333333 0  2.734347826086956 0 0  2.734347826086956 0.008333333333333333 0  2.742608695652174 0 0  2.742608695652174 0.008333333333333333 0  2.750869565217391 0 0  2.750869565217391 0.008333333333333333 0  2.759130434782609 0 0  2.759130434782609 0.008333333333333333 0  2.767391304347826 0 0  2.767391304347826 0.008333333333333333 0  2.775652173913044 0 0  2.775652173913044 0.008333333333333333 0  2.783913043478261 0 0  2.783913043478261 0.008333333333333333 0  2.792173913043478 0 0  2.792173913043478 0.008333333333333333 0  2.800434782608696 0 0  2.800434782608696 0.008333333333333333 0  2.808695652173913 0 0  2.808695652173913 0.008333333333333333 0  2.81695652173913 0 0  2.81695652173913 0.008333333333333333 0  2.825217391304347 0 0  2.825217391304347 0.008333333333333333 0  2.833478260869565 0 0  2.833478260869565 0.008333333333333333 0  2.841739130434783 0 0  2.841739130434783 0.008333333333333333 0  2.85 0 0  2.85 0.008333333333333333 0  2.858260869565217 0 0  2.858260869565217 0.008333333333333333 0  2.866521739130435 0 0  2.866521739130435 0.008333333333333333 0  2.874782608695652 0 0  2.874782608695652 0.008333333333333333 0  2.88304347826087 0 0  2.88304347826087 0.008333333333333333 0  2.891304347826087 0 0  2.891304347826087 0.008333333333333333 0  2.899565217391304 0 0  2.899565217391304 0.008333333333333333 0  2.907826086956522 0 0  2.907826086956522 0.008333333333333333 0  2.916086956521739 0 0  2.916086956521739 0.008333333333333333 0  2.924347826086957 0 0  2.924347826086957 0.008333333333333333 0  2.932608695652174 0 0  2.932608695652174 0.008333333333333333 0  2.940869565217391 0 0  2.940869565217391 0.008333333333333333 0  2.949130434782608 0 0  2.949130434782608 0.008333333333333333 0  2.957391304347826 0 0  2.957391304347826 0.008333333333333333 0  2.965652173913043 0 0  2.965652173913043 0.008333333333333333 0  2.973913043478261 0 0  2.973913043478261 0.008333333333333333 0  2.982173913043478 0 0  2.982173913043478 0.008333333333333333 0  2.990434782608696 0 0  2.990434782608696 0.008333333333333333 0  2.998695652173913 0 0  2.998695652173913 0.008333333333333333 0  3.006956521739131 0 0  3.006956521739131 0.008333333333333333 0  3.015217391304348 0 0  3.015217391304348 0.008333333333333333 0  2.354347826086956 0.01666666666666667 0  2.346086956521739 0.01666666666666667 0  2.362608695652174 0.01666666666666667 0  2.370869565217391 0.01666666666666667 0  2.379130434782609 0.01666666666666667 0  2.387391304347826 0.01666666666666667 0  2.395652173913044 0.01666666666666667 0  2.403913043478261 0.01666666666666667 0  2.412173913043478 0.01666666666666667 0  2.420434782608695 0.01666666666666667 0  2.428695652173913 0.01666666666666667 0  2.43695652173913 0.01666666666666667 0  2.445217391304348 0.01666666666666667 0  2.453478260869565 0.01666666666666667 0  2.461739130434782 0.01666666666666667 0  2.47 0.01666666666666667 0  2.478260869565217 0.01666666666666667 0  2.486521739130435 0.01666666666666667 0  2.494782608695652 0.01666666666666667 0  2.503043478260869 0.01666666666666667 0  2.511304347826087 0.01666666666666667 0  2.519565217391305 0.01666666666666667 0  2.527826086956522 0.01666666666666667 0  2.536086956521739 0.01666666666666667 0  2.544347826086956 0.01666666666666667 0  2.552608695652174 0.01666666666666667 0  2.560869565217391 0.01666666666666667 0  2.569130434782608 0.01666666666666667 0  2.577391304347826 0.01666666666666667 0  2.585652173913043 0.01666666666666667 0  2.593913043478261 0.01666666666666667 0  2.602173913043478 0.01666666666666667 0  2.610434782608696 0.01666666666666667 0  2.618695652173913 0.01666666666666667 0  2.62695652173913 0.01666666666666667 0  2.635217391304348 0.01666666666666667 0  2.643478260869565 0.01666666666666667 0  2.651739130434783 0.01666666666666667 0  2.66 0.01666666666666667 0  2.668260869565217 0.01666666666666667 0  2.676521739130435 0.01666666666666667 0  2.684782608695652 0.01666666666666667 0  2.693043478260869 0.01666666666666667 0  2.701304347826087 0.01666666666666667 0  2.709565217391304 0.01666666666666667 0  2.717826086956522 0.01666666666666667 0  2.726086956521739 0.01666666666666667 0  2.734347826086956 0.01666666666666667 0  2.742608695652174 0.01666666666666667 0  2.750869565217391 0.01666666666666667 0  2.759130434782609 0.01666666666666667 0  2.767391304347826 0.01666666666666667 0  2.775652173913044 0.01666666666666667 0  2.783913043478261 0.01666666666666667 0  2.792173913043478 0.01666666666666667 0  2.800434782608696 0.01666666666666667 0  2.808695652173913 0.01666666666666667 0  2.81695652173913 0.01666666666666667 0  2.825217391304347 0.01666666666666667 0  2.833478260869565 0.01666666666666667 0  2.841739130434783 0.01666666666666667 0  2.85 0.01666666666666667 0  2.858260869565217 0.01666666666666667 0  2.866521739130435 0.01666666666666667 0  2.874782608695652 0.01666666666666667 0  2.88304347826087 0.01666666666666667 0  2.891304347826087 0.01666666666666667 0  2.899565217391304 0.01666666666666667 0  2.907826086956522 0.01666666666666667 0  2.916086956521739 0.01666666666666667 0  2.924347826086957 0.01666666666666667 0  2.932608695652174 0.01666666666666667 0  2.940869565217391 0.01666666666666667 0  2.949130434782608 0.01666666666666667 0  2.957391304347826 0.01666666666666667 0  2.965652173913043 0.01666666666666667 0  2.973913043478261 0.01666666666666667 0  2.982173913043478 0.01666666666666667 0  2.990434782608696 0.01666666666666667 0  2.998695652173913 0.01666666666666667 0  3.006956521739131 0.01666666666666667 0  3.015217391304348 0.01666666666666667 0  2.354347826086956 0.025 0  2.362608695652174 0.025 0  2.370869565217391 0.025 0  2.379130434782609 0.025 0  2.387391304347826 0.025 0  2.395652173913044 0.025 0  2.403913043478261 0.025 0  2.412173913043478 0.025 0  2.420434782608695 0.025 0  2.428695652173913 0.025 0  2.43695652173913 0.025 0  2.445217391304348 0.025 0  2.453478260869565 0.025 0  2.461739130434782 0.025 0  2.47 0.025 0  2.478260869565217 0.025 0  2.486521739130435 0.025 0  2.494782608695652 0.025 0  2.503043478260869 0.025 0  2.511304347826087 0.025 0  2.519565217391305 0.025 0  2.527826086956522 0.025 0  2.536086956521739 0.025 0  2.544347826086956 0.025 0  2.552608695652174 0.025 0  2.560869565217391 0.025 0  2.569130434782608 0.025 0  2.577391304347826 0.025 0  2.585652173913043 0.025 0  2.593913043478261 0.025 0  2.602173913043478 0.025 0  2.610434782608696 0.025 0  2.618695652173913 0.025 0  2.62695652173913 0.025 0  2.635217391304348 0.025 0  2.643478260869565 0.025 0  2.651739130434783 0.025 0  2.66 0.025 0  2.668260869565217 0.025 0  2.676521739130435 0.025 0  2.684782608695652 0.025 0  2.693043478260869 0.025 0  2.701304347826087 0.025 0  2.709565217391304 0.025 0  2.717826086956522 0.025 0  2.72608
[...]
<PointData  Vectors="Displacement"> 
<DataArray  type="Float64"  Name="Displacement"  NumberOfComponents="3" format="ascii">2.1583151960027723e-04 1.3238835713034562e-03 0.0000000000000000e+00  2.1671951568257667e-04 1.3321564245181057e-03 0.0000000000000000e+00  2.0837363101239338e-04 1.3318941482094704e-03 0.0000000000000000e+00  2.1752439525955740e-04 1.3406220287093507e-03 0.0000000000000000e+00  2.0902242687222762e-04 1.3403891978829728e-03 0.0000000000000000e+00  2.1823942928194401e-04 1.3492239026331699e-03 0.0000000000000000e+00  2.0960812274579195e-04 1.3490208674719526e-03 0.0000000000000000e+00  2.1888266853634257e-04 1.3579085765290319e-03 0.0000000000000000e+00  2.1014057671969613e-04 1.3577267739450401e-03 0.0000000000000000e+00  2.1949026293239694e-04 1.3666498797232961e-03 0.0000000000000000e+00  2.1064069901596352e-04 1.3664748809549367e-03 0.0000000000000000e+00  2.2010108263321716e-04 1.3754597737574627e-03 0.0000000000000000e+00  2.1113377125173000e-04 1.3752768724728161e-03 0.0000000000000000e+00  2.2073847843178188e-04 1.3843804682715443e-03 0.0000000000000000e+00  2.1164074119152425e-04 1.3841814736104314e-03 0.0000000000000000e+00  2.2139045030120178e-04 1.3934640414310518e-03 0.0000000000000000e+00  2.1216338108236062e-04 1.3932595522450140e-03 0.0000000000000000e+00  2.2202430465162823e-04 1.4027071692901058e-03 0.0000000000000000e+00  2.1268773121418163e-04 1.4025135226189273e-03 0.0000000000000000e+00  2.2263432010606590e-04 1.4120349482791396e-03 0.0000000000000000e+00  2.1321480178816967e-04 1.4118471703739284e-03 0.0000000000000000e+00  2.2323333617357274e-04 1.4214155935704743e-03 0.0000000000000000e+00  2.1374681656466965e-04 1.4212277736788566e-03 0.0000000000000000e+00  2.2382938372372463e-04 1.4308524544394984e-03 0.0000000000000000e+00  2.1428121741269226e-04 1.4306643771690379e-03 0.0000000000000000e+00  2.2442487952145765e-04 1.4403478264320535e-03 0.0000000000000000e+00  2.1481641420305873e-04 1.4401596011389035e-03 0.0000000000000000e+00  2.2502041146220292e-04 1.4499025299829929e-03 0.0000000000000000e+00  2.1535192738542040e-04 1.4497141246022293e-03 0.0000000000000000e+00  2.2561606923471791e-04 1.4595170558742113e-03 0.0000000000000000e+00  2.1588777352353039e-04 1.4593282536570489e-03 0.0000000000000000e+00  2.2621179104803505e-04 1.4691918731547123e-03 0.0000000000000000e+00  2.1642453423414970e-04 1.4690019967490595e-03 0.0000000000000000e+00  2.2680692839351964e-04 1.4789268190742813e-03 0.0000000000000000e+00  2.1696425398962820e-04 1.4787350773735298e-03 0.0000000000000000e+00  2.2739964045769332e-04 1.4887171366636919e-03 0.0000000000000000e+00  2.1751102054049507e-04 1.4885234864724821e-03 0.0000000000000000e+00  2.2798739312155205e-04 1.4985490159824077e-03 0.0000000000000000e+00  2.1806920009200152e-04 1.4983543587605353e-03 0.0000000000000000e+00  2.2856854958035712e-04 1.5084009381250664e-03 0.0000000000000000e+00  2.1864045556807592e-04 1.5082062593268003e-03 0.0000000000000000e+00  2.2914336042067492e-04 1.5182510347347168e-03 0.0000000000000000e+00  2.1922296503644538e-04 1.5180566657845476e-03 0.0000000000000000e+00  2.2971334516693937e-04 1.5280832844589073e-03 0.0000000000000000e+00  2.1981341020168993e-04 1.5278891414149893e-03 0.0000000000000000e+00  2.3028017856179146e-04 1.5378879954260865e-03 0.0000000000000000e+00  2.2040891443773938e-04 1.5376939662287592e-03 0.0000000000000000e+00  2.3084514374902039e-04 1.5476596633966987e-03 0.0000000000000000e+00  2.2100749909208142e-04 1.5474656849831401e-03 0.0000000000000000e+00  2.3140909212215319e-04 1.5573952324949656e-03 0.0000000000000000e+00  2.2160790012209456e-04 1.5572012665060293e-03 0.0000000000000000e+00  2.3197255269173230e-04 1.5670930832149923e-03 0.0000000000000000e+00  2.2220934595638695e-04 1.5668991059276701e-03 0.0000000000000000e+00  2.3253584056894807e-04 1.5767524215671521e-03 0.0000000000000000e+00  2.2281138403616648e-04 1.5765584188501952e-03 0.0000000000000000e+00  2.3309913789441579e-04 1.5863729172960782e-03 0.0000000000000000e+00  2.2341375621623977e-04 1.5861788790893514e-03 0.0000000000000000e+00  2.3366254550260740e-04 1.5959544960233456e-03 0.0000000000000000e+00  2.2401632286917977e-04 1.5957604151934201e-03 0.0000000000000000e+00  2.3422611377923080e-04 1.6054972080325313e-03 0.0000000000000000e+00  2.2461901725593522e-04 1.6053030820266899e-03 0.0000000000000000e+00  2.3478986440429188e-04 1.6150011468425436e-03 0.0000000000000000e+00  2.2522181093390974e-04 1.6148069771050437e-03 0.0000000000000000e+00  2.3535380714230213e-04 1.6244664176839503e-03 0.0000000000000000e+00  2.2582468780609581e-04 1.6242722065663857e-03 0.0000000000000000e+00  2.3591794945639706e-04 1.6338931407198338e-03 0.0000000000000000e+00  2.2642763218722536e-04 1.6336988893041367e-03 0.0000000000000000e+00  2.3648229883346905e-04 1.6432814602542938e-03 0.0000000000000000e+00  2.2703062865179880e-04 1.6430871682616131e-03 0.0000000000000000e+00  2.3704686131492683e-04 1.6526315438593724e-03 0.0000000000000000e+00  2.2763366553503321e-04 1.6524372108800572e-03 0.0000000000000000e+00  2.3761164040594202e-04 1.6619435727229989e-03 0.0000000000000000e+00  2.2823673590671354e-04 1.6617491989748398e-03 0.0000000000000000e+00  2.3817663765535725e-04 1.6712177333477153e-03 0.0000000000000000e+00  2.2883983545759245e-04 1.6710233196822581e-03 0.0000000000000000e+00  2.3874185400309811e-04 1.6804542150268167e-03 0.0000000000000000e+00  2.2944295993559651e-04 1.6802597626530626e-03 0.0000000000000000e+00  2.3930729103404348e-04 1.6896532121112161e-03 0.0000000000000000e+00  2.3004610349804919e-04 1.6894587219254238e-03 0.0000000000000000e+00  2.3987295139379726e-04 1.6988149289088492e-03 0.0000000000000000e+00  2.3064925895919735e-04 1.6986204007183900e-03 0.0000000000000000e+00  2.4043883772184707e-04 1.7079395823857075e-03 0.0000000000000000e+00  2.3125242047759590e-04 1.7077450149539984e-03 0.0000000000000000e+00  2.4100495076972368e-04 1.7170273974977635e-03 0.0000000000000000e+00  2.3185558674838807e-04 1.7168327894676802e-03 0.0000000000000000e+00  2.4157128818265945e-04 1.7260785962292810e-03 0.0000000000000000e+00  2.3245876176864074e-04 1.7258839474971505e-03 0.0000000000000000e+00  2.4213784572389073e-04 1.7350933875886322e-03 0.0000000000000000e+00  2.3306195147573491e-04 1.7348986991368388e-03 0.0000000000000000e+00  2.4270461973993870e-04 1.7440719683396973e-03 0.0000000000000000e+00  2.3366515942517619e-04 1.7438772410404730e-03 0.0000000000000000e+00  2.4327160825213777e-04 1.7530145308380300e-03 0.0000000000000000e+00  2.3426838607298333e-04 1.7528197649866436e-03 0.0000000000000000e+00  2.4383881029858902e-04 1.7619212681505314e-03 0.0000000000000000e+00  2.3487163067468036e-04 1.7617264638942432e-03 0.0000000000000000e+00  2.4440622505594449e-04 1.7707923739401260e-03 0.0000000000000000e+00  2.3547489255091306e-04 1.7705975317346397e-03 0.0000000000000000e+00  2.4497385183684596e-04 1.7796280413633367e-03 0.0000000000000000e+00  2.3607817066271988e-04 1.7794331617877264e-03 0.0000000000000000e+00  2.4554169053388452e-04 1.7884284646535241e-03 0.0000000000000000e+00  2.3668146302342389e-04 1.7882335478005716e-03 0.0000000000000000e+00  2.4610974103954158e-04 1.7971938411050149e-03 0.0000000000000000e+00  2.3728476780003420e-04 1.7969988872536060e-03 0.0000000000000000e+00  2.4667800297653380e-04 1.8059243687839266e-03 0.0000000000000000e+00  2.3788808363217512e-04 1.8057293786006485e-03 0.0000000000000000e+00  2.4724647643904746e-04 1.8146202467070318e-03 0.0000000000000000e+00  2.3849140828408099e-04 1.8144252202359267e-03 0.0000000000000000e+00  2.4781516186871274e-04 1.8232816783631633e-03 0.0000000000000000e+00  2.3909473952756733e-04 1.8230866148091847e-03 0.0000000000000000e+00  2.4838405857434496e-04 1.8319088700056577e-03 0.0000000000000000e+00  2.3969807776075822e-04 1.8317137690011618e-03 0.0000000000000000e+00  2.4895316429909554e-04 1.8405020230416714e-03 0.0000000000000000e+00  2.4030142574854208e-04 1.8403068852637333e-03 0.0000000000000000e+00  2.4952247675859421e-04 1.8490613311331788e-03 0.0000000000000000e+00  2.4090478537741153e-04 1.8488661572978269e-03 0.0000000000000000e+00  2.5009199472690596e-04 1.8575869852718980e-03 0.0000000000000000e+00  2.4150815638561245e-04 1.8573917755679648e-03 0.0000000000000000e+00  2.5066171749685853e-04 1.8660791775343599e-03 0.0000000000000000e+00  2.4211153791100248e-04 1.8658839322778361e-03 0.0000000000000000e+00  2.5123164452141132e-04 1.8745381002192147e-03 0.0000000000000000e+00  2.4271492897396670e-04 1.8743428198936744e-03 0.0000000000000000e+00  2.5180177570446991e-04 1.8829639466026841e-03 0.0000000000000000e+00  2.4331832785907273e-04 1.8827686312458149e-03 0.0000000000000000e+00  2.5237211122783586e-04 1.8913569132090115e-03 0.0000000000000000e+00  2.4392173294265340e-04 1.8911615621637660e-03 0.0000000000000000e+00  2.5294265047857354e-04 1.8997171987529759e-03 0.0000000000000000e+00  2.4452514467143834e-04 1.8995218113582043e-03 0.0000000000000000e+00  2.5351339129991291e-04 1.9080449982130118e-03 0.0000000000000000e+00  2.4512856613295671e-04 1.9078495746601754e-03 0.0000000000000000e+00  2.5408433062786771e-04 1.9163404974852632e-03 0.0000000000000000e+00  2.4573200089857589e-04 1.9161450390724336e-03 0.0000000000000000e+00  2.5465546636015672e-04 1.9246038744487610e-03 0.0000000000000000e+00  2.4633544963382673e-04 1.9244083827324393e-03 0.0000000000000000e+00  2.5522679871054502e-04 1.9328353073673236e-03 0.0000000000000000e+00  2.4693890865359186e-04 1.9326397831884517e-03 0.0000000000000000e+00  2.5579832974138454e-04 1.9410349833709620e-03 0.0000000000000000e+00  2.4754237187795888e-04 1.9408394267978061e-03 0.0000000000000000e+00  2.5637006162137040e-04 1.9492031000477971e-03 0.0000000000000000e+00  2.4814583385789144e-04 1.9490075114161958e-03 0.0000000000000000e+00  2.5694199578648545e-04 1.9573398608919135e-03 0.0000000000000000e+00  2.4874929023804571e-04 1.9571442414427951e-03 0.0000000000000000e+00  2.5751413428936015e-04 1.9654454741323182e-03 0.0000000000000000e+00  2.4935273523401489e-04 1.9652498243884773e-03 0.0000000000000000e+00  2.5808648068330152e-04 1.9735201602602173e-03 0.0000000000000000e+00  2.4995616182718280e-04 1.9733244779501263e-03 0.0000000000000000e+00  2.5865903679484620e-04 1.9815641542144189e-03 0.0000000000000000e+00  2.5055956860468739e-04 1.9813684362715821e-03 0.0000000000000000e+00  2.5923179862112709e-04 1.9895776856407692e-03 0.0000000000000000e+00  2.5116296447576209e-04 1.9893819330508533e-03 0.0000000000000000e+00  2.5980475829085901e-04 1.9975609533366997e-03 0.0000000000000000e+00  2.5176636019942292e-04 1.9973651734733117e-03 0.0000000000000000e+00  2.6037791234513429e-04 2.0055141266968335e-03 0.0000000000000000e+00  2.5236975089770703e-04 2.0053183325049306e-03 0.0000000000000000e+00  2.6095126991101443e-04 2.0134373804959237e-03 0.0000000000000000e+00  2.5297310155717888e-04 2.0132415916118214e-03 0.0000000000000000e+00  2.6152485775728963e-04 2.0213309422616637e-03 0.0000000000000000e+00  2.5357633578269997e-04 2.0211351921442825e-03 0.0000000000000000e+00  2.6209872674717589e-04 2.0291951428919675e-03 0.0000000000000000e+00  2.5417931362952583e-04 2.0289994934216803e-03 0.0000000000000000e+00  2.6267297398719475e-04 2.0370305034552770e-03 0.0000000000000000e+00  2.5478177764696791e-04 2.0368350540321788e-03 0.0000000000000000e+00  2.6324779462342428e-04 2.0448379625970571e-03 0.0000000000000000e+00  2.5538326940178851e-04 2.0446428195268541e-03 0.0000000000000000e+00  2.6382350997843665e-04 2.0526192948326079e-03 0.0000000000000000e+00  2.5598311221663886e-04 2.0524245499760644e-03 0.0000000000000000e+00  2.0064132740751979e-04 1.3402107732587828e-03 0.0000000000000000e+00  2.0014276750628438e-04 1.3316740875127175e-03 0.0000000000000000e+00  2.0108204760795542e-04 1.3488837176730834e-03 0.0000000000000000e+00  2.0147196016804354e-04 1.3576162584331014e-03 0.0000000000000000e+00  2.0182744406164785e-04 1.3663678399686674e-03 0.0000000000000000e+00  2.0217061546530871e-04 1.3751481529954632e-03 0.0000000000000000e+00  2.0252950907459862e-04 1.3840143419647636e-03 0.0000000000000000e+00  2.0291126448557966e-04 1.3930744510157165e-03 0.0000000000000000e+00  2.0332837524760612e-04 1.4023537434766902e-03 0.0000000000000000e+00  2.0378299788673433e-04 1.4116910493937207e-03 0.0000000000000000e+00  2.0425585306238140e-04 1.4210630540359508e-03 0.0000000000000000e+00  2.0473146873226190e-04 1.4304968987818762e-03 0.0000000000000000e+00  2.0520732008880139e-04 1.4399915457243993e-03 0.0000000000000000e+00  2.0568272904247401e-04 1.4495458853233149e-03 0.0000000000000000e+00  2.0615789085814249e-04 1.4591598976900011e-03 0.0000000000000000e+00  2.0663291631386097e-04 1.4688328478792082e-03 0.0000000000000000e+00  2.0710949269444527e-04 1.4785623809332503e-03 0.0000000000000000e+00  2.0759866246983593e-04 1.4883433479274805e-03 0.0000000000000000e+00  2.0811934661988719e-04 1.4981652114622501e-03 0.0000000000000000e+00  2.0868237587588306e-04 1.5080100691173797e-03 0.0000000000000000e+00  2.0928081094468266e-04 1.5178563020888300e-03 0.0000000000000000e+00  2.0989965413131968e-04 1.5276861234342169e-03 0.0000000000000000e+00  2.1052926047972591e-04 1.5374891775601302e-03 0.0000000000000000e+00  2.1116489978437671e-04 1.5472598161970043e-03 0.0000000000000000e+00  2.1180385922193749e-04 1.5569947847289139e-03 0.0000000000000000e+00  2.1244452598721101e-04 1.5666922872547553e-03 0.0000000000000000e+00  2.1308602034335645e-04 1.5763514258915763e-03 0.0000000000000000e+00  2.1372785917598454e-04 1.5859718039664269e-03 0.0000000000000000e+00  2.1436977960376588e-04 1.5955533002708076e-03 0.0000000000000000e+00  2.1501167939561331e-04 1.6050959424292704e-03 0.0000000000000000e+00  2.1565355118105547e-04 1.6145998224810845e-03 0.0000000000000000e+00  2.1629539576348001e-04 1.6240650492973434e-03 0.0000000000000000e+00  2.1693718045229051e-04 1.6334917410916066e-03 0.0000000000000000e+00  2.1757885686600855e-04 1.6428800366299519e-03 0.0000000000000000e+00  2.1822038808939239e-04 1.6522300986770856e-03 0.0000000000000000e+00  2.1886176057745745e-04 1.6615421077221875e-03 0.0000000000000000e+00  2.1950297116116266e-04 1.6708162514137027e-03 0.0000000000000000e+00  2.2014401536627750e-04 1.6800527206969108e-03 0.0000000000000000e+00  2.2078488176451773e-04 1.6892517112163318e-03 0.0000000000000000e+00  2.2142554922669464e-04 1.6984134258769333e-03 0.0000000000000000e+00  2.2206599448202629e-04 1.7075380770165281e-03 0.0000000000000000e+00  2.2270620887095203e-04 1.7166258850936167e-03 0.0000000000000000e+00  2.2334620598417413e-04 1.7256770710153569e-03 0.0000000000000000e+00  2.2398601536416707e-04 1.7346918481326392e-03 0.0000000000000000e+00  2.2462565418071860e-04 1.7436704162218765e-03 0.0000000000000000e+00  2.2526512112534488e-04 1.7526129671603782e-03 0.0000000000000000e+00  2.2590441033508592e-04 1.7615196928651793e-03 0.0000000000000000e+00  2.2654352086427042e-04 1.7703907873663611e-03 0.0000000000000000e+00  2.2718245399804403e-04 1.7792264452444675e-03 0.0000000000000000e+00  2.2782120588194565e-04 1.7880268608441612e-03 0.0000000000000000e+00  2.2845976779178358e-04 1.7967922295001211e-03 0.0000000000000000e+00  2.2909814107941869e-04 1.8055227510397284e-03 0.0000000000000000e+00  2.2973632358960202e-04 1.8142186254281535e-03 0.0000000000000000e+00  2.3037430359626704e-04 1.8228800528100064e-03 0.0000000000000000e+00  2.3101207753477705e-04 1.8315072364520598e-03 0.0000000000000000e+00  2.3164966029564309e-04 1.8401003799589628e-03 0.0000000000000000e+00  2.3228706623244243e-04 1.8486596803175290e-03 0.0000000000000000e+00  2.3292429311634854e-04 1.8571853278506183e-03 0.0000000000000000e+00  2.3356133511845203e-04 1.8656775134179692e-03 0.0000000000000000e+00  2.3419819329821605e-04 1.8741364308282125e-03 0.0000000000000000e+00  2.3483486465112566e-04 1.8825622736210715e-03 0.0000000000000000e+00  2.3547134132870064e-04 1.8909552361082614e-03 0.0000000000000000e+00  2.3610762031279673e-04 1.8993155141423998e-03 0.0000000000000000e+00  2.3674371272462761e-04 1.9076433027942125e-03 0.0000000000000000e+00  2.3737963683932210e-04 1.9159387912075076e-03 0.0000000000000000e+00  2.3801540358866206e-04 1.9242021616323491e-03 0.0000000000000000e+00  2.3865100351915861e-04 1.9324335934720735e-03 0.0000000000000000e+00  2.3928641423322223e-04 1.9406332718463833e-03 0.0000000000000000e+00  2.3992161686044121e-04 1.9488013924161302e-03 0.0000000000000000e+00  2.4055660547684738e-04 1.9569381607376910e-03 0.0000000000000000e+00  2.4119137363928447e-04 1.9650437882779573e-03 0.0000000000000000e+00  2.4182589459071659e-04 1.9731184905525181e-03 0.0000000000000000e+00  2.4246014172373944e-04 1.9811624900034465e-03 0.0000000000000000e+00  2.4309414110675588e-04 1.9891760142465927e-03 0.0000000000000000e+00  2.4372796324649212e-04 1.9971592790003984e-03 0.0000000000000000e+00  2.4436164667099948e-04 2.0051124794148892e-03 0.0000000000000000e+00  2.4499513893625906e-04 2.0130358171744312e-03 0.0000000000000000e+00  2.4562829435211756e-04 2.0209295601707720e-03 0.0000000000000000e+00  2.4626086574775348e-04 2.0287941205618530e-03 0.0000000000000000e+00  2.4689242066452878e-04 2.0366301753956782e-03 0.0000000000000000e+00  2.4752205733417454e-04 2.0444388535183849e-03 0.0000000000000000e+00  2.4814799433505564e-04 2.0522219712962651e-03 0.0000000000000000e+00  1.9232812996271742e-04 1.3400839098900322e-03 0.0000000000000000e+00  1.9262687571634411e-04 1.3488228804617367e-03 0.0000000000000000e+00  1.9287367701652957e-04 1.3575974765563028e-03 0.0000000000000000e+00  1.9307885852148040e-04 1.3663566309253482e-03 0.0000000000000000e+00  1.9325175674426008e-04 1.3751062352168998e-03 0.0000000000000000e+00  1.9341448292432706e-04 1.3839021610311619e-03 0.0000000000000000e+00  1.9358339448532531e-04 1.3929351111381747e-03 0.0000000000000000e+00  1.9376796253997477e-04 1.4022020110819908e-03 0.0000000000000000e+00  1.9426458041934083e-04 1.4115431402972423e-03 0.0000000000000000e+00  1.9478831435799164e-04 1.4209076785742314e-03 0.0000000000000000e+00  1.9521170603092067e-04 1.4303394189383678e-03 0.0000000000000000e+00  1.9562726663617693e-04 1.4398338669636885e-03 0.0000000000000000e+00  1.9604251077170792e-04 1.4493883524408697e-03 0.0000000000000000e+00  1.9645729419470826e-04 1.4590024025203886e-03 0.0000000000000000e+00  1.9687356310048887e-04 1.4686753206894242e-03 0.0000000000000000e+00  1.9729497632048552e-04 1.4784040756285826e-03 0.0000000000000000e+00  1.9773558283320598e-04 1.4881804011133495e-03 0.0000000000000000e+00  1.9821872654289955e-04 1.4979912656020854e-03 0.0000000000000000e+00  1.9876078471445019e-04 1.5078216298661882e-03 0.0000000000000000e+00  1.9935749469436088e-04 1.5176558708089446e-03 0.0000000000000000e+00  1.9999135887467423e-04 1.5274787957886094e-03 0.0000000000000000e+00  2.0064670317774191e-04 1.5372782049990472e-03 0.0000000000000000e+00  2.0131419239969461e-04 1.5470468021914310e-03 0.0000000000000000e+00  2.0198855141002032e-04 1.5567806530481316e-03 0.0000000000000000e+00  2.0266663309799146e-04 1.5664775859560651e-03 0.0000000000000000e+00  2.0334659324522730e-04 1.5761364530894244e-03 0.0000000000000000e+00  2.0402739162518770e-04 1.5857567222703898e-03 0.0000000000000000e+00  2.0470845955458455e-04 1.5953381963918708e-03 0.0000000000000000e+00  2.0538952193073821e-04 1.6048808488062923e-03 0.0000000000000000e+00  2.0607047842529375e-04 1.6143847412336289e-03 0.0000000000000000e+00  2.0675129239090313e-04 1.6238499813724765e-03 0.0000000000000000e+00  2.0743191883406699e-04 1.6332766989175527e-03 0.0000000000000000e+00  2.0811229582784173e-04 1.6426650372085945e-03 0.0000000000000000e+00  2.0879236813272072e-04 1.6520151544474652e-03 0.0000000000000000e+00  2.0947210362576714e-04 1.6613272231847708e-03 0.0000000000000000e+00  2.1015148800881448e-04 1.6706014278474158e-03 0.0000000000000000e+00  2.1083051033926985e-04 1.6798379601449282e-03 0.0000000000000000e+