<?xml version="1.0"?>
<VTKFile type="UnstructuredGrid"  version="0.1"  >
<UnstructuredGrid>
<Piece  NumberOfPoints="4754" NumberOfCells="9224">
<Points>
<DataArray  type="Float64"  NumberOfComponents="3"  format="ascii">0.4873913043478261 0 0  0.4956521739130435 0 0  0.4956521739130435 0.008333333333333333 0  0.4873913043478261 0.008333333333333333 0  0.5039130434782608 0 0  0.5039130434782608 0.008333333333333333 0  0.5121739130434783 0 0  0.5121739130434783 0.008333333333333333 0  0.5204347826086956 0 0  0.5204347826086956 0.008333333333333333 0  0.528695652173913 0 0  0.528695652173913 0.008333333333333333 0  0.5369565217391304 0 0  0.5369565217391304 0.008333333333333333 0  0.5452173913043478 0 0  0.5452173913043478 0.008333333333333333 0  0.5534782608695652 0 0  0.5534782608695652 0.008333333333333333 0  0.5617391304347825 0 0  0.5617391304347825 0.008333333333333333 0  0.57 0 0  0.57 0.008333333333333333 0  0.5782608695652174 0 0  0.5782608695652174 0.008333333333333333 0  0.5865217391304348 0 0  0.5865217391304348 0.008333333333333333 0  0.5947826086956521 0 0  0.5947826086956521 0.008333333333333333 0  0.6030434782608696 0 0  0.6030434782608696 0.008333333333333333 0  0.6113043478260869 0 0  0.6113043478260869 0.008333333333333333 0  0.6195652173913043 0 0  0.6195652173913043 0.008333333333333333 0  0.6278260869565218 0 0  0.6278260869565218 0.008333333333333333 0  0.6360869565217391 0 0  0.6360869565217391 0.008333333333333333 0  0.6443478260869565 0 0  0.6443478260869565 0.008333333333333333 0  0.6526086956521739 0 0  0.6526086956521739 0.008333333333333333 0  0.6608695652173913 0 0  0.6608695652173913 0.008333333333333333 0  0.6691304347826087 0 0  0.6691304347826087 0.008333333333333333 0  0.677391304347826 0 0  0.677391304347826 0.008333333333333333 0  0.6856521739130435 0 0  0.6856521739130435 0.008333333333333333 0  0.6939130434782609 0 0  0.6939130434782609 0.008333333333333333 0  0.7021739130434783 0 0  0.7021739130434783 0.008333333333333333 0  0.7104347826086956 0 0  0.7104347826086956 0.008333333333333333 0  0.718695652173913 0 0  0.718695652173913 0.008333333333333333 0  0.7269565217391304 0 0  0.7269565217391304 0.008333333333333333 0  0.7352173913043478 0 0  0.7352173913043478 0.008333333333333333 0  0.7434782608695653 0 0  0.7434782608695653 0.008333333333333333 0  0.7517391304347827 0 0  0.7517391304347827 0.008333333333333333 0  0.7599999999999999 0 0  0.7599999999999999 0.008333333333333333 0  0.7682608695652173 0 0  0.7682608695652173 0.008333333333333333 0  0.7765217391304348 0 0  0.7765217391304348 0.008333333333333333 0  0.7847826086956522 0 0  0.7847826086956522 0.008333333333333333 0  0.7930434782608695 0 0  0.7930434782608695 0.008333333333333333 0  0.8013043478260868 0 0  0.8013043478260868 0.008333333333333333 0  0.8095652173913043 0 0  0.8095652173913043 0.008333333333333333 0  0.8178260869565217 0 0  0.8178260869565217 0.008333333333333333 0  0.8260869565217391 0 0  0.8260869565217391 0.008333333333333333 0  0.8343478260869565 0 0  0.8343478260869565 0.008333333333333333 0  0.8426086956521739 0 0  0.8426086956521739 0.008333333333333333 0  0.8508695652173912 0 0  0.8508695652173912 0.008333333333333333 0  0.8591304347826086 0 0  0.8591304347826086 0.008333333333333333 0  0.8673913043478261 0 0  0.8673913043478261 0.008333333333333333 0  0.8756521739130434 0 0  0.8756521739130434 0.008333333333333333 0  0.8839130434782608 0 0  0.8839130434782608 0.008333333333333333 0  0.8921739130434783 0 0  0.8921739130434783 0.008333333333333333 0  0.9004347826086956 0 0  0.9004347826086956 0.008333333333333333 0  0.908695652173913 0 0  0.908695652173913 0.008333333333333333 0  0.9169565217391303 0 0  0.9169565217391303 0.008333333333333333 0  0.9252173913043478 0 0  0.9252173913043478 0.008333333333333333 0  0.9334782608695652 0 0  0.9334782608695652 0.008333333333333333 0  0.9417391304347826 0 0  0.9417391304347826 0.008333333333333333 0  0.95 0 0  0.95 0.008333333333333333 0  0.9582608695652173 0 0  0.9582608695652173 0.008333333333333333 0  0.9665217391304347 0 0  0.9665217391304347 0.008333333333333333 0  0.9747826086956521 0 0  0.9747826086956521 0.008333333333333333 0  0.9830434782608696 0 0  0.9830434782608696 0.008333333333333333 0  0.991304347826087 0 0  0.991304347826087 0.008333333333333333 0  0.9995652173913042 0 0  0.9995652173913042 0.008333333333333333 0  1.007826086956522 0 0  1.007826086956522 0.008333333333333333 0  1.016086956521739 0 0  1.016086956521739 0.008333333333333333 0  1.024347826086957 0 0  1.024347826086957 0.008333333333333333 0  1.032608695652174 0 0  1.032608695652174 0.008333333333333333 0  1.040869565217391 0 0  1.040869565217391 0.008333333333333333 0  1.049130434782609 0 0  1.049130434782609 0.008333333333333333 0  1.057391304347826 0 0  1.057391304347826 0.008333333333333333 0  1.065652173913043 0 0  1.065652173913043 0.008333333333333333 0  1.073913043478261 0 0  1.073913043478261 0.008333333333333333 0  1.082173913043478 0 0  1.082173913043478 0.008333333333333333 0  1.090434782608696 0 0  1.090434782608696 0.008333333333333333 0  1.098695652173913 0 0  1.098695652173913 0.008333333333333333 0  1.10695652173913 0 0  1.10695652173913 0.008333333333333333 0  1.115217391304348 0 0  1.115217391304348 0.008333333333333333 0  1.123478260869565 0 0  1.123478260869565 0.008333333333333333 0  1.131739130434783 0 0  1.131739130434783 0.008333333333333333 0  1.14 0 0  1.14 0.008333333333333333 0  1.148260869565217 0 0  1.148260869565217 0.008333333333333333 0  1.156521739130435 0 0  1.156521739130435 0.008333333333333333 0  1.164782608695652 0 0  1.164782608695652 0.008333333333333333 0  1.17304347826087 0 0  1.17304347826087 0.008333333333333333 0  0.4956521739130435 0.01666666666666667 0  0.5039130434782608 0.01666666666666667 0  0.5121739130434783 0.01666666666666667 0  0.5204347826086956 0.01666666666666667 0  0.528695652173913 0.01666666666666667 0  0.5369565217391304 0.01666666666666667 0  0.5452173913043478 0.01666666666666667 0  0.5534782608695652 0.01666666666666667 0  0.5617391304347825 0.01666666666666667 0  0.57 0.01666666666666667 0  0.5782608695652174 0.01666666666666667 0  0.5865217391304348 0.01666666666666667 0  0.5947826086956521 0.01666666666666667 0  0.6030434782608696 0.01666666666666667 0  0.6113043478260869 0.01666666666666667 0  0.6195652173913043 0.01666666666666667 0  0.6278260869565218 0.01666666666666667 0  0.6360869565217391 0.01666666666666667 0  0.6443478260869565 0.01666666666666667 0  0.6526086956521739 0.01666666666666667 0  0.6608695652173913 0.01666666666666667 0  0.6691304347826087 0.01666666666666667 0  0.677391304347826 0.01666666666666667 0  0.6856521739130435 0.01666666666666667 0  0.6939130434782609 0.01666666666666667 0  0.7021739130434783 0.01666666666666667 0  0.7104347826086956 0.01666666666666667 0  0.718695652173913 0.01666666666666667 0  0.7269565217391304 0.01666666666666667 0  0.7352173913043478 0.01666666666666667 0  0.7434782608695653 0.01666666666666667 0  0.7517391304347827 0.01666666666666667 0  0.7599999999999999 0.01666666666666667 0  0.7682608695652173 0.01666666666666667 0  0.7765217391304348 0.01666666666666667 0  0.7847826086956522 0.01666666666666667 0  0.7930434782608695 0.01666666666666667 0  0.8013043478260868 0.01666666666666667 0  0.8095652173913043 0.01666666666666667 0  0.8178260869565217 0.01666666666666667 0  0.8260869565217391 0.01666666666666667 0  0.8343478260869565 0.01666666666666667 0  0.8426086956521739 0.01666666666666667 0  0.8508695652173912 0.01666666666666667 0  0.8591304347826086 0.01666666666666667 0  0.8673913043478261 0.01666666666666667 0  0.8756521739130434 0.01666666666666667 0  0.8839130434782608 0.01666666666666667 0  0.8921739130434783 0.01666666666666667 0  0.9004347826086956 0.01666666666666667 0  0.908695652173913 0.01666666666666667 0  0.9169565217391303 0.01666666666666667 0  0.9252173913043478 0.01666666666666667 0  0.9334782608695652 0.01666666666666667 0  0.9417391304347826 0.01666666666666667 0  0.95 0.01666666666666667 0  0.9582608695652173 0.01666666666666667 0  0.9665217391304347 0.01666666666666667 0  0.9747826086956521 0.01666666666666667 0  0.9830434782608696 0.01666666666666667 0  0.991304347826087 0.01666666666666667 0  0.9995652173913042 0.01666666666666667 0  1.007826086956522 0.01666666666666667 0  1.016086956521739 0.01666666666666667 0  1.024347826086957 0.01666666666666667 0  1.032608695652174 0.01666666666666667 0  1.040869565217391 0.01666666666666667 0  1.049130434782609 0.01666666666666667 0  1.057391304347826 0.01666666666666667 0  1.065652173913043 0.01666666666666667 0  1.073913043478261 0.01666666666666667 0  1.082173913043478 0.01666666666666667 0  1.090434782608696 0.01666666666666667 0  1.098695652173913 0.01666666666666667 0  1.10695652173913 0.01666666666666667 0  1.115217391304348 0.01666666666666667 0  1.123478260869565 0.01666666666666667 0  1.131739130434783 0.01666666666666667 0  1.14 0.01666666666666667 0  1.148260869565217 0.01666666666666667 0  1.156521739130435 0.01666666666666667 0  1.164782608695652 0.01666666666666667 0  1.17304347826087 0.01666666666666667 0  0.5039130434782608 0.025 0  0.5121739130434783 0.025 0  0.5204347826086956 0.025 0  0.528695652173913 0.025 0  0.5369565217391304 0.025 0  0.5452173913043478 0.025 0  0.5534782608695652 0.025 0  0.5617391304347825 0.025 0  0.57 0.025 0  0.5782608695652174 0.025 0  0.5865217391304348 0.025 0  0.5947826086956521 0.025 0  0.6030434782608696 0.025 0  0.6113043478260869 0.025 0  0.6195652173913043 0.025 0  0.6278260869565218 0.025 0  0.6360869565217391 0.025 0  0.6443478260869565 0.025 0  0.6526086956521739 0.025 0  0.6608695652173913 0.025 0  0.6691304347826087 0.025 0  0.677391304347826 0.025 0  0.6856521739130435 0.025 0  0.6939130434782609 0.025 0  0.7021739130434783 0.025 0  0.7104347826086956 0.025 0  0.718695652173913 0.025 0  0.7269565217391304 0.025 0  0.7352173913043478 0.025 0  0.7434782608695653 0.025 0  0.7517391304347827 0.025 0  0.7599999999999999 0.0
[...]
<PointData  Vectors="Displacement"> 
<DataArray  type="Float64"  Name="Displacement"  NumberOfComponents="3" format="ascii">5.8101010451474523e-05 1.4805128533402416e-04 0.0000000000000000e+00  5.8906555965166681e-05 1.5130672081987900e-04 0.0000000000000000e+00  5.5619678046824881e-05 1.5104118411178648e-04 0.0000000000000000e+00  5.4827657027456965e-05 1.4778479413303999e-04 0.0000000000000000e+00  5.9709352825988261e-05 1.5457418651821598e-04 0.0000000000000000e+00  5.6409898862184379e-05 1.5430964144302225e-04 0.0000000000000000e+00  6.0510417984915934e-05 1.5785186252244605e-04 0.0000000000000000e+00  5.7198579725639066e-05 1.5758812296897835e-04 0.0000000000000000e+00  6.1311951885172569e-05 1.6113855157654468e-04 0.0000000000000000e+00  5.7986562926856500e-05 1.6087496454698059e-04 0.0000000000000000e+00  6.2117546824648186e-05 1.6443477012465277e-04 0.0000000000000000e+00  5.8775642130892145e-05 1.6417007916685875e-04 0.0000000000000000e+00  6.2931638430691896e-05 1.6774411874181206e-04 0.0000000000000000e+00  5.9568447838371228e-05 1.6747667548082222e-04 0.0000000000000000e+00  6.3757121441753415e-05 1.7107527617927847e-04 0.0000000000000000e+00  6.0366570953284703e-05 1.7080434810338595e-04 0.0000000000000000e+00  6.4593631489951351e-05 1.7443884402960398e-04 0.0000000000000000e+00  6.1169598174673500e-05 1.7416499632717783e-04 0.0000000000000000e+00  6.5438259012152037e-05 1.7784283091871781e-04 0.0000000000000000e+00  6.1975877252728754e-05 1.7756722996482103e-04 0.0000000000000000e+00  6.6287429273145863e-05 1.8129113068348981e-04 0.0000000000000000e+00  6.2783664879534904e-05 1.8101481548173705e-04 0.0000000000000000e+00  6.7138176919846740e-05 1.8478470613693808e-04 0.0000000000000000e+00  6.3591632991664667e-05 1.8450837512640257e-04 0.0000000000000000e+00  6.7988505255367506e-05 1.8832303895619052e-04 0.0000000000000000e+00  6.4398917641246331e-05 1.8804709242167735e-04 0.0000000000000000e+00  6.8837249947492667e-05 1.9190505694193690e-04 0.0000000000000000e+00  6.5205011199364376e-05 1.9162969757616501e-04 0.0000000000000000e+00  6.9683809962145575e-05 1.9552958084922192e-04 0.0000000000000000e+00  6.6009638775377507e-05 1.9525489897156544e-04 0.0000000000000000e+00  7.0527912529563358e-05 1.9919548905892193e-04 0.0000000000000000e+00  6.6812662657113491e-05 1.9892151830744160e-04 0.0000000000000000e+00  7.1369454147473033e-05 2.0290175087842708e-04 0.0000000000000000e+00  6.7614019569489943e-05 2.0262849967568817e-04 0.0000000000000000e+00  7.2208408134098617e-05 2.0664741190524365e-04 0.0000000000000000e+00  6.8413683553603257e-05 2.0637487928163879e-04 0.0000000000000000e+00  7.3044777028936488e-05 2.1043156938614193e-04 0.0000000000000000e+00  6.9211645773046554e-05 2.1015975201290829e-04 0.0000000000000000e+00  7.3878570986739416e-05 2.1425335132641221e-04 0.0000000000000000e+00  7.0007904376619419e-05 2.1398224613895922e-04 0.0000000000000000e+00  7.4709799531459477e-05 2.1811190228781952e-04 0.0000000000000000e+00  7.0802459845927169e-05 2.1784150715025292e-04 0.0000000000000000e+00  7.5538469374421242e-05 2.2200637490647318e-04 0.0000000000000000e+00  7.1595313100367310e-05 2.2173668854442568e-04 0.0000000000000000e+00  7.6364584553787458e-05 2.2593592531149848e-04 0.0000000000000000e+00  7.2386464868051518e-05 2.2566694705813246e-04 0.0000000000000000e+00  7.7188147196588042e-05 2.2989971087738771e-04 0.0000000000000000e+00  7.3175915571809533e-05 2.2963144043636972e-04 0.0000000000000000e+00  7.8009158251419379e-05 2.3389688923850991e-04 0.0000000000000000e+00  7.3963665385402196e-05 2.3362932651634452e-04 0.0000000000000000e+00  7.8827618014896619e-05 2.3792661792402804e-04 0.0000000000000000e+00  7.4749714319727499e-05 2.3765976292741204e-04 0.0000000000000000e+00  7.9643526457463693e-05 2.4198805426615304e-04 0.0000000000000000e+00  7.5534062292825140e-05 2.4172190704531518e-04 0.0000000000000000e+00  8.0456883403832376e-05 2.4608035541145062e-04 0.0000000000000000e+00  7.6316709175649241e-05 2.4581491603151102e-04 0.0000000000000000e+00  8.1267688621466252e-05 2.5020267836055007e-04 0.0000000000000000e+00  7.7097654818057698e-05 2.4993794688814611e-04 0.0000000000000000e+00  8.2075941853872742e-05 2.5435418000792944e-04 0.0000000000000000e+00  7.7876899061506881e-05 2.5409015650541388e-04 0.0000000000000000e+00  8.2881642818019159e-05 2.5853401717175798e-04 0.0000000000000000e+00  7.8654441743580879e-05 2.5827070169520650e-04 0.0000000000000000e+00  8.3684791170896979e-05 2.6274134660551397e-04 0.0000000000000000e+00  7.9430282697630391e-05 2.6247873920600903e-04 0.0000000000000000e+00  8.4485386439986092e-05 2.6697532497220211e-04 0.0000000000000000e+00  8.0204421749514550e-05 2.6671342570334044e-04 0.0000000000000000e+00  8.5283427908262158e-05 2.7123510873715132e-04 0.0000000000000000e+00  8.0976858713172650e-05 2.7097391767663150e-04 0.0000000000000000e+00  8.6078914453937457e-05 2.7551985389267808e-04 0.0000000000000000e+00  8.1747593388037317e-05 2.7525937119296761e-04 0.0000000000000000e+00  8.6871844386749786e-05 2.7982871536690583e-04 0.0000000000000000e+00  8.2516625565538153e-05 2.7956894135788753e-04 0.0000000000000000e+00  8.7662215433471859e-05 2.8416084590813509e-04 0.0000000000000000e+00  8.3283955063528800e-05 2.8390178127344181e-04 0.0000000000000000e+00  8.8450025268977972e-05 2.8851539425029282e-04 0.0000000000000000e+00  8.4049581840631103e-05 2.8825704025360637e-04 0.0000000000000000e+00  8.9235273449400136e-05 2.9289150266589099e-04 0.0000000000000000e+00  8.4813506343116052e-05 2.9263386121480746e-04 0.0000000000000000e+00  9.0017966307234196e-05 2.9728830506830085e-04 0.0000000000000000e+00  8.5575730541995597e-05 2.9703137786565864e-04 0.0000000000000000e+00  9.0798126918814224e-05 3.0170492924727496e-04 0.0000000000000000e+00  8.6336260954852733e-05 3.0144871432288389e-04 0.0000000000000000e+00  9.1575810699305176e-05 3.0614050971931726e-04 0.0000000000000000e+00  8.7095116501653992e-05 3.0588499400747786e-04 0.0000000000000000e+00  9.2351120898458939e-05 3.1059421688479666e-04 0.0000000000000000e+00  8.7852342414411182e-05 3.1033936770237286e-04 0.0000000000000000e+00  9.3124209692948225e-05 3.1506530007140111e-04 0.0000000000000000e+00  8.8608021448087653e-05 3.1481106356925990e-04 0.0000000000000000e+00  9.3895248346624794e-05 3.1955312993240797e-04 0.0000000000000000e+00  8.9362263251176503e-05 3.1929944481700983e-04 0.0000000000000000e+00  9.4664336988500514e-05 3.2405724560022738e-04 0.0000000000000000e+00  9.0115130397588493e-05 3.2380409554290797e-04 0.0000000000000000e+00  9.5431457841513428e-05 3.2857720509400795e-04 0.0000000000000000e+00  9.0866603327781744e-05 3.2832463280174379e-04 0.0000000000000000e+00  9.6196559971959466e-05 3.3311238446496067e-04 0.0000000000000000e+00  9.1616630352140492e-05 3.3286044705364880e-04 0.0000000000000000e+00  9.6959723243441459e-05 3.3766197003204655e-04 0.0000000000000000e+00  9.2365203112478253e-05 3.3741067831895245e-04 0.0000000000000000e+00  9.7721324461346593e-05 3.4222514210228348e-04 0.0000000000000000e+00  9.3112442601393550e-05 3.4197439529330481e-04 0.0000000000000000e+00  9.8482137599525697e-05 3.4680138859057350e-04 0.0000000000000000e+00  9.3858695913848583e-05 3.4655092580457156e-04 0.0000000000000000e+00  9.9243272439476589e-05 3.5139088255728136e-04 0.0000000000000000e+00  9.4604567641646474e-05 3.5114030214716379e-04 0.0000000000000000e+00  1.0000583493955623e-04 3.5599483921159745e-04 0.0000000000000000e+00  9.5350732062774455e-05 3.5574374838873119e-04 0.0000000000000000e+00  1.0077020688413303e-04 3.6061573105320392e-04 0.0000000000000000e+00  9.6097364802317259e-05 3.6036411140378226e-04 0.0000000000000000e+00  1.0153584683905836e-04 3.6525591894664375e-04 0.0000000000000000e+00  9.6844115279694410e-05 3.6500405714087172e-04 0.0000000000000000e+00  1.0230174011353445e-04 3.6991664541570843e-04 0.0000000000000000e+00  9.7590454664100591e-05 3.6966487963345686e-04 0.0000000000000000e+00  1.0306688921614496e-04 3.7459808723438965e-04 0.0000000000000000e+00  9.8335917343471706e-05 3.7434667816749054e-04 0.0000000000000000e+00  1.0383054436509722e-04 3.7929977453996443e-04 0.0000000000000000e+00  9.9080171992811479e-05 3.7904888713180367e-04 0.0000000000000000e+00  1.0459222708535640e-04 3.8402093879688431e-04 0.0000000000000000e+00  9.9823009670376448e-05 3.8377066471831459e-04 0.0000000000000000e+00  1.0535166736943393e-04 3.8876071103725841e-04 0.0000000000000000e+00  1.0056430952922919e-04 3.8851109586506943e-04 0.0000000000000000e+00  1.0610872896243689e-04 3.9351821120737454e-04 0.0000000000000000e+00  1.0130400667082813e-04 3.9326927496622266e-04 0.0000000000000000e+00  1.0686335122803282e-04 3.9829257842060559e-04 0.0000000000000000e+00  1.0204206872312457e-04 3.9804432843073108e-04 0.0000000000000000e+00  1.0761551176708077e-04 4.0308297504370954e-04 0.0000000000000000e+00  1.0277848085136544e-04 4.0283541302773152e-04 0.0000000000000000e+00  1.0836520526317234e-04 4.0788858187195624e-04 0.0000000000000000e+00  1.0351323699199401e-04 4.0764170749249654e-04 0.0000000000000000e+00  1.0911243276092586e-04 4.1270859192926945e-04 0.0000000000000000e+00  1.0424633510097456e-04 4.1246240435563101e-04 0.0000000000000000e+00  1.0985719685261353e-04 4.1754220547256986e-04 0.0000000000000000e+00  1.0497777476676727e-04 4.1729670396321259e-04 0.0000000000000000e+00  1.1059949987161449e-04 4.2238862664036405e-04 0.0000000000000000e+00  1.0570755611670775e-04 4.2214381068435150e-04 0.0000000000000000e+00  1.1133934344692975e-04 4.2724706145608627e-04 0.0000000000000000e+00  1.0643567937891130e-04 4.2700293074723184e-04 0.0000000000000000e+00  1.1207672857094494e-04 4.3211671676150770e-04 0.0000000000000000e+00  1.0716214474191980e-04 4.3187327113293234e-04 0.0000000000000000e+00  1.1281165579109367e-04 4.3699679970791489e-04 0.0000000000000000e+00  1.0788695232928508e-04 4.3675403907598304e-04 0.0000000000000000e+00  1.1354412537837710e-04 4.4188651754058586e-04 0.0000000000000000e+00  1.0861010220744930e-04 4.4164444186935392e-04 0.0000000000000000e+00  1.1427413744152977e-04 4.4678507751297613e-04 0.0000000000000000e+00  1.0933159439971436e-04 4.4654368679384438e-04 0.0000000000000000e+00  1.1500169199747203e-04 4.5169168685168013e-04 0.0000000000000000e+00  1.1005142889993341e-04 4.5145098109125966e-04 0.0000000000000000e+00  1.1572678901226145e-04 4.5660555274523322e-04 0.0000000000000000e+00  1.1076960568224220e-04 4.5636553195896638e-04 0.0000000000000000e+00  1.1644942842467824e-04 4.6152588234045424e-04 0.0000000000000000e+00  1.1148612470780537e-04 4.6128654654895669e-04 0.0000000000000000e+00  1.1716961016332286e-04 4.6645188273862178e-04 0.0000000000000000e+00  1.1220098593271290e-04 4.6621323196334609e-04 0.0000000000000000e+00  1.1788733416048901e-04 4.7138276099832708e-04 0.0000000000000000e+00  1.1291418931602345e-04 4.7114479525750796e-04 0.0000000000000000e+00  1.1860260036002236e-04 4.7631772414738623e-04 0.0000000000000000e+00  1.1362573482432262e-04 4.7608044345439537e-04 0.0000000000000000e+00  1.1931540871607190e-04 4.8125597919891589e-04 0.0000000000000000e+00  1.1433562242998288e-04 4.8101938356435206e-04 0.0000000000000000e+00  1.2002575918598306e-04 4.8619673315929314e-04 0.0000000000000000e+00  1.1504385210609576e-04 4.8596082259436281e-04 0.0000000000000000e+00  1.2073365172498695e-04 4.9113919302369038e-04 0.0000000000000000e+00  1.1575042382355729e-04 4.9090396754157659e-04 0.0000000000000000e+00  1.2143908628765401e-04 4.9608256576645778e-04 0.0000000000000000e+00  1.1645533755297867e-04 4.9584802538060345e-04 0.0000000000000000e+00  1.2214206283381058e-04 5.0102605833815246e-04 0.0000000000000000e+00  1.1715859326867691e-04 5.0079220305974004e-04 0.0000000000000000e+00  1.2284258133403507e-04 5.0596887767103099e-04 0.0000000000000000e+00  1.1786019095172821e-04 5.0573570750737712e-04 0.0000000000000000e+00  5.2335734099727993e-05 1.5078071498458032e-04 0.0000000000000000e+00  5.3112106359399196e-05 1.5405074913627895e-04 0.0000000000000000e+00  5.3886322136776420e-05 1.5733125169316103e-04 0.0000000000000000e+00  5.4657715986092255e-05 1.6061982319595566e-04 0.0000000000000000e+00  5.5426757865057590e-05 1.6391491381520504e-04 0.0000000000000000e+00  5.6196010488827731e-05 1.6721827911838862e-04 0.0000000000000000e+00  5.6967026335325968e-05 1.7054180682942515e-04 0.0000000000000000e+00  5.7738894350256439e-05 1.7390004425349017e-04 0.0000000000000000e+00  5.8509869512754920e-05 1.7730199393076041e-04 0.0000000000000000e+00  5.9279010273847792e-05 1.8075037738850258e-04 0.0000000000000000e+00  6.0046224895292026e-05 1.8424499281272571e-04 0.0000000000000000e+00  6.0811787989031384e-05 1.8778466505333931e-04 0.0000000000000000e+00  6.1576013925558306e-05 1.9136804447630312e-04 0.0000000000000000e+00  6.2339136260063563e-05 1.9499386889921722e-04 0.0000000000000000e+00  6.3101296145456510e-05 1.9866101208181443e-04 0.0000000000000000e+00  6.3862566836475902e-05 2.0236846120638393e-04 0.0000000000000000e+00  6.4622980863703145e-05 2.0611528054098843e-04 0.0000000000000000e+00  6.5382549695728408e-05 2.0990058078341862e-04 0.0000000000000000e+00  6.6141275429952611e-05 2.1372349809428121e-04 0.0000000000000000e+00  6.6899156813021767e-05 2.1758318141204016e-04 0.0000000000000000e+00  6.7656191919323225e-05 2.2147878546878243e-04 0.0000000000000000e+00  6.8412379115864727e-05 2.2540946726808686e-04 0.0000000000000000e+00  6.9167717265128907e-05 2.2937438447395676e-04 0.0000000000000000e+00  6.9922205651876116e-05 2.3337269476541119e-04 0.0000000000000000e+00  7.0675843849957152e-05 2.3740355563376658e-04 0.0000000000000000e+00  7.1428631608011397e-05 2.4146612435812807e-04 0.0000000000000000e+00  7.2180568772205783e-05 2.4555955803795570e-04 0.0000000000000000e+00  7.2931655242323328e-05 2.4968301363413213e-04 0.0000000000000000e+00  7.3681890953009382e-05 2.5383564800287553e-04 0.0000000000000000e+00  7.4431275873794721e-05 2.5801661791891766e-04 0.0000000000000000e+00  7.5179810024248746e-05 2.6222508008535435e-04 0.0000000000000000e+00  7.5927493501020830e-05 2.6646019112107014e-04 0.0000000000000000e+00  7.6674326507994542e-05 2.7072110750234321e-04 0.0000000000000000e+00  7.7420309363318370e-05 2.7500698541021144e-04 0.0000000000000000e+00  7.8165442418079800e-05 2.7931698039577140e-04 0.0000000000000000e+00  7.8909725748873893e-05 2.8365024672042635e-04 0.0000000000000000e+00  7.9653158375652631e-05 2.8800593616432367e-04 0.0000000000000000e+00  8.0395736642286427e-05 2.9238319604977484e-04 0.0000000000000000e+00  8.1137451451410833e-05 2.9678116626731765e-04 0.0000000000000000e+00  8.1878284853175462e-05 3.0119897549490081e-04 0.0000000000000000e+00  8.2618209906379483e-05 3.0563573924811949e-04 0.0000000000000000e+00  8.3357207890835685e-05 3.1009057498079026e-04 0.0000000000000000e+00  8.4095309176456721e-05 3.1456265796172785e-04 0.0000000000000000e+00  8.4832618408422754e-05 3.1905131528860180e-04 0.0000000000000000e+00  8.5569183571891473e-05 3.2355624909607961e-04 0.0000000000000000e+00  8.6304919607223872e-05 3.2807722549435954e-04 0.0000000000000000e+00  8.7039668967742629e-05 3.3261368186140257e-04 0.0000000000000000e+00  8.7773243725833882e-05 3.3716472578998138e-04 0.0000000000000000e+00  8.8505449370934744e-05 3.4172928451573588e-04 0.0000000000000000e+00  8.9236238213517282e-05 3.4630637580081272e-04 0.0000000000000000e+00  8.9965985649884028e-05 3.5089564304732214e-04 0.0000000000000000e+00  9.0695459551483888e-05 3.5549819625703931e-04 0.0000000000000000e+00  9.1424784026127384e-05 3.6011781827712962e-04 0.0000000000000000e+00  9.2153490361829440e-05 3.6475767465487277e-04 0.0000000000000000e+00  9.2881165133661960e-05 3.6941888125220629e-04 0.0000000000000000e+00  9.3607667827328675e-05 3.7410125015900674e-04 0.0000000000000000e+00  9.4333032895776021e-05 3.7880404847621165e-04 0.0000000000000000e+00  9.5057348825009589e-05 3.8352637409665901e-04 0.0000000000000000e+00  9.5780696178218475e-05 3.8826730535133143e-04 0.0000000000000000e+00  9.6503130051667509e-05 3.9302594819319239e-04 0.0000000000000000e+00  9.7224682303316117e-05 3.9780144252976786e-04 0.0000000000000000e+00  9.7945368981474130e-05 4.0259295533573322e-04 0.0000000000000000e+00  9.8665197021874189e-05 4.0739967175086996e-04 0.0000000000000000e+00  9.9384168759963912e-05 4.1222078785941836e-04 0.0000000000000000e+00  1.0010228451740722e-04 4.1705550577754885e-04 0.0000000000000000e+00  1.0081954391288668e-04 4.2190303064755009e-04 0.0000000000000000e+00  1.0153594644983874e-04 4.2676256896319553e-04 0.0000000000000000e+00  1.0225149172985415e-04 4.3163332774745917e-04 0.0000000000000000e+00  1.0296617949052630e-04 4.3651451420269419e-04 0.0000000000000000e+00  1.0368000957468894e-04 4.4140533558397491e-04 0.0000000000000000e+00  1.0439298188964634e-04 4.4630499914640072e-04 0.0000000000000000e+00  1.0510509637953253e-04 4.5121271211541117e-04 0.0000000000000000e+00  1.0581635300607427e-04 4.5612768168123757e-04 0.0000000000000000e+00  1.0652675173543471e-04 4.6104911499510984e-04 0.0000000000000000e+00  1.0723629253666694e-04 4.6597621915544580e-04 0.0000000000000000e+00  1.0794497538702306e-04 4.7090820120836353e-04 0.0000000000000000e+00  1.0865280027544860e-04 4.7584426816634753e-04 0.0000000000000000e+00  1.0935976719727895e-04 4.8078362703657667e-04 0.0000000000000000e+00  1.1006587614485275e-04 4.8572548483142181e-04 0.0000000000000000e+00  1.1077112710312681e-04 4.9066904855538356e-04 0.0000000000000000e+00  1.1147552005373815e-04 4.9561352518486131e-04 0.0000000000000000e+00  1.1217905498093396e-04 5.0055812166455670e-04 0.0000000000000000e+00  1.1288173187473327e-04 5.0550204491708038e-04 0.0000000000000000e+00  4.9815667985634562e-05 1.5379749585050579e-04 0.0000000000000000e+00  5.0576280697165400e-05 1.5708161169285045e-04 0.0000000000000000e+00  5.1332379623214255e-05 1.6037451021751930e-04 0.0000000000000000e+00  5.2082083126129122e-05 1.6367150033917490e-04 0.0000000000000000e+00  5.2827926396846456e-05 1.6697004596652993e-04 0.0000000000000000e+00  5.3571702873993673e-05 1.7028710739616903e-04 0.0000000000000000e+00  5.4312021307742684e-05 1.7364268842454033e-04 0.0000000000000000e+00  5.5047081246824511e-05 1.7704593170384558e-04 0.0000000000000000e+00  5.5776982159528073e-05 1.8049694903868056e-04 0.0000000000000000e+00  5.6503031398929596e-05 1.8399398700955408e-04 0.0000000000000000e+00  5.7226655273675867e-05 1.8753540219245302e-04 0.0000000000000000e+00  5.7948932458273757e-05 1.9111988901587539e-04 0.0000000000000000e+00  5.8670541745594903e-05 1.9474637396244620e-04 0.0000000000000000e+00  5.9391859075797215e-05 1.9841390846175427e-04 0.0000000000000000e+00  6.0113070471036286e-05 2.0212160442171839e-04 0.0000000000000000e+00  6.0834257111148670e-05 2.0586860109543818e-04 0.0000000000000000e+00  6.1555448419199982e-05 2.0965404936835658e-04 0.0000000000000000e+00  6.2276651263224567e-05 2.1347710472015673e-04 0.0000000000000000e+00  6.2997864338485150e-05 2.1733692424100108e-04 0.0000000000000000e+00  6.3719084426579000e-05 2.2123266545004053e-04 0.0000000000000000e+00  6.4440308662608154e-05 2.2516348587383112e-04 0.0000000000000000e+00  6.5161535067272195e-05 2.2912854292364372e-04 0.0000000000000000e+00  6.5882762450775479e-05 2.3312699387808465e-04 0.0000000000000000e+00  6.6603990169260507e-05 2.3715799589539829e-04 0.0000000000000000e+00  6.7325217908080682e-05 2.4122070602918338e-04 0.0000000000000000e+00  6.8046445533576400e-05 2.4531428124041209e-04 0.0000000000000000e+00  6.8767673007398320e-05 2.4943787840515707e-04 0.0000000000000000e+00  6.9488900346707327e-05 2.5359065431906268e-04 0.0000000000000000e+00  7.0210127616026071e-05 2.5777176569958746e-04 0.0000000000000000e+00  7.0931354941113490e-05 2.6198036918667573e-04 0.0000000000000000e+00  7.1652582536270643e-05 2.6621562134217805e-04 0.0000000000000000e+00  7.2373810728817948e-05 2.7047667864804690e-04 0.0000000000000000e+00  7.3095039940187026e-05 2.7476269750235905e-04 0.0000000000000000e+