<?xml version="1.0"?>
<VTKFile type="UnstructuredGrid"  version="0.1"  >
<UnstructuredGrid>
<Piece  NumberOfPoints="4741" NumberOfCells="9202">
<Points>
<DataArray  type="Float64"  NumberOfComponents="3"  format="ascii">2.337826086956521 0 0  2.346086956521739 0 0  2.346086956521739 0.008333333333333333 0  2.354347826086956 0 0  2.354347826086956 0.008333333333333333 0  2.362608695652174 0 0  2.362608695652174 0.008333333333333333 0  2.370869565217391 0 0  2.370869565217391 0.008333333333333333 0  2.379130434782609 0 0  2.379130434782609 0.008333333333333333 0  2.387391304347826 0 0  2.387391304347826 0.008333333333333333 0  2.395652173913044 0 0  2.395652173913044 0.008333333333333333 0  2.403913043478261 0 0  2.403913043478261 0.008333333333333333 0  2.412173913043478 0 0  2.412173913043478 0.008333333333333333 0  2.420434782608695 0 0  2.420434782608695 0.008333333333333333 0  2.428695652173913 0 0  2.428695652173913 0.008333333333333333 0  2.43695652173913 0 0  2.43695652173913 0.008333333333333333 0  2.445217391304348 0 0  2.445217391304348 0.008333333333333333 0  2.453478260869565 0 0  2.453478260869565 0.008333333333333333 0  2.461739130434782 0 0  2.461739130434782 0.008333333333333333 0  2.47 0 0  2.47 0.008333333333333333 0  2.478260869565217 0 0  2.478260869565217 0.008333333333333333 0  2.486521739130435 0 0  2.486521739130435 0.008333333333333333 0  2.494782608695652 0 0  2.494782608695652 0.008333333333333333 0  2.503043478260869 0 0  2.503043478260869 0.008333333333333333 0  2.511304347826087 0 0  2.511304347826087 0.008333333333333333 0  2.519565217391305 0 0  2.519565217391305 0.008333333333333333 0  2.527826086956522 0 0  2.527826086956522 0.008333333333333333 0  2.536086956521739 0 0  2.536086956521739 0.008333333333333333 0  2.544347826086956 0 0  2.544347826086956 0.008333333333333333 0  2.552608695652174 0 0  2.552608695652174 0.008333333333333333 0  2.560869565217391 0 0  2.560869565217391 0.008333333333333333 0  2.569130434782608 0 0  2.569130434782608 0.008333333333333333 0  2.577391304347826 0 0  2.577391304347826 0.008333333333333333 0  2.585652173913043 0 0  2.585652173913043 0.008333333333333333 0  2.593913043478261 0 0  2.593913043478261 0.008333333333333333 0  2.602173913043478 0 0  2.602173913043478 0.008333333333333333 0  2.610434782608696 0 0  2.610434782608696 0.008333333333333333 0  2.618695652173913 0 0  2.618695652173913 0.008333333333333333 0  2.62695652173913 0 0  2.62695652173913 0.008333333333333333 0  2.635217391304348 0 0  2.635217391304348 0.008333333333333333 0  2.643478260869565 0 0  2.643478260869565 0.008333333333333333 0  2.651739130434783 0 0  2.651739130434783 0.008333333333333333 0  2.66 0 0  2.66 0.008333333333333333 0  2.668260869565217 0 0  2.668260869565217 0.008333333333333333 0  2.676521739130435 0 0  2.676521739130435 0.008333333333333333 0  2.684782608695652 0 0  2.684782608695652 0.008333333333333333 0  2.693043478260869 0 0  2.693043478260869 0.008333333333333333 0  2.701304347826087 0 0  2.701304347826087 0.008333333333333333 0  2.709565217391304 0 0  2.709565217391304 0.008333333333333333 0  2.717826086956522 0 0  2.717826086956522 0.008333333333333333 0  2.726086956521739 0 0  2.726086956521739 0.008333333333333333 0  2.734347826086956 0 0  2.734347826086956 0.008333333333333333 0  2.742608695652174 0 0  2.742608695652174 0.008333333333333333 0  2.750869565217391 0 0  2.750869565217391 0.008333333333333333 0  2.759130434782609 0 0  2.759130434782609 0.008333333333333333 0  2.767391304347826 0 0  2.767391304347826 0.008333333333333333 0  2.775652173913044 0 0  2.775652173913044 0.008333333333333333 0  2.783913043478261 0 0  2.783913043478261 0.008333333333333333 0  2.792173913043478 0 0  2.792173913043478 0.008333333333333333 0  2.800434782608696 0 0  2.800434782608696 0.008333333333333333 0  2.808695652173913 0 0  2.808695652173913 0.008333333333333333 0  2.81695652173913 0 0  2.81695652173913 0.008333333333333333 0  2.825217391304347 0 0  2.825217391304347 0.008333333333333333 0  2.833478260869565 0 0  2.833478260869565 0.008333333333333333 0  2.841739130434783 0 0  2.841739130434783 0.008333333333333333 0  2.85 0 0  2.85 0.008333333333333333 0  2.858260869565217 0 0  2.858260869565217 0.008333333333333333 0  2.866521739130435 0 0  2.866521739130435 0.008333333333333333 0  2.874782608695652 0 0  2.874782608695652 0.008333333333333333 0  2.88304347826087 0 0  2.88304347826087 0.008333333333333333 0  2.891304347826087 0 0  2.891304347826087 0.008333333333333333 0  2.899565217391304 0 0  2.899565217391304 0.008333333333333333 0  2.907826086956522 0 0  2.907826086956522 0.008333333333333333 0  2.916086956521739 0 0  2.916086956521739 0.008333333333333333 0  2.924347826086957 0 0  2.924347826086957 0.008333333333333333 0  2.932608695652174 0 0  2.932608695652174 0.008333333333333333 0  2.940869565217391 0 0  2.940869565217391 0.008333333333333333 0  2.949130434782608 0 0  2.949130434782608 0.008333333333333333 0  2.957391304347826 0 0  2.957391304347826 0.008333333333333333 0  2.965652173913043 0 0  2.965652173913043 0.008333333333333333 0  2.973913043478261 0 0  2.973913043478261 0.008333333333333333 0  2.982173913043478 0 0  2.982173913043478 0.008333333333333333 0  2.990434782608696 0 0  2.990434782608696 0.008333333333333333 0  2.998695652173913 0 0  2.998695652173913 0.008333333333333333 0  3.006956521739131 0 0  3.006956521739131 0.008333333333333333 0  3.015217391304348 0 0  3.015217391304348 0.008333333333333333 0  2.354347826086956 0.01666666666666667 0  2.346086956521739 0.01666666666666667 0  2.362608695652174 0.01666666666666667 0  2.370869565217391 0.01666666666666667 0  2.379130434782609 0.01666666666666667 0  2.387391304347826 0.01666666666666667 0  2.395652173913044 0.01666666666666667 0  2.403913043478261 0.01666666666666667 0  2.412173913043478 0.01666666666666667 0  2.420434782608695 0.01666666666666667 0  2.428695652173913 0.01666666666666667 0  2.43695652173913 0.01666666666666667 0  2.445217391304348 0.01666666666666667 0  2.453478260869565 0.01666666666666667 0  2.461739130434782 0.01666666666666667 0  2.47 0.01666666666666667 0  2.478260869565217 0.01666666666666667 0  2.486521739130435 0.01666666666666667 0  2.494782608695652 0.01666666666666667 0  2.503043478260869 0.01666666666666667 0  2.511304347826087 0.01666666666666667 0  2.519565217391305 0.01666666666666667 0  2.527826086956522 0.01666666666666667 0  2.536086956521739 0.01666666666666667 0  2.544347826086956 0.01666666666666667 0  2.552608695652174 0.01666666666666667 0  2.560869565217391 0.01666666666666667 0  2.569130434782608 0.01666666666666667 0  2.577391304347826 0.01666666666666667 0  2.585652173913043 0.01666666666666667 0  2.593913043478261 0.01666666666666667 0  2.602173913043478 0.01666666666666667 0  2.610434782608696 0.01666666666666667 0  2.618695652173913 0.01666666666666667 0  2.62695652173913 0.01666666666666667 0  2.635217391304348 0.01666666666666667 0  2.643478260869565 0.01666666666666667 0  2.651739130434783 0.01666666666666667 0  2.66 0.01666666666666667 0  2.668260869565217 0.01666666666666667 0  2.676521739130435 0.01666666666666667 0  2.684782608695652 0.01666666666666667 0  2.693043478260869 0.01666666666666667 0  2.701304347826087 0.01666666666666667 0  2.709565217391304 0.01666666666666667 0  2.717826086956522 0.01666666666666667 0  2.726086956521739 0.01666666666666667 0  2.734347826086956 0.01666666666666667 0  2.742608695652174 0.01666666666666667 0  2.750869565217391 0.01666666666666667 0  2.759130434782609 0.01666666666666667 0  2.767391304347826 0.01666666666666667 0  2.775652173913044 0.01666666666666667 0  2.783913043478261 0.01666666666666667 0  2.792173913043478 0.01666666666666667 0  2.800434782608696 0.01666666666666667 0  2.808695652173913 0.01666666666666667 0  2.81695652173913 0.01666666666666667 0  2.825217391304347 0.01666666666666667 0  2.833478260869565 0.01666666666666667 0  2.841739130434783 0.01666666666666667 0  2.85 0.01666666666666667 0  2.858260869565217 0.01666666666666667 0  2.866521739130435 0.01666666666666667 0  2.874782608695652 0.01666666666666667 0  2.88304347826087 0.01666666666666667 0  2.891304347826087 0.01666666666666667 0  2.899565217391304 0.01666666666666667 0  2.907826086956522 0.01666666666666667 0  2.916086956521739 0.01666666666666667 0  2.924347826086957 0.01666666666666667 0  2.932608695652174 0.01666666666666667 0  2.940869565217391 0.01666666666666667 0  2.949130434782608 0.01666666666666667 0  2.957391304347826 0.01666666666666667 0  2.965652173913043 0.01666666666666667 0  2.973913043478261 0.01666666666666667 0  2.982173913043478 0.01666666666666667 0  2.990434782608696 0.01666666666666667 0  2.998695652173913 0.01666666666666667 0  3.006956521739131 0.01666666666666667 0  3.015217391304348 0.01666666666666667 0  2.354347826086956 0.025 0  2.362608695652174 0.025 0  2.370869565217391 0.025 0  2.379130434782609 0.025 0  2.387391304347826 0.025 0  2.395652173913044 0.025 0  2.403913043478261 0.025 0  2.412173913043478 0.025 0  2.420434782608695 0.025 0  2.428695652173913 0.025 0  2.43695652173913 0.025 0  2.445217391304348 0.025 0  2.453478260869565 0.025 0  2.461739130434782 0.025 0  2.47 0.025 0  2.478260869565217 0.025 0  2.486521739130435 0.025 0  2.494782608695652 0.025 0  2.503043478260869 0.025 0  2.511304347826087 0.025 0  2.519565217391305 0.025 0  2.527826086956522 0.025 0  2.536086956521739 0.025 0  2.544347826086956 0.025 0  2.552608695652174 0.025 0  2.560869565217391 0.025 0  2.569130434782608 0.025 0  2.577391304347826 0.025 0  2.585652173913043 0.025 0  2.593913043478261 0.025 0  2.602173913043478 0.025 0  2.610434782608696 0.025 0  2.618695652173913 0.025 0  2.62695652173913 0.025 0  2.635217391304348 0.025 0  2.643478260869565 0.025 0  2.651739130434783 0.025 0  2.66 0.025 0  2.668260869565217 0.025 0  2.676521739130435 0.025 0  2.684782608695652 0.025 0  2.693043478260869 0.025 0  2.701304347826087 0.025 0  2.709565217391304 0.025 0  2.717826086956522 0.025 0  2.72608
[...]
<PointData  Vectors="Displacement"> 
<DataArray  type="Float64"  Name="Displacement"  NumberOfComponents="3" format="ascii">2.2322899311825152e-04 1.4057300988141396e-03 0.0000000000000000e+00  2.2422597737282012e-04 1.4143900233161612e-03 0.0000000000000000e+00  2.1548635179940504e-04 1.4140994383936086e-03 0.0000000000000000e+00  2.2512393828038788e-04 1.4232875452412190e-03 0.0000000000000000e+00  2.1618956225750207e-04 1.4230312140561254e-03 0.0000000000000000e+00  2.2591563000462050e-04 1.4323548199689177e-03 0.0000000000000000e+00  2.1682073224363793e-04 1.4321330361134518e-03 0.0000000000000000e+00  2.2662052390176067e-04 1.4415304073582276e-03 0.0000000000000000e+00  2.1738913639115601e-04 1.4413338779944679e-03 0.0000000000000000e+00  2.2727876301524062e-04 1.4507827535548982e-03 0.0000000000000000e+00  2.1791785244960977e-04 1.4505936723875057e-03 0.0000000000000000e+00  2.2793288869904559e-04 1.4601238810510386e-03 0.0000000000000000e+00  2.1843933295419082e-04 1.4599236847337581e-03 0.0000000000000000e+00  2.2860053556407708e-04 1.4695997511252753e-03 0.0000000000000000e+00  2.1897944794047413e-04 1.4693815669788233e-03 0.0000000000000000e+00  2.2924691095021360e-04 1.4792404883662675e-03 0.0000000000000000e+00  2.1954045710733728e-04 1.4790335373550275e-03 0.0000000000000000e+00  2.2986371235909797e-04 1.4889195600299567e-03 0.0000000000000000e+00  2.2012793498403895e-04 1.4887193320948613e-03 0.0000000000000000e+00  2.3046575150419680e-04 1.4985860404073115e-03 0.0000000000000000e+00  2.2072848742845931e-04 1.4983863856741571e-03 0.0000000000000000e+00  2.3106339617694620e-04 1.5082374084390551e-03 0.0000000000000000e+00  2.2133372397347532e-04 1.5080380403026297e-03 0.0000000000000000e+00  2.3166185612471675e-04 1.5178748342324388e-03 0.0000000000000000e+00  2.2194010286350944e-04 1.5176749038434355e-03 0.0000000000000000e+00  2.3226366388809011e-04 1.5275040520347895e-03 0.0000000000000000e+00  2.2254652593523764e-04 1.5273029669362547e-03 0.0000000000000000e+00  2.3286829554613377e-04 1.5371327236361118e-03 0.0000000000000000e+00  2.2315225930495471e-04 1.5369310790215216e-03 0.0000000000000000e+00  2.3347432871946702e-04 1.5467636899437862e-03 0.0000000000000000e+00  2.2375752180478156e-04 1.5465616623228484e-03 0.0000000000000000e+00  2.3408050599160941e-04 1.5563976596335855e-03 0.0000000000000000e+00  2.2436294315555003e-04 1.5561952571988536e-03 0.0000000000000000e+00  2.3468513473031948e-04 1.5660340238402423e-03 0.0000000000000000e+00  2.2496893977978378e-04 1.5658318499706489e-03 0.0000000000000000e+00  2.3528651827082805e-04 1.5756688556198188e-03 0.0000000000000000e+00  2.2557538420150351e-04 1.5754676835993296e-03 0.0000000000000000e+00  2.3588500069732517e-04 1.5852950253219416e-03 0.0000000000000000e+00  2.2618261381345588e-04 1.5850944141750218e-03 0.0000000000000000e+00  2.3648203327881256e-04 1.5949090986925865e-03 0.0000000000000000e+00  2.2679062574678435e-04 1.5947085678405422e-03 0.0000000000000000e+00  2.3707860832190185e-04 1.6045107177844059e-03 0.0000000000000000e+00  2.2739906917544853e-04 1.6043101638352384e-03 0.0000000000000000e+00  2.3767512758588586e-04 1.6141000598458089e-03 0.0000000000000000e+00  2.2800769034117709e-04 1.6138994783378804e-03 0.0000000000000000e+00  2.3827172368428941e-04 1.6236772822603024e-03 0.0000000000000000e+00  2.2861638007669910e-04 1.6234766752126581e-03 0.0000000000000000e+00  2.3886843864528263e-04 1.6332425195820554e-03 0.0000000000000000e+00  2.2922509932774815e-04 1.6330418876152311e-03 0.0000000000000000e+00  2.3946528594715570e-04 1.6427959012817479e-03 0.0000000000000000e+00  2.2983383476133062e-04 1.6425952445561025e-03 0.0000000000000000e+00  2.4006226989890437e-04 1.6523375559623498e-03 0.0000000000000000e+00  2.3044258182252871e-04 1.6521368745546284e-03 0.0000000000000000e+00  2.4065939179841744e-04 1.6618676119982720e-03 0.0000000000000000e+00  2.3105133891420957e-04 1.6616669059651003e-03 0.0000000000000000e+00  2.4125665194607302e-04 1.6713861976523263e-03 0.0000000000000000e+00  2.3166010543151857e-04 1.6711854670384712e-03 0.0000000000000000e+00  2.4185405030195358e-04 1.6808934411024960e-03 0.0000000000000000e+00  2.3226888111493101e-04 1.6806926859469610e-03 0.0000000000000000e+00  2.4245158669438527e-04 1.6903894704016072e-03 0.0000000000000000e+00  2.3287766584508625e-04 1.6901886907464048e-03 0.0000000000000000e+00  2.4304926089102171e-04 1.6998744134023576e-03 0.0000000000000000e+00  2.3348645956658109e-04 1.6996736092962982e-03 0.0000000000000000e+00  2.4364707263322492e-04 1.7093483977097233e-03 0.0000000000000000e+00  2.3409526224478559e-04 1.7091475692051460e-03 0.0000000000000000e+00  2.4424502165517671e-04 1.7188115506837631e-03 0.0000000000000000e+00  2.3470407384255861e-04 1.7186106978319853e-03 0.0000000000000000e+00  2.4484310768936558e-04 1.7282639994619358e-03 0.0000000000000000e+00  2.3531289431717367e-04 1.7280631223120530e-03 0.0000000000000000e+00  2.4544133046302863e-04 1.7377058709646669e-03 0.0000000000000000e+00  2.3592172362789336e-04 1.7375049695659138e-03 0.0000000000000000e+00  2.4603968969428398e-04 1.7471372918769251e-03 0.0000000000000000e+00  2.3653056174093682e-04 1.7469363662807544e-03 0.0000000000000000e+00  2.4663818509237570e-04 1.7565583886260390e-03 0.0000000000000000e+00  2.3713940862724804e-04 1.7563574388863553e-03 0.0000000000000000e+00  2.4723681636059768e-04 1.7659692873706776e-03 0.0000000000000000e+00  2.3774826425745766e-04 1.7657683135431570e-03 0.0000000000000000e+00  2.4783558319955989e-04 1.7753701140018894e-03 0.0000000000000000e+00  2.3835712859799032e-04 1.7751691161421760e-03 0.0000000000000000e+00  2.4843448530829725e-04 1.7847609941517609e-03 0.0000000000000000e+00  2.3896600161150738e-04 1.7845599723135728e-03 0.0000000000000000e+00  2.4903352238135081e-04 1.7941420531968485e-03 0.0000000000000000e+00  2.3957488326318191e-04 1.7939410074322845e-03 0.0000000000000000e+00  2.4963269410382906e-04 1.8035134162428831e-03 0.0000000000000000e+00  2.4018377352826663e-04 1.8033123466047764e-03 0.0000000000000000e+00  2.5023200014861389e-04 1.8128752080938154e-03 0.0000000000000000e+00  2.4079267239407885e-04 1.8126741146386439e-03 0.0000000000000000e+00  2.5083144017954751e-04 1.8222275532230822e-03 0.0000000000000000e+00  2.4140157985318915e-04 1.8220264360106122e-03 0.0000000000000000e+00  2.5143101385788005e-04 1.8315705757689846e-03 0.0000000000000000e+00  2.4201049589387931e-04 1.8313694348594989e-03 0.0000000000000000e+00  2.5203072084560005e-04 1.8409043995489273e-03 0.0000000000000000e+00  2.4261942049732494e-04 1.8407032350020286e-03 0.0000000000000000e+00  2.5263056080440514e-04 1.8502291480698694e-03 0.0000000000000000e+00  2.4322835364090268e-04 1.8500279599452973e-03 0.0000000000000000e+00  2.5323053339376033e-04 1.8595449445271536e-03 0.0000000000000000e+00  2.4383729530119862e-04 1.8593437328858083e-03 0.0000000000000000e+00  2.5383063827089309e-04 1.8688519117998309e-03 0.0000000000000000e+00  2.4444624545368716e-04 1.8686506767033760e-03 0.0000000000000000e+00  2.5443087509189851e-04 1.8781501724515564e-03 0.0000000000000000e+00  2.4505520407165605e-04 1.8779489139611027e-03 0.0000000000000000e+00  2.5503124351070982e-04 1.8874398487331455e-03 0.0000000000000000e+00  2.4566417112821694e-04 1.8872385669104952e-03 0.0000000000000000e+00  2.5563174317849615e-04 1.8967210625762466e-03 0.0000000000000000e+00  2.4627314659731602e-04 1.8965197574844061e-03 0.0000000000000000e+00  2.5623237374539667e-04 1.9059939355908198e-03 0.0000000000000000e+00  2.4688213045144026e-04 1.9057926072918274e-03 0.0000000000000000e+00  2.5683313486038071e-04 1.9152585890706867e-03 0.0000000000000000e+00  2.4749112266306137e-04 1.9150572376251925e-03 0.0000000000000000e+00  2.5743402616813495e-04 1.9245151439887124e-03 0.0000000000000000e+00  2.4810012320966883e-04 1.9243137694585370e-03 0.0000000000000000e+00  2.5803504730815034e-04 1.9337637209790556e-03 0.0000000000000000e+00  2.4870913207378399e-04 1.9335623234285025e-03 0.0000000000000000e+00  2.5863619791825180e-04 1.9430044403279552e-03 0.0000000000000000e+00  2.4931814923695754e-04 1.9428030198217414e-03 0.0000000000000000e+00  2.5923747763741849e-04 1.9522374219821698e-03 0.0000000000000000e+00  2.4992717467661225e-04 1.9520359785841364e-03 0.0000000000000000e+00  2.5983888610500440e-04 1.9614627855569396e-03 0.0000000000000000e+00  2.5053620836836281e-04 1.9612613193312335e-03 0.0000000000000000e+00  2.6044042295996341e-04 1.9706806503343999e-03 0.0000000000000000e+00  2.5114525028733034e-04 1.9704791613456146e-03 0.0000000000000000e+00  2.6104208784140853e-04 1.9798911352640089e-03 0.0000000000000000e+00  2.5175430040735673e-04 1.9796896235759818e-03 0.0000000000000000e+00  2.6164388038822390e-04 1.9890943589662611e-03 0.0000000000000000e+00  2.5236335870246348e-04 1.9888928246416539e-03 0.0000000000000000e+00  2.6224580023687897e-04 1.9982904397301189e-03 0.0000000000000000e+00  2.5297242515037667e-04 1.9980888828317477e-03 0.0000000000000000e+00  2.6284784701991712e-04 2.0074794955008217e-03 0.0000000000000000e+00  2.5358149973378578e-04 2.0072779160932811e-03 0.0000000000000000e+00  2.6345002036736001e-04 2.0166616438680772e-03 0.0000000000000000e+00  2.5419058243674993e-04 2.0164600420181518e-03 0.0000000000000000e+00  2.6405231991068754e-04 2.0258370020664750e-03 0.0000000000000000e+00  2.5479967323857670e-04 2.0256353778415068e-03 0.0000000000000000e+00  2.6465474528587871e-04 2.0350056869908651e-03 0.0000000000000000e+00  2.5540877211063166e-04 2.0348040404567823e-03 0.0000000000000000e+00  2.6525729613258571e-04 2.0441678152136565e-03 0.0000000000000000e+00  2.5601787901934032e-04 2.0439661464348368e-03 0.0000000000000000e+00  2.6585997209051216e-04 2.0533235029890047e-03 0.0000000000000000e+00  2.5662699393180994e-04 2.0531218120301577e-03 0.0000000000000000e+00  2.6646277279743192e-04 2.0624728662440887e-03 0.0000000000000000e+00  2.5723611681759741e-04 2.0622711531713056e-03 0.0000000000000000e+00  2.6706569789119831e-04 2.0716160205744480e-03 0.0000000000000000e+00  2.5784524764550987e-04 2.0714142854525663e-03 0.0000000000000000e+00  2.6766874701091139e-04 2.0807530812532947e-03 0.0000000000000000e+00  2.5845438638395058e-04 2.0805513241430275e-03 0.0000000000000000e+00  2.6827191979146255e-04 2.0898841632330930e-03 0.0000000000000000e+00  2.5906353301006991e-04 2.0896823841943649e-03 0.0000000000000000e+00  2.6887521585719905e-04 2.0990093811145767e-03 0.0000000000000000e+00  2.5967268751589628e-04 2.0988075802130688e-03 0.0000000000000000e+00  2.6947863482526194e-04 2.1081288491074904e-03 0.0000000000000000e+00  2.6028184989785463e-04 2.1079270264165021e-03 0.0000000000000000e+00  2.7008217631867228e-04 2.1172426810316725e-03 0.0000000000000000e+00  2.6089102013563027e-04 2.1170408366268456e-03 0.0000000000000000e+00  2.7068583997791898e-04 2.1263509903738558e-03 0.0000000000000000e+00  2.6150019817895395e-04 2.1261491243235939e-03 0.0000000000000000e+00  2.7128962546037406e-04 2.1354538903706238e-03 0.0000000000000000e+00  2.6210938395680857e-04 2.1352520027219449e-03 0.0000000000000000e+00  2.7189353242171695e-04 2.1445514940812188e-03 0.0000000000000000e+00  2.6271857741571187e-04 2.1443495848320112e-03 0.0000000000000000e+00  2.7249756047034409e-04 2.1536439144337191e-03 0.0000000000000000e+00  2.6332777860220500e-04 2.1534419834668356e-03 0.0000000000000000e+00  2.7310170907051074e-04 2.1627312642457860e-03 0.0000000000000000e+00  2.6393698784610048e-04 2.1625293111600728e-03 0.0000000000000000e+00  2.7370597728180876e-04 2.1718136561374750e-03 0.0000000000000000e+00  2.6454620623592357e-04 2.1716116799336558e-03 0.0000000000000000e+00  2.0739444065587747e-04 1.4228410916862662e-03 0.0000000000000000e+00  2.0687884667583588e-04 1.4138638375522095e-03 0.0000000000000000e+00  2.0785014056094004e-04 1.4319881421985764e-03 0.0000000000000000e+00  2.0824918989721769e-04 1.4412207104008950e-03 0.0000000000000000e+00  2.0860594694018184e-04 1.4504843325917616e-03 0.0000000000000000e+00  2.0894784576302419e-04 1.4597799045120976e-03 0.0000000000000000e+00  2.0932244744728776e-04 1.4691903007588796e-03 0.0000000000000000e+00  2.0973347352082488e-04 1.4788327363558171e-03 0.0000000000000000e+00  2.1035360455925060e-04 1.4885273993893128e-03 0.0000000000000000e+00  2.1097779712043525e-04 1.4981865681121332e-03 0.0000000000000000e+00  2.1160065664521527e-04 1.5078368479970715e-03 0.0000000000000000e+00  2.1221991520042595e-04 1.5174733500872225e-03 0.0000000000000000e+00  2.1283220357655076e-04 1.5271002777364733e-03 0.0000000000000000e+00  2.1343805425776832e-04 1.5367288249220437e-03 0.0000000000000000e+00  2.1404152050676805e-04 1.5463595673926227e-03 0.0000000000000000e+00  2.1464485237065290e-04 1.5559922587211116e-03 0.0000000000000000e+00  2.1525033500748546e-04 1.5656280082772243e-03 0.0000000000000000e+00  2.1586115549788884e-04 1.5752646615959270e-03 0.0000000000000000e+00  2.1647809165436564e-04 1.5848910989234679e-03 0.0000000000000000e+00  2.1709820095578011e-04 1.5945044508528777e-03 0.0000000000000000e+00  2.1771911968970534e-04 1.6041056734340659e-03 0.0000000000000000e+00  2.1834009085234575e-04 1.6136948816268064e-03 0.0000000000000000e+00  2.1896096531015058e-04 1.6232720600689902e-03 0.0000000000000000e+00  2.1958172102552943e-04 1.6328372795346674e-03 0.0000000000000000e+00  2.2020235579890213e-04 1.6423906512347776e-03 0.0000000000000000e+00  2.2082286991892004e-04 1.6519322984571935e-03 0.0000000000000000e+00  2.2144326370089409e-04 1.6614623479158882e-03 0.0000000000000000e+00  2.2206353725120985e-04 1.6709809273196612e-03 0.0000000000000000e+00  2.2268369058778213e-04 1.6804881646386280e-03 0.0000000000000000e+00  2.2330372380669158e-04 1.6899841878464509e-03 0.0000000000000000e+00  2.2392363713128412e-04 1.6994691247799549e-03 0.0000000000000000e+00  2.2454343082445246e-04 1.7089431030505250e-03 0.0000000000000000e+00  2.2516310509989419e-04 1.7184062500205657e-03 0.0000000000000000e+00  2.2578266012187838e-04 1.7278586928204242e-03 0.0000000000000000e+00  2.2640209605922959e-04 1.7373005583617642e-03 0.0000000000000000e+00  2.2702141312646215e-04 1.7467319733278728e-03 0.0000000000000000e+00  2.2764061156938886e-04 1.7561530641491303e-03 0.0000000000000000e+00  2.2825969163757149e-04 1.7655639569884776e-03 0.0000000000000000e+00  2.2887865356863334e-04 1.7749647777403398e-03 0.0000000000000000e+00  2.2949749757899106e-04 1.7843556520333683e-03 0.0000000000000000e+00  2.3011622388279676e-04 1.7937367052337097e-03 0.0000000000000000e+00  2.3073483273211706e-04 1.8031080624373937e-03 0.0000000000000000e+00  2.3135332443577388e-04 1.8124698484465194e-03 0.0000000000000000e+00  2.3197169934333246e-04 1.8218221877430130e-03 0.0000000000000000e+00  2.3258995778720838e-04 1.8311652044719641e-03 0.0000000000000000e+00  2.3320810006119584e-04 1.8404990224506084e-03 0.0000000000000000e+00  2.3382612644690039e-04 1.8498237651842794e-03 0.0000000000000000e+00  2.3444403723528782e-04 1.8591395558692052e-03 0.0000000000000000e+00  2.3506183272526426e-04 1.8684465173876158e-03 0.0000000000000000e+00  2.3567951320750043e-04 1.8777447723035091e-03 0.0000000000000000e+00  2.3629707896403727e-04 1.8870344428643133e-03 0.0000000000000000e+00  2.3691453029715234e-04 1.8963156510047291e-03 0.0000000000000000e+00  2.3753186750744641e-04 1.9055885183364969e-03 0.0000000000000000e+00  2.3814909087743134e-04 1.9148531661468274e-03 0.0000000000000000e+00  2.3876620070677920e-04 1.9241097154031317e-03 0.0000000000000000e+00  2.3938319733343965e-04 1.9333582867434309e-03 0.0000000000000000e+00  2.4000008110025494e-04 1.9425990004602767e-03 0.0000000000000000e+00  2.4061685231951399e-04 1.9518319764995522e-03 0.0000000000000000e+00  2.4123351129378155e-04 1.9610573344746272e-03 0.0000000000000000e+00  2.4185005833737426e-04 1.9702751936700401e-03 0.0000000000000000e+00  2.4246649375984274e-04 1.9794856730356650e-03 0.0000000000000000e+00  2.4308281786203516e-04 1.9886888911877930e-03 0.0000000000000000e+00  2.4369903095446173e-04 1.9978849664105359e-03 0.0000000000000000e+00  2.4431513337395066e-04 2.0070740166492225e-03 0.0000000000000000e+00  2.4493112547337051e-04 2.0162561594993501e-03 0.0000000000000000e+00  2.4554700759440572e-04 2.0254315122030715e-03 0.0000000000000000e+00  2.4616278004251828e-04 2.0346001916576122e-03 0.0000000000000000e+00  2.4677844309567762e-04 2.0437623144317699e-03 0.0000000000000000e+00  2.4739399703638070e-04 2.0529179967762635e-03 0.0000000000000000e+00  2.4800944217087879e-04 2.0620673546206361e-03 0.0000000000000000e+00  2.4862477880997931e-04 2.0712105035639123e-03 0.0000000000000000e+00  2.4924000723779838e-04 2.0803475588704648e-03 0.0000000000000000e+00  2.4985512774271902e-04 2.0894786354759428e-03 0.0000000000000000e+00  2.5047014068870573e-04 2.0986038479798548e-03 0.0000000000000000e+00  2.5108504650131198e-04 2.1077233106135910e-03 0.0000000000000000e+00  2.5169984556481996e-04 2.1168371372258382e-03 0.0000000000000000e+00  2.5231453813076321e-04 2.1259454413200952e-03 0.0000000000000000e+00  2.5292912430454608e-04 2.1350483361246377e-03 0.0000000000000000e+00  2.5354360408380442e-04 2.1441459346557348e-03 0.0000000000000000e+00  2.5415797737400278e-04 2.1532383497494872e-03 0.0000000000000000e+00  2.5477224388852326e-04 2.1623256940510550e-03 0.0000000000000000e+00  2.5538640272901048e-04 2.1714080799005589e-03 0.0000000000000000e+00  1.9866750643855965e-04 1.4227123866291059e-03 0.0000000000000000e+00  1.9895514162208017e-04 1.4319275686568646e-03 0.0000000000000000e+00  1.9919135463141715e-04 1.4412112817556639e-03 0.0000000000000000e+00  1.9937662073574104e-04 1.4504894790101719e-03 0.0000000000000000e+00  1.9951668089409841e-04 1.4597438247727424e-03 0.0000000000000000e+00  1.9963306718312604e-04 1.4690291968288093e-03 0.0000000000000000e+00  1.9981964166498087e-04 1.4786772239681431e-03 0.0000000000000000e+00  2.0038475869177147e-04 1.4883281136942137e-03 0.0000000000000000e+00  2.0122834070820050e-04 1.4979789626314245e-03 0.0000000000000000e+00  2.0188632495652070e-04 1.5076293475653360e-03 0.0000000000000000e+00  2.0255918128071740e-04 1.5172678139052651e-03 0.0000000000000000e+00  2.0319341175327907e-04 1.5268999374112436e-03 0.0000000000000000e+00  2.0374887576079243e-04 1.5365267362454779e-03 0.0000000000000000e+00  2.0432723774405941e-04 1.5461584707373876e-03 0.0000000000000000e+00  2.0491239199769203e-04 1.5557918733442183e-03 0.0000000000000000e+00  2.0548452895801427e-04 1.5654262806326510e-03 0.0000000000000000e+00  2.0606919493204053e-04 1.5750612816142460e-03 0.0000000000000000e+00  2.0672730069766954e-04 1.5846863031612800e-03 0.0000000000000000e+00  2.0738976446572110e-04 1.5942981316511870e-03 0.0000000000000000e+00  2.0803171916114740e-04 1.6038989795481649e-03 0.0000000000000000e+00  2.0866643168043430e-04 1.6134881624958154e-03 0.0000000000000000e+00  2.0929970999124660e-04 1.6230653724663016e-03 0.0000000000000000e+00  2.0993258249305476e-04 1.6326306313312264e-03 0.0000000000000000e+00  2.1056518122669141e-04 1.6421840432356107e-03 0.0000000000000000e+00  2.1119752565945213e-04 1.6517257305803876e-03 0.0000000000000000e+00  2.1182961970989518e-04 1.6612558200586097e-03 0.0000000000000000e+00  2.1246146413639126e-04 1.6707744394460803e-03 0.0000000000000000e+00  2.1309305908746336e-04 1.6802817167420403e-03 0.0000000000000000e+00  2.1372440476474645e-04 1.6897777798942886e-03 0.0000000000000000e+00  2.1435550157375977e-04 1.6992627566975208e-03 0.0000000000000000e+00  2.1498635002761981e-04 1.7087367747502017e-03 0.0000000000000000e+00  2.1561695059315220e-04 1.7181999614313847e-03 0.0000000000000000e+00  2.1624730366426396e-04 1.7276524438881509e-03 0.0000000000000000e+00  2.1687740962655683e-04 1.7370943490309029e-03 0.0000000000000000e+00  2.1750726892543482e-04 1.7465258035279391e-03 0.0000000000000000e+00  2.1813688206379759e-04 1.7559469337994054e-03 0.0000000000000000e+00  2.1876624956231866e-04 1.7653578660071592e-03 0.0000000000000000e+