<?xml version="1.0"?>
<VTKFile type="UnstructuredGrid"  version="0.1"  >
<UnstructuredGrid>
<Piece  NumberOfPoints="4741" NumberOfCells="9202">
<Points>
<DataArray  type="Float64"  NumberOfComponents="3"  format="ascii">2.337826086956521 0 0  2.346086956521739 0 0  2.346086956521739 0.008333333333333333 0  2.354347826086956 0 0  2.354347826086956 0.008333333333333333 0  2.362608695652174 0 0  2.362608695652174 0.008333333333333333 0  2.370869565217391 0 0  2.370869565217391 0.008333333333333333 0  2.379130434782609 0 0  2.379130434782609 0.008333333333333333 0  2.387391304347826 0 0  2.387391304347826 0.008333333333333333 0  2.395652173913044 0 0  2.395652173913044 0.008333333333333333 0  2.403913043478261 0 0  2.403913043478261 0.008333333333333333 0  2.412173913043478 0 0  2.412173913043478 0.008333333333333333 0  2.420434782608695 0 0  2.420434782608695 0.008333333333333333 0  2.428695652173913 0 0  2.428695652173913 0.008333333333333333 0  2.43695652173913 0 0  2.43695652173913 0.008333333333333333 0  2.445217391304348 0 0  2.445217391304348 0.008333333333333333 0  2.453478260869565 0 0  2.453478260869565 0.008333333333333333 0  2.461739130434782 0 0  2.461739130434782 0.008333333333333333 0  2.47 0 0  2.47 0.008333333333333333 0  2.478260869565217 0 0  2.478260869565217 0.008333333333333333 0  2.486521739130435 0 0  2.486521739130435 0.008333333333333333 0  2.494782608695652 0 0  2.494782608695652 0.008333333333333333 0  2.503043478260869 0 0  2.503043478260869 0.008333333333333333 0  2.511304347826087 0 0  2.511304347826087 0.008333333333333333 0  2.519565217391305 0 0  2.519565217391305 0.008333333333333333 0  2.527826086956522 0 0  2.527826086956522 0.008333333333333333 0  2.536086956521739 0 0  2.536086956521739 0.008333333333333333 0  2.544347826086956 0 0  2.544347826086956 0.008333333333333333 0  2.552608695652174 0 0  2.552608695652174 0.008333333333333333 0  2.560869565217391 0 0  2.560869565217391 0.008333333333333333 0  2.569130434782608 0 0  2.569130434782608 0.008333333333333333 0  2.577391304347826 0 0  2.577391304347826 0.008333333333333333 0  2.585652173913043 0 0  2.585652173913043 0.008333333333333333 0  2.593913043478261 0 0  2.593913043478261 0.008333333333333333 0  2.602173913043478 0 0  2.602173913043478 0.008333333333333333 0  2.610434782608696 0 0  2.610434782608696 0.008333333333333333 0  2.618695652173913 0 0  2.618695652173913 0.008333333333333333 0  2.62695652173913 0 0  2.62695652173913 0.008333333333333333 0  2.635217391304348 0 0  2.635217391304348 0.008333333333333333 0  2.643478260869565 0 0  2.643478260869565 0.008333333333333333 0  2.651739130434783 0 0  2.651739130434783 0.008333333333333333 0  2.66 0 0  2.66 0.008333333333333333 0  2.668260869565217 0 0  2.668260869565217 0.008333333333333333 0  2.676521739130435 0 0  2.676521739130435 0.008333333333333333 0  2.684782608695652 0 0  2.684782608695652 0.008333333333333333 0  2.693043478260869 0 0  2.693043478260869 0.008333333333333333 0  2.701304347826087 0 0  2.701304347826087 0.008333333333333333 0  2.709565217391304 0 0  2.709565217391304 0.008333333333333333 0  2.717826086956522 0 0  2.717826086956522 0.008333333333333333 0  2.726086956521739 0 0  2.726086956521739 0.008333333333333333 0  2.734347826086956 0 0  2.734347826086956 0.008333333333333333 0  2.742608695652174 0 0  2.742608695652174 0.008333333333333333 0  2.750869565217391 0 0  2.750869565217391 0.008333333333333333 0  2.759130434782609 0 0  2.759130434782609 0.008333333333333333 0  2.767391304347826 0 0  2.767391304347826 0.008333333333333333 0  2.775652173913044 0 0  2.775652173913044 0.008333333333333333 0  2.783913043478261 0 0  2.783913043478261 0.008333333333333333 0  2.792173913043478 0 0  2.792173913043478 0.008333333333333333 0  2.800434782608696 0 0  2.800434782608696 0.008333333333333333 0  2.808695652173913 0 0  2.808695652173913 0.008333333333333333 0  2.81695652173913 0 0  2.81695652173913 0.008333333333333333 0  2.825217391304347 0 0  2.825217391304347 0.008333333333333333 0  2.833478260869565 0 0  2.833478260869565 0.008333333333333333 0  2.841739130434783 0 0  2.841739130434783 0.008333333333333333 0  2.85 0 0  2.85 0.008333333333333333 0  2.858260869565217 0 0  2.858260869565217 0.008333333333333333 0  2.866521739130435 0 0  2.866521739130435 0.008333333333333333 0  2.874782608695652 0 0  2.874782608695652 0.008333333333333333 0  2.88304347826087 0 0  2.88304347826087 0.008333333333333333 0  2.891304347826087 0 0  2.891304347826087 0.008333333333333333 0  2.899565217391304 0 0  2.899565217391304 0.008333333333333333 0  2.907826086956522 0 0  2.907826086956522 0.008333333333333333 0  2.916086956521739 0 0  2.916086956521739 0.008333333333333333 0  2.924347826086957 0 0  2.924347826086957 0.008333333333333333 0  2.932608695652174 0 0  2.932608695652174 0.008333333333333333 0  2.940869565217391 0 0  2.940869565217391 0.008333333333333333 0  2.949130434782608 0 0  2.949130434782608 0.008333333333333333 0  2.957391304347826 0 0  2.957391304347826 0.008333333333333333 0  2.965652173913043 0 0  2.965652173913043 0.008333333333333333 0  2.973913043478261 0 0  2.973913043478261 0.008333333333333333 0  2.982173913043478 0 0  2.982173913043478 0.008333333333333333 0  2.990434782608696 0 0  2.990434782608696 0.008333333333333333 0  2.998695652173913 0 0  2.998695652173913 0.008333333333333333 0  3.006956521739131 0 0  3.006956521739131 0.008333333333333333 0  3.015217391304348 0 0  3.015217391304348 0.008333333333333333 0  2.354347826086956 0.01666666666666667 0  2.346086956521739 0.01666666666666667 0  2.362608695652174 0.01666666666666667 0  2.370869565217391 0.01666666666666667 0  2.379130434782609 0.01666666666666667 0  2.387391304347826 0.01666666666666667 0  2.395652173913044 0.01666666666666667 0  2.403913043478261 0.01666666666666667 0  2.412173913043478 0.01666666666666667 0  2.420434782608695 0.01666666666666667 0  2.428695652173913 0.01666666666666667 0  2.43695652173913 0.01666666666666667 0  2.445217391304348 0.01666666666666667 0  2.453478260869565 0.01666666666666667 0  2.461739130434782 0.01666666666666667 0  2.47 0.01666666666666667 0  2.478260869565217 0.01666666666666667 0  2.486521739130435 0.01666666666666667 0  2.494782608695652 0.01666666666666667 0  2.503043478260869 0.01666666666666667 0  2.511304347826087 0.01666666666666667 0  2.519565217391305 0.01666666666666667 0  2.527826086956522 0.01666666666666667 0  2.536086956521739 0.01666666666666667 0  2.544347826086956 0.01666666666666667 0  2.552608695652174 0.01666666666666667 0  2.560869565217391 0.01666666666666667 0  2.569130434782608 0.01666666666666667 0  2.577391304347826 0.01666666666666667 0  2.585652173913043 0.01666666666666667 0  2.593913043478261 0.01666666666666667 0  2.602173913043478 0.01666666666666667 0  2.610434782608696 0.01666666666666667 0  2.618695652173913 0.01666666666666667 0  2.62695652173913 0.01666666666666667 0  2.635217391304348 0.01666666666666667 0  2.643478260869565 0.01666666666666667 0  2.651739130434783 0.01666666666666667 0  2.66 0.01666666666666667 0  2.668260869565217 0.01666666666666667 0  2.676521739130435 0.01666666666666667 0  2.684782608695652 0.01666666666666667 0  2.693043478260869 0.01666666666666667 0  2.701304347826087 0.01666666666666667 0  2.709565217391304 0.01666666666666667 0  2.717826086956522 0.01666666666666667 0  2.726086956521739 0.01666666666666667 0  2.734347826086956 0.01666666666666667 0  2.742608695652174 0.01666666666666667 0  2.750869565217391 0.01666666666666667 0  2.759130434782609 0.01666666666666667 0  2.767391304347826 0.01666666666666667 0  2.775652173913044 0.01666666666666667 0  2.783913043478261 0.01666666666666667 0  2.792173913043478 0.01666666666666667 0  2.800434782608696 0.01666666666666667 0  2.808695652173913 0.01666666666666667 0  2.81695652173913 0.01666666666666667 0  2.825217391304347 0.01666666666666667 0  2.833478260869565 0.01666666666666667 0  2.841739130434783 0.01666666666666667 0  2.85 0.01666666666666667 0  2.858260869565217 0.01666666666666667 0  2.866521739130435 0.01666666666666667 0  2.874782608695652 0.01666666666666667 0  2.88304347826087 0.01666666666666667 0  2.891304347826087 0.01666666666666667 0  2.899565217391304 0.01666666666666667 0  2.907826086956522 0.01666666666666667 0  2.916086956521739 0.01666666666666667 0  2.924347826086957 0.01666666666666667 0  2.932608695652174 0.01666666666666667 0  2.940869565217391 0.01666666666666667 0  2.949130434782608 0.01666666666666667 0  2.957391304347826 0.01666666666666667 0  2.965652173913043 0.01666666666666667 0  2.973913043478261 0.01666666666666667 0  2.982173913043478 0.01666666666666667 0  2.990434782608696 0.01666666666666667 0  2.998695652173913 0.01666666666666667 0  3.006956521739131 0.01666666666666667 0  3.015217391304348 0.01666666666666667 0  2.354347826086956 0.025 0  2.362608695652174 0.025 0  2.370869565217391 0.025 0  2.379130434782609 0.025 0  2.387391304347826 0.025 0  2.395652173913044 0.025 0  2.403913043478261 0.025 0  2.412173913043478 0.025 0  2.420434782608695 0.025 0  2.428695652173913 0.025 0  2.43695652173913 0.025 0  2.445217391304348 0.025 0  2.453478260869565 0.025 0  2.461739130434782 0.025 0  2.47 0.025 0  2.478260869565217 0.025 0  2.486521739130435 0.025 0  2.494782608695652 0.025 0  2.503043478260869 0.025 0  2.511304347826087 0.025 0  2.519565217391305 0.025 0  2.527826086956522 0.025 0  2.536086956521739 0.025 0  2.544347826086956 0.025 0  2.552608695652174 0.025 0  2.560869565217391 0.025 0  2.569130434782608 0.025 0  2.577391304347826 0.025 0  2.585652173913043 0.025 0  2.593913043478261 0.025 0  2.602173913043478 0.025 0  2.610434782608696 0.025 0  2.618695652173913 0.025 0  2.62695652173913 0.025 0  2.635217391304348 0.025 0  2.643478260869565 0.025 0  2.651739130434783 0.025 0  2.66 0.025 0  2.668260869565217 0.025 0  2.676521739130435 0.025 0  2.684782608695652 0.025 0  2.693043478260869 0.025 0  2.701304347826087 0.025 0  2.709565217391304 0.025 0  2.717826086956522 0.025 0  2.72608
[...]
<CellData  Scalars="sigma_m"> 
<DataArray  type="Float64"  Name="sigma_m"  format="ascii">7.4761373618282704e+06   6.7732754667618657e+06   5.7171296855773218e+06   6.0149567112116180e+06   5.1570465977133894e+06   5.4062222028611815e+06   4.6322225887182560e+06   5.1126399199541863e+06   4.2882099093057197e+06   5.1644835467985878e+06   4.1996059702083021e+06   5.4080933452861710e+06   4.3209166353481738e+06   5.5165025454544201e+06   4.4854401299292296e+06   5.3455703198124617e+06   4.5364757101225825e+06   5.1463730810406823e+06   4.5185097742274627e+06   5.0598324466509763e+06   4.5322818200798510e+06   5.0372693626513323e+06   4.5485180632100329e+06   5.0333043585740495e+06   4.5547216055229343e+06   5.0338870824257275e+06   4.5573802341914689e+06   5.0353811783457315e+06   4.5603418601741744e+06   5.0371701205367809e+06   4.5683111194347553e+06   5.0345407471524226e+06   4.5937001375128664e+06   5.0171395066489363e+06   4.6526039936987106e+06   4.9788322210333468e+06   4.7453851531539867e+06   4.9268136649379656e+06   4.8492226738225780e+06   4.8764606482494315e+06   4.9374622548001427e+06   4.8381191598591069e+06   4.9997827808856415e+06   4.8130888198027825e+06   5.0399075798228728e+06   4.7982573339032317e+06   5.0645726493216706e+06   4.7901982715441659e+06   5.0792139953956995e+06   4.7863516969497791e+06   5.0876835156928310e+06   4.7850168024087539e+06   5.0925151679254137e+06   4.7851383180327155e+06   5.0952657602942334e+06   4.7860704546431154e+06   5.0968909030682230e+06   4.7874075543497140e+06   5.0979790826101219e+06   4.7889150532419598e+06   5.0988369320156127e+06   4.7904954989407165e+06   5.0995615698078275e+06   4.7921318864687318e+06   5.1001564236378903e+06   4.7938268990526656e+06   5.1006253725905623e+06   4.7955700273765866e+06   5.1010002497282596e+06   4.7973405495994166e+06   5.1013193589314511e+06   4.7991218675435046e+06   5.1016032224094318e+06   4.8009082894738298e+06   5.1018517200151226e+06   4.8027051853133952e+06   5.1020517292113993e+06   4.8045228215495776e+06   5.1021928243620256e+06   4.8063634127151789e+06   5.1022870433028061e+06   4.8082129095031749e+06   5.1023720665694093e+06   4.8100449915103670e+06   5.1024907284709280e+06   4.8118425964590553e+06   5.1026573400031300e+06   4.8136099411528138e+06   5.1028516360472823e+06   4.8153610228323480e+06   5.1030488335803878e+06   4.8171042394485446e+06   5.1032398535230504e+06   4.8188402500469321e+06   5.1034253006432159e+06   4.8205698293174990e+06   5.1036019000980062e+06   4.8222983006298030e+06   5.1037619022731436e+06   4.8240254993895860e+06   5.1039070729579758e+06   4.8257486182129607e+06   5.1040409734767908e+06   4.8274722909840355e+06   5.1041561512009883e+06   4.8292008753136545e+06   5.1042534125346839e+06   4.8309250944760647e+06   5.1043548132353406e+06   4.8326308102156036e+06   5.1044788805352272e+06   4.8343173552284315e+06   5.1046174106918536e+06   4.8359938116074409e+06   5.1047531369047202e+06   4.8376641688958723e+06   5.1048818041265262e+06   4.8393293927288996e+06   5.1050022711720103e+06   4.8409937377062831e+06   5.1051084287773035e+06   4.8426607183664413e+06   5.1052015501508676e+06   4.8443243766223304e+06   5.1052990783985741e+06   4.8459712036278155e+06   5.1054222324265782e+06   4.8475919066133620e+06   5.1055739159160508e+06   4.8491931394397654e+06   5.1057295132422335e+06   4.8507940960737001e+06   5.1058537682411289e+06   4.8524107921791449e+06   5.1059282270097369e+06   4.8540439147726614e+06   5.1059587718728725e+06   4.8556861726653734e+06   5.1059538070313772e+06   4.8573433677947968e+06   5.1059008242701218e+06   4.8590322355992608e+06   5.1057908748135604e+06   4.8607414968525963e+06   5.1056723279161658e+06   4.8624189121997040e+06   5.1056289431767296e+06   4.8640220096319085e+06   5.1056706837184606e+06   4.8655735855840202e+06   5.1056643030219954e+06   4.8671587185016442e+06   5.1053608332654489e+06   4.8688899384486154e+06   5.1044190775499903e+06   4.8709042206874639e+06   5.1023104858822469e+06   4.8734950760216275e+06   5.0980550955503527e+06   4.8774190740491906e+06   5.0899922984963534e+06   4.8837111533535449e+06   5.0763603262599846e+06   5.5428471925563253e+06   4.8081790187242012e+06   4.9926457014978379e+06   4.2948368323407788e+06   4.4817918797424650e+06   3.6599347289606030e+06   4.1714269015640751e+06   3.1250191392501411e+06   4.1569491223696205e+06   2.9070033613638147e+06   4.3504727156230472e+06   3.0587041048985259e+06   4.4773043713395391e+06   3.3188380294583035e+06   4.4231314849745994e+06   3.6765536960946992e+06   4.4389440868650982e+06   3.8803019271333730e+06   4.4920434623347539e+06   4.0066496114515942e+06   4.5155042855869830e+06   4.0432270581453666e+06   4.5227380290262457e+06   4.0503629782264866e+06   4.5255886523468299e+06   4.0480738877543961e+06   4.5285304515461009e+06   4.0464711219237531e+06   4.5373248309885487e+06   4.0453439182730154e+06   4.5669153365236027e+06   4.0580854656196954e+06   4.6348297833110262e+06   4.1621594319596565e+06   4.7386431037332034e+06   4.4234333795808582e+06   4.8517439280973058e+06   4.7747955350977629e+06   4.9467045408696029e+06   5.0680789057822535e+06   5.0139539348055581e+06   5.2369855115959523e+06   5.0572625654925415e+06   5.3265364140064176e+06   5.0837340227239346e+06   5.3770905910498099e+06   5.0993328019377524e+06   5.4050417492637401e+06   5.1082834907713505e+06   5.4194802972959261e+06   5.1133258248516135e+06   5.4265234156071274e+06   5.1161371844268739e+06   5.4294914806667697e+06   5.1177523743485454e+06   5.4302388387306836e+06   5.1188038239719262e+06   5.4301172766691810e+06   5.1196108101194063e+06   5.4299202922593188e+06   5.1202692320158230e+06   5.4297170165571794e+06   5.1207830441175401e+06   5.4292335933811953e+06   5.1211603966533365e+06   5.4283456888165744e+06   5.1214388798672380e+06   5.4271519611898977e+06   5.1216590639134822e+06   5.4258464723113831e+06   5.1218415399021469e+06   5.4245138107048860e+06   5.1219848350395029e+06   5.4231423179722857e+06   5.1220735392875010e+06   5.4216741587697854e+06   5.1220970597211560e+06   5.4200294519227110e+06   5.1220715824942151e+06   5.4181921020037644e+06   5.1220405518347407e+06   5.4162849122193223e+06   5.1220506864410946e+06   5.4144924647241393e+06   5.1221129423117451e+06   5.4129451248060586e+06   5.1222032135493746e+06   5.4115383510448197e+06   5.1222961049214490e+06   5.4101196429883866e+06   5.1223833884375505e+06   5.4086527641919842e+06   5.1224655633314345e+06   5.4071787110793982e+06   5.1225377659617616e+06   5.4057151293691555e+06   5.1225913514187410e+06   5.4042188953639949e+06   5.1226308231628593e+06   5.4026504090716010e+06   5.1226579906873303e+06   5.4010934227187419e+06   5.1226632937442418e+06   5.3995176264776951e+06   5.1226504788548248e+06   5.3978443862000396e+06   5.1226460701686414e+06   5.3961431448558848e+06   5.1226676389665334e+06   5.3945664200039059e+06   5.1227030746326614e+06   5.3931076321033472e+06   5.1227350974543300e+06   5.3916291610866180e+06   5.1227608957296647e+06   5.3901027017523665e+06   5.1227775140147051e+06   5.3885853511235323e+06   5.1227778529995736e+06   5.3870425283689024e+06   5.1227648780943584e+06   5.3854346309133517e+06   5.1227597105812076e+06   5.3838028821317349e+06   5.1227850067959661e+06   5.3822646258454472e+06   5.1228415490359236e+06   5.3808777814705698e+06   5.1228995711988993e+06   5.3795798794822255e+06   5.1229209417386958e+06   5.3782016435363516e+06   5.1228880948957736e+06   5.3766371930449344e+06   5.1228095355734983e+06   5.3749170394987855e+06   5.1226924535396406e+06   5.3731479355963990e+06   5.1225191584755508e+06   5.3713235804499788e+06   5.1222826842376795e+06   5.3692758906379752e+06   5.1220461934658578e+06   5.3670105474216621e+06   5.1219030394841637e+06   5.3649665965017593e+06   5.1218529827894969e+06   5.3635066426522881e+06   5.1217396373395827e+06   5.3623565296582067e+06   5.1212897543267747e+06   5.3607568161697518e+06   5.1201307611901695e+06   5.3579302010375764e+06   5.1176727283953326e+06   5.3530224068986224e+06   5.1127912235124270e+06   5.3444664192235582e+06   5.1035884862954859e+06   5.3283295646653064e+06   5.0882233399788914e+06   5.2973291763798734e+06   4.4818879189649159e+06   4.0015637836424843e+06   3.7729211879599392e+06   3.4531129584013410e+06   2.9938216776481718e+06   3.0040187338892845e+06   2.1464172815998374e+06   2.8735472189771398e+06   1.5028227354583479e+06   3.1712244790517329e+06   1.3857429360536071e+06   3.4150396655234671e+06   1.5881524057982510e+06   3.7206433908552895e+06   1.7920323108856846e+06   3.8837902188407932e+06   3.5098161443872033e+06   4.0031654248063629e+06   3.1573917020507767e+06   4.0284172754979730e+06   2.5888983518829960e+06   4.0306536861998555e+06   2.5511514837992191e+06   4.0272275880915630e+06   2.5506098556816876e+06   4.0251702400319837e+06   2.5491659508921336e+06   4.0236270108177988e+06   2.5544025133524002e+06   4.0333599267508811e+06   2.5813802125537903e+06   4.1197391779865385e+06   2.6874521080870884e+06   4.3309103002929352e+06   2.9297236514797197e+06   4.5948544156544395e+06   3.2742524380497686e+06   4.7898416718936097e+06   3.6004832218308258e+06   4.8847434448971273e+06   3.8253398700134335e+06   4.9269260922232326e+06   3.9556775190411722e+06   4.9476534254361233e+06   4.0292583286606185e+06   4.9577154246416576e+06   4.0709186756483591e+06   4.9620557667615106e+06   4.0935324768697838e+06   4.9635477855214402e+06   4.1049602330422900e+06   4.9635595540335309e+06   4.1100828210717780e+06   4.9627864128424432e+06   4.1117560109229223e+06   4.9617508686414808e+06   4.1117495118768262e+06   4.9607602401857944e+06   4.1111271596131297e+06   4.9598087723670378e+06   4.1102897504702676e+06   4.9587500433113733e+06   4.1091929475819599e+06   4.9575223121773079e+06   4.1077280393016664e+06   4.9561709167126641e+06   4.1059281801991174e+06   4.9547850938653639e+06   4.1039304183189380e+06   4.9534003024609620e+06   4.1018455301469574e+06   4.9520088265491333e+06   4.0996965140660354e+06   4.9505840236242404e+06   4.0974462647920516e+06   4.9490882505877567e+06   4.0950419783608299e+06   4.9475114526691679e+06   4.0924739021631428e+06   4.9459075939773787e+06   4.0898253655261262e+06   4.9443590806639837e+06   4.0872433519844180e+06   4.9429263168032309e+06   4.0848402430089153e+06   4.9415583181340154e+06   4.0825981086153355e+06   4.9401839341952307e+06   4.0804094420849420e+06   4.9387891062170165e+06   4.0782043986276160e+06   4.9373956701377006e+06   4.0759821367141674e+06   4.9360131042413497e+06   4.0737547756428248e+06   4.9346208874759050e+06   4.0715059127821010e+06   4.9331988447056143e+06   4.0692127264910284e+06   4.9317895778555116e+06   4.0668918451193161e+06   4.9303783105589012e+06   4.0645497409423054e+06   4.9289247098169131e+06   4.0621584930556533e+06   4.9274600384200467e+06   4.0597442713183858e+06   4.9260571917784652e+06   4.0573948196012340e+06   4.9247125359901004e+06   4.0551429895525216e+06   4.9233593304513125e+06   4.0529252953215539e+06   4.9219858795647826e+06   4.0506858756833877e+06   4.9206224590104958e+06   4.0484292046119096e+06   4.9192521631879853e+06   4.0461541383768236e+06   4.9178546448126184e+06   4.0438432325342130e+06   4.9164473742702706e+06   4.0415206281369538e+06   4.9150849640506553e+06   4.0392599989985931e+06   4.9137947625644719e+06   4.0371150126820034e+06   4.9125495172151541e+06   4.0350512961351299e+06   4.9112715140500115e+06   4.0329537041904619e+06   4.9099133414759515e+06   4.0307158168719001e+06   4.9084911812205845e+06   4.0283196847332348e+06   4.9070577253180938e+06   4.0258136079523088e+06   4.9056111206681579e+06   4.0232131784417573e+06   4.9040666197735369e+06   4.0204642192414971e+06   4.9024174327695677e+06   4.0175884605578301e+06   4.9008699901730958e+06   4.0148235539973527e+06   4.8996037655807026e+06   4.0124104651532378e+06   4.8985045486874962e+06   4.0101915347662605e+06   4.8972450518073691e+06   4.0075148915028996e+06   4.8955194966522930e+06   4.0034293911261908e+06   4.8930244824285079e+06   3.9966645205741143e+06   4.8891749942900017e+06   3.9851140589978858e+06   4.8822350703880247e+06   3.9650011000374057e+06   4.8684347528761383e+06   3.9308395469801608e+06   3.8779204567134362e+06   3.3098165858453107e+06   2.8494855344475321e+06   2.9398059550819215e+06   2.2428251617289740e+06   2.0805119283402397e+06   1.6304898843894510e+06   1.2849028322885928e+06   1.4184254125320492e+06   4.5478420909946621e+05   1.9056547513252546e+06   9.0645715024711646e+05   2.1146344601156813e+05   5.8595942872939813e+04   8.2877549318015644e-07   2.5582006408485595e-10   0.0000000000000000e+00   0.0000000000000000e+00   0.0000000000000000e+00   0.0000000000000000e+00   0.0000000000000000e+00   0.0000000000000000e+00   0.0000000000000000e+00   0.0000000000000000e+00   0.0000000000000000e+00   0.0000000000000000e+00   0.0000000000000000e+00   0.0000000000000000e+00   0.0000000000000000e+00   0.0000000000000000e+00   0.0000000000000000e+00   0.0000000000000000e+00   0.0000000000000000e+00   0.0000000000000000e+00   0.0000000000000000e+00   0.0000000000000000e+00   0.0000000000000000e+00   0.0000000000000000e+00   0.0000000000000000e+00   0.0000000000000000e+00   0.0000000000000000e+00   0.0000000000000000e+00   0.0000000000000000e+00   0.0000000000000000e+00   0.0000000000000000e+00   0.0000000000000000e+00   0.0000000000000000e+00   0.0000000000000000e+00   0.0000000000000000e+00   0.0000000000000000e+00   0.0000000000000000e+00   0.0000000000000000e+00   0.0000000000000000e+00   0.0000000000000000e+00   0.0000000000000000e+00   0.0000000000000000e+00   0.0000000000000000e+00   0.0000000000000000e+00   0.0000000000000000e+00   0.0000000000000000e+00   0.0000000000000000e+00   0.0000000000000000e+00   0.0000000000000000e+00   0.0000000000000000e+00   0.0000000000000000e+00   0.0000000000000000e+00   0.0000000000000000e+00   0.0000000000000000e+00   0.0000000000000000e+00   0.0000000000000000e+00   0.0000000000000000e+00   0.0000000000000000e+00   0.0000000000000000e+00   0.0000000000000000e+00   0.0000000000000000e+00   0.0000000000000000e+00   0.0000000000000000e+00   0.0000000000000000e+00   0.0000000000000000e+00   0.0000000000000000e+00   0.0000000000000000e+00   0.0000000000000000e+00   0.0000000000000000e+00   0.0000000000000000e+00   0.0000000000000000e+00   0.0000000000000000e+00   0.0000000000000000e+00   0.0000000000000000e+00   0.0000000000000000e+00   0.0000000000000000e+00   0.0000000000000000e+00   0.0000000000000000e+00   0.0000000000000000e+00   0.0000000000000000e+00   0.0000000000000000e+00   0.0000000000000000e+00   0.0000000000000000e+00   0.0000000000000000e+00   0.0000000000000000e+00   0.0000000000000000e+00   0.0000000000000000e+00   0.0000000000000000e+00   0.0000000000000000e+00   0.0000000000000000e+00   0.0000000000000000e+00   0.0000000000000000e+00   0.0000000000000000e+00   0.0000000000000000e+00   0.0000000000000000e+00   0.0000000000000000e+00   0.0000000000000000e+00   0.0000000000000000e+00   0.0000000000000000e+00   0.0000000000000000e+00   0.0000000000000000e+00   0.0000000000000000e+00   0.0000000000000000e+00   0.0000000000000000e+00   0.0000000000000000e+00   0.0000000000000000e+00   0.0000000000000000e+00   0.0000000000000000e+00   0.0000000000000000e+00   0.0000000000000000e+00   0.0000000000000000e+00   0.0000000000000000e+00   0.0000000000000000e+00   0.0000000000000000e+00   0.0000000000000000e+00   0.0000000000000000e+00   0.0000000000000000e+00   0.0000000000000000e+00   0.0000000000000000e+00   0.0000000000000000e+00   0.0000000000000000e+00   0.0000000000000000e+00   0.0000000000000000e+00   0.0000000000000000e+00   0.0000000000000000e+00   0.0000000000000000e+00   0.0000000000000000e+00   0.0000000000000000e+00   0.0000000000000000e+00   0.0000000000000000e+00   0.0000000000000000e+00   0.0000000000000000e+00   0.0000000000000000e+00   0.0000000000000000e+00   0.0000000000000000e+00   0.0000000000000000e+00   0.0000000000000000e+00   0.0000000000000000e+00   0.0000000000000000e+00   0.0000000000000000e+00   0.0000000000000000e+00   0.0000000000000000e+00   0.0000000000000000e+00   0.0000000000000000e+00   0.0000000000000000e+00   0.0000000000000000e+00   0.0000000000000000e+00   0.0000000000000000e+00   0.0000000000000000e+00   2.9675348305544457e+06   2.5404346288458193e+06   2.5469184070429578e+06   2.0379845380220450e+06   2.0119438484446260e+06   1.7151547778093598e+06   1.3125711883681938e+06   4.2371361359696183e+06   2.9052887377284491e+05   0.0000000000000000e+00   4.9214424486511128e-04   0.0000000000000000e+00   0.0000000000000000e+00   0.0000000000000000e+00   0.0000000000000000e+00   0.0000000000000000e+00   0.0000000000000000e+00   0.0000000000000000e+00   0.0000000000000000e+00   0.0000000000000000e+00   0.0000000000000000e+00   0.0000000000000000e+00   0.0000000000000000e+00   0.0000000000000000e+00   0.0000000000000000e+00   0.0000000000000000e+00   0.0000000000000000e+00   0.0000000000000000e+00   0.0000000000000000e+00   0.0000000000000000e+00   0.0000000000000000e+00   0.0000000000000000e+00   0.0000000000000000e+00   0.0000000000000000e+00   0.0000000000000000e+00   0.0000000000000000e+00   0.0000000000000000e+00   0.0000000000000000e+00   0.0000000000000000e+00   0.0000000000000000e+00   0.0000000000000000e+00   0.0000000000000000e+00   0.0000000000000000e+00   0.0000000000000000e+00   0.0000000000000000e+00   0.0000000000000000e+00   0.0000000000000000e+00   0.0000000000000000e+00   0.0000000000000000e+00   0.0000000000000000e+00   0.0000000000000000e+00   0.0000000000000000e+00   0.0000000000000000e+00   0.0000000000000000e+00   0.0000000000000000e+00   0.0000000000000000e+00   0.0000000000000000e+00   0.0000000000000000e+00   0.0000000000000000e+00   0.0000000000000000e+00   0.0000000000000000e+00   0.0000000000000000e+00   0.0000000000000000e+00   0.0000000000000000e+00   0.0000000000000000e+00   0.0000000000000000e+00   0.0000000000000000e+00   0.0000000000000000e+00   0.0000000000000000e+00   0.0000000000000000e+00   0.0000000000000000e+00   0.0000000000000000e+00   0.0000000000000000e+00   0.0000000000000000e+00   0.0000000000000000e+00   0.0000000000000000e+00   0.0000000000000000e+00   0.0000000000000000e+00   0.0000000000000000e+00   0.0000000000000000e+00   0.0000000000000000e+00   0.0000000000000000e+00   0.0000000000000000e+00   0.0000000000000000e+00   0.0000000000000000e+00   0.0000000000000000e+00   0.0000000000000000e+00   0.0000000000000000e+00   0.0000000000000000e+00   0.0000000000000000e+00   0.0000000000000000e+00   0.0000000000000000e+00   0.0000000000000000e+00   0.0000000000000000e+00   0.0000000000000000e+00   0.0000000000000000e+00   0.0000000000000000e+00   0.0000000000000000e+00   0.0000000000000000e+00   0.0000000000000000e+00   0.0000000000000000e+00   0.0000000000000000e+00   0.0000000000000000e+00   0.0000000000000000e+00   0.0000000000000000e+00   0.0000000000000000e+00   0.0000000000000000e+00   0.0000000000000000e+00   0.0000000000000000e+00   0.0000000000000000e+00   0.0000000000000000e+00   0.0000000000000000e+00   0.0000000000000000e+00   0.0000000000000000e+00   0.0000000000000000e+00   0.0000000000000000e+00   0.0000000000000000e+00   0.0000000000000000e+00   0.0000000000000000e+00   0.0000000000000000e+00   0.0000000000000000e+00   0.0000000000000000e+00   0.0000000000000000e+00   0.0000000000000000e+00   0.0000000000000000e+00   0.0000000000000000e+00   0.0000000000000000e+00   0.0000000000000000e+00   0.0000000000000000e+00   0.0000000000000000e+00   0.0000000000000000e+00   0.0000000000000000e+00   0.0000000000000000e+00   0.0000000000000000e+00   0.0000000000000000e+00   0.0000000000000000e+00   0.0000000000000000e+00   0.0000000000000000e+00   0.0000000000000000e+00   0.0000000000000000e+00   0.0000000000000000e+00   0.0000000000000000e+00   0.0000000000000000e+00   0.0000000000000000e+00   0.0000000000000000e+00   0.0000000000000000e+00   0.0000000000000000e+00   0.00000000