<?xml version="1.0"?>
<VTKFile type="UnstructuredGrid"  version="0.1"  >
<UnstructuredGrid>
<Piece  NumberOfPoints="4737" NumberOfCells="9197">
<Points>
<DataArray  type="Float64"  NumberOfComponents="3"  format="ascii">1.759565217391304 0 0  1.767826086956522 0 0  1.767826086956522 0.008333333333333333 0  1.759565217391304 0.008333333333333333 0  1.776086956521739 0 0  1.776086956521739 0.008333333333333333 0  1.784347826086957 0 0  1.784347826086957 0.008333333333333333 0  1.792608695652174 0 0  1.792608695652174 0.008333333333333333 0  1.800869565217391 0 0  1.800869565217391 0.008333333333333333 0  1.809130434782608 0 0  1.809130434782608 0.008333333333333333 0  1.817391304347826 0 0  1.817391304347826 0.008333333333333333 0  1.825652173913043 0 0  1.825652173913043 0.008333333333333333 0  1.833913043478261 0 0  1.833913043478261 0.008333333333333333 0  1.842173913043478 0 0  1.842173913043478 0.008333333333333333 0  1.850434782608696 0 0  1.850434782608696 0.008333333333333333 0  1.858695652173913 0 0  1.858695652173913 0.008333333333333333 0  1.86695652173913 0 0  1.86695652173913 0.008333333333333333 0  1.875217391304348 0 0  1.875217391304348 0.008333333333333333 0  1.883478260869565 0 0  1.883478260869565 0.008333333333333333 0  1.891739130434782 0 0  1.891739130434782 0.008333333333333333 0  1.9 0 0  1.9 0.008333333333333333 0  1.908260869565217 0 0  1.908260869565217 0.008333333333333333 0  1.916521739130435 0 0  1.916521739130435 0.008333333333333333 0  1.924782608695652 0 0  1.924782608695652 0.008333333333333333 0  1.933043478260869 0 0  1.933043478260869 0.008333333333333333 0  1.941304347826087 0 0  1.941304347826087 0.008333333333333333 0  1.949565217391304 0 0  1.949565217391304 0.008333333333333333 0  1.957826086956522 0 0  1.957826086956522 0.008333333333333333 0  1.966086956521739 0 0  1.966086956521739 0.008333333333333333 0  1.974347826086956 0 0  1.974347826086956 0.008333333333333333 0  1.982608695652174 0 0  1.982608695652174 0.008333333333333333 0  1.990869565217391 0 0  1.990869565217391 0.008333333333333333 0  1.999130434782608 0 0  1.999130434782608 0.008333333333333333 0  2.007391304347826 0 0  2.007391304347826 0.008333333333333333 0  2.015652173913043 0 0  2.015652173913043 0.008333333333333333 0  2.023913043478261 0 0  2.023913043478261 0.008333333333333333 0  2.032173913043478 0 0  2.032173913043478 0.008333333333333333 0  2.040434782608695 0 0  2.040434782608695 0.008333333333333333 0  2.048695652173913 0 0  2.048695652173913 0.008333333333333333 0  2.05695652173913 0 0  2.05695652173913 0.008333333333333333 0  2.065217391304348 0 0  2.065217391304348 0.008333333333333333 0  2.073478260869565 0 0  2.073478260869565 0.008333333333333333 0  2.081739130434782 0 0  2.081739130434782 0.008333333333333333 0  2.09 0 0  2.09 0.008333333333333333 0  2.098260869565217 0 0  2.098260869565217 0.008333333333333333 0  2.106521739130435 0 0  2.106521739130435 0.008333333333333333 0  2.114782608695652 0 0  2.114782608695652 0.008333333333333333 0  2.12304347826087 0 0  2.12304347826087 0.008333333333333333 0  2.131304347826087 0 0  2.131304347826087 0.008333333333333333 0  2.139565217391304 0 0  2.139565217391304 0.008333333333333333 0  2.147826086956522 0 0  2.147826086956522 0.008333333333333333 0  2.156086956521739 0 0  2.156086956521739 0.008333333333333333 0  2.164347826086956 0 0  2.164347826086956 0.008333333333333333 0  2.172608695652174 0 0  2.172608695652174 0.008333333333333333 0  2.180869565217391 0 0  2.180869565217391 0.008333333333333333 0  2.189130434782609 0 0  2.189130434782609 0.008333333333333333 0  2.197391304347826 0 0  2.197391304347826 0.008333333333333333 0  2.205652173913043 0 0  2.205652173913043 0.008333333333333333 0  2.213913043478261 0 0  2.213913043478261 0.008333333333333333 0  2.222173913043478 0 0  2.222173913043478 0.008333333333333333 0  2.230434782608695 0 0  2.230434782608695 0.008333333333333333 0  2.238695652173913 0 0  2.238695652173913 0.008333333333333333 0  2.24695652173913 0 0  2.24695652173913 0.008333333333333333 0  2.255217391304348 0 0  2.255217391304348 0.008333333333333333 0  2.263478260869565 0 0  2.263478260869565 0.008333333333333333 0  2.271739130434783 0 0  2.271739130434783 0.008333333333333333 0  2.28 0 0  2.28 0.008333333333333333 0  2.288260869565217 0 0  2.288260869565217 0.008333333333333333 0  2.296521739130434 0 0  2.296521739130434 0.008333333333333333 0  2.304782608695652 0 0  2.304782608695652 0.008333333333333333 0  2.31304347826087 0 0  2.31304347826087 0.008333333333333333 0  2.321304347826087 0 0  2.321304347826087 0.008333333333333333 0  2.329565217391304 0 0  2.329565217391304 0.008333333333333333 0  2.337826086956521 0 0  2.337826086956521 0.008333333333333333 0  2.346086956521739 0.008333333333333333 0  1.767826086956522 0.01666666666666667 0  1.776086956521739 0.01666666666666667 0  1.784347826086957 0.01666666666666667 0  1.792608695652174 0.01666666666666667 0  1.800869565217391 0.01666666666666667 0  1.809130434782608 0.01666666666666667 0  1.817391304347826 0.01666666666666667 0  1.825652173913043 0.01666666666666667 0  1.833913043478261 0.01666666666666667 0  1.842173913043478 0.01666666666666667 0  1.850434782608696 0.01666666666666667 0  1.858695652173913 0.01666666666666667 0  1.86695652173913 0.01666666666666667 0  1.875217391304348 0.01666666666666667 0  1.883478260869565 0.01666666666666667 0  1.891739130434782 0.01666666666666667 0  1.9 0.01666666666666667 0  1.908260869565217 0.01666666666666667 0  1.916521739130435 0.01666666666666667 0  1.924782608695652 0.01666666666666667 0  1.933043478260869 0.01666666666666667 0  1.941304347826087 0.01666666666666667 0  1.949565217391304 0.01666666666666667 0  1.957826086956522 0.01666666666666667 0  1.966086956521739 0.01666666666666667 0  1.974347826086956 0.01666666666666667 0  1.982608695652174 0.01666666666666667 0  1.990869565217391 0.01666666666666667 0  1.999130434782608 0.01666666666666667 0  2.007391304347826 0.01666666666666667 0  2.015652173913043 0.01666666666666667 0  2.023913043478261 0.01666666666666667 0  2.032173913043478 0.01666666666666667 0  2.040434782608695 0.01666666666666667 0  2.048695652173913 0.01666666666666667 0  2.05695652173913 0.01666666666666667 0  2.065217391304348 0.01666666666666667 0  2.073478260869565 0.01666666666666667 0  2.081739130434782 0.01666666666666667 0  2.09 0.01666666666666667 0  2.098260869565217 0.01666666666666667 0  2.106521739130435 0.01666666666666667 0  2.114782608695652 0.01666666666666667 0  2.12304347826087 0.01666666666666667 0  2.131304347826087 0.01666666666666667 0  2.139565217391304 0.01666666666666667 0  2.147826086956522 0.01666666666666667 0  2.156086956521739 0.01666666666666667 0  2.164347826086956 0.01666666666666667 0  2.172608695652174 0.01666666666666667 0  2.180869565217391 0.01666666666666667 0  2.189130434782609 0.01666666666666667 0  2.197391304347826 0.01666666666666667 0  2.205652173913043 0.01666666666666667 0  2.213913043478261 0.01666666666666667 0  2.222173913043478 0.01666666666666667 0  2.230434782608695 0.01666666666666667 0  2.238695652173913 0.01666666666666667 0  2.24695652173913 0.01666666666666667 0  2.255217391304348 0.01666666666666667 0  2.263478260869565 0.01666666666666667 0  2.271739130434783 0.01666666666666667 0  2.28 0.01666666666666667 0  2.288260869565217 0.01666666666666667 0  2.296521739130434 0.01666666666666667 0  2.304782608695652 0.01666666666666667 0  2.31304347826087 0.01666666666666667 0  2.321304347826087 0.01666666666666667 0  2.329565217391304 0.01666666666666667 0  2.337826086956521 0.01666666666666667 0  2.346086956521739 0.01666666666666667 0  1.776086956521739 0.025 0  1.767826086956522 0.025 0  1.784347826086957 0.025 0  1.792608695652174 0.025 0  1.800869565217391 0.025 0  1.809130434782608 0.025 0  1.817391304347826 0.025 0  1.825652173913043 0.025 0  1.833913043478261 0.025 0  1.842173913043478 0.025 0  1.850434782608696 0.025 0  1.858695652173913 0.025 0  1.86695652173913 0.025 0  1.875217391304348 0.025 0  1.883478260869565 0.025 0  1.891739130434782 0.025 0  1.9 0.025 0  1.908260869565217 0.025 0  1.916521739130435 0.025 0  1.924782608695652 0.025 0  1.933043478260869 0.025 0  1.941304347826087 0.025 0  1.949565217391304 0.025 0  1.957826086956522 0.025 0  1.966086956521739 0.025 0  1.974347826086956 0.025 0  1.982608695652174 0.025 0  1.990869565217391 0.025 0  1.999130434782608 0.025 0  2.007391304347826 0.025 0  2.015652173913043 0.025 0  2.023913043478261 0.025 0  2.032173913043478 0.025 0  2.040434782608695 0.025 0  2.048695652173913 0.025 0  2.05695652173913 0.025 0  2.065217391304348 0.025 0  2.073478260869565 0.025 0  2.081739130434782 0.025 0  2.09 0.025 0  2.098260869565217 0.025 0  2.106521739130435 0.025 0  2.114782608695652 0.025 0  2.12304347826087 0.025 0  2.131304347826087 0.025 0  2.139565217391304 0.025 0  2.147826086956522 0.025 0  2.156086956521739 0.025 0  2.164347826086956 0.025 0  2.172608695652174 0.025 0  2.180869565217391 0.025 0  2.189130434782609 0.025 0  2.197391304347826 0.025 0  2.205652173913043 0.025 0  2.213913043478261 0.025 0  2.222173913043478 0.025 0  2.230434782608695 0.025 0  2.238695652173913 0.025 0  2.24695652173913 0.025 0  2.255217391304348 0.025 0  2.263478260869565 0.025 0  2.271739130434783 0.025 0  2.28 0.025 0  2.288260869565217 0.025 0  2.296521739130434 0.025 0  2.304782608695652 0.025 0  2.31304347826087 0.025 0  2.321304347826087 0.025 0  2.329565217391304 0.025 0  2.337826086956521 0.025 0  2.346086956521739 0.025 0  2.354347826086956 0.025 0  1.776086956521739 0.03333333333333333 0  1.784347826086957 0.03333333333333333 0  1.792608695652174 0.03333333333333333 0  1.800869565217391 0.03333333333333333 0  1.809130434782608 0.03333333333333333 0  1.817391304347826 0.03333333333333333 0  1.825652173913043 0.03333333333333333 0  1.833913043478261 0.03333333333333333 0  1.842173913043478 0.03333333333333333 0  1.850434782608696 0.03333333333333333 0  1.858695652173913 0.03333333333333333 
[...]
<CellData  Scalars="rho"> 
<DataArray  type="Float64"  Name="rho"  format="ascii">9.9514482907237611e-01   9.9494100723690171e-01   9.8408086409928597e-01   9.9491229375512080e-01   9.9988999339925999e-01   9.9316204122980878e-01   9.9996978257826208e-01   9.9998183027116139e-01   9.9998088581067568e-01   9.9997684300081713e-01   9.9997836160797837e-01   9.9997372073625768e-01   9.9998806620851277e-01   9.9998640671650596e-01   9.9999151455741442e-01   9.9999145540894085e-01   9.9999156901943587e-01   9.9999189320142401e-01   9.9999084191770926e-01   9.9999082490546820e-01   9.9999096835071721e-01   9.9999036384571915e-01   9.9999253762129492e-01   9.9999144106075444e-01   9.9999531431433641e-01   9.9999401376177699e-01   9.9999859084426679e-01   9.9999741295335010e-01   1.0000000000000000e+00   1.0000000000000000e+00   1.0000000000000000e+00   1.0000000000000000e+00   1.0000000000000000e+00   1.0000000000000000e+00   1.0000000000000000e+00   1.0000000000000000e+00   1.0000000000000000e+00   1.0000000000000000e+00   1.0000000000000000e+00   1.0000000000000000e+00   1.0000000000000000e+00   1.0000000000000000e+00   9.9999026139690306e-01   9.9999448576805716e-01   9.9996260477561438e-01   9.9998226906568422e-01   9.9984289361531953e-01   9.9985694506743816e-01   9.9979463735184926e-01   9.9979861930190284e-01   9.9976067396822643e-01   9.9975888908099741e-01   9.9974882735220161e-01   9.9974428362572665e-01   9.9987992249332802e-01   9.9989101849350182e-01   9.9985065511522564e-01   9.9985111787007697e-01   9.9985546516715196e-01   9.9984172064240240e-01   9.9990953835059715e-01   9.9987738319680652e-01   1.0000000000000000e+00   9.9997263738695286e-01   9.9988642964616992e-01   9.9983562470916520e-01   1.0000000000000000e+00   9.9997089618688728e-01   1.0000000000000000e+00   1.0000000000000000e+00   1.0000000000000000e+00   1.0000000000000000e+00   1.0000000000000000e+00   1.0000000000000000e+00   1.0000000000000000e+00   1.0000000000000000e+00   1.0000000000000000e+00   1.0000000000000000e+00   9.9997122842888442e-01   1.0000000000000000e+00   1.0000000000000000e+00   1.0000000000000000e+00   9.9959408091990687e-01   9.9965657715772849e-01   9.9973917391245581e-01   9.9980095783909562e-01   9.9957789563126953e-01   9.9961364810053177e-01   9.9948590168884943e-01   9.9949456288322258e-01   9.9946652661843660e-01   9.9945231342209895e-01   9.9950593333362581e-01   9.9947953640534282e-01   9.9957058230013729e-01   9.9954872422437524e-01   9.9917118727671772e-01   9.9916701352967741e-01   9.9912467331428478e-01   9.9915111911061416e-01   9.9935500077737527e-01   9.9946618955641509e-01   9.9870866565130811e-01   9.9912457669594024e-01   9.9828112848456274e-01   9.9840696641966331e-01   9.9732979774534969e-01   9.9751322801035025e-01   9.9700849784504952e-01   9.9628245526087200e-01   9.9752531110144582e-01   9.9705634152879030e-01   9.9886018983615443e-01   9.9836638692489899e-01   9.9962768240835964e-01   9.9942546779267094e-01   1.0000000000000000e+00   1.0000000000000000e+00   1.0000000000000000e+00   1.0000000000000000e+00   1.0000000000000000e+00   1.0000000000000000e+00   9.9983727105731568e-01   1.0000000000000000e+00   9.9832254194612191e-01   9.9937461221185375e-01   9.0221131500855922e-01   9.1331076703158898e-01   7.7845871958733670e-01   7.7908293909059401e-01   8.1980083517671809e-01   7.2667085024506051e-01   8.7949147114530624e-01   8.6312672599094786e-01   9.2762150961361822e-01   9.1806972518536856e-01   9.6572729096588383e-01   9.6086020855141641e-01   9.6930670214511550e-01   9.6992907269951001e-01   9.6741153068545649e-01   9.8495057078554116e-01   9.8366117868283243e-01   9.7918198300931047e-01   9.7789238759722563e-01   9.4917880545313171e-01   9.9996588006559917e-01   9.8129466250426056e-01   9.9998130593454393e-01   9.9997541400954715e-01   9.9998269662990757e-01   9.9997896274016052e-01   9.9999178380759146e-01   9.9999265351244093e-01   9.9999291910495913e-01   9.9999489281491050e-01   9.9999072508581788e-01   9.9999181852061714e-01   9.9998863771650282e-01   9.9998822839118917e-01   9.9998845613767895e-01   9.9998676012928900e-01   9.9999059528525414e-01   9.9998822288185085e-01   9.9999444778029922e-01   9.9999212754423661e-01   9.9999884322260568e-01   9.9999717443879577e-01   1.0000000000000000e+00   1.0000000000000000e+00   1.0000000000000000e+00   1.0000000000000000e+00   1.0000000000000000e+00   1.0000000000000000e+00   1.0000000000000000e+00   1.0000000000000000e+00   1.0000000000000000e+00   1.0000000000000000e+00   1.0000000000000000e+00   1.0000000000000000e+00   9.9999976727044704e-01   1.0000000000000000e+00   9.9998668601973595e-01   9.9998798682799350e-01   9.9987901223983999e-01   9.9995306448910615e-01   9.9979546521463636e-01   9.9979108917774340e-01   9.9975161299697579e-01   9.9973562435747365e-01   9.9972266966197199e-01   9.9970293519435749e-01   9.9971443072844279e-01   9.9969550078044689e-01   9.9985158478862712e-01   9.9985510577171044e-01   9.9981365172154613e-01   9.9980706792819396e-01   9.9980994418808888e-01   9.9978399373161131e-01   9.9986561870836699e-01   9.9981425409710267e-01   9.9999968613293699e-01   9.9992640798552901e-01   9.9986966192232618e-01   9.9979414526132182e-01   1.0000000000000000e+00   9.9997705004985993e-01   1.0000000000000000e+00   1.0000000000000000e+00   1.0000000000000000e+00   1.0000000000000000e+00   1.0000000000000000e+00   1.0000000000000000e+00   1.0000000000000000e+00   1.0000000000000000e+00   1.0000000000000000e+00   1.0000000000000000e+00   9.9999642200941208e-01   1.0000000000000000e+00   1.0000000000000000e+00   1.0000000000000000e+00   9.9954742592507229e-01   9.9961292002481383e-01   9.9969185092459034e-01   9.9975583074186436e-01   9.9950706311880200e-01   9.9952796279251632e-01   9.9940952598127142e-01   9.9939080002809333e-01   9.9940638069422971e-01   9.9935888087346436e-01   9.9948360167567341e-01   9.9942741532066337e-01   9.9912555877819720e-01   9.9956350407831351e-01   9.9917644006071782e-01   9.9915574819898734e-01   9.9916173118181761e-01   9.9919055520685662e-01   9.9901566834523681e-01   9.9910689571983757e-01   9.9870903364663055e-01   9.9927343932286417e-01   9.9812180671717099e-01   9.9829024613352191e-01   9.9606685685740204e-01   9.9625118010449465e-01   9.9423061266671886e-01   9.9255915731622468e-01   9.9562742843825092e-01   9.9343101878413642e-01   9.9831096676351438e-01   9.9685019303750111e-01   9.9960099604825381e-01   9.9936971202410352e-01   1.0000000000000000e+00   1.0000000000000000e+00   1.0000000000000000e+00   1.0000000000000000e+00   1.0000000000000000e+00   1.0000000000000000e+00   1.0000000000000000e+00   1.0000000000000000e+00   9.9922742692293620e-01   9.9972940971210433e-01   7.7950717925081747e-01   7.8293987600877080e-01   6.2403779228898526e-01   5.6395416919739438e-01   7.8881478683640971e-01   5.1876639520008927e-01   8.6825563275297779e-01   8.0496522275537163e-01   9.3672443215226409e-01   9.1717503386864174e-01   9.7151073655413522e-01   9.7042430675760449e-01   9.7622661268268829e-01   9.7859425380137288e-01   9.5264561546044313e-01   9.7056753537495288e-01   9.4248338944561771e-01   9.2733610477341200e-01   7.8834780973453566e-01   6.9804148456525839e-01   9.5004634511481001e-01   8.3782750709868836e-01   9.9996757907900202e-01   9.9996526423789467e-01   9.9999591387939513e-01   9.9999613865703507e-01   1.0000000000000000e+00   1.0000000000000000e+00   9.9999632143544848e-01   1.0000000000000000e+00   9.9998818288153235e-01   9.9999076581796720e-01   9.9998268681080360e-01   9.9998161109497663e-01   9.9998181162048727e-01   9.9997819835852664e-01   9.9998549958532879e-01   9.9998081337365796e-01   9.9999221655290005e-01   9.9998796579423488e-01   9.9999954007507597e-01   9.9999688637589790e-01   1.0000000000000000e+00   1.0000000000000000e+00   1.0000000000000000e+00   1.0000000000000000e+00   1.0000000000000000e+00   1.0000000000000000e+00   1.0000000000000000e+00   1.0000000000000000e+00   1.0000000000000000e+00   1.0000000000000000e+00   1.0000000000000000e+00   1.0000000000000000e+00   9.9999792422327549e-01   9.9999882927349504e-01   9.9997073325446817e-01   9.9996888744609436e-01   9.9977502580755562e-01   9.9977739334811710e-01   9.9968594950153633e-01   9.9965718309111806e-01   9.9965610087867229e-01   9.9961318463782700e-01   9.9964247270928608e-01   9.9960150749002763e-01   9.9964436087133024e-01   9.9961250308583671e-01   9.9980550983709127e-01   9.9981385574708315e-01   9.9974337436415772e-01   9.9974216061734555e-01   9.9971093309424885e-01   9.9968142704703211e-01   9.9975887891128756e-01   9.9968616762083651e-01   9.9993243695590839e-01   9.9981975043987981e-01   9.9982276277071813e-01   9.9970513503010161e-01   1.0000000000000000e+00   9.9998306878472187e-01   1.0000000000000000e+00   1.0000000000000000e+00   1.0000000000000000e+00   1.0000000000000000e+00   1.0000000000000000e+00   1.0000000000000000e+00   1.0000000000000000e+00   1.0000000000000000e+00   1.0000000000000000e+00   1.0000000000000000e+00   1.0000000000000000e+00   1.0000000000000000e+00   9.9978081733832080e-01   1.0000000000000000e+00   9.9945591234364550e-01   9.9953844146555804e-01   9.9959616928397721e-01   9.9967433958942509e-01   9.9935469581280034e-01   9.9936700928463462e-01   9.9923849579323498e-01   9.9918969307506877e-01   9.9926657914987882e-01   9.9917194470366566e-01   9.9942753870636014e-01   9.9931859179888038e-01   9.9905279561050442e-01   9.9958616374113762e-01   9.9919592888967490e-01   9.9914371734222185e-01   9.9998864722721803e-01   1.0000000000000000e+00   9.9916494880042184e-01   1.0000000000000000e+00   9.9928186095453042e-01   9.9898378989236891e-01   9.9788808045650923e-01   9.9822588306699445e-01   9.9218358679339058e-01   9.9292958951927768e-01   9.8882516425760092e-01   9.8695958393609973e-01   9.8765419003900434e-01   9.8373002693925782e-01   9.9574494493977506e-01   9.8757593315492953e-01   9.9941318701693727e-01   9.9807756528315683e-01   1.0000000000000000e+00   1.0000000000000000e+00   1.0000000000000000e+00   1.0000000000000000e+00   1.0000000000000000e+00   1.0000000000000000e+00   1.0000000000000000e+00   1.0000000000000000e+00   5.7330095548915350e-01   4.2480738979361227e-01   1.8418211015512362e-01   1.9402961348384884e-04   0.0000000000000000e+00   0.0000000000000000e+00   4.7419292467686547e-01   0.0000000000000000e+00   8.4404054857944155e-01   6.7702840591615421e-01   9.6154349847254195e-01   9.3820209631376750e-01   9.8395599875023343e-01   9.8513140925010234e-01   9.8071560395712254e-01   9.8862162410519872e-01   9.2837119994945827e-01   9.6748589917263950e-01   7.8852021728211197e-01   1.3801887072146335e-01   2.4836889288560784e-03   0.0000000000000000e+00   1.5466033663811013e-01   1.3359103812382369e-02   6.5454984879355649e-01   1.0112289011824946e-01   1.0000000000000000e+00   4.6799121515102954e-01   1.0000000000000000e+00   1.0000000000000000e+00   1.0000000000000000e+00   1.0000000000000000e+00   9.9998076169916683e-01   9.9998477152776521e-01   9.9996940127056655e-01   9.9996617755149464e-01   9.9997754039813613e-01   9.9997224186038358e-01   9.9998266315719853e-01   9.9997622078661530e-01   9.9998812559121486e-01   9.9998008755205436e-01   1.0000000000000000e+00   9.9999683412335483e-01   1.0000000000000000e+00   1.0000000000000000e+00   1.0000000000000000e+00   1.0000000000000000e+00   1.0000000000000000e+00   1.0000000000000000e+00   1.0000000000000000e+00   1.0000000000000000e+00   1.0000000000000000e+00   1.0000000000000000e+00   1.0000000000000000e+00   1.0000000000000000e+00   9.9997882686516737e-01   9.9998593187769436e-01   9.9990426152072009e-01   9.9991494596041319e-01   9.9961772071940191e-01   9.9953803307645694e-01   9.9943806942285829e-01   9.9939504953862857e-01   9.9943728872684656e-01   9.9943935807932260e-01   9.9947130052516375e-01   9.9934177361116971e-01   9.9936434142568575e-01   9.9926602837629319e-01   9.9926435888016896e-01   9.9914319920646111e-01   9.9914830907248919e-01   9.9900371046769465e-01   9.9905577433643689e-01   9.9888851617809526e-01   9.9905884650490062e-01   9.9881666787667633e-01   9.9923438509944196e-01   9.9891305665113717e-01   9.9994382033183971e-01   9.9920028431172503e-01   9.9994371562245321e-01   1.0000000000000000e+00   1.0000000000000000e+00   1.0000000000000000e+00   1.0000000000000000e+00   1.0000000000000000e+00   1.0000000000000000e+00   1.0000000000000000e+00   1.0000000000000000e+00   1.0000000000000000e+00   1.0000000000000000e+00   1.0000000000000000e+00   9.9987682331992833e-01   9.9979898377351717e-01   9.9984074917272714e-01   9.9942879924264172e-01   9.9886952459971057e-01   9.7946251061152534e-01   9.9772716505840475e-01   9.3746658500098234e-01   9.9720177553005818e-01   9.1382069913920572e-01   9.9551840825521221e-01   8.9328393471800516e-01   9.9543718481872878e-01   8.6544022477070348e-01   9.9643708300256439e-01   8.4063835305590529e-01   9.9734887796302218e-01   7.6672537712935662e-01   9.9641993339189561e-01   7.5160735704281445e-01   9.7891046888330679e-01   7.2685633669126948e-01   9.4256742489488254e-01   6.9036682783420233e-01   8.8542932679044961e-01   6.3949402828266733e-01   8.4858349971117308e-01   5.8532302776682588e-01   8.7046409970175043e-01   5.2920472275992081e-01   8.6475893560986994e-01   5.0587773817207349e-01   8.6796371894539426e-01   6.1650351231657574e-01   9.6436583243446194e-01   6.1969428596776011e-01   9.9570877022702164e-01   4.4629737364603239e-01   9.6561627543518225e-01   2.8783376114851805e-01   7.0672438492034828e-01   8.0412902358533073e-02   1.8164176661708031e-01   2.8206465061663341e-02   8.1343199011677976e-03   7.0427745471790789e-03   1.0957430714090394e-03   1.1366795223598362e-03   0.0000000000000000e+00   0.0000000000000000e+00   0.0000000000000000e+00   0.0000000000000000e+00   0.0000000000000000e+00   0.0000000000000000e+00   7.6609335685825442e-01   2.8434033297090133e-01   9.8456570012569589e-01   8.4740938866042281e-01   9.9740958170838911e-01   9.3532367233836844e-01   8.4530122898559823e-01   6.3262005910125818e-01   4.0682810997073715e-01   3.4825392795647575e-01   0.0000000000000000e+00   0.0000000000000000e+00   0.0000000000000000e+00   0.0000000000000000e+00   9.6333378094456967e-03   0.0000000000000000e+00   4.7536800128741397e-02   1.6936973013394602e-02   2.3163797117549309e-01   8.3072863725321064e-02   3.8860756489262971e-01   1.7158425059151608e-01   4.4481481114325577e-01   2.8735939869202892e-01   5.1071258680648979e-01   3.0700649996214113e-01   4.3178415593023728e-01   2.7167695426883537e-01   6.3369126750365012e-01   2.1116820876960019e-01   8.9309040885925539e-01   1.5160235333569941e-01   7.0699960122771011e-01   1.0558799595088790e-01   5.8169583391299196e-01   8.1789865474742485e-02   6.4997906398546390e-01   8.4106047534832737e-02   6.3488366894506221e-01   7.9584127273533339e-02   6.1994203095316402e-01   7.4047338488729700e-02   5.8999176644446594e-01   7.6760363863297751e-02   5.6045326011721475e-01   9.0279465380940879e-02   5.2593942844833541e-01   1.0628420974204406e-01   4.5259429534319545e-01   1.0564464864057498e-01   4.0094503495193740e-01   9.3218750004534862e-02   4.8068276468374055e-01   7.0462082732235212e-02   5.0173732007142735e-01   5.9722765842879777e-02   3.6026329229904863e-01   5.2813277896534845e-02   3.6737992129881963e-01   4.8419305995250406e-02   3.2740260228369661e-01   4.3921896331351837e-02   3.4133345080865218e-01   3.8652652756411159e-02   3.0487765299744651e-01   3.5854073605308241e-02   2.6636599281515139e-01   3.0415948931986996e-02   2.8561313455365339e-01   2.8489896307025357e-02   2.8179899331396269e-01   2.7629868293117005e-02   1.9177590917448875e-01   2.5331030850702319e-02   1.8916970644542830e-01   2.5279544469367150e-02   1.4599199047315320e-01   2.9687832196051419e-02   9.7823820961334990e-02   3.0711193046145224e-02   4.7701444051559599e-02   3.0125136057646121e-02   9.1360517462669030e-02   2.7132582431576367e-02   2.9586420852276779e-02   1.8664663410823849e-02   2.1767834935806613e-02   1.5526332432782917e-02   1.6046982120366201e-02   1.3259476437762310e-02   1.3694923531752298e-02   1.0903417681550306e-02   1.1610287651230282e-02   8.7471932653167186e-03   1.0696696236292668e-02   6.9535549169414132e-03   9.5890498781498173e-03   5.6144041476269809e-03   9.0805723368821162e-03   4.8481480772353865e-03   9.1954335938078235e-03   4.7183487453118520e-03   9.7369944088277552e-03   5.1274525079325756e-03   1.0372248931084968e-02   5.7538729962333321e-03   9.9751552754115992e-03   6.2393869309925517e-03   9.5907342204673025e-03   6.1554470532123899e-03   7.4322875351831991e-03   4.7279300319691842e-03   2.3894942451740233e-03   1.0218999181603641e-03   0.0000000000000000e+00   0.0000000000000000e+00   0.0000000000000000e+00   0.0000000000000000e+00   0.0000000000000000e+00   0.0000000000000000e+00   0.0000000000000000e+00   0.0000000000000000e+00   0.0000000000000000e+00   0.0000000000000000e+00   9.7769318002807696e-03   3.8816323251502055e-04   1.0453983680022956e-02   8.1261702123147581e-03   8.6492845761978188e-03   7.3314476522455558e-03   2.3264128444526922e-03   2.8043777822723838e-03   4.1743847211236993e-05   4.8606156486117096e-05   0.0000000000000000e+00   0.0000000000000000e+00   0.0000000000000000e+00   0.0000000000000000e+00   0.0000000000000000e+00   0.0000000000000000e+00   2.3588223651896434e-01   0.0000000000000000e+00   8.1329938444767025e-01   7.4560355440290182e-01   7.9740852221176572e-01   9.8216810072602667e-01   3.2659049802985690e-01   5.0365778065854561e-01   3.9576997002334770e-04   1.6003339658477403e-02   0.0000000000000000e+00   1.6222772358578871e-06   2.7644291568863641e-06   0.0000000000000000e+00   1.6116951120476980e-01   0.0000000000000000e+00   4.8327459472780800e-03   0.0000000000000000e+00   2.7613436329460107e-02   1.0138268288717504e-02   6.9024482654578778e-02   2.7984376934996519e-02   1.1701517791378646e-01   5.4474287227397750e-02   1.4715205897270126e-01   6.3967263690535694e-02   1.3410929554437906e-01   5.6525136375832528e-02   6.8445729316279999e-02   3.3164951170500750e-02   4.0644493718555844e-02   4.0143839139423827e-02   3.3510037883396133e-02   3.0127550328896382e-02   3.4821789665189951e-02   3.1372130535736058e-02   4.5536599812490010e-02   3.2220459233270875e-02   4.6218249192979809e-02   3.5517414988748157e-02   4.4416669568360857e-02   3.7454313162072719e-02   4.2088267528140884e-02   3.5326356317561231e-02   3.8088898727134043e-02   3.1938539931314208e-02   3.4564617043079414e-02   3.1674576955771631e-02   2.7434885050533073e-02   2.5302049177296879e-02   2.3246772485332565e-02   1.7644631982755538e-02   1.8425211284989446e-02   1.3384874956584815e-02   1.2482948658722622e-02   1.0297352317352184e-02   1.0823828290140617e-02   9.3835857932418228e-03   1.0108564292157328e-02   8.8949975902617631e-03   9.7347632107405799e-03   8.5414076706618099e-03   8.8847383185334840e-03   8.6611046281761667e-03   8.3420408974823872e-03   8.1769075896422957e-03   7.1943618454192934e-03   7.1339114866620897e-03   6.9911708169512711e-03   6.8743933162026842e-03   7.3725672206674782e-03   7.0431113562629179e-03   8.4383974041416891e-03   7.7959311053434240e-03   1.0659101637504236e-02   9.0424229731887757e-03   1.3890136033558704e-02   1.1030512085383266e-02   1.3324955135970070e-02   1.2185404497254797e-02   1.3784030456954404e-02   1.2824916465341224e-02   1.3379073215995799e-02   1.2728015031960584e-02   1.2197591990421064e-02   1.1893535763726563e-02   9.7138821933159779e-03   9.8582573945386748e-03   7.5088410580748284e-03   7.9517029294096792e-03   6.0818805279104111e-03   6.6576267835445763e-03   4.2246567604979522e-03   4.8938636601075702e-03   2.7133714060221109e-03   3.4027132581893682e-03   1.6383829563573306e-03   2.2706973468117971e-03   1.0696822857559336e-03   1.5651567988553597e-03   9.9976364672456223e-04   1.3020661119842538e-03   1.2762918521211583e-03   1.3930027822094283e-03   1.6265918459671632