<?xml version="1.0"?>
<VTKFile type="UnstructuredGrid"  version="0.1"  >
<UnstructuredGrid>
<Piece  NumberOfPoints="2341" NumberOfCells="4475">
<Points>
<DataArray  type="Float64"  NumberOfComponents="3"  format="ascii">0 0.05 0  0 0.05833333333333333 0  0.008260869565217391 0.05833333333333333 0  0.008260869565217391 0.06666666666666667 0  0 0.06666666666666667 0  0.01652173913043478 0.06666666666666667 0  0.008260869565217391 0.075 0  0 0.075 0  0.01652173913043478 0.075 0  0.02478260869565217 0.06666666666666667 0  0.02478260869565217 0.075 0  0.03304347826086956 0.075 0  0.008260869565217391 0.08333333333333333 0  0 0.08333333333333333 0  0.01652173913043478 0.08333333333333333 0  0.02478260869565217 0.08333333333333333 0  0.03304347826086956 0.08333333333333333 0  0.04130434782608695 0.08333333333333333 0  0.008260869565217391 0.09166666666666666 0  0 0.09166666666666666 0  0.01652173913043478 0.09166666666666666 0  0.02478260869565217 0.09166666666666666 0  0.03304347826086956 0.09166666666666666 0  0.04130434782608695 0.09166666666666666 0  0.04956521739130434 0.08333333333333333 0  0.04956521739130434 0.09166666666666666 0  0.05782608695652174 0.09166666666666666 0  0.008260869565217391 0.1 0  0 0.1 0  0.01652173913043478 0.1 0  0.02478260869565217 0.1 0  0.03304347826086956 0.1 0  0.04130434782608695 0.1 0  0.04956521739130434 0.1 0  0.05782608695652174 0.1 0  0.06608695652173913 0.1 0  0.008260869565217391 0.1083333333333333 0  0 0.1083333333333333 0  0.01652173913043478 0.1083333333333333 0  0.02478260869565217 0.1083333333333333 0  0.03304347826086956 0.1083333333333333 0  0.04130434782608695 0.1083333333333333 0  0.04956521739130434 0.1083333333333333 0  0.05782608695652174 0.1083333333333333 0  0.06608695652173913 0.1083333333333333 0  0.07434782608695652 0.1 0  0.07434782608695652 0.1083333333333333 0  0.08260869565217391 0.1083333333333333 0  0.008260869565217391 0.1166666666666667 0  0 0.1166666666666667 0  0.01652173913043478 0.1166666666666667 0  0.02478260869565217 0.1166666666666667 0  0.03304347826086956 0.1166666666666667 0  0.04130434782608695 0.1166666666666667 0  0.04956521739130434 0.1166666666666667 0  0.05782608695652174 0.1166666666666667 0  0.06608695652173913 0.1166666666666667 0  0.07434782608695652 0.1166666666666667 0  0.08260869565217391 0.1166666666666667 0  0.0908695652173913 0.1166666666666667 0  0.008260869565217391 0.125 0  0 0.125 0  0.01652173913043478 0.125 0  0.02478260869565217 0.125 0  0.03304347826086956 0.125 0  0.04130434782608695 0.125 0  0.04956521739130434 0.125 0  0.05782608695652174 0.125 0  0.06608695652173913 0.125 0  0.07434782608695652 0.125 0  0.08260869565217391 0.125 0  0.0908695652173913 0.125 0  0.09913043478260869 0.1166666666666667 0  0.09913043478260869 0.125 0  0.1073913043478261 0.125 0  0.008260869565217391 0.1333333333333333 0  0 0.1333333333333333 0  0.01652173913043478 0.1333333333333333 0  0.02478260869565217 0.1333333333333333 0  0.03304347826086956 0.1333333333333333 0  0.04130434782608695 0.1333333333333333 0  0.04956521739130434 0.1333333333333333 0  0.05782608695652174 0.1333333333333333 0  0.06608695652173913 0.1333333333333333 0  0.07434782608695652 0.1333333333333333 0  0.08260869565217391 0.1333333333333333 0  0.0908695652173913 0.1333333333333333 0  0.09913043478260869 0.1333333333333333 0  0.1073913043478261 0.1333333333333333 0  0.1156521739130435 0.125 0  0.1156521739130435 0.1333333333333333 0  0.1239130434782609 0.1333333333333333 0  0.008260869565217391 0.1416666666666667 0  0 0.1416666666666667 0  0.01652173913043478 0.1416666666666667 0  0.02478260869565217 0.1416666666666667 0  0.03304347826086956 0.1416666666666667 0  0.04130434782608695 0.1416666666666667 0  0.04956521739130434 0.1416666666666667 0  0.05782608695652174 0.1416666666666667 0  0.06608695652173913 0.1416666666666667 0  0.07434782608695652 0.1416666666666667 0  0.08260869565217391 0.1416666666666667 0  0.0908695652173913 0.1416666666666667 0  0.09913043478260869 0.1416666666666667 0  0.1073913043478261 0.1416666666666667 0  0.1156521739130435 0.1416666666666667 0  0.1239130434782609 0.1416666666666667 0  0.1321739130434783 0.1333333333333333 0  0.1321739130434783 0.1416666666666667 0  0.1404347826086956 0.1416666666666667 0  0.008260869565217391 0.15 0  0 0.15 0  0.01652173913043478 0.15 0  0.02478260869565217 0.15 0  0.03304347826086956 0.15 0  0.04130434782608695 0.15 0  0.04956521739130434 0.15 0  0.05782608695652174 0.15 0  0.06608695652173913 0.15 0  0.07434782608695652 0.15 0  0.08260869565217391 0.15 0  0.0908695652173913 0.15 0  0.09913043478260869 0.15 0  0.1073913043478261 0.15 0  0.1156521739130435 0.15 0  0.1239130434782609 0.15 0  0.1321739130434783 0.15 0  0.1404347826086956 0.15 0  0.148695652173913 0.15 0  0.008260869565217391 0.1583333333333333 0  0 0.1583333333333333 0  0.01652173913043478 0.1583333333333333 0  0.02478260869565217 0.1583333333333333 0  0.03304347826086956 0.1583333333333333 0  0.04130434782608695 0.1583333333333333 0  0.04956521739130434 0.1583333333333333 0  0.05782608695652174 0.1583333333333333 0  0.06608695652173913 0.1583333333333333 0  0.07434782608695652 0.1583333333333333 0  0.08260869565217391 0.1583333333333333 0  0.0908695652173913 0.1583333333333333 0  0.09913043478260869 0.1583333333333333 0  0.1073913043478261 0.1583333333333333 0  0.1156521739130435 0.1583333333333333 0  0.1239130434782609 0.1583333333333333 0  0.1321739130434783 0.1583333333333333 0  0.1404347826086956 0.1583333333333333 0  0.148695652173913 0.1583333333333333 0  0.1569565217391304 0.15 0  0.1569565217391304 0.1583333333333333 0  0.1652173913043478 0.1583333333333333 0  0.008260869565217391 0.1666666666666667 0  0 0.1666666666666667 0  0.01652173913043478 0.1666666666666667 0  0.02478260869565217 0.1666666666666667 0  0.03304347826086956 0.1666666666666667 0  0.04130434782608695 0.1666666666666667 0  0.04956521739130434 0.1666666666666667 0  0.05782608695652174 0.1666666666666667 0  0.06608695652173913 0.1666666666666667 0  0.07434782608695652 0.1666666666666667 0  0.08260869565217391 0.1666666666666667 0  0.0908695652173913 0.1666666666666667 0  0.09913043478260869 0.1666666666666667 0  0.1073913043478261 0.1666666666666667 0  0.1156521739130435 0.1666666666666667 0  0.1239130434782609 0.1666666666666667 0  0.1321739130434783 0.1666666666666667 0  0.1404347826086956 0.1666666666666667 0  0.148695652173913 0.1666666666666667 0  0.1569565217391304 0.1666666666666667 0  0.1652173913043478 0.1666666666666667 0  0.1734782608695652 0.1666666666666667 0  0.008260869565217391 0.175 0  0 0.175 0  0.01652173913043478 0.175 0  0.02478260869565217 0.175 0  0.03304347826086956 0.175 0  0.04130434782608695 0.175 0  0.04956521739130434 0.175 0  0.05782608695652174 0.175 0  0.06608695652173913 0.175 0  0.07434782608695652 0.175 0  0.08260869565217391 0.175 0  0.0908695652173913 0.175 0  0.09913043478260869 0.175 0  0.1073913043478261 0.175 0  0.1156521739130435 0.175 0  0.1239130434782609 0.175 0  0.1321739130434783 0.175 0  0.1404347826086956 0.175 0  0.148695652173913 0.175 0  0.1569565217391304 0.175 0  0.1652173913043478 0.175 0  0.1734782608695652 0.175 0  0.1817391304347826 0.1666666666666667 0  0.1817391304347826 0.175 0  0.19 0.175 0  0.008260869565217391 0.1833333333333333 0  0 0.1833333333333333 0  0.01652173913043478 0.1833333333333333 0  0.02478260869565217 0.1833333333333333 0  0.03304347826086956 0.1833333333333333 0  0.04130434782608695 0.1833333333333333 0  0.04956521739130434 0.1833333333333333 0  0.05782608695652174 0.1833333333333333 0  0.06608695652173913 0.1833333333333333 0  0.07434782608695652 0.1833333333333333 0  0.08260869565217391 0.1833333333333333 0  0.0908695652173913 0.1833333333333333 0  0.09913043478260869 0.1833333333333333 0  0.1073913043478261 0.1833333333333333 0  0.1156521739130435 0.1833333333333333 0  0.1239130434782609 0.1833333333333333 0  0.1321739130434783 0.1833333333333333 0  0.1404347826086956 0.1833333333333333 0  0.148695652173913 0.1833333333333333 0  0.1569565217391304 0.1833333333333333 0  0.1652173913043478 0.1833333333333333 0  0.1734782608695652 0.1833333333333333 0  0.1817391304347826 0.1833333333333333 0  0.19 0.1833333333333333 0  0.1982608695652174 0.1833333333333333 0  0.008260869565217391 0.1916666666666667 0  0 0.1916666666666667 0  0.01652173913043478 0.1916666666666667 0  0.02478260869565217 0.1916666666666667 0  0.03304347826086956 0.1916666666666667 0  0.04130434782608695 0.1916666666666667 0  0.04956521739130434 0.1916666666666667 0  0.05782608695652174 0.1916666666666667 0  0.06608695652173913 0.1916666666666667 0  0.07434782608695652 0.1916666666666667 0  0.08260869565217391 0.1916666666666667 0  0.0908695652173913 0.1916666666666667 0  0.09913043478260869 0.1916666666666667 0  0.1073913043478261 0.1916666666666667 0  0.1156521739130435 0.1916666666666667 0  0.1239130434782609 0.1916666666666667 0  0.1321739130434783 0.1916666666666667 0  0.1404347826086956 0.1916666666666667 0  0.148695652173913 0.1916666666666667 0  0.1569565217391304 0.1916666666666667 0  0.1652173913043478 0.1916666666666667 0  0.1734782608695652 0.1916666666666667 0  0.1817391304347826 0.1916666666666667 0  0.19 0.1916666666666667 0  0.1982608695652174 0.1916666666666667 0  0.2065217391304348 0.1833333333333333 0  0.2065217391304348 0.1916666666666667 0  0.2147826086956522 0.1916666666666667 0  0.008260869565217391 0.2 0  0 0.2 0  0.01652173913043478 0.2 0  0.02478260869565217 0.2 0  0.03304347826086956 0.2 0  0.04130434782608695 0.2 0  0.04956521739130434 0.2 0  0.05782608695652174 0.2 0  0.06608695652173913 0.2 0  0.07434782608695652 0.2 0  0.08260869565217391 0.2 0  0.0908695652173913 0.2 0  0.09913043478260869 0.2 0  0.1073913043478261 0.2 0  0.1156521739130435 0.2 0  0.1239130434782609 0.2 0  0.1321739130434783 0.2 0  0.1404347826086956 0.2 0  0.148695652173913 0.2 0  0.1569565217391304 0.2 0  0.1652173913043478 0.2 0  0.1734782608695652 0.2 0  0.1817391304347826 0.2 0  0.19 0.2 0  0.1982608695652174 0.2 0  
[...]
<PointData  Vectors="Displacement"> 
<DataArray  type="Float64"  Name="Displacement"  NumberOfComponents="3" format="ascii">0.0000000000000000e+00 0.0000000000000000e+00 0.0000000000000000e+00  0.0000000000000000e+00 0.0000000000000000e+00 0.0000000000000000e+00  1.6546423815956589e-08 1.3677012579941067e-07 0.0000000000000000e+00  2.8841116525984237e-08 1.1906314613940934e-07 0.0000000000000000e+00  0.0000000000000000e+00 0.0000000000000000e+00 0.0000000000000000e+00  7.4891381730816200e-08 2.3173875772515319e-07 0.0000000000000000e+00  2.2584401626936893e-08 1.0399613215129700e-07 0.0000000000000000e+00  0.0000000000000000e+00 0.0000000000000000e+00 0.0000000000000000e+00  5.3708013379140730e-08 2.0035890088072840e-07 0.0000000000000000e+00  1.5995136228054397e-07 3.5159134905259472e-07 0.0000000000000000e+00  9.3794072873039409e-08 2.8331841101971822e-07 0.0000000000000000e+00  1.3599043206211586e-07 3.1009503930562829e-07 0.0000000000000000e+00  1.9087572118548569e-08 9.6270894006697862e-08 0.0000000000000000e+00  0.0000000000000000e+00 0.0000000000000000e+00 0.0000000000000000e+00  4.2199254277189521e-08 1.8275444450189232e-07 0.0000000000000000e+00  6.9809085803100251e-08 2.5127521350487622e-07 0.0000000000000000e+00  9.9267457556379456e-08 2.8081191030968009e-07 0.0000000000000000e+00  1.2005043811746478e-07 2.7098968877467315e-07 0.0000000000000000e+00  1.8261896829201026e-08 9.3943826928554430e-08 0.0000000000000000e+00  0.0000000000000000e+00 0.0000000000000000e+00 0.0000000000000000e+00  3.7242885127616324e-08 1.7547280855783400e-07 0.0000000000000000e+00  5.7761891910465689e-08 2.3729512892224836e-07 0.0000000000000000e+00  7.8450003705762478e-08 2.6822591147262697e-07 0.0000000000000000e+00  9.4610615572159393e-08 2.6837591359644171e-07 0.0000000000000000e+00  1.5673380091411885e-07 2.4974680942714875e-07 0.0000000000000000e+00  1.0449959828280114e-07 2.4733653330767912e-07 0.0000000000000000e+00  1.1155075515336773e-07 2.2078229016500437e-07 0.0000000000000000e+00  1.8958638143609984e-08 9.5977374409376006e-08 0.0000000000000000e+00  0.0000000000000000e+00 0.0000000000000000e+00 0.0000000000000000e+00  3.5696624258459714e-08 1.7686311184697399e-07 0.0000000000000000e+00  5.0825699810679459e-08 2.3718324510108997e-07 0.0000000000000000e+00  6.2951558709388047e-08 2.7091003976219113e-07 0.0000000000000000e+00  6.8428885533579634e-08 2.7832061742285519e-07 0.0000000000000000e+00  6.4111353217278596e-08 2.6476452807630773e-07 0.0000000000000000e+00  4.9035644572622908e-08 2.3769366744411120e-07 0.0000000000000000e+00  2.2441147791768474e-08 1.9321975552749614e-07 0.0000000000000000e+00  2.1518372034762296e-08 1.0150825882153127e-07 0.0000000000000000e+00  0.0000000000000000e+00 0.0000000000000000e+00 0.0000000000000000e+00  3.8620590447059417e-08 1.8510818202138538e-07 0.0000000000000000e+00  5.1888921671800611e-08 2.4740794153417959e-07 0.0000000000000000e+00  6.0185661156539955e-08 2.8536384526148678e-07 0.0000000000000000e+00  6.1008792093001227e-08 2.9936993144036658e-07 0.0000000000000000e+00  5.2255373099550251e-08 2.9238677964939475e-07 0.0000000000000000e+00  3.3573800651742529e-08 2.6768422450732694e-07 0.0000000000000000e+00  6.2966518673994811e-09 2.2315008153129457e-07 0.0000000000000000e+00  -1.1044383911240343e-08 1.1819408002272841e-07 0.0000000000000000e+00  -2.8687809898821194e-08 1.5436637738380798e-07 0.0000000000000000e+00  -6.4248878990323568e-08 9.4119733438292324e-08 0.0000000000000000e+00  2.6324632391224032e-08 1.0936986714060662e-07 0.0000000000000000e+00  0.0000000000000000e+00 0.0000000000000000e+00 0.0000000000000000e+00  4.6959582716253533e-08 1.9786366179708372e-07 0.0000000000000000e+00  6.2492060981443650e-08 2.6416398473961483e-07 0.0000000000000000e+00  7.1996775119196604e-08 3.0715027016945007e-07 0.0000000000000000e+00  7.3597221861319668e-08 3.2730604022269430e-07 0.0000000000000000e+00  6.5599761829325867e-08 3.2613018213946852e-07 0.0000000000000000e+00  4.7246929996610098e-08 3.0470829945510477e-07 0.0000000000000000e+00  1.8493502040928434e-08 2.6140456155750912e-07 0.0000000000000000e+00  -2.1288703419360100e-08 1.9441334498909343e-07 0.0000000000000000e+00  -7.1500785791619880e-08 1.1260274815384955e-07 0.0000000000000000e+00  -1.3090845628704561e-07 -1.6073483359699469e-08 0.0000000000000000e+00  3.3619739086666226e-08 1.1816494492062363e-07 0.0000000000000000e+00  0.0000000000000000e+00 0.0000000000000000e+00 0.0000000000000000e+00  6.1288738027254625e-08 2.1250153777958037e-07 0.0000000000000000e+00  8.3511473438904211e-08 2.8366467646387056e-07 0.0000000000000000e+00  9.9452956446818730e-08 3.3192503779310768e-07 0.0000000000000000e+00  1.0756724391356463e-07 3.5787354653896099e-07 0.0000000000000000e+00  1.0643439411179080e-07 3.6208297726909958e-07 0.0000000000000000e+00  9.5343981987714870e-08 3.4431882476636245e-07 0.0000000000000000e+00  7.4400586873605191e-08 3.0264780001465842e-07 0.0000000000000000e+00  4.4403218284372367e-08 2.3477807604493705e-07 0.0000000000000000e+00  8.3102537134524411e-09 1.4007782895067177e-07 0.0000000000000000e+00  -2.8187405382289964e-08 -8.6209302059191988e-10 0.0000000000000000e+00  -2.1586234445684056e-07 -2.3218285166440573e-07 0.0000000000000000e+00  -6.3243853671931692e-08 -2.0584413757937964e-07 0.0000000000000000e+00  -8.6234427033751964e-08 -4.4130947117212023e-07 0.0000000000000000e+00  4.3437867410433231e-08 1.2638543822188185e-07 0.0000000000000000e+00  0.0000000000000000e+00 0.0000000000000000e+00 0.0000000000000000e+00  8.1683669173879449e-08 2.2631409551454223e-07 0.0000000000000000e+00  1.1496115183002218e-07 3.0226959684910154e-07 0.0000000000000000e+00  1.4230267117255017e-07 3.5561765718985124e-07 0.0000000000000000e+00  1.6216027625876612e-07 3.8707640176301471e-07 0.0000000000000000e+00  1.7305129309989950e-07 3.9659110827853104e-07 0.0000000000000000e+00  1.7400741072742322e-07 3.8298253435197193e-07 0.0000000000000000e+00  1.6471627265158254e-07 3.4368700948750963e-07 0.0000000000000000e+00  1.4542230254723633e-07 2.7546767999332339e-07 0.0000000000000000e+00  1.1708621014570613e-07 1.7431185801496156e-07 0.0000000000000000e+00  8.0231759294062562e-08 2.7830808803179995e-08 0.0000000000000000e+00  3.0379675661718097e-08 -1.7262489552459682e-07 0.0000000000000000e+00  -3.9877339633966712e-08 -4.1207001755683286e-07 0.0000000000000000e+00  -4.6619028099468824e-08 -6.4465426593536478e-07 0.0000000000000000e+00  -1.3215238978680100e-07 -6.7429608713653085e-07 0.0000000000000000e+00  -2.6294893770251358e-07 -1.0271696230490069e-06 0.0000000000000000e+00  5.5652125037519832e-08 1.3248137217122833e-07 0.0000000000000000e+00  0.0000000000000000e+00 0.0000000000000000e+00 0.0000000000000000e+00  1.0787252947955162e-07 2.3661113167418809e-07 0.0000000000000000e+00  1.5635762402099256e-07 3.1650085079026069e-07 0.0000000000000000e+00  1.9977180802326208e-07 3.7439947340926050e-07 0.0000000000000000e+00  2.3629118879516870e-07 4.1114858504488679e-07 0.0000000000000000e+00  2.6412236199965722e-07 4.2622407551298308e-07 0.0000000000000000e+00  2.8186819842898762e-07 4.1768507600326987e-07 0.0000000000000000e+00  2.8867449527704182e-07 3.8225595940381209e-07 0.0000000000000000e+00  2.8413171106370376e-07 3.1602587888239973e-07 0.0000000000000000e+00  2.6803460160477137e-07 2.1425856340937271e-07 0.0000000000000000e+00  2.3933795173850384e-07 6.8834657497676875e-08 0.0000000000000000e+00  1.9416094039848639e-07 -1.2510816963595852e-07 0.0000000000000000e+00  1.2746086980258853e-07 -3.6120713449108220e-07 0.0000000000000000e+00  4.0632321263549652e-08 -6.4147926160467561e-07 0.0000000000000000e+00  -6.2026411489894142e-08 -1.0054571590572352e-06 0.0000000000000000e+00  -4.3873504701680455e-07 -1.5452332030449435e-06 0.0000000000000000e+00  -1.8702993160421284e-07 -1.4982352102392114e-06 0.0000000000000000e+00  -3.3932676838892718e-07 -2.0836841849697560e-06 0.0000000000000000e+00  7.0005154722008767e-08 1.3487022156788575e-07 0.0000000000000000e+00  0.0000000000000000e+00 0.0000000000000000e+00 0.0000000000000000e+00  1.3930810844732950e-07 2.4074001550734507e-07 0.0000000000000000e+00  2.0683332095558663e-07 3.2299033088057735e-07 0.0000000000000000e+00  2.7069255058177588e-07 3.8454379986737941e-07 0.0000000000000000e+00  3.2859427063494753e-07 4.2631495828686967e-07 0.0000000000000000e+00  3.7829103860879618e-07 4.4733910476425365e-07 0.0000000000000000e+00  4.1792499902635877e-07 4.4493532165771667e-07 0.0000000000000000e+00  4.4618573625683992e-07 4.1500520734128428e-07 0.0000000000000000e+00  4.6213507457859868e-07 3.5297340673308964e-07 0.0000000000000000e+00  4.6525652953405351e-07 2.5396651940789005e-07 0.0000000000000000e+00  4.5490207043795470e-07 1.1202468763766795e-07 0.0000000000000000e+00  4.2904151691141574e-07 -7.6478032667964837e-08 0.0000000000000000e+00  3.8362601096379901e-07 -3.0882921390617496e-07 0.0000000000000000e+00  3.1951676350874202e-07 -5.9790705757544094e-07 0.0000000000000000e+00  2.4025698325798477e-07 -9.7256230049810265e-07 0.0000000000000000e+00  1.4575981510810527e-07 -1.4621527008843753e-06 0.0000000000000000e+00  3.5248508491754906e-08 -2.0537575757289261e-06 0.0000000000000000e+00  -7.6696552993105160e-08 -2.7423123247849524e-06 0.0000000000000000e+00  8.6112880738616303e-08 1.3192261690652994e-07 0.0000000000000000e+00  0.0000000000000000e+00 0.0000000000000000e+00 0.0000000000000000e+00  1.7513341486763417e-07 2.3611915009339818e-07 0.0000000000000000e+00  2.6502363241779346e-07 3.1847651198624956e-07 0.0000000000000000e+00  3.5327247106519698e-07 3.8238008056764997e-07 0.0000000000000000e+00  4.3699784807909793e-07 4.2874327224590062e-07 0.0000000000000000e+00  5.1338514571278694e-07 4.5607439777869115e-07 0.0000000000000000e+00  5.8011344045839783e-07 4.6082128740534495e-07 0.0000000000000000e+00  6.3555958409298488e-07 4.3788856709796577e-07 0.0000000000000000e+00  6.7828577468824825e-07 3.8216357146856011e-07 0.0000000000000000e+00  7.0688767208554612e-07 2.8792407741166894e-07 0.0000000000000000e+00  7.2204357132595862e-07 1.4971839701556008e-07 0.0000000000000000e+00  7.2438201432077781e-07 -3.5113175705320051e-08 0.0000000000000000e+00  7.0903019401897783e-07 -2.6079272243510099e-07 0.0000000000000000e+00  6.7408273778507777e-07 -5.4975279059851461e-07 0.0000000000000000e+00  6.1863360291128497e-07 -9.2565865224469344e-07 0.0000000000000000e+00  5.4236187679321107e-07 -1.4146707457027088e-06 0.0000000000000000e+00  4.4103771007022463e-07 -2.0091839567129883e-06 0.0000000000000000e+00  3.1489868318922148e-07 -2.7087475362918275e-06 0.0000000000000000e+00  -1.4992953553962071e-07 -3.4357297873539329e-06 0.0000000000000000e+00  1.7334037388725930e-07 -3.4860917074778804e-06 0.0000000000000000e+00  4.0225433401967724e-08 -4.3872780672750346e-06 0.0000000000000000e+00  1.0348146255945409e-07 1.2193098644137416e-07 0.0000000000000000e+00  0.0000000000000000e+00 0.0000000000000000e+00 0.0000000000000000e+00  2.1412722398526590e-07 2.2036433139122976e-07 0.0000000000000000e+00  3.2886029164503803e-07 2.9990791093884193e-07 0.0000000000000000e+00  4.4474205859901445e-07 3.6433578588188698e-07 0.0000000000000000e+00  5.5829976527753629e-07 4.1458568756470726e-07 0.0000000000000000e+00  6.6598242033936897e-07 4.4846873922310665e-07 0.0000000000000000e+00  7.6492511381588015e-07 4.6122319190557503e-07 0.0000000000000000e+00  8.5340060251674020e-07 4.4639116780458830e-07 0.0000000000000000e+00  9.2964103701591083e-07 3.9886793440428940e-07 0.0000000000000000e+00  9.9105665203032760e-07 3.1277584972539595e-07 0.0000000000000000e+00  1.0350826712367834e-06 1.7747994868000982e-07 0.0000000000000000e+00  1.0702812022476705e-06 -7.3746428581425510e-09 0.0000000000000000e+00  1.0909516583650475e-06 -2.2298050898920758e-07 0.0000000000000000e+00  1.0965115287957435e-06 -5.0373280016333571e-07 0.0000000000000000e+00  1.0772124895093708e-06 -8.7007540886656774e-07 0.0000000000000000e+00  1.0316579817670749e-06 -1.3556061275487957e-06 0.0000000000000000e+00  9.5370682750057335e-07 -1.9454519980819132e-06 0.0000000000000000e+00  8.3954365002805491e-07 -2.6470664065737385e-06 0.0000000000000000e+00  6.9083750133381833e-07 -3.4614026699593354e-06 0.0000000000000000e+00  5.1161173079094421e-07 -4.4324150770684958e-06 0.0000000000000000e+00  2.7136537342483131e-07 -5.6848273103056115e-06 0.0000000000000000e+00  1.2157176096063833e-07 1.0300471467629045e-07 0.0000000000000000e+00  0.0000000000000000e+00 0.0000000000000000e+00 0.0000000000000000e+00  2.5470412084539731e-07 1.9157444552825969e-07 0.0000000000000000e+00  3.9539988372742550e-07 2.6476400625756051e-07 0.0000000000000000e+00  5.4084318065249734e-07 3.2707813314564858e-07 0.0000000000000000e+00  6.8753759600457354e-07 3.7996478879962189e-07 0.0000000000000000e+00  8.3097980379884595e-07 4.2049488823699656e-07 0.0000000000000000e+00  9.6723270566317299e-07 4.4196722598239620e-07 0.0000000000000000e+00  1.0946421296448982e-06 4.3563204830780416e-07 0.0000000000000000e+00  1.2114507699149305e-06 3.9731171736680400e-07 0.0000000000000000e+00  1.3143218231305421e-06 3.2256793859818477e-07 0.0000000000000000e+00  1.3992952118182529e-06 1.9978332047437922e-07 0.0000000000000000e+00  1.4541198683693388e-06 1.3887924799091673e-09 0.0000000000000000e+00  1.5134355909013664e-06 -2.0049178430836701e-07 0.0000000000000000e+00  1.5683711926312034e-06 -4.7780878585964686e-07 0.0000000000000000e+00  1.6206656737508810e-06 -8.1847359769213468e-07 0.0000000000000000e+00  1.6312973854527883e-06 -1.2997983370209694e-06 0.0000000000000000e+00  1.6028379465935562e-06 -1.8799219426718133e-06 0.0000000000000000e+00  1.5371940561061177e-06 -2.5802914246356388e-06 0.0000000000000000e+00  1.4403024802620441e-06 -3.4158103434003051e-06 0.0000000000000000e+00  1.3201652091872682e-06 -4.4236870959423419e-06 0.0000000000000000e+00  1.1759572017437658e-06 -5.6685835890067880e-06 0.0000000000000000e+00  -3.6199276418015917e-09 -7.1842860729042223e-06 0.0000000000000000e+00  9.9871956689646865e-07 -7.1446398762685098e-06 0.0000000000000000e+00  8.2073609401218626e-07 -8.7254778259294197e-06 0.0000000000000000e+00  1.3987131829205472e-07 7.2721853712647323e-08 0.0000000000000000e+00  0.0000000000000000e+00 0.0000000000000000e+00 0.0000000000000000e+00  2.9498627333579166e-07 1.4882261701417229e-07 0.0000000000000000e+00  4.6083832714505594e-07 2.1162674882774948e-07 0.0000000000000000e+00  6.3558195688382465e-07 2.6820216455584779e-07 0.0000000000000000e+00  8.1661504247842579e-07 3.2073849817163678e-07 0.0000000000000000e+00  1.0007657431825554e-06 3.6753232823162051e-07 0.0000000000000000e+00  1.1807194427466697e-06 3.9856606675463941e-07 0.0000000000000000e+00  1.3540400682895694e-06 3.9988570805830748e-07 0.0000000000000000e+00  1.5202389068670547e-06 3.6948884226428025e-07 0.0000000000000000e+00  1.6773094777843637e-06 3.0503675961755370e-07 0.0000000000000000e+00  1.8263713653344160e-06 1.9251392058757320e-07 0.0000000000000000e+00  1.9706802515443424e-06 2.0739929946336092e-08 0.0000000000000000e+00  2.1224592707172102e-06 -1.6677518139297048e-07 0.0000000000000000e+00  2.2400232394848394e-06 -4.3503490575609491e-07 0.0000000000000000e+00  2.3236245340126131e-06 -7.8291896725715395e-07 0.0000000000000000e+00  2.3613623308342757e-06 -1.2578602505041329e-06 0.0000000000000000e+00  2.3813368105437861e-06 -1.8244247235159037e-06 0.0000000000000000e+00  2.3753398491017066e-06 -2.5211930886086482e-06 0.0000000000000000e+00  2.3430312696477550e-06 -3.3681846502097290e-06 0.0000000000000000e+00  2.2839088157614802e-06 -4.3953469419430602e-06 0.0000000000000000e+00  2.1910959599644147e-06 -5.6429152838406186e-06 0.0000000000000000e+00  2.0513492321599414e-06 -7.1117096673855478e-06 0.0000000000000000e+00  1.8653369723753985e-06 -8.7478336608350322e-06 0.0000000000000000e+00  1.5487899019508995e-06 -1.0737797264063346e-05 0.0000000000000000e+00  1.5702396687720987e-07 2.6951323321351728e-08 0.0000000000000000e+00  0.0000000000000000e+00 0.0000000000000000e+00 0.0000000000000000e+00  3.3266757520054211e-07 9.2896758138410620e-08 0.0000000000000000e+00  5.2065744568655382e-07 1.4089521628736065e-07 0.0000000000000000e+00  7.2126009937070585e-07 1.8760552101294740e-07 0.0000000000000000e+00  9.3346874346865639e-07 2.3498462173677092e-07 0.0000000000000000e+00  1.1576956517540007e-06 2.8194014142917950e-07 0.0000000000000000e+00  1.3944387158607649e-06 3.2672286141061241e-07 0.0000000000000000e+00  1.6200032320524739e-06 3.3625692623272631e-07 0.0000000000000000e+00  1.8361224413850807e-06 3.1303352237442558e-07 0.0000000000000000e+00  2.0432311894136093e-06 2.6055341132202464e-07 0.0000000000000000e+00  2.2426721224832133e-06 1.5741261236831661e-07 0.0000000000000000e+00  2.4374776307068684e-06 -4.5098224081202765e-09 0.0000000000000000e+00  2.6290612667699744e-06 -2.0529644917129860e-07 0.0000000000000000e+00  2.8175282781600164e-06 -4.6300775564341281e-07 0.0000000000000000e+00  2.9879972423480348e-06 -7.9675546583531685e-07 0.0000000000000000e+00  3.1310590275950103e-06 -1.2355762515501782e-06 0.0000000000000000e+00  3.2389926444904061e-06 -1.7872161436813984e-06 0.0000000000000000e+00  3.3224644144588651e-06 -2.4806883034325787e-06 0.0000000000000000e+00  3.3829541534790387e-06 -3.3336084607926635e-06 0.0000000000000000e+00  3.4175080622314718e-06 -4.3692873145299387e-06 0.0000000000000000e+00  3.4209298711790066e-06 -5.6209852914858769e-06 0.0000000000000000e+00  3.3914728533735269e-06 -7.1049448937866866e-06 0.0000000000000000e+00  3.3522655258828030e-06 -8.8170474451916493e-06 0.0000000000000000e+00  3.4109561098181813e-06 -1.0696990315347375e-05 0.0000000000000000e+00  1.0223317895546464e-06 -1.3499327397604369e-05 0.0000000000000000e+00  3.2804065822004257e-06 -1.3265839246506341e-05 0.0000000000000000e+00  2.6254995233192041e-06 -1.6691877988340021e-05 0.0000000000000000e+00  1.5209809789250022e-07 -4.9351398219855935e-08 0.0000000000000000e+00  0.0000000000000000e+00 0.0000000000000000e+00 0.0000000000000000e+00  3.6495520483837534e-07 2.6909043721900211e-08 0.0000000000000000e+00  5.7145870618854464e-07 5.5320406393885639e-08 0.0000000000000000e+00  7.9024124165396647e-07 8.8816435249675120e-08 0.0000000000000000e+00  1.0244638733675579e-06 1.2593898013567417e-07 0.0000000000000000e+00  1.2796849161231941e-06 1.6299117555301289e-07 0.0000000000000000e+00  1.5664610469475784e-06 1.9732770135717890e-07 0.0000000000000000e+00  1.9123135670916041e-06 2.5144145181409957e-07 0.0000000000000000e+00  2.1549459540011921e-06 2.2777880988595836e-07 0.0000000000000000e+00  2.4087146269606068e-06 1.9050329718416120e-07 0.0000000000000000e+00  2.6607919529047689e-06 9.6415966481336521e-08 0.0000000000000000e+00  2.9143365862631441e-06 -6.3582810204847288e-08 0.0000000000000000e+00  3.1719411149015034e-06 -2.7229301059381729e-07 0.0000000000000000e+00  3.4353020311433500e-06 -5.3276140639653634e-07 0.0000000000000000e+00  3.6980251297212680e-06 -8.5554427106220110e-07 0.0000000000000000e+00  3.9457202859710123e-06 -1.2651814200923132e-06 0.0000000000000000e+00  4.1635735885593650e-06 -1.7882825229658982e-06 0.0000000000000000e+00  4.3580630978370355e-06 -2.4756597896503036e-06 0.0000000000000000e+00  4.5327094931070330e-06 -3.3293832790342280e-06 0.0000000000000000e+00  4.6804645266000404e-06 -4.3630524182316963e-06 0.0000000000000000e+00  4.7910597887769359e-06 -5.6092659415899218e-06 0.0000000000000000e+00  4.8518180011088330e-06 -7.0947794202499108e-06 0.0000000000000000e+00  4.8497843969494048e-06 -8.8463964680573196e-06 0.0000000000000000e+00  4.7708940795920673e-06 -1.0922167437483730e-05 0.0000000000000000e+00  4.4651973902983251e-06 -1.3888065599429947e-05 0.0000000000000000e+00  4.3663909258145275e-06 -1.7019619349077430e-05 0.0000000000000000e+00  4.5065375499079580e-06 -2.0271084547596761e-05 0.0000000000000000e+00  2.6841375110792254e-07 1.7350942986497139e-08 0.0000000000000000e+00  0.0000000000000000e+00 0.0000000000000000e+00 0.0000000000000000e+00  5.582614808641