<?xml version="1.0"?>
<VTKFile type="UnstructuredGrid"  version="0.1"  >
<UnstructuredGrid>
<Piece  NumberOfPoints="2369" NumberOfCells="4543">
<Points>
<DataArray  type="Float64"  NumberOfComponents="3"  format="ascii">0.9252173913043478 0.08333333333333333 0  0.9334782608695652 0.08333333333333333 0  0.9334782608695652 0.09166666666666666 0  0.9252173913043478 0.09166666666666666 0  0.9417391304347826 0.08333333333333333 0  0.9417391304347826 0.09166666666666666 0  0.95 0.08333333333333333 0  0.95 0.09166666666666666 0  0.9582608695652173 0.08333333333333333 0  0.9582608695652173 0.09166666666666666 0  0.9665217391304347 0.08333333333333333 0  0.9665217391304347 0.09166666666666666 0  0.9747826086956521 0.08333333333333333 0  0.9747826086956521 0.09166666666666666 0  0.9830434782608696 0.08333333333333333 0  0.9830434782608696 0.09166666666666666 0  0.991304347826087 0.08333333333333333 0  0.991304347826087 0.09166666666666666 0  0.9995652173913042 0.08333333333333333 0  0.9995652173913042 0.09166666666666666 0  1.007826086956522 0.08333333333333333 0  1.007826086956522 0.09166666666666666 0  1.016086956521739 0.08333333333333333 0  1.016086956521739 0.09166666666666666 0  1.024347826086957 0.08333333333333333 0  1.024347826086957 0.09166666666666666 0  1.032608695652174 0.08333333333333333 0  1.032608695652174 0.09166666666666666 0  1.040869565217391 0.08333333333333333 0  1.040869565217391 0.09166666666666666 0  1.049130434782609 0.08333333333333333 0  1.049130434782609 0.09166666666666666 0  1.057391304347826 0.08333333333333333 0  1.057391304347826 0.09166666666666666 0  1.065652173913043 0.08333333333333333 0  1.065652173913043 0.09166666666666666 0  1.073913043478261 0.09166666666666666 0  0.9334782608695652 0.1 0  0.9252173913043478 0.1 0  0.9417391304347826 0.1 0  0.95 0.1 0  0.9582608695652173 0.1 0  0.9665217391304347 0.1 0  0.9747826086956521 0.1 0  0.9830434782608696 0.1 0  0.991304347826087 0.1 0  0.9995652173913042 0.1 0  1.007826086956522 0.1 0  1.016086956521739 0.1 0  1.024347826086957 0.1 0  1.032608695652174 0.1 0  1.040869565217391 0.1 0  1.049130434782609 0.1 0  1.057391304347826 0.1 0  1.065652173913043 0.1 0  1.073913043478261 0.1 0  1.082173913043478 0.1 0  0.9334782608695652 0.1083333333333333 0  0.9252173913043478 0.1083333333333333 0  0.9417391304347826 0.1083333333333333 0  0.95 0.1083333333333333 0  0.9582608695652173 0.1083333333333333 0  0.9665217391304347 0.1083333333333333 0  0.9747826086956521 0.1083333333333333 0  0.9830434782608696 0.1083333333333333 0  0.991304347826087 0.1083333333333333 0  0.9995652173913042 0.1083333333333333 0  1.007826086956522 0.1083333333333333 0  1.016086956521739 0.1083333333333333 0  1.024347826086957 0.1083333333333333 0  1.032608695652174 0.1083333333333333 0  1.040869565217391 0.1083333333333333 0  1.049130434782609 0.1083333333333333 0  1.057391304347826 0.1083333333333333 0  1.065652173913043 0.1083333333333333 0  1.073913043478261 0.1083333333333333 0  1.082173913043478 0.1083333333333333 0  1.090434782608696 0.1083333333333333 0  0.9334782608695652 0.1166666666666667 0  0.9252173913043478 0.1166666666666667 0  0.9417391304347826 0.1166666666666667 0  0.95 0.1166666666666667 0  0.9582608695652173 0.1166666666666667 0  0.9665217391304347 0.1166666666666667 0  0.9747826086956521 0.1166666666666667 0  0.9830434782608696 0.1166666666666667 0  0.991304347826087 0.1166666666666667 0  0.9995652173913042 0.1166666666666667 0  1.007826086956522 0.1166666666666667 0  1.016086956521739 0.1166666666666667 0  1.024347826086957 0.1166666666666667 0  1.032608695652174 0.1166666666666667 0  1.040869565217391 0.1166666666666667 0  1.049130434782609 0.1166666666666667 0  1.057391304347826 0.1166666666666667 0  1.065652173913043 0.1166666666666667 0  1.073913043478261 0.1166666666666667 0  1.082173913043478 0.1166666666666667 0  1.090434782608696 0.1166666666666667 0  1.098695652173913 0.1166666666666667 0  0.9334782608695652 0.125 0  0.9252173913043478 0.125 0  0.9417391304347826 0.125 0  0.95 0.125 0  0.9582608695652173 0.125 0  0.9665217391304347 0.125 0  0.9747826086956521 0.125 0  0.9830434782608696 0.125 0  0.991304347826087 0.125 0  0.9995652173913042 0.125 0  1.007826086956522 0.125 0  1.016086956521739 0.125 0  1.024347826086957 0.125 0  1.032608695652174 0.125 0  1.040869565217391 0.125 0  1.049130434782609 0.125 0  1.057391304347826 0.125 0  1.065652173913043 0.125 0  1.073913043478261 0.125 0  1.082173913043478 0.125 0  1.090434782608696 0.125 0  1.098695652173913 0.125 0  1.10695652173913 0.125 0  0.9334782608695652 0.1333333333333333 0  0.9252173913043478 0.1333333333333333 0  0.9417391304347826 0.1333333333333333 0  0.95 0.1333333333333333 0  0.9582608695652173 0.1333333333333333 0  0.9665217391304347 0.1333333333333333 0  0.9747826086956521 0.1333333333333333 0  0.9830434782608696 0.1333333333333333 0  0.991304347826087 0.1333333333333333 0  0.9995652173913042 0.1333333333333333 0  1.007826086956522 0.1333333333333333 0  1.016086956521739 0.1333333333333333 0  1.024347826086957 0.1333333333333333 0  1.032608695652174 0.1333333333333333 0  1.040869565217391 0.1333333333333333 0  1.049130434782609 0.1333333333333333 0  1.057391304347826 0.1333333333333333 0  1.065652173913043 0.1333333333333333 0  1.073913043478261 0.1333333333333333 0  1.082173913043478 0.1333333333333333 0  1.090434782608696 0.1333333333333333 0  1.098695652173913 0.1333333333333333 0  1.10695652173913 0.1333333333333333 0  1.115217391304348 0.1333333333333333 0  0.9334782608695652 0.1416666666666667 0  0.9252173913043478 0.1416666666666667 0  0.9417391304347826 0.1416666666666667 0  0.95 0.1416666666666667 0  0.9582608695652173 0.1416666666666667 0  0.9665217391304347 0.1416666666666667 0  0.9747826086956521 0.1416666666666667 0  0.9830434782608696 0.1416666666666667 0  0.991304347826087 0.1416666666666667 0  0.9995652173913042 0.1416666666666667 0  1.007826086956522 0.1416666666666667 0  1.016086956521739 0.1416666666666667 0  1.024347826086957 0.1416666666666667 0  1.032608695652174 0.1416666666666667 0  1.040869565217391 0.1416666666666667 0  1.049130434782609 0.1416666666666667 0  1.057391304347826 0.1416666666666667 0  1.065652173913043 0.1416666666666667 0  1.073913043478261 0.1416666666666667 0  1.082173913043478 0.1416666666666667 0  1.090434782608696 0.1416666666666667 0  1.098695652173913 0.1416666666666667 0  1.10695652173913 0.1416666666666667 0  1.115217391304348 0.1416666666666667 0  1.123478260869565 0.1416666666666667 0  0.9334782608695652 0.15 0  0.9252173913043478 0.15 0  0.9417391304347826 0.15 0  0.95 0.15 0  0.9582608695652173 0.15 0  0.9665217391304347 0.15 0  0.9747826086956521 0.15 0  0.9830434782608696 0.15 0  0.991304347826087 0.15 0  0.9995652173913042 0.15 0  1.007826086956522 0.15 0  1.016086956521739 0.15 0  1.024347826086957 0.15 0  1.032608695652174 0.15 0  1.040869565217391 0.15 0  1.049130434782609 0.15 0  1.057391304347826 0.15 0  1.065652173913043 0.15 0  1.073913043478261 0.15 0  1.082173913043478 0.15 0  1.090434782608696 0.15 0  1.098695652173913 0.15 0  1.10695652173913 0.15 0  1.115217391304348 0.15 0  1.123478260869565 0.15 0  1.131739130434783 0.15 0  0.9334782608695652 0.1583333333333333 0  0.9252173913043478 0.1583333333333333 0  0.9417391304347826 0.1583333333333333 0  0.95 0.1583333333333333 0  0.9582608695652173 0.1583333333333333 0  0.9665217391304347 0.1583333333333333 0  0.9747826086956521 0.1583333333333333 0  0.9830434782608696 0.1583333333333333 0  0.991304347826087 0.1583333333333333 0  0.9995652173913042 0.1583333333333333 0  1.007826086956522 0.1583333333333333 0  1.016086956521739 0.1583333333333333 0  1.024347826086957 0.1583333333333333 0  1.032608695652174 0.1583333333333333 0  1.040869565217391 0.1583333333333333 0  1.049130434782609 0.1583333333333333 0  1.057391304347826 0.1583333333333333 0  1.065652173913043 0.1583333333333333 0  1.073913043478261 0.1583333333333333 0  1.082173913043478 0.1583333333333333 0  1.090434782608696 0.1583333333333333 0  1.098695652173913 0.1583333333333333 0  1.10695652173913 0.1583333333333333 0  1.115217391304348 0.1583333333333333 0  1.123478260869565 0.1583333333333333 0  1.131739130434783 0.1583333333333333 0  1.14 0.1583333333333333 0  0.9334782608695652 0.1666666666666667 0  0.9252173913043478 0.1666666666666667 0  0.9417391304347826 0.1666666666666667 0  0.95 0.1666666666666667 0  0.9582608695652173 0.1666666666666667 0  0.9665217391304347 0.1666666666666667 0  0.9747826086956521 0.1666666666666667 0  0.9830434782608696 0.1666666666666667 0  0.991304347826087 0.1666666666666667 0  0.9995652173913042 0.1666666666666667 0  1.007826086956522 0.1666666666666667 0  1.016086956521739 0.1666666666666667 0  1.024347826086957 0.1666666666666667 0  1.032608695652174 0.1666666666666667 0  1.040869565217391 0.1666666666666667 0  1.049130434782609 0.1666666666666667 0  1.057391304347826 0.1666666666666667 0  1.065652173913043 0.1666666666666667 0  1.073913043478261 0.1666666666666667 0  1.082173913043478 0.1666666666666667 0  1.090434782608696 0.1666666666666667 0  1.098695652173913 0.1666666666666667 0  1.10695652173913 0.1666666666666667 0  1.115217391304348 0.1666666666666667 0  1.123478260869565 0.1666666666666667 0  1.131739130434783 0.1666666666666667 0  1.14 0.1666666666666667 0  1.148260869565217 0.1583333333333333 0  1.148260869565217 0.1666666666666667 0  1.156521739130435 0.1583333333333333 0  1.156521739130435 0.1666666666666667 0  1.164782608695652 0.1583333333333333 0  1.164782608695652 0.1666666666666667 0  1.17304347826087 0.1583333333333333 0  1.17304347826087 0.1666666666666667 0  1.181304347826087 0.1583333333333333 0  1.181304347826087 0.1666666666666667 0  1.189565217391304 0.1583333333333333 0  1.189565217391304 0.1666666666666667 0  1.197826086956522 0.1583333333333333 0  1.197826086956522 0.1666666666666667 0  1.206086956521739 0.1583333333333333 0  1.206086956521739 0.1666666666666667 0  1.214347826086956 0.1666666666666667 0  0.9334782608695652 0.175 0  0.94173
[...]
<PointData  Vectors="Displacement"> 
<DataArray  type="Float64"  Name="Displacement"  NumberOfComponents="3" format="ascii">9.3482764518560246e-01 2.4204952198401539e+00 0.0000000000000000e+00  9.3482823415883332e-01 2.4614463665961397e+00 0.0000000000000000e+00  8.9351771684024628e-01 2.4573268769740944e+00 0.0000000000000000e+00  8.9351766974996305e-01 2.4204949990078433e+00 0.0000000000000000e+00  9.3482850900066583e-01 2.5023970886111027e+00 0.0000000000000000e+00  8.9351778219969080e-01 2.4941589879231394e+00 0.0000000000000000e+00  9.3482866539704079e-01 2.5433478069447322e+00 0.0000000000000000e+00  8.9351784366997522e-01 2.5325920780854481e+00 0.0000000000000000e+00  9.3482876813813853e-01 2.5842986208413601e+00 0.0000000000000000e+00  8.9351794226550663e-01 2.5750877013933327e+00 0.0000000000000000e+00  9.3482884560102231e-01 2.6252495472234663e+00 0.0000000000000000e+00  8.9351799429949297e-01 2.6162230263802946e+00 0.0000000000000000e+00  9.3482890661847717e-01 2.6662005900254706e+00 0.0000000000000000e+00  8.9351807310299458e-01 2.6587195733498459e+00 0.0000000000000000e+00  9.3482893799881017e-01 2.7071517226773021e+00 0.0000000000000000e+00  8.9351815650359934e-01 2.7071516149865453e+00 0.0000000000000000e+00  9.3482900373768774e-01 2.7481030936071278e+00 0.0000000000000000e+00  8.9351818577038344e-01 2.7481030651636349e+00 0.0000000000000000e+00  9.3482908287137789e-01 2.7890545821670703e+00 0.0000000000000000e+00  8.9351819550280154e-01 2.7890545595537457e+00 0.0000000000000000e+00  9.3482916857384624e-01 2.8300062064931990e+00 0.0000000000000000e+00  8.9351819834835466e-01 2.8300062092119531e+00 0.0000000000000000e+00  9.3482926026707625e-01 2.8709579395251001e+00 0.0000000000000000e+00  8.9351818984179920e-01 2.8709579447614000e+00 0.0000000000000000e+00  9.3482937710417902e-01 2.9119097902817210e+00 0.0000000000000000e+00  8.9351815849186478e-01 2.9119097283644639e+00 0.0000000000000000e+00  9.3482951447460183e-01 2.9528618281396009e+00 0.0000000000000000e+00  8.9351815662876710e-01 2.9528617762973446e+00 0.0000000000000000e+00  9.3482967010620288e-01 2.9938140219597131e+00 0.0000000000000000e+00  8.9351816826168950e-01 2.9938140019527153e+00 0.0000000000000000e+00  9.3482986530313972e-01 3.0347663376501433e+00 0.0000000000000000e+00  8.9351817937498623e-01 3.0347663149665611e+00 0.0000000000000000e+00  9.3483013402329529e-01 3.0757188030921130e+00 0.0000000000000000e+00  8.9351819659283283e-01 3.0757187794547032e+00 0.0000000000000000e+00  9.3483056972311174e-01 3.1166715616174208e+00 0.0000000000000000e+00  8.9351820775416224e-01 3.1166714508886684e+00 0.0000000000000000e+00  8.9351964200554379e-01 3.1576244233033108e+00 0.0000000000000000e+00  8.5636263087980569e-01 2.4573268093538365e+00 0.0000000000000000e+00  8.5215121143489092e-01 2.4066379760660004e+00 0.0000000000000000e+00  8.5636260180112711e-01 2.4941589468503298e+00 0.0000000000000000e+00  8.5474761112421049e-01 2.5325920371473036e+00 0.0000000000000000e+00  8.5064950074979195e-01 2.5750875907518944e+00 0.0000000000000000e+00  8.5202195115683155e-01 2.6162230356727005e+00 0.0000000000000000e+00  8.5064866088373925e-01 2.6587194674512955e+00 0.0000000000000000e+00  8.4466139181882505e-01 2.7071515441283598e+00 0.0000000000000000e+00  8.5220748375249267e-01 2.7481030331247092e+00 0.0000000000000000e+00  8.5220741688292578e-01 2.7890544918489111e+00 0.0000000000000000e+00  8.5220733866969223e-01 2.8300061883386274e+00 0.0000000000000000e+00  8.5220730986660143e-01 2.8709579328505130e+00 0.0000000000000000e+00  8.5220730441582437e-01 2.9119097350049130e+00 0.0000000000000000e+00  8.5220670683457189e-01 2.9528616793178486e+00 0.0000000000000000e+00  8.4850985613310215e-01 2.9938124374079083e+00 0.0000000000000000e+00  8.4826970389769996e-01 3.0310986850275645e+00 0.0000000000000000e+00  8.4988102775391572e-01 3.0718274936663730e+00 0.0000000000000000e+00  8.5071883045933849e-01 3.1123663318245836e+00 0.0000000000000000e+00  8.5126516356371629e-01 3.1538046072989316e+00 0.0000000000000000e+00  8.5220857061586563e-01 3.1985773754905886e+00 0.0000000000000000e+00  8.1183615591808611e-01 2.4466024396929762e+00 0.0000000000000000e+00  8.1183614534456661e-01 2.4066379581307387e+00 0.0000000000000000e+00  8.1920728029181067e-01 2.4941589319744137e+00 0.0000000000000000e+00  8.1169497415285619e-01 2.5263671538842716e+00 0.0000000000000000e+00  8.0915302687770929e-01 2.5750875373909969e+00 0.0000000000000000e+00  8.0915301988994648e-01 2.6162230769893347e+00 0.0000000000000000e+00  8.0915300189565387e-01 2.6587193764976260e+00 0.0000000000000000e+00  8.0915303746032630e-01 2.6998541713436857e+00 0.0000000000000000e+00  8.0812473612184410e-01 2.7354705841421545e+00 0.0000000000000000e+00  8.1089637745594467e-01 2.7890544222816600e+00 0.0000000000000000e+00  8.1089639093648824e-01 2.8300061752115360e+00 0.0000000000000000e+00  8.1089637819161409e-01 2.8709579121582594e+00 0.0000000000000000e+00  8.1089638735884817e-01 2.9119096989578694e+00 0.0000000000000000e+00  8.1089644192281163e-01 2.9528615449992763e+00 0.0000000000000000e+00  8.1089650961103188e-01 2.9938124477413512e+00 0.0000000000000000e+00  8.1089649785324902e-01 3.0310986795420400e+00 0.0000000000000000e+00  8.1089649335768943e-01 3.0681468924583397e+00 0.0000000000000000e+00  8.0969357770035066e-01 3.1078643274910420e+00 0.0000000000000000e+00  8.0930820106029511e-01 3.1493085126554696e+00 0.0000000000000000e+00  8.0921603077522686e-01 3.1923219332730781e+00 0.0000000000000000e+00  8.1089759525911009e-01 3.2395304359434491e+00 0.0000000000000000e+00  7.6528324535691927e-01 2.4353638520489875e+00 0.0000000000000000e+00  7.6326878688156063e-01 2.3948694442389273e+00 0.0000000000000000e+00  7.6659793474832449e-01 2.4775383445244974e+00 0.0000000000000000e+00  7.6744637280321926e-01 2.5176284915547265e+00 0.0000000000000000e+00  7.6615332342528131e-01 2.5599425186484881e+00 0.0000000000000000e+00  7.6725235193372909e-01 2.6012323232313084e+00 0.0000000000000000e+00  7.6926210178272203e-01 2.6435961189049841e+00 0.0000000000000000e+00  7.7129337996522396e-01 2.6875585741905219e+00 0.0000000000000000e+00  7.7025514432675690e-01 2.7228826612058055e+00 0.0000000000000000e+00  7.6915786343167802e-01 2.7673401898874417e+00 0.0000000000000000e+00  7.6982900459371539e-01 2.8107099488898402e+00 0.0000000000000000e+00  7.6955022371004134e-01 2.8547449652022254e+00 0.0000000000000000e+00  7.6862844277014530e-01 2.8985035925610476e+00 0.0000000000000000e+00  7.6708451042371362e-01 2.9413484322533470e+00 0.0000000000000000e+00  7.6572927538791002e-01 2.9826627437719222e+00 0.0000000000000000e+00  7.6572180584419325e-01 3.0226335821868631e+00 0.0000000000000000e+00  7.6641955866183964e-01 3.0625970126620059e+00 0.0000000000000000e+00  7.6696961581918910e-01 3.1032521503444777e+00 0.0000000000000000e+00  7.6773316317260931e-01 3.1444525923919731e+00 0.0000000000000000e+00  7.6845220933226743e-01 3.1864099669649661e+00 0.0000000000000000e+00  7.6737916110591009e-01 3.2290801597008110e+00 0.0000000000000000e+00  7.6958684951889178e-01 3.2804835375860315e+00 0.0000000000000000e+00  7.2304651199784864e-01 2.4234280917346354e+00 0.0000000000000000e+00  7.2304660058713943e-01 2.3828012672002536e+00 0.0000000000000000e+00  7.2304644995943668e-01 2.4640550110651476e+00 0.0000000000000000e+00  7.2304638180067038e-01 2.5046818866908138e+00 0.0000000000000000e+00  7.2304630717184182e-01 2.5450055685142225e+00 0.0000000000000000e+00  7.2304624352108182e-01 2.5863070641204584e+00 0.0000000000000000e+00  7.2304623832503834e-01 2.6276085190174210e+00 0.0000000000000000e+00  7.2426741868074207e-01 2.6759088513902580e+00 0.0000000000000000e+00  7.2540766637200016e-01 2.7228826213305499e+00 0.0000000000000000e+00  7.2540768481655582e-01 2.7673401363798869e+00 0.0000000000000000e+00  7.2540771311175989e-01 2.8107098954280709e+00 0.0000000000000000e+00  7.2540774090787474e-01 2.8547449219011609e+00 0.0000000000000000e+00  7.2540776210884461e-01 2.8985035586151304e+00 0.0000000000000000e+00  7.2540777647363830e-01 2.9413484058511816e+00 0.0000000000000000e+00  7.2540778514499582e-01 2.9826627221177406e+00 0.0000000000000000e+00  7.2540778728492195e-01 3.0226335693135060e+00 0.0000000000000000e+00  7.2540778019616425e-01 3.0625970080493166e+00 0.0000000000000000e+00  7.2540776619728431e-01 3.1032521480845818e+00 0.0000000000000000e+00  7.2540775011440584e-01 3.1444525835589552e+00 0.0000000000000000e+00  7.2540774690762311e-01 3.1864099521055502e+00 0.0000000000000000e+00  7.2540774942120245e-01 3.2290801367344506e+00 0.0000000000000000e+00  7.2540775202087537e-01 3.2706865926304536e+00 0.0000000000000000e+00  7.2827641998210091e-01 3.3214365708130700e+00 0.0000000000000000e+00  6.8206317703394936e-01 2.4234280803911590e+00 0.0000000000000000e+00  6.8206314882513508e-01 2.3800556308844700e+00 0.0000000000000000e+00  6.8206314831427184e-01 2.4640550126877385e+00 0.0000000000000000e+00  6.8206313684243136e-01 2.5046819035472501e+00 0.0000000000000000e+00  6.8236888310759702e-01 2.5450055908622460e+00 0.0000000000000000e+00  6.8138236632712523e-01 2.5863070776597898e+00 0.0000000000000000e+00  6.8138235946727232e-01 2.6276084550405199e+00 0.0000000000000000e+00  6.8138230593055216e-01 2.6653357781673530e+00 0.0000000000000000e+00  6.8138229648022874e-01 2.7053991812027149e+00 0.0000000000000000e+00  6.8138231075940836e-01 2.7472762874555010e+00 0.0000000000000000e+00  6.8138232482622874e-01 2.7922146059420778e+00 0.0000000000000000e+00  6.8138232803745513e-01 2.8390381185045790e+00 0.0000000000000000e+00  6.8138233153123751e-01 2.8854668319394396e+00 0.0000000000000000e+00  6.8114234970551268e-01 2.9314379609133718e+00 0.0000000000000000e+00  6.8101843245679572e-01 2.9733720855016603e+00 0.0000000000000000e+00  6.8137640574760261e-01 3.0145066897770616e+00 0.0000000000000000e+00  6.8178511976805534e-01 3.0557878281931319e+00 0.0000000000000000e+00  6.8168937029637722e-01 3.0972399413038265e+00 0.0000000000000000e+00  6.8164545280601052e-01 3.1388600544650052e+00 0.0000000000000000e+00  6.8308232132555047e-01 3.1864099331868325e+00 0.0000000000000000e+00  6.8236326525083313e-01 3.2290801160236726e+00 0.0000000000000000e+00  6.8223247020893241e-01 3.2706865703032406e+00 0.0000000000000000e+00  6.8223248065855002e-01 3.3134864080328348e+00 0.0000000000000000e+00  6.8696635698015185e-01 3.3623893989499329e+00 0.0000000000000000e+00  6.3831028372411380e-01 2.4234280289833978e+00 0.0000000000000000e+00  6.4013739996337005e-01 2.3800556055778479e+00 0.0000000000000000e+00  6.4107978289398015e-01 2.4640549994047163e+00 0.0000000000000000e+00  6.4107980677996401e-01 2.5046818808273801e+00 0.0000000000000000e+00  6.3534242623581938e-01 2.5371810919602535e+00 0.0000000000000000e+00  6.3459766563706810e-01 2.5775826802263841e+00 0.0000000000000000e+00  6.3971867465272592e-01 2.6276084122407628e+00 0.0000000000000000e+00  6.4332394382241143e-01 2.6653357718073121e+00 0.0000000000000000e+00  6.4096741450047556e-01 2.7053991454548196e+00 0.0000000000000000e+00  6.3913784235673810e-01 2.7472762331682410e+00 0.0000000000000000e+00  6.3604982195914528e-01 2.7922145639407892e+00 0.0000000000000000e+00  6.3414808836460279e-01 2.8390380918757385e+00 0.0000000000000000e+00  6.3454632883447715e-01 2.8854668009980133e+00 0.0000000000000000e+00  6.3203319106062017e-01 2.9223015284787133e+00 0.0000000000000000e+00  6.3286219770985619e-01 2.9640606862060848e+00 0.0000000000000000e+00  6.3394769992237665e-01 3.0058118929215949e+00 0.0000000000000000e+00  6.3540670898523843e-01 3.0480821882398907e+00 0.0000000000000000e+00  6.3716657740514748e-01 3.0914380385159594e+00 0.0000000000000000e+00  6.3654443954414208e-01 3.1326632839046091e+00 0.0000000000000000e+00  6.3556288403528194e-01 3.1766925779352202e+00 0.0000000000000000e+00  6.3532317558551565e-01 3.2197488193473802e+00 0.0000000000000000e+00  6.3557935002195454e-01 3.2625673921403635e+00 0.0000000000000000e+00  6.3604928424594454e-01 3.3056398815250154e+00 0.0000000000000000e+00  6.3684078599737926e-01 3.3491781929089699e+00 0.0000000000000000e+00  6.4565664770740239e-01 3.4033418917475142e+00 0.0000000000000000e+00  5.8212870134569461e-01 2.4071711090667738e+00 0.0000000000000000e+00  5.8212871733538829e-01 2.3697229250166782e+00 0.0000000000000000e+00  5.8212866158905974e-01 2.4492362774829077e+00 0.0000000000000000e+00  5.8212859392092753e-01 2.4904110160627284e+00 0.0000000000000000e+00  5.8212849148113488e-01 2.5293105631168906e+00 0.0000000000000000e+00  5.8212839179977938e-01 2.5682099338824940e+00 0.0000000000000000e+00  5.8212828544324879e-01 2.6071093014335571e+00 0.0000000000000000e+00  5.8212816923965083e-01 2.6460084996959785e+00 0.0000000000000000e+00  5.8212801891726240e-01 2.6849075561056748e+00 0.0000000000000000e+00  5.8212784626357783e-01 2.7224158442738955e+00 0.0000000000000000e+00  5.8212780888096349e-01 2.7742679056204387e+00 0.0000000000000000e+00  5.8319145621536506e-01 2.8275152006846143e+00 0.0000000000000000e+00  5.8312209091489664e-01 2.8720740137011789e+00 0.0000000000000000e+00  5.8357728974764478e-01 2.9131836588927964e+00 0.0000000000000000e+00  5.8325215014326859e-01 2.9546033491018107e+00 0.0000000000000000e+00  5.8377789491485110e-01 2.9968160809318869e+00 0.0000000000000000e+00  5.8495300408649320e-01 3.0393077339691184e+00 0.0000000000000000e+00  5.8775743920297041e-01 3.0836081540396041e+00 0.0000000000000000e+00  5.9212893377957676e-01 3.1326632587772933e+00 0.0000000000000000e+00  5.9212895588275072e-01 3.1766925454128168e+00 0.0000000000000000e+00  5.9212898653613955e-01 3.2197487835894925e+00 0.0000000000000000e+00  5.9212902085188390e-01 3.2625673582915504e+00 0.0000000000000000e+00  5.9212905615738298e-01 3.3056398468976602e+00 0.0000000000000000e+00  5.9212909426861216e-01 3.3491781521139350e+00 0.0000000000000000e+00  5.9212913148297153e-01 3.3935010167061170e+00 0.0000000000000000e+00  6.0434715793032079e-01 3.4442938893348107e+00 0.0000000000000000e+00  5.4435202877117428e-01 2.4071710709910406e+00 0.0000000000000000e+00  5.5196159264494626e-01 2.3646739085953428e+00 0.0000000000000000e+00  5.3969455656395904e-01 2.4492362760578170e+00 0.0000000000000000e+00  5.4059270377209967e-01 2.4904110241080910e+00 0.0000000000000000e+00  5.4288773693183279e-01 2.5293106082634238e+00 0.0000000000000000e+00  5.4288775918230070e-01 2.5682099409324719e+00 0.0000000000000000e+00  5.4288774659656436e-01 2.6071093309901907e+00 0.0000000000000000e+00  5.4288774703396092e-01 2.6460085213771212e+00 0.0000000000000000e+00  5.4288774025811670e-01 2.6849076249504664e+00 0.0000000000000000e+00  5.4429039003088175e-01 2.7224159418568141e+00 0.0000000000000000e+00  5.2982052478546104e-01 2.7742677887661369e+00 0.0000000000000000e+00  5.2982034817185952e-01 2.8170933545937227e+00 0.0000000000000000e+00  5.2982045403745159e-01 2.8599190767853027e+00 0.0000000000000000e+00  5.2982067501989338e-01 2.9027459844967258e+00 0.0000000000000000e+00  5.2982083850660566e-01 2.9455735505778211e+00 0.0000000000000000e+00  5.2982089091839135e-01 2.9884012408190159e+00 0.0000000000000000e+00  5.2982096191034966e-01 3.0312287078301328e+00 0.0000000000000000e+00  5.2982100530462906e-01 3.0740564793343923e+00 0.0000000000000000e+00  5.3446065894896644e-01 3.1236785940842560e+00 0.0000000000000000e+00  5.3708192504793029e-01 3.1682403064022617e+00 0.0000000000000000e+00  5.3841525572835758e-01 3.2112087532109284e+00 0.0000000000000000e+00  5.3928343530307632e-01 3.2539840682963765e+00 0.0000000000000000e+00  5.4013376497864696e-01 3.2968429010554421e+00 0.0000000000000000e+00  5.4151836781145646e-01 3.3398782331712926e+00 0.0000000000000000e+00  5.4438607054234212e-01 3.3833227406635498e+00 0.0000000000000000e+00  5.5165132835284059e-01 3.4304057076986605e+00 0.0000000000000000e+00  5.6303742349385633e-01 3.4852453652423727e+00 0.0000000000000000e+00  5.0909172072407438e-01 2.4071710225767613e+00 0.0000000000000000e+00  5.0909172069481023e-01 2.3646738887987127e+00 0.0000000000000000e+00  5.0909173046406231e-01 2.4421247011338942e+00 0.0000000000000000e+00  5.0601905283338311e-01 2.4792113552936574e+00 0.0000000000000000e+00  5.0475679436285126e-01 2.5198699883074931e+00 0.0000000000000000e+00  5.0364725210755568e-01 2.5682098978025087e+00 0.0000000000000000e+00  5.0364714098704588e-01 2.6071093147230786e+00 0.0000000000000000e+00  5.0364733985001342e-01 2.6460085009367216e+00 0.0000000000000000e+00  5.0364735879349620e-01 2.6849076156694949e+00 0.0000000000000000e+00  4.9542885456443198e-01 2.7219534119210502e+00 0.0000000000000000e+00  4.8661868216225601e-01 2.7742679353918698e+00 0.0000000000000000e+00  4.8661865114799635e-01 2.8170934536384746e+00 0.0000000000000000e+00  4.8661847685189774e-01 2.8599188418513579e+00 0.0000000000000000e+00  4.8661811909643904e-01 2.9027458077873107e+00 0.0000000000000000e+00  4.8661779964090035e-01 2.9455734647545593e+00 0.0000000000000000e+00  4.8661767323722349e-01 2.9884012638847626e+00 0.0000000000000000e+00  4.8661771335567983e-01 3.0312286022558963e+00 0.0000000000000000e+00  4.8661766457488648e-01 3.0740564696838688e+00 0.0000000000000000e+00  4.8661760285143052e-01 3.1168862606365182e+00 0.0000000000000000e+00  4.8661761150542837e-01 3.1597146395834792e+00 0.0000000000000000e+00  4.8661769776425734e-01 3.2025434554591792e+00 0.0000000000000000e+00  4.8661785618320891e-01 3.2453724348868258e+00 0.0000000000000000e+00  4.8661805023189153e-01 3.2882014446355856e+00 0.0000000000000000e+00  4.8661819825648278e-01 3.3310309181268667e+00 0.0000000000000000e+00  4.8661822550605111e-01 3.3738602827784310e+00 0.0000000000000000e+00  4.8661825123224450e-01 3.4166903543815206e+00 0.0000000000000000e+00  4.9717714524210338e-01 3.4724155752962580e+00 0.0000000000000000e+00  5.6303784222769537e-01 3.5261968015495717e+00 0.0000000000000000e+00  5.0407402873639828e-01 3.5183563964552262e+00 0.0000000000000000e+00  5.6303871154811691e-01 3.5671483154788999e+00 0.0000000000000000e+00  5.0750629649472179e-01 3.5602923829290001e+00 0.0000000000000000e+00  5.6303998382783260e-01 3.6080996272853856e+00 0.0000000000000000e+00  5.1001908544072438e-01 3.6020832627436961e+00 0.0000000000000000e+00  5.6304166024736335e-01 3.6490505449955024e+00 0.0000000000000000e+00  5.1198423260441828e-01 3.6442832841503536e+00 0.0000000000000000e+00  5.6304375664484130e-01 3.6900008633982289e+00 0.0000000000000000e+00  5.1348821767978403e-01 3.6864943368253682e+00 0.0000000000000000e+00  5.6304630040929859e-01 3.7309503419648018e+00 0.0000000000000000e+00  5.1494412298937553e-01 3.7281992875798573e+00 0.0000000000000000e+00  5.6304936217537527e-01 3.7718987690160390e+00 0.0000000000000000e+00  5.1659373251874163e-01 3.7699013638830561e+00 0.0000000000000000e+00  5.6305335211022245e-01 3.8128467917402324e+00 0.0000000000000000e+00  5.1886399894261481e-01 3.8113147919308230e+00 0.0000000000000000e+00  5.2177154314324414e-01 3.8537836726295587e+00 0.0000000000000000e+00  4.6957576625568004e-01 2.3921112472351882e+00 0.0000000000000000e+00  4.7033971507327743e-01 2.4295354196643224e+00 0.0000000000000000e+00  4.6948566566195871e-01 2.4687465657641208e+00 0.0000000000000000e+00  4.6779162926789075e-01 2.5099198412208290e+00 0.0000000000000000e+00  4.6632395100812990e-01 2.5553019968403898e+00 0.0000000000000000e+00  4.6559525954163788e-01 2.5965833842206889e+00 0.0000000000000000e+00  4.6364492694530046e-01 2.6370963287278206e+00 0.0000000000000000e+00  4.6045841889754840e-01 2.6779154964800034e+00 0.0000000000000000e+00  4.5528671009527083e-01 2.7203996406692097e+00 0.0000000000000000e+00  4.4852297662721269e-01 2.7688986371508242e+00 0.0000000000000000e+00  4.4341752993077410e-01 2.8170934670193319e+00 0.0000000000000000e+00  4.4341753885572449e-01 2.8599188791527270e+00 0.0000000000000000e+00  4.4341506978490591e-01 2.9027458621990743e+00 0.0000000000000000e+00  4.4341427370011827e-01 2.9455736626888034e+00 0.0000000000000000e+00  4.4341383274870011e-01 2.9884012683423316e+00 0.0000000000000000e+