<?xml version="1.0"?>
<VTKFile type="UnstructuredGrid"  version="0.1"  >
<UnstructuredGrid>
<Piece  NumberOfPoints="2320" NumberOfCells="4440">
<Points>
<DataArray  type="Float64"  NumberOfComponents="3"  format="ascii">2.759130434782609 0 0  2.767391304347826 0 0  2.767391304347826 0.008333333333333333 0  2.759130434782609 0.008333333333333333 0  2.775652173913044 0 0  2.775652173913044 0.008333333333333333 0  2.783913043478261 0 0  2.783913043478261 0.008333333333333333 0  2.792173913043478 0 0  2.792173913043478 0.008333333333333333 0  2.800434782608696 0 0  2.800434782608696 0.008333333333333333 0  2.808695652173913 0 0  2.808695652173913 0.008333333333333333 0  2.81695652173913 0 0  2.81695652173913 0.008333333333333333 0  2.825217391304347 0 0  2.825217391304347 0.008333333333333333 0  2.833478260869565 0 0  2.833478260869565 0.008333333333333333 0  2.841739130434783 0 0  2.841739130434783 0.008333333333333333 0  2.85 0 0  2.85 0.008333333333333333 0  2.858260869565217 0 0  2.858260869565217 0.008333333333333333 0  2.866521739130435 0 0  2.866521739130435 0.008333333333333333 0  2.874782608695652 0 0  2.874782608695652 0.008333333333333333 0  2.88304347826087 0 0  2.88304347826087 0.008333333333333333 0  2.891304347826087 0 0  2.891304347826087 0.008333333333333333 0  2.899565217391304 0 0  2.899565217391304 0.008333333333333333 0  2.907826086956522 0 0  2.907826086956522 0.008333333333333333 0  2.767391304347826 0.01666666666666667 0  2.775652173913044 0.01666666666666667 0  2.783913043478261 0.01666666666666667 0  2.792173913043478 0.01666666666666667 0  2.800434782608696 0.01666666666666667 0  2.808695652173913 0.01666666666666667 0  2.81695652173913 0.01666666666666667 0  2.825217391304347 0.01666666666666667 0  2.833478260869565 0.01666666666666667 0  2.841739130434783 0.01666666666666667 0  2.85 0.01666666666666667 0  2.858260869565217 0.01666666666666667 0  2.866521739130435 0.01666666666666667 0  2.874782608695652 0.01666666666666667 0  2.88304347826087 0.01666666666666667 0  2.891304347826087 0.01666666666666667 0  2.899565217391304 0.01666666666666667 0  2.907826086956522 0.01666666666666667 0  2.916086956521739 0.01666666666666667 0  2.775652173913044 0.025 0  2.767391304347826 0.025 0  2.783913043478261 0.025 0  2.792173913043478 0.025 0  2.800434782608696 0.025 0  2.808695652173913 0.025 0  2.81695652173913 0.025 0  2.825217391304347 0.025 0  2.833478260869565 0.025 0  2.841739130434783 0.025 0  2.85 0.025 0  2.858260869565217 0.025 0  2.866521739130435 0.025 0  2.874782608695652 0.025 0  2.88304347826087 0.025 0  2.891304347826087 0.025 0  2.899565217391304 0.025 0  2.907826086956522 0.025 0  2.916086956521739 0.025 0  2.924347826086957 0.025 0  2.775652173913044 0.03333333333333333 0  2.783913043478261 0.03333333333333333 0  2.792173913043478 0.03333333333333333 0  2.800434782608696 0.03333333333333333 0  2.808695652173913 0.03333333333333333 0  2.81695652173913 0.03333333333333333 0  2.825217391304347 0.03333333333333333 0  2.833478260869565 0.03333333333333333 0  2.841739130434783 0.03333333333333333 0  2.85 0.03333333333333333 0  2.858260869565217 0.03333333333333333 0  2.866521739130435 0.03333333333333333 0  2.874782608695652 0.03333333333333333 0  2.88304347826087 0.03333333333333333 0  2.891304347826087 0.03333333333333333 0  2.899565217391304 0.03333333333333333 0  2.907826086956522 0.03333333333333333 0  2.916086956521739 0.03333333333333333 0  2.924347826086957 0.03333333333333333 0  2.932608695652174 0.03333333333333333 0  2.783913043478261 0.04166666666666666 0  2.775652173913044 0.04166666666666666 0  2.792173913043478 0.04166666666666666 0  2.800434782608696 0.04166666666666666 0  2.808695652173913 0.04166666666666666 0  2.81695652173913 0.04166666666666666 0  2.825217391304347 0.04166666666666666 0  2.833478260869565 0.04166666666666666 0  2.841739130434783 0.04166666666666666 0  2.85 0.04166666666666666 0  2.858260869565217 0.04166666666666666 0  2.866521739130435 0.04166666666666666 0  2.874782608695652 0.04166666666666666 0  2.88304347826087 0.04166666666666666 0  2.891304347826087 0.04166666666666666 0  2.899565217391304 0.04166666666666666 0  2.907826086956522 0.04166666666666666 0  2.916086956521739 0.04166666666666666 0  2.924347826086957 0.04166666666666666 0  2.932608695652174 0.04166666666666666 0  2.940869565217391 0.04166666666666666 0  2.783913043478261 0.05 0  2.792173913043478 0.05 0  2.800434782608696 0.05 0  2.808695652173913 0.05 0  2.81695652173913 0.05 0  2.825217391304347 0.05 0  2.833478260869565 0.05 0  2.841739130434783 0.05 0  2.85 0.05 0  2.858260869565217 0.05 0  2.866521739130435 0.05 0  2.874782608695652 0.05 0  2.88304347826087 0.05 0  2.891304347826087 0.05 0  2.899565217391304 0.05 0  2.907826086956522 0.05 0  2.916086956521739 0.05 0  2.924347826086957 0.05 0  2.932608695652174 0.05 0  2.940869565217391 0.05 0  2.949130434782608 0.05 0  2.792173913043478 0.05833333333333333 0  2.783913043478261 0.05833333333333333 0  2.800434782608696 0.05833333333333333 0  2.808695652173913 0.05833333333333333 0  2.81695652173913 0.05833333333333333 0  2.825217391304347 0.05833333333333333 0  2.833478260869565 0.05833333333333333 0  2.841739130434783 0.05833333333333333 0  2.85 0.05833333333333333 0  2.858260869565217 0.05833333333333333 0  2.866521739130435 0.05833333333333333 0  2.874782608695652 0.05833333333333333 0  2.88304347826087 0.05833333333333333 0  2.891304347826087 0.05833333333333333 0  2.899565217391304 0.05833333333333333 0  2.907826086956522 0.05833333333333333 0  2.916086956521739 0.05833333333333333 0  2.924347826086957 0.05833333333333333 0  2.932608695652174 0.05833333333333333 0  2.940869565217391 0.05833333333333333 0  2.949130434782608 0.05833333333333333 0  2.957391304347826 0.05833333333333333 0  2.792173913043478 0.06666666666666667 0  2.800434782608696 0.06666666666666667 0  2.808695652173913 0.06666666666666667 0  2.81695652173913 0.06666666666666667 0  2.825217391304347 0.06666666666666667 0  2.833478260869565 0.06666666666666667 0  2.841739130434783 0.06666666666666667 0  2.85 0.06666666666666667 0  2.858260869565217 0.06666666666666667 0  2.866521739130435 0.06666666666666667 0  2.874782608695652 0.06666666666666667 0  2.88304347826087 0.06666666666666667 0  2.891304347826087 0.06666666666666667 0  2.899565217391304 0.06666666666666667 0  2.907826086956522 0.06666666666666667 0  2.916086956521739 0.06666666666666667 0  2.924347826086957 0.06666666666666667 0  2.932608695652174 0.06666666666666667 0  2.940869565217391 0.06666666666666667 0  2.949130434782608 0.06666666666666667 0  2.957391304347826 0.06666666666666667 0  2.965652173913043 0.06666666666666667 0  2.800434782608696 0.075 0  2.808695652173913 0.075 0  2.81695652173913 0.075 0  2.825217391304347 0.075 0  2.833478260869565 0.075 0  2.841739130434783 0.075 0  2.85 0.075 0  2.858260869565217 0.075 0  2.866521739130435 0.075 0  2.874782608695652 0.075 0  2.88304347826087 0.075 0  2.891304347826087 0.075 0  2.899565217391304 0.075 0  2.907826086956522 0.075 0  2.916086956521739 0.075 0  2.924347826086957 0.075 0  2.932608695652174 0.075 0  2.940869565217391 0.075 0  2.949130434782608 0.075 0  2.957391304347826 0.075 0  2.965652173913043 0.075 0  2.973913043478261 0.075 0  2.808695652173913 0.08333333333333333 0  2.81695652173913 0.08333333333333333 0  2.825217391304347 0.08333333333333333 0  2.833478260869565 0.08333333333333333 0  2.841739130434783 0.08333333333333333 0  2.85 0.08333333333333333 0  2.858260869565217 0.08333333333333333 0  2.866521739130435 0.08333333333333333 0  2.874782608695652 0.08333333333333333 0  2.88304347826087 0.08333333333333333 0  2.891304347826087 0.08333333333333333 0  2.899565217391304 0.08333333333333333 0  2.907826086956522 0.08333333333333333 0  2.916086956521739 0.08333333333333333 0  2.924347826086957 0.08333333333333333 0  2.932608695652174 0.08333333333333333 0  2.940869565217391 0.08333333333333333 0  2.949130434782608 0.08333333333333333 0  2.957391304347826 0.08333333333333333 0  2.965652173913043 0.08333333333333333 0  2.973913043478261 0.08333333333333333 0  2.982173913043478 0.08333333333333333 0  2.81695652173913 0.09166666666666666 0  2.825217391304347 0.09166666666666666 0  2.833478260869565 0.09166666666666666 0  2.841739130434783 0.09166666666666666 0  2.85 0.09166666666666666 0  2.858260869565217 0.09166666666666666 0  2.866521739130435 0.09166666666666666 0  2.874782608695652 0.09166666666666666 0  2.88304347826087 0.09166666666666666 0  2.891304347826087 0.09166666666666666 0  2.899565217391304 0.09166666666666666 0  2.907826086956522 0.09166666666666666 0  2.916086956521739 0.09166666666666666 0  2.924347826086957 0.09166666666666666 0  2.932608695652174 0.09166666666666666 0  2.940869565217391 0.09166666666666666 0  2.949130434782608 0.09166666666666666 0  2.957391304347826 0.09166666666666666 0  2.965652173913043 0.09166666666666666 0  2.973913043478261 0.09166666666666666 0  2.982173913043478 0.09166666666666666 0  2.990434782608696 0.09166666666666666 0  2.825217391304347 0.1 0  2.833478260869565 0.1 0  2.841739130434783 0.1 0  2.85 0.1 0  2.858260869565217 0.1 0  2.866521739130435 0.1 0  2.874782608695652 0.1 0  2.88304347826087 0.1 0  2.891304347826087 0.1 0  2.899565217391304 0.1 0  2.907826086956522 0.1 0  2.916086956521739 0.1 0  2.924347826086957 0.1 0  2.932608695652174 0.1 0  2.940869565217391 0.1 0  2.949130434782608 0.1 0  2.957391304347826 0.1 0  2.965652173913043 0.1 0  2.973913043478261 0.1 0  2.982173913043478 0.1 0  2.990434782608696 0.1 0  2.998695652173913 0.1 0  2.833478260869565 0.1083333333333333 0  2.825217391304347 0.1083333333333333 0  2.841739130434783 0.1083333333333333 0  2.85 0.1083333333333333 0  2.858260869565217 0.1083333333333333 0  2.866521739130435 0.1083333333333333 0  2.874782608695652 0.1083333333333333 0  2.88304347826087 0.1083333333333333 0  2.891304347826087 0.1083333333333333 0  2.899565217391304 0.1083333333333333 0  2.907826086956522 0.1083333333333333 0  2.9160869565217
[...]
<PointData  Vectors="Displacement"> 
<DataArray  type="Float64"  Name="Displacement"  NumberOfComponents="3" format="ascii">5.4495099017546185e+00 2.1278272232891318e+01 0.0000000000000000e+00  5.4495099716229340e+00 2.1445987741262851e+01 0.0000000000000000e+00  5.2803232338815747e+00 2.1445987703541224e+01 0.0000000000000000e+00  5.2803231736725467e+00 2.1278272188273242e+01 0.0000000000000000e+00  5.4495100430918670e+00 2.1613703310949056e+01 0.0000000000000000e+00  5.2803232912529836e+00 2.1613703277652061e+01 0.0000000000000000e+00  5.4495101092829943e+00 2.1781418885939495e+01 0.0000000000000000e+00  5.2803233532291785e+00 2.1781418853217598e+01 0.0000000000000000e+00  5.4495101758296585e+00 2.1949134450320283e+01 0.0000000000000000e+00  5.2803234227399409e+00 2.1949134415203691e+01 0.0000000000000000e+00  5.4495102474943868e+00 2.2116850003792226e+01 0.0000000000000000e+00  5.2803235002207911e+00 2.2116849965161379e+01 0.0000000000000000e+00  5.4495103260914854e+00 2.2284565549491145e+01 0.0000000000000000e+00  5.2803235849414758e+00 2.2284565507324817e+01 0.0000000000000000e+00  5.4495104112926755e+00 2.2452281090454161e+01 0.0000000000000000e+00  5.2803236756832153e+00 2.2452281045321303e+01 0.0000000000000000e+00  5.4495105015300727e+00 2.2619996628777738e+01 0.0000000000000000e+00  5.2803237709406838e+00 2.2619996581570568e+01 0.0000000000000000e+00  5.4495105947961004e+00 2.2787712165093097e+01 0.0000000000000000e+00  5.2803238691983330e+00 2.2787712116721583e+01 0.0000000000000000e+00  5.4495106889853453e+00 2.2955427699225108e+01 0.0000000000000000e+00  5.2803239689243258e+00 2.2955427650595610e+01 0.0000000000000000e+00  5.4495107823280931e+00 2.3123143229744180e+01 0.0000000000000000e+00  5.2803240689288931e+00 2.3123143181487400e+01 0.0000000000000000e+00  5.4495108732897766e+00 2.3290858755145027e+01 0.0000000000000000e+00  5.2803241682086979e+00 2.3290858707813285e+01 0.0000000000000000e+00  5.4495109601227236e+00 2.3458574274044473e+01 0.0000000000000000e+00  5.2803242656730998e+00 2.3458574228343704e+01 0.0000000000000000e+00  5.4495110404071712e+00 2.3626289784734826e+01 0.0000000000000000e+00  5.2803243598887146e+00 2.3626289741771018e+01 0.0000000000000000e+00  5.4495111109451626e+00 2.3794005283722782e+01 0.0000000000000000e+00  5.2803244490394041e+00 2.3794005245197869e+01 0.0000000000000000e+00  5.4495111675881205e+00 2.3961720764693386e+01 0.0000000000000000e+00  5.2803245302715496e+00 2.3961720733773365e+01 0.0000000000000000e+00  5.4495112058542743e+00 2.4129436216362269e+01 0.0000000000000000e+00  5.2803245980927427e+00 2.4129436198618620e+01 0.0000000000000000e+00  5.4495112365532474e+00 2.4297151639444746e+01 0.0000000000000000e+00  5.2803246402188551e+00 2.4297151620024813e+01 0.0000000000000000e+00  5.1111364703896545e+00 2.1445987658167667e+01 0.0000000000000000e+00  5.1111365173851429e+00 2.1613703250411717e+01 0.0000000000000000e+00  5.1111365763703827e+00 2.1781418823952972e+01 0.0000000000000000e+00  5.1111366502262525e+00 2.1949134379018567e+01 0.0000000000000000e+00  5.1111367358328437e+00 2.2116849922917179e+01 0.0000000000000000e+00  5.1111368296835948e+00 2.2284565460558479e+01 0.0000000000000000e+00  5.1111369293809288e+00 2.2452280995322379e+01 0.0000000000000000e+00  5.1111370332240842e+00 2.2619996529537762e+01 0.0000000000000000e+00  5.1111371400352796e+00 2.2787712063456446e+01 0.0000000000000000e+00  5.1111372486464930e+00 2.2955427596928441e+01 0.0000000000000000e+00  5.1111373585435596e+00 2.3123143127471231e+01 0.0000000000000000e+00  5.1111374695945244e+00 2.3290858653352185e+01 0.0000000000000000e+00  5.1111375816568376e+00 2.3458574173506257e+01 0.0000000000000000e+00  5.1111376943868505e+00 2.3626289687052719e+01 0.0000000000000000e+00  5.1111378076944494e+00 2.3794005191313218e+01 0.0000000000000000e+00  5.1111379213075860e+00 2.3961720682997914e+01 0.0000000000000000e+00  5.1111380335675953e+00 2.4129436157382781e+01 0.0000000000000000e+00  5.1111381383479175e+00 2.4297151605934388e+01 0.0000000000000000e+00  5.1111382160831660e+00 2.4464867010407804e+01 0.0000000000000000e+00  4.9419496719197360e+00 2.1613703221676197e+01 0.0000000000000000e+00  4.9419495653174126e+00 2.1445987561056565e+01 0.0000000000000000e+00  4.9419497580825800e+00 2.1781418792932822e+01 0.0000000000000000e+00  4.9419498522669603e+00 2.1949134337746575e+01 0.0000000000000000e+00  4.9419499547028742e+00 2.2116849873950031e+01 0.0000000000000000e+00  4.9419500625809851e+00 2.2284565406647815e+01 0.0000000000000000e+00  4.9419501741023844e+00 2.2452280938111940e+01 0.0000000000000000e+00  4.9419502885250433e+00 2.2619996470402402e+01 0.0000000000000000e+00  4.9419504058234169e+00 2.2787712003037598e+01 0.0000000000000000e+00  4.9419505251927243e+00 2.2955427536278883e+01 0.0000000000000000e+00  4.9419506467640222e+00 2.3123143065888229e+01 0.0000000000000000e+00  4.9419507712231479e+00 2.3290858589938427e+01 0.0000000000000000e+00  4.9419508992272645e+00 2.3458574107639571e+01 0.0000000000000000e+00  4.9419510311933079e+00 2.3626289618687686e+01 0.0000000000000000e+00  4.9419511686116131e+00 2.3794005119711528e+01 0.0000000000000000e+00  4.9419513137631315e+00 2.3961720608211699e+01 0.0000000000000000e+00  4.9419514692984645e+00 2.4129436082188683e+01 0.0000000000000000e+00  4.9419516375773789e+00 2.4297151541249487e+01 0.0000000000000000e+00  4.9419518173086558e+00 2.4464866990952324e+01 0.0000000000000000e+00  4.9419519863180241e+00 2.4632582441482736e+01 0.0000000000000000e+00  4.7727628163008378e+00 2.1613703184395774e+01 0.0000000000000000e+00  4.7727629268578911e+00 2.1781418749379458e+01 0.0000000000000000e+00  4.7727630453005210e+00 2.1949134283512123e+01 0.0000000000000000e+00  4.7727631677515738e+00 2.2116849813730948e+01 0.0000000000000000e+00  4.7727632910981095e+00 2.2284565343334918e+01 0.0000000000000000e+00  4.7727634144172013e+00 2.2452280872845577e+01 0.0000000000000000e+00  4.7727635378510858e+00 2.2619996403562684e+01 0.0000000000000000e+00  4.7727636648016070e+00 2.2787711934375885e+01 0.0000000000000000e+00  4.7727637951668029e+00 2.2955427467892360e+01 0.0000000000000000e+00  4.7727639290261852e+00 2.3123142996209506e+01 0.0000000000000000e+00  4.7727640671322593e+00 2.3290858517402295e+01 0.0000000000000000e+00  4.7727642103188206e+00 2.3458574031205703e+01 0.0000000000000000e+00  4.7727643589805844e+00 2.3626289538362979e+01 0.0000000000000000e+00  4.7727645158123888e+00 2.3794005033224654e+01 0.0000000000000000e+00  4.7727646849894096e+00 2.3961720513300705e+01 0.0000000000000000e+00  4.7727648724142142e+00 2.4129435976699849e+01 0.0000000000000000e+00  4.7727650881335988e+00 2.4297151423701578e+01 0.0000000000000000e+00  4.7727653512264645e+00 2.4464866864743648e+01 0.0000000000000000e+00  4.7727657012828582e+00 2.4632582344402632e+01 0.0000000000000000e+00  4.7727662559329165e+00 2.4800298112345523e+01 0.0000000000000000e+00  4.6035760953652716e+00 2.1781418693969592e+01 0.0000000000000000e+00  4.6035759695321303e+00 2.1613703199746169e+01 0.0000000000000000e+00  4.6035762420755528e+00 2.1949134213237091e+01 0.0000000000000000e+00  4.6035763855680489e+00 2.2116849740778115e+01 0.0000000000000000e+00  4.6035765231508421e+00 2.2284565270731871e+01 0.0000000000000000e+00  4.6035766557465818e+00 2.2452280801027221e+01 0.0000000000000000e+00  4.6035767839618034e+00 2.2619996332703558e+01 0.0000000000000000e+00  4.6035769125135886e+00 2.2787711857750249e+01 0.0000000000000000e+00  4.6035770525299764e+00 2.2955427391451536e+01 0.0000000000000000e+00  4.6035772003578934e+00 2.3123142918547774e+01 0.0000000000000000e+00  4.6035773522713219e+00 2.3290858436919883e+01 0.0000000000000000e+00  4.6035775079906651e+00 2.3458573947105517e+01 0.0000000000000000e+00  4.6035776663959824e+00 2.3626289452404311e+01 0.0000000000000000e+00  4.6035778299341406e+00 2.3794004942801472e+01 0.0000000000000000e+00  4.6035780002975777e+00 2.3961720417962415e+01 0.0000000000000000e+00  4.6035781762718253e+00 2.4129435878146289e+01 0.0000000000000000e+00  4.6035783529248517e+00 2.4297151326139812e+01 0.0000000000000000e+00  4.6035785195682601e+00 2.4464866776388078e+01 0.0000000000000000e+00  4.6035786592090471e+00 2.4632582276031187e+01 0.0000000000000000e+00  4.6035787587892116e+00 2.4800297972034613e+01 0.0000000000000000e+00  4.6035788329352547e+00 2.4968014001022571e+01 0.0000000000000000e+00  4.4343893048957614e+00 2.1781418619865139e+01 0.0000000000000000e+00  4.4343894688164083e+00 2.1949134125798235e+01 0.0000000000000000e+00  4.4343896239650045e+00 2.2116849656704144e+01 0.0000000000000000e+00  4.4343897683968576e+00 2.2284565191439569e+01 0.0000000000000000e+00  4.4343899042933463e+00 2.2452280725974244e+01 0.0000000000000000e+00  4.4343900308779673e+00 2.2619996263843529e+01 0.0000000000000000e+00  4.4343901538851593e+00 2.2787711786478145e+01 0.0000000000000000e+00  4.4343902721408632e+00 2.2955427299225281e+01 0.0000000000000000e+00  4.4343904567855530e+00 2.3123142830466517e+01 0.0000000000000000e+00  4.4343906283963852e+00 2.3290858349060951e+01 0.0000000000000000e+00  4.4343907955211801e+00 2.3458573857854169e+01 0.0000000000000000e+00  4.4343909584309431e+00 2.3626289366345294e+01 0.0000000000000000e+00  4.4343911227141488e+00 2.3794004855092009e+01 0.0000000000000000e+00  4.4343912896131741e+00 2.3961720330651453e+01 0.0000000000000000e+00  4.4343914533486162e+00 2.4129435798102790e+01 0.0000000000000000e+00  4.4343916006387660e+00 2.4297151265529113e+01 0.0000000000000000e+00  4.4343917066340941e+00 2.4464866753358297e+01 0.0000000000000000e+00  4.4343917352905171e+00 2.4632582304175383e+01 0.0000000000000000e+00  4.4343916541772783e+00 2.4800298008852007e+01 0.0000000000000000e+00  4.4343914844015258e+00 2.4968013913940290e+01 0.0000000000000000e+00  4.4343915014728870e+00 2.5135730368032103e+01 0.0000000000000000e+00  4.2652027333549212e+00 2.1949134025048487e+01 0.0000000000000000e+00  4.2652026131221978e+00 2.1781418480471419e+01 0.0000000000000000e+00  4.2652028895256651e+00 2.2116849567525225e+01 0.0000000000000000e+00  4.2652030332368636e+00 2.2284565109557921e+01 0.0000000000000000e+00  4.2652031693010768e+00 2.2452280649178309e+01 0.0000000000000000e+00  4.2652032949280727e+00 2.2619996196886852e+01 0.0000000000000000e+00  4.2652034249597444e+00 2.2787711711450353e+01 0.0000000000000000e+00  4.2652035655202276e+00 2.2955427219432845e+01 0.0000000000000000e+00  4.2652037208141644e+00 2.3123142717367230e+01 0.0000000000000000e+00  4.2652039009347567e+00 2.3290858244798450e+01 0.0000000000000000e+00  4.2652040711047761e+00 2.3458573757951399e+01 0.0000000000000000e+00  4.2652042258213374e+00 2.3626289284266612e+01 0.0000000000000000e+00  4.2652043752324831e+00 2.3794004771884953e+01 0.0000000000000000e+00  4.2652045265488043e+00 2.3961720252095578e+01 0.0000000000000000e+00  4.2652046732987898e+00 2.4129435736540621e+01 0.0000000000000000e+00  4.2652048045850917e+00 2.4297151238027478e+01 0.0000000000000000e+00  4.2652049031319805e+00 2.4464866780556932e+01 0.0000000000000000e+00  4.2652049494985782e+00 2.4632582383544928e+01 0.0000000000000000e+00  4.2652049387889868e+00 2.4800298054742786e+01 0.0000000000000000e+00  4.2652049133686658e+00 2.4968013693261796e+01 0.0000000000000000e+00  4.2652049385582798e+00 2.5135728749058455e+01 0.0000000000000000e+00  4.2791613866401343e+00 2.5316550838250610e+01 0.0000000000000000e+00  4.0960160802333885e+00 2.1949133971191753e+01 0.0000000000000000e+00  4.0960161563715838e+00 2.2116849467350495e+01 0.0000000000000000e+00  4.0960162975805119e+00 2.2284565020645864e+01 0.0000000000000000e+00  4.0960164290522503e+00 2.2452280565572259e+01 0.0000000000000000e+00  4.0960165454292952e+00 2.2619996138657530e+01 0.0000000000000000e+00  4.0960166674380556e+00 2.2787711620968221e+01 0.0000000000000000e+00  4.0960168109066295e+00 2.2955427113762262e+01 0.0000000000000000e+00  4.0960169696772404e+00 2.3123142604824544e+01 0.0000000000000000e+00  4.0960171484690511e+00 2.3290858113239345e+01 0.0000000000000000e+00  4.0960173766137853e+00 2.3458573673586130e+01 0.0000000000000000e+00  4.0960174916500076e+00 2.3626289223212201e+01 0.0000000000000000e+00  4.0960176230770742e+00 2.3794004698871991e+01 0.0000000000000000e+00  4.0960177653871899e+00 2.3961720178331600e+01 0.0000000000000000e+00  4.0960179083197206e+00 2.4129435670016257e+01 0.0000000000000000e+00  4.0960180494871592e+00 2.4297151185055345e+01 0.0000000000000000e+00  4.0960181862130005e+00 2.4464866751031369e+01 0.0000000000000000e+00  4.0960183191640942e+00 2.4632582369461971e+01 0.0000000000000000e+00  4.0960184519714993e+00 2.4800298012201850e+01 0.0000000000000000e+00  4.0960185852467470e+00 2.4968013547612056e+01 0.0000000000000000e+00  4.0960186878884555e+00 2.5135728678855347e+01 0.0000000000000000e+00  4.0960186664236362e+00 2.5303443344088620e+01 0.0000000000000000e+00  4.0960185113252461e+00 2.5471156727641269e+01 0.0000000000000000e+00  3.9268294562979582e+00 2.2116849402850047e+01 0.0000000000000000e+00  3.9268295830136157e+00 2.2284564947276909e+01 0.0000000000000000e+00  3.9268296888407583e+00 2.2452280488147093e+01 0.0000000000000000e+00  3.9268297805103534e+00 2.2619996110908108e+01 0.0000000000000000e+00  3.9268298931117873e+00 2.2787711536853926e+01 0.0000000000000000e+00  3.9268300224492632e+00 2.2955427023596009e+01 0.0000000000000000e+00  3.9268301494169107e+00 2.3123142516854184e+01 0.0000000000000000e+00  3.9268302679446054e+00 2.3290858027531996e+01 0.0000000000000000e+00  3.9268303775028213e+00 2.3458573555523419e+01 0.0000000000000000e+00  3.9268305995304238e+00 2.3626289194625560e+01 0.0000000000000000e+00  3.9268308248368116e+00 2.3794004622389920e+01 0.0000000000000000e+00  3.9268310121440333e+00 2.3961720094720420e+01 0.0000000000000000e+00  3.9268311790984245e+00 2.4129435586860556e+01 0.0000000000000000e+00  3.9268313385153899e+00 2.4297151095660798e+01 0.0000000000000000e+00  3.9268314962696858e+00 2.4464866669984573e+01 0.0000000000000000e+00  3.9268316791735614e+00 2.4632582293677096e+01 0.0000000000000000e+00  3.9268319171357602e+00 2.4800297939016978e+01 0.0000000000000000e+00  3.9268322440669232e+00 2.4968013470199370e+01 0.0000000000000000e+00  3.9268326773755491e+00 2.5135728628494753e+01 0.0000000000000000e+00  3.9268332002176827e+00 2.5303443363942545e+01 0.0000000000000000e+00  3.9268338366086715e+00 2.5471156718422336e+01 0.0000000000000000e+00  3.9268339762980382e+00 2.5638869463009186e+01 0.0000000000000000e+00  3.7141743459856125e+00 2.2280476082356273e+01 0.0000000000000000e+00  3.7576427999810353e+00 2.2452280369045074e+01 0.0000000000000000e+00  3.7576428874223273e+00 2.2619996171951428e+01 0.0000000000000000e+00  3.7576431155415237e+00 2.2787711426542892e+01 0.0000000000000000e+00  3.7576432664630226e+00 2.2955426934071145e+01 0.0000000000000000e+00  3.7576433873092472e+00 2.3123142429863307e+01 0.0000000000000000e+00  3.7576434822848386e+00 2.3290857952193949e+01 0.0000000000000000e+00  3.7576435592531099e+00 2.3458573475137712e+01 0.0000000000000000e+00  3.7576436068921897e+00 2.3626289074360010e+01 0.0000000000000000e+00  3.7576441958816531e+00 2.3794004500647318e+01 0.0000000000000000e+00  3.7576443328242486e+00 2.3961719989028659e+01 0.0000000000000000e+00  3.7576444787147136e+00 2.4129435488775687e+01 0.0000000000000000e+00  3.7576446330215720e+00 2.4297150998052231e+01 0.0000000000000000e+00  3.7576447213435116e+00 2.4464866576197853e+01 0.0000000000000000e+00  3.7576448633993880e+00 2.4632582187479208e+01 0.0000000000000000e+00  3.7576451013780465e+00 2.4800297807110514e+01 0.0000000000000000e+00  3.7576455687637491e+00 2.4968013298193998e+01 0.0000000000000000e+00  3.7576463718746136e+00 2.5135728411421699e+01 0.0000000000000000e+00  3.7576473307204417e+00 2.5303443100200919e+01 0.0000000000000000e+00  3.7576494115774888e+00 2.5471156391898216e+01 0.0000000000000000e+00  3.7576508706158092e+00 2.5638869373353124e+01 0.0000000000000000e+00  3.7576510747800285e+00 2.5806581280512361e+01 0.0000000000000000e+00  3.5338630099313066e+00 2.2438539967380475e+01 0.0000000000000000e+00  3.5884554605698624e+00 2.2619996118448114e+01 0.0000000000000000e+00  3.5884566975434660e+00 2.2787711264691616e+01 0.0000000000000000e+00  3.5884565704323701e+00 2.2955426834979594e+01 0.0000000000000000e+00  3.5884566985954320e+00 2.3123142351043622e+01 0.0000000000000000e+00  3.5884567467586246e+00 2.3290857887574681e+01 0.0000000000000000e+00  3.5884568269499395e+00 2.3458573415794675e+01 0.0000000000000000e+00  3.5884567786924335e+00 2.3626289033796283e+01 0.0000000000000000e+00  3.5842485155137500e+00 2.3789763443062640e+01 0.0000000000000000e+00  3.5825008336294388e+00 2.3955859026109113e+01 0.0000000000000000e+00  3.5812989069804937e+00 2.4121308929104053e+01 0.0000000000000000e+00  3.5827877178828542e+00 2.4287204955102201e+01 0.0000000000000000e+00  3.5847682141674806e+00 2.4456039879862381e+01 0.0000000000000000e+00  3.5877544699620647e+00 2.4622415770284281e+01 0.0000000000000000e+00  3.5944123870807529e+00 2.4789796464359320e+01 0.0000000000000000e+00  3.6041488678075515e+00 2.4960054471464169e+01 0.0000000000000000e+00  3.6125851337884409e+00 2.5132274737164646e+01 0.0000000000000000e+00  3.6193959798591533e+00 2.5296666932456183e+01 0.0000000000000000e+00  3.6321353175019069e+00 2.5459648972407383e+01 0.0000000000000000e+00  3.6489868803408774e+00 2.5631369114403121e+01 0.0000000000000000e+00  3.6717571090101546e+00 2.5798271563644231e+01 0.0000000000000000e+00  3.7049676482339411e+00 2.5955331193999271e+01 0.0000000000000000e+00  3.4045604342232738e+00 2.2595995761754672e+01 0.0000000000000000e+00  3.4097969158734758e+00 2.2761636535049828e+01 0.0000000000000000e+00  3.4146316208925471e+00 2.2943506299730206e+01 0.0000000000000000e+00  3.4142811957525190e+00 2.3114401618353703e+01 0.0000000000000000e+00  3.4125610529819550e+00 2.3284010038686137e+01 0.0000000000000000e+00  3.4076007090580904e+00 2.3448022951843917e+01 0.0000000000000000e+00  3.4076007163521185e+00 2.3616674923847874e+01 0.0000000000000000e+00  3.4094026169491194e+00 2.3786075566185744e+01 0.0000000000000000e+00  3.4085961212096505e+00 2.3950737536310339e+01 0.0000000000000000e+00  3.4076203722224743e+00 2.4115496840566948e+01 0.0000000000000000e+00  3.4038563855371371e+00 2.4274586215906332e+01 0.0000000000000000e+00  3.4094327842906451e+00 2.4446657859695595e+01 0.0000000000000000e+00  3.4136007698049653e+00 2.4610852851565028e+01 0.0000000000000000e+00  3.4202933926630275e+00 2.4772520737353670e+01 0.0000000000000000e+00  3.4393959356645531e+00 2.4942129045729544e+01 0.0000000000000000e+00  3.4632283680023126e+00 2.5122909616001639e+01 0.0000000000000000e+00  3.4826784481263346e+00 2.5290086555000020e+01 0.0000000000000000e+00  3.4890550604203137e+00 2.5439329432000655e+01 0.0000000000000000e+00  3.5105864583947990e+00 2.5616504510210849e+01 0.0000000000000000e+00  3.5393761754374862e+00 2.5783443574643805e+01 0.0000000000000000e+00  3.5738855837834849e+00 2.5944423450395277e+01 0.0000000000000000e+00  3.6058903343792963e+00 2.6103348128800764e+01 0.0000000000000000e+00  3.2374673274543087e+00 2.2761636360136357e+01 0.0000000000000000e+00  3.2374671556252110e+00 2.2595995634076171e+01 0.0000000000000000e+00  3.2374675570609797e+00 2.2932467459607572e+01 0.0000000000000000e+00  3.2374679891077798e+00 2.3105477482097776e+01 0.0000000000000000e+00  3.2374684141700558e+00 2.3277387185227955e+01 0.0000000000000000e+00  3.2374688383866101e+00 2.3447725797948017e+01 0.0000000000000000e+00  3.2374692661962148e+00 2.3616674882796861e+01 0.0000000000000000e+00  3.2374696529290912e+00 2.3781045237384820e+01 0.0000000000000000e+00  3.2374700424728435e+00 2.3944869225632576e+01 0.0000000000000000e+00  3.2374704153236813e+00 2.4109646679728232e+01 0.0000000000000000e+00  3.2374707697870293e+00 2.4274586110571175e+01 0.0000000000000000e+00  3.2374709339104775e+00 2.4439524836735352e+01 0.0000000000000000e+00  3.2374712226987898e+00 2.4602016681186861e+01 0.0000000000000000e+