<?xml version="1.0"?>
<VTKFile type="UnstructuredGrid"  version="0.1"  >
<UnstructuredGrid>
<Piece  NumberOfPoints="2403" NumberOfCells="4543">
<Points>
<DataArray  type="Float64"  NumberOfComponents="3"  format="ascii">0.9169565217391303 0 0  0.9252173913043478 0 0  0.9252173913043478 0.008333333333333333 0  0.9334782608695652 0 0  0.9334782608695652 0.008333333333333333 0  0.9417391304347826 0 0  0.9417391304347826 0.008333333333333333 0  0.95 0 0  0.95 0.008333333333333333 0  0.9582608695652173 0 0  0.9582608695652173 0.008333333333333333 0  0.9665217391304347 0 0  0.9665217391304347 0.008333333333333333 0  0.9747826086956521 0 0  0.9747826086956521 0.008333333333333333 0  0.9830434782608696 0 0  0.9830434782608696 0.008333333333333333 0  0.991304347826087 0 0  0.991304347826087 0.008333333333333333 0  0.9995652173913042 0 0  0.9995652173913042 0.008333333333333333 0  1.007826086956522 0 0  1.007826086956522 0.008333333333333333 0  1.016086956521739 0 0  1.016086956521739 0.008333333333333333 0  1.024347826086957 0 0  1.024347826086957 0.008333333333333333 0  1.032608695652174 0 0  1.032608695652174 0.008333333333333333 0  1.040869565217391 0 0  1.040869565217391 0.008333333333333333 0  1.049130434782609 0 0  1.049130434782609 0.008333333333333333 0  1.057391304347826 0 0  1.057391304347826 0.008333333333333333 0  1.065652173913043 0 0  1.065652173913043 0.008333333333333333 0  1.073913043478261 0 0  1.073913043478261 0.008333333333333333 0  1.082173913043478 0 0  1.082173913043478 0.008333333333333333 0  1.090434782608696 0 0  1.090434782608696 0.008333333333333333 0  1.098695652173913 0 0  1.098695652173913 0.008333333333333333 0  1.10695652173913 0 0  1.10695652173913 0.008333333333333333 0  1.115217391304348 0 0  1.115217391304348 0.008333333333333333 0  1.123478260869565 0 0  1.123478260869565 0.008333333333333333 0  1.131739130434783 0 0  1.131739130434783 0.008333333333333333 0  1.14 0 0  1.14 0.008333333333333333 0  1.148260869565217 0 0  1.148260869565217 0.008333333333333333 0  1.156521739130435 0 0  1.156521739130435 0.008333333333333333 0  1.164782608695652 0 0  1.164782608695652 0.008333333333333333 0  1.17304347826087 0 0  1.17304347826087 0.008333333333333333 0  1.181304347826087 0 0  1.181304347826087 0.008333333333333333 0  1.189565217391304 0 0  1.189565217391304 0.008333333333333333 0  1.197826086956522 0 0  1.197826086956522 0.008333333333333333 0  1.206086956521739 0 0  1.206086956521739 0.008333333333333333 0  1.214347826086956 0 0  1.214347826086956 0.008333333333333333 0  1.222608695652174 0 0  1.222608695652174 0.008333333333333333 0  1.230869565217391 0 0  1.230869565217391 0.008333333333333333 0  1.239130434782609 0 0  1.239130434782609 0.008333333333333333 0  1.247391304347826 0 0  1.247391304347826 0.008333333333333333 0  1.255652173913044 0 0  1.255652173913044 0.008333333333333333 0  1.263913043478261 0 0  1.263913043478261 0.008333333333333333 0  1.272173913043478 0 0  1.272173913043478 0.008333333333333333 0  1.280434782608696 0 0  1.280434782608696 0.008333333333333333 0  1.288695652173913 0 0  1.288695652173913 0.008333333333333333 0  1.296956521739131 0 0  1.296956521739131 0.008333333333333333 0  1.305217391304348 0 0  1.305217391304348 0.008333333333333333 0  1.313478260869565 0 0  1.313478260869565 0.008333333333333333 0  1.321739130434783 0 0  1.321739130434783 0.008333333333333333 0  1.33 0 0  1.33 0.008333333333333333 0  1.338260869565217 0 0  1.338260869565217 0.008333333333333333 0  1.346521739130435 0 0  1.346521739130435 0.008333333333333333 0  1.354782608695652 0 0  1.354782608695652 0.008333333333333333 0  1.36304347826087 0 0  1.36304347826087 0.008333333333333333 0  1.371304347826087 0 0  1.371304347826087 0.008333333333333333 0  1.379565217391304 0 0  1.379565217391304 0.008333333333333333 0  1.387826086956522 0 0  1.387826086956522 0.008333333333333333 0  1.396086956521739 0 0  1.396086956521739 0.008333333333333333 0  1.404347826086957 0 0  1.404347826086957 0.008333333333333333 0  1.412608695652174 0 0  1.412608695652174 0.008333333333333333 0  1.420869565217391 0 0  1.420869565217391 0.008333333333333333 0  1.429130434782609 0 0  1.429130434782609 0.008333333333333333 0  1.437391304347826 0 0  1.437391304347826 0.008333333333333333 0  1.445652173913043 0 0  1.445652173913043 0.008333333333333333 0  1.453913043478261 0 0  1.453913043478261 0.008333333333333333 0  1.462173913043478 0 0  1.462173913043478 0.008333333333333333 0  1.470434782608696 0 0  1.470434782608696 0.008333333333333333 0  1.478695652173913 0 0  1.478695652173913 0.008333333333333333 0  1.486956521739131 0 0  1.486956521739131 0.008333333333333333 0  1.495217391304348 0 0  1.495217391304348 0.008333333333333333 0  1.503478260869565 0 0  1.503478260869565 0.008333333333333333 0  1.511739130434782 0 0  1.511739130434782 0.008333333333333333 0  1.52 0 0  1.52 0.008333333333333333 0  1.528260869565217 0 0  1.528260869565217 0.008333333333333333 0  1.536521739130435 0 0  1.536521739130435 0.008333333333333333 0  1.544782608695652 0 0  1.544782608695652 0.008333333333333333 0  1.55304347826087 0 0  1.55304347826087 0.008333333333333333 0  1.561304347826087 0 0  1.561304347826087 0.008333333333333333 0  1.569565217391304 0 0  1.569565217391304 0.008333333333333333 0  1.577826086956522 0 0  1.577826086956522 0.008333333333333333 0  1.586086956521739 0 0  1.586086956521739 0.008333333333333333 0  1.594347826086957 0 0  1.594347826086957 0.008333333333333333 0  1.602608695652174 0 0  1.602608695652174 0.008333333333333333 0  1.610869565217391 0 0  1.610869565217391 0.008333333333333333 0  1.619130434782609 0 0  1.619130434782609 0.008333333333333333 0  1.627391304347826 0 0  1.627391304347826 0.008333333333333333 0  1.635652173913043 0 0  1.635652173913043 0.008333333333333333 0  1.643913043478261 0 0  1.643913043478261 0.008333333333333333 0  1.652173913043478 0 0  1.652173913043478 0.008333333333333333 0  1.660434782608696 0 0  1.660434782608696 0.008333333333333333 0  1.668695652173913 0 0  1.668695652173913 0.008333333333333333 0  1.67695652173913 0 0  1.67695652173913 0.008333333333333333 0  1.685217391304348 0 0  1.685217391304348 0.008333333333333333 0  1.693478260869565 0 0  1.693478260869565 0.008333333333333333 0  1.701739130434782 0 0  1.701739130434782 0.008333333333333333 0  1.71 0 0  1.71 0.008333333333333333 0  1.718260869565217 0 0  1.718260869565217 0.008333333333333333 0  1.726521739130435 0 0  1.726521739130435 0.008333333333333333 0  1.734782608695652 0 0  1.734782608695652 0.008333333333333333 0  1.743043478260869 0 0  1.743043478260869 0.008333333333333333 0  1.751304347826087 0 0  1.751304347826087 0.008333333333333333 0  1.759565217391304 0 0  1.759565217391304 0.008333333333333333 0  1.767826086956522 0 0  1.767826086956522 0.008333333333333333 0  1.776086956521739 0 0  1.776086956521739 0.008333333333333333 0  1.784347826086957 0 0  1.784347826086957 0.008333333333333333 0  0.9334782608695652 0.01666666666666667 0  0.9252173913043478 0.01666666666666667 0  0.9417391304347826 0.01666666666666667 0  0.95 0.01666666666666667 0  0.9582608695652173 0.01666666666666667 0  0.9665217391304347 0.01666666666666667 0  0.9747826086956521 0.01666666666666667 0  0.9830434782608696 0.01666666666666667 0  0.991304347826087 0.01666666666666667 0  0.9995652173913042 0.01666666666666667 0  1.007826086956522 0.01666666666666667 0  1.016086956521739 0.01666666666666667 0  1.024347826086957 0.01666666666666667 0  1.032608695652174 0.01666666666666667 0  1.040869565217391 0.01666666666666667 0  1.049130434782609 0.01666666666666667 0  1.057391304347826 0.01666666666666667 0  1.065652173913043 0.01666666666666667 0  1.073913043478261 0.01666666666666667 0  1.082173913043478 0.01666666666666667 0  1.090434782608696 0.01666666666666667 0  1.098695652173913 0.01666666666666667 0  1.10695652173913 0.01666666666666667 0  1.115217391304348 0.01666666666666667 0  1.123478260869565 0.01666666666666667 0  1.131739130434783 0.01666666666666667 0  1.14 0.01666666666666667 0  1.148260869565217 0.01666666666666667 0  1.156521739130435 0.01666666666666667 0  1.164782608695652 0.01666666666666667 0  1.17304347826087 0.01666666666666667 0  1.181304347826087 0.01666666666666667 0  1.189565217391304 0.01666666666666667 0  1.197826086956522 0.01666666666666667 0  1.206086956521739 0.01666666666666667 0  1.214347826086956 0.01666666666666667 0  1.222608695652174 0.01666666666666667 0  1.230869565217391 0.01666666666666667 0  1.239130434782609 0.01666666666666667 0  1.247391304347826 0.01666666666666667 0  1.255652173913044 0.01666666666666667 0  1.263913043478261 0.01666666666666667 0  1.272173913043478 0.01666666666666667 0  1.280434782608696 0.01666666666666667 0  1.288695652173913 0.01666666666666667 0  1.296956521739131 0.01666666666666667 0  1.305217391304348 0.01666666666666667 0  1.313478260869565 0.01666666666666667 0  1.321739130434783 0.01666666666666667 0  1.33 0.01666666666666667 0  1.338260869565217 0.01666666666666667 0  1.346521739130435 0.01666666666666667 0  1.354782608695652 0.01666666666666667 0  1.36304347826087 0.01666666666666667 0  1.371304347826087 0.01666666666666667 0  1.379565217391304 0.01666666666666667 0  1.387826086956522 0.01666666666666667 0  1.396086956521739 0.01666666666666667 0  1.404347826086957 0.01666666666666667 0  1.412608695652174 0.01666666666666667 0  1.420869565217391 0.01666666666666667 0  1.429130434782609 0.01666666666666667 0  1.437391304347826 0.01666666666666667 0  1.445652173913043 0.01666666666666667 0  1.453913043478261 0.01666666666666667 0  1.462173913043478 0.01666666666666667 0  1.470434782608696 0.01666666666666667 0  1.478695652173913 0.01666666666666667 0  1.486956521739131 0.01666666666666667 0  1.495217391304348 0.01666666666666667 0  1.503478260869565 0.01666666666666667 0  1.511739130434782 0.01666666666666667 0  1.52 0.01666666666666667 0  1.528260869565217 0.01666666666666667 0  1.536521739130435 0.01666666666666667 0  1.544782608695652 0.0166666
[...]
<PointData  Vectors="Displacement"> 
<DataArray  type="Float64"  Name="Displacement"  NumberOfComponents="3" format="ascii">1.3479236994365740e+00 2.3795503646371974e+00 0.0000000000000000e+00  1.3479301613800068e+00 2.4204969323630565e+00 0.0000000000000000e+00  1.3066156170232985e+00 2.4205003732592787e+00 0.0000000000000000e+00  1.3479300049186420e+00 2.4614506913467524e+00 0.0000000000000000e+00  1.3066170023841717e+00 2.4614510118208250e+00 0.0000000000000000e+00  1.3479300584309883e+00 2.5024022011487541e+00 0.0000000000000000e+00  1.3066183764611989e+00 2.5024020916003842e+00 0.0000000000000000e+00  1.3479304219863606e+00 2.5433533213543380e+00 0.0000000000000000e+00  1.3066194571470420e+00 2.5433530611237063e+00 0.0000000000000000e+00  1.3479309821603349e+00 2.5843043749387027e+00 0.0000000000000000e+00  1.3066203954971438e+00 2.5843040308142249e+00 0.0000000000000000e+00  1.3479316639248335e+00 2.6252554851710292e+00 0.0000000000000000e+00  1.3066212771816321e+00 2.6252550520145306e+00 0.0000000000000000e+00  1.3479323608610323e+00 2.6662066868478824e+00 0.0000000000000000e+00  1.3066222507472061e+00 2.6662062513411073e+00 0.0000000000000000e+00  1.3479329480504867e+00 2.7071577826016040e+00 0.0000000000000000e+00  1.3066232933962367e+00 2.7071574122168371e+00 0.0000000000000000e+00  1.3479331070750757e+00 2.7481082465879290e+00 0.0000000000000000e+00  1.3066243969492268e+00 2.7481084154572568e+00 0.0000000000000000e+00  1.3479357894777964e+00 2.7890609987134365e+00 0.0000000000000000e+00  1.3066258662265937e+00 2.7890602037437904e+00 0.0000000000000000e+00  1.3479376784687562e+00 2.8300126880887255e+00 0.0000000000000000e+00  1.3066272145948072e+00 2.8300119359451874e+00 0.0000000000000000e+00  1.3479392788941897e+00 2.8709644298538475e+00 0.0000000000000000e+00  1.3066284922530962e+00 2.8709637460575750e+00 0.0000000000000000e+00  1.3479407246349446e+00 2.9119162738643047e+00 0.0000000000000000e+00  1.3066297090943955e+00 2.9119156424384411e+00 0.0000000000000000e+00  1.3479420930161501e+00 2.9528682030231121e+00 0.0000000000000000e+00  1.3066308684570658e+00 2.9528676100273561e+00 0.0000000000000000e+00  1.3479434604882903e+00 2.9938202019881799e+00 0.0000000000000000e+00  1.3066319817329228e+00 2.9938196322923600e+00 0.0000000000000000e+00  1.3479449312089271e+00 3.0347722934201120e+00 0.0000000000000000e+00  1.3066330610402201e+00 3.0347717224063246e+00 0.0000000000000000e+00  1.3479449312114018e+00 3.0757238861423910e+00 0.0000000000000000e+00  1.3066341139905728e+00 3.0757238861402874e+00 0.0000000000000000e+00  1.3479467378939252e+00 3.1166766507395884e+00 0.0000000000000000e+00  1.3066351535980953e+00 3.1166760990268996e+00 0.0000000000000000e+00  1.3479484548537648e+00 3.1576288536930184e+00 0.0000000000000000e+00  1.3066362033206367e+00 3.1576283344232148e+00 0.0000000000000000e+00  1.3479501897446313e+00 3.1985803051770629e+00 0.0000000000000000e+00  1.3066372972727602e+00 3.1985805690632034e+00 0.0000000000000000e+00  1.3479501897497232e+00 3.2395327820334279e+00 0.0000000000000000e+00  1.3066384806302886e+00 3.2395327820286881e+00 0.0000000000000000e+00  1.3479559267383938e+00 3.2804857725088250e+00 0.0000000000000000e+00  1.3066398109230652e+00 3.2804849491286574e+00 0.0000000000000000e+00  1.3479634269320433e+00 3.3214370214921685e+00 0.0000000000000000e+00  1.3066413593481188e+00 3.3214370280412195e+00 0.0000000000000000e+00  1.3479694715149744e+00 3.3623744033963447e+00 0.0000000000000000e+00  1.3066432031445450e+00 3.3623889098466413e+00 0.0000000000000000e+00  1.3479686609721695e+00 3.4033384507972855e+00 0.0000000000000000e+00  1.3066452796631947e+00 3.4033401109304942e+00 0.0000000000000000e+00  1.3479686136576345e+00 3.4442940888628217e+00 0.0000000000000000e+00  1.3066488028601142e+00 3.4442941859047971e+00 0.0000000000000000e+00  1.3479701695748183e+00 3.4852480501579044e+00 0.0000000000000000e+00  1.3066517629621885e+00 3.4852473724074211e+00 0.0000000000000000e+00  1.3479733416577007e+00 3.5262019017741810e+00 0.0000000000000000e+00  1.3066546732801447e+00 3.5262005694532910e+00 0.0000000000000000e+00  1.3479779701364210e+00 3.5671561009026651e+00 0.0000000000000000e+00  1.3066579988760394e+00 3.5671546314149420e+00 0.0000000000000000e+00  1.3479854847855706e+00 3.6081140937554927e+00 0.0000000000000000e+00  1.3066601018615494e+00 3.6081118312710658e+00 0.0000000000000000e+00  1.3479993983669678e+00 3.6490825004659291e+00 0.0000000000000000e+00  1.3066623117728629e+00 3.6490735139476094e+00 0.0000000000000000e+00  1.3480156286081828e+00 3.6900479501038976e+00 0.0000000000000000e+00  1.3066896257677139e+00 3.6900389720922013e+00 0.0000000000000000e+00  1.3480315025336762e+00 3.7310344920883911e+00 0.0000000000000000e+00  1.3066877928444889e+00 3.7310268602996897e+00 0.0000000000000000e+00  1.3480468157386145e+00 3.7720258777463380e+00 0.0000000000000000e+00  1.3066972224847233e+00 3.7720181874685004e+00 0.0000000000000000e+00  1.3480616565908448e+00 3.8130255568941451e+00 0.0000000000000000e+00  1.3067040166687174e+00 3.8130181364840894e+00 0.0000000000000000e+00  1.3480759723413436e+00 3.8540333915661220e+00 0.0000000000000000e+00  1.3067102874989318e+00 3.8540261858635123e+00 0.0000000000000000e+00  1.3480898792464466e+00 3.8950496896510995e+00 0.0000000000000000e+00  1.3067160193677934e+00 3.8950423675341672e+00 0.0000000000000000e+00  1.3481029231977761e+00 3.9360710254341562e+00 0.0000000000000000e+00  1.3067255925017425e+00 3.9360643317907931e+00 0.0000000000000000e+00  1.3481144328916648e+00 3.9771029303533720e+00 0.0000000000000000e+00  1.3067272711904427e+00 3.9770974173564286e+00 0.0000000000000000e+00  1.3481245286938324e+00 4.0181387604379335e+00 0.0000000000000000e+00  1.3067326038175786e+00 4.0181337572801477e+00 0.0000000000000000e+00  1.3481335360648237e+00 4.0591788596621292e+00 0.0000000000000000e+00  1.3067372537412676e+00 4.0591741101289323e+00 0.0000000000000000e+00  1.3481413649532306e+00 4.1002215757701359e+00 0.0000000000000000e+00  1.3067435138772829e+00 4.1002172902700291e+00 0.0000000000000000e+00  1.3481481947800467e+00 4.1412709521518538e+00 0.0000000000000000e+00  1.3067451708098932e+00 4.1412662162344231e+00 0.0000000000000000e+00  1.3481501137220855e+00 4.1823032689485373e+00 0.0000000000000000e+00  1.3067695438357685e+00 4.1823053050780752e+00 0.0000000000000000e+00  1.3493404747460072e+00 4.2238895900960731e+00 0.0000000000000000e+00  1.3068222933565155e+00 4.2233687506212751e+00 0.0000000000000000e+00  1.3509324199712154e+00 4.2646594624653336e+00 0.0000000000000000e+00  1.3082416560327670e+00 4.2642556254790831e+00 0.0000000000000000e+00  1.3529646424196178e+00 4.3041350679818162e+00 0.0000000000000000e+00  1.3093987106062170e+00 4.3046299089817781e+00 0.0000000000000000e+00  1.3529646445836514e+00 4.3462318791587782e+00 0.0000000000000000e+00  1.3104985494426786e+00 4.3462318821122148e+00 0.0000000000000000e+00  1.3529646570706577e+00 4.3879566198019413e+00 0.0000000000000000e+00  1.3108738797719339e+00 4.3879566087958191e+00 0.0000000000000000e+00  1.3529646765751673e+00 4.4296007572496112e+00 0.0000000000000000e+00  1.3109552281200358e+00 4.4296007473135859e+00 0.0000000000000000e+00  1.3529646989410555e+00 4.4704444842695192e+00 0.0000000000000000e+00  1.3117626814478363e+00 4.4704444747868157e+00 0.0000000000000000e+00  1.3529647577913866e+00 4.5112490084960664e+00 0.0000000000000000e+00  1.3118022805307372e+00 4.5112489305222434e+00 0.0000000000000000e+00  1.3529647399485576e+00 4.5547217180639068e+00 0.0000000000000000e+00  1.3091108678343264e+00 4.5547218052958689e+00 0.0000000000000000e+00  1.3529647441342070e+00 4.5955270211940409e+00 0.0000000000000000e+00  1.3118013653657401e+00 4.5955269742886342e+00 0.0000000000000000e+00  1.3529647560547233e+00 4.6389986707855941e+00 0.0000000000000000e+00  1.3091118221717506e+00 4.6389986752903072e+00 0.0000000000000000e+00  1.3573570062303073e+00 4.6819820318001639e+00 0.0000000000000000e+00  1.3125504460902788e+00 4.6798042443302430e+00 0.0000000000000000e+00  1.3625450236501881e+00 4.7269830209801835e+00 0.0000000000000000e+00  1.3165091943360969e+00 4.7240183903384114e+00 0.0000000000000000e+00  1.3664778826205426e+00 4.7740528101244211e+00 0.0000000000000000e+00  1.3215888341321971e+00 4.7725129328649212e+00 0.0000000000000000e+00  1.3751075486485922e+00 4.8075576321275415e+00 0.0000000000000000e+00  1.3306707646290763e+00 4.8025325796143221e+00 0.0000000000000000e+00  1.3884375562230993e+00 4.8480039851300241e+00 0.0000000000000000e+00  1.3404765994381729e+00 4.8414360823112705e+00 0.0000000000000000e+00  1.4034323744037014e+00 4.8979903430497469e+00 0.0000000000000000e+00  1.3509538971647816e+00 4.8907547588698783e+00 0.0000000000000000e+00  1.4184896029920162e+00 4.9521387475443186e+00 0.0000000000000000e+00  1.3639720109603932e+00 4.9447880376061102e+00 0.0000000000000000e+00  1.4308211936766084e+00 5.0110203388636805e+00 0.0000000000000000e+00  1.3761321800155570e+00 5.0056734210291456e+00 0.0000000000000000e+00  1.4428644174345049e+00 5.0633424080542664e+00 0.0000000000000000e+00  1.3885429606157886e+00 5.0574411976782319e+00 0.0000000000000000e+00  1.4591945584071624e+00 5.1098929702339806e+00 0.0000000000000000e+00  1.4038039264650779e+00 5.1011975915454721e+00 0.0000000000000000e+00  1.4808455066306814e+00 5.1599954874156602e+00 0.0000000000000000e+00  1.4222700723242099e+00 5.1485837397117109e+00 0.0000000000000000e+00  1.5059627051776234e+00 5.2170519709663834e+00 0.0000000000000000e+00  1.4444527460462622e+00 5.2040055801744671e+00 0.0000000000000000e+00  1.5310752491443740e+00 5.2805304820762107e+00 0.0000000000000000e+00  1.4688713068617996e+00 5.2679715460955308e+00 0.0000000000000000e+00  1.5534216297199066e+00 5.3457571181683647e+00 0.0000000000000000e+00  1.4926604916551507e+00 5.3351084717723047e+00 0.0000000000000000e+00  1.5764798537912454e+00 5.4006884339069634e+00 0.0000000000000000e+00  1.5175730035031210e+00 5.3891821369537407e+00 0.0000000000000000e+00  1.6062931678702133e+00 5.4461189716953715e+00 0.0000000000000000e+00  1.5463184316477427e+00 5.4310667614265693e+00 0.0000000000000000e+00  1.6465246804119120e+00 5.4922257522643916e+00 0.0000000000000000e+00  1.5800775607866908e+00 5.4723961956966116e+00 0.0000000000000000e+00  1.6977418961799782e+00 5.5550314418306499e+00 0.0000000000000000e+00  1.6178922797657356e+00 5.5281128095355250e+00 0.0000000000000000e+00  1.6977419652162107e+00 5.5962863737275423e+00 0.0000000000000000e+00  1.6561251681574638e+00 5.5962863243933354e+00 0.0000000000000000e+00  1.7393195595450293e+00 5.6741612578983132e+00 0.0000000000000000e+00  1.6845406002714642e+00 5.6594570130866204e+00 0.0000000000000000e+00  1.7693740462367664e+00 5.7473326795655586e+00 0.0000000000000000e+00  1.7079958218711719e+00 5.7337748839954701e+00 0.0000000000000000e+00  1.7928816942684216e+00 5.8147675873877809e+00 0.0000000000000000e+00  1.7341389211377571e+00 5.8036276181235520e+00 0.0000000000000000e+00  1.8134700860413604e+00 5.8733280760654711e+00 0.0000000000000000e+00  1.7582632046243030e+00 5.8628935266000299e+00 0.0000000000000000e+00  1.8324875207928815e+00 5.9279475391859062e+00 0.0000000000000000e+00  1.7802139186922497e+00 5.9183695928264513e+00 0.0000000000000000e+00  1.8496323935517922e+00 5.9817907799338395e+00 0.0000000000000000e+00  1.7992035876000281e+00 5.9731037114920831e+00 0.0000000000000000e+00  1.8671201118792695e+00 6.0297332425176551e+00 0.0000000000000000e+00  1.8189365561577089e+00 6.0199689922671347e+00 0.0000000000000000e+00  1.8879955758576761e+00 6.0706775046219672e+00 0.0000000000000000e+00  1.8428332209905482e+00 6.0585922743660507e+00 0.0000000000000000e+00  1.9128108501192482e+00 6.1087438512571781e+00 0.0000000000000000e+00  1.8705864612063008e+00 6.0949127125414178e+00 0.0000000000000000e+00  1.9386167268546475e+00 6.1493644256964313e+00 0.0000000000000000e+00  1.8988514490487125e+00 6.1359035923899290e+00 0.0000000000000000e+00  1.9633320422060043e+00 6.1894289960145867e+00 0.0000000000000000e+00  1.9261748146019093e+00 6.1768146397160546e+00 0.0000000000000000e+00  1.9872926380360278e+00 6.2252077666602164e+00 0.0000000000000000e+00  1.9529917686837026e+00 6.2128740723248805e+00 0.0000000000000000e+00  2.0126828075078174e+00 6.2544122708524066e+00 0.0000000000000000e+00  1.9808321632277439e+00 6.2411735992596569e+00 0.0000000000000000e+00  2.0429920982043459e+00 6.2762880807108896e+00 0.0000000000000000e+00  2.0120645450570733e+00 6.2605027625162863e+00 0.0000000000000000e+00  2.0810511385250776e+00 6.2946982982210749e+00 0.0000000000000000e+00  2.0481259104977956e+00 6.2755878328501868e+00 0.0000000000000000e+00  2.1271257538021517e+00 6.3169454277341863e+00 0.0000000000000000e+00  2.0881270098394227e+00 6.2953708425258039e+00 0.0000000000000000e+00  2.1805266747248604e+00 6.3469923247056492e+00 0.0000000000000000e+00  2.1305160001906454e+00 6.3240229493291187e+00 0.0000000000000000e+00  2.2413176926913065e+00 6.3875295863875801e+00 0.0000000000000000e+00  2.1733649671320254e+00 6.3642835443676846e+00 0.0000000000000000e+00  2.3112929672705249e+00 6.4422278107933781e+00 0.0000000000000000e+00  2.2139351856192713e+00 6.4199928903051289e+00 0.0000000000000000e+00  2.3112930771025852e+00 6.5037115571320214e+00 0.0000000000000000e+00  2.2492699267900989e+00 6.5037114813960528e+00 0.0000000000000000e+00  2.3112932309251981e+00 6.5552176119235890e+00 0.0000000000000000e+00  2.2593353589212151e+00 6.5552174884405172e+00 0.0000000000000000e+00  2.3112933473612407e+00 6.5962207395877011e+00 0.0000000000000000e+00  2.2699306966973309e+00 6.5962207030478881e+00 0.0000000000000000e+00  2.3775972849867797e+00 6.6851000777566290e+00 0.0000000000000000e+00  2.2999530641909121e+00 6.6607161724588382e+00 0.0000000000000000e+00  2.4420506352494211e+00 6.7797180360039873e+00 0.0000000000000000e+00  2.3409189736256564e+00 6.7477855459968534e+00 0.0000000000000000e+00  2.4420507112045824e+00 6.8355584288933180e+00 0.0000000000000000e+00  2.3857205220551245e+00 6.8355583827351305e+00 0.0000000000000000e+00  2.4591582557386364e+00 6.8913989617324143e+00 0.0000000000000000e+00  2.3857206570680285e+00 6.8913988570435754e+00 0.0000000000000000e+00  2.4653241333471740e+00 6.9641980366574865e+00 0.0000000000000000e+00  2.3857208450259120e+00 6.9641979283594564e+00 0.0000000000000000e+00  2.4648133488314494e+00 7.0431090855714906e+00 0.0000000000000000e+00  2.3857210533866406e+00 7.0431090468301827e+00 0.0000000000000000e+00  2.4648133767550235e+00 7.1215135424097138e+00 0.0000000000000000e+00  2.3857211421259912e+00 7.1215135176645186e+00 0.0000000000000000e+00  2.4648134181185677e+00 7.1999179906654636e+00 0.0000000000000000e+00  2.3857212064441331e+00 7.1999179637463664e+00 0.0000000000000000e+00  2.4648134553075116e+00 7.2783224518809631e+00 0.0000000000000000e+00  2.3857212588593133e+00 7.2783224296368720e+00 0.0000000000000000e+00  1.2653071514300334e+00 2.4614505354478808e+00 0.0000000000000000e+00  1.2653062916736737e+00 2.4205000600882167e+00 0.0000000000000000e+00  1.2653081409631273e+00 2.5024014779324961e+00 0.0000000000000000e+00  1.2653091594502042e+00 2.5433525185547028e+00 0.0000000000000000e+00  1.2653101008897327e+00 2.5843035437531183e+00 0.0000000000000000e+00  1.2653109702553618e+00 2.6252545898142019e+00 0.0000000000000000e+00  1.2653117607693238e+00 2.6662056300725938e+00 0.0000000000000000e+00  1.2653130309736260e+00 2.7071568446543046e+00 0.0000000000000000e+00  1.2653141797725334e+00 2.7481079999791413e+00 0.0000000000000000e+00  1.2653153066124811e+00 2.7890595310315573e+00 0.0000000000000000e+00  1.2653164876574090e+00 2.8300112785738687e+00 0.0000000000000000e+00  1.2653176375892312e+00 2.8709631155510120e+00 0.0000000000000000e+00  1.2653187505752441e+00 2.9119150436248642e+00 0.0000000000000000e+00  1.2653198155100593e+00 2.9528670446639467e+00 0.0000000000000000e+00  1.2653208319245912e+00 2.9938190885859930e+00 0.0000000000000000e+00  1.2653218059329059e+00 3.0347711968351527e+00 0.0000000000000000e+00  1.2653227428493605e+00 3.0757233819353202e+00 0.0000000000000000e+00  1.2653236587894052e+00 3.1166756108633460e+00 0.0000000000000000e+00  1.2653245749540418e+00 3.1576278520906693e+00 0.0000000000000000e+00  1.2653255164021606e+00 3.1985800792980101e+00 0.0000000000000000e+00  1.2653265115448324e+00 3.2395322705730116e+00 0.0000000000000000e+00  1.2653275892013083e+00 3.2804844054342817e+00 0.0000000000000000e+00  1.2653287684288228e+00 3.3214364589319443e+00 0.0000000000000000e+00  1.2653300287753093e+00 3.3623883910881549e+00 0.0000000000000000e+00  1.2653312397265115e+00 3.4033401703019188e+00 0.0000000000000000e+00  1.2653325135572919e+00 3.4442931297447954e+00 0.0000000000000000e+00  1.2653339443876226e+00 3.4852464764302598e+00 0.0000000000000000e+00  1.2653349708932502e+00 3.5261998742810627e+00 0.0000000000000000e+00  1.2653354428412082e+00 3.5671539509495025e+00 0.0000000000000000e+00  1.2653356657316253e+00 3.6081104216401907e+00 0.0000000000000000e+00  1.2653368665142706e+00 3.6490701438951669e+00 0.0000000000000000e+00  1.2653394966729439e+00 3.6900380595268758e+00 0.0000000000000000e+00  1.2653394939325218e+00 3.7310274259008516e+00 0.0000000000000000e+00  1.2653388694013790e+00 3.7720185171181204e+00 0.0000000000000000e+00  1.2653380412928086e+00 3.8130185864712338e+00 0.0000000000000000e+00  1.2653370417872223e+00 3.8540265286108237e+00 0.0000000000000000e+00  1.2653361651467807e+00 3.8950418584265600e+00 0.0000000000000000e+00  1.2653363598539431e+00 3.9360640987100508e+00 0.0000000000000000e+00  1.2653364009355779e+00 3.9770972330340202e+00 0.0000000000000000e+00  1.2653371858791007e+00 4.0181328142356429e+00 0.0000000000000000e+00  1.2653391100923250e+00 4.0591721070219489e+00 0.0000000000000000e+00  1.2653425898702990e+00 4.1002140513798659e+00 0.0000000000000000e+00  1.2653483122870974e+00 4.1412598137483974e+00 0.0000000000000000e+00  1.2653584963765014e+00 4.1823030780915378e+00 0.0000000000000000e+00  1.2653689954933651e+00 4.2233656072563646e+00 0.0000000000000000e+00  1.2653753239454142e+00 4.2644584296140993e+00 0.0000000000000000e+00  1.2654449199224511e+00 4.3055432110842773e+00 0.0000000000000000e+00  1.2654660508343483e+00 4.3466626400808250e+00 0.0000000000000000e+00  1.2688644041470565e+00 4.3879566009340945e+00 0.0000000000000000e+00  1.2688644099438331e+00 4.4296007490509073e+00 0.0000000000000000e+00  1.2688644078860500e+00 4.4713255404531873e+00 0.0000000000000000e+00  1.2679479239777383e+00 4.5112488137899529e+00 0.0000000000000000e+00  1.2679480539239765e+00 4.5547218367151965e+00 0.0000000000000000e+00  1.2679481593394626e+00 4.5955268404556744e+00 0.0000000000000000e+00  1.2679483275567742e+00 4.6389986291538046e+00 0.0000000000000000e+00  1.2679484534564069e+00 4.6798041718454488e+00 0.0000000000000000e+00  1.2679485944769493e+00 4.7240183229290276e+00 0.0000000000000000e+00  1.2679487233250393e+00 4.7721566561572288e+00 0.0000000000000000e+00  1.2854125368173961e+00 4.7958302984718095e+00 0.0000000000000000e+00  1.2931279796990867e+00 4.8368156193099692e+00 0.0000000000000000e+00  1.2948112514708201e+00 4.8854490718709940e+00 0.0000000000000000e+00  1.3039856846013582e+00 4.9357508815999767e+00 0.0000000000000000e+00  1.3179650389950872e+00 5.0027572543917769e+00 0.0000000000000000e+00  1.3303438334186313e+00 5.0541882687128599e+00 0.0000000000000000e+00  1.3436970922033431e+00 5.0934073413229459e+00 0.0000000000000000e+00  1.3583378782363116e+00 5.1381015559974310e+00 0.0000000000000000e+00  1.3757235827516827e+00 5.1898030216949813e+00 0.0000000000000000e+00  1.4002872837903326e+00 5.2542252616966234e+00 0.0000000000000000e+00  1.4257497079845429e+00 5.3268769854003297e+00 0.0000000000000000e+00  1.4517586954278874e+00 5.3801488323413755e+00 0.0000000000000000e+00  1.4804411020365327e+00 5.4171850117383133e+00 0.0000000000000000e+00  1.5125394005731974e+00 5.4524846359189354e+00 0.0000000000000000e+00  1.5471752601552700e+00 5.5027497295783689e+00 0.0000000000000000e+