<?xml version="1.0"?>
<VTKFile type="UnstructuredGrid"  version="0.1"  >
<UnstructuredGrid>
<Piece  NumberOfPoints="640" NumberOfCells="1181">
<Points>
<DataArray  type="Float64"  NumberOfComponents="3"  format="ascii">2.973913043478261 0 0  2.990434782608696 0 0  2.990434782608696 0.01666666666666667 0  2.973913043478261 0.01666666666666667 0  3.006956521739131 0 0  3.006956521739131 0.01666666666666667 0  3.023478260869565 0 0  3.023478260869565 0.01666666666666667 0  3.04 0 0  3.04 0.01666666666666667 0  3.056521739130435 0 0  3.056521739130435 0.01666666666666667 0  3.073043478260869 0 0  3.073043478260869 0.01666666666666667 0  3.089565217391304 0 0  3.089565217391304 0.01666666666666667 0  3.106086956521739 0 0  3.106086956521739 0.01666666666666667 0  3.122608695652174 0 0  3.122608695652174 0.01666666666666667 0  3.139130434782609 0 0  3.139130434782609 0.01666666666666667 0  3.155652173913043 0 0  3.155652173913043 0.01666666666666667 0  3.172173913043478 0 0  3.172173913043478 0.01666666666666667 0  3.188695652173913 0 0  3.188695652173913 0.01666666666666667 0  3.205217391304347 0 0  3.205217391304347 0.01666666666666667 0  3.221739130434782 0 0  3.221739130434782 0.01666666666666667 0  3.238260869565217 0 0  3.238260869565217 0.01666666666666667 0  2.990434782608696 0.03333333333333333 0  2.973913043478261 0.03333333333333333 0  3.006956521739131 0.03333333333333333 0  3.023478260869565 0.03333333333333333 0  3.04 0.03333333333333333 0  3.056521739130435 0.03333333333333333 0  3.073043478260869 0.03333333333333333 0  3.089565217391304 0.03333333333333333 0  3.106086956521739 0.03333333333333333 0  3.122608695652174 0.03333333333333333 0  3.139130434782609 0.03333333333333333 0  3.155652173913043 0.03333333333333333 0  3.172173913043478 0.03333333333333333 0  3.188695652173913 0.03333333333333333 0  3.205217391304347 0.03333333333333333 0  3.221739130434782 0.03333333333333333 0  3.238260869565217 0.03333333333333333 0  3.254782608695652 0.03333333333333333 0  2.990434782608696 0.05 0  3.006956521739131 0.05 0  3.023478260869565 0.05 0  3.04 0.05 0  3.056521739130435 0.05 0  3.073043478260869 0.05 0  3.089565217391304 0.05 0  3.106086956521739 0.05 0  3.122608695652174 0.05 0  3.139130434782609 0.05 0  3.155652173913043 0.05 0  3.172173913043478 0.05 0  3.188695652173913 0.05 0  3.205217391304347 0.05 0  3.221739130434782 0.05 0  3.238260869565217 0.05 0  3.254782608695652 0.05 0  3.271304347826087 0.05 0  3.006956521739131 0.06666666666666667 0  2.990434782608696 0.06666666666666667 0  3.023478260869565 0.06666666666666667 0  3.04 0.06666666666666667 0  3.056521739130435 0.06666666666666667 0  3.073043478260869 0.06666666666666667 0  3.089565217391304 0.06666666666666667 0  3.106086956521739 0.06666666666666667 0  3.122608695652174 0.06666666666666667 0  3.139130434782609 0.06666666666666667 0  3.155652173913043 0.06666666666666667 0  3.172173913043478 0.06666666666666667 0  3.188695652173913 0.06666666666666667 0  3.205217391304347 0.06666666666666667 0  3.221739130434782 0.06666666666666667 0  3.238260869565217 0.06666666666666667 0  3.254782608695652 0.06666666666666667 0  3.271304347826087 0.06666666666666667 0  3.287826086956521 0.06666666666666667 0  3.006956521739131 0.08333333333333333 0  3.023478260869565 0.08333333333333333 0  3.04 0.08333333333333333 0  3.056521739130435 0.08333333333333333 0  3.073043478260869 0.08333333333333333 0  3.089565217391304 0.08333333333333333 0  3.106086956521739 0.08333333333333333 0  3.122608695652174 0.08333333333333333 0  3.139130434782609 0.08333333333333333 0  3.155652173913043 0.08333333333333333 0  3.172173913043478 0.08333333333333333 0  3.188695652173913 0.08333333333333333 0  3.205217391304347 0.08333333333333333 0  3.221739130434782 0.08333333333333333 0  3.238260869565217 0.08333333333333333 0  3.254782608695652 0.08333333333333333 0  3.271304347826087 0.08333333333333333 0  3.287826086956521 0.08333333333333333 0  3.304347826086957 0.08333333333333333 0  3.023478260869565 0.1 0  3.006956521739131 0.1 0  3.04 0.1 0  3.056521739130435 0.1 0  3.073043478260869 0.1 0  3.089565217391304 0.1 0  3.106086956521739 0.1 0  3.122608695652174 0.1 0  3.139130434782609 0.1 0  3.155652173913043 0.1 0  3.172173913043478 0.1 0  3.188695652173913 0.1 0  3.205217391304347 0.1 0  3.221739130434782 0.1 0  3.238260869565217 0.1 0  3.254782608695652 0.1 0  3.271304347826087 0.1 0  3.287826086956521 0.1 0  3.304347826086957 0.1 0  3.320869565217391 0.1 0  3.023478260869565 0.1166666666666667 0  3.04 0.1166666666666667 0  3.056521739130435 0.1166666666666667 0  3.073043478260869 0.1166666666666667 0  3.089565217391304 0.1166666666666667 0  3.106086956521739 0.1166666666666667 0  3.122608695652174 0.1166666666666667 0  3.139130434782609 0.1166666666666667 0  3.155652173913043 0.1166666666666667 0  3.172173913043478 0.1166666666666667 0  3.188695652173913 0.1166666666666667 0  3.205217391304347 0.1166666666666667 0  3.221739130434782 0.1166666666666667 0  3.238260869565217 0.1166666666666667 0  3.254782608695652 0.1166666666666667 0  3.271304347826087 0.1166666666666667 0  3.287826086956521 0.1166666666666667 0  3.304347826086957 0.1166666666666667 0  3.320869565217391 0.1166666666666667 0  3.337391304347826 0.1166666666666667 0  3.04 0.1333333333333333 0  3.023478260869565 0.1333333333333333 0  3.056521739130435 0.1333333333333333 0  3.073043478260869 0.1333333333333333 0  3.089565217391304 0.1333333333333333 0  3.106086956521739 0.1333333333333333 0  3.122608695652174 0.1333333333333333 0  3.139130434782609 0.1333333333333333 0  3.155652173913043 0.1333333333333333 0  3.172173913043478 0.1333333333333333 0  3.188695652173913 0.1333333333333333 0  3.205217391304347 0.1333333333333333 0  3.221739130434782 0.1333333333333333 0  3.238260869565217 0.1333333333333333 0  3.254782608695652 0.1333333333333333 0  3.271304347826087 0.1333333333333333 0  3.287826086956521 0.1333333333333333 0  3.304347826086957 0.1333333333333333 0  3.320869565217391 0.1333333333333333 0  3.337391304347826 0.1333333333333333 0  3.353913043478261 0.1333333333333333 0  3.04 0.15 0  3.056521739130435 0.15 0  3.073043478260869 0.15 0  3.089565217391304 0.15 0  3.106086956521739 0.15 0  3.122608695652174 0.15 0  3.139130434782609 0.15 0  3.155652173913043 0.15 0  3.172173913043478 0.15 0  3.188695652173913 0.15 0  3.205217391304347 0.15 0  3.221739130434782 0.15 0  3.238260869565217 0.15 0  3.254782608695652 0.15 0  3.271304347826087 0.15 0  3.287826086956521 0.15 0  3.304347826086957 0.15 0  3.320869565217391 0.15 0  3.337391304347826 0.15 0  3.353913043478261 0.15 0  3.370434782608696 0.15 0  3.056521739130435 0.1666666666666667 0  3.073043478260869 0.1666666666666667 0  3.089565217391304 0.1666666666666667 0  3.106086956521739 0.1666666666666667 0  3.122608695652174 0.1666666666666667 0  3.139130434782609 0.1666666666666667 0  3.155652173913043 0.1666666666666667 0  3.172173913043478 0.1666666666666667 0  3.188695652173913 0.1666666666666667 0  3.205217391304347 0.1666666666666667 0  3.221739130434782 0.1666666666666667 0  3.238260869565217 0.1666666666666667 0  3.254782608695652 0.1666666666666667 0  3.271304347826087 0.1666666666666667 0  3.287826086956521 0.1666666666666667 0  3.304347826086957 0.1666666666666667 0  3.320869565217391 0.1666666666666667 0  3.337391304347826 0.1666666666666667 0  3.353913043478261 0.1666666666666667 0  3.370434782608696 0.1666666666666667 0  3.386956521739131 0.1666666666666667 0  3.073043478260869 0.1833333333333333 0  3.089565217391304 0.1833333333333333 0  3.106086956521739 0.1833333333333333 0  3.122608695652174 0.1833333333333333 0  3.139130434782609 0.1833333333333333 0  3.155652173913043 0.1833333333333333 0  3.172173913043478 0.1833333333333333 0  3.188695652173913 0.1833333333333333 0  3.205217391304347 0.1833333333333333 0  3.221739130434782 0.1833333333333333 0  3.238260869565217 0.1833333333333333 0  3.254782608695652 0.1833333333333333 0  3.271304347826087 0.1833333333333333 0  3.287826086956521 0.1833333333333333 0  3.304347826086957 0.1833333333333333 0  3.320869565217391 0.1833333333333333 0  3.337391304347826 0.1833333333333333 0  3.353913043478261 0.1833333333333333 0  3.370434782608696 0.1833333333333333 0  3.386956521739131 0.1833333333333333 0  3.403478260869565 0.1833333333333333 0  3.089565217391304 0.2 0  3.106086956521739 0.2 0  3.122608695652174 0.2 0  3.139130434782609 0.2 0  3.155652173913043 0.2 0  3.172173913043478 0.2 0  3.188695652173913 0.2 0  3.205217391304347 0.2 0  3.221739130434782 0.2 0  3.238260869565217 0.2 0  3.254782608695652 0.2 0  3.271304347826087 0.2 0  3.287826086956521 0.2 0  3.304347826086957 0.2 0  3.320869565217391 0.2 0  3.337391304347826 0.2 0  3.353913043478261 0.2 0  3.370434782608696 0.2 0  3.386956521739131 0.2 0  3.403478260869565 0.2 0  3.419999999999999 0.2 0  3.106086956521739 0.2166666666666667 0  3.122608695652174 0.2166666666666667 0  3.139130434782609 0.2166666666666667 0  3.155652173913043 0.2166666666666667 0  3.172173913043478 0.2166666666666667 0  3.188695652173913 0.2166666666666667 0  3.205217391304347 0.2166666666666667 0  3.221739130434782 0.2166666666666667 0  3.238260869565217 0.2166666666666667 0  3.254782608695652 0.2166666666666667 0  3.271304347826087 0.2166666666666667 0  3.287826086956521 0.2166666666666667 0  3.304347826086957 0.2166666666666667 0  3.320869565217391 0.2166666666666667 0  3.337391304347826 0.2166666666666667 0  3.353913043478261 0.2166666666666667 0  3.370434782608696 0.2166666666666667 0  3.386956521739131 0.2166666666666667 0  3.403478260869565 0.2166666666666667 0  3.419999999999999 0.2166666666666667 0  3.436521739130435 0.2166666666666667 0  3.122608695652174 0.2333333333333333 0  3.139130434782609 0.2333333333333333 0  3.155652173913043 0.2333333333333333 0  3.172173913043478 0.2333333333333333 0  3.188695652173913 0.2333333333333333 0  3.205217391304347 0.2333333333333333 0  3.221739130434782 0.2333333333333333 0  3.238260869565217 0.2333333333333333 0  3.254782
[...]
<CellData  Scalars="rho_bar"> 
<DataArray  type="Float64"  Name="rho_bar"  format="ascii">9.9999996312565753e-01   9.9999962750432581e-01   9.9999991661447796e-01   9.9999898304270618e-01   9.9999992689961215e-01   9.9999860729751489e-01   9.9999998544140256e-01   9.9999944289076081e-01   9.9999999941743156e-01   9.9999995274125519e-01   9.9999999999009848e-01   9.9999999904727910e-01   9.9999999999943157e-01   9.9999999998524403e-01   9.9999999999599765e-01   9.9999999999502165e-01   9.9999977537494134e-01   9.9999999217733715e-01   3.6389451525882072e-01   9.1280697438634972e-01   1.8997315313444098e-08   3.7248210785711930e-05   9.2518585385429722e-18   1.5367337032519874e-14   0.0000000000000000e+00   0.0000000000000000e+00   0.0000000000000000e+00   0.0000000000000000e+00   0.0000000000000000e+00   0.0000000000000000e+00   0.0000000000000000e+00   0.0000000000000000e+00   6.6441042914993376e-01   2.9399614920591033e-01   6.6125020497768250e-01   2.4045676505791092e-01   6.6153267427336404e-01   2.0763313878849593e-01   6.6607748817652879e-01   2.7005569203884594e-01   7.4825990950073418e-01   3.3044564443710417e-01   9.9949047332140850e-01   5.6582251203429446e-01   9.9999985350214016e-01   9.9775576329752003e-01   9.9999999860450828e-01   9.9999955211917502e-01   9.9999991879661942e-01   9.9999997671260121e-01   8.1851952016957519e-01   9.9992943120911437e-01   3.1984617693316578e-05   2.3946273793327716e-01   9.9457479289336944e-14   3.2773696506671612e-08   0.0000000000000000e+00   2.6645352591003753e-15   0.0000000000000000e+00   0.0000000000000000e+00   0.0000000000000000e+00   0.0000000000000000e+00   0.0000000000000000e+00   0.0000000000000000e+00   0.0000000000000000e+00   1.5349684486428334e-11   9.2362876606226028e-12   3.1178763274889812e-15   1.8398625215946631e-11   5.4771002548174392e-15   3.4326449090589978e-10   5.4771002548174387e-14   1.3622665887003113e-07   7.2657990735081057e-12   1.2852863644121544e-03   2.5400664127595004e-08   5.3143850675740489e-01   2.2674818931785741e-03   9.9997873786536073e-01   7.2156991801779924e-01   9.9999992427119766e-01   9.9999642055418747e-01   9.9996380145986763e-01   9.9999994359422328e-01   6.5460187484870191e-01   9.9991218705721840e-01   1.5741488126973235e-03   5.3882436728538541e-01   4.5837120580631075e-09   1.6369285105902647e-03   2.2556031116967766e-14   1.3609304192844600e-08   0.0000000000000000e+00   9.8486034142789932e-14   0.0000000000000000e+00   0.0000000000000000e+00   0.0000000000000000e+00   0.0000000000000000e+00   0.0000000000000000e+00   0.0000000000000000e+00   0.0000000000000000e+00   0.0000000000000000e+00   0.0000000000000000e+00   0.0000000000000000e+00   0.0000000000000000e+00   0.0000000000000000e+00   0.0000000000000000e+00   3.1193566248551490e-13   2.7755575615628914e-17   5.6115675150976881e-06   1.8633013743052373e-09   6.9390375116792813e-01   2.1812644007405715e-01   9.9999818440034927e-01   9.9994313759185693e-01   9.9999999563561670e-01   9.9999999843877641e-01   9.9999982035245227e-01   9.9999999951071306e-01   9.9918406674593596e-01   9.9999992728044351e-01   5.9053993528996240e-01   9.9975032769208216e-01   2.5027097105798879e-01   7.0170305634954944e-01   7.0153427279876849e-05   4.3184637468841491e-01   3.1461810009088726e-10   8.2840599763267520e-04   8.3266726846886741e-17   1.6863504481712257e-09   0.0000000000000000e+00   1.5728159515523052e-16   0.0000000000000000e+00   0.0000000000000000e+00   0.0000000000000000e+00   0.0000000000000000e+00   0.0000000000000000e+00   0.0000000000000000e+00   0.0000000000000000e+00   0.0000000000000000e+00   3.5157062446463289e-16   1.8503717077085944e-17   4.8019563665217336e-07   1.2042253324147838e-08   6.4835043031530570e-01   3.2273288133703809e-01   9.9999709027237638e-01   9.9997914074932015e-01   9.9999999993389810e-01   9.9999999985252153e-01   9.9999999999502909e-01   9.9999999999625777e-01   9.9999999996835587e-01   9.9999999999517841e-01   9.9999999836607134e-01   9.9999999996770172e-01   9.9999958517934584e-01   9.9999999891973190e-01   9.9917339534530569e-01   9.9999982005804111e-01   5.8808695154418078e-01   9.9972086577593422e-01   4.8690094745601063e-02   6.7494031844383207e-01   1.3659688611703892e-08   7.3186335636692787e-02   7.4014868308343778e-17   1.0959126976276916e-08   3.7007434154171876e-17   0.0000000000000000e+00   0.0000000000000000e+00   0.0000000000000000e+00   0.0000000000000000e+00   0.0000000000000000e+00   0.0000000000000000e+00   4.8090605571834049e-12   7.9991568924242519e-13   6.7541257359092968e-03   1.0742570499117825e-03   7.4746614299064851e-01   6.7962372745204169e-01   9.9999981102619340e-01   9.9999945513567556e-01   9.9999999451402388e-01   9.9999997955288300e-01   9.9999995041505763e-01   9.9999944365085580e-01   9.9999995114975526e-01   9.9999765594225132e-01   9.9999999522558469e-01   9.9999937769066738e-01   9.9999999956397478e-01   9.9999997772661509e-01   9.9999999975062881e-01   9.9999999902265202e-01   9.9999999318014943e-01   9.9999999967321096e-01   9.9999067601304503e-01   9.9999999323062860e-01   7.2333084733828323e-01   9.9998994466026836e-01   2.2662403914902388e-02   7.0237644420678036e-01   2.5487820187741761e-10   8.2536132863667566e-03   4.5040785915754590e-11   0.0000000000000000e+00   0.0000000000000000e+00   0.0000000000000000e+00   8.5894254671832928e-14   5.2273000742767791e-14   1.1699367291185629e-04   7.8135306837895380e-05   5.7479088558502778e-01   5.2371839113057506e-01   9.9988741688140104e-01   9.9984779928554468e-01   9.9998808691913832e-01   9.9998174685573460e-01   8.1271512927273626e-01   7.2597754091388444e-01   6.6176492006317666e-01   3.3054300837144229e-01   6.4082464647631610e-01   1.1233020430068870e-01   6.6365578550774884e-01   1.4565139878053560e-01   8.2461316214044433e-01   3.3206816906448389e-01   9.9993368691030982e-01   6.9026055366114358e-01   9.9999993934307752e-01   9.9977190051623843e-01   9.9999999851335497e-01   9.9999988173654897e-01   9.9999998721944494e-01   9.9999999757618108e-01   9.9994469585472878e-01   9.9999997894499981e-01   6.2350777993999118e-01   9.9988199355721752e-01   3.9324780386947492e-05   4.0834384383832850e-01   3.6602782913971082e-06   1.0512886857346376e-13   1.3030317565683921e-13   2.0472818070454052e-04   2.9702912775567131e-04   5.1987291087375631e-01   5.6685122631145246e-01   9.9963437145423761e-01   9.9973290772460466e-01   9.9999073872629407e-01   9.9999338551867734e-01   6.5813746969937337e-01   6.6521711856739296e-01   2.2512040762285294e-02   8.3589088011890838e-03   1.6989525110829479e-08   5.1743034856777125e-10   4.2892541370539066e-12   1.0075273948473294e-14   1.7474975170609732e-11   8.0491169285323839e-16   6.0931117679130509e-08   1.0198323667035918e-13   3.2813642814690787e-03   1.8235673156693129e-09   5.1805473597612217e-01   3.3855770683360870e-04   9.8376061574877782e-01   3.6030210659258438e-01   9.9999897874756793e-01   9.7294136063944670e-01   9.9999999036447751e-01   9.9999862884991764e-01   9.9999970427550955e-01   9.9999998532121170e-01   9.8442868450910215e-01   9.9999937287548668e-01   9.6912393649460873e-02   9.4705831298843290e-01   1.1768807569353175e-02   2.0150892069630733e-03   5.9557461535633427e-01   6.4914401394457533e-01   9.9995176535451291e-01   9.9996951319559735e-01   9.9999982339660520e-01   9.9999989507557852e-01   7.5085133741434196e-01   8.1072553311215279e-01   1.9900640595052300e-02   5.1954047477565449e-02   7.1160669949203257e-12   6.1544195665656308e-12   0.0000000000000000e+00   0.0000000000000000e+00   0.0000000000000000e+00   0.0000000000000000e+00   0.0000000000000000e+00   0.0000000000000000e+00   0.0000000000000000e+00   0.0000000000000000e+00   0.0000000000000000e+00   0.0000000000000000e+00   6.6135060391066724e-13   0.0000000000000000e+00   3.5770366105340270e-06   1.8218759834098816e-13   2.9141144591636520e-01   2.1842680529293715e-06   9.7722482400942312e-01   3.0180481548855270e-01   9.9999923737849983e-01   9.8226392210811708e-01   9.9999995426825172e-01   9.9999931500390016e-01   9.9993326683023198e-01   9.9999992342320687e-01   6.0168105033216568e-01   9.9976496016455607e-01   3.0756955308165923e-01   9.9999610096285396e-01   9.9999999121902350e-01   9.9999999329879619e-01   9.9555890310311257e-01   9.9761491470582597e-01   2.6966979994252938e-01   3.2080707916604628e-01   2.1151579561914011e-10   8.4759492017620143e-10   0.0000000000000000e+00   0.0000000000000000e+00   0.0000000000000000e+00   0.0000000000000000e+00   0.0000000000000000e+00   0.0000000000000000e+00   0.0000000000000000e+00   0.0000000000000000e+00   0.0000000000000000e+00   0.0000000000000000e+00   0.0000000000000000e+00   0.0000000000000000e+00   0.0000000000000000e+00   0.0000000000000000e+00   0.0000000000000000e+00   0.0000000000000000e+00   3.8367457359337687e-14   0.0000000000000000e+00   4.7774793554833375e-06   7.4792024425581387e-14   3.7927569937341610e-01   1.9721465316498613e-05   9.9975501607904749e-01   5.9012058951822521e-01   9.9999988364575121e-01   9.9988425479254761e-01   9.9999753799260593e-01   9.9999988387620087e-01   7.6358182027693067e-01   9.9999327210833189e-01   5.4598441262932251e-01   9.9935291342621257e-01   3.9193856826259416e-01   4.3725289021747471e-01   8.8117596488042820e-08   2.3493795925366712e-07   0.0000000000000000e+00   0.0000000000000000e+00   0.0000000000000000e+00   0.0000000000000000e+00   0.0000000000000000e+00   0.0000000000000000e+00   0.0000000000000000e+00   0.0000000000000000e+00   0.0000000000000000e+00   0.0000000000000000e+00   0.0000000000000000e+00   0.0000000000000000e+00   0.0000000000000000e+00   0.0000000000000000e+00   0.0000000000000000e+00   0.0000000000000000e+00   0.0000000000000000e+00   0.0000000000000000e+00   0.0000000000000000e+00   0.0000000000000000e+00   0.0000000000000000e+00   0.0000000000000000e+00   1.2575662733382844e-11   0.0000000000000000e+00   5.7432732227015084e-03   1.4815011254813249e-10   8.9605716003902303e-01   5.3773806517817831e-02   9.9999857842592299e-01   9.6473994466069857e-01   9.9999963997287156e-01   9.9999917587469345e-01   9.9348230940943116e-01   9.9999927596416816e-01   9.6020873477787716e-01   7.4959134683620187e-07   0.0000000000000000e+00   9.2518585385429691e-18   0.0000000000000000e+00   0.0000000000000000e+00   0.0000000000000000e+00   0.0000000000000000e+00   0.0000000000000000e+00   0.0000000000000000e+00   0.0000000000000000e+00   0.0000000000000000e+00   0.0000000000000000e+00   0.0000000000000000e+00   0.0000000000000000e+00   0.0000000000000000e+00   0.0000000000000000e+00   0.0000000000000000e+00   0.0000000000000000e+00   0.0000000000000000e+00   0.0000000000000000e+00   0.0000000000000000e+00   0.0000000000000000e+00   0.0000000000000000e+00   0.0000000000000000e+00   0.0000000000000000e+00   0.0000000000000000e+00   0.0000000000000000e+00   2.2204460492503131e-16   0.0000000000000000e+00   1.4990070132114839e-06   4.6351811278100286e-15   3.9120620393509553e-01   4.2106750675332164e-05   9.9997121235007735e-01   6.6968816527515940e-01   9.9999982927732223e-01   9.9999007919275285e-01   9.9974904335919013e-01   9.9999975965721444e-01   9.9859367414067934e-01   0.0000000000000000e+00   0.0000000000000000e+00   0.0000000000000000e+00   0.0000000000000000e+00   0.0000000000000000e+00   0.0000000000000000e+00   0.0000000000000000e+00   0.0000000000000000e+00   0.0000000000000000e+00   0.0000000000000000e+00   0.0000000000000000e+00   0.0000000000000000e+00   0.0000000000000000e+00   0.0000000000000000e+00   0.0000000000000000e+00   0.0000000000000000e+00   0.0000000000000000e+00   0.0000000000000000e+00   0.0000000000000000e+00   0.0000000000000000e+00   0.0000000000000000e+00   0.0000000000000000e+00   0.0000000000000000e+00   0.0000000000000000e+00   0.0000000000000000e+00   0.0000000000000000e+00   0.0000000000000000e+00   0.0000000000000000e+00   0.0000000000000000e+00   7.2890219785885292e-10   0.0000000000000000e+00   1.8820446637234137e-01   4.0486291671045408e-08   9.9928293608293750e-01   5.1001329274576457e-01   9.9999976493719389e-01   9.9983938696056596e-01   9.9997715302454138e-01   9.9999978417368707e-01   9.9990668852340814e-01   0.0000000000000000e+00   0.0000000000000000e+00   0.0000000000000000e+00   0.0000000000000000e+00   0.0000000000000000e+00   0.0000000000000000e+00   0.0000000000000000e+00   0.0000000000000000e+00   0.0000000000000000e+00   0.0000000000000000e+00   0.0000000000000000e+00   0.0000000000000000e+00   0.0000000000000000e+00   0.0000000000000000e+00   0.0000000000000000e+00   0.0000000000000000e+00   0.0000000000000000e+00   0.0000000000000000e+00   0.0000000000000000e+00   0.0000000000000000e+00   0.0000000000000000e+00   0.0000000000000000e+00   0.0000000000000000e+00   0.0000000000000000e+00   0.0000000000000000e+00   0.0000000000000000e+00   0.0000000000000000e+00   0.0000000000000000e+00   0.0000000000000000e+00   9.9308524366866392e-13   0.0000000000000000e+00   4.7702321703704522e-03   6.8843504970791004e-11   9.7492479828305079e-01   1.0885540395552457e-01   9.9999923209241415e-01   9.9563960206257685e-01   9.9999677858241753e-01   9.9999953509217387e-01   9.9999170867189791e-01   0.0000000000000000e+00   0.0000000000000000e+00   0.0000000000000000e+00   0.0000000000000000e+00   0.0000000000000000e+00   0.0000000000000000e+00   0.0000000000000000e+00   0.0000000000000000e+00   0.0000000000000000e+00   0.0000000000000000e+00   0.0000000000000000e+00   0.0000000000000000e+00   0.0000000000000000e+00   0.0000000000000000e+00   0.0000000000000000e+00   0.0000000000000000e+00   0.0000000000000000e+00   0.0000000000000000e+00   0.0000000000000000e+00   0.0000000000000000e+00   0.0000000000000000e+00   0.0000000000000000e+00   0.0000000000000000e+00   0.0000000000000000e+00   0.0000000000000000e+00   0.0000000000000000e+00   0.0000000000000000e+00   0.0000000000000000e+00   0.0000000000000000e+00   1.5080529417825038e-15   0.0000000000000000e+00   3.3465294614805810e-05   9.9503738582029655e-14   6.2065328340259329e-01   1.5835833629082954e-03   9.9999465971329571e-01   8.4261824623028181e-01   9.9999941807159176e-01   9.9999778196040923e-01   9.9999905689232904e-01   0.0000000000000000e+00   0.0000000000000000e+00   0.0000000000000000e+00   0.0000000000000000e+00   0.0000000000000000e+00   0.0000000000000000e+00   0.0000000000000000e+00   0.0000000000000000e+00   0.0000000000000000e+00   0.0000000000000000e+00   0.0000000000000000e+00   0.0000000000000000e+00   0.0000000000000000e+00   0.0000000000000000e+00   0.0000000000000000e+00   0.0000000000000000e+00   0.0000000000000000e+00   0.0000000000000000e+00   0.0000000000000000e+00   0.0000000000000000e+00   0.0000000000000000e+00   0.0000000000000000e+00   0.0000000000000000e+00   0.0000000000000000e+00   0.0000000000000000e+00   0.0000000000000000e+00   0.0000000000000000e+00   0.0000000000000000e+00   0.0000000000000000e+00   0.0000000000000000e+00   0.0000000000000000e+00   1.0722937723861568e-07   1.2952601953960160e-16   3.3527438852296554e-01   5.9274138807704109e-06   9.9992408029745583e-01   6.5487241436542609e-01   9.9999976972567717e-01   9.9997725634575785e-01   9.9999975855920931e-01   0.0000000000000000e+00   0.0000000000000000e+00   0.0000000000000000e+00   0.0000000000000000e+00   0.0000000000000000e+00   0.0000000000000000e+00   0.0000000000000000e+00   0.0000000000000000e+00   0.0000000000000000e+00   0.0000000000000000e+00   0.0000000000000000e+00   0.0000000000000000e+00   0.0000000000000000e+00   0.0000000000000000e+00   0.0000000000000000e+00   0.0000000000000000e+00   0.0000000000000000e+00   0.0000000000000000e+00   0.0000000000000000e+00   0.0000000000000000e+00   0.0000000000000000e+00   0.0000000000000000e+00   0.0000000000000000e+00   0.0000000000000000e+00   0.0000000000000000e+00   0.0000000000000000e+00   0.0000000000000000e+00   0.0000000000000000e+00   0.0000000000000000e+00   0.0000000000000000e+00   0.0000000000000000e+00   1.9135993715539235e-10   0.0000000000000000e+00   9.9958922047122575e-02   1.0442902718491945e-08   9.9703017201515132e-01   3.7410451550748619e-01   9.9999958356411833e-01   9.9927090953665032e-01   9.9999971145345112e-01   0.0000000000000000e+00   0.0000000000000000e+00   0.0000000000000000e+00   0.0000000000000000e+00   0.0000000000000000e+00   0.0000000000000000e+00   0.0000000000000000e+00   0.0000000000000000e+00   0.0000000000000000e+00   0.0000000000000000e+00   0.0000000000000000e+00   0.0000000000000000e+00   0.0000000000000000e+00   0.0000000000000000e+00   0.0000000000000000e+00   0.0000000000000000e+00   0.0000000000000000e+00   0.0000000000000000e+00   0.0000000000000000e+00   0.0000000000000000e+00   0.0000000000000000e+00   0.0000000000000000e+00   0.0000000000000000e+00   0.0000000000000000e+00   0.0000000000000000e+00   0.0000000000000000e+00   0.0000000000000000e+00   0.0000000000000000e+00   0.0000000000000000e+00   0.0000000000000000e+00   0.0000000000000000e+00   1.7167748704120339e-13   0.0000000000000000e+00   5.7336223465577940e-04   6.4137214058253741e-12   7.5617586805691783e-01   1.0618331294481403e-02   9.9999564378047123e-01   8.8796964255222888e-01   9.9999789779731507e-01   0.0000000000000000e+00   0.0000000000000000e+00   0.0000000000000000e+00   0.0000000000000000e+00   0.0000000000000000e+00   0.0000000000000000e+00   0.0000000000000000e+00   0.0000000000000000e+00   0.0000000000000000e+00   0.0000000000000000e+00   0.0000000000000000e+00   0.0000000000000000e+00   0.0000000000000000e+00   0.0000000000000000e+00   0.0000000000000000e+00   0.0000000000000000e+00   0.0000000000000000e+00   0.0000000000000000e+00   0.0000000000000000e+00   0.0000000000000000e+00   0.0000000000000000e+00   0.0000000000000000e+00   0.0000000000000000e+00   0.0000000000000000e+00   0.0000000000000000e+00   0.0000000000000000e+00   0.0000000000000000e+00   0.0000000000000000e+00   0.0000000000000000e+00   0.0000000000000000e+00   0.0000000000000000e+00   3.7007434154171876e-17   0.0000000000000000e+00   2.9161956083267887e-07   9.1593399531575415e-16   3.3277762048075055e-01   5.5942055522858096e-06   9.9980298920389177e-01   6.1651605941723231e-01   9.9993789617898821e-01   0.0000000000000000e+00   0.0000000000000000e+00   0.0000000000000000e+00   0.0000000000000000e+00   0.0000000000000000e+00   0.0000000000000000e+00   0.0000000000000000e+00   0.0000000000000000e+00   0.0000000000000000e+00   0.0000000000000000e+00   0.0000000000000000e+00   0.0000000000000000e+00   0.0000000000000000e+00   0.0000000000000000e+00   0.0000000000000000e+00   0.0000000000000000e+00   0.0000000000000000e+00   0.0000000000000000e+00   0.0000000000000000e+00   0.0000000000000000e+00   0.0000000000000000e+00   0.0000000000000000e+00   0.0000000000000000e+00   0.0000000000000000e+00   0.0000000000000000e+00   0.0000000000000000e+00   0.0000000000000000e+00   0.0000000000000000e+00   0.0000000000000000e+00   0.0000000000000000e+00   0.0000000000000000e+00   0.0000000000000000e+00   0.0000000000000000e+00   3.3763057164885397e-11   0.0000000000000000e+00   1.6225181697803660e-02   6.5711364127807304e-10   9.6770976221879224e-01   1.2346195112610980e-01   9.9373105026093844e-01   0.0000000000000000e+00   0.0000000000000000e+00   0.0000000000000000e+00   0.0000000000000000e+00   0.0000000000000000e+00   0.0000000000000000e+00   0.0000000000000000e+00   0.0000000000000000e+00   0.0000000000000000e+00   0.0000000000000000e+00   0.0000000000000000e+00   0.0000000000000000e+00   0.0000000000000000e+00   0.0000000000000000e+00   0.0000000000000000e+00   0.0000000000000000e+00   0.0000000000000000e+00   0.0000000000000000e+00   0.0000000000000000e+00   0.0000000000000000e+00   0.0000000000000000e+00   0.0000000000000000e+00   0.0000000000000000e+00   0.0000000000000000e+00   0.0000000000000000e+00   0.0000000000000000e+00   0.0000000000000000e+00   0.0000000000000000e+00   0.0000000000000000e+00   0.0000000000000000e+00   0.0000000000000000e+00   0.0000000000000000e+00   0.00000000