<?xml version="1.0"?>
<VTKFile type="UnstructuredGrid"  version="0.1"  >
<UnstructuredGrid>
<Piece  NumberOfPoints="617" NumberOfCells="1135">
<Points>
<DataArray  type="Float64"  NumberOfComponents="3"  format="ascii">0 0 0  0.01652173913043478 0 0  0.01652173913043478 0.01666666666666667 0  0 0.01666666666666667 0  0.03304347826086956 0 0  0.03304347826086956 0.01666666666666667 0  0.04956521739130434 0 0  0.04956521739130434 0.01666666666666667 0  0.06608695652173913 0 0  0.06608695652173913 0.01666666666666667 0  0.08260869565217391 0 0  0.08260869565217391 0.01666666666666667 0  0.09913043478260869 0.01666666666666667 0  0.01652173913043478 0.03333333333333333 0  0 0.03333333333333333 0  0.03304347826086956 0.03333333333333333 0  0.04956521739130434 0.03333333333333333 0  0.06608695652173913 0.03333333333333333 0  0.08260869565217391 0.03333333333333333 0  0.09913043478260869 0.03333333333333333 0  0.1156521739130435 0.03333333333333333 0  0.01652173913043478 0.05 0  0 0.05 0  0.03304347826086956 0.05 0  0.04956521739130434 0.05 0  0.06608695652173913 0.05 0  0.08260869565217391 0.05 0  0.09913043478260869 0.05 0  0.1156521739130435 0.05 0  0.1321739130434783 0.05 0  0.01652173913043478 0.06666666666666667 0  0 0.06666666666666667 0  0.03304347826086956 0.06666666666666667 0  0.04956521739130434 0.06666666666666667 0  0.06608695652173913 0.06666666666666667 0  0.08260869565217391 0.06666666666666667 0  0.09913043478260869 0.06666666666666667 0  0.1156521739130435 0.06666666666666667 0  0.1321739130434783 0.06666666666666667 0  0.148695652173913 0.06666666666666667 0  0.01652173913043478 0.08333333333333333 0  0 0.08333333333333333 0  0.03304347826086956 0.08333333333333333 0  0.04956521739130434 0.08333333333333333 0  0.06608695652173913 0.08333333333333333 0  0.08260869565217391 0.08333333333333333 0  0.09913043478260869 0.08333333333333333 0  0.1156521739130435 0.08333333333333333 0  0.1321739130434783 0.08333333333333333 0  0.148695652173913 0.08333333333333333 0  0.1652173913043478 0.08333333333333333 0  0.01652173913043478 0.1 0  0 0.1 0  0.03304347826086956 0.1 0  0.04956521739130434 0.1 0  0.06608695652173913 0.1 0  0.08260869565217391 0.1 0  0.09913043478260869 0.1 0  0.1156521739130435 0.1 0  0.1321739130434783 0.1 0  0.148695652173913 0.1 0  0.1652173913043478 0.1 0  0.1817391304347826 0.1 0  0.01652173913043478 0.1166666666666667 0  0 0.1166666666666667 0  0.03304347826086956 0.1166666666666667 0  0.04956521739130434 0.1166666666666667 0  0.06608695652173913 0.1166666666666667 0  0.08260869565217391 0.1166666666666667 0  0.09913043478260869 0.1166666666666667 0  0.1156521739130435 0.1166666666666667 0  0.1321739130434783 0.1166666666666667 0  0.148695652173913 0.1166666666666667 0  0.1652173913043478 0.1166666666666667 0  0.1817391304347826 0.1166666666666667 0  0.1982608695652174 0.1166666666666667 0  0.01652173913043478 0.1333333333333333 0  0 0.1333333333333333 0  0.03304347826086956 0.1333333333333333 0  0.04956521739130434 0.1333333333333333 0  0.06608695652173913 0.1333333333333333 0  0.08260869565217391 0.1333333333333333 0  0.09913043478260869 0.1333333333333333 0  0.1156521739130435 0.1333333333333333 0  0.1321739130434783 0.1333333333333333 0  0.148695652173913 0.1333333333333333 0  0.1652173913043478 0.1333333333333333 0  0.1817391304347826 0.1333333333333333 0  0.1982608695652174 0.1333333333333333 0  0.2147826086956522 0.1333333333333333 0  0.01652173913043478 0.15 0  0 0.15 0  0.03304347826086956 0.15 0  0.04956521739130434 0.15 0  0.06608695652173913 0.15 0  0.08260869565217391 0.15 0  0.09913043478260869 0.15 0  0.1156521739130435 0.15 0  0.1321739130434783 0.15 0  0.148695652173913 0.15 0  0.1652173913043478 0.15 0  0.1817391304347826 0.15 0  0.1982608695652174 0.15 0  0.2147826086956522 0.15 0  0.2313043478260869 0.15 0  0.01652173913043478 0.1666666666666667 0  0 0.1666666666666667 0  0.03304347826086956 0.1666666666666667 0  0.04956521739130434 0.1666666666666667 0  0.06608695652173913 0.1666666666666667 0  0.08260869565217391 0.1666666666666667 0  0.09913043478260869 0.1666666666666667 0  0.1156521739130435 0.1666666666666667 0  0.1321739130434783 0.1666666666666667 0  0.148695652173913 0.1666666666666667 0  0.1652173913043478 0.1666666666666667 0  0.1817391304347826 0.1666666666666667 0  0.1982608695652174 0.1666666666666667 0  0.2147826086956522 0.1666666666666667 0  0.2313043478260869 0.1666666666666667 0  0.2478260869565218 0.1666666666666667 0  0.01652173913043478 0.1833333333333333 0  0 0.1833333333333333 0  0.03304347826086956 0.1833333333333333 0  0.04956521739130434 0.1833333333333333 0  0.06608695652173913 0.1833333333333333 0  0.08260869565217391 0.1833333333333333 0  0.09913043478260869 0.1833333333333333 0  0.1156521739130435 0.1833333333333333 0  0.1321739130434783 0.1833333333333333 0  0.148695652173913 0.1833333333333333 0  0.1652173913043478 0.1833333333333333 0  0.1817391304347826 0.1833333333333333 0  0.1982608695652174 0.1833333333333333 0  0.2147826086956522 0.1833333333333333 0  0.2313043478260869 0.1833333333333333 0  0.2478260869565218 0.1833333333333333 0  0.2643478260869565 0.1833333333333333 0  0.01652173913043478 0.2 0  0 0.2 0  0.03304347826086956 0.2 0  0.04956521739130434 0.2 0  0.06608695652173913 0.2 0  0.08260869565217391 0.2 0  0.09913043478260869 0.2 0  0.1156521739130435 0.2 0  0.1321739130434783 0.2 0  0.148695652173913 0.2 0  0.1652173913043478 0.2 0  0.1817391304347826 0.2 0  0.1982608695652174 0.2 0  0.2147826086956522 0.2 0  0.2313043478260869 0.2 0  0.2478260869565218 0.2 0  0.2643478260869565 0.2 0  0.2808695652173913 0.2 0  0.01652173913043478 0.2166666666666667 0  0 0.2166666666666667 0  0.03304347826086956 0.2166666666666667 0  0.04956521739130434 0.2166666666666667 0  0.06608695652173913 0.2166666666666667 0  0.08260869565217391 0.2166666666666667 0  0.09913043478260869 0.2166666666666667 0  0.1156521739130435 0.2166666666666667 0  0.1321739130434783 0.2166666666666667 0  0.148695652173913 0.2166666666666667 0  0.1652173913043478 0.2166666666666667 0  0.1817391304347826 0.2166666666666667 0  0.1982608695652174 0.2166666666666667 0  0.2147826086956522 0.2166666666666667 0  0.2313043478260869 0.2166666666666667 0  0.2478260869565218 0.2166666666666667 0  0.2643478260869565 0.2166666666666667 0  0.2808695652173913 0.2166666666666667 0  0.2973913043478261 0.2166666666666667 0  0.01652173913043478 0.2333333333333333 0  0 0.2333333333333333 0  0.03304347826086956 0.2333333333333333 0  0.04956521739130434 0.2333333333333333 0  0.06608695652173913 0.2333333333333333 0  0.08260869565217391 0.2333333333333333 0  0.09913043478260869 0.2333333333333333 0  0.1156521739130435 0.2333333333333333 0  0.1321739130434783 0.2333333333333333 0  0.148695652173913 0.2333333333333333 0  0.1652173913043478 0.2333333333333333 0  0.1817391304347826 0.2333333333333333 0  0.1982608695652174 0.2333333333333333 0  0.2147826086956522 0.2333333333333333 0  0.2313043478260869 0.2333333333333333 0  0.2478260869565218 0.2333333333333333 0  0.2643478260869565 0.2333333333333333 0  0.2808695652173913 0.2333333333333333 0  0.2973913043478261 0.2333333333333333 0  0.01652173913043478 0.25 0  0 0.25 0  0.03304347826086956 0.25 0  0.04956521739130434 0.25 0  0.06608695652173913 0.25 0  0.08260869565217391 0.25 0  0.09913043478260869 0.25 0  0.1156521739130435 0.25 0  0.1321739130434783 0.25 0  0.148695652173913 0.25 0  0.1652173913043478 0.25 0  0.1817391304347826 0.25 0  0.1982608695652174 0.25 0  0.2147826086956522 0.25 0  0.2313043478260869 0.25 0  0.2478260869565218 0.25 0  0.2643478260869565 0.25 0  0.2808695652173913 0.25 0  0.2973913043478261 0.25 0  0.01652173913043478 0.2666666666666667 0  0 0.2666666666666667 0  0.03304347826086956 0.2666666666666667 0  0.04956521739130434 0.2666666666666667 0  0.06608695652173913 0.2666666666666667 0  0.08260869565217391 0.2666666666666667 0  0.09913043478260869 0.2666666666666667 0  0.1156521739130435 0.2666666666666667 0  0.1321739130434783 0.2666666666666667 0  0.148695652173913 0.2666666666666667 0  0.1652173913043478 0.2666666666666667 0  0.1817391304347826 0.2666666666666667 0  0.1982608695652174 0.2666666666666667 0  0.2147826086956522 0.2666666666666667 0  0.2313043478260869 0.2666666666666667 0  0.2478260869565218 0.2666666666666667 0  0.2643478260869565 0.2666666666666667 0  0.2808695652173913 0.2666666666666667 0  0.2973913043478261 0.2666666666666667 0  0.3139130434782609 0.2666666666666667 0  0.01652173913043478 0.2833333333333333 0  0 0.2833333333333333 0  0.03304347826086956 0.2833333333333333 0  0.04956521739130434 0.2833333333333333 0  0.06608695652173913 0.2833333333333333 0  0.08260869565217391 0.2833333333333333 0  0.09913043478260869 0.2833333333333333 0  0.1156521739130435 0.2833333333333333 0  0.1321739130434783 0.2833333333333333 0  0.148695652173913 0.2833333333333333 0  0.1652173913043478 0.2833333333333333 0  0.1817391304347826 0.2833333333333333 0  0.1982608695652174 0.2833333333333333 0  0.2147826086956522 0.2833333333333333 0  0.2313043478260869 0.2833333333333333 0  0.2478260869565218 0.2833333333333333 0  0.2643478260869565 0.2833333333333333 0  0.2808695652173913 0.2833333333333333 0  0.2973913043478261 0.2833333333333333 0  0.3139130434782609 0.2833333333333333 0  0.3304347826086956 0.2833333333333333 0  0.01652173913043478 0.3 0  0 0.3 0  0.03304347826086956 0.3 0  0.04956521739130434 0.3 0  0.06608695652173913 0.3 0  0.08260869565217391 0.3 0  0.09913043478260869 0.3 0  0.1156521739130435 0.3 0  0.1321739130434783 0.3 0  0.148695652173913 0.3 0  0.1652173913043478 0.3 0  0.1817391304347826 0.3 0  0.1982608695652174 0.3 0  0.2147826086956522 0.3 0  0.2313043478260869 0.3 0  0.2478260869565218 0.3 0  0.2643478260869565 0.3 0  0.2808695652173913 0.3 0  0.2973913043478261 0.3 0  0.3139130434782609 0.3 0  0.3304347826086956 0.3 0  0.3469565217391304 0.3 0  0.01652173913043478 0.3166666666666667 0  0 0.3166666666666667 0  0.03304347826086956 0.3166666666666667 0  0.04956521739130434 0.31666666
[...]
<PointData  Vectors="Displacement"> 
<DataArray  type="Float64"  Name="Displacement"  NumberOfComponents="3" format="ascii">0.0000000000000000e+00 0.0000000000000000e+00 0.0000000000000000e+00  7.4244921254652235e-06 3.7951967198573517e-06 0.0000000000000000e+00  3.9101565747893022e-06 2.0605138353783776e-06 0.0000000000000000e+00  0.0000000000000000e+00 0.0000000000000000e+00 0.0000000000000000e+00  1.4266795081510950e-05 8.8484889212122851e-06 0.0000000000000000e+00  8.2050850538412607e-06 7.0494185146165975e-06 0.0000000000000000e+00  2.0938805706649603e-05 1.6244297790910690e-05 0.0000000000000000e+00  1.2344016513955802e-05 1.4486380667462145e-05 0.0000000000000000e+00  2.7504539407670355e-05 2.6116017560936119e-05 0.0000000000000000e+00  1.6323434865891563e-05 2.4404749841135654e-05 0.0000000000000000e+00  3.4029269794605746e-05 3.8497393666253635e-05 0.0000000000000000e+00  2.0178708671196577e-05 3.6805334712920314e-05 0.0000000000000000e+00  2.3973063973130794e-05 5.1761710920752525e-05 0.0000000000000000e+00  1.2468551029238981e-06 1.4689984568905132e-06 0.0000000000000000e+00  0.0000000000000000e+00 0.0000000000000000e+00 0.0000000000000000e+00  2.6716282733006534e-06 6.1752494385512276e-06 0.0000000000000000e+00  4.1123648358960078e-06 1.3622281521719662e-05 0.0000000000000000e+00  5.4380688087740323e-06 2.3620757905287094e-05 0.0000000000000000e+00  6.5922925331684294e-06 3.6055964472925555e-05 0.0000000000000000e+00  7.6480083048309562e-06 5.0914135739649143e-05 0.0000000000000000e+00  8.5394858469127202e-06 6.8767620648657008e-05 0.0000000000000000e+00  -1.3080715906661758e-06 1.5818974464776871e-06 0.0000000000000000e+00  0.0000000000000000e+00 0.0000000000000000e+00 0.0000000000000000e+00  -2.6103175512886066e-06 6.2316379343368035e-06 0.0000000000000000e+00  -3.8593699976467056e-06 1.3661693850816107e-05 0.0000000000000000e+00  -5.1223473955832340e-06 2.3739503773767294e-05 0.0000000000000000e+00  -6.4823885065998175e-06 3.6290310961780366e-05 0.0000000000000000e+00  -8.1210390753632647e-06 5.0901624461233373e-05 0.0000000000000000e+00  -1.0024860546683248e-05 6.8796279170319196e-05 0.0000000000000000e+00  -1.2745324488132665e-05 9.0196594832370360e-05 0.0000000000000000e+00  -4.0109017857747497e-06 2.4052193701636866e-06 0.0000000000000000e+00  0.0000000000000000e+00 0.0000000000000000e+00 0.0000000000000000e+00  -7.9942749335964377e-06 7.0721062581023157e-06 0.0000000000000000e+00  -1.1679729715446821e-05 1.4499173679329664e-05 0.0000000000000000e+00  -1.5323312428609844e-05 2.4485019965234483e-05 0.0000000000000000e+00  -1.8476798199267666e-05 3.6892089665398579e-05 0.0000000000000000e+00  -2.0814503144967409e-05 5.1266814236267908e-05 0.0000000000000000e+00  -2.6175092433995624e-05 6.9241712036780797e-05 0.0000000000000000e+00  -3.3661189069782618e-05 9.1083018172775047e-05 0.0000000000000000e+00  -3.8601873363367803e-05 1.1513299185718465e-04 0.0000000000000000e+00  -6.5578105456222268e-06 3.7497899663632512e-06 0.0000000000000000e+00  0.0000000000000000e+00 0.0000000000000000e+00 0.0000000000000000e+00  -1.2551696588450066e-05 8.3929085184011492e-06 0.0000000000000000e+00  -1.9146010090244838e-05 1.5724753328221300e-05 0.0000000000000000e+00  -2.5396312095894730e-05 2.5698059604289922e-05 0.0000000000000000e+00  -3.0967336584438879e-05 3.7945115536654696e-05 0.0000000000000000e+00  -2.8629451576608040e-05 5.6801039249797423e-05 0.0000000000000000e+00  -3.0675335645684654e-05 7.6013609985945020e-05 0.0000000000000000e+00  -3.4439721526928550e-05 9.7665206679120860e-05 0.0000000000000000e+00  -3.8322060794479107e-05 1.2091510890732043e-04 0.0000000000000000e+00  -4.1730593366407280e-05 1.4674346876211508e-04 0.0000000000000000e+00  -4.0934004227342485e-06 6.4938376922893925e-06 0.0000000000000000e+00  0.0000000000000000e+00 0.0000000000000000e+00 0.0000000000000000e+00  -9.1160961498378614e-06 1.2980720331925573e-05 0.0000000000000000e+00  -1.4530961514931615e-05 2.1399685038801343e-05 0.0000000000000000e+00  -1.9816404522910047e-05 3.1902065122596098e-05 0.0000000000000000e+00  -2.4537947941982074e-05 4.4698717562711715e-05 0.0000000000000000e+00  -2.8161048511399813e-05 6.0951469691998273e-05 0.0000000000000000e+00  -3.1118412044661170e-05 8.0710166371666950e-05 0.0000000000000000e+00  -3.4489069743327874e-05 1.0228572685261377e-04 0.0000000000000000e+00  -3.7869116102023868e-05 1.2535491894432574e-04 0.0000000000000000e+00  -4.0954717228437545e-05 1.5037295081262930e-04 0.0000000000000000e+00  -4.3354132973718549e-05 1.7719323372551409e-04 0.0000000000000000e+00  -3.3044644134037838e-06 8.1042017615832510e-06 0.0000000000000000e+00  0.0000000000000000e+00 0.0000000000000000e+00 0.0000000000000000e+00  -7.4045750194522084e-06 1.6339818981061286e-05 0.0000000000000000e+00  -1.2091071001079656e-05 2.5826760871932679e-05 0.0000000000000000e+00  -1.6953139624282475e-05 3.7021822501182285e-05 0.0000000000000000e+00  -2.1738800041137052e-05 5.0291853828777602e-05 0.0000000000000000e+00  -2.6264237995544704e-05 6.6288174220464715e-05 0.0000000000000000e+00  -3.0360623891890499e-05 8.5203629498493456e-05 0.0000000000000000e+00  -3.4060888359342261e-05 1.0628758463332254e-04 0.0000000000000000e+00  -3.7508266059753392e-05 1.2898436080209161e-04 0.0000000000000000e+00  -4.0660871912969546e-05 1.5338176550431043e-04 0.0000000000000000e+00  -4.3364512147872133e-05 1.7941199023120997e-04 0.0000000000000000e+00  -4.5562019071004048e-05 2.0698352753925267e-04 0.0000000000000000e+00  -3.0279429096018728e-06 9.2604629560164024e-06 0.0000000000000000e+00  0.0000000000000000e+00 0.0000000000000000e+00 0.0000000000000000e+00  -6.6967074232919698e-06 1.8811405486141236e-05 0.0000000000000000e+00  -1.0931581777266571e-05 2.9331054464921015e-05 0.0000000000000000e+00  -1.5506926671983953e-05 4.1269619571834891e-05 0.0000000000000000e+00  -2.0225237573567271e-05 5.5030446088764045e-05 0.0000000000000000e+00  -2.4909731797300019e-05 7.1047886956155710e-05 0.0000000000000000e+00  -2.9350438575184113e-05 8.9459703348438233e-05 0.0000000000000000e+00  -3.3407905569170419e-05 1.0993302324046682e-04 0.0000000000000000e+00  -3.7102261764550185e-05 1.3212964930628027e-04 0.0000000000000000e+00  -4.0472542878551535e-05 1.5596006330412373e-04 0.0000000000000000e+00  -4.3485177306177195e-05 1.8135418336981887e-04 0.0000000000000000e+00  -4.6120446332718844e-05 2.0829036971846458e-04 0.0000000000000000e+00  -4.8365413547188514e-05 2.3691846161584440e-04 0.0000000000000000e+00  -2.9716364106533620e-06 1.0167343509651772e-05 0.0000000000000000e+00  0.0000000000000000e+00 0.0000000000000000e+00 0.0000000000000000e+00  -6.4686582058809044e-06 2.0726155302400701e-05 0.0000000000000000e+00  -1.0459295695863853e-05 3.2127222252213330e-05 0.0000000000000000e+00  -1.4817204578793678e-05 4.4752383502824035e-05 0.0000000000000000e+00  -1.9393462624685941e-05 5.8959002306549871e-05 0.0000000000000000e+00  -2.4023817148315312e-05 7.5063992125059281e-05 0.0000000000000000e+00  -2.8522040560097960e-05 9.3183070625787017e-05 0.0000000000000000e+00  -3.2742216019420904e-05 1.1317887949481379e-04 0.0000000000000000e+00  -3.6639562007216812e-05 1.3487180778037265e-04 0.0000000000000000e+00  -4.0221497555996261e-05 1.5816253528352483e-04 0.0000000000000000e+00  -4.3485265336655440e-05 1.8297594319867082e-04 0.0000000000000000e+00  -4.6423500417711418e-05 2.0928291777150832e-04 0.0000000000000000e+00  -4.9013259070931164e-05 2.3710716780659234e-04 0.0000000000000000e+00  -5.1194086333343928e-05 2.6632862054632193e-04 0.0000000000000000e+00  -3.0167199580616776e-06 1.0906127186526419e-05 0.0000000000000000e+00  0.0000000000000000e+00 0.0000000000000000e+00 0.0000000000000000e+00  -6.4667612668897323e-06 2.2253289524030193e-05 0.0000000000000000e+00  -1.0329548998414077e-05 3.4369939478409770e-05 0.0000000000000000e+00  -1.4525772226428762e-05 4.7570061504869205e-05 0.0000000000000000e+00  -1.8943926352890739e-05 6.2150328779459840e-05 0.0000000000000000e+00  -2.3447803762026012e-05 7.8355413490667329e-05 0.0000000000000000e+00  -2.7886651377586486e-05 9.6295586680768296e-05 0.0000000000000000e+00  -3.2135566305409633e-05 1.1593333267805659e-04 0.0000000000000000e+00  -3.6130029851268106e-05 1.3718330597268429e-04 0.0000000000000000e+00  -3.9848953398016176e-05 1.5997403313285422e-04 0.0000000000000000e+00  -4.3283015995946388e-05 1.8424049027372351e-04 0.0000000000000000e+00  -4.6423132052168177e-05 2.0993845714331182e-04 0.0000000000000000e+00  -4.9247271325259967e-05 2.3703163060308973e-04 0.0000000000000000e+00  -5.1715557059950978e-05 2.6540294884656694e-04 0.0000000000000000e+00  -5.3802953628501250e-05 2.9486021510566736e-04 0.0000000000000000e+00  -3.1051664757755891e-06 1.1512621654070203e-05 0.0000000000000000e+00  0.0000000000000000e+00 0.0000000000000000e+00 0.0000000000000000e+00  -6.5639706478552908e-06 2.3478963298402516e-05 0.0000000000000000e+00  -1.0357048679916790e-05 3.6158477509585199e-05 0.0000000000000000e+00  -1.4428241127020436e-05 4.9811677706445990e-05 0.0000000000000000e+00  -1.8693349421740795e-05 6.4683960859847936e-05 0.0000000000000000e+00  -2.3045896805154508e-05 8.0974185200039347e-05 0.0000000000000000e+00  -2.7369275178983012e-05 9.8790859719684882e-05 0.0000000000000000e+00  -3.1562677741862537e-05 1.1814914052748115e-04 0.0000000000000000e+00  -3.5561100672566631e-05 1.3901891571963760e-04 0.0000000000000000e+00  -3.9330064297029450e-05 1.6135731368078726e-04 0.0000000000000000e+00  -4.2850334222672072e-05 1.8511336822991364e-04 0.0000000000000000e+00  -4.6107370764327373e-05 2.1023633512081913e-04 0.0000000000000000e+00  -4.9081336916955821e-05 2.3666487302077230e-04 0.0000000000000000e+00  -5.1746058352439927e-05 2.6428819376246620e-04 0.0000000000000000e+00  -5.4085980109637921e-05 2.9294965513646995e-04 0.0000000000000000e+00  -5.6107900072100094e-05 3.2247164844710337e-04 0.0000000000000000e+00  -3.2064169916559959e-06 1.2003596375662491e-05 0.0000000000000000e+00  0.0000000000000000e+00 0.0000000000000000e+00 0.0000000000000000e+00  -6.6935092935035883e-06 2.4449133243103138e-05 0.0000000000000000e+00  -1.0440911617374187e-05 3.7555910896145474e-05 0.0000000000000000e+00  -1.4405399751192633e-05 5.1546311549898690e-05 0.0000000000000000e+00  -1.8523061736479321e-05 6.6628434869173508e-05 0.0000000000000000e+00  -2.2713292837859157e-05 8.2972114336724500e-05 0.0000000000000000e+00  -2.6888459852863312e-05 1.0068437025233618e-04 0.0000000000000000e+00  -3.0970078955340167e-05 1.1980833150270650e-04 0.0000000000000000e+00  -3.4900752787493394e-05 1.4034633733462192e-04 0.0000000000000000e+00  -3.8643306538672012e-05 1.6227747154217857e-04 0.0000000000000000e+00  -4.2173642687056173e-05 1.8556368321809771e-04 0.0000000000000000e+00  -4.5473927332255550e-05 2.1015472215007923e-04 0.0000000000000000e+00  -4.8526497232410339e-05 2.3598216511432779e-04 0.0000000000000000e+00  -5.1313753612855830e-05 2.6294348153715772e-04 0.0000000000000000e+00  -5.3826774328960763e-05 2.9090529937558486e-04 0.0000000000000000e+00  -5.6071882200157306e-05 3.1971675307291804e-04 0.0000000000000000e+00  -5.8071333431228517e-05 3.4922035299172685e-04 0.0000000000000000e+00  -3.3036057398883425e-06 1.2387233126040570e-05 0.0000000000000000e+00  0.0000000000000000e+00 0.0000000000000000e+00 0.0000000000000000e+00  -6.8186028701342571e-06 2.5189279525301681e-05 0.0000000000000000e+00  -1.0523988722245360e-05 3.8602177124640856e-05 0.0000000000000000e+00  -1.4385270717891230e-05 5.2823146236344132e-05 0.0000000000000000e+00  -1.8354349589610950e-05 6.8035492302693194e-05 0.0000000000000000e+00  -2.2371982266448860e-05 8.4391072666136033e-05 0.0000000000000000e+00  -2.6374303234265475e-05 1.0199547472612831e-04 0.0000000000000000e+00  -3.0302563954634980e-05 1.2090673964339930e-04 0.0000000000000000e+00  -3.4110295771115462e-05 1.4114628894490791e-04 0.0000000000000000e+00  -3.7763932572697401e-05 1.6270850739224201e-04 0.0000000000000000e+00  -4.1239668673609541e-05 1.8556575878903831e-04 0.0000000000000000e+00  -4.4519691031095219e-05 2.0967172434202875e-04 0.0000000000000000e+00  -4.7588965035173279e-05 2.3495915899760986e-04 0.0000000000000000e+00  -5.0435483862949810e-05 2.6133441840694402e-04 0.0000000000000000e+00  -5.3054709010906041e-05 2.8868082581735811e-04 0.0000000000000000e+00  -5.5453253845184916e-05 3.1686687968042124e-04 0.0000000000000000e+00  -5.7649820325874615e-05 3.4575383465589742e-04 0.0000000000000000e+00  -5.9674335101371488e-05 3.7520213476338881e-04 0.0000000000000000e+00  -3.3870026199783525e-06 1.2667384576251342e-05 0.0000000000000000e+00  0.0000000000000000e+00 0.0000000000000000e+00 0.0000000000000000e+00  -6.9178816406870748e-06 2.5713359943279236e-05 0.0000000000000000e+00  -1.0572033842145096e-05 3.9321585719036103e-05 0.0000000000000000e+00  -1.4322138802630955e-05 5.3674419811647625e-05 0.0000000000000000e+00  -1.8133262780661604e-05 6.8940292958436658e-05 0.0000000000000000e+00  -2.1964000875685509e-05 8.5260648390023469e-05 0.0000000000000000e+00  -2.5770257669318007e-05 1.0274010735338380e-04 0.0000000000000000e+00  -2.9510743069664326e-05 1.2144475741842840e-04 0.0000000000000000e+00  -3.3151114936186756e-05 1.4140717887932435e-04 0.0000000000000000e+00  -3.6664856976679534e-05 1.6263183068428093e-04 0.0000000000000000e+00  -4.0032048226092254e-05 1.8509883610056074e-04 0.0000000000000000e+00  -4.3237553926324053e-05 2.0876667940003304e-04 0.0000000000000000e+00  -4.6269607064611633e-05 2.3357230441780361e-04 0.0000000000000000e+00  -4.9120274140653053e-05 2.5943040363035847e-04 0.0000000000000000e+00  -5.1787910654880128e-05 2.8623688444631923e-04 0.0000000000000000e+00  -5.4279317363197855e-05 3.1387470815161120e-04 0.0000000000000000e+00  -5.6610569518378768e-05 3.4221966242191392e-04 0.0000000000000000e+00  -5.8806794856806011e-05 3.7114564938518882e-04 0.0000000000000000e+00  -3.4506468311459334e-06 1.2845246877862066e-05 0.0000000000000000e+00  0.0000000000000000e+00 0.0000000000000000e+00 0.0000000000000000e+00  -6.9779508145823051e-06 2.6027849353221595e-05 0.0000000000000000e+00  -1.0562800483387901e-05 3.9726983841872187e-05 0.0000000000000000e+00  -1.4184746444343490e-05 5.4118393560306956e-05 0.0000000000000000e+00  -1.7820710758253684e-05 6.9363359162487911e-05 0.0000000000000000e+00  -2.1444906925581133e-05 8.5598343201713064e-05 0.0000000000000000e+00  -2.5030389007578614e-05 1.0292777873208089e-04 0.0000000000000000e+00  -2.8551664158259708e-05 1.2142217365564756e-04 0.0000000000000000e+00  -3.1986797084329559e-05 1.4112042521186949e-04 0.0000000000000000e+00  -3.5318049051701756e-05 1.6203314037142665e-04 0.0000000000000000e+00  -3.8531495602358117e-05 1.8414566731883155e-04 0.0000000000000000e+00  -4.1616347966136756e-05 2.0742065043840189e-04 0.0000000000000000e+00  -4.4564574847418319e-05 2.3179951223633138e-04 0.0000000000000000e+00  -4.7371530547769655e-05 2.5720391866616106e-04 0.0000000000000000e+00  -5.0037510991082539e-05 2.8353926783923053e-04 0.0000000000000000e+00  -5.2569148392653320e-05 3.1069935387471230e-04 0.0000000000000000e+00  -5.4980100646872996e-05 3.3857107895616606e-04 0.0000000000000000e+00  -5.7291074961307023e-05 3.6703892506060747e-04 0.0000000000000000e+00  -3.4904942390561679e-06 1.2919908806844266e-05 0.0000000000000000e+00  0.0000000000000000e+00 0.0000000000000000e+00 0.0000000000000000e+00  -6.9893494971981045e-06 2.6133451914374119e-05 0.0000000000000000e+00  -1.0479986721186792e-05 3.9821937149615130e-05 0.0000000000000000e+00  -1.3949284010515062e-05 5.4161495616756591e-05 0.0000000000000000e+00  -1.7385779131390448e-05 6.9312467632364611e-05 0.0000000000000000e+00  -2.0778305123867246e-05 8.5410428249813958e-05 0.0000000000000000e+00  -2.4115646898791711e-05 1.0256045587608095e-04 0.0000000000000000e+00  -2.7387069827072280e-05 1.2083542057604295e-04 0.0000000000000000e+00  -3.0582965255855984e-05 1.4027732021078203e-04 0.0000000000000000e+00  -3.3695097155115152e-05 1.6089982433451270e-04 0.0000000000000000e+00  -3.6716555303460182e-05 1.8269107707421153e-04 0.0000000000000000e+00  -3.9641701331550135e-05 2.0561639955807344e-04 0.0000000000000000e+00  -4.2466388559773627e-05 2.2962061179300548e-04 0.0000000000000000e+00  -4.5188732104739646e-05 2.5463051305014717e-04 0.0000000000000000e+00  -4.7810296205149233e-05 2.8055833444579471e-04 0.0000000000000000e+00  -5.0337145333694036e-05 3.0730574589195612e-04 0.0000000000000000e+00  -5.2780451715288099e-05 3.3476787606209085e-04 0.0000000000000000e+00  -5.5156620337564897e-05 3.6283715522569094e-04 0.0000000000000000e+00  -5.7486964531278074e-05 3.9140689015168968e-04 0.0000000000000000e+00  -3.5032868672144987e-06 1.2888366286568240e-05 0.0000000000000000e+00  0.0000000000000000e+00 0.0000000000000000e+00 0.0000000000000000e+00  -6.9440975178889445e-06 2.6025592794112208e-05 0.0000000000000000e+00  -1.0309486574458904e-05 3.9601624410488927e-05 0.0000000000000000e+00  -1.3594795319786429e-05 5.3799511434391505e-05 0.0000000000000000e+00  -1.6800914167811490e-05 6.8783937786487390e-05 0.0000000000000000e+00  -1.9931372691380798e-05 8.4692746943958015e-05 0.0000000000000000e+00  -2.2990232335487094e-05 1.0163226794695700e-04 0.0000000000000000e+00  -2.5980988564205530e-05 1.1967623857693114e-04 0.0000000000000000e+00  -2.8906137951709169e-05 1.3886723856579064e-04 0.0000000000000000e+00  -3.1767057458940793e-05 1.5921930804261937e-04 0.0000000000000000e+00  -3.4564096652959246e-05 1.8072096786767510e-04 0.0000000000000000e+00  -3.7296899502400966e-05 2.0333826409136532e-04 0.0000000000000000e+00  -3.9965006261499668e-05 2.2701765958031502e-04 0.0000000000000000e+00  -4.2568774494102968e-05 2.5168901469844952e-04 0.0000000000000000e+00  -4.5110465679254110e-05 2.7726897034270110e-04 0.0000000000000000e+00  -4.7595182001474866e-05 3.0366452512225583e-04 0.0000000000000000e+00  -5.0031461348396994e-05 3.3077654271431784e-04 0.0000000000000000e+00  -5.2431469954588896e-05 3.5850306848134877e-04 0.0000000000000000e+00  -5.4810776202404806e-05 3.8674238161390452e-04 0.0000000000000000e+00  -5.7187700546458876e-05 4.1539573913373267e-04 0.0000000000000000e+00  -3.4857261603522572e-06 1.2745201867926645e-05 0.0000000000000000e+00  0.0000000000000000e+00 0.0000000000000000e+00 0.0000000000000000e+00  -6.8338891471891056e-06 2.5694108639582690e-05 0.0000000000000000e+00  -1.0036597138624704e-05 3.9052759540580507e-05 0.0000000000000000e+00  -1.3099646646582461e-05 5.3017882386316626e-05 0.0000000000000000e+00  -1.6038043412243643e-05 6.7763240659819582e-05 0.0000000000000000e+00  -1.8871049825395582e-05 8.3431264914735556e-05 0.0000000000000000e+00  -2.1618278571614136e-05 1.0012958814637309e-04 0.0000000000000000e+00  -2.4297260891650600e-05 1.1793121347014604e-04 0.0000000000000000e+00  -2.6922254939304175e-05 1.3687686139063406e-04 0.0000000000000000e+00  -2.9503907588917630e-05 1.5697828917225228e-04 0.0000000000000000e+00  -3.2049489418003870e-05 1.7822188323948575e-04 0.0000000000000000e+00  -3.4563526149204826e-05 2.0057218698683044e-04 0.0000000000000000e+00  -3.7048714937997701e-05 2.2397523840596924e-04 0.0000000000000000e+00  -3.9507030413978891e-05 2.4836181996946597e-04 0.0000000000000000e+00  -4.1940856883891948e-05 2.7365074849846721e-04 0.0000000000000000e+00  -4.4353940312273636e-05 2.9975211826798256e-04 0.0000000000000000e+00  -4.6752029134963013e-05 3.2657038142567640e-04 0.0000000000000000e+00  -4.9143143447599008e-05 3.5400719503829046e-04 0.0000000000000000e+00  -5.1537439139308648e-05 3.8196397614479756e-04 0.0000000000000000e+00  -5.3946649717670433e-05 4.1034412206440441e-04 0.0000000000000000e+00  -5.6383098176341357e-05 4.3905483862611021e-04 0.0000000000000000e+00  -3.4336769467280048e-06 1.2481924402852113e-05 0.0000000000000000e+00  0.0000000000000000e+00 0.0000000000000000e+00 0.0000000000000000e+00  -6.6483364723220899e-06 2.5122196942727173e-05 0.0000000000000000e+00  -9.6433357003634161e-06 3.8152620881640971e-05 0.0000000000000000e+00  -1.2438182193672799e-05 5.17911920