<?xml version="1.0"?>
<VTKFile type="UnstructuredGrid"  version="0.1"  >
<UnstructuredGrid>
<Piece  NumberOfPoints="639" NumberOfCells="1174">
<Points>
<DataArray  type="Float64"  NumberOfComponents="3"  format="ascii">1.024347826086957 0 0  1.040869565217391 0 0  1.040869565217391 0.01666666666666667 0  1.024347826086957 0.01666666666666667 0  1.057391304347826 0 0  1.057391304347826 0.01666666666666667 0  1.073913043478261 0 0  1.073913043478261 0.01666666666666667 0  1.090434782608696 0 0  1.090434782608696 0.01666666666666667 0  1.10695652173913 0 0  1.10695652173913 0.01666666666666667 0  1.123478260869565 0 0  1.123478260869565 0.01666666666666667 0  1.14 0 0  1.14 0.01666666666666667 0  1.156521739130435 0 0  1.156521739130435 0.01666666666666667 0  1.17304347826087 0 0  1.17304347826087 0.01666666666666667 0  1.189565217391304 0 0  1.189565217391304 0.01666666666666667 0  1.206086956521739 0 0  1.206086956521739 0.01666666666666667 0  1.222608695652174 0 0  1.222608695652174 0.01666666666666667 0  1.239130434782609 0 0  1.239130434782609 0.01666666666666667 0  1.255652173913044 0 0  1.255652173913044 0.01666666666666667 0  1.272173913043478 0 0  1.272173913043478 0.01666666666666667 0  1.288695652173913 0 0  1.288695652173913 0.01666666666666667 0  1.305217391304348 0 0  1.305217391304348 0.01666666666666667 0  1.321739130434783 0 0  1.321739130434783 0.01666666666666667 0  1.338260869565217 0.01666666666666667 0  1.040869565217391 0.03333333333333333 0  1.057391304347826 0.03333333333333333 0  1.073913043478261 0.03333333333333333 0  1.090434782608696 0.03333333333333333 0  1.10695652173913 0.03333333333333333 0  1.123478260869565 0.03333333333333333 0  1.14 0.03333333333333333 0  1.156521739130435 0.03333333333333333 0  1.17304347826087 0.03333333333333333 0  1.189565217391304 0.03333333333333333 0  1.206086956521739 0.03333333333333333 0  1.222608695652174 0.03333333333333333 0  1.239130434782609 0.03333333333333333 0  1.255652173913044 0.03333333333333333 0  1.272173913043478 0.03333333333333333 0  1.288695652173913 0.03333333333333333 0  1.305217391304348 0.03333333333333333 0  1.321739130434783 0.03333333333333333 0  1.338260869565217 0.03333333333333333 0  1.354782608695652 0.03333333333333333 0  1.057391304347826 0.05 0  1.073913043478261 0.05 0  1.090434782608696 0.05 0  1.10695652173913 0.05 0  1.123478260869565 0.05 0  1.14 0.05 0  1.156521739130435 0.05 0  1.17304347826087 0.05 0  1.189565217391304 0.05 0  1.206086956521739 0.05 0  1.222608695652174 0.05 0  1.239130434782609 0.05 0  1.255652173913044 0.05 0  1.272173913043478 0.05 0  1.288695652173913 0.05 0  1.305217391304348 0.05 0  1.321739130434783 0.05 0  1.338260869565217 0.05 0  1.354782608695652 0.05 0  1.371304347826087 0.05 0  1.073913043478261 0.06666666666666667 0  1.090434782608696 0.06666666666666667 0  1.10695652173913 0.06666666666666667 0  1.123478260869565 0.06666666666666667 0  1.14 0.06666666666666667 0  1.156521739130435 0.06666666666666667 0  1.17304347826087 0.06666666666666667 0  1.189565217391304 0.06666666666666667 0  1.206086956521739 0.06666666666666667 0  1.222608695652174 0.06666666666666667 0  1.239130434782609 0.06666666666666667 0  1.255652173913044 0.06666666666666667 0  1.272173913043478 0.06666666666666667 0  1.288695652173913 0.06666666666666667 0  1.305217391304348 0.06666666666666667 0  1.321739130434783 0.06666666666666667 0  1.338260869565217 0.06666666666666667 0  1.354782608695652 0.06666666666666667 0  1.371304347826087 0.06666666666666667 0  1.387826086956522 0.06666666666666667 0  1.090434782608696 0.08333333333333333 0  1.10695652173913 0.08333333333333333 0  1.123478260869565 0.08333333333333333 0  1.14 0.08333333333333333 0  1.156521739130435 0.08333333333333333 0  1.17304347826087 0.08333333333333333 0  1.189565217391304 0.08333333333333333 0  1.206086956521739 0.08333333333333333 0  1.222608695652174 0.08333333333333333 0  1.239130434782609 0.08333333333333333 0  1.255652173913044 0.08333333333333333 0  1.272173913043478 0.08333333333333333 0  1.288695652173913 0.08333333333333333 0  1.305217391304348 0.08333333333333333 0  1.321739130434783 0.08333333333333333 0  1.338260869565217 0.08333333333333333 0  1.354782608695652 0.08333333333333333 0  1.371304347826087 0.08333333333333333 0  1.387826086956522 0.08333333333333333 0  1.404347826086957 0.08333333333333333 0  1.10695652173913 0.1 0  1.123478260869565 0.1 0  1.14 0.1 0  1.156521739130435 0.1 0  1.17304347826087 0.1 0  1.189565217391304 0.1 0  1.206086956521739 0.1 0  1.222608695652174 0.1 0  1.239130434782609 0.1 0  1.255652173913044 0.1 0  1.272173913043478 0.1 0  1.288695652173913 0.1 0  1.305217391304348 0.1 0  1.321739130434783 0.1 0  1.338260869565217 0.1 0  1.354782608695652 0.1 0  1.371304347826087 0.1 0  1.387826086956522 0.1 0  1.404347826086957 0.1 0  1.420869565217391 0.1 0  1.123478260869565 0.1166666666666667 0  1.14 0.1166666666666667 0  1.156521739130435 0.1166666666666667 0  1.17304347826087 0.1166666666666667 0  1.189565217391304 0.1166666666666667 0  1.206086956521739 0.1166666666666667 0  1.222608695652174 0.1166666666666667 0  1.239130434782609 0.1166666666666667 0  1.255652173913044 0.1166666666666667 0  1.272173913043478 0.1166666666666667 0  1.288695652173913 0.1166666666666667 0  1.305217391304348 0.1166666666666667 0  1.321739130434783 0.1166666666666667 0  1.338260869565217 0.1166666666666667 0  1.354782608695652 0.1166666666666667 0  1.371304347826087 0.1166666666666667 0  1.387826086956522 0.1166666666666667 0  1.404347826086957 0.1166666666666667 0  1.420869565217391 0.1166666666666667 0  1.437391304347826 0.1166666666666667 0  1.14 0.1333333333333333 0  1.156521739130435 0.1333333333333333 0  1.17304347826087 0.1333333333333333 0  1.189565217391304 0.1333333333333333 0  1.206086956521739 0.1333333333333333 0  1.222608695652174 0.1333333333333333 0  1.239130434782609 0.1333333333333333 0  1.255652173913044 0.1333333333333333 0  1.272173913043478 0.1333333333333333 0  1.288695652173913 0.1333333333333333 0  1.305217391304348 0.1333333333333333 0  1.321739130434783 0.1333333333333333 0  1.338260869565217 0.1333333333333333 0  1.354782608695652 0.1333333333333333 0  1.371304347826087 0.1333333333333333 0  1.387826086956522 0.1333333333333333 0  1.404347826086957 0.1333333333333333 0  1.420869565217391 0.1333333333333333 0  1.437391304347826 0.1333333333333333 0  1.453913043478261 0.1333333333333333 0  1.156521739130435 0.15 0  1.17304347826087 0.15 0  1.189565217391304 0.15 0  1.206086956521739 0.15 0  1.222608695652174 0.15 0  1.239130434782609 0.15 0  1.255652173913044 0.15 0  1.272173913043478 0.15 0  1.288695652173913 0.15 0  1.305217391304348 0.15 0  1.321739130434783 0.15 0  1.338260869565217 0.15 0  1.354782608695652 0.15 0  1.371304347826087 0.15 0  1.387826086956522 0.15 0  1.404347826086957 0.15 0  1.420869565217391 0.15 0  1.437391304347826 0.15 0  1.453913043478261 0.15 0  1.470434782608696 0.15 0  1.17304347826087 0.1666666666666667 0  1.189565217391304 0.1666666666666667 0  1.206086956521739 0.1666666666666667 0  1.222608695652174 0.1666666666666667 0  1.239130434782609 0.1666666666666667 0  1.255652173913044 0.1666666666666667 0  1.272173913043478 0.1666666666666667 0  1.288695652173913 0.1666666666666667 0  1.305217391304348 0.1666666666666667 0  1.321739130434783 0.1666666666666667 0  1.338260869565217 0.1666666666666667 0  1.354782608695652 0.1666666666666667 0  1.371304347826087 0.1666666666666667 0  1.387826086956522 0.1666666666666667 0  1.404347826086957 0.1666666666666667 0  1.420869565217391 0.1666666666666667 0  1.437391304347826 0.1666666666666667 0  1.453913043478261 0.1666666666666667 0  1.470434782608696 0.1666666666666667 0  1.486956521739131 0.1666666666666667 0  1.189565217391304 0.1833333333333333 0  1.206086956521739 0.1833333333333333 0  1.222608695652174 0.1833333333333333 0  1.239130434782609 0.1833333333333333 0  1.255652173913044 0.1833333333333333 0  1.272173913043478 0.1833333333333333 0  1.288695652173913 0.1833333333333333 0  1.305217391304348 0.1833333333333333 0  1.321739130434783 0.1833333333333333 0  1.338260869565217 0.1833333333333333 0  1.354782608695652 0.1833333333333333 0  1.371304347826087 0.1833333333333333 0  1.387826086956522 0.1833333333333333 0  1.404347826086957 0.1833333333333333 0  1.420869565217391 0.1833333333333333 0  1.437391304347826 0.1833333333333333 0  1.453913043478261 0.1833333333333333 0  1.470434782608696 0.1833333333333333 0  1.486956521739131 0.1833333333333333 0  1.503478260869565 0.1833333333333333 0  1.206086956521739 0.2 0  1.222608695652174 0.2 0  1.239130434782609 0.2 0  1.255652173913044 0.2 0  1.272173913043478 0.2 0  1.288695652173913 0.2 0  1.305217391304348 0.2 0  1.321739130434783 0.2 0  1.338260869565217 0.2 0  1.354782608695652 0.2 0  1.371304347826087 0.2 0  1.387826086956522 0.2 0  1.404347826086957 0.2 0  1.420869565217391 0.2 0  1.437391304347826 0.2 0  1.453913043478261 0.2 0  1.470434782608696 0.2 0  1.486956521739131 0.2 0  1.503478260869565 0.2 0  1.52 0.2 0  1.222608695652174 0.2166666666666667 0  1.239130434782609 0.2166666666666667 0  1.255652173913044 0.2166666666666667 0  1.272173913043478 0.2166666666666667 0  1.288695652173913 0.2166666666666667 0  1.305217391304348 0.2166666666666667 0  1.321739130434783 0.2166666666666667 0  1.338260869565217 0.2166666666666667 0  1.354782608695652 0.2166666666666667 0  1.371304347826087 0.2166666666666667 0  1.387826086956522 0.2166666666666667 0  1.404347826086957 0.2166666666666667 0  1.420869565217391 0.2166666666666667 0  1.437391304347826 0.2166666666666667 0  1.453913043478261 0.2166666666666667 0  1.470434782608696 0.2166666666666667 0  1.486956521739131 0.2166666666666667 0  1.503478260869565 0.2166666666666667 0  1.52 0.2166666666666667 0  1.536521739130435 0.2166666666666667 0  1.239130434782609 0.2333333333333333 0  1.255652173913044 0.2333333333333333 0  1.272173913043478 0.2333333333333333 0  1.288695652173913 0.2333333333333333 0  1.305217391304348 0.23333
[...]
<PointData  Vectors="Displacement"> 
<DataArray  type="Float64"  Name="Displacement"  NumberOfComponents="3" format="ascii">1.7063511614296751e-04 1.5654815404635841e-03 0.0000000000000000e+00  1.7305886434481758e-04 1.5903233905285679e-03 0.0000000000000000e+00  1.4801257660176844e-04 1.5895121742764376e-03 0.0000000000000000e+00  1.4558398536425240e-04 1.5646723492758032e-03 0.0000000000000000e+00  1.7547704919532867e-04 1.6151637011910702e-03 0.0000000000000000e+00  1.5044731289853860e-04 1.6143482432043131e-03 0.0000000000000000e+00  1.7788616504182253e-04 1.6399859068720374e-03 0.0000000000000000e+00  1.5290130579393690e-04 1.6391648902090506e-03 0.0000000000000000e+00  1.8028367030774626e-04 1.6647481659792861e-03 0.0000000000000000e+00  1.5539178560001319e-04 1.6639199439888192e-03 0.0000000000000000e+00  1.8267131949754466e-04 1.6893871351011094e-03 0.0000000000000000e+00  1.5793673342812681e-04 1.6885484943821587e-03 0.0000000000000000e+00  1.8505540297532276e-04 1.7138269789447236e-03 0.0000000000000000e+00  1.6055437588134152e-04 1.7129736938107528e-03 0.0000000000000000e+00  1.8744354864566178e-04 1.7379850486311246e-03 0.0000000000000000e+00  1.6326149489126558e-04 1.7371145367004780e-03 0.0000000000000000e+00  1.8984050667936373e-04 1.7617753600837208e-03 0.0000000000000000e+00  1.6606609202635326e-04 1.7608890465307034e-03 0.0000000000000000e+00  1.9224639846388879e-04 1.7851164117855145e-03 0.0000000000000000e+00  1.6895934430250273e-04 1.7842185602424566e-03 0.0000000000000000e+00  1.9465820957290415e-04 1.8079406231316908e-03 0.0000000000000000e+00  1.7191988718024792e-04 1.8070357332670595e-03 0.0000000000000000e+00  1.9707158137340325e-04 1.8301976403257362e-03 0.0000000000000000e+00  1.7492485138648163e-04 1.8292903664262551e-03 0.0000000000000000e+00  1.9948078130363147e-04 1.8518533697076253e-03 0.0000000000000000e+00  1.7795137283649570e-04 1.8509501840475390e-03 0.0000000000000000e+00  2.0187762477653180e-04 1.8728914342560122e-03 0.0000000000000000e+00  1.8096987376413232e-04 1.8720022566376820e-03 0.0000000000000000e+00  2.0425180417148580e-04 1.8933213799315343e-03 0.0000000000000000e+00  1.8393647506901315e-04 1.8924584613559997e-03 0.0000000000000000e+00  2.0659658791516083e-04 1.9131928436343182e-03 0.0000000000000000e+00  1.8679600264696371e-04 1.9123623957217493e-03 0.0000000000000000e+00  2.0891867448370312e-04 1.9326000009983685e-03 0.0000000000000000e+00  1.8951401866238335e-04 1.9317929973172074e-03 0.0000000000000000e+00  2.1123718246074066e-04 1.9516652619679296e-03 0.0000000000000000e+00  1.9210939326100743e-04 1.9508633951724793e-03 0.0000000000000000e+00  2.1356472300196466e-04 1.9705137568433364e-03 0.0000000000000000e+00  1.9463219049398593e-04 1.9697028052289155e-03 0.0000000000000000e+00  1.9714048503639617e-04 1.9883945101456650e-03 0.0000000000000000e+00  1.2295371399724935e-04 1.5887037073976831e-03 0.0000000000000000e+00  1.2537601137195645e-04 1.6135360256559019e-03 0.0000000000000000e+00  1.2782830575937745e-04 1.6383437179451489e-03 0.0000000000000000e+00  1.3036975749262811e-04 1.6630847713015576e-03 0.0000000000000000e+00  1.3304772392154986e-04 1.6876940986509362e-03 0.0000000000000000e+00  1.3588891425194588e-04 1.7120940847869905e-03 0.0000000000000000e+00  1.3890590586218202e-04 1.7362038526099811e-03 0.0000000000000000e+00  1.4210019816094944e-04 1.7599445106135745e-03 0.0000000000000000e+00  1.4545599129266819e-04 1.7832432964307600e-03 0.0000000000000000e+00  1.4894055085804347e-04 1.8060372203187449e-03 0.0000000000000000e+00  1.5251514965163430e-04 1.8282767424474197e-03 0.0000000000000000e+00  1.5613975056963584e-04 1.8499298525113787e-03 0.0000000000000000e+00  1.5976653234990004e-04 1.8709861272458038e-03 0.0000000000000000e+00  1.6333220116713189e-04 1.8914620386092105e-03 0.0000000000000000e+00  1.6676207387528809e-04 1.9114040371910215e-03 0.0000000000000000e+00  1.6999233126497508e-04 1.9308839407326292e-03 0.0000000000000000e+00  1.7297878235397971e-04 1.9499982620682962e-03 0.0000000000000000e+00  1.7570125508396104e-04 1.9688618673629481e-03 0.0000000000000000e+00  1.7826990024839484e-04 1.9875503425851545e-03 0.0000000000000000e+00  1.8098155939664661e-04 2.0060235608785264e-03 0.0000000000000000e+00  1.2543093685561015e-04 1.6039688535006084e-03 0.0000000000000000e+00  1.2840939289682451e-04 1.6291732932430215e-03 0.0000000000000000e+00  1.3142177648906153e-04 1.6542943846373113e-03 0.0000000000000000e+00  1.3449486374426413e-04 1.6792761449573629e-03 0.0000000000000000e+00  1.3764593155029639e-04 1.7040542534097673e-03 0.0000000000000000e+00  1.4088092242281968e-04 1.7285598304922381e-03 0.0000000000000000e+00  1.4419474462066094e-04 1.7527246185480494e-03 0.0000000000000000e+00  1.4757122138344601e-04 1.7764858957688430e-03 0.0000000000000000e+00  1.5098391477531842e-04 1.7997886072342630e-03 0.0000000000000000e+00  1.5439868367315987e-04 1.8225872187714034e-03 0.0000000000000000e+00  1.5777614037204332e-04 1.8448503217273311e-03 0.0000000000000000e+00  1.6107279123210472e-04 1.8665655938620237e-03 0.0000000000000000e+00  1.6424272406222629e-04 1.8877425051631220e-03 0.0000000000000000e+00  1.6724312876424173e-04 1.9084105635785885e-03 0.0000000000000000e+00  1.7004441347137476e-04 1.9286127938882695e-03 0.0000000000000000e+00  1.7264215142296280e-04 1.9484018968927500e-03 0.0000000000000000e+00  1.7507271658658241e-04 1.9678260982259879e-03 0.0000000000000000e+00  1.7743358087581214e-04 1.9868810593457746e-03 0.0000000000000000e+00  1.7988106752184812e-04 2.0054792741236787e-03 0.0000000000000000e+00  1.8257983197627855e-04 2.0234532463778887e-03 0.0000000000000000e+00  1.2805081437798144e-04 1.6197202962232584e-03 0.0000000000000000e+00  1.3146419959710065e-04 1.6452802057187654e-03 0.0000000000000000e+00  1.3487517178239445e-04 1.6707061008570574e-03 0.0000000000000000e+00  1.3829153893592052e-04 1.6959406976311648e-03 0.0000000000000000e+00  1.4171344086899736e-04 1.7209235674397658e-03 0.0000000000000000e+00  1.4513249439171492e-04 1.7455944586977257e-03 0.0000000000000000e+00  1.4853202757177496e-04 1.7698968778219715e-03 0.0000000000000000e+00  1.5188809312279971e-04 1.7937802100686966e-03 0.0000000000000000e+00  1.5517090184050976e-04 1.8172015075821608e-03 0.0000000000000000e+00  1.5834667980140144e-04 1.8401286579678077e-03 0.0000000000000000e+00  1.6138033365196961e-04 1.8625436204239550e-03 0.0000000000000000e+00  1.6423931077810613e-04 1.8844434600451254e-03 0.0000000000000000e+00  1.6689899769923417e-04 1.9058376508572156e-03 0.0000000000000000e+00  1.6934935178526225e-04 1.9267420924716473e-03 0.0000000000000000e+00  1.7160207254905051e-04 1.9471726250832385e-03 0.0000000000000000e+00  1.7369778125257961e-04 1.9671318044540108e-03 0.0000000000000000e+00  1.7570776966612062e-04 1.9865831046913095e-03 0.0000000000000000e+00  1.7772018779496382e-04 2.0054404168347909e-03 0.0000000000000000e+00  1.7981070735372090e-04 2.0235861113257871e-03 0.0000000000000000e+00  1.8201017947689935e-04 2.0409273011475809e-03 0.0000000000000000e+00  1.3056844287895870e-04 1.6360797039260116e-03 0.0000000000000000e+00  1.3427011659252703e-04 1.6620111162531186e-03 0.0000000000000000e+00  1.3791551961348081e-04 1.6877693495862458e-03 0.0000000000000000e+00  1.4150026650670844e-04 1.7132992967090358e-03 0.0000000000000000e+00  1.4501373694738665e-04 1.7385459308457837e-03 0.0000000000000000e+00  1.4843916301549254e-04 1.7634566643300884e-03 0.0000000000000000e+00  1.5175447328605971e-04 1.7879830929734555e-03 0.0000000000000000e+00  1.5493359861744915e-04 1.8120825326457593e-03 0.0000000000000000e+00  1.5794832797552455e-04 1.8357199850526503e-03 0.0000000000000000e+00  1.6077108578268061e-04 1.8588697781578684e-03 0.0000000000000000e+00  1.6337870185356910e-04 1.8815155306855388e-03 0.0000000000000000e+00  1.6575683194935289e-04 1.9036475506394260e-03 0.0000000000000000e+00  1.6790435932690262e-04 1.9252579981962970e-03 0.0000000000000000e+00  1.6983705372906831e-04 1.9463349185275943e-03 0.0000000000000000e+00  1.7158944312126422e-04 1.9668530666653466e-03 0.0000000000000000e+00  1.7321154967468540e-04 1.9867619474372026e-03 0.0000000000000000e+00  1.7475703966944107e-04 2.0059850007008058e-03 0.0000000000000000e+00  1.7626643321053977e-04 2.0244359176477024e-03 0.0000000000000000e+00  1.7775434895895531e-04 2.0420490205905529e-03 0.0000000000000000e+00  1.7921062194575207e-04 2.0587903099251333e-03 0.0000000000000000e+00  1.3274733434332598e-04 1.6532109870775402e-03 0.0000000000000000e+00  1.3659152196287202e-04 1.6795510099323287e-03 0.0000000000000000e+00  1.4031935241071706e-04 1.7056881458701512e-03 0.0000000000000000e+00  1.4391880973196416e-04 1.7315704859331902e-03 0.0000000000000000e+00  1.4737332673029154e-04 1.7571475515461093e-03 0.0000000000000000e+00  1.5066247565213145e-04 1.7823715092755090e-03 0.0000000000000000e+00  1.5376318630967129e-04 1.8071982113775592e-03 0.0000000000000000e+00  1.5665155432188264e-04 1.8315882326009544e-03 0.0000000000000000e+00  1.5930539513950268e-04 1.8555074520528909e-03 0.0000000000000000e+00  1.6170744842801117e-04 1.8789264714313293e-03 0.0000000000000000e+00  1.6384877914640386e-04 1.9018184535919190e-03 0.0000000000000000e+00  1.6573168419602589e-04 1.9241556333591393e-03 0.0000000000000000e+00  1.6737138392329464e-04 1.9459051083470895e-03 0.0000000000000000e+00  1.6879562295743454e-04 1.9670236768442933e-03 0.0000000000000000e+00  1.7004061082080501e-04 1.9874534845262279e-03 0.0000000000000000e+00  1.7114249832716899e-04 2.0071252849764138e-03 0.0000000000000000e+00  1.7212758468547907e-04 2.0259705578860891e-03 0.0000000000000000e+00  1.7300640344315650e-04 2.0439374356400375e-03 0.0000000000000000e+00  1.7377450582421931e-04 2.0609943165200255e-03 0.0000000000000000e+00  1.7441387339794170e-04 2.0771146960054531e-03 0.0000000000000000e+00  1.3437823452116886e-04 1.6712929685153853e-03 0.0000000000000000e+00  1.3823185134868504e-04 1.6980895161009784e-03 0.0000000000000000e+00  1.4190985870770256e-04 1.7246595994182506e-03 0.0000000000000000e+00  1.4539618431097978e-04 1.7509535820045090e-03 0.0000000000000000e+00  1.4867184165830350e-04 1.7769230919787865e-03 0.0000000000000000e+00  1.5171600823961373e-04 1.8025214879882157e-03 0.0000000000000000e+00  1.5450768910112134e-04 1.8277041498606296e-03 0.0000000000000000e+00  1.5702799961998600e-04 1.8524283719580296e-03 0.0000000000000000e+00  1.5926289143027375e-04 1.8766525598577922e-03 0.0000000000000000e+00  1.6120587200364801e-04 1.9003346244607171e-03 0.0000000000000000e+00  1.6286008336463488e-04 1.9234298212747543e-03 0.0000000000000000e+00  1.6423908135140109e-04 1.9458884822812054e-03 0.0000000000000000e+00  1.6536568782651964e-04 1.9676539870860468e-03 0.0000000000000000e+00  1.6626831835553159e-04 1.9886625293946279e-03 0.0000000000000000e+00  1.6697484993029061e-04 2.0088481617735209e-03 0.0000000000000000e+00  1.6750666376174058e-04 2.0281514705279614e-03 0.0000000000000000e+00  1.6787577761990450e-04 2.0465278712011392e-03 0.0000000000000000e+00  1.6808487798709986e-04 2.0639490846731078e-03 0.0000000000000000e+00  1.6812594028708027e-04 2.0803976380089429e-03 0.0000000000000000e+00  1.6797344101880581e-04 2.0958735834916524e-03 0.0000000000000000e+00  1.3528352228047455e-04 1.6905021367484942e-03 0.0000000000000000e+00  1.3903237011700644e-04 1.7178053487340666e-03 0.0000000000000000e+00  1.4255191033893342e-04 1.7448605900862797e-03 0.0000000000000000e+00  1.4582448768886200e-04 1.7716183839935711e-03 0.0000000000000000e+00  1.4883087988107170e-04 1.7980292034455248e-03 0.0000000000000000e+00  1.5155175919529245e-04 1.8240430973288687e-03 0.0000000000000000e+00  1.5396976040981444e-04 1.8496090453156218e-03 0.0000000000000000e+00  1.5607197538552487e-04 1.8746740362427280e-03 0.0000000000000000e+00  1.5785244831990986e-04 1.8991819938767903e-03 0.0000000000000000e+00  1.5931405258378962e-04 1.9230728392298680e-03 0.0000000000000000e+00  1.6046907417097703e-04 1.9462820453426690e-03 0.0000000000000000e+00  1.6133795221681831e-04 1.9687410073015894e-03 0.0000000000000000e+00  1.6194593939769590e-04 1.9903791919160538e-03 0.0000000000000000e+00  1.6231780406681016e-04 2.0111304375469690e-03 0.0000000000000000e+00  1.6247395599491875e-04 2.0309387801480581e-03 0.0000000000000000e+00  1.6243051998907085e-04 2.0497620358200493e-03 0.0000000000000000e+00  1.6220094392747014e-04 2.0675734323501943e-03 0.0000000000000000e+00  1.6179331593426933e-04 2.0843615287253724e-03 0.0000000000000000e+00  1.6119748077594276e-04 2.1001411826291659e-03 0.0000000000000000e+00  1.6036229525848383e-04 2.1149541662607691e-03 0.0000000000000000e+00  1.3531635467961648e-04 1.7110009874951385e-03 0.0000000000000000e+00  1.3886834231521239e-04 1.7388562818734538e-03 0.0000000000000000e+00  1.4214561911962746e-04 1.7664403292560781e-03 0.0000000000000000e+00  1.4513014137035183e-04 1.7937009257313842e-03 0.0000000000000000e+00  1.4780324856946550e-04 1.8205832108190117e-03 0.0000000000000000e+00  1.5014757450555478e-04 1.8470284249729918e-03 0.0000000000000000e+00  1.5214957888431025e-04 1.8729727517434449e-03 0.0000000000000000e+00  1.5380232176120414e-04 1.8983466114884391e-03 0.0000000000000000e+00  1.5510780672421310e-04 1.9230748170478368e-03 0.0000000000000000e+00  1.5607803310905595e-04 1.9470779109059984e-03 0.0000000000000000e+00  1.5673399202709493e-04 1.9702747212142495e-03 0.0000000000000000e+00  1.5710215256872629e-04 1.9925864743840357e-03 0.0000000000000000e+00  1.5720738909461235e-04 2.0139452100847019e-03 0.0000000000000000e+00  1.5706896572952882e-04 2.0342951963526479e-03 0.0000000000000000e+00  1.5670567602599192e-04 2.0535907681545991e-03 0.0000000000000000e+00  1.5614443538223985e-04 2.0717992791217804e-03 0.0000000000000000e+00  1.5542223254133808e-04 2.0889097443977161e-03 0.0000000000000000e+00  1.5455793809447953e-04 2.1049592683471448e-03 0.0000000000000000e+00  1.5350736802923734e-04 2.1200584606430911e-03 0.0000000000000000e+00  1.5214697118461583e-04 2.1341310312152761e-03 0.0000000000000000e+00  1.3435769652695603e-04 1.7329304708044806e-03 0.0000000000000000e+00  1.3764418086216468e-04 1.7613739608390339e-03 0.0000000000000000e+00  1.4061976729930659e-04 1.7895180399003074e-03 0.0000000000000000e+00  1.4326577726266651e-04 1.8173039800599520e-03 0.0000000000000000e+00  1.4556349428125701e-04 1.8446662732669447e-03 0.0000000000000000e+00  1.4749691911162364e-04 1.8715308512955698e-03 0.0000000000000000e+00  1.4905635164715630e-04 1.8978143559687322e-03 0.0000000000000000e+00  1.5024204933372336e-04 1.9234251845433520e-03 0.0000000000000000e+00  1.5106668984207094e-04 1.9482667516387390e-03 0.0000000000000000e+00  1.5155531264577564e-04 1.9722426620824474e-03 0.0000000000000000e+00  1.5174133636999869e-04 1.9952637238074482e-03 0.0000000000000000e+00  1.5165386148909492e-04 2.0172629633636065e-03 0.0000000000000000e+00  1.5130774558124027e-04 2.0381872616196373e-03 0.0000000000000000e+00  1.5071372620937049e-04 2.0579791992218848e-03 0.0000000000000000e+00  1.4990851377629747e-04 2.0765827315687119e-03 0.0000000000000000e+00  1.4897155473390610e-04 2.0939636158919411e-03 0.0000000000000000e+00  1.4799258463279861e-04 2.1102013582802231e-03 0.0000000000000000e+00  1.4691223783579464e-04 2.1255217251706315e-03 0.0000000000000000e+00  1.4574041783598928e-04 2.1399885964054300e-03 0.0000000000000000e+00  1.4404701331468435e-04 2.1527153253726346e-03 0.0000000000000000e+00  1.3231283333222708e-04 1.7564064452868120e-03 0.0000000000000000e+00  1.3528880396606455e-04 1.7854631933265218e-03 0.0000000000000000e+00  1.3792601466125750e-04 1.8141851230389038e-03 0.0000000000000000e+00  1.4020327244287429e-04 1.8425017419868436e-03 0.0000000000000000e+00  1.4209998342793918e-04 1.8703296446923399e-03 0.0000000000000000e+00  1.4360097674347461e-04 1.8975709048775415e-03 0.0000000000000000e+00  1.4470263178185548e-04 1.9241144864258440e-03 0.0000000000000000e+00  1.4541841599728384e-04 1.9498416653907361e-03 0.0000000000000000e+00  1.4578141544843690e-04 1.9746346862527559e-03 0.0000000000000000e+00  1.4584089442876822e-04 1.9983891817681979e-03 0.0000000000000000e+00  1.4563781825340969e-04 2.0210478357351167e-03 0.0000000000000000e+00  1.4518428432926101e-04 2.0425782623637923e-03 0.0000000000000000e+00  1.4446133031899874e-04 2.0629097935462469e-03 0.0000000000000000e+00  1.4347830382527540e-04 2.0819178213736353e-03 0.0000000000000000e+00  1.4238332994271385e-04 2.0994974374195802e-03 0.0000000000000000e+00  1.4135004905428935e-04 2.1157295942522709e-03 0.0000000000000000e+00  1.4046365242481224e-04 2.1312463957547569e-03 0.0000000000000000e+00  1.3940971791925535e-04 2.1456232502552936e-03 0.0000000000000000e+00  1.3996092216641724e-04 2.1594623549177211e-03 0.0000000000000000e+00  1.3763946940043722e-04 2.1677142315764371e-03 0.0000000000000000e+00  1.2910832777098189e-04 1.7815202436775738e-03 0.0000000000000000e+00  1.3175184337479599e-04 1.8112057259389441e-03 0.0000000000000000e+00  1.3403405959677489e-04 1.8405117888258423e-03 0.0000000000000000e+00  1.3592745848815130e-04 1.8693478929722026e-03 0.0000000000000000e+00  1.3740712826609524e-04 1.8976010223233210e-03 0.0000000000000000e+00  1.3846070480786506e-04 1.9251359571898379e-03 0.0000000000000000e+00  1.3909997072942176e-04 1.9518027136191005e-03 0.0000000000000000e+00  1.3937005592587335e-04 1.9774497754107357e-03 0.0000000000000000e+00  1.3934935866883406e-04 2.0019446818750060e-03 0.0000000000000000e+00  1.3910447988623473e-04 2.0252568278209954e-03 0.0000000000000000e+00  1.3864877235836930e-04 2.0474043564672612e-03 0.0000000000000000e+00  1.3795456901292654e-04 2.0683586918767063e-03 0.0000000000000000e+00  1.3690037445540656e-04 2.0878702096059345e-03 0.0000000000000000e+00  1.3559459766407470e-04 2.1055325033313217e-03 0.0000000000000000e+00  1.3459443759499196e-04 2.1215790164428434e-03 0.0000000000000000e+00  1.3353183410288755e-04 2.1367687066821172e-03 0.0000000000000000e+00  1.3404585047488090e-04 2.1519400524450355e-03 0.0000000000000000e+00  1.3299198068755327e-04 2.1600337110735165e-03 0.0000000000000000e+00  1.3226665018063451e-04 2.1675362448385633e-03 0.0000000000000000e+00  1.3171402997118830e-04 2.1743576944803725e-03 0.0000000000000000e+00  1.2468980591150310e-04 1.8083439403796192e-03 0.0000000000000000e+00  1.2700069953855623e-04 1.8386693603449601e-03 0.0000000000000000e+00  1.2892696056211617e-04 1.8685587273992808e-03 0.0000000000000000e+00  1.3042828288195213e-04 1.8978858127389083e-03 0.0000000000000000e+00  1.3147385127375822e-04 1.9264856246945059e-03 0.0000000000000000e+00  1.3206509989228181e-04 1.9541620062057943e-03 0.0000000000000000e+00  1.3226076446765759e-04 1.9807050837342445e-03 0.0000000000000000e+00  1.3219152757504749e-04 2.0059252192512656e-03 0.0000000000000000e+00  1.3196173972557042e-04 2.0298425663378521e-03 0.0000000000000000e+00  1.3160828220543084e-04 2.0525848812219605e-03 0.0000000000000000e+00  1.3107227472603506e-04 2.0741500380837053e-03 0.0000000000000000e+00  1.3043478427941836e-04 2.0945059955991795e-03 0.0000000000000000e+00  1.2904218756011466e-04 2.1123158752558648e-03 0.0000000000000000e+00  1.2766406537391490e-04 2.1271164713422661e-03 0.0000000000000000e+00  1.2836926753160608e-04 2.1428557961052511e-03 0.0000000000000000e+00  1.2739432363252943e-04 2.1518038913505544e-03 0.0000000000000000e+00  1.2690044226819724e-04 2.1598417567601242e-03 0.0000000000000000e+00  1.2635536857477211e-04 2.1674081155295065e-03 0.0000000000000000e+00  1.2599026453991651e-04 2.1742905521917530e-03 0.0000000000000000e+00  1.2572909418361023e-04 2.1805743021267149e-03 0.0000000000000000e+00  1.1902031983257318e-04 1.8369421534469544e-03 0.0000000000000000e+00  1.2101757097791604e-04 1.8679249437124313e-03 0.0000000000000000e+00  1.2259425959942986e-04 1.8983957505073503e-03 0.0000000000000000e+00  1.2368609784596668e-04 1.9281584341287608e-03 0.0000000000000000e+00  1.2426048480555928e-04 1.9569482045438220e-03 0.0000000000000000e+