<?xml version="1.0"?>
<VTKFile type="UnstructuredGrid"  version="0.1"  >
<UnstructuredGrid>
<Piece  NumberOfPoints="629" NumberOfCells="1162">
<Points>
<DataArray  type="Float64"  NumberOfComponents="3"  format="ascii">0.7104347826086956 0 0  0.7269565217391304 0 0  0.7269565217391304 0.01666666666666667 0  0.7104347826086956 0.01666666666666667 0  0.7434782608695653 0 0  0.7434782608695653 0.01666666666666667 0  0.7599999999999999 0 0  0.7599999999999999 0.01666666666666667 0  0.7765217391304348 0 0  0.7765217391304348 0.01666666666666667 0  0.7930434782608695 0 0  0.7930434782608695 0.01666666666666667 0  0.8095652173913043 0 0  0.8095652173913043 0.01666666666666667 0  0.8260869565217391 0 0  0.8260869565217391 0.01666666666666667 0  0.8426086956521739 0 0  0.8426086956521739 0.01666666666666667 0  0.8591304347826086 0 0  0.8591304347826086 0.01666666666666667 0  0.8756521739130434 0 0  0.8756521739130434 0.01666666666666667 0  0.8921739130434783 0 0  0.8921739130434783 0.01666666666666667 0  0.908695652173913 0 0  0.908695652173913 0.01666666666666667 0  0.9252173913043478 0 0  0.9252173913043478 0.01666666666666667 0  0.9417391304347826 0 0  0.9417391304347826 0.01666666666666667 0  0.9582608695652173 0 0  0.9582608695652173 0.01666666666666667 0  0.9747826086956521 0 0  0.9747826086956521 0.01666666666666667 0  0.991304347826087 0 0  0.991304347826087 0.01666666666666667 0  1.007826086956522 0 0  1.007826086956522 0.01666666666666667 0  1.024347826086957 0 0  1.024347826086957 0.01666666666666667 0  0.7269565217391304 0.03333333333333333 0  0.7104347826086956 0.03333333333333333 0  0.7434782608695653 0.03333333333333333 0  0.7599999999999999 0.03333333333333333 0  0.7765217391304348 0.03333333333333333 0  0.7930434782608695 0.03333333333333333 0  0.8095652173913043 0.03333333333333333 0  0.8260869565217391 0.03333333333333333 0  0.8426086956521739 0.03333333333333333 0  0.8591304347826086 0.03333333333333333 0  0.8756521739130434 0.03333333333333333 0  0.8921739130434783 0.03333333333333333 0  0.908695652173913 0.03333333333333333 0  0.9252173913043478 0.03333333333333333 0  0.9417391304347826 0.03333333333333333 0  0.9582608695652173 0.03333333333333333 0  0.9747826086956521 0.03333333333333333 0  0.991304347826087 0.03333333333333333 0  1.007826086956522 0.03333333333333333 0  1.024347826086957 0.03333333333333333 0  1.040869565217391 0.03333333333333333 0  0.7269565217391304 0.05 0  0.7434782608695653 0.05 0  0.7599999999999999 0.05 0  0.7765217391304348 0.05 0  0.7930434782608695 0.05 0  0.8095652173913043 0.05 0  0.8260869565217391 0.05 0  0.8426086956521739 0.05 0  0.8591304347826086 0.05 0  0.8756521739130434 0.05 0  0.8921739130434783 0.05 0  0.908695652173913 0.05 0  0.9252173913043478 0.05 0  0.9417391304347826 0.05 0  0.9582608695652173 0.05 0  0.9747826086956521 0.05 0  0.991304347826087 0.05 0  1.007826086956522 0.05 0  1.024347826086957 0.05 0  1.040869565217391 0.05 0  1.057391304347826 0.05 0  0.7434782608695653 0.06666666666666667 0  0.7599999999999999 0.06666666666666667 0  0.7765217391304348 0.06666666666666667 0  0.7930434782608695 0.06666666666666667 0  0.8095652173913043 0.06666666666666667 0  0.8260869565217391 0.06666666666666667 0  0.8426086956521739 0.06666666666666667 0  0.8591304347826086 0.06666666666666667 0  0.8756521739130434 0.06666666666666667 0  0.8921739130434783 0.06666666666666667 0  0.908695652173913 0.06666666666666667 0  0.9252173913043478 0.06666666666666667 0  0.9417391304347826 0.06666666666666667 0  0.9582608695652173 0.06666666666666667 0  0.9747826086956521 0.06666666666666667 0  0.991304347826087 0.06666666666666667 0  1.007826086956522 0.06666666666666667 0  1.024347826086957 0.06666666666666667 0  1.040869565217391 0.06666666666666667 0  1.057391304347826 0.06666666666666667 0  1.073913043478261 0.06666666666666667 0  0.7599999999999999 0.08333333333333333 0  0.7765217391304348 0.08333333333333333 0  0.7930434782608695 0.08333333333333333 0  0.8095652173913043 0.08333333333333333 0  0.8260869565217391 0.08333333333333333 0  0.8426086956521739 0.08333333333333333 0  0.8591304347826086 0.08333333333333333 0  0.8756521739130434 0.08333333333333333 0  0.8921739130434783 0.08333333333333333 0  0.908695652173913 0.08333333333333333 0  0.9252173913043478 0.08333333333333333 0  0.9417391304347826 0.08333333333333333 0  0.9582608695652173 0.08333333333333333 0  0.9747826086956521 0.08333333333333333 0  0.991304347826087 0.08333333333333333 0  1.007826086956522 0.08333333333333333 0  1.024347826086957 0.08333333333333333 0  1.040869565217391 0.08333333333333333 0  1.057391304347826 0.08333333333333333 0  1.073913043478261 0.08333333333333333 0  1.090434782608696 0.08333333333333333 0  0.7765217391304348 0.1 0  0.7930434782608695 0.1 0  0.8095652173913043 0.1 0  0.8260869565217391 0.1 0  0.8426086956521739 0.1 0  0.8591304347826086 0.1 0  0.8756521739130434 0.1 0  0.8921739130434783 0.1 0  0.908695652173913 0.1 0  0.9252173913043478 0.1 0  0.9417391304347826 0.1 0  0.9582608695652173 0.1 0  0.9747826086956521 0.1 0  0.991304347826087 0.1 0  1.007826086956522 0.1 0  1.024347826086957 0.1 0  1.040869565217391 0.1 0  1.057391304347826 0.1 0  1.073913043478261 0.1 0  1.090434782608696 0.1 0  1.10695652173913 0.1 0  0.7930434782608695 0.1166666666666667 0  0.8095652173913043 0.1166666666666667 0  0.8260869565217391 0.1166666666666667 0  0.8426086956521739 0.1166666666666667 0  0.8591304347826086 0.1166666666666667 0  0.8756521739130434 0.1166666666666667 0  0.8921739130434783 0.1166666666666667 0  0.908695652173913 0.1166666666666667 0  0.9252173913043478 0.1166666666666667 0  0.9417391304347826 0.1166666666666667 0  0.9582608695652173 0.1166666666666667 0  0.9747826086956521 0.1166666666666667 0  0.991304347826087 0.1166666666666667 0  1.007826086956522 0.1166666666666667 0  1.024347826086957 0.1166666666666667 0  1.040869565217391 0.1166666666666667 0  1.057391304347826 0.1166666666666667 0  1.073913043478261 0.1166666666666667 0  1.090434782608696 0.1166666666666667 0  1.10695652173913 0.1166666666666667 0  1.123478260869565 0.1166666666666667 0  0.8095652173913043 0.1333333333333333 0  0.8260869565217391 0.1333333333333333 0  0.8426086956521739 0.1333333333333333 0  0.8591304347826086 0.1333333333333333 0  0.8756521739130434 0.1333333333333333 0  0.8921739130434783 0.1333333333333333 0  0.908695652173913 0.1333333333333333 0  0.9252173913043478 0.1333333333333333 0  0.9417391304347826 0.1333333333333333 0  0.9582608695652173 0.1333333333333333 0  0.9747826086956521 0.1333333333333333 0  0.991304347826087 0.1333333333333333 0  1.007826086956522 0.1333333333333333 0  1.024347826086957 0.1333333333333333 0  1.040869565217391 0.1333333333333333 0  1.057391304347826 0.1333333333333333 0  1.073913043478261 0.1333333333333333 0  1.090434782608696 0.1333333333333333 0  1.10695652173913 0.1333333333333333 0  1.123478260869565 0.1333333333333333 0  1.14 0.1333333333333333 0  0.8260869565217391 0.15 0  0.8426086956521739 0.15 0  0.8591304347826086 0.15 0  0.8756521739130434 0.15 0  0.8921739130434783 0.15 0  0.908695652173913 0.15 0  0.9252173913043478 0.15 0  0.9417391304347826 0.15 0  0.9582608695652173 0.15 0  0.9747826086956521 0.15 0  0.991304347826087 0.15 0  1.007826086956522 0.15 0  1.024347826086957 0.15 0  1.040869565217391 0.15 0  1.057391304347826 0.15 0  1.073913043478261 0.15 0  1.090434782608696 0.15 0  1.10695652173913 0.15 0  1.123478260869565 0.15 0  1.14 0.15 0  1.156521739130435 0.15 0  0.8426086956521739 0.1666666666666667 0  0.8591304347826086 0.1666666666666667 0  0.8756521739130434 0.1666666666666667 0  0.8921739130434783 0.1666666666666667 0  0.908695652173913 0.1666666666666667 0  0.9252173913043478 0.1666666666666667 0  0.9417391304347826 0.1666666666666667 0  0.9582608695652173 0.1666666666666667 0  0.9747826086956521 0.1666666666666667 0  0.991304347826087 0.1666666666666667 0  1.007826086956522 0.1666666666666667 0  1.024347826086957 0.1666666666666667 0  1.040869565217391 0.1666666666666667 0  1.057391304347826 0.1666666666666667 0  1.073913043478261 0.1666666666666667 0  1.090434782608696 0.1666666666666667 0  1.10695652173913 0.1666666666666667 0  1.123478260869565 0.1666666666666667 0  1.14 0.1666666666666667 0  1.156521739130435 0.1666666666666667 0  1.17304347826087 0.1666666666666667 0  0.8591304347826086 0.1833333333333333 0  0.8756521739130434 0.1833333333333333 0  0.8921739130434783 0.1833333333333333 0  0.908695652173913 0.1833333333333333 0  0.9252173913043478 0.1833333333333333 0  0.9417391304347826 0.1833333333333333 0  0.9582608695652173 0.1833333333333333 0  0.9747826086956521 0.1833333333333333 0  0.991304347826087 0.1833333333333333 0  1.007826086956522 0.1833333333333333 0  1.024347826086957 0.1833333333333333 0  1.040869565217391 0.1833333333333333 0  1.057391304347826 0.1833333333333333 0  1.073913043478261 0.1833333333333333 0  1.090434782608696 0.1833333333333333 0  1.10695652173913 0.1833333333333333 0  1.123478260869565 0.1833333333333333 0  1.14 0.1833333333333333 0  1.156521739130435 0.1833333333333333 0  1.17304347826087 0.1833333333333333 0  1.189565217391304 0.1833333333333333 0  0.8756521739130434 0.2 0  0.8921739130434783 0.2 0  0.908695652173913 0.2 0  0.9252173913043478 0.2 0  0.9417391304347826 0.2 0  0.9582608695652173 0.2 0  0.9747826086956521 0.2 0  0.991304347826087 0.2 0  1.007826086956522 0.2 0  1.024347826086957 0.2 0  1.040869565217391 0.2 0  1.057391304347826 0.2 0  1.073913043478261 0.2 0  1.090434782608696 0.2 0  1.10695652173913 0.2 0  1.123478260869565 0.2 0  1.14 0.2 0  1.156521739130435 0.2 0  1.17304347826087 0.2 0  1.189565217391304 0.2 0  1.206086956521739 0.2 0  0.8921739130434783 0.2166666666666667 0  0.908695652173913 0.2166666666666667 0  0.9252173913043478 0.2166666666666667 0  0.9417391304347826 0.2166666666666667 0  0.9582608695652173 0.2166666666666667 0  0.9747826086956521 0.2166666666666667 0  0.991304347826087 0.2166666666666667 0  1.007826086956522 0.2166666666666667 0  1.02434782608
[...]
<PointData  Vectors="Displacement"> 
<DataArray  type="Float64"  Name="Displacement"  NumberOfComponents="3" format="ascii">1.2345616867034915e-04 1.1027859190242443e-03 0.0000000000000000e+00  1.2593548792841759e-04 1.1256410301196463e-03 0.0000000000000000e+00  1.0282491525865706e-04 1.1248619032796961e-03 0.0000000000000000e+00  1.0028405114006650e-04 1.1019923214646470e-03 0.0000000000000000e+00  1.2844843453099170e-04 1.1485198780946371e-03 0.0000000000000000e+00  1.0517129690802251e-04 1.1477326924170088e-03 0.0000000000000000e+00  1.3100637235451327e-04 1.1716725252949632e-03 0.0000000000000000e+00  1.0742060613457459e-04 1.1708765137752079e-03 0.0000000000000000e+00  1.3359018376868760e-04 1.1952218715791441e-03 0.0000000000000000e+00  1.0962448097858241e-04 1.1944165100941872e-03 0.0000000000000000e+00  1.3617537741876279e-04 1.2192007729669777e-03 0.0000000000000000e+00  1.1182739156575863e-04 1.2183864449708012e-03 0.0000000000000000e+00  1.3873974142462962e-04 1.2435711793080081e-03 0.0000000000000000e+00  1.1406519182044772e-04 1.2427497705748902e-03 0.0000000000000000e+00  1.4126793511580650e-04 1.2682362172846801e-03 0.0000000000000000e+00  1.1636544664772686e-04 1.2674115091754995e-03 0.0000000000000000e+00  1.4375824206239651e-04 1.2930591584643665e-03 0.0000000000000000e+00  1.1874388392719592e-04 1.2922334417498290e-03 0.0000000000000000e+00  1.4622090475472933e-04 1.3179110415534212e-03 0.0000000000000000e+00  1.2119573845307983e-04 1.3170863846022169e-03 0.0000000000000000e+00  1.4866745077962175e-04 1.3427122387237509e-03 0.0000000000000000e+00  1.2369049785232030e-04 1.3418929032491702e-03 0.0000000000000000e+00  1.5110675141556982e-04 1.3674391601228516e-03 0.0000000000000000e+00  1.2618572764370545e-04 1.3666264859803861e-03 0.0000000000000000e+00  1.5354624987286720e-04 1.3921130706669956e-03 0.0000000000000000e+00  1.2865398630361138e-04 1.3913040290327956e-03 0.0000000000000000e+00  1.5599020066413088e-04 1.4167758872006917e-03 0.0000000000000000e+00  1.3109225863082200e-04 1.4159675931434798e-03 0.0000000000000000e+00  1.5843825779961529e-04 1.4414646961686556e-03 0.0000000000000000e+00  1.3350931480974975e-04 1.4406558407267099e-03 0.0000000000000000e+00  1.6088716810493497e-04 1.4661994760060649e-03 0.0000000000000000e+00  1.3591628413185431e-04 1.4653897043386071e-03 0.0000000000000000e+00  1.6333311837205274e-04 1.4909823554772538e-03 0.0000000000000000e+00  1.3832298874146532e-04 1.4901719520137428e-03 0.0000000000000000e+00  1.6577333827060790e-04 1.5158017402688653e-03 0.0000000000000000e+00  1.4073605110967907e-04 1.5149914838269891e-03 0.0000000000000000e+00  1.6820699236874326e-04 1.5406396049230653e-03 0.0000000000000000e+00  1.4315737135764387e-04 1.5398301873029657e-03 0.0000000000000000e+00  1.7063511614296751e-04 1.5654815404635841e-03 0.0000000000000000e+00  1.4558398536425240e-04 1.5646723492758032e-03 0.0000000000000000e+00  7.9969595623300267e-05 1.1240368425607366e-03 0.0000000000000000e+00  7.6753705382375545e-05 1.1009529294980524e-03 0.0000000000000000e+00  8.2329977036750134e-05 1.1470029765758784e-03 0.0000000000000000e+00  8.4147102526561032e-05 1.1701726130428152e-03 0.0000000000000000e+00  8.5820873636266061e-05 1.1937119326872550e-03 0.0000000000000000e+00  8.7511326070465777e-05 1.2176671908829210e-03 0.0000000000000000e+00  8.9309888108664187e-05 1.2420062670584786e-03 0.0000000000000000e+00  9.1301411658794345e-05 1.2666402697626099e-03 0.0000000000000000e+00  9.3558247839288915e-05 1.2914365098141705e-03 0.0000000000000000e+00  9.6048198031886488e-05 1.3162671384593485e-03 0.0000000000000000e+00  9.8652513700230808e-05 1.3410608967717032e-03 0.0000000000000000e+00  1.0126561470256721e-04 1.3657961797875757e-03 0.0000000000000000e+00  1.0381182631852218e-04 1.3904847290436265e-03 0.0000000000000000e+00  1.0626003382108272e-04 1.4151591230941235e-03 0.0000000000000000e+00  1.0863293561970033e-04 1.4398538633314238e-03 0.0000000000000000e+00  1.1097322322460762e-04 1.4645898945884895e-03 0.0000000000000000e+00  1.1331656617581089e-04 1.4893710013529780e-03 0.0000000000000000e+00  1.1568684859670570e-04 1.5141875909612547e-03 0.0000000000000000e+00  1.1809307831498490e-04 1.5390234943520489e-03 0.0000000000000000e+00  1.2052389576600267e-04 1.5638644995012089e-03 0.0000000000000000e+00  1.2295371399724935e-04 1.5887037073976831e-03 0.0000000000000000e+00  6.0703599502931196e-05 1.1116416689661069e-03 0.0000000000000000e+00  6.4530845628342639e-05 1.1346745430434017e-03 0.0000000000000000e+00  6.7985517739348322e-05 1.1578466800927715e-03 0.0000000000000000e+00  7.1218590136985226e-05 1.1812808521903726e-03 0.0000000000000000e+00  7.4364078417404021e-05 1.2050666378806308e-03 0.0000000000000000e+00  7.7514684276211408e-05 1.2292055300148247e-03 0.0000000000000000e+00  8.0732627518221575e-05 1.2536382742445310e-03 0.0000000000000000e+00  8.4048848445810711e-05 1.2782762307899256e-03 0.0000000000000000e+00  8.7451871961015382e-05 1.3030437286970283e-03 0.0000000000000000e+00  9.0894160661861298e-05 1.3278912184454613e-03 0.0000000000000000e+00  9.4319640584795538e-05 1.3527863740027228e-03 0.0000000000000000e+00  9.7684245563287310e-05 1.3777173778210176e-03 0.0000000000000000e+00  1.0096528354058162e-04 1.4026862218961772e-03 0.0000000000000000e+00  1.0416335543669674e-04 1.4276993422133292e-03 0.0000000000000000e+00  1.0729445950505489e-04 1.4527636278904609e-03 0.0000000000000000e+00  1.1037835918395739e-04 1.4778811843789447e-03 0.0000000000000000e+00  1.1343092554987813e-04 1.5030466462326478e-03 0.0000000000000000e+00  1.1646087895328783e-04 1.5282499749886826e-03 0.0000000000000000e+00  1.1946994274063166e-04 1.5534805590708245e-03 0.0000000000000000e+00  1.2245773451599834e-04 1.5787267953384875e-03 0.0000000000000000e+00  1.2543093685561015e-04 1.6039688535006084e-03 0.0000000000000000e+00  4.7907833724824774e-05 1.1213938396701737e-03 0.0000000000000000e+00  5.2593165635344927e-05 1.1444549306743445e-03 0.0000000000000000e+00  5.7099959803301863e-05 1.1677906365666296e-03 0.0000000000000000e+00  6.1486451874309686e-05 1.1914642389606416e-03 0.0000000000000000e+00  6.5810009573034228e-05 1.2154877912108806e-03 0.0000000000000000e+00  7.0111168735789237e-05 1.2398260078912830e-03 0.0000000000000000e+00  7.4408115353398162e-05 1.2644196673956528e-03 0.0000000000000000e+00  7.8695972760098104e-05 1.2892132689429404e-03 0.0000000000000000e+00  8.2953726380716552e-05 1.3141641376640564e-03 0.0000000000000000e+00  8.7154608792212849e-05 1.3392384130005361e-03 0.0000000000000000e+00  9.1274838145527734e-05 1.3644130183577872e-03 0.0000000000000000e+00  9.5300041919529058e-05 1.3896744184081259e-03 0.0000000000000000e+00  9.9226948099260235e-05 1.4150148306420491e-03 0.0000000000000000e+00  1.0306097557567091e-04 1.4404301572131268e-03 0.0000000000000000e+00  1.0681207757812324e-04 1.4659167038206821e-03 0.0000000000000000e+00  1.1049054436791012e-04 1.4914680725026993e-03 0.0000000000000000e+00  1.1410445997341995e-04 1.5170747423691228e-03 0.0000000000000000e+00  1.1765975337120672e-04 1.5427245980700055e-03 0.0000000000000000e+00  1.2116252025786395e-04 1.5684010894933785e-03 0.0000000000000000e+00  1.2462187759345434e-04 1.5940786241200179e-03 0.0000000000000000e+00  1.2805081437798144e-04 1.6197202962232584e-03 0.0000000000000000e+00  3.7991008204697185e-05 1.1302074592619425e-03 0.0000000000000000e+00  4.3539256748450948e-05 1.1534066638880819e-03 0.0000000000000000e+00  4.8973220988314406e-05 1.1769864828829386e-03 0.0000000000000000e+00  5.4309861492200180e-05 1.2009492120638437e-03 0.0000000000000000e+00  5.9565483386721699e-05 1.2252664510065889e-03 0.0000000000000000e+00  6.4747539988837846e-05 1.2498917391983826e-03 0.0000000000000000e+00  6.9853043780178440e-05 1.2747770311719484e-03 0.0000000000000000e+00  7.4872170228022932e-05 1.2998800498132275e-03 0.0000000000000000e+00  7.9792804776278913e-05 1.3251644343340130e-03 0.0000000000000000e+00  8.4603911975722536e-05 1.3506011410546893e-03 0.0000000000000000e+00  8.9298373674132867e-05 1.3761684316065748e-03 0.0000000000000000e+00  9.3874151052252157e-05 1.4018505216928077e-03 0.0000000000000000e+00  9.8333656368029910e-05 1.4276362135506237e-03 0.0000000000000000e+00  1.0268228871606840e-04 1.4535165287228079e-03 0.0000000000000000e+00  1.0692663592087959e-04 1.4794820825439498e-03 0.0000000000000000e+00  1.1107310245392932e-04 1.5055214401519797e-03 0.0000000000000000e+00  1.1512770545587240e-04 1.5316199087968435e-03 0.0000000000000000e+00  1.1909685811225645e-04 1.5577574506392172e-03 0.0000000000000000e+00  1.2298805487953875e-04 1.5839059211799592e-03 0.0000000000000000e+00  1.2680944297928189e-04 1.6100281486458924e-03 0.0000000000000000e+00  1.3056844287895870e-04 1.6360797039260116e-03 0.0000000000000000e+00  3.0553682319505892e-05 1.1382455111632588e-03 0.0000000000000000e+00  3.6876410750031573e-05 1.1617341444552342e-03 0.0000000000000000e+00  4.3085719597692995e-05 1.1856700242155306e-03 0.0000000000000000e+00  4.9175976263759208e-05 1.2100182253088779e-03 0.0000000000000000e+00  5.5143656322628133e-05 1.2347316968028569e-03 0.0000000000000000e+00  6.0984357618061369e-05 1.2597609924291321e-03 0.0000000000000000e+00  6.6693148898522615e-05 1.2850601060989785e-03 0.0000000000000000e+00  7.2265660894568266e-05 1.3105884994290813e-03 0.0000000000000000e+00  7.7698717765094688e-05 1.3363125265228879e-03 0.0000000000000000e+00  8.2990910251786316e-05 1.3622055835846405e-03 0.0000000000000000e+00  8.8142823150924224e-05 1.3882472749000107e-03 0.0000000000000000e+00  9.3156795480222980e-05 1.4144221074079942e-03 0.0000000000000000e+00  9.8036437276987292e-05 1.4407174180935238e-03 0.0000000000000000e+00  1.0278599427874979e-04 1.4671210156079761e-03 0.0000000000000000e+00  1.0740981134455243e-04 1.4936191650562227e-03 0.0000000000000000e+00  1.1191220155735943e-04 1.5201947993554029e-03 0.0000000000000000e+00  1.1629762224693864e-04 1.5468255830729369e-03 0.0000000000000000e+00  1.2057064120390613e-04 1.5734821760567937e-03 0.0000000000000000e+00  1.2473531094104093e-04 1.6001278777196220e-03 0.0000000000000000e+00  1.2879417964561325e-04 1.6267198833852454e-03 0.0000000000000000e+00  1.3274733434332598e-04 1.6532109870775402e-03 0.0000000000000000e+00  2.5215600207918724e-05 1.1457787425453818e-03 0.0000000000000000e+00  3.2177672813369858e-05 1.1697144536607113e-03 0.0000000000000000e+00  3.8992740309072862e-05 1.1941349942073446e-03 0.0000000000000000e+00  4.5647724396913011e-05 1.2189833738547903e-03 0.0000000000000000e+00  5.2135692176854517e-05 1.2442019094789875e-03 0.0000000000000000e+00  5.8454068367761064e-05 1.2697372255114391e-03 0.0000000000000000e+00  6.4603324741971694e-05 1.2955429662012247e-03 0.0000000000000000e+00  7.0585715171373798e-05 1.3215811017966250e-03 0.0000000000000000e+00  7.6404342711488876e-05 1.3478217572515806e-03 0.0000000000000000e+00  8.2062550022649267e-05 1.3742420337783915e-03 0.0000000000000000e+00  8.7563560299186498e-05 1.4008242747812890e-03 0.0000000000000000e+00  9.2910315551038319e-05 1.4275538473500400e-03 0.0000000000000000e+00  9.8105394222361756e-05 1.4544167873588737e-03 0.0000000000000000e+00  1.0315099263078441e-04 1.4813976632319860e-03 0.0000000000000000e+00  1.0804901192620664e-04 1.5084776905044724e-03 0.0000000000000000e+00  1.1280115117079626e-04 1.5356330636215599e-03 0.0000000000000000e+00  1.1740876946216888e-04 1.5628337994877460e-03 0.0000000000000000e+00  1.2187239513504731e-04 1.5900436327375837e-03 0.0000000000000000e+00  1.2619105056704778e-04 1.6172209579283633e-03 0.0000000000000000e+00  1.3036161158588023e-04 1.6443201732159450e-03 0.0000000000000000e+00  1.3437823452116886e-04 1.6712929685153853e-03 0.0000000000000000e+00  2.1604128770298178e-05 1.1531313946515581e-03 0.0000000000000000e+00  2.9044445908031296e-05 1.1776640155152331e-03 0.0000000000000000e+00  3.6292072990932747e-05 1.2026910831463024e-03 0.0000000000000000e+00  4.3338293477893243e-05 1.2281413152256740e-03 0.0000000000000000e+00  5.0182630278288702e-05 1.2539507122170455e-03 0.0000000000000000e+00  5.6829712836617785e-05 1.2800656606105510e-03 0.0000000000000000e+00  6.3286434413560317e-05 1.3064438410484783e-03 0.0000000000000000e+00  6.9559841886221763e-05 1.3330532750828617e-03 0.0000000000000000e+00  7.5655855074432246e-05 1.3598702651068054e-03 0.0000000000000000e+00  8.1578710205561987e-05 1.3868768573936203e-03 0.0000000000000000e+00  8.7330926370003946e-05 1.4140581443047124e-03 0.0000000000000000e+00  9.2913550802339892e-05 1.4413996984799433e-03 0.0000000000000000e+00  9.8326514825892631e-05 1.4688853483878425e-03 0.0000000000000000e+00  1.0356899977506586e-04 1.4964953459952329e-03 0.0000000000000000e+00  1.0863969638005737e-04 1.5242049679849640e-03 0.0000000000000000e+00  1.1353683032059015e-04 1.5519837342975950e-03 0.0000000000000000e+00  1.1825791816265660e-04 1.5797954692767658e-03 0.0000000000000000e+00  1.2279935849667125e-04 1.6075991157227815e-03 0.0000000000000000e+00  1.2715598018194966e-04 1.6353498986158659e-03 0.0000000000000000e+00  1.3132058617627243e-04 1.6630005052813627e-03 0.0000000000000000e+00  1.3528352228047455e-04 1.6905021367484942e-03 0.0000000000000000e+00  1.9344228779671785e-05 1.1606462525973432e-03 0.0000000000000000e+00  2.7094236096402491e-05 1.1858980732707791e-03 0.0000000000000000e+00  3.4610554904323984e-05 1.2116230464782997e-03 0.0000000000000000e+00  4.1896094725764145e-05 1.2377436684492750e-03 0.0000000000000000e+00  4.8960422914177432e-05 1.2641980643439865e-03 0.0000000000000000e+00  5.5815380190561921e-05 1.2909401325249795e-03 0.0000000000000000e+00  6.2471935484519308e-05 1.3179372385589531e-03 0.0000000000000000e+00  6.8938404720934605e-05 1.3451667498282657e-03 0.0000000000000000e+00  7.5219808655443998e-05 1.3726123423146942e-03 0.0000000000000000e+00  8.1318012337877122e-05 1.4002605663914886e-03 0.0000000000000000e+00  8.7232286759093177e-05 1.4280979169830395e-03 0.0000000000000000e+00  9.2960025383529132e-05 1.4561084981777994e-03 0.0000000000000000e+00  9.8497439969677595e-05 1.4842722766374545e-03 0.0000000000000000e+00  1.0384010600374874e-04 1.5125639298550428e-03 0.0000000000000000e+00  1.0898326689675690e-04 1.5409523620271552e-03 0.0000000000000000e+00  1.1392187401322328e-04 1.5694009504572460e-03 0.0000000000000000e+00  1.1865041197038117e-04 1.5978683986660664e-03 0.0000000000000000e+00  1.2316257280832235e-04 1.6263098954694196e-03 0.0000000000000000e+00  1.2745081926381852e-04 1.6546782884040582e-03 0.0000000000000000e+00  1.3150589076130296e-04 1.6829250646184556e-03 0.0000000000000000e+00  1.3531635467961648e-04 1.7110009874951385e-03 0.0000000000000000e+00  1.8059782483816848e-05 1.1686466419371347e-03 0.0000000000000000e+00  2.5959551678291415e-05 1.1946926694742037e-03 0.0000000000000000e+00  3.3601518648960800e-05 1.2211620707848038e-03 0.0000000000000000e+00  4.1002092883884162e-05 1.2479844063290392e-03 0.0000000000000000e+00  4.8179163769628894e-05 1.2751111670310867e-03 0.0000000000000000e+00  5.5147984160604356e-05 1.3025112742312839e-03 0.0000000000000000e+00  6.1919107321084407e-05 1.3301655673924938e-03 0.0000000000000000e+00  6.8497894497397151e-05 1.3580615804341728e-03 0.0000000000000000e+00  7.4885010019217144e-05 1.3861891773157974e-03 0.0000000000000000e+00  8.1077408341633899e-05 1.4145371802644574e-03 0.0000000000000000e+00  8.7069473308696126e-05 1.4430909221310065e-03 0.0000000000000000e+00  9.2854102165895321e-05 1.4718306051294836e-03 0.0000000000000000e+00  9.8423605316989800e-05 1.5007303929474478e-03 0.0000000000000000e+00  1.0377034424316607e-04 1.5297582166093093e-03 0.0000000000000000e+00  1.0888707059465122e-04 1.5588762751431657e-03 0.0000000000000000e+00  1.1376696522267308e-04 1.5880420900823058e-03 0.0000000000000000e+00  1.1840339769435687e-04 1.6172098395806514e-03 0.0000000000000000e+00  1.2278944383434072e-04 1.6463316690470840e-03 0.0000000000000000e+00  1.2691723357122792e-04 1.6753587137759659e-03 0.0000000000000000e+00  1.3077724594044398e-04 1.7042416251577181e-03 0.0000000000000000e+00  1.3435769652695603e-04 1.7329304708044806e-03 0.0000000000000000e+00  1.7382349117426924e-05 1.1773981039256071e-03 0.0000000000000000e+00  2.5296346449734288e-05 1.2042548882255650e-03 0.0000000000000000e+00  3.2952474354079866e-05 1.2314713889412447e-03 0.0000000000000000e+00  4.0376394643835353e-05 1.2589994720233644e-03 0.0000000000000000e+00  4.7588204175459030e-05 1.2868130437983039e-03 0.0000000000000000e+00  5.4600443673651175e-05 1.3148996652341820e-03 0.0000000000000000e+00  6.1418129812390235e-05 1.3432534189943945e-03 0.0000000000000000e+00  6.8039892722116150e-05 1.3718695140491409e-03 0.0000000000000000e+00  7.4459564372076118e-05 1.4007404998439166e-03 0.0000000000000000e+00  8.0667835953533872e-05 1.4298537712681227e-03 0.0000000000000000e+00  8.6653788948432950e-05 1.4591900845124933e-03 0.0000000000000000e+00  9.2406196289659314e-05 1.4887229213064899e-03 0.0000000000000000e+00  9.7914531193645234e-05 1.5184186167410164e-03 0.0000000000000000e+00  1.0316962171690416e-04 1.5482372108341978e-03 0.0000000000000000e+00  1.0816389508103505e-04 1.5781338770158655e-03 0.0000000000000000e+00  1.1289119195723319e-04 1.6080606292035035e-03 0.0000000000000000e+00  1.1734618513770226e-04 1.6379679483834926e-03 0.0000000000000000e+00  1.2152349555335009e-04 1.6678059928052081e-03 0.0000000000000000e+00  1.2541664493106598e-04 1.6975251263004706e-03 0.0000000000000000e+00  1.2901699533089428e-04 1.7270756178688164e-03 0.0000000000000000e+00  1.3231283333222708e-04 1.7564064452868120e-03 0.0000000000000000e+00  1.6969232253924212e-05 1.1870749421671305e-03 0.0000000000000000e+00  2.4800937562094390e-05 1.2147083248298543e-03 0.0000000000000000e+00  3.2398106277632179e-05 1.2426485292036614e-03 0.0000000000000000e+00  3.9786193467078656e-05 1.2708796027464254e-03 0.0000000000000000e+00  4.6979177027566649e-05 1.2994001650554264e-03 0.0000000000000000e+00  5.3980686409182438e-05 1.3282140731777391e-03 0.0000000000000000e+00  6.0786163376241488e-05 1.3573240735012271e-03 0.0000000000000000e+00  6.7385252545382724e-05 1.3867277903613490e-03 0.0000000000000000e+00  7.3764063980903902e-05 1.4164153465379167e-03 0.0000000000000000e+00  7.9907191474537444e-05 1.4463681335523831e-03 0.0000000000000000e+00  8.5799446995129953e-05 1.4765585000279208e-03 0.0000000000000000e+00  9.1427279627013348e-05 1.5069502461532473e-03 0.0000000000000000e+00  9.6779778003658530e-05 1.5374999408588484e-03 0.0000000000000000e+00  1.0184912518716174e-04 1.5681589243637379e-03 0.0000000000000000e+00  1.0663044037637271e-04 1.5988756210731398e-03 0.0000000000000000e+00  1.1112104624024617e-04 1.6295976958667015e-03 0.0000000000000000e+00  1.1531929132686065e-04 1.6602736213862945e-03 0.0000000000000000e+00  1.1922310646904592e-04 1.6908533309336771e-03 0.0000000000000000e+00  1.2282844272245165e-04 1.7212878261136124e-03 0.0000000000000000e+00  1.2612770408313326e-04 1.7515276661213214e-03 0.0000000000000000e+00  1.2910832777098189e-04 1.7815202436775738e-03 0.0000000000000000e+00  1.6529307301869793e-05 1.1977475054635275e-03 0.0000000000000000e+00  2.4228639201875446e-05 1.2261023328693286e-03 0.0000000000000000e+00  3.1729973421964935e-05 1.2547465588959637e-03 0.0000000000000000e+00  3.9047544571880781e-05 1.2836954379912928e-03 0.0000000000000000e+00  4.6182022466624426e-05 1.3129662991173280e-03 0.0000000000000000e+00  5.3124141879068845e-05 1.3425716597454415e-03 0.0000000000000000e+00  5.9858059206488950e-05 1.3725154163446245e-03 0.0000000000000000e+00  6.6364244282483283e-05 1.4027908611174769e-03 0.0000000000000000e+00  7.2621977889219207e-05 1.4333798365357760e-03 0.0000000000000000e+00  7.8611531992038797e-05 1.4642527968789897e-03 0.0000000000000000e+00  8.4316055921690818e-05 1.4953696898314186e-03 0.0000000000000000e+00  8.9722991260372931e-05 1.5266818676101170e-03 0.0000000000000000e+00  9.4824758358238835e-05 1.5581349175899772e-03 0.0000000000000000e+