<?xml version="1.0"?>
<VTKFile type="UnstructuredGrid"  version="0.1"  >
<UnstructuredGrid>
<Piece  NumberOfPoints="614" NumberOfCells="1122">
<Points>
<DataArray  type="Float64"  NumberOfComponents="3"  format="ascii">2.792173913043478 0.2166666666666667 0  2.792173913043478 0.2333333333333333 0  2.808695652173913 0.2333333333333333 0  2.445217391304348 0.2333333333333333 0  2.461739130434782 0.2333333333333333 0  2.461739130434782 0.25 0  2.445217391304348 0.25 0  2.478260869565217 0.2333333333333333 0  2.478260869565217 0.25 0  2.494782608695652 0.2333333333333333 0  2.494782608695652 0.25 0  2.511304347826087 0.2333333333333333 0  2.511304347826087 0.25 0  2.527826086956522 0.2333333333333333 0  2.527826086956522 0.25 0  2.544347826086956 0.2333333333333333 0  2.544347826086956 0.25 0  2.560869565217391 0.2333333333333333 0  2.560869565217391 0.25 0  2.577391304347826 0.2333333333333333 0  2.577391304347826 0.25 0  2.593913043478261 0.2333333333333333 0  2.593913043478261 0.25 0  2.610434782608696 0.2333333333333333 0  2.610434782608696 0.25 0  2.62695652173913 0.2333333333333333 0  2.62695652173913 0.25 0  2.643478260869565 0.2333333333333333 0  2.643478260869565 0.25 0  2.66 0.2333333333333333 0  2.66 0.25 0  2.676521739130435 0.2333333333333333 0  2.676521739130435 0.25 0  2.693043478260869 0.2333333333333333 0  2.693043478260869 0.25 0  2.709565217391304 0.2333333333333333 0  2.709565217391304 0.25 0  2.726086956521739 0.2333333333333333 0  2.726086956521739 0.25 0  2.742608695652174 0.2333333333333333 0  2.742608695652174 0.25 0  2.759130434782609 0.2333333333333333 0  2.759130434782609 0.25 0  2.775652173913044 0.2333333333333333 0  2.775652173913044 0.25 0  2.792173913043478 0.25 0  2.808695652173913 0.25 0  2.825217391304347 0.25 0  2.28 0.25 0  2.296521739130434 0.25 0  2.296521739130434 0.2666666666666667 0  2.28 0.2666666666666667 0  2.31304347826087 0.25 0  2.31304347826087 0.2666666666666667 0  2.329565217391304 0.25 0  2.329565217391304 0.2666666666666667 0  2.346086956521739 0.25 0  2.346086956521739 0.2666666666666667 0  2.362608695652174 0.25 0  2.362608695652174 0.2666666666666667 0  2.379130434782609 0.25 0  2.379130434782609 0.2666666666666667 0  2.395652173913044 0.25 0  2.395652173913044 0.2666666666666667 0  2.412173913043478 0.25 0  2.412173913043478 0.2666666666666667 0  2.428695652173913 0.25 0  2.428695652173913 0.2666666666666667 0  2.445217391304348 0.2666666666666667 0  2.461739130434782 0.2666666666666667 0  2.478260869565217 0.2666666666666667 0  2.494782608695652 0.2666666666666667 0  2.511304347826087 0.2666666666666667 0  2.527826086956522 0.2666666666666667 0  2.544347826086956 0.2666666666666667 0  2.560869565217391 0.2666666666666667 0  2.577391304347826 0.2666666666666667 0  2.593913043478261 0.2666666666666667 0  2.610434782608696 0.2666666666666667 0  2.62695652173913 0.2666666666666667 0  2.643478260869565 0.2666666666666667 0  2.66 0.2666666666666667 0  2.676521739130435 0.2666666666666667 0  2.693043478260869 0.2666666666666667 0  2.709565217391304 0.2666666666666667 0  2.726086956521739 0.2666666666666667 0  2.742608695652174 0.2666666666666667 0  2.759130434782609 0.2666666666666667 0  2.775652173913044 0.2666666666666667 0  2.792173913043478 0.2666666666666667 0  2.808695652173913 0.2666666666666667 0  2.825217391304347 0.2666666666666667 0  2.841739130434783 0.2666666666666667 0  2.24695652173913 0.2666666666666667 0  2.263478260869565 0.2666666666666667 0  2.263478260869565 0.2833333333333333 0  2.28 0.2833333333333333 0  2.296521739130434 0.2833333333333333 0  2.31304347826087 0.2833333333333333 0  2.329565217391304 0.2833333333333333 0  2.346086956521739 0.2833333333333333 0  2.362608695652174 0.2833333333333333 0  2.379130434782609 0.2833333333333333 0  2.395652173913044 0.2833333333333333 0  2.412173913043478 0.2833333333333333 0  2.428695652173913 0.2833333333333333 0  2.445217391304348 0.2833333333333333 0  2.461739130434782 0.2833333333333333 0  2.478260869565217 0.2833333333333333 0  2.494782608695652 0.2833333333333333 0  2.511304347826087 0.2833333333333333 0  2.527826086956522 0.2833333333333333 0  2.544347826086956 0.2833333333333333 0  2.560869565217391 0.2833333333333333 0  2.577391304347826 0.2833333333333333 0  2.593913043478261 0.2833333333333333 0  2.610434782608696 0.2833333333333333 0  2.62695652173913 0.2833333333333333 0  2.643478260869565 0.2833333333333333 0  2.66 0.2833333333333333 0  2.676521739130435 0.2833333333333333 0  2.693043478260869 0.2833333333333333 0  2.709565217391304 0.2833333333333333 0  2.726086956521739 0.2833333333333333 0  2.742608695652174 0.2833333333333333 0  2.759130434782609 0.2833333333333333 0  2.775652173913044 0.2833333333333333 0  2.792173913043478 0.2833333333333333 0  2.808695652173913 0.2833333333333333 0  2.825217391304347 0.2833333333333333 0  2.841739130434783 0.2833333333333333 0  2.858260869565217 0.2833333333333333 0  2.28 0.3 0  2.296521739130434 0.3 0  2.31304347826087 0.3 0  2.329565217391304 0.3 0  2.346086956521739 0.3 0  2.362608695652174 0.3 0  2.379130434782609 0.3 0  2.395652173913044 0.3 0  2.412173913043478 0.3 0  2.428695652173913 0.3 0  2.445217391304348 0.3 0  2.461739130434782 0.3 0  2.478260869565217 0.3 0  2.494782608695652 0.3 0  2.511304347826087 0.3 0  2.527826086956522 0.3 0  2.544347826086956 0.3 0  2.560869565217391 0.3 0  2.577391304347826 0.3 0  2.593913043478261 0.3 0  2.610434782608696 0.3 0  2.62695652173913 0.3 0  2.643478260869565 0.3 0  2.66 0.3 0  2.676521739130435 0.3 0  2.693043478260869 0.3 0  2.709565217391304 0.3 0  2.726086956521739 0.3 0  2.742608695652174 0.3 0  2.759130434782609 0.3 0  2.775652173913044 0.3 0  2.792173913043478 0.3 0  2.808695652173913 0.3 0  2.825217391304347 0.3 0  2.841739130434783 0.3 0  2.858260869565217 0.3 0  2.874782608695652 0.3 0  2.296521739130434 0.3166666666666667 0  2.31304347826087 0.3166666666666667 0  2.329565217391304 0.3166666666666667 0  2.346086956521739 0.3166666666666667 0  2.362608695652174 0.3166666666666667 0  2.379130434782609 0.3166666666666667 0  2.395652173913044 0.3166666666666667 0  2.412173913043478 0.3166666666666667 0  2.428695652173913 0.3166666666666667 0  2.445217391304348 0.3166666666666667 0  2.461739130434782 0.3166666666666667 0  2.478260869565217 0.3166666666666667 0  2.494782608695652 0.3166666666666667 0  2.511304347826087 0.3166666666666667 0  2.527826086956522 0.3166666666666667 0  2.544347826086956 0.3166666666666667 0  2.560869565217391 0.3166666666666667 0  2.577391304347826 0.3166666666666667 0  2.593913043478261 0.3166666666666667 0  2.610434782608696 0.3166666666666667 0  2.62695652173913 0.3166666666666667 0  2.643478260869565 0.3166666666666667 0  2.66 0.3166666666666667 0  2.676521739130435 0.3166666666666667 0  2.693043478260869 0.3166666666666667 0  2.709565217391304 0.3166666666666667 0  2.726086956521739 0.3166666666666667 0  2.742608695652174 0.3166666666666667 0  2.759130434782609 0.3166666666666667 0  2.775652173913044 0.3166666666666667 0  2.792173913043478 0.3166666666666667 0  2.808695652173913 0.3166666666666667 0  2.825217391304347 0.3166666666666667 0  2.841739130434783 0.3166666666666667 0  2.858260869565217 0.3166666666666667 0  2.874782608695652 0.3166666666666667 0  2.891304347826087 0.3166666666666667 0  2.31304347826087 0.3333333333333333 0  2.329565217391304 0.3333333333333333 0  2.346086956521739 0.3333333333333333 0  2.362608695652174 0.3333333333333333 0  2.379130434782609 0.3333333333333333 0  2.395652173913044 0.3333333333333333 0  2.412173913043478 0.3333333333333333 0  2.428695652173913 0.3333333333333333 0  2.445217391304348 0.3333333333333333 0  2.461739130434782 0.3333333333333333 0  2.478260869565217 0.3333333333333333 0  2.494782608695652 0.3333333333333333 0  2.511304347826087 0.3333333333333333 0  2.527826086956522 0.3333333333333333 0  2.544347826086956 0.3333333333333333 0  2.560869565217391 0.3333333333333333 0  2.577391304347826 0.3333333333333333 0  2.593913043478261 0.3333333333333333 0  2.610434782608696 0.3333333333333333 0  2.62695652173913 0.3333333333333333 0  2.643478260869565 0.3333333333333333 0  2.66 0.3333333333333333 0  2.676521739130435 0.3333333333333333 0  2.693043478260869 0.3333333333333333 0  2.709565217391304 0.3333333333333333 0  2.726086956521739 0.3333333333333333 0  2.742608695652174 0.3333333333333333 0  2.759130434782609 0.3333333333333333 0  2.775652173913044 0.3333333333333333 0  2.792173913043478 0.3333333333333333 0  2.808695652173913 0.3333333333333333 0  2.825217391304347 0.3333333333333333 0  2.841739130434783 0.3333333333333333 0  2.858260869565217 0.3333333333333333 0  2.874782608695652 0.3333333333333333 0  2.891304347826087 0.3333333333333333 0  2.907826086956522 0.3333333333333333 0  2.329565217391304 0.35 0  2.346086956521739 0.35 0  2.362608695652174 0.35 0  2.379130434782609 0.35 0  2.395652173913044 0.35 0  2.412173913043478 0.35 0  2.428695652173913 0.35 0  2.445217391304348 0.35 0  2.461739130434782 0.35 0  2.478260869565217 0.35 0  2.494782608695652 0.35 0  2.511304347826087 0.35 0  2.527826086956522 0.35 0  2.544347826086956 0.35 0  2.560869565217391 0.35 0  2.577391304347826 0.35 0  2.593913043478261 0.35 0  2.610434782608696 0.35 0  2.62695652173913 0.35 0  2.643478260869565 0.35 0  2.66 0.35 0  2.676521739130435 0.35 0  2.693043478260869 0.35 0  2.709565217391304 0.35 0  2.726086956521739 0.35 0  2.742608695652174 0.35 0  2.759130434782609 0.35 0  2.775652173913044 0.35 0  2.792173913043478 0.35 0  2.808695652173913 0.35 0  2.825217391304347 0.35 0  2.841739130434783 0.35 0  2.858260869565217 0.35 0  2.874782608695652 0.35 0  2.891304347826087 0.35 0  2.907826086956522 0.35 0  2.924347826086957 0.35 0  2.346086956521739 0.3666666666666666 0  2.362608695652174 0.3666666666666666 0  2.379130434782609 0.3666666666666666 0  2.395652173913044 0.3666666666666666 0  2.412173913043478 0.3666666666666666 0  2.428695652173913 0.3666666666666666 0  2.445217391304348 0.3666666666666666 0  2.461739130434782 0.3
[...]
<PointData  Vectors="Displacement"> 
<DataArray  type="Float64"  Name="Displacement"  NumberOfComponents="3" format="ascii">1.0135191261037972e-03 9.1888011718797933e-03 0.0000000000000000e+00  1.0152526547686791e-03 9.1398795777561329e-03 0.0000000000000000e+00  1.0422747143188319e-03 9.2125514728154598e-03 0.0000000000000000e+00  4.6946379604382178e-04 6.6753844869581842e-03 0.0000000000000000e+00  4.9102813897512537e-04 6.8213135565986828e-03 0.0000000000000000e+00  4.7342629554187552e-04 6.7192164776223419e-03 0.0000000000000000e+00  4.5276168474601486e-04 6.5727696057816245e-03 0.0000000000000000e+00  5.1384392944319184e-04 6.9649996334521331e-03 0.0000000000000000e+00  4.9562052070591350e-04 6.8636114368150151e-03 0.0000000000000000e+00  5.3779618386588844e-04 7.1064935129506778e-03 0.0000000000000000e+00  5.1918437595268110e-04 7.0060693067099623e-03 0.0000000000000000e+00  5.6273834354927520e-04 7.2458172466412524e-03 0.0000000000000000e+00  5.4393291403332733e-04 7.1466504859626729e-03 0.0000000000000000e+00  5.8850685168922612e-04 7.3829580694858739e-03 0.0000000000000000e+00  5.6967166825213787e-04 7.2853621901399256e-03 0.0000000000000000e+00  6.1493144045016287e-04 7.5178668364060076e-03 0.0000000000000000e+00  5.9620592545003501e-04 7.4221626416661520e-03 0.0000000000000000e+00  6.4184249506548557e-04 7.6504573085893913e-03 0.0000000000000000e+00  6.2334669657942532e-04 7.5569633759432590e-03 0.0000000000000000e+00  6.6907682681971491e-04 7.7806052089257416e-03 0.0000000000000000e+00  6.5091558561878790e-04 7.6896294427791665e-03 0.0000000000000000e+00  6.9648260186043270e-04 7.9081473438837764e-03 0.0000000000000000e+00  6.7874944407033289e-04 7.8199789337513818e-03 0.0000000000000000e+00  7.2392364901435833e-04 8.0328814118252895e-03 0.0000000000000000e+00  7.0670475657404175e-04 7.9477831162084508e-03 0.0000000000000000e+00  7.5128320349092934e-04 8.1545668971294734e-03 0.0000000000000000e+00  7.3466151287127838e-04 8.0727674983898118e-03 0.0000000000000000e+00  7.7846678952821430e-04 8.2729282528557786e-03 0.0000000000000000e+00  7.6252534776480969e-04 8.1946160356573140e-03 0.0000000000000000e+00  8.0540447029544366e-04 8.3876602303728249e-03 0.0000000000000000e+00  7.9022789271712658e-04 8.3129768999886198e-03 0.0000000000000000e+00  8.3205366237952343e-04 8.4984350555264848e-03 0.0000000000000000e+00  8.1772752915549283e-04 8.4274679319303689e-03 0.0000000000000000e+00  8.5840423074820689e-04 8.6049122380468055e-03 0.0000000000000000e+00  8.4501437980735478e-04 8.5376820500879125e-03 0.0000000000000000e+00  8.8448638297496855e-04 8.7067548462693642e-03 0.0000000000000000e+00  8.7212133146744757e-04 8.6431994807212691e-03 0.0000000000000000e+00  9.1037980290815230e-04 8.8036573614395115e-03 0.0000000000000000e+00  8.9913917843269860e-04 8.7436152506002660e-03 0.0000000000000000e+00  9.3622038924879929e-04 8.8953900397398620e-03 0.0000000000000000e+00  9.2623184823340508e-04 8.8385896973933974e-03 0.0000000000000000e+00  9.6219654346095160e-04 8.9818638732897440e-03 0.0000000000000000e+00  9.5364658784788197e-04 8.9279354021655436e-03 0.0000000000000000e+00  9.8850802336118574e-04 9.0632165989645661e-03 0.0000000000000000e+00  9.8169189291129463e-04 9.0117874674368031e-03 0.0000000000000000e+00  1.0105856069525978e-03 9.0908137513908607e-03 0.0000000000000000e+00  1.0401006550429712e-03 9.1662175815936386e-03 0.0000000000000000e+00  1.0689696583121580e-03 9.2401541551616010e-03 0.0000000000000000e+00  2.9995524195161204e-04 5.0221148894604170e-03 0.0000000000000000e+00  3.1699978973048846e-04 5.1681198782328533e-03 0.0000000000000000e+00  3.1888048385070620e-04 5.0472137278589624e-03 0.0000000000000000e+00  3.0415799619616245e-04 4.8986769935255685e-03 0.0000000000000000e+00  3.3284109941158964e-04 5.3231778386112942e-03 0.0000000000000000e+00  3.3177164631034445e-04 5.2075691390968543e-03 0.0000000000000000e+00  3.4707424533555141e-04 5.4830578593736403e-03 0.0000000000000000e+00  3.4241809665420432e-04 5.3725959637377432e-03 0.0000000000000000e+00  3.6020624933714513e-04 5.6443160707238356e-03 0.0000000000000000e+00  3.5181330878596400e-04 5.5377525937005227e-03 0.0000000000000000e+00  3.7304224392604632e-04 5.8048046133194059e-03 0.0000000000000000e+00  3.6115260116263530e-04 5.7008045824544565e-03 0.0000000000000000e+00  3.8633650907435877e-04 5.9633730107916463e-03 0.0000000000000000e+00  3.7139267832356904e-04 5.8608667591402933e-03 0.0000000000000000e+00  4.0066219771096086e-04 6.1195109474893030e-03 0.0000000000000000e+00  3.8316995515598782e-04 6.0177666925162699e-03 0.0000000000000000e+00  4.1639490738165018e-04 6.2730741142782674e-03 0.0000000000000000e+00  3.9684723109597160e-04 6.1716590416689178e-03 0.0000000000000000e+00  4.3373891597597462e-04 6.4241126965519672e-03 0.0000000000000000e+00  4.1258248778767114e-04 6.3228333225035733e-03 0.0000000000000000e+00  4.3038435902038169e-04 6.4716195051913762e-03 0.0000000000000000e+00  4.5015385449672155e-04 6.6183319165721592e-03 0.0000000000000000e+00  4.7171832664849714e-04 6.7632319290970152e-03 0.0000000000000000e+00  4.9486524953739795e-04 6.9064973261324467e-03 0.0000000000000000e+00  5.1936877685841503e-04 7.0482205337637736e-03 0.0000000000000000e+00  5.4500451007469524e-04 7.1884221290866327e-03 0.0000000000000000e+00  5.7155580093367036e-04 7.3270629524129841e-03 0.0000000000000000e+00  5.9881707723006953e-04 7.4640491488920848e-03 0.0000000000000000e+00  6.2659751845403275e-04 7.5992324119093183e-03 0.0000000000000000e+00  6.5472586503391829e-04 7.7324090232718723e-03 0.0000000000000000e+00  6.8305568865060606e-04 7.8633199772586444e-03 0.0000000000000000e+00  7.1147046766414110e-04 7.9916520522859726e-03 0.0000000000000000e+00  7.3988512421793110e-04 8.1170448008718137e-03 0.0000000000000000e+00  7.6824299989122725e-04 8.2390982816172246e-03 0.0000000000000000e+00  7.9651176074402416e-04 8.3573758887080431e-03 0.0000000000000000e+00  8.2468610166506323e-04 8.4714004476246548e-03 0.0000000000000000e+00  8.5280219980580412e-04 8.5806565463064227e-03 0.0000000000000000e+00  8.8096192610717401e-04 8.6846132701017299e-03 0.0000000000000000e+00  9.0935948423711914e-04 8.7827754680661098e-03 0.0000000000000000e+00  9.3830298567038214e-04 8.8747775482113066e-03 0.0000000000000000e+00  9.6819571035843943e-04 8.9606298766556729e-03 0.0000000000000000e+00  9.9945075184576927e-04 9.0412545864580213e-03 0.0000000000000000e+00  1.0319692454332833e-03 9.1188698185383273e-03 0.0000000000000000e+00  1.0628592397247771e-03 9.1979844425938758e-03 0.0000000000000000e+00  1.0916046710629733e-03 9.2750880091721308e-03 0.0000000000000000e+00  2.8148008675765414e-04 4.6353736833941702e-03 0.0000000000000000e+00  2.9082817402225795e-04 4.7659752856527146e-03 0.0000000000000000e+00  2.9241260338172369e-04 4.6472972860241183e-03 0.0000000000000000e+00  3.0242978808795601e-04 4.7715022093000343e-03 0.0000000000000000e+00  3.1550914901953277e-04 4.9241028436494997e-03 0.0000000000000000e+00  3.2528349987873373e-04 5.0927280725175123e-03 0.0000000000000000e+00  3.3184368013534969e-04 5.2646796416353061e-03 0.0000000000000000e+00  3.3710437178790078e-04 5.4343965159599330e-03 0.0000000000000000e+00  3.4275708954432818e-04 5.6000278915650514e-03 0.0000000000000000e+00  3.4992262669730664e-04 5.7612915176786178e-03 0.0000000000000000e+00  3.5922964316027317e-04 5.9185520746951117e-03 0.0000000000000000e+00  3.7097033386437889e-04 6.0723580782660203e-03 0.0000000000000000e+00  3.8522061690157895e-04 6.2232808263810030e-03 0.0000000000000000e+00  4.0190994361585347e-04 6.3718591416075179e-03 0.0000000000000000e+00  4.2086471265408219e-04 6.5185622189277174e-03 0.0000000000000000e+00  4.4184252744662795e-04 6.6637601378411364e-03 0.0000000000000000e+00  4.6457432030659802e-04 6.8076856679141311e-03 0.0000000000000000e+00  4.8879539490973435e-04 6.9504499299116182e-03 0.0000000000000000e+00  5.1425688067528611e-04 7.0920762766513183e-03 0.0000000000000000e+00  5.4072593993957077e-04 7.2325224158463017e-03 0.0000000000000000e+00  5.6798483456065724e-04 7.3716862751091565e-03 0.0000000000000000e+00  5.9583340794593619e-04 7.5094037751441984e-03 0.0000000000000000e+00  6.2409508503755704e-04 7.6454457159140180e-03 0.0000000000000000e+00  6.5262463033583396e-04 7.7795172814764269e-03 0.0000000000000000e+00  6.8131693598842409e-04 7.9112584043081590e-03 0.0000000000000000e+00  7.1010902916935530e-04 8.0402576689957879e-03 0.0000000000000000e+00  7.3897227224709939e-04 8.1660662130319424e-03 0.0000000000000000e+00  7.6789946165631208e-04 8.2881983533025123e-03 0.0000000000000000e+00  7.9690080915806197e-04 8.4061101401914518e-03 0.0000000000000000e+00  8.2602045969404402e-04 8.5191802519096298e-03 0.0000000000000000e+00  8.5537704981237172e-04 8.6267192822854551e-03 0.0000000000000000e+00  8.8521870142828460e-04 8.7280173901721075e-03 0.0000000000000000e+00  9.1596941697516922e-04 8.8224347711837216e-03 0.0000000000000000e+00  9.4815367806203130e-04 8.9097321586384410e-03 0.0000000000000000e+00  9.8209964911612235e-04 8.9907611898467840e-03 0.0000000000000000e+00  1.0181008050387666e-03 9.0691533336448287e-03 0.0000000000000000e+00  1.0515254646219338e-03 9.1567271647562849e-03 0.0000000000000000e+00  1.0775735543400652e-03 9.2403759394246252e-03 0.0000000000000000e+00  1.0929151417183578e-03 9.3440939338284446e-03 0.0000000000000000e+00  2.9095128265142778e-04 4.6355830627417671e-03 0.0000000000000000e+00  3.0455325895396151e-04 4.7971283287397163e-03 0.0000000000000000e+00  3.1120293181638540e-04 4.9792918628643289e-03 0.0000000000000000e+00  3.1331078221646735e-04 5.1603080783325615e-03 0.0000000000000000e+00  3.1436076594680876e-04 5.3349913224466847e-03 0.0000000000000000e+00  3.1652129438067755e-04 5.5028977733693257e-03 0.0000000000000000e+00  3.2094082800979877e-04 5.6648228131090193e-03 0.0000000000000000e+00  3.2812920560711827e-04 5.8218873011594797e-03 0.0000000000000000e+00  3.3824919492541131e-04 5.9751003864850164e-03 0.0000000000000000e+00  3.5127473766321599e-04 6.1253313661888756e-03 0.0000000000000000e+00  3.6705258050512984e-04 6.2733372276640043e-03 0.0000000000000000e+00  3.8533353241699164e-04 6.4197500643322488e-03 0.0000000000000000e+00  4.0580106472075492e-04 6.5650538820076019e-03 0.0000000000000000e+00  4.2813037420713098e-04 6.7095181149993350e-03 0.0000000000000000e+00  4.5202652745800616e-04 6.8532492846426788e-03 0.0000000000000000e+00  4.7722773831291031e-04 6.9962590821674797e-03 0.0000000000000000e+00  5.0349443376601990e-04 7.1384973020041645e-03 0.0000000000000000e+00  5.3060214973446541e-04 7.2798532563074165e-03 0.0000000000000000e+00  5.5834342979021545e-04 7.4201463717986603e-03 0.0000000000000000e+00  5.8653688441665571e-04 7.5591182725251206e-03 0.0000000000000000e+00  6.1503995969973760e-04 7.6964306383162954e-03 0.0000000000000000e+00  6.4376628943935295e-04 7.8316620766917984e-03 0.0000000000000000e+00  6.7269045764163323e-04 7.9643374740496087e-03 0.0000000000000000e+00  7.0183451765887630e-04 8.0939566229930940e-03 0.0000000000000000e+00  7.3124263059543319e-04 8.2199969474031128e-03 0.0000000000000000e+00  7.6096473412729220e-04 8.3418637516009843e-03 0.0000000000000000e+00  7.9106594236613942e-04 8.4588283730353767e-03 0.0000000000000000e+00  8.2168823684007034e-04 8.5699971639456394e-03 0.0000000000000000e+00  8.5318225555538877e-04 8.6743352065873271e-03 0.0000000000000000e+00  8.8627451513945252e-04 8.7707445229118098e-03 0.0000000000000000e+00  9.2194258778805199e-04 8.8586295635383495e-03 0.0000000000000000e+00  9.6057872185749383e-04 8.9390300774654912e-03 0.0000000000000000e+00  1.0002590506337304e-03 9.0149473179960745e-03 0.0000000000000000e+00  1.0342541150495192e-03 9.1135294492442689e-03 0.0000000000000000e+00  1.0675419526154626e-03 9.2170289947603266e-03 0.0000000000000000e+00  1.0312997961171029e-03 9.3426896944710913e-03 0.0000000000000000e+00  1.0263868486088861e-03 9.4200259193472895e-03 0.0000000000000000e+00  2.8333126064639320e-04 4.6641693139804711e-03 0.0000000000000000e+00  2.8634479070187150e-04 4.8687341689360366e-03 0.0000000000000000e+00  2.8416149384487304e-04 5.0607557015351591e-03 0.0000000000000000e+00  2.8173260416947956e-04 5.2401869639503310e-03 0.0000000000000000e+00  2.8127470435700927e-04 5.4096300398915930e-03 0.0000000000000000e+00  2.8375049027494693e-04 5.5714260085561879e-03 0.0000000000000000e+00  2.8946646590235581e-04 5.7276270278723736e-03 0.0000000000000000e+00  2.9845079658454325e-04 5.8796948717656288e-03 0.0000000000000000e+00  3.1060590511182797e-04 6.0287720773993195e-03 0.0000000000000000e+00  3.2572539163854182e-04 6.1758341043294269e-03 0.0000000000000000e+00  3.4349952067765153e-04 6.3216869994932312e-03 0.0000000000000000e+00  3.6353471789565128e-04 6.4669421922848918e-03 0.0000000000000000e+00  3.8545500791255932e-04 6.6118692310374108e-03 0.0000000000000000e+00  4.0895235614914037e-04 6.7565317289179699e-03 0.0000000000000000e+00  4.3377139276439827e-04 6.9009126750077740e-03 0.0000000000000000e+00  4.5967897172874504e-04 7.0449540888434196e-03 0.0000000000000000e+00  4.8644902544948059e-04 7.1885421669452129e-03 0.0000000000000000e+00  5.1386564456012442e-04 7.3314830459439316e-03 0.0000000000000000e+00  5.4173805526403743e-04 7.4734866051083164e-03 0.0000000000000000e+00  5.6992166928483397e-04 7.6141612866273273e-03 0.0000000000000000e+00  5.9835278814174362e-04 7.7529988542025616e-03 0.0000000000000000e+00  6.2705885329338875e-04 7.8894368010248399e-03 0.0000000000000000e+00  6.5613750832315071e-04 8.0229155176970816e-03 0.0000000000000000e+00  6.8571662197061103e-04 8.1528927490379672e-03 0.0000000000000000e+00  7.1592840938483442e-04 8.2787569128115503e-03 0.0000000000000000e+00  7.4689381224169685e-04 8.3997052960151121e-03 0.0000000000000000e+00  7.7876167145593718e-04 8.5146048157445833e-03 0.0000000000000000e+00  8.1196793036513099e-04 8.6218946501474322e-03 0.0000000000000000e+00  8.4776449129036460e-04 8.7195816061058674e-03 0.0000000000000000e+00  8.8818255611384221e-04 8.8064641223212173e-03 0.0000000000000000e+00  9.3411056110301359e-04 8.8848117437599107e-03 0.0000000000000000e+00  9.8107264996796372e-04 8.9631306065502108e-03 0.0000000000000000e+00  9.8122953700884030e-04 9.0827791435764572e-03 0.0000000000000000e+00  9.7193038007535408e-04 9.2130516683249005e-03 0.0000000000000000e+00  9.6579110991037466e-04 9.3402739967200672e-03 0.0000000000000000e+00  9.6134054732242727e-04 9.4181168298189139e-03 0.0000000000000000e+00  9.6252416767288738e-04 9.4807734941306510e-03 0.0000000000000000e+00  2.4335543118186862e-04 4.7636900291705333e-03 0.0000000000000000e+00  2.4111884115864913e-04 4.9671855920718506e-03 0.0000000000000000e+00  2.3794197277720718e-04 5.1502327470176537e-03 0.0000000000000000e+00  2.3665445704367704e-04 5.3200966206398423e-03 0.0000000000000000e+00  2.3838750059720451e-04 5.4808174665566117e-03 0.0000000000000000e+00  2.4342085562999714e-04 5.6354796432161814e-03 0.0000000000000000e+00  2.5177907344051435e-04 5.7858687909752198e-03 0.0000000000000000e+00  2.6340052443892285e-04 5.9333361999335888e-03 0.0000000000000000e+00  2.7808928467408652e-04 6.0790868011041475e-03 0.0000000000000000e+00  2.9549730245411723e-04 6.2241306903914433e-03 0.0000000000000000e+00  3.1513597678595455e-04 6.3692465128326620e-03 0.0000000000000000e+00  3.3658184437147061e-04 6.5146277688102449e-03 0.0000000000000000e+00  3.5954240646523969e-04 6.6602329212639448e-03 0.0000000000000000e+00  3.8379796368544114e-04 6.8060005758725506e-03 0.0000000000000000e+00  4.0913797138707750e-04 6.9518772996960852e-03 0.0000000000000000e+00  4.3533731148895637e-04 7.0977627047674888e-03 0.0000000000000000e+00  4.6216440252293175e-04 7.2434597903462987e-03 0.0000000000000000e+00  4.8940584145165417e-04 7.3886472432107223e-03 0.0000000000000000e+00  5.1689895996757257e-04 7.5328701327983597e-03 0.0000000000000000e+00  5.4460033682690329e-04 7.6754890793380576e-03 0.0000000000000000e+00  5.7260163338451156e-04 7.8158153283214207e-03 0.0000000000000000e+00  6.0109225986581844e-04 7.9532157469595043e-03 0.0000000000000000e+00  6.3029652664763210e-04 8.0871516953029427e-03 0.0000000000000000e+00  6.6045362337323690e-04 8.2170412787697343e-03 0.0000000000000000e+00  6.9177783760026039e-04 8.3421314023350950e-03 0.0000000000000000e+00  7.2431062175147489e-04 8.4612394471437653e-03 0.0000000000000000e+00  7.5796230144920809e-04 8.5722481493597808e-03 0.0000000000000000e+00  7.9347646803813363e-04 8.6719000087770622e-03 0.0000000000000000e+00  8.3179230691527296e-04 8.7592421015860317e-03 0.0000000000000000e+00  8.6690666903824817e-04 8.8444777424401978e-03 0.0000000000000000e+00  8.6521183313873710e-04 8.9623973180061531e-03 0.0000000000000000e+00  8.6349579686210705e-04 9.0817346846208003e-03 0.0000000000000000e+00  8.5960392143706273e-04 9.2097733075745310e-03 0.0000000000000000e+00  8.5289371273824003e-04 9.3384591289145131e-03 0.0000000000000000e+00  8.7569315147998099e-04 9.4206716415271355e-03 0.0000000000000000e+00  8.4466847028860225e-04 9.5101462409726799e-03 0.0000000000000000e+00  8.1033573082139009e-04 9.6069280111286577e-03 0.0000000000000000e+00  1.8777751400662375e-04 4.8802541898677557e-03 0.0000000000000000e+00  1.8564439567852250e-04 5.0649659066122786e-03 0.0000000000000000e+00  1.8452898754197511e-04 5.2339781577555172e-03 0.0000000000000000e+00  1.8620298793621331e-04 5.3926100284677541e-03 0.0000000000000000e+00  1.9097828364652374e-04 5.5451475601349691e-03 0.0000000000000000e+00  1.9894996429380753e-04 5.6933772627459382e-03 0.0000000000000000e+00  2.1018826667028011e-04 5.8387727799809061e-03 0.0000000000000000e+00  2.2455445793290079e-04 5.9828266818111268e-03 0.0000000000000000e+00  2.4165899951338786e-04 6.1268234320964784e-03 0.0000000000000000e+00  2.6084816364052880e-04 6.2718095052177979e-03 0.0000000000000000e+00  2.8164958342413840e-04 6.4177290433744053e-03 0.0000000000000000e+00  3.0383518529578563e-04 6.5643361166924409e-03 0.0000000000000000e+00  3.2726385000106048e-04 6.7115216791015118e-03 0.0000000000000000e+00  3.5176494887363783e-04 6.8592741141907804e-03 0.0000000000000000e+00  3.7711105098045192e-04 7.0075406154281534e-03 0.0000000000000000e+00  4.0303852272187917e-04 7.1561415487469259e-03 0.0000000000000000e+00  4.2928555325351278e-04 7.3047311193406520e-03 0.0000000000000000e+00  4.5563747298588700e-04 7.4527849441517321e-03 0.0000000000000000e+00  4.8206409943697670e-04 7.5994523906801033e-03 0.0000000000000000e+00  5.0873352666312439e-04 7.7438602087037843e-03 0.0000000000000000e+00  5.3593459975801805e-04 7.8852869431305147e-03 0.0000000000000000e+00  5.6396813127662757e-04 8.0232359254628644e-03 0.0000000000000000e+00  5.9317078466102904e-04 8.1571707500100506e-03 0.0000000000000000e+00  6.2392671771088488e-04 8.2864879197756067e-03 0.0000000000000000e+00  6.5642535323558670e-04 8.4105068684675877e-03 0.0000000000000000e+00  6.8979461737695607e-04 8.5273299581415437e-03 0.0000000000000000e+00  7.2230914267191353e-04 8.6317568123004187e-03 0.0000000000000000e+00  7.5094375396157222e-04 8.7254923406169371e-03 0.0000000000000000e+00  7.5013553536841917e-04 8.8444092720725061e-03 0.0000000000000000e+00  7.4941185214104421e-04 8.9618074434269779e-03 0.0000000000000000e+00  7.4782786663091445e-04 9.0808353492448698e-03 0.0000000000000000e+00  7.4279902217867897e-04 9.2078508941113146e-03 0.0000000000000000e+00  7.3525208580987921e-04 9.3389653897636531e-03 0.0000000000000000e+00  7.2683151440720178e-04 9.4391927232159653e-03 0.0000000000000000e+00  7.0674837891633634e-04 9.5454935613157234e-03 0.0000000000000000e+00  6.7938485617691604e-04 9.6455331854021636e-03 0.0000000000000000e+00  6.5072819943739655e-04 9.7386911031788880e-03 0.0000000000000000e+00  1.3141834623816426e-04 4.9853709139111701e-03 0.0000000000000000e+00  1.2830558829341742e-04 5.1515570484789849e-03 0.0000000000000000e+00  1.2933448405921282e-04 5.3066705927709299e-03 0.0000000000000000e+00  1.3360109887261944e-04 5.4565662506993679e-03 0.0000000000000000e+