<?xml version="1.0"?>
<VTKFile type="UnstructuredGrid"  version="0.1"  >
<UnstructuredGrid>
<Piece  NumberOfPoints="639" NumberOfCells="1175">
<Points>
<DataArray  type="Float64"  NumberOfComponents="3"  format="ascii">1.321739130434783 0 0  1.338260869565217 0 0  1.338260869565217 0.01666666666666667 0  1.354782608695652 0 0  1.354782608695652 0.01666666666666667 0  1.371304347826087 0 0  1.371304347826087 0.01666666666666667 0  1.387826086956522 0 0  1.387826086956522 0.01666666666666667 0  1.404347826086957 0 0  1.404347826086957 0.01666666666666667 0  1.420869565217391 0 0  1.420869565217391 0.01666666666666667 0  1.437391304347826 0 0  1.437391304347826 0.01666666666666667 0  1.453913043478261 0 0  1.453913043478261 0.01666666666666667 0  1.470434782608696 0 0  1.470434782608696 0.01666666666666667 0  1.486956521739131 0 0  1.486956521739131 0.01666666666666667 0  1.503478260869565 0 0  1.503478260869565 0.01666666666666667 0  1.52 0 0  1.52 0.01666666666666667 0  1.536521739130435 0 0  1.536521739130435 0.01666666666666667 0  1.55304347826087 0 0  1.55304347826087 0.01666666666666667 0  1.569565217391304 0 0  1.569565217391304 0.01666666666666667 0  1.586086956521739 0 0  1.586086956521739 0.01666666666666667 0  1.602608695652174 0 0  1.602608695652174 0.01666666666666667 0  1.619130434782609 0 0  1.619130434782609 0.01666666666666667 0  1.635652173913043 0 0  1.635652173913043 0.01666666666666667 0  1.652173913043478 0 0  1.652173913043478 0.01666666666666667 0  1.668695652173913 0 0  1.668695652173913 0.01666666666666667 0  1.685217391304348 0 0  1.685217391304348 0.01666666666666667 0  1.701739130434782 0 0  1.701739130434782 0.01666666666666667 0  1.718260869565217 0 0  1.718260869565217 0.01666666666666667 0  1.734782608695652 0 0  1.734782608695652 0.01666666666666667 0  1.751304347826087 0 0  1.751304347826087 0.01666666666666667 0  1.767826086956522 0 0  1.767826086956522 0.01666666666666667 0  1.784347826086957 0 0  1.784347826086957 0.01666666666666667 0  1.800869565217391 0 0  1.800869565217391 0.01666666666666667 0  1.817391304347826 0 0  1.817391304347826 0.01666666666666667 0  1.833913043478261 0 0  1.833913043478261 0.01666666666666667 0  1.850434782608696 0 0  1.850434782608696 0.01666666666666667 0  1.86695652173913 0 0  1.86695652173913 0.01666666666666667 0  1.883478260869565 0 0  1.883478260869565 0.01666666666666667 0  1.354782608695652 0.03333333333333333 0  1.371304347826087 0.03333333333333333 0  1.387826086956522 0.03333333333333333 0  1.404347826086957 0.03333333333333333 0  1.420869565217391 0.03333333333333333 0  1.437391304347826 0.03333333333333333 0  1.453913043478261 0.03333333333333333 0  1.470434782608696 0.03333333333333333 0  1.486956521739131 0.03333333333333333 0  1.503478260869565 0.03333333333333333 0  1.52 0.03333333333333333 0  1.536521739130435 0.03333333333333333 0  1.55304347826087 0.03333333333333333 0  1.569565217391304 0.03333333333333333 0  1.586086956521739 0.03333333333333333 0  1.602608695652174 0.03333333333333333 0  1.619130434782609 0.03333333333333333 0  1.635652173913043 0.03333333333333333 0  1.652173913043478 0.03333333333333333 0  1.668695652173913 0.03333333333333333 0  1.685217391304348 0.03333333333333333 0  1.701739130434782 0.03333333333333333 0  1.718260869565217 0.03333333333333333 0  1.734782608695652 0.03333333333333333 0  1.751304347826087 0.03333333333333333 0  1.767826086956522 0.03333333333333333 0  1.784347826086957 0.03333333333333333 0  1.800869565217391 0.03333333333333333 0  1.817391304347826 0.03333333333333333 0  1.833913043478261 0.03333333333333333 0  1.850434782608696 0.03333333333333333 0  1.86695652173913 0.03333333333333333 0  1.883478260869565 0.03333333333333333 0  1.371304347826087 0.05 0  1.387826086956522 0.05 0  1.404347826086957 0.05 0  1.420869565217391 0.05 0  1.437391304347826 0.05 0  1.453913043478261 0.05 0  1.470434782608696 0.05 0  1.486956521739131 0.05 0  1.503478260869565 0.05 0  1.52 0.05 0  1.536521739130435 0.05 0  1.55304347826087 0.05 0  1.569565217391304 0.05 0  1.586086956521739 0.05 0  1.602608695652174 0.05 0  1.619130434782609 0.05 0  1.635652173913043 0.05 0  1.652173913043478 0.05 0  1.668695652173913 0.05 0  1.685217391304348 0.05 0  1.701739130434782 0.05 0  1.718260869565217 0.05 0  1.734782608695652 0.05 0  1.751304347826087 0.05 0  1.767826086956522 0.05 0  1.784347826086957 0.05 0  1.800869565217391 0.05 0  1.817391304347826 0.05 0  1.833913043478261 0.05 0  1.850434782608696 0.05 0  1.86695652173913 0.05 0  1.883478260869565 0.05 0  1.387826086956522 0.06666666666666667 0  1.404347826086957 0.06666666666666667 0  1.420869565217391 0.06666666666666667 0  1.437391304347826 0.06666666666666667 0  1.453913043478261 0.06666666666666667 0  1.470434782608696 0.06666666666666667 0  1.486956521739131 0.06666666666666667 0  1.503478260869565 0.06666666666666667 0  1.52 0.06666666666666667 0  1.536521739130435 0.06666666666666667 0  1.55304347826087 0.06666666666666667 0  1.569565217391304 0.06666666666666667 0  1.586086956521739 0.06666666666666667 0  1.602608695652174 0.06666666666666667 0  1.619130434782609 0.06666666666666667 0  1.635652173913043 0.06666666666666667 0  1.652173913043478 0.06666666666666667 0  1.668695652173913 0.06666666666666667 0  1.685217391304348 0.06666666666666667 0  1.701739130434782 0.06666666666666667 0  1.718260869565217 0.06666666666666667 0  1.734782608695652 0.06666666666666667 0  1.751304347826087 0.06666666666666667 0  1.767826086956522 0.06666666666666667 0  1.784347826086957 0.06666666666666667 0  1.800869565217391 0.06666666666666667 0  1.817391304347826 0.06666666666666667 0  1.833913043478261 0.06666666666666667 0  1.850434782608696 0.06666666666666667 0  1.86695652173913 0.06666666666666667 0  1.883478260869565 0.06666666666666667 0  1.404347826086957 0.08333333333333333 0  1.420869565217391 0.08333333333333333 0  1.437391304347826 0.08333333333333333 0  1.453913043478261 0.08333333333333333 0  1.470434782608696 0.08333333333333333 0  1.486956521739131 0.08333333333333333 0  1.503478260869565 0.08333333333333333 0  1.52 0.08333333333333333 0  1.536521739130435 0.08333333333333333 0  1.55304347826087 0.08333333333333333 0  1.569565217391304 0.08333333333333333 0  1.586086956521739 0.08333333333333333 0  1.602608695652174 0.08333333333333333 0  1.619130434782609 0.08333333333333333 0  1.635652173913043 0.08333333333333333 0  1.652173913043478 0.08333333333333333 0  1.668695652173913 0.08333333333333333 0  1.685217391304348 0.08333333333333333 0  1.701739130434782 0.08333333333333333 0  1.718260869565217 0.08333333333333333 0  1.734782608695652 0.08333333333333333 0  1.751304347826087 0.08333333333333333 0  1.767826086956522 0.08333333333333333 0  1.784347826086957 0.08333333333333333 0  1.800869565217391 0.08333333333333333 0  1.817391304347826 0.08333333333333333 0  1.833913043478261 0.08333333333333333 0  1.850434782608696 0.08333333333333333 0  1.86695652173913 0.08333333333333333 0  1.883478260869565 0.08333333333333333 0  1.420869565217391 0.1 0  1.437391304347826 0.1 0  1.453913043478261 0.1 0  1.470434782608696 0.1 0  1.486956521739131 0.1 0  1.503478260869565 0.1 0  1.52 0.1 0  1.536521739130435 0.1 0  1.55304347826087 0.1 0  1.569565217391304 0.1 0  1.586086956521739 0.1 0  1.602608695652174 0.1 0  1.619130434782609 0.1 0  1.635652173913043 0.1 0  1.652173913043478 0.1 0  1.668695652173913 0.1 0  1.685217391304348 0.1 0  1.701739130434782 0.1 0  1.718260869565217 0.1 0  1.734782608695652 0.1 0  1.751304347826087 0.1 0  1.767826086956522 0.1 0  1.784347826086957 0.1 0  1.800869565217391 0.1 0  1.817391304347826 0.1 0  1.833913043478261 0.1 0  1.850434782608696 0.1 0  1.86695652173913 0.1 0  1.883478260869565 0.1 0  1.437391304347826 0.1166666666666667 0  1.453913043478261 0.1166666666666667 0  1.470434782608696 0.1166666666666667 0  1.486956521739131 0.1166666666666667 0  1.503478260869565 0.1166666666666667 0  1.52 0.1166666666666667 0  1.536521739130435 0.1166666666666667 0  1.55304347826087 0.1166666666666667 0  1.569565217391304 0.1166666666666667 0  1.586086956521739 0.1166666666666667 0  1.602608695652174 0.1166666666666667 0  1.619130434782609 0.1166666666666667 0  1.635652173913043 0.1166666666666667 0  1.652173913043478 0.1166666666666667 0  1.668695652173913 0.1166666666666667 0  1.685217391304348 0.1166666666666667 0  1.701739130434782 0.1166666666666667 0  1.718260869565217 0.1166666666666667 0  1.734782608695652 0.1166666666666667 0  1.751304347826087 0.1166666666666667 0  1.767826086956522 0.1166666666666667 0  1.784347826086957 0.1166666666666667 0  1.800869565217391 0.1166666666666667 0  1.817391304347826 0.1166666666666667 0  1.833913043478261 0.1166666666666667 0  1.850434782608696 0.1166666666666667 0  1.86695652173913 0.1166666666666667 0  1.883478260869565 0.1166666666666667 0  1.453913043478261 0.1333333333333333 0  1.470434782608696 0.1333333333333333 0  1.486956521739131 0.1333333333333333 0  1.503478260869565 0.1333333333333333 0  1.52 0.1333333333333333 0  1.536521739130435 0.1333333333333333 0  1.55304347826087 0.1333333333333333 0  1.569565217391304 0.1333333333333333 0  1.586086956521739 0.1333333333333333 0  1.602608695652174 0.1333333333333333 0  1.619130434782609 0.1333333333333333 0  1.635652173913043 0.1333333333333333 0  1.652173913043478 0.1333333333333333 0  1.668695652173913 0.1333333333333333 0  1.685217391304348 0.1333333333333333 0  1.701739130434782 0.1333333333333333 0  1.718260869565217 0.1333333333333333 0  1.734782608695652 0.1333333333333333 0  1.751304347826087 0.1333333333333333 0  1.767826086956522 0.1333333333333333 0  1.784347826086957 0.1333333333333333 0  1.800869565217391 0.1333333333333333 0  1.817391304347826 0.1333333333333333 0  1.833913043478261 0.1333333333333333 0  1.850434782608696 0.1333333333333333 0  1.86695652173913 0.1333333333333333 0  1.883478260869565 0.1333333333333333 0  1.470434782608696 0.15 0  1.486956521739131 0.15 0  1.503478260869565 0.15 0  1.52 0.15 0  1.5365217391304
[...]
<CellData  Scalars="sigma_m"> 
<DataArray  type="Float64"  Name="sigma_m"  format="ascii">7.4782181097437097e+06   7.4657743692660965e+06   7.9679770583924353e+06   7.4496223685017051e+06   7.9996321364240702e+06   7.4451103588078739e+06   8.0633069703500913e+06   7.4144636003978010e+06   8.2679242764243493e+06   7.1289726562270587e+06   8.8112831439069491e+06   6.6029660052278573e+06   9.4551378258810677e+06   6.2978642657668535e+06   9.6910544657782465e+06   6.5402797416663459e+06   9.1496214106284473e+06   6.9450182798773823e+06   8.2875775236527771e+06   7.4428572604746390e+06   7.5362098911942523e+06   7.9443294795906777e+06   6.9500056088428013e+06   8.3279146507406728e+06   6.7263922319504935e+06   8.4672241857819334e+06   6.5722558981928732e+06   8.6601232878293600e+06   6.4932288321487531e+06   9.3356217254016325e+06   6.7113806081421124e+06   1.0569564388696587e+07   7.2516694908962483e+06   1.2131344990084680e+07   7.9107230706533361e+06   1.3657941046603383e+07   8.4344432730935309e+06   1.4917389070475504e+07   8.7114795227478072e+06   1.6014592960900573e+07   8.8628650502922889e+06   1.6561811985225517e+07   8.7040295146548841e+06   1.6983544872920662e+07   8.5040185075930841e+06   1.6473834986241397e+07   8.6025317279735617e+06   1.5080718117696753e+07   8.5274820362546798e+06   1.3156716410614651e+07   8.2002541655954774e+06   1.1069329924443757e+07   7.7270166667461032e+06   8.9174727982414737e+06   7.4543250963446181e+06   6.8117236672318270e+06   7.1921775099768396e+06   5.0551624643741949e+06   6.6585835415452784e+06   4.0498858223686609e+06   6.1379099115717448e+06   3.9890705087086260e+06   5.5077746863637343e+06   4.4272566267639911e+06   4.7928411917944951e+06   4.6124292088758862e+06   4.0101344445964633e+06   8.0029717296336042e+06   8.0354839824070940e+06   8.5330444025278967e+06   8.0998379918551119e+06   8.5585744314355440e+06   8.3311332690962814e+06   8.5048656441005338e+06   8.9686690734067410e+06   9.0519307619668730e+06   9.6332043338495307e+06   1.2390750064330023e+07   9.8590120426838174e+06   1.5243700377771690e+07   9.2373106212563980e+06   1.2751814977541273e+07   8.2970511387140090e+06   8.6129715512792598e+06   7.4645867082616044e+06   7.9999046479832381e+06   6.8823254010566026e+06   5.0920790973485187e+06   6.6706904020121181e+06   4.6041728933693897e+06   6.4463852253747927e+06   4.2637378602320729e+06   6.4692334414590551e+06   3.7502572300472199e+06   6.9932199879732151e+06   3.6896258628924298e+06   7.8139375679869801e+06   4.0861683973680362e+06   8.5750816007885449e+06   4.3261213493695166e+06   8.9592194184592944e+06   4.0158740663261162e+06   8.9777706341542769e+06   3.3065457611091742e+06   8.9344054370073602e+06   2.7843295118502579e+06   8.2263304463515449e+06   3.7870687207431300e+06   7.9224752207445549e+06   3.7167984062694078e+06   7.1053393654328873e+06   6.1013682495464906e+06   6.4408652525300775e+06   6.5442396179536367e+06   6.0951489232640592e+06   5.6048695785409175e+06   6.1167468359252987e+06   4.4659512509707287e+06   6.5767965144622149e+06   4.6845446186223999e+06   7.2606267198079489e+06   7.3685884645700073e+06   7.6815037139360793e+06   9.6341321238220278e+06   7.7187526287481319e+06   1.0200106072270393e+07   7.7272548250024188e+06   1.2397280013678182e+07   7.1604135519151101e+06   1.2221253759837016e+07   6.1724017422503550e+06   1.2159192223320769e+07   4.8670602389589148e+06   2.4277821805832530e+06   6.0015366945341430e+02   4.8532911385898036e+05   1.5873034561055709e+02   4.9856445119458818e+04   1.1638844916104439e+01   6.6581361536931272e+03   1.2555377966289953e+00   2.7901975680961082e+03   3.4046310568967864e-01   9.0318952224238365e+03   4.5620537498951663e-01   8.9242654928960500e+05   9.0620837886700585e+00   6.7695427679275041e+06   1.2738220974706919e+04   4.8779555707528694e+06   3.4478518166211760e+06   4.4094213488240736e+06   2.0195310618581166e+06   3.9977109929146511e+06   2.2437570028390223e+06   3.9106917002890580e+06   1.2640155514010363e+06   4.3762668093299409e+06   1.2102633022585744e+06   4.9266826606256794e+06   1.9204040844110562e+06   5.0745919415095262e+06   1.7724429536794138e+06   4.4072717922061691e+06   1.1303673363143709e+06   3.0392963329156567e+06   3.2491517456760565e+06   2.0766804230202220e+06   4.6470089135123864e+06   1.6237880485752921e+06   8.9998232650083322e+06   4.2774583947716365e+06   7.8266546299148398e+06   5.0362633742529973e+06   1.5609119339686442e+07   3.9214502872132817e+06   1.3466012187569259e+07   1.2937216459038900e+06   7.4585747053322280e+06   2.6117010208836410e+05   2.6753895187326948e+03   1.1138603462403067e+05   3.9551003777164489e+01   1.6800401208040290e+04   1.7467071137528265e+00   2.9602812489862983e+04   1.1360134384947715e+00   5.9911518117759388e+05   7.2243460575711023e+00   7.9719161280995803e+06   5.1204905183630990e+02   1.2476246888088962e+07   9.1649478257530474e+05   1.4241323075417334e+07   1.7373201679077506e+07   0.0000000000000000e+00   0.0000000000000000e+00   0.0000000000000000e+00   0.0000000000000000e+00   0.0000000000000000e+00   0.0000000000000000e+00   0.0000000000000000e+00   0.0000000000000000e+00   0.0000000000000000e+00   0.0000000000000000e+00   0.0000000000000000e+00   4.8837801030502290e-10   0.0000000000000000e+00   4.9921080112375093e-06   0.0000000000000000e+00   6.3942109778415803e+00   2.0644809925217397e-06   2.1441628808993413e+06   3.0953143442692163e+01   1.6117383928095184e+06   1.9374937303388811e+05   2.2693165871351715e+06   1.2305482961376407e+06   2.4472692734333999e+06   2.2691897477894821e+06   2.3780064596346072e+06   2.2171267563275872e+06   1.8975478377407615e+06   1.3966395279897042e+06   1.3873916605890922e+06   3.6303849348479388e+06   3.6930276325501529e+06   7.9434035868570972e+06   7.2804340797914937e+06   7.6261564747253712e+06   7.3478765041324962e+06   1.7273034579653554e+07   2.8310093239800632e+06   1.5556365205538736e+06   2.9766726226073598e+02   8.0273161945416782e-01   3.5515935383811587e-03   1.2115939125141564e-05   4.0807863342177815e-07   2.0322691996291702e-09   0.0000000000000000e+00   0.0000000000000000e+00   0.0000000000000000e+00   0.0000000000000000e+00   0.0000000000000000e+00   0.0000000000000000e+00   0.0000000000000000e+00   0.0000000000000000e+00   0.0000000000000000e+00   0.0000000000000000e+00   2.3531623009409379e-09   0.0000000000000000e+00   2.7252150830131459e-06   0.0000000000000000e+00   5.4057028405808505e-02   7.8352885964579488e-08   0.0000000000000000e+00   0.0000000000000000e+00   0.0000000000000000e+00   0.0000000000000000e+00   0.0000000000000000e+00   0.0000000000000000e+00   0.0000000000000000e+00   0.0000000000000000e+00   0.0000000000000000e+00   0.0000000000000000e+00   0.0000000000000000e+00   0.0000000000000000e+00   0.0000000000000000e+00   0.0000000000000000e+00   0.0000000000000000e+00   2.4541581059539259e-03   1.4183078055412758e-09   1.7326600580503647e+06   1.5208930779625127e+00   2.9114696783205653e+06   2.7007600841453513e+06   1.8405542206852976e+06   3.3055506612260477e+06   1.0541375112563958e+06   2.3140440068291835e+06   3.4102623513967064e+06   1.2461203057411148e+06   7.0978109769946719e+06   7.1185977243168578e+06   1.0546110150778726e+07   1.2114356387328425e+07   1.8370859437165449e+06   2.4999092796178209e+06   2.0666578565250776e-01   5.7832111375482531e-03   3.1668993266314383e-08   0.0000000000000000e+00   0.0000000000000000e+00   0.0000000000000000e+00   0.0000000000000000e+00   0.0000000000000000e+00   0.0000000000000000e+00   0.0000000000000000e+00   0.0000000000000000e+00   0.0000000000000000e+00   0.0000000000000000e+00   0.0000000000000000e+00   0.0000000000000000e+00   0.0000000000000000e+00   0.0000000000000000e+00   0.0000000000000000e+00   0.0000000000000000e+00   0.0000000000000000e+00   0.0000000000000000e+00   0.0000000000000000e+00   0.0000000000000000e+00   0.0000000000000000e+00   0.0000000000000000e+00   0.0000000000000000e+00   0.0000000000000000e+00   0.0000000000000000e+00   0.0000000000000000e+00   0.0000000000000000e+00   0.0000000000000000e+00   0.0000000000000000e+00   0.0000000000000000e+00   0.0000000000000000e+00   0.0000000000000000e+00   0.0000000000000000e+00   0.0000000000000000e+00   0.0000000000000000e+00   0.0000000000000000e+00   0.0000000000000000e+00   0.0000000000000000e+00   1.1449507309090821e+00   1.4260287660163506e-04   5.4268042473767670e+06   9.3409256201151814e+06   2.1887463000222682e+06   4.8226224576293938e+06   3.1295258824601937e+06   1.2575710502864039e+06   7.8195307179212477e+06   1.8514379877672833e+06   1.1975147951015826e+07   1.0704710329642188e+07   3.7248053355304914e+03   8.3115929461063606e+03   1.3524445983973274e-06   6.1232186049620793e-07   0.0000000000000000e+00   0.0000000000000000e+00   0.0000000000000000e+00   0.0000000000000000e+00   0.0000000000000000e+00   0.0000000000000000e+00   0.0000000000000000e+00   0.0000000000000000e+00   0.0000000000000000e+00   0.0000000000000000e+00   0.0000000000000000e+00   0.0000000000000000e+00   0.0000000000000000e+00   0.0000000000000000e+00   0.0000000000000000e+00   0.0000000000000000e+00   0.0000000000000000e+00   0.0000000000000000e+00   0.0000000000000000e+00   0.0000000000000000e+00   0.0000000000000000e+00   0.0000000000000000e+00   0.0000000000000000e+00   0.0000000000000000e+00   0.0000000000000000e+00   0.0000000000000000e+00   0.0000000000000000e+00   0.0000000000000000e+00   0.0000000000000000e+00   0.0000000000000000e+00   0.0000000000000000e+00   0.0000000000000000e+00   0.0000000000000000e+00   0.0000000000000000e+00   0.0000000000000000e+00   0.0000000000000000e+00   0.0000000000000000e+00   0.0000000000000000e+00   0.0000000000000000e+00   2.5020081466046923e-01   5.6969033137487602e-03   3.6853695103057399e+06   5.7950496861791322e+06   2.9487657292329147e+06   3.9569880673986380e+06   4.5527650150420386e+06   1.8025150017989296e+06   7.8123986664615255e+06   2.9352686564523722e+06   1.1120296718810916e+07   5.0185415333603695e+06   5.4521841608329623e-06   1.8481363637825113e-04   0.0000000000000000e+00   0.0000000000000000e+00   0.0000000000000000e+00   0.0000000000000000e+00   0.0000000000000000e+00   0.0000000000000000e+00   0.0000000000000000e+00   0.0000000000000000e+00   0.0000000000000000e+00   0.0000000000000000e+00   0.0000000000000000e+00   0.0000000000000000e+00   0.0000000000000000e+00   0.0000000000000000e+00   0.0000000000000000e+00   0.0000000000000000e+00   0.0000000000000000e+00   0.0000000000000000e+00   0.0000000000000000e+00   0.0000000000000000e+00   0.0000000000000000e+00   0.0000000000000000e+00   0.0000000000000000e+00   0.0000000000000000e+00   0.0000000000000000e+00   0.0000000000000000e+00   0.0000000000000000e+00   0.0000000000000000e+00   0.0000000000000000e+00   0.0000000000000000e+00   0.0000000000000000e+00   0.0000000000000000e+00   0.0000000000000000e+00   0.0000000000000000e+00   0.0000000000000000e+00   0.0000000000000000e+00   0.0000000000000000e+00   2.8874489418948089e-07   3.2354103684489160e-08   2.6409670938144529e+04   4.3116579064165098e+03   2.2547373442953108e+06   1.9222417562700952e+06   2.8503927614235985e+06   2.6061810693703983e+06   4.3854014928761143e+06   2.3688777030200078e+06   5.3802608307663733e+06   3.2380071771158990e+06   3.7765914693993118e+03   1.5246095137591618e+06   0.0000000000000000e+00   1.3887554622020766e-08   0.0000000000000000e+00   0.0000000000000000e+00   0.0000000000000000e+00   0.0000000000000000e+00   0.0000000000000000e+00   0.0000000000000000e+00   0.0000000000000000e+00   0.0000000000000000e+00   0.0000000000000000e+00   0.0000000000000000e+00   0.0000000000000000e+00   0.0000000000000000e+00   0.0000000000000000e+00   0.0000000000000000e+00   0.0000000000000000e+00   0.0000000000000000e+00   0.0000000000000000e+00   0.0000000000000000e+00   0.0000000000000000e+00   0.0000000000000000e+00   0.0000000000000000e+00   0.0000000000000000e+00   0.0000000000000000e+00   0.0000000000000000e+00   0.0000000000000000e+00   0.0000000000000000e+00   0.0000000000000000e+00   0.0000000000000000e+00   0.0000000000000000e+00   0.0000000000000000e+00   0.0000000000000000e+00   0.0000000000000000e+00   0.0000000000000000e+00   0.0000000000000000e+00   0.0000000000000000e+00   7.6500311950575410e+00   3.3008866149614904e+00   5.5390142478037404e+05   5.2200363126594957e+05   9.6397303327497491e+05   1.0377837900303056e+06   2.5942635827426640e+06   2.1104085699028806e+06   3.6562279796588104e+06   2.5946552713697837e+06   3.8469249401473906e+06   3.2456895082174102e+06   1.8575803058442884e+02   1.2205328746610050e+05   0.0000000000000000e+00   0.0000000000000000e+00   0.0000000000000000e+00   0.0000000000000000e+00   0.0000000000000000e+00   0.0000000000000000e+00   0.0000000000000000e+00   0.0000000000000000e+00   0.0000000000000000e+00   0.0000000000000000e+00   0.0000000000000000e+00   0.0000000000000000e+00   0.0000000000000000e+00   0.0000000000000000e+00   0.0000000000000000e+00   0.0000000000000000e+00   0.0000000000000000e+00   0.0000000000000000e+00   0.0000000000000000e+00   0.0000000000000000e+00   0.0000000000000000e+00   0.0000000000000000e+00   0.0000000000000000e+00   0.0000000000000000e+00   0.0000000000000000e+00   0.0000000000000000e+00   0.0000000000000000e+00   0.0000000000000000e+00   0.0000000000000000e+00   0.0000000000000000e+00   0.0000000000000000e+00   0.0000000000000000e+00   0.0000000000000000e+00   3.5509284849345707e-01   4.5231937939108441e-01   5.6609428084350878e+05   8.6854864333544252e+05   8.2853832284924772e+05   1.2132670735178888e+06   1.4494043594380082e+06   1.6703785969055579e+06   2.7887977999721249e+06   2.3307788632567488e+06   3.6824958129285956e+06   2.8089760442715143e+06   4.6058236939798407e+06   2.1017792671064315e+06   4.4158922874271610e-02   9.7374174298277349e+00   0.0000000000000000e+00   0.0000000000000000e+00   0.0000000000000000e+00   0.0000000000000000e+00   0.0000000000000000e+00   0.0000000000000000e+00   0.0000000000000000e+00   0.0000000000000000e+00   0.0000000000000000e+00   0.0000000000000000e+00   0.0000000000000000e+00   0.0000000000000000e+00   0.0000000000000000e+00   0.0000000000000000e+00   0.0000000000000000e+00   0.0000000000000000e+00   0.0000000000000000e+00   0.0000000000000000e+00   0.0000000000000000e+00   0.0000000000000000e+00   0.0000000000000000e+00   0.0000000000000000e+00   0.0000000000000000e+00   0.0000000000000000e+00   0.0000000000000000e+00   0.0000000000000000e+00   0.0000000000000000e+00   0.0000000000000000e+00   0.0000000000000000e+00   0.0000000000000000e+00   4.6569949598347122e+00   1.4327288621091479e+06   1.5199802741712318e+06   1.3781000011105028e+06   1.7846326813408723e+06   1.3961831452128566e+06   1.7755053983320796e+06   1.9261598533042788e+06   2.0018500901618390e+06   2.6930786105816569e+06   2.5807549862941029e+06   2.9198905252012643e+06   2.7174817929729419e+06   6.4723720084760418e+04   6.5267125561748364e+05   2.7925985952199327e-08   6.8785457845651814e-07   0.0000000000000000e+00   0.0000000000000000e+00   0.0000000000000000e+00   0.0000000000000000e+00   0.0000000000000000e+00   0.0000000000000000e+00   0.0000000000000000e+00   0.0000000000000000e+00   0.0000000000000000e+00   0.0000000000000000e+00   0.0000000000000000e+00   0.0000000000000000e+00   0.0000000000000000e+00   0.0000000000000000e+00   0.0000000000000000e+00   0.0000000000000000e+00   0.0000000000000000e+00   0.0000000000000000e+00   0.0000000000000000e+00   0.0000000000000000e+00   0.0000000000000000e+00   0.0000000000000000e+00   0.0000000000000000e+00   0.0000000000000000e+00   0.0000000000000000e+00   0.0000000000000000e+00   0.0000000000000000e+00   0.0000000000000000e+00   0.0000000000000000e+00   0.0000000000000000e+00   2.0154821106732807e+06   1.6946006410461843e+06   1.9082274628369489e+06   1.8461248404435981e+06   1.8324402271614776e+06   2.2789041073656087e+06   2.1226792224225691e+06   2.7891258039912335e+06   2.5361571508613625e+06   1.3755793687169757e+06   1.5212096730947162e+06   3.4282324384919558e-04   5.2643774413619455e-04   0.0000000000000000e+00   0.0000000000000000e+00   0.0000000000000000e+00   0.0000000000000000e+00   0.0000000000000000e+00   0.0000000000000000e+00   0.0000000000000000e+00   0.0000000000000000e+00   0.0000000000000000e+00   0.0000000000000000e+00   0.0000000000000000e+00   0.0000000000000000e+00   0.0000000000000000e+00   0.0000000000000000e+00   0.0000000000000000e+00   0.0000000000000000e+00   0.0000000000000000e+00   0.0000000000000000e+00   0.0000000000000000e+00   0.0000000000000000e+00   0.0000000000000000e+00   0.0000000000000000e+00   0.0000000000000000e+00   0.0000000000000000e+00   0.0000000000000000e+00   0.0000000000000000e+00   0.0000000000000000e+00   0.0000000000000000e+00   0.0000000000000000e+00   0.0000000000000000e+00   0.0000000000000000e+00   0.0000000000000000e+00   1.7818348405551638e+06   1.8697373261547696e+06   1.6560023917338690e+06   2.0173115107166937e+06   1.8233567386140930e+06   9.5663379268406203e+05   4.5061503580463794e+05   2.2220504913271046e-04   6.4125002937340570e-05   0.0000000000000000e+00   0.0000000000000000e+00   0.0000000000000000e+00   0.0000000000000000e+00   0.0000000000000000e+00   0.0000000000000000e+00   0.0000000000000000e+00   0.0000000000000000e+00   0.0000000000000000e+00   0.0000000000000000e+00   0.0000000000000000e+00   0.0000000000000000e+00   0.0000000000000000e+00   0.0000000000000000e+00   0.0000000000000000e+00   0.0000000000000000e+00   0.0000000000000000e+00   0.0000000000000000e+00   0.0000000000000000e+00   0.0000000000000000e+00   0.0000000000000000e+00   0.0000000000000000e+00   0.0000000000000000e+00   0.0000000000000000e+00   0.0000000000000000e+00   0.0000000000000000e+00   0.0000000000000000e+00   0.0000000000000000e+00   0.0000000000000000e+00   0.0000000000000000e+00   0.0000000000000000e+00   0.0000000000000000e+00   0.0000000000000000e+00   0.0000000000000000e+00   1.2640027466492851e+06   1.7779434634382265e+04   4.1753760029258965e+03   2.2330272707083962e-06   6.3171962736790608e-07   0.0000000000000000e+00   0.0000000000000000e+00   0.0000000000000000e+00   0.0000000000000000e+00   0.0000000000000000e+00   0.0000000000000000e+00   0.0000000000000000e+00   0.0000000000000000e+00   0.0000000000000000e+00   0.0000000000000000e+00   0.0000000000000000e+00   0.0000000000000000e+00   0.0000000000000000e+00   0.0000000000000000e+00   0.0000000000000000e+00   0.0000000000000000e+00   0.0000000000000000e+00   0.0000000000000000e+00   0.0000000000000000e+00   0.0000000000000000e+00   0.0000000000000000e+00   0.0000000000000000e+00   0.0000000000000000e+00   0.0000000000000000e+00   0.0000000000000000e+00   0.0000000000000000e+00   0.0000000000000000e+00   0.0000000000000000e+00   0.0000000000000000e+00   0.0000000000000000e+00   0.0000000000000000e+00   0.0000000000000000e+00   0.0000000000000000e+00   0.0000000000000000e+00   0.0000000000000000e+00   0.0000000000000000e+00   1.0164413329489866e-08   0.0000000000000000e+00   0.0000000000000000e+00   0.0000000000000000e+00   0.0000000000000000e+00   0.0000000000000000e+00   0.0000000000000000e+00   0.0000000000000000e+00   0.0000000000000000e+00   0.0000000000000000e+00   0.0000000000000000e+00   0.0000000000000000e+00   0.0000000000000000e+00   0.0000000000000000e+00   0.0000000000000000e+00   0.0000000000000000e+00   0.0000000000000000e+00   0.0000000000000000e+00   0.0000000000000000e+00   0.0000000000000000e+00   0.0000000000000000e+00   0.0000000000000000e+00   0.0000000000000000e+00   0.0000000000000000e+00   0.0000000000000000e+00   0.0000000000000000e+00   0.0000000000000000e+00   0.0000000000000000e+00   0.0000000000000000e+00   0.0000000000000000e+00   0.0000000000000000e+00   0.0000000000000000e+00   0.0000000000000000e+00   0.0000000000000000e+00   0.0000000000000000e+00   0.0000000000000000e+00   0.0000000000000000e+00   0.0000000000000000e+00   0.0000000000000000e+00   0.0000000000000000e+00   0.00000000