<?xml version="1.0"?>
<VTKFile type="UnstructuredGrid"  version="0.1"  >
<UnstructuredGrid>
<Piece  NumberOfPoints="639" NumberOfCells="1174">
<Points>
<DataArray  type="Float64"  NumberOfComponents="3"  format="ascii">1.024347826086957 0 0  1.040869565217391 0 0  1.040869565217391 0.01666666666666667 0  1.024347826086957 0.01666666666666667 0  1.057391304347826 0 0  1.057391304347826 0.01666666666666667 0  1.073913043478261 0 0  1.073913043478261 0.01666666666666667 0  1.090434782608696 0 0  1.090434782608696 0.01666666666666667 0  1.10695652173913 0 0  1.10695652173913 0.01666666666666667 0  1.123478260869565 0 0  1.123478260869565 0.01666666666666667 0  1.14 0 0  1.14 0.01666666666666667 0  1.156521739130435 0 0  1.156521739130435 0.01666666666666667 0  1.17304347826087 0 0  1.17304347826087 0.01666666666666667 0  1.189565217391304 0 0  1.189565217391304 0.01666666666666667 0  1.206086956521739 0 0  1.206086956521739 0.01666666666666667 0  1.222608695652174 0 0  1.222608695652174 0.01666666666666667 0  1.239130434782609 0 0  1.239130434782609 0.01666666666666667 0  1.255652173913044 0 0  1.255652173913044 0.01666666666666667 0  1.272173913043478 0 0  1.272173913043478 0.01666666666666667 0  1.288695652173913 0 0  1.288695652173913 0.01666666666666667 0  1.305217391304348 0 0  1.305217391304348 0.01666666666666667 0  1.321739130434783 0 0  1.321739130434783 0.01666666666666667 0  1.338260869565217 0.01666666666666667 0  1.040869565217391 0.03333333333333333 0  1.057391304347826 0.03333333333333333 0  1.073913043478261 0.03333333333333333 0  1.090434782608696 0.03333333333333333 0  1.10695652173913 0.03333333333333333 0  1.123478260869565 0.03333333333333333 0  1.14 0.03333333333333333 0  1.156521739130435 0.03333333333333333 0  1.17304347826087 0.03333333333333333 0  1.189565217391304 0.03333333333333333 0  1.206086956521739 0.03333333333333333 0  1.222608695652174 0.03333333333333333 0  1.239130434782609 0.03333333333333333 0  1.255652173913044 0.03333333333333333 0  1.272173913043478 0.03333333333333333 0  1.288695652173913 0.03333333333333333 0  1.305217391304348 0.03333333333333333 0  1.321739130434783 0.03333333333333333 0  1.338260869565217 0.03333333333333333 0  1.354782608695652 0.03333333333333333 0  1.057391304347826 0.05 0  1.073913043478261 0.05 0  1.090434782608696 0.05 0  1.10695652173913 0.05 0  1.123478260869565 0.05 0  1.14 0.05 0  1.156521739130435 0.05 0  1.17304347826087 0.05 0  1.189565217391304 0.05 0  1.206086956521739 0.05 0  1.222608695652174 0.05 0  1.239130434782609 0.05 0  1.255652173913044 0.05 0  1.272173913043478 0.05 0  1.288695652173913 0.05 0  1.305217391304348 0.05 0  1.321739130434783 0.05 0  1.338260869565217 0.05 0  1.354782608695652 0.05 0  1.371304347826087 0.05 0  1.073913043478261 0.06666666666666667 0  1.090434782608696 0.06666666666666667 0  1.10695652173913 0.06666666666666667 0  1.123478260869565 0.06666666666666667 0  1.14 0.06666666666666667 0  1.156521739130435 0.06666666666666667 0  1.17304347826087 0.06666666666666667 0  1.189565217391304 0.06666666666666667 0  1.206086956521739 0.06666666666666667 0  1.222608695652174 0.06666666666666667 0  1.239130434782609 0.06666666666666667 0  1.255652173913044 0.06666666666666667 0  1.272173913043478 0.06666666666666667 0  1.288695652173913 0.06666666666666667 0  1.305217391304348 0.06666666666666667 0  1.321739130434783 0.06666666666666667 0  1.338260869565217 0.06666666666666667 0  1.354782608695652 0.06666666666666667 0  1.371304347826087 0.06666666666666667 0  1.387826086956522 0.06666666666666667 0  1.090434782608696 0.08333333333333333 0  1.10695652173913 0.08333333333333333 0  1.123478260869565 0.08333333333333333 0  1.14 0.08333333333333333 0  1.156521739130435 0.08333333333333333 0  1.17304347826087 0.08333333333333333 0  1.189565217391304 0.08333333333333333 0  1.206086956521739 0.08333333333333333 0  1.222608695652174 0.08333333333333333 0  1.239130434782609 0.08333333333333333 0  1.255652173913044 0.08333333333333333 0  1.272173913043478 0.08333333333333333 0  1.288695652173913 0.08333333333333333 0  1.305217391304348 0.08333333333333333 0  1.321739130434783 0.08333333333333333 0  1.338260869565217 0.08333333333333333 0  1.354782608695652 0.08333333333333333 0  1.371304347826087 0.08333333333333333 0  1.387826086956522 0.08333333333333333 0  1.404347826086957 0.08333333333333333 0  1.10695652173913 0.1 0  1.123478260869565 0.1 0  1.14 0.1 0  1.156521739130435 0.1 0  1.17304347826087 0.1 0  1.189565217391304 0.1 0  1.206086956521739 0.1 0  1.222608695652174 0.1 0  1.239130434782609 0.1 0  1.255652173913044 0.1 0  1.272173913043478 0.1 0  1.288695652173913 0.1 0  1.305217391304348 0.1 0  1.321739130434783 0.1 0  1.338260869565217 0.1 0  1.354782608695652 0.1 0  1.371304347826087 0.1 0  1.387826086956522 0.1 0  1.404347826086957 0.1 0  1.420869565217391 0.1 0  1.123478260869565 0.1166666666666667 0  1.14 0.1166666666666667 0  1.156521739130435 0.1166666666666667 0  1.17304347826087 0.1166666666666667 0  1.189565217391304 0.1166666666666667 0  1.206086956521739 0.1166666666666667 0  1.222608695652174 0.1166666666666667 0  1.239130434782609 0.1166666666666667 0  1.255652173913044 0.1166666666666667 0  1.272173913043478 0.1166666666666667 0  1.288695652173913 0.1166666666666667 0  1.305217391304348 0.1166666666666667 0  1.321739130434783 0.1166666666666667 0  1.338260869565217 0.1166666666666667 0  1.354782608695652 0.1166666666666667 0  1.371304347826087 0.1166666666666667 0  1.387826086956522 0.1166666666666667 0  1.404347826086957 0.1166666666666667 0  1.420869565217391 0.1166666666666667 0  1.437391304347826 0.1166666666666667 0  1.14 0.1333333333333333 0  1.156521739130435 0.1333333333333333 0  1.17304347826087 0.1333333333333333 0  1.189565217391304 0.1333333333333333 0  1.206086956521739 0.1333333333333333 0  1.222608695652174 0.1333333333333333 0  1.239130434782609 0.1333333333333333 0  1.255652173913044 0.1333333333333333 0  1.272173913043478 0.1333333333333333 0  1.288695652173913 0.1333333333333333 0  1.305217391304348 0.1333333333333333 0  1.321739130434783 0.1333333333333333 0  1.338260869565217 0.1333333333333333 0  1.354782608695652 0.1333333333333333 0  1.371304347826087 0.1333333333333333 0  1.387826086956522 0.1333333333333333 0  1.404347826086957 0.1333333333333333 0  1.420869565217391 0.1333333333333333 0  1.437391304347826 0.1333333333333333 0  1.453913043478261 0.1333333333333333 0  1.156521739130435 0.15 0  1.17304347826087 0.15 0  1.189565217391304 0.15 0  1.206086956521739 0.15 0  1.222608695652174 0.15 0  1.239130434782609 0.15 0  1.255652173913044 0.15 0  1.272173913043478 0.15 0  1.288695652173913 0.15 0  1.305217391304348 0.15 0  1.321739130434783 0.15 0  1.338260869565217 0.15 0  1.354782608695652 0.15 0  1.371304347826087 0.15 0  1.387826086956522 0.15 0  1.404347826086957 0.15 0  1.420869565217391 0.15 0  1.437391304347826 0.15 0  1.453913043478261 0.15 0  1.470434782608696 0.15 0  1.17304347826087 0.1666666666666667 0  1.189565217391304 0.1666666666666667 0  1.206086956521739 0.1666666666666667 0  1.222608695652174 0.1666666666666667 0  1.239130434782609 0.1666666666666667 0  1.255652173913044 0.1666666666666667 0  1.272173913043478 0.1666666666666667 0  1.288695652173913 0.1666666666666667 0  1.305217391304348 0.1666666666666667 0  1.321739130434783 0.1666666666666667 0  1.338260869565217 0.1666666666666667 0  1.354782608695652 0.1666666666666667 0  1.371304347826087 0.1666666666666667 0  1.387826086956522 0.1666666666666667 0  1.404347826086957 0.1666666666666667 0  1.420869565217391 0.1666666666666667 0  1.437391304347826 0.1666666666666667 0  1.453913043478261 0.1666666666666667 0  1.470434782608696 0.1666666666666667 0  1.486956521739131 0.1666666666666667 0  1.189565217391304 0.1833333333333333 0  1.206086956521739 0.1833333333333333 0  1.222608695652174 0.1833333333333333 0  1.239130434782609 0.1833333333333333 0  1.255652173913044 0.1833333333333333 0  1.272173913043478 0.1833333333333333 0  1.288695652173913 0.1833333333333333 0  1.305217391304348 0.1833333333333333 0  1.321739130434783 0.1833333333333333 0  1.338260869565217 0.1833333333333333 0  1.354782608695652 0.1833333333333333 0  1.371304347826087 0.1833333333333333 0  1.387826086956522 0.1833333333333333 0  1.404347826086957 0.1833333333333333 0  1.420869565217391 0.1833333333333333 0  1.437391304347826 0.1833333333333333 0  1.453913043478261 0.1833333333333333 0  1.470434782608696 0.1833333333333333 0  1.486956521739131 0.1833333333333333 0  1.503478260869565 0.1833333333333333 0  1.206086956521739 0.2 0  1.222608695652174 0.2 0  1.239130434782609 0.2 0  1.255652173913044 0.2 0  1.272173913043478 0.2 0  1.288695652173913 0.2 0  1.305217391304348 0.2 0  1.321739130434783 0.2 0  1.338260869565217 0.2 0  1.354782608695652 0.2 0  1.371304347826087 0.2 0  1.387826086956522 0.2 0  1.404347826086957 0.2 0  1.420869565217391 0.2 0  1.437391304347826 0.2 0  1.453913043478261 0.2 0  1.470434782608696 0.2 0  1.486956521739131 0.2 0  1.503478260869565 0.2 0  1.52 0.2 0  1.222608695652174 0.2166666666666667 0  1.239130434782609 0.2166666666666667 0  1.255652173913044 0.2166666666666667 0  1.272173913043478 0.2166666666666667 0  1.288695652173913 0.2166666666666667 0  1.305217391304348 0.2166666666666667 0  1.321739130434783 0.2166666666666667 0  1.338260869565217 0.2166666666666667 0  1.354782608695652 0.2166666666666667 0  1.371304347826087 0.2166666666666667 0  1.387826086956522 0.2166666666666667 0  1.404347826086957 0.2166666666666667 0  1.420869565217391 0.2166666666666667 0  1.437391304347826 0.2166666666666667 0  1.453913043478261 0.2166666666666667 0  1.470434782608696 0.2166666666666667 0  1.486956521739131 0.2166666666666667 0  1.503478260869565 0.2166666666666667 0  1.52 0.2166666666666667 0  1.536521739130435 0.2166666666666667 0  1.239130434782609 0.2333333333333333 0  1.255652173913044 0.2333333333333333 0  1.272173913043478 0.2333333333333333 0  1.288695652173913 0.2333333333333333 0  1.305217391304348 0.23333
[...]
<PointData  Vectors="Displacement"> 
<DataArray  type="Float64"  Name="Displacement"  NumberOfComponents="3" format="ascii">1.3622769275835247e-04 1.2018268285307965e-03 0.0000000000000000e+00  1.3803244274744925e-04 1.2192445223551396e-03 0.0000000000000000e+00  1.2050222116630445e-04 1.2186312954373473e-03 0.0000000000000000e+00  1.1862494850108450e-04 1.2012133544172141e-03 0.0000000000000000e+00  1.3983475787848746e-04 1.2365894905384377e-03 0.0000000000000000e+00  1.2237977589289490e-04 1.2359763843845114e-03 0.0000000000000000e+00  1.4163434418547376e-04 1.2538589904918193e-03 0.0000000000000000e+00  1.2425819790707165e-04 1.2532459589586322e-03 0.0000000000000000e+00  1.4343075246053922e-04 1.2710489240892850e-03 0.0000000000000000e+00  1.2613823321818872e-04 1.2704360109579056e-03 0.0000000000000000e+00  1.4522353935392528e-04 1.2881537094139180e-03 0.0000000000000000e+00  1.2802050490282198e-04 1.2875410406146498e-03 0.0000000000000000e+00  1.4701244471381367e-04 1.3051667107879972e-03 0.0000000000000000e+00  1.2990526196922773e-04 1.3045544385986228e-03 0.0000000000000000e+00  1.4879750895334477e-04 1.3220811638383289e-03 0.0000000000000000e+00  1.3179226527818106e-04 1.3214693759900666e-03 0.0000000000000000e+00  1.5057902583853584e-04 1.3388911716942368e-03 0.0000000000000000e+00  1.3368094035753067e-04 1.3382798700142216e-03 0.0000000000000000e+00  1.5235736939941068e-04 1.3555921083898603e-03 0.0000000000000000e+00  1.3557067855613384e-04 1.3549812612851733e-03 0.0000000000000000e+00  1.5413285030375988e-04 1.3721803704126569e-03 0.0000000000000000e+00  1.3746102536835883e-04 1.3715699569039205e-03 0.0000000000000000e+00  1.5590567505767219e-04 1.3886529473679313e-03 0.0000000000000000e+00  1.3935169179519195e-04 1.3880429693438109e-03 0.0000000000000000e+00  1.5767597282397291e-04 1.4050071263236031e-03 0.0000000000000000e+00  1.4124248363204899e-04 1.4043976141098590e-03 0.0000000000000000e+00  1.5944384014664393e-04 1.4212403563466124e-03 0.0000000000000000e+00  1.4313321268143544e-04 1.4206313923689729e-03 0.0000000000000000e+00  1.6120939609437363e-04 1.4373502264232406e-03 0.0000000000000000e+00  1.4502357417099581e-04 1.4367419938509302e-03 0.0000000000000000e+00  1.6297292846227521e-04 1.4533347146244420e-03 0.0000000000000000e+00  1.4691291017452152e-04 1.4527274324132296e-03 0.0000000000000000e+00  1.6473514760803777e-04 1.4691933423298148e-03 0.0000000000000000e+00  1.4879999866234449e-04 1.4685868512504159e-03 0.0000000000000000e+00  1.6649692531310034e-04 1.4849289469182666e-03 0.0000000000000000e+00  1.5068371589604953e-04 1.4843225877557808e-03 0.0000000000000000e+00  1.6825843848854201e-04 1.5005467982919303e-03 0.0000000000000000e+00  1.5256444758848965e-04 1.4999398079701153e-03 0.0000000000000000e+00  1.5444467261926771e-04 1.5154422730577677e-03 0.0000000000000000e+00  1.0297175678095645e-04 1.2179937184083989e-03 0.0000000000000000e+00  1.0492342990232252e-04 1.2353379461880528e-03 0.0000000000000000e+00  1.0687888683662359e-04 1.2526061301965825e-03 0.0000000000000000e+00  1.0884080327296135e-04 1.2697943726888391e-03 0.0000000000000000e+00  1.1081150292387174e-04 1.2868974017895818e-03 0.0000000000000000e+00  1.1279224172174267e-04 1.3039089720997819e-03 0.0000000000000000e+00  1.1478243409676639e-04 1.3208225230862017e-03 0.0000000000000000e+00  1.1677987236369840e-04 1.3376320342049705e-03 0.0000000000000000e+00  1.1878227456441455e-04 1.3543326801717535e-03 0.0000000000000000e+00  1.2078828260047565e-04 1.3709207687903047e-03 0.0000000000000000e+00  1.2279728186566068e-04 1.3873932737780781e-03 0.0000000000000000e+00  1.2480897325523762e-04 1.4037475051171197e-03 0.0000000000000000e+00  1.2682311119198178e-04 1.4199810049334929e-03 0.0000000000000000e+00  1.2883932400900802e-04 1.4360916262398697e-03 0.0000000000000000e+00  1.3085670164239487e-04 1.4520778589590677e-03 0.0000000000000000e+00  1.3287216305653832e-04 1.4679393322359147e-03 0.0000000000000000e+00  1.3487904023426426e-04 1.4836771973190967e-03 0.0000000000000000e+00  1.3687465587128002e-04 1.4992948183462679e-03 0.0000000000000000e+00  1.3886558575890528e-04 1.5147952563800964e-03 0.0000000000000000e+00  1.4086324831610978e-04 1.5301768368808834e-03 0.0000000000000000e+00  8.7428181180848892e-05 1.2346878286331516e-03 0.0000000000000000e+00  8.9460409457620981e-05 1.2519547615737973e-03 0.0000000000000000e+00  9.1503135795536241e-05 1.2691408305467611e-03 0.0000000000000000e+00  9.3560153417892138e-05 1.2862408641956590e-03 0.0000000000000000e+00  9.5633909738751058e-05 1.3032489297506312e-03 0.0000000000000000e+00  9.7724653654817327e-05 1.3201589811598087e-03 0.0000000000000000e+00  9.9830708187641015e-05 1.3369653642595633e-03 0.0000000000000000e+00  1.0194992838660751e-04 1.3536631543365953e-03 0.0000000000000000e+00  1.0407965200949672e-04 1.3702486197414230e-03 0.0000000000000000e+00  1.0621584268761331e-04 1.3867191340869052e-03 0.0000000000000000e+00  1.0835380073920405e-04 1.4030724544921796e-03 0.0000000000000000e+00  1.1048827825200350e-04 1.4193063324523490e-03 0.0000000000000000e+00  1.1261649621494426e-04 1.4354182005082859e-03 0.0000000000000000e+00  1.1474408529525328e-04 1.4514055650980589e-03 0.0000000000000000e+00  1.1687643080234616e-04 1.4672682658412196e-03 0.0000000000000000e+00  1.1900497263245604e-04 1.4830091163683023e-03 0.0000000000000000e+00  1.2112105321859118e-04 1.4986305124564782e-03 0.0000000000000000e+00  1.2322998009246713e-04 1.5141325239485359e-03 0.0000000000000000e+00  1.2534764167724841e-04 1.5295118868269880e-03 0.0000000000000000e+00  1.2749269781645674e-04 1.5447615705419912e-03 0.0000000000000000e+00  8.7446478793185874e-05 1.2458094220075358e-03 0.0000000000000000e+00  8.9605024530704040e-05 1.2633950418376402e-03 0.0000000000000000e+00  9.1735576237288099e-05 1.2809017017821943e-03 0.0000000000000000e+00  9.3838693453469091e-05 1.2983226747127826e-03 0.0000000000000000e+00  9.5913966149908058e-05 1.3156511389673825e-03 0.0000000000000000e+00  9.7960010396889652e-05 1.3328803134079043e-03 0.0000000000000000e+00  9.9974749278324880e-05 1.3500035712434846e-03 0.0000000000000000e+00  1.0195568044265107e-04 1.3670148880631438e-03 0.0000000000000000e+00  1.0390012292920408e-04 1.3839088175054172e-03 0.0000000000000000e+00  1.0580564846634622e-04 1.4006797891470898e-03 0.0000000000000000e+00  1.0767068657367688e-04 1.4173217162683968e-03 0.0000000000000000e+00  1.0949542341142396e-04 1.4338274581697891e-03 0.0000000000000000e+00  1.1128256274848142e-04 1.4501892681173362e-03 0.0000000000000000e+00  1.1303676194926934e-04 1.4664019855900377e-03 0.0000000000000000e+00  1.1476429741431819e-04 1.4824629570410110e-03 0.0000000000000000e+00  1.1647638324663748e-04 1.4983657933285491e-03 0.0000000000000000e+00  1.1819471887042459e-04 1.5140984594832487e-03 0.0000000000000000e+00  1.1995722863124807e-04 1.5296439548257231e-03 0.0000000000000000e+00  1.2182737427657296e-04 1.5449776703570278e-03 0.0000000000000000e+00  1.2391501803088808e-04 1.5600580425213192e-03 0.0000000000000000e+00  8.6955170598690661e-05 1.2576179917418446e-03 0.0000000000000000e+00  8.9143355962606149e-05 1.2755608407602091e-03 0.0000000000000000e+00  9.1265091838163161e-05 1.2934251104105843e-03 0.0000000000000000e+00  9.3319487853218738e-05 1.3112025631847998e-03 0.0000000000000000e+00  9.5305222299251892e-05 1.3288848181271385e-03 0.0000000000000000e+00  9.7220622540276702e-05 1.3464633782690758e-03 0.0000000000000000e+00  9.9063861326053270e-05 1.3639297765743661e-03 0.0000000000000000e+00  1.0083331246825903e-04 1.3812754513229043e-03 0.0000000000000000e+00  1.0252800119458219e-04 1.3984912356922584e-03 0.0000000000000000e+00  1.0414809473317318e-04 1.4155669352063076e-03 0.0000000000000000e+00  1.0569546101095959e-04 1.4324910223757262e-03 0.0000000000000000e+00  1.0717418667409921e-04 1.4492510718113235e-03 0.0000000000000000e+00  1.0859124672707595e-04 1.4658353310063512e-03 0.0000000000000000e+00  1.0995786266594422e-04 1.4822322746149942e-03 0.0000000000000000e+00  1.1129112434096407e-04 1.4984269193511006e-03 0.0000000000000000e+00  1.1261494446733605e-04 1.5143991014553960e-03 0.0000000000000000e+00  1.1396039523737974e-04 1.5301237589641398e-03 0.0000000000000000e+00  1.1536420766902897e-04 1.5455704524938879e-03 0.0000000000000000e+00  1.1686122110070231e-04 1.5607037771696438e-03 0.0000000000000000e+00  1.1846138562322127e-04 1.5755043074990986e-03 0.0000000000000000e+00  8.5844780613786000e-05 1.2702246281689326e-03 0.0000000000000000e+00  8.7974888822260768e-05 1.2885597874985855e-03 0.0000000000000000e+00  9.0002779690708844e-05 1.3068139572047300e-03 0.0000000000000000e+00  9.1927353812784967e-05 1.3249768686847080e-03 0.0000000000000000e+00  9.3747448531853554e-05 1.3430379174597625e-03 0.0000000000000000e+00  9.5461963761236615e-05 1.3609860981807539e-03 0.0000000000000000e+00  9.7070141589264744e-05 1.3788097521785856e-03 0.0000000000000000e+00  9.8571959730581616e-05 1.3964961083497074e-03 0.0000000000000000e+00  9.9968592135043976e-05 1.4140308609830114e-03 0.0000000000000000e+00  1.0126294996731467e-04 1.4313979177549929e-03 0.0000000000000000e+00  1.0246030763840508e-04 1.4485796335889315e-03 0.0000000000000000e+00  1.0356914334744634e-04 1.4655574914076534e-03 0.0000000000000000e+00  1.0460221457254955e-04 1.4823118076179010e-03 0.0000000000000000e+00  1.0557713770939655e-04 1.4988202048078847e-03 0.0000000000000000e+00  1.0651559437875422e-04 1.5150572941044266e-03 0.0000000000000000e+00  1.0744114432698269e-04 1.5309957406919004e-03 0.0000000000000000e+00  1.0837530118550559e-04 1.5466079771293405e-03 0.0000000000000000e+00  1.0933120199080508e-04 1.5618706480252397e-03 0.0000000000000000e+00  1.1030653658402428e-04 1.5767809062922902e-03 0.0000000000000000e+00  1.1129013174575414e-04 1.5913893495803509e-03 0.0000000000000000e+00  8.4020990201342781e-05 1.2837302556620114e-03 0.0000000000000000e+00  8.6016116770009323e-05 1.3024865240704930e-03 0.0000000000000000e+00  8.7877568275762411e-05 1.3211552938674907e-03 0.0000000000000000e+00  8.9604837748924639e-05 1.3397237485931850e-03 0.0000000000000000e+00  9.1197570635803286e-05 1.3581783635279445e-03 0.0000000000000000e+00  9.2655737478069010e-05 1.3765045247943212e-03 0.0000000000000000e+00  9.3979947373908776e-05 1.3946860106740036e-03 0.0000000000000000e+00  9.5171892389152321e-05 1.4127044954361887e-03 0.0000000000000000e+00  9.6234931750280054e-05 1.4305392204120319e-03 0.0000000000000000e+00  9.7174816371721324e-05 1.4481670228977980e-03 0.0000000000000000e+00  9.8000552808066098e-05 1.4655626833003988e-03 0.0000000000000000e+00  9.8725225788793303e-05 1.4826990710894617e-03 0.0000000000000000e+00  9.9366177780825513e-05 1.4995472042564229e-03 0.0000000000000000e+00  9.9943794876389226e-05 1.5160775326733967e-03 0.0000000000000000e+00  1.0047884423172493e-04 1.5322620922969391e-03 0.0000000000000000e+00  1.0098868665270722e-04 1.5480769259590555e-03 0.0000000000000000e+00  1.0148329268214004e-04 1.5635052989773856e-03 0.0000000000000000e+00  1.0196329294125640e-04 1.5785447461487238e-03 0.0000000000000000e+00  1.0242582553895567e-04 1.5932065603289243e-03 0.0000000000000000e+00  1.0286941116693402e-04 1.6074285942546548e-03 0.0000000000000000e+00  8.1403142414138201e-05 1.2982222587902719e-03 0.0000000000000000e+00  8.3197961496761071e-05 1.3174200201391448e-03 0.0000000000000000e+00  8.4833014307397978e-05 1.3365187503444095e-03 0.0000000000000000e+00  8.6308796653990593e-05 1.3555025609783816e-03 0.0000000000000000e+00  8.7625962635274121e-05 1.3743541532545052e-03 0.0000000000000000e+00  8.8785543292029282e-05 1.3930541502137584e-03 0.0000000000000000e+00  8.9789373371529865e-05 1.4115804271726624e-03 0.0000000000000000e+00  9.0640743273165170e-05 1.4299075984992894e-03 0.0000000000000000e+00  9.1345258349559573e-05 1.4480068389555209e-03 0.0000000000000000e+00  9.1911830350205066e-05 1.4658461178429479e-03 0.0000000000000000e+00  9.2353572752884862e-05 1.4833908053126616e-03 0.0000000000000000e+00  9.2688153613470784e-05 1.5006049178160864e-03 0.0000000000000000e+00  9.2936764876173038e-05 1.5174541460674944e-03 0.0000000000000000e+00  9.3121594277958676e-05 1.5339093026995503e-03 0.0000000000000000e+00  9.3262231097991156e-05 1.5499489578949318e-03 0.0000000000000000e+00  9.3372194969138504e-05 1.5655603782443067e-03 0.0000000000000000e+00  9.3455326510846659e-05 1.5807412972098959e-03 0.0000000000000000e+00  9.3506932583708712e-05 1.5954914357962885e-03 0.0000000000000000e+00  9.3524274468642226e-05 1.6097721009903855e-03 0.0000000000000000e+00  9.3503963856304113e-05 1.6235553753558593e-03 0.0000000000000000e+00  7.7922156593419266e-05 1.3137723396882120e-03 0.0000000000000000e+00  7.9463345132270847e-05 1.3334222508261373e-03 0.0000000000000000e+00  8.0824668939431311e-05 1.3529560997956340e-03 0.0000000000000000e+00  8.2007552459506666e-05 1.3723543368119331e-03 0.0000000000000000e+00  8.3013348973131289e-05 1.3915949050717102e-03 0.0000000000000000e+00  8.3843740254633785e-05 1.4106522751967812e-03 0.0000000000000000e+00  8.4501489182759509e-05 1.4294966179214236e-03 0.0000000000000000e+00  8.4991520106211639e-05 1.4480933434737426e-03 0.0000000000000000e+00  8.5322206627099756e-05 1.4664032190284549e-03 0.0000000000000000e+00  8.5506622870653307e-05 1.4843832876257706e-03 0.0000000000000000e+00  8.5563476116850786e-05 1.5019889243245166e-03 0.0000000000000000e+00  8.5516512204924741e-05 1.5191790949293852e-03 0.0000000000000000e+00  8.5392349082380784e-05 1.5359215689002808e-03 0.0000000000000000e+00  8.5217138404757552e-05 1.5521962361207526e-03 0.0000000000000000e+00  8.5012800520768670e-05 1.5679941349290598e-03 0.0000000000000000e+00  8.4789141025886258e-05 1.5833214014746209e-03 0.0000000000000000e+00  8.4531929676117374e-05 1.5981837359128855e-03 0.0000000000000000e+00  8.4222668320729861e-05 1.6125360710896183e-03 0.0000000000000000e+00  8.3880572573815783e-05 1.6263314716434018e-03 0.0000000000000000e+00  8.3582761125427591e-05 1.6395026082761512e-03 0.0000000000000000e+00  7.3518696374058742e-05 1.3304352812322749e-03 0.0000000000000000e+00  7.4765296170353860e-05 1.3505379062985973e-03 0.0000000000000000e+00  7.5818055368507479e-05 1.3705020055272538e-03 0.0000000000000000e+00  7.6678674734405935e-05 1.3903035709019911e-03 0.0000000000000000e+00  7.7348440666118225e-05 1.4099143129421465e-03 0.0000000000000000e+00  7.7829114958051558e-05 1.4293003258860277e-03 0.0000000000000000e+00  7.8124369002685950e-05 1.4484211776586832e-03 0.0000000000000000e+00  7.8241589414009623e-05 1.4672297782666517e-03 0.0000000000000000e+00  7.8193739441405975e-05 1.4856734032303778e-03 0.0000000000000000e+00  7.8001121295942448e-05 1.5036960269957690e-03 0.0000000000000000e+00  7.7690878675643825e-05 1.5212467779632439e-03 0.0000000000000000e+00  7.7295494027926597e-05 1.5382874015868514e-03 0.0000000000000000e+00  7.6850623128790237e-05 1.5547967778741123e-03 0.0000000000000000e+00  7.6393491471119659e-05 1.5707690570044986e-03 0.0000000000000000e+00  7.5945324923021694e-05 1.5862280566628644e-03 0.0000000000000000e+00  7.5493873492644999e-05 1.6012232464705952e-03 0.0000000000000000e+00  7.4976609153178022e-05 1.6156842752844823e-03 0.0000000000000000e+00  7.4381618226234954e-05 1.6294521441559430e-03 0.0000000000000000e+00  7.4012758719388744e-05 1.6423525180882721e-03 0.0000000000000000e+00  7.3602988600990558e-05 1.6550908320888877e-03 0.0000000000000000e+00  6.8141935087421730e-05 1.3482487018205396e-03 0.0000000000000000e+00  6.9065646422222259e-05 1.3687954057551592e-03 0.0000000000000000e+00  6.9787103434658043e-05 1.3891762546444325e-03 0.0000000000000000e+00  7.0306993583025711e-05 1.4093612351702557e-03 0.0000000000000000e+00  7.0625489747447724e-05 1.4293130304777273e-03 0.0000000000000000e+00  7.0744221222039086e-05 1.4489853496664883e-03 0.0000000000000000e+00  7.0668967411388514e-05 1.4683223198046758e-03 0.0000000000000000e+00  7.0412538275281081e-05 1.4872594204456751e-03 0.0000000000000000e+00  6.9997882589225229e-05 1.5057254360583035e-03 0.0000000000000000e+00  6.9455788966719625e-05 1.5236563971209129e-03 0.0000000000000000e+00  6.8822717470696677e-05 1.5410037003633734e-03 0.0000000000000000e+00  6.8144137030566192e-05 1.5577405178824101e-03 0.0000000000000000e+00  6.7479348111962998e-05 1.5738548343662096e-03 0.0000000000000000e+00  6.6878876833955791e-05 1.5894067225074218e-03 0.0000000000000000e+00  6.6312365249885090e-05 1.6045025006331990e-03 0.0000000000000000e+00  6.5817475543402477e-05 1.6191736177560724e-03 0.0000000000000000e+00  6.5117927122823331e-05 1.6329817901504415e-03 0.0000000000000000e+00  6.4664347251294467e-05 1.6449886645356730e-03 0.0000000000000000e+00  6.5127642811577501e-05 1.6579005442935236e-03 0.0000000000000000e+00  6.4587131230926323e-05 1.6679895563161162e-03 0.0000000000000000e+00  6.1748892175705756e-05 1.3672343732124201e-03 0.0000000000000000e+00  6.2333975679719066e-05 1.3882098811439068e-03 0.0000000000000000e+00  6.2712270963634538e-05 1.4089879708426368e-03 0.0000000000000000e+00  6.2881552494279124e-05 1.4295291252187489e-03 0.0000000000000000e+00  6.2840128947452259e-05 1.4497813690919146e-03 0.0000000000000000e+00  6.2591009840270889e-05 1.4696786975070186e-03 0.0000000000000000e+00  6.2146872670066483e-05 1.4891418043581368e-03 0.0000000000000000e+00  6.1536008832820246e-05 1.5080782505288636e-03 0.0000000000000000e+00  6.0795568981261957e-05 1.5264105190852585e-03 0.0000000000000000e+00  5.9960463899402896e-05 1.5440782322166421e-03 0.0000000000000000e+00  5.9072017471597153e-05 1.5610354329186518e-03 0.0000000000000000e+00  5.8226639730417153e-05 1.5772456453237440e-03 0.0000000000000000e+00  5.7496036585363821e-05 1.5927985072316747e-03 0.0000000000000000e+00  5.6910014712901540e-05 1.6080143656665936e-03 0.0000000000000000e+00  5.6268293959326381e-05 1.6225881687742406e-03 0.0000000000000000e+00  5.6646411276763493e-05 1.6371967304856612e-03 0.0000000000000000e+00  5.6085036602861519e-05 1.6476258660452843e-03 0.0000000000000000e+00  5.5700685937035604e-05 1.6578791733507228e-03 0.0000000000000000e+00  5.5373066562294271e-05 1.6679084264850899e-03 0.0000000000000000e+00  5.5089530083325379e-05 1.6777105345656719e-03 0.0000000000000000e+00  5.4303820370655229e-05 1.3874023112756572e-03 0.0000000000000000e+00  5.4545684679906352e-05 1.4087894275746737e-03 0.0000000000000000e+00  5.4576464366102612e-05 1.4299427529916595e-03 0.0000000000000000e+00  5.4388973217040236e-05 1.4508053498378565e-03 0.0000000000000000e+00  5.3981093593254780e-05 1.4712992651153341e-03 0.0000000000000000e+00  5.3364498782613620e-05 1.4913249769540800e-03 0.0000000000000000e+00  5.2579856788325955e-05 1.5107573154485902e-03 0.0000000000000000e+00  5.1677012896322695e-05 1.5295059384645797e-03 0.0000000000000000e+00  5.0698146723968731e-05 1.5475173157334522e-03 0.0000000000000000e+00  4.9647005834167643e-05 1.5647155055155740e-03 0.0000000000000000e+00  4.8622404793911047e-05 1.5809271223292543e-03 0.0000000000000000e+00  4.7873911034717555e-05 1.5963869634826426e-03 0.0000000000000000e+00  4.7174186867363000e-05 1.6114021910029665e-03 0.0000000000000000e+00  4.7574341416097680e-05 1.6263579617180320e-03 0.0000000000000000e+00  4.7004856279343430e-05 1.6371155835249568e-03 0.0000000000000000e+00  4.6729283713459003e-05 1.6474819425011966e-03 0.0000000000000000e+00  4.6319464897369450e-05 1.6578091938177087e-03 0.0000000000000000e+00  4.6008706725301460e-05 1.6678510908225289e-03 0.0000000000000000e+00  4.5754229649861237e-05 1.6776892963150894e-03 0.0000000000000000e+00  4.5533955169459497e-05 1.6874022701800942e-03 0.0000000000000000e+00  4.5776140654499831e-05 1.4087601031967224e-03 0.0000000000000000e+00  4.5676462717298540e-05 1.4305470204913190e-03 0.0000000000000000e+00  4.5354590450811982e-05 1.4520538327994013e-03 0.0000000000000000e+00  4.4798167029143778e-05 1.4731885343466828e-03 0.0000000000000000e+00  4.4015096421650786e-05 1.4938231789443719e-03 0.0000000000000000e+