<?xml version="1.0"?>
<VTKFile type="UnstructuredGrid"  version="0.1"  >
<UnstructuredGrid>
<Piece  NumberOfPoints="608" NumberOfCells="1117">
<Points>
<DataArray  type="Float64"  NumberOfComponents="3"  format="ascii">0.08260869565217391 0 0  0.09913043478260869 0 0  0.09913043478260869 0.01666666666666667 0  0.1156521739130435 0 0  0.1156521739130435 0.01666666666666667 0  0.1321739130434783 0 0  0.1321739130434783 0.01666666666666667 0  0.148695652173913 0 0  0.148695652173913 0.01666666666666667 0  0.1652173913043478 0 0  0.1652173913043478 0.01666666666666667 0  0.1817391304347826 0 0  0.1817391304347826 0.01666666666666667 0  0.1982608695652174 0 0  0.1982608695652174 0.01666666666666667 0  0.2147826086956522 0 0  0.2147826086956522 0.01666666666666667 0  0.2313043478260869 0 0  0.2313043478260869 0.01666666666666667 0  0.2478260869565218 0 0  0.2478260869565218 0.01666666666666667 0  0.2643478260869565 0 0  0.2643478260869565 0.01666666666666667 0  0.2808695652173913 0 0  0.2808695652173913 0.01666666666666667 0  0.2973913043478261 0 0  0.2973913043478261 0.01666666666666667 0  0.3139130434782609 0 0  0.3139130434782609 0.01666666666666667 0  0.3304347826086956 0 0  0.3304347826086956 0.01666666666666667 0  0.3469565217391304 0 0  0.3469565217391304 0.01666666666666667 0  0.3634782608695652 0 0  0.3634782608695652 0.01666666666666667 0  0.3799999999999999 0 0  0.3799999999999999 0.01666666666666667 0  0.3965217391304348 0 0  0.3965217391304348 0.01666666666666667 0  0.4130434782608696 0 0  0.4130434782608696 0.01666666666666667 0  0.4295652173913043 0.01666666666666667 0  0.1156521739130435 0.03333333333333333 0  0.1321739130434783 0.03333333333333333 0  0.148695652173913 0.03333333333333333 0  0.1652173913043478 0.03333333333333333 0  0.1817391304347826 0.03333333333333333 0  0.1982608695652174 0.03333333333333333 0  0.2147826086956522 0.03333333333333333 0  0.2313043478260869 0.03333333333333333 0  0.2478260869565218 0.03333333333333333 0  0.2643478260869565 0.03333333333333333 0  0.2808695652173913 0.03333333333333333 0  0.2973913043478261 0.03333333333333333 0  0.3139130434782609 0.03333333333333333 0  0.3304347826086956 0.03333333333333333 0  0.3469565217391304 0.03333333333333333 0  0.3634782608695652 0.03333333333333333 0  0.3799999999999999 0.03333333333333333 0  0.3965217391304348 0.03333333333333333 0  0.4130434782608696 0.03333333333333333 0  0.4295652173913043 0.03333333333333333 0  0.4460869565217391 0.03333333333333333 0  0.1321739130434783 0.05 0  0.148695652173913 0.05 0  0.1652173913043478 0.05 0  0.1817391304347826 0.05 0  0.1982608695652174 0.05 0  0.2147826086956522 0.05 0  0.2313043478260869 0.05 0  0.2478260869565218 0.05 0  0.2643478260869565 0.05 0  0.2808695652173913 0.05 0  0.2973913043478261 0.05 0  0.3139130434782609 0.05 0  0.3304347826086956 0.05 0  0.3469565217391304 0.05 0  0.3634782608695652 0.05 0  0.3799999999999999 0.05 0  0.3965217391304348 0.05 0  0.4130434782608696 0.05 0  0.4295652173913043 0.05 0  0.4460869565217391 0.05 0  0.4626086956521739 0.05 0  0.148695652173913 0.06666666666666667 0  0.1652173913043478 0.06666666666666667 0  0.1817391304347826 0.06666666666666667 0  0.1982608695652174 0.06666666666666667 0  0.2147826086956522 0.06666666666666667 0  0.2313043478260869 0.06666666666666667 0  0.2478260869565218 0.06666666666666667 0  0.2643478260869565 0.06666666666666667 0  0.2808695652173913 0.06666666666666667 0  0.2973913043478261 0.06666666666666667 0  0.3139130434782609 0.06666666666666667 0  0.3304347826086956 0.06666666666666667 0  0.3469565217391304 0.06666666666666667 0  0.3634782608695652 0.06666666666666667 0  0.3799999999999999 0.06666666666666667 0  0.3965217391304348 0.06666666666666667 0  0.4130434782608696 0.06666666666666667 0  0.4295652173913043 0.06666666666666667 0  0.4460869565217391 0.06666666666666667 0  0.4626086956521739 0.06666666666666667 0  0.4791304347826086 0.06666666666666667 0  0.1652173913043478 0.08333333333333333 0  0.1817391304347826 0.08333333333333333 0  0.1982608695652174 0.08333333333333333 0  0.2147826086956522 0.08333333333333333 0  0.2313043478260869 0.08333333333333333 0  0.2478260869565218 0.08333333333333333 0  0.2643478260869565 0.08333333333333333 0  0.2808695652173913 0.08333333333333333 0  0.2973913043478261 0.08333333333333333 0  0.3139130434782609 0.08333333333333333 0  0.3304347826086956 0.08333333333333333 0  0.3469565217391304 0.08333333333333333 0  0.3634782608695652 0.08333333333333333 0  0.3799999999999999 0.08333333333333333 0  0.3965217391304348 0.08333333333333333 0  0.4130434782608696 0.08333333333333333 0  0.4295652173913043 0.08333333333333333 0  0.4460869565217391 0.08333333333333333 0  0.4626086956521739 0.08333333333333333 0  0.4791304347826086 0.08333333333333333 0  0.4956521739130435 0.08333333333333333 0  0.1817391304347826 0.1 0  0.1982608695652174 0.1 0  0.2147826086956522 0.1 0  0.2313043478260869 0.1 0  0.2478260869565218 0.1 0  0.2643478260869565 0.1 0  0.2808695652173913 0.1 0  0.2973913043478261 0.1 0  0.3139130434782609 0.1 0  0.3304347826086956 0.1 0  0.3469565217391304 0.1 0  0.3634782608695652 0.1 0  0.3799999999999999 0.1 0  0.3965217391304348 0.1 0  0.4130434782608696 0.1 0  0.4295652173913043 0.1 0  0.4460869565217391 0.1 0  0.4626086956521739 0.1 0  0.4791304347826086 0.1 0  0.4956521739130435 0.1 0  0.5121739130434783 0.1 0  0.1982608695652174 0.1166666666666667 0  0.2147826086956522 0.1166666666666667 0  0.2313043478260869 0.1166666666666667 0  0.2478260869565218 0.1166666666666667 0  0.2643478260869565 0.1166666666666667 0  0.2808695652173913 0.1166666666666667 0  0.2973913043478261 0.1166666666666667 0  0.3139130434782609 0.1166666666666667 0  0.3304347826086956 0.1166666666666667 0  0.3469565217391304 0.1166666666666667 0  0.3634782608695652 0.1166666666666667 0  0.3799999999999999 0.1166666666666667 0  0.3965217391304348 0.1166666666666667 0  0.4130434782608696 0.1166666666666667 0  0.4295652173913043 0.1166666666666667 0  0.4460869565217391 0.1166666666666667 0  0.4626086956521739 0.1166666666666667 0  0.4791304347826086 0.1166666666666667 0  0.4956521739130435 0.1166666666666667 0  0.5121739130434783 0.1166666666666667 0  0.528695652173913 0.1166666666666667 0  0.2147826086956522 0.1333333333333333 0  0.2313043478260869 0.1333333333333333 0  0.2478260869565218 0.1333333333333333 0  0.2643478260869565 0.1333333333333333 0  0.2808695652173913 0.1333333333333333 0  0.2973913043478261 0.1333333333333333 0  0.3139130434782609 0.1333333333333333 0  0.3304347826086956 0.1333333333333333 0  0.3469565217391304 0.1333333333333333 0  0.3634782608695652 0.1333333333333333 0  0.3799999999999999 0.1333333333333333 0  0.3965217391304348 0.1333333333333333 0  0.4130434782608696 0.1333333333333333 0  0.4295652173913043 0.1333333333333333 0  0.4460869565217391 0.1333333333333333 0  0.4626086956521739 0.1333333333333333 0  0.4791304347826086 0.1333333333333333 0  0.4956521739130435 0.1333333333333333 0  0.5121739130434783 0.1333333333333333 0  0.528695652173913 0.1333333333333333 0  0.5452173913043478 0.1333333333333333 0  0.2313043478260869 0.15 0  0.2478260869565218 0.15 0  0.2643478260869565 0.15 0  0.2808695652173913 0.15 0  0.2973913043478261 0.15 0  0.3139130434782609 0.15 0  0.3304347826086956 0.15 0  0.3469565217391304 0.15 0  0.3634782608695652 0.15 0  0.3799999999999999 0.15 0  0.3965217391304348 0.15 0  0.4130434782608696 0.15 0  0.4295652173913043 0.15 0  0.4460869565217391 0.15 0  0.4626086956521739 0.15 0  0.4791304347826086 0.15 0  0.4956521739130435 0.15 0  0.5121739130434783 0.15 0  0.528695652173913 0.15 0  0.5452173913043478 0.15 0  0.5617391304347825 0.15 0  0.2478260869565218 0.1666666666666667 0  0.2643478260869565 0.1666666666666667 0  0.2808695652173913 0.1666666666666667 0  0.2973913043478261 0.1666666666666667 0  0.3139130434782609 0.1666666666666667 0  0.3304347826086956 0.1666666666666667 0  0.3469565217391304 0.1666666666666667 0  0.3634782608695652 0.1666666666666667 0  0.3799999999999999 0.1666666666666667 0  0.3965217391304348 0.1666666666666667 0  0.4130434782608696 0.1666666666666667 0  0.4295652173913043 0.1666666666666667 0  0.4460869565217391 0.1666666666666667 0  0.4626086956521739 0.1666666666666667 0  0.4791304347826086 0.1666666666666667 0  0.4956521739130435 0.1666666666666667 0  0.5121739130434783 0.1666666666666667 0  0.528695652173913 0.1666666666666667 0  0.5452173913043478 0.1666666666666667 0  0.5617391304347825 0.1666666666666667 0  0.5782608695652174 0.1666666666666667 0  0.2643478260869565 0.1833333333333333 0  0.2808695652173913 0.1833333333333333 0  0.2973913043478261 0.1833333333333333 0  0.3139130434782609 0.1833333333333333 0  0.3304347826086956 0.1833333333333333 0  0.3469565217391304 0.1833333333333333 0  0.3634782608695652 0.1833333333333333 0  0.3799999999999999 0.1833333333333333 0  0.3965217391304348 0.1833333333333333 0  0.4130434782608696 0.1833333333333333 0  0.4295652173913043 0.1833333333333333 0  0.4460869565217391 0.1833333333333333 0  0.4626086956521739 0.1833333333333333 0  0.4791304347826086 0.1833333333333333 0  0.4956521739130435 0.1833333333333333 0  0.5121739130434783 0.1833333333333333 0  0.528695652173913 0.1833333333333333 0  0.5452173913043478 0.1833333333333333 0  0.5617391304347825 0.1833333333333333 0  0.5782608695652174 0.1833333333333333 0  0.2808695652173913 0.2 0  0.2973913043478261 0.2 0  0.3139130434782609 0.2 0  0.3304347826086956 0.2 0  0.3469565217391304 0.2 0  0.3634782608695652 0.2 0  0.3799999999999999 0.2 0  0.3965217391304348 0.2 0  0.4130434782608696 0.2 0  0.4295652173913043 0.2 0  0.4460869565217391 0.2 0  0.4626086956521739 0.2 0  0.4791304347826086 0.2 0  0.4956521739130435 0.2 0  0.5121739130434783 0.2 0  0.528695652173913 0.2 0  0.5452173913043478 0.2 0  0.5617391304347825 0.2 0  0.5782608695652174 0.2 0  0.2973913043478261 0.2166666666666667 0  0.3139130434782609 0.2166666666666667 0  0.3304347826086956 0.2166666666666667 0  0.3469565217391304 0.2166666666666667 0  0.36347826086956
[...]
<CellData  Scalars="rho"> 
<DataArray  type="Float64"  Name="rho"  format="ascii">9.8797345569561401e-01   9.8494871465061085e-01   9.8568052346134039e-01   9.8134924300499460e-01   9.8217047094943666e-01   9.7640214549253246e-01   9.7733669429556735e-01   9.7149700798279648e-01   9.7245536135771660e-01   9.6614873018067504e-01   9.6707366935452133e-01   9.6052776347339197e-01   9.6133436923965054e-01   9.5491409661731808e-01   9.5548410259975924e-01   9.4969922859762157e-01   9.4989376758052546e-01   9.4533786622464366e-01   9.4502669390722083e-01   9.4226359330751264e-01   9.4135942790573690e-01   9.4076846632651578e-01   9.4173691480270605e-01   9.4091008314449520e-01   9.4020064384021307e-01   9.4249937189073341e-01   9.4184825303820652e-01   9.4515049865867917e-01   9.4260811678595835e-01   9.4841684345006738e-01   8.5383405687409786e-01   8.6091811196690038e-01   8.5173458363454502e-01   8.5282401102249739e-01   8.4586619691059961e-01   8.3824733338853785e-01   8.3350064720962402e-01   8.2613597521763305e-01   8.2323807651050451e-01   8.0922004839081896e-01   9.8301380554231321e-01   9.7884298166633477e-01   9.7896049446223121e-01   9.7310601466686697e-01   9.7308360306426078e-01   9.6740308609189718e-01   9.6713083445125558e-01   9.6116029667668079e-01   9.6054614396339788e-01   9.5455699446491937e-01   9.5347598788787280e-01   9.4792581260234998e-01   9.4621317362491919e-01   9.4176376906079162e-01   9.3769496673927477e-01   9.3627901965834637e-01   9.1844059819782842e-01   9.2917362159856132e-01   7.7667118253270617e-01   9.2594480673256974e-01   7.6528431808971820e-01   8.0854948160225215e-01   7.6153784889661535e-01   8.0754195836480658e-01   7.6292222348270011e-01   8.0705705057274923e-01   7.6830223737903258e-01   8.0862625851958880e-01   7.7151309353502207e-01   8.1018192542478162e-01   7.7667451817956901e-01   8.1776280594809803e-01   7.8727279364407599e-01   8.0790646790715803e-01   8.0592636219930547e-01   7.9750009045551007e-01   7.9420971463574663e-01   7.7732042240561483e-01   7.5918277207856366e-01   7.4581695632986222e-01   9.7325855201593225e-01   8.2731447696223748e-01   7.6278267956195223e-01   7.9182285960696730e-01   7.2219531429180994e-01   7.5151736881899744e-01   6.8628741561936180e-01   7.2407319068203246e-01   6.5599141038247943e-01   6.9581003724118906e-01   6.2012653126895811e-01   6.7091121881450921e-01   5.9228632951823557e-01   6.5313102276164736e-01   5.7130762484548570e-01   6.4122593216975043e-01   5.6029264178527660e-01   6.3863397947113298e-01   5.5811453711979742e-01   6.4285453731582298e-01   5.6518289994563609e-01   6.4187314646940197e-01   5.5914878916409771e-01   6.6778946767894287e-01   5.8335674973949470e-01   6.8618005983185004e-01   6.0546536272584228e-01   7.0242607254235168e-01   6.2681843450187202e-01   7.1337288297864987e-01   6.4567366405126703e-01   7.1777807834417429e-01   6.5826998676338255e-01   7.1348534435128141e-01   6.6337962311285570e-01   7.0625181730814945e-01   6.6263191634151053e-01   6.8148382106331862e-01   6.5524119587500118e-01   6.4200740238673704e-01   5.6440977318726826e-01   5.2499671413007976e-01   4.2188269902489262e-01   4.8672339305101048e-01   3.8061763007070587e-01   4.4810544070577374e-01   3.4269967106505661e-01   4.1827777643251296e-01   3.1481569659291753e-01   3.9586153855778039e-01   2.6188769086343122e-01   3.8358339850191497e-01   2.5597721743036883e-01   3.8300477909828201e-01   2.7524562625221943e-01   3.5967426553360132e-01   2.3937082332710607e-01   3.6051765031700944e-01   2.3685181068548369e-01   3.9789226191464266e-01   2.7769728899493873e-01   4.1843474394899871e-01   2.9762589815399237e-01   4.6337681706021144e-01   3.5201608361631070e-01   4.9925481851807058e-01   3.9816689009553874e-01   5.2961622254810647e-01   4.3884243085108349e-01   5.5002698939042949e-01   4.6655929327366696e-01   5.6362509969438468e-01   4.9371594082841030e-01   5.7052624704845112e-01   5.0826827213461978e-01   5.7772301017351524e-01   5.1591278308048061e-01   5.7399138778915093e-01   5.2062948509064577e-01   5.3120515557214287e-01   1.0271505422250825e-01   6.5607126532636076e-02   0.0000000000000000e+00   3.9604691139444835e-02   0.0000000000000000e+00   2.1611274879848708e-02   0.0000000000000000e+00   1.5215068160598701e-02   0.0000000000000000e+00   0.0000000000000000e+00   0.0000000000000000e+00   0.0000000000000000e+00   0.0000000000000000e+00   0.0000000000000000e+00   0.0000000000000000e+00   9.7870659175679550e-03   0.0000000000000000e+00   2.2153607944784499e-02   0.0000000000000000e+00   9.1093377567038267e-02   0.0000000000000000e+00   1.6375224496459531e-01   3.0514431403554566e-02   2.2249680652204484e-01   1.0055321062780215e-01   2.7355396329692344e-01   1.6495434812752485e-01   3.1361804118474629e-01   2.1992701732979267e-01   3.5382734758965001e-01   2.7470569706182352e-01   3.7772003499105811e-01   3.0751528326267374e-01   4.0592309982928199e-01   3.4183470988020298e-01   4.2569507676840052e-01   3.7178933644181039e-01   4.4665586778674060e-01   3.9615171139480332e-01   4.2490629408923419e-01   0.0000000000000000e+00   0.0000000000000000e+00   0.0000000000000000e+00   0.0000000000000000e+00   0.0000000000000000e+00   0.0000000000000000e+00   0.0000000000000000e+00   0.0000000000000000e+00   0.0000000000000000e+00   0.0000000000000000e+00   0.0000000000000000e+00   0.0000000000000000e+00   0.0000000000000000e+00   0.0000000000000000e+00   0.0000000000000000e+00   0.0000000000000000e+00   0.0000000000000000e+00   0.0000000000000000e+00   0.0000000000000000e+00   0.0000000000000000e+00   0.0000000000000000e+00   0.0000000000000000e+00   0.0000000000000000e+00   0.0000000000000000e+00   0.0000000000000000e+00   5.8294345775218491e-02   0.0000000000000000e+00   1.3152755179455794e-01   4.1962087894799216e-02   1.9876275847951999e-01   1.2197080574951019e-01   2.5114269667557781e-01   1.7447264481770208e-01   2.9022777332799898e-01   2.3380217788988394e-01   3.2153324399762467e-01   2.8137318372166920e-01   3.7330410344602821e-01   3.3099164875211884e-01   4.3966989517078847e-01   0.0000000000000000e+00   0.0000000000000000e+00   0.0000000000000000e+00   0.0000000000000000e+00   0.0000000000000000e+00   0.0000000000000000e+00   0.0000000000000000e+00   0.0000000000000000e+00   0.0000000000000000e+00   0.0000000000000000e+00   0.0000000000000000e+00   0.0000000000000000e+00   0.0000000000000000e+00   0.0000000000000000e+00   0.0000000000000000e+00   0.0000000000000000e+00   0.0000000000000000e+00   0.0000000000000000e+00   0.0000000000000000e+00   0.0000000000000000e+00   0.0000000000000000e+00   0.0000000000000000e+00   0.0000000000000000e+00   0.0000000000000000e+00   0.0000000000000000e+00   0.0000000000000000e+00   0.0000000000000000e+00   1.7113677829457049e-02   0.0000000000000000e+00   1.0951169289797033e-01   4.4033091010108882e-02   1.7144107433176772e-01   1.1290427322535247e-01   2.6788232320557565e-01   2.2303763838599641e-01   3.5446291126370955e-01   3.0713048025871165e-01   4.8267540064304415e-01   4.4016687550310291e-01   5.4243386918623537e-01   0.0000000000000000e+00   0.0000000000000000e+00   0.0000000000000000e+00   0.0000000000000000e+00   0.0000000000000000e+00   0.0000000000000000e+00   0.0000000000000000e+00   0.0000000000000000e+00   0.0000000000000000e+00   0.0000000000000000e+00   0.0000000000000000e+00   0.0000000000000000e+00   0.0000000000000000e+00   0.0000000000000000e+00   0.0000000000000000e+00   0.0000000000000000e+00   0.0000000000000000e+00   0.0000000000000000e+00   0.0000000000000000e+00   0.0000000000000000e+00   0.0000000000000000e+00   0.0000000000000000e+00   0.0000000000000000e+00   0.0000000000000000e+00   0.0000000000000000e+00   0.0000000000000000e+00   0.0000000000000000e+00   5.1964272549268269e-02   4.7093457077629916e-03   1.2914620919565253e-01   8.0064783199656528e-02   2.0087600411752504e-01   1.5744021711631603e-01   3.3681273185265864e-01   2.5736737114744995e-01   4.6598415943758870e-01   4.1447642009150581e-01   5.7353891991851369e-01   5.4031189742743757e-01   6.8406450824075538e-01   0.0000000000000000e+00   0.0000000000000000e+00   0.0000000000000000e+00   0.0000000000000000e+00   0.0000000000000000e+00   0.0000000000000000e+00   0.0000000000000000e+00   0.0000000000000000e+00   0.0000000000000000e+00   0.0000000000000000e+00   0.0000000000000000e+00   0.0000000000000000e+00   0.0000000000000000e+00   0.0000000000000000e+00   0.0000000000000000e+00   0.0000000000000000e+00   0.0000000000000000e+00   0.0000000000000000e+00   0.0000000000000000e+00   0.0000000000000000e+00   0.0000000000000000e+00   0.0000000000000000e+00   0.0000000000000000e+00   0.0000000000000000e+00   0.0000000000000000e+00   0.0000000000000000e+00   0.0000000000000000e+00   6.5958459711729214e-02   1.8903889056996113e-02   1.4486555363557910e-01   1.0469817101350894e-01   2.9362736610499662e-01   2.3503076987243901e-01   4.3748410017797623e-01   3.7767396991844787e-01   6.2346061211265957e-01   5.7316013215264161e-01   7.2727184952711033e-01   7.0009103635836412e-01   7.6368176511265029e-01   0.0000000000000000e+00   0.0000000000000000e+00   0.0000000000000000e+00   0.0000000000000000e+00   0.0000000000000000e+00   0.0000000000000000e+00   0.0000000000000000e+00   0.0000000000000000e+00   0.0000000000000000e+00   0.0000000000000000e+00   0.0000000000000000e+00   0.0000000000000000e+00   0.0000000000000000e+00   0.0000000000000000e+00   0.0000000000000000e+00   0.0000000000000000e+00   0.0000000000000000e+00   0.0000000000000000e+00   0.0000000000000000e+00   0.0000000000000000e+00   0.0000000000000000e+00   0.0000000000000000e+00   0.0000000000000000e+00   0.0000000000000000e+00   0.0000000000000000e+00   4.4121393195238230e-02   1.8837798566803477e-03   1.3527745097362165e-01   9.3068024153087861e-02   2.8027006708434521e-01   2.0177700927736930e-01   4.5707311165997749e-01   3.5774487874690958e-01   6.1766346422369811e-01   5.4692244039396498e-01   7.4064086511479077e-01   6.8787953110738043e-01   8.0474699364778135e-01   7.8347691461298985e-01   8.0970936688330852e-01   0.0000000000000000e+00   0.0000000000000000e+00   0.0000000000000000e+00   0.0000000000000000e+00   0.0000000000000000e+00   0.0000000000000000e+00   0.0000000000000000e+00   0.0000000000000000e+00   0.0000000000000000e+00   0.0000000000000000e+00   0.0000000000000000e+00   0.0000000000000000e+00   0.0000000000000000e+00   0.0000000000000000e+00   0.0000000000000000e+00   0.0000000000000000e+00   0.0000000000000000e+00   0.0000000000000000e+00   0.0000000000000000e+00   0.0000000000000000e+00   0.0000000000000000e+00   0.0000000000000000e+00   0.0000000000000000e+00   1.0014094571772360e-02   2.7127358609646724e-03   1.0730229320663055e-01   6.8537705932194853e-02   2.2172437040471787e-01   1.6742612070756013e-01   3.9329445503037236e-01   3.0222995406332948e-01   5.4540839309175415e-01   4.6586625592045355e-01   6.7676608196028065e-01   6.0844704716587183e-01   7.7068104383211622e-01   7.2128831094925272e-01   7.9948756792368103e-01   7.8228401842676321e-01   0.0000000000000000e+00   0.0000000000000000e+00   0.0000000000000000e+00   0.0000000000000000e+00   0.0000000000000000e+00   0.0000000000000000e+00   0.0000000000000000e+00   0.0000000000000000e+00   0.0000000000000000e+00   0.0000000000000000e+00   0.0000000000000000e+00   0.0000000000000000e+00   0.0000000000000000e+00   0.0000000000000000e+00   0.0000000000000000e+00   0.0000000000000000e+00   0.0000000000000000e+00   0.0000000000000000e+00   0.0000000000000000e+00   0.0000000000000000e+00   0.0000000000000000e+00   4.0542310615054589e-03   5.0479008651730588e-04   8.7613401583097994e-02   3.7106141531503191e-02   1.8269563084465443e-01   1.4219720552063109e-01   2.9991874631242776e-01   2.4031225775783713e-01   4.4346644198992402e-01   3.3959975637374179e-01   5.7887008681978924e-01   4.9319757484650717e-01   6.8145599314751937e-01   6.0954461260179416e-01   7.4238905098656960e-01   6.9123102614180798e-01   0.0000000000000000e+00   0.0000000000000000e+00   0.0000000000000000e+00   0.0000000000000000e+00   0.0000000000000000e+00   0.0000000000000000e+00   0.0000000000000000e+00   0.0000000000000000e+00   0.0000000000000000e+00   0.0000000000000000e+00   0.0000000000000000e+00   0.0000000000000000e+00   0.0000000000000000e+00   0.0000000000000000e+00   0.0000000000000000e+00   0.0000000000000000e+00   0.0000000000000000e+00   0.0000000000000000e+00   0.0000000000000000e+00   4.8007294766663712e-04   0.0000000000000000e+00   4.9972639624021840e-02   9.4324686309414062e-03   1.5365599323309531e-01   9.7080261256309183e-02   2.4579750743258647e-01   2.0323973337250453e-01   3.4210631731351476e-01   2.9188127499791344e-01   4.2332446746354707e-01   3.8281644679018900e-01   5.0957948844495382e-01   4.5322483438248373e-01   5.7491092798905852e-01   5.1947611693724727e-01   0.0000000000000000e+00   0.0000000000000000e+00   0.0000000000000000e+00   0.0000000000000000e+00   0.0000000000000000e+00   0.0000000000000000e+00   0.0000000000000000e+00   0.0000000000000000e+00   0.0000000000000000e+00   0.0000000000000000e+00   0.0000000000000000e+00   0.0000000000000000e+00   0.0000000000000000e+00   0.0000000000000000e+00   0.0000000000000000e+00   0.0000000000000000e+00   0.0000000000000000e+00   0.0000000000000000e+00   0.0000000000000000e+00   0.0000000000000000e+00   2.1716276764641374e-02   0.0000000000000000e+00   1.0350624747615254e-01   6.6079065044400448e-02   1.8711109418449157e-01   1.4665937512362526e-01   2.7576544043744866e-01   2.2159719139804160e-01   3.8112923713144625e-01   3.0242516863244634e-01   4.4017059065901665e-01   3.9169295903059026e-01   4.9696648941034743e-01   4.5562857670465079e-01   0.0000000000000000e+00   0.0000000000000000e+00   0.0000000000000000e+00   0.0000000000000000e+00   0.0000000000000000e+00   0.0000000000000000e+00   0.0000000000000000e+00   0.0000000000000000e+00   0.0000000000000000e+00   0.0000000000000000e+00   0.0000000000000000e+00   0.0000000000000000e+00   0.0000000000000000e+00   0.0000000000000000e+00   0.0000000000000000e+00   0.0000000000000000e+00   0.0000000000000000e+00   0.0000000000000000e+00   0.0000000000000000e+00   0.0000000000000000e+00   0.0000000000000000e+00   0.0000000000000000e+00   5.9402256721504898e-02   2.5702346471231735e-02   1.4361622766891824e-01   9.6715259299358702e-02   2.1701364962042399e-01   1.6473919948813756e-01   2.8344260631053786e-01   2.3596527181712651e-01   3.4848943868980325e-01   3.1255554661299956e-01   4.2287649963010931e-01   3.8638992772590203e-01   4.2033844529504483e-01   0.0000000000000000e+00   0.0000000000000000e+00   0.0000000000000000e+00   0.0000000000000000e+00   0.0000000000000000e+00   0.0000000000000000e+00   0.0000000000000000e+00   0.0000000000000000e+00   0.0000000000000000e+00   0.0000000000000000e+00   0.0000000000000000e+00   0.0000000000000000e+00   0.0000000000000000e+00   0.0000000000000000e+00   0.0000000000000000e+00   0.0000000000000000e+00   0.0000000000000000e+00   0.0000000000000000e+00   0.0000000000000000e+00   0.0000000000000000e+00   0.0000000000000000e+00   2.6643578430825387e-02   0.0000000000000000e+00   9.4092600970465803e-02   6.2550821285124431e-02   1.5901082221479995e-01   1.2388723996801369e-01   2.2369032437378794e-01   1.8869209688023028e-01   2.8371126034191829e-01   2.4832821858332854e-01   3.6193477644221561e-01   3.0447426609750855e-01   3.9721553862877534e-01   3.7881634486021754e-01   4.1409554130953985e-01   0.0000000000000000e+00   0.0000000000000000e+00   0.0000000000000000e+00   0.0000000000000000e+00   0.0000000000000000e+00   0.0000000000000000e+00   0.0000000000000000e+00   0.0000000000000000e+00   0.0000000000000000e+00   0.0000000000000000e+00   0.0000000000000000e+00   0.0000000000000000e+00   0.0000000000000000e+00   0.0000000000000000e+00   0.0000000000000000e+00   0.0000000000000000e+00   0.0000000000000000e+00   0.0000000000000000e+00   0.0000000000000000e+00   4.4995367379442822e-03   0.0000000000000000e+00   6.8191667496780739e-02   3.8255962175088490e-02   1.2832843540664854e-01   1.0128905880426187e-01   1.8958684971835857e-01   1.6088195826209170e-01   2.4557804183401247e-01   2.1765054723748944e-01   3.1693712373904376e-01   2.8699183268428646e-01   3.4646189578100939e-01   3.1684340399605215e-01   3.9635437425561965e-01   3.5797934267097653e-01   4.0510539220551328e-01   0.0000000000000000e+00   0.0000000000000000e+00   0.0000000000000000e+00   0.0000000000000000e+00   0.0000000000000000e+00   0.0000000000000000e+00   0.0000000000000000e+00   0.0000000000000000e+00   0.0000000000000000e+00   0.0000000000000000e+00   0.0000000000000000e+00   0.0000000000000000e+00   0.0000000000000000e+00   0.0000000000000000e+00   0.0000000000000000e+00   0.0000000000000000e+00   0.0000000000000000e+00   0.0000000000000000e+00   0.0000000000000000e+00   4.4960755054576071e-02   1.7910870974332988e-02   1.0486957135753822e-01   8.0125557389339019e-02   1.6528320296904520e-01   1.3917724931014203e-01   2.3268845144549044e-01   2.0170335949565790e-01   2.6166779294847914e-01   2.4722915757269834e-01   3.1332270076713264e-01   2.8905174952245843e-01   3.5274332390019408e-01   3.2645657433488395e-01   3.9105604146039341e-01   3.6258321144981542e-01   3.8941147213619381e-01   0.0000000000000000e+00   0.0000000000000000e+00   0.0000000000000000e+00   0.0000000000000000e+00   0.0000000000000000e+00   0.0000000000000000e+00   0.0000000000000000e+00   0.0000000000000000e+00   0.0000000000000000e+00   0.0000000000000000e+00   0.0000000000000000e+00   0.0000000000000000e+00   0.0000000000000000e+00   0.0000000000000000e+00   0.0000000000000000e+00   0.0000000000000000e+00   0.0000000000000000e+00   2.5842449964657052e-02   0.0000000000000000e+00   8.6315505077763477e-02   6.0612686876263200e-02   1.4973110397562658e-01   1.2255004434117041e-01   1.9915467376525678e-01   1.7309645095035389e-01   2.4404418186594146e-01   2.2343874831483909e-01   3.0777435656492802e-01   2.8563941654281910e-01   3.3527970749717079e-01   3.1288009204090911e-01   3.5914793257787658e-01   3.3393379644700277e-01   3.7703488831924842e-01   3.4897003021250500e-01   3.6975829037290803e-01   0.0000000000000000e+00   0.0000000000000000e+00   0.0000000000000000e+00   0.0000000000000000e+00   0.0000000000000000e+00   0.0000000000000000e+00   0.0000000000000000e+00   0.0000000000000000e+00   0.0000000000000000e+00   0.0000000000000000e+00   0.0000000000000000e+00   0.0000000000000000e+00   0.0000000000000000e+00   0.0000000000000000e+00   0.0000000000000000e+00   7.9820093741042580e-03   0.0000000000000000e+00   7.5825283145393482e-02   4.4834574897182386e-02   1.2465105756552969e-01   9.6173054119381068e-02   2.0358619641676831e-01   1.8218232946221982e-01   2.4409788019814724e-01   2.2817721718499689e-01   2.7607969400608950e-01   2.5831993899369271e-01   2.9289224804659225e-01   2.7514331780492929e-01   2.9756989005228490e-01   2.7841014027153793e-01   3.0843030194321913e-01   2.8327226329039662e-01   3.2289691453643493e-01   2.9214902852626112e-01   3.0620700696431835e-01   0.0000000000000000e+00   0.0000000000000000e+00   0.0000000000000000e+00   0.0000000000000000e+00   0.0000000000000000e+00   0.0000000000000000e+00   0.0000000000000000e+00   0.0000000000000000e+00   0.0000000000000000e+00   0.0000000000000000e+00   0.0000000000000000e+00   0.0000000000000000e+00   0.0000000000000000e+00   0.0000000000000000e+00   0.0000000000000000e+00   4.8213287242916222e-02   5.9252390206096265e-03   9.7202301322800125e-02   4.3957453896416948e-02   1.8234828361412453e-01   1.3170017444909138e-01   2.2181013018576429e-01   1.7335915353610903e-01   2.4320877911537353e-01   1.9880322998551883e-01   2.5329352114809778e-01   2.1116264164940107e-01   2.4652411501599147e-01   2.0706675986594297e-01   2.4563035636044628e-01   1.9954076397114737e-01   2.5006051305377580e-01   2.0067419334412645e-01   2.6243646895230810e-01   2.0910372879090502e-01   2.4604862440056757e-01   0.0000000000000000