<?xml version="1.0"?>
<VTKFile type="UnstructuredGrid"  version="0.1"  >
<UnstructuredGrid>
<Piece  NumberOfPoints="640" NumberOfCells="1181">
<Points>
<DataArray  type="Float64"  NumberOfComponents="3"  format="ascii">2.973913043478261 0 0  2.990434782608696 0 0  2.990434782608696 0.01666666666666667 0  2.973913043478261 0.01666666666666667 0  3.006956521739131 0 0  3.006956521739131 0.01666666666666667 0  3.023478260869565 0 0  3.023478260869565 0.01666666666666667 0  3.04 0 0  3.04 0.01666666666666667 0  3.056521739130435 0 0  3.056521739130435 0.01666666666666667 0  3.073043478260869 0 0  3.073043478260869 0.01666666666666667 0  3.089565217391304 0 0  3.089565217391304 0.01666666666666667 0  3.106086956521739 0 0  3.106086956521739 0.01666666666666667 0  3.122608695652174 0 0  3.122608695652174 0.01666666666666667 0  3.139130434782609 0 0  3.139130434782609 0.01666666666666667 0  3.155652173913043 0 0  3.155652173913043 0.01666666666666667 0  3.172173913043478 0 0  3.172173913043478 0.01666666666666667 0  3.188695652173913 0 0  3.188695652173913 0.01666666666666667 0  3.205217391304347 0 0  3.205217391304347 0.01666666666666667 0  3.221739130434782 0 0  3.221739130434782 0.01666666666666667 0  3.238260869565217 0 0  3.238260869565217 0.01666666666666667 0  2.990434782608696 0.03333333333333333 0  2.973913043478261 0.03333333333333333 0  3.006956521739131 0.03333333333333333 0  3.023478260869565 0.03333333333333333 0  3.04 0.03333333333333333 0  3.056521739130435 0.03333333333333333 0  3.073043478260869 0.03333333333333333 0  3.089565217391304 0.03333333333333333 0  3.106086956521739 0.03333333333333333 0  3.122608695652174 0.03333333333333333 0  3.139130434782609 0.03333333333333333 0  3.155652173913043 0.03333333333333333 0  3.172173913043478 0.03333333333333333 0  3.188695652173913 0.03333333333333333 0  3.205217391304347 0.03333333333333333 0  3.221739130434782 0.03333333333333333 0  3.238260869565217 0.03333333333333333 0  3.254782608695652 0.03333333333333333 0  2.990434782608696 0.05 0  3.006956521739131 0.05 0  3.023478260869565 0.05 0  3.04 0.05 0  3.056521739130435 0.05 0  3.073043478260869 0.05 0  3.089565217391304 0.05 0  3.106086956521739 0.05 0  3.122608695652174 0.05 0  3.139130434782609 0.05 0  3.155652173913043 0.05 0  3.172173913043478 0.05 0  3.188695652173913 0.05 0  3.205217391304347 0.05 0  3.221739130434782 0.05 0  3.238260869565217 0.05 0  3.254782608695652 0.05 0  3.271304347826087 0.05 0  3.006956521739131 0.06666666666666667 0  2.990434782608696 0.06666666666666667 0  3.023478260869565 0.06666666666666667 0  3.04 0.06666666666666667 0  3.056521739130435 0.06666666666666667 0  3.073043478260869 0.06666666666666667 0  3.089565217391304 0.06666666666666667 0  3.106086956521739 0.06666666666666667 0  3.122608695652174 0.06666666666666667 0  3.139130434782609 0.06666666666666667 0  3.155652173913043 0.06666666666666667 0  3.172173913043478 0.06666666666666667 0  3.188695652173913 0.06666666666666667 0  3.205217391304347 0.06666666666666667 0  3.221739130434782 0.06666666666666667 0  3.238260869565217 0.06666666666666667 0  3.254782608695652 0.06666666666666667 0  3.271304347826087 0.06666666666666667 0  3.287826086956521 0.06666666666666667 0  3.006956521739131 0.08333333333333333 0  3.023478260869565 0.08333333333333333 0  3.04 0.08333333333333333 0  3.056521739130435 0.08333333333333333 0  3.073043478260869 0.08333333333333333 0  3.089565217391304 0.08333333333333333 0  3.106086956521739 0.08333333333333333 0  3.122608695652174 0.08333333333333333 0  3.139130434782609 0.08333333333333333 0  3.155652173913043 0.08333333333333333 0  3.172173913043478 0.08333333333333333 0  3.188695652173913 0.08333333333333333 0  3.205217391304347 0.08333333333333333 0  3.221739130434782 0.08333333333333333 0  3.238260869565217 0.08333333333333333 0  3.254782608695652 0.08333333333333333 0  3.271304347826087 0.08333333333333333 0  3.287826086956521 0.08333333333333333 0  3.304347826086957 0.08333333333333333 0  3.023478260869565 0.1 0  3.006956521739131 0.1 0  3.04 0.1 0  3.056521739130435 0.1 0  3.073043478260869 0.1 0  3.089565217391304 0.1 0  3.106086956521739 0.1 0  3.122608695652174 0.1 0  3.139130434782609 0.1 0  3.155652173913043 0.1 0  3.172173913043478 0.1 0  3.188695652173913 0.1 0  3.205217391304347 0.1 0  3.221739130434782 0.1 0  3.238260869565217 0.1 0  3.254782608695652 0.1 0  3.271304347826087 0.1 0  3.287826086956521 0.1 0  3.304347826086957 0.1 0  3.320869565217391 0.1 0  3.023478260869565 0.1166666666666667 0  3.04 0.1166666666666667 0  3.056521739130435 0.1166666666666667 0  3.073043478260869 0.1166666666666667 0  3.089565217391304 0.1166666666666667 0  3.106086956521739 0.1166666666666667 0  3.122608695652174 0.1166666666666667 0  3.139130434782609 0.1166666666666667 0  3.155652173913043 0.1166666666666667 0  3.172173913043478 0.1166666666666667 0  3.188695652173913 0.1166666666666667 0  3.205217391304347 0.1166666666666667 0  3.221739130434782 0.1166666666666667 0  3.238260869565217 0.1166666666666667 0  3.254782608695652 0.1166666666666667 0  3.271304347826087 0.1166666666666667 0  3.287826086956521 0.1166666666666667 0  3.304347826086957 0.1166666666666667 0  3.320869565217391 0.1166666666666667 0  3.337391304347826 0.1166666666666667 0  3.04 0.1333333333333333 0  3.023478260869565 0.1333333333333333 0  3.056521739130435 0.1333333333333333 0  3.073043478260869 0.1333333333333333 0  3.089565217391304 0.1333333333333333 0  3.106086956521739 0.1333333333333333 0  3.122608695652174 0.1333333333333333 0  3.139130434782609 0.1333333333333333 0  3.155652173913043 0.1333333333333333 0  3.172173913043478 0.1333333333333333 0  3.188695652173913 0.1333333333333333 0  3.205217391304347 0.1333333333333333 0  3.221739130434782 0.1333333333333333 0  3.238260869565217 0.1333333333333333 0  3.254782608695652 0.1333333333333333 0  3.271304347826087 0.1333333333333333 0  3.287826086956521 0.1333333333333333 0  3.304347826086957 0.1333333333333333 0  3.320869565217391 0.1333333333333333 0  3.337391304347826 0.1333333333333333 0  3.353913043478261 0.1333333333333333 0  3.04 0.15 0  3.056521739130435 0.15 0  3.073043478260869 0.15 0  3.089565217391304 0.15 0  3.106086956521739 0.15 0  3.122608695652174 0.15 0  3.139130434782609 0.15 0  3.155652173913043 0.15 0  3.172173913043478 0.15 0  3.188695652173913 0.15 0  3.205217391304347 0.15 0  3.221739130434782 0.15 0  3.238260869565217 0.15 0  3.254782608695652 0.15 0  3.271304347826087 0.15 0  3.287826086956521 0.15 0  3.304347826086957 0.15 0  3.320869565217391 0.15 0  3.337391304347826 0.15 0  3.353913043478261 0.15 0  3.370434782608696 0.15 0  3.056521739130435 0.1666666666666667 0  3.073043478260869 0.1666666666666667 0  3.089565217391304 0.1666666666666667 0  3.106086956521739 0.1666666666666667 0  3.122608695652174 0.1666666666666667 0  3.139130434782609 0.1666666666666667 0  3.155652173913043 0.1666666666666667 0  3.172173913043478 0.1666666666666667 0  3.188695652173913 0.1666666666666667 0  3.205217391304347 0.1666666666666667 0  3.221739130434782 0.1666666666666667 0  3.238260869565217 0.1666666666666667 0  3.254782608695652 0.1666666666666667 0  3.271304347826087 0.1666666666666667 0  3.287826086956521 0.1666666666666667 0  3.304347826086957 0.1666666666666667 0  3.320869565217391 0.1666666666666667 0  3.337391304347826 0.1666666666666667 0  3.353913043478261 0.1666666666666667 0  3.370434782608696 0.1666666666666667 0  3.386956521739131 0.1666666666666667 0  3.073043478260869 0.1833333333333333 0  3.089565217391304 0.1833333333333333 0  3.106086956521739 0.1833333333333333 0  3.122608695652174 0.1833333333333333 0  3.139130434782609 0.1833333333333333 0  3.155652173913043 0.1833333333333333 0  3.172173913043478 0.1833333333333333 0  3.188695652173913 0.1833333333333333 0  3.205217391304347 0.1833333333333333 0  3.221739130434782 0.1833333333333333 0  3.238260869565217 0.1833333333333333 0  3.254782608695652 0.1833333333333333 0  3.271304347826087 0.1833333333333333 0  3.287826086956521 0.1833333333333333 0  3.304347826086957 0.1833333333333333 0  3.320869565217391 0.1833333333333333 0  3.337391304347826 0.1833333333333333 0  3.353913043478261 0.1833333333333333 0  3.370434782608696 0.1833333333333333 0  3.386956521739131 0.1833333333333333 0  3.403478260869565 0.1833333333333333 0  3.089565217391304 0.2 0  3.106086956521739 0.2 0  3.122608695652174 0.2 0  3.139130434782609 0.2 0  3.155652173913043 0.2 0  3.172173913043478 0.2 0  3.188695652173913 0.2 0  3.205217391304347 0.2 0  3.221739130434782 0.2 0  3.238260869565217 0.2 0  3.254782608695652 0.2 0  3.271304347826087 0.2 0  3.287826086956521 0.2 0  3.304347826086957 0.2 0  3.320869565217391 0.2 0  3.337391304347826 0.2 0  3.353913043478261 0.2 0  3.370434782608696 0.2 0  3.386956521739131 0.2 0  3.403478260869565 0.2 0  3.419999999999999 0.2 0  3.106086956521739 0.2166666666666667 0  3.122608695652174 0.2166666666666667 0  3.139130434782609 0.2166666666666667 0  3.155652173913043 0.2166666666666667 0  3.172173913043478 0.2166666666666667 0  3.188695652173913 0.2166666666666667 0  3.205217391304347 0.2166666666666667 0  3.221739130434782 0.2166666666666667 0  3.238260869565217 0.2166666666666667 0  3.254782608695652 0.2166666666666667 0  3.271304347826087 0.2166666666666667 0  3.287826086956521 0.2166666666666667 0  3.304347826086957 0.2166666666666667 0  3.320869565217391 0.2166666666666667 0  3.337391304347826 0.2166666666666667 0  3.353913043478261 0.2166666666666667 0  3.370434782608696 0.2166666666666667 0  3.386956521739131 0.2166666666666667 0  3.403478260869565 0.2166666666666667 0  3.419999999999999 0.2166666666666667 0  3.436521739130435 0.2166666666666667 0  3.122608695652174 0.2333333333333333 0  3.139130434782609 0.2333333333333333 0  3.155652173913043 0.2333333333333333 0  3.172173913043478 0.2333333333333333 0  3.188695652173913 0.2333333333333333 0  3.205217391304347 0.2333333333333333 0  3.221739130434782 0.2333333333333333 0  3.238260869565217 0.2333333333333333 0  3.254782
[...]
<PointData  Vectors="Displacement"> 
<DataArray  type="Float64"  Name="Displacement"  NumberOfComponents="3" format="ascii">5.8671584040763598e-04 9.8465862814769729e-03 0.0000000000000000e+00  5.8772840554887436e-04 9.8327425390823640e-03 0.0000000000000000e+00  6.0343056235916820e-04 9.8316900216244285e-03 0.0000000000000000e+00  5.9717689497298129e-04 9.8457538833058925e-03 0.0000000000000000e+00  5.8893870694591783e-04 9.8085161632054246e-03 0.0000000000000000e+00  6.1573945074114593e-04 9.8073020352945784e-03 0.0000000000000000e+00  5.9001179411773542e-04 9.7694670021104858e-03 0.0000000000000000e+00  6.3183373451633506e-04 9.7685082311552984e-03 0.0000000000000000e+00  5.9067664796850431e-04 9.7221184371066929e-03 0.0000000000000000e+00  6.4022333431330305e-04 9.7215975423702895e-03 0.0000000000000000e+00  5.9107477841134496e-04 9.6715454013299763e-03 0.0000000000000000e+00  6.4334281488849390e-04 9.6711533068264410e-03 0.0000000000000000e+00  5.9131089263854300e-04 9.6185522232664893e-03 0.0000000000000000e+00  6.4566276753143671e-04 9.6183734525076958e-03 0.0000000000000000e+00  5.9159905599915155e-04 9.5636493094284330e-03 0.0000000000000000e+00  6.4719423812899322e-04 9.5634608651828761e-03 0.0000000000000000e+00  5.9203313326857689e-04 9.5078371547951505e-03 0.0000000000000000e+00  6.4829379400633863e-04 9.5076750055347100e-03 0.0000000000000000e+00  5.9218839660589114e-04 9.4526676488327615e-03 0.0000000000000000e+00  6.4847392676718578e-04 9.4528295242291994e-03 0.0000000000000000e+00  6.4220626958315862e-04 9.4312985483827778e-03 0.0000000000000000e+00  6.6680534394487282e-04 9.4166122808708591e-03 0.0000000000000000e+00  6.8761649199661776e-04 9.4145577964328958e-03 0.0000000000000000e+00  7.0629338966180346e-04 9.4014907930109696e-03 0.0000000000000000e+00  7.3108943095498544e-04 9.4000277762370105e-03 0.0000000000000000e+00  7.4349297489318723e-04 9.3869987842927390e-03 0.0000000000000000e+00  7.7477618748077247e-04 9.3900091825434417e-03 0.0000000000000000e+00  7.8047914205679140e-04 9.3766342991402352e-03 0.0000000000000000e+00  8.1963815886975744e-04 9.3861164424851404e-03 0.0000000000000000e+00  8.1816204208764955e-04 9.3722709115401388e-03 0.0000000000000000e+00  8.6599747184390029e-04 9.3893701068428082e-03 0.0000000000000000e+00  8.5690060367737172e-04 9.3750494066625160e-03 0.0000000000000000e+00  9.1392717870644150e-04 9.4003646660179730e-03 0.0000000000000000e+00  8.9680177073383203e-04 9.3855696475966619e-03 0.0000000000000000e+00  6.6247240519927387e-04 9.8092514700445915e-03 0.0000000000000000e+00  6.5176516425483511e-04 9.8269117923124108e-03 0.0000000000000000e+00  6.7262560225090414e-04 9.7835697108490487e-03 0.0000000000000000e+00  6.8192315251513417e-04 9.7482559764070584e-03 0.0000000000000000e+00  6.8858559502512902e-04 9.7079714428456171e-03 0.0000000000000000e+00  6.9430696897713389e-04 9.6699650837803047e-03 0.0000000000000000e+00  7.0067561687188777e-04 9.6175404715512034e-03 0.0000000000000000e+00  7.0419695965240976e-04 9.5630125781836807e-03 0.0000000000000000e+00  7.0540839871549522e-04 9.5067235775533557e-03 0.0000000000000000e+00  7.0668724747268655e-04 9.4543138821182194e-03 0.0000000000000000e+00  7.0980528831734611e-04 9.4181295808485957e-03 0.0000000000000000e+00  7.3206111004018605e-04 9.3940759508926181e-03 0.0000000000000000e+00  7.5769193250192844e-04 9.3778256253513777e-03 0.0000000000000000e+00  7.8526076605096959e-04 9.3662774345694665e-03 0.0000000000000000e+00  8.1454717973067077e-04 9.3610663062773346e-03 0.0000000000000000e+00  8.4533254520609768e-04 9.3632487655152131e-03 0.0000000000000000e+00  8.7747286909001015e-04 9.3731850668334858e-03 0.0000000000000000e+00  9.1071242716209914e-04 9.3915967296209196e-03 0.0000000000000000e+00  7.2534333184974293e-04 9.7897217886638108e-03 0.0000000000000000e+00  7.3035370505188731e-04 9.7656181807458803e-03 0.0000000000000000e+00  7.3435331948177858e-04 9.7333579337463144e-03 0.0000000000000000e+00  7.3689766763307722e-04 9.6952511456024227e-03 0.0000000000000000e+00  7.3908655961388834e-04 9.6535317026367595e-03 0.0000000000000000e+00  7.4276977718967091e-04 9.6028731224070286e-03 0.0000000000000000e+00  7.4706166614969957e-04 9.5488442624306683e-03 0.0000000000000000e+00  7.5292533108608714e-04 9.4979604683169596e-03 0.0000000000000000e+00  7.5470468405696995e-04 9.4545658946822778e-03 0.0000000000000000e+00  7.5626465662669430e-04 9.4204671412638028e-03 0.0000000000000000e+00  7.6077824394728440e-04 9.3949938667413375e-03 0.0000000000000000e+00  7.7086728751979373e-04 9.3744906906832268e-03 0.0000000000000000e+00  7.8781995172809947e-04 9.3598434148733107e-03 0.0000000000000000e+00  8.0838754508636508e-04 9.3528247024473703e-03 0.0000000000000000e+00  8.3122108173725828e-04 9.3538488427930746e-03 0.0000000000000000e+00  8.5627651114046199e-04 9.3628106164357888e-03 0.0000000000000000e+00  8.8266998687937291e-04 9.3803363881253231e-03 0.0000000000000000e+00  9.0991111439037197e-04 9.4074449135304970e-03 0.0000000000000000e+00  7.8740100902127924e-04 9.7535994417742976e-03 0.0000000000000000e+00  7.8665274938390290e-04 9.7758853693482636e-03 0.0000000000000000e+00  7.8714567743552320e-04 9.7235075382016579e-03 0.0000000000000000e+00  7.8588124676302190e-04 9.6864006547046008e-03 0.0000000000000000e+00  7.8432266812407977e-04 9.6429112126368653e-03 0.0000000000000000e+00  7.8329336086419682e-04 9.5909761303062425e-03 0.0000000000000000e+00  7.8543663691078315e-04 9.5349032155050313e-03 0.0000000000000000e+00  7.8665489296574802e-04 9.4832355886356311e-03 0.0000000000000000e+00  7.8755368910624329e-04 9.4524365547662571e-03 0.0000000000000000e+00  7.8802507256128872e-04 9.4211334898954315e-03 0.0000000000000000e+00  7.8919257047758745e-04 9.3942264418951493e-03 0.0000000000000000e+00  7.9207110996085085e-04 9.3728481018870505e-03 0.0000000000000000e+00  7.9594016051080666e-04 9.3583338932778353e-03 0.0000000000000000e+00  8.0104623559139581e-04 9.3486265972799569e-03 0.0000000000000000e+00  8.1236903412223657e-04 9.3457638821161197e-03 0.0000000000000000e+00  8.3338844197862233e-04 9.3538776682498947e-03 0.0000000000000000e+00  8.5386508922000116e-04 9.3700080778211150e-03 0.0000000000000000e+00  8.7543407676792103e-04 9.3961923133790443e-03 0.0000000000000000e+00  8.9777588443318171e-04 9.4321327584835774e-03 0.0000000000000000e+00  8.4378602691530529e-04 9.7468197021945927e-03 0.0000000000000000e+00  8.4010708768470464e-04 9.7186163775923682e-03 0.0000000000000000e+00  8.3544202804066261e-04 9.6822338146408150e-03 0.0000000000000000e+00  8.3021550476661916e-04 9.6380603984743268e-03 0.0000000000000000e+00  8.2431593301006162e-04 9.5856336462016075e-03 0.0000000000000000e+00  8.1583585727028861e-04 9.5207135626820868e-03 0.0000000000000000e+00  8.1546661534574619e-04 9.4818622471952822e-03 0.0000000000000000e+00  8.1565299103483237e-04 9.4512274529397824e-03 0.0000000000000000e+00  8.1526509276075342e-04 9.4215931712674870e-03 0.0000000000000000e+00  8.1362649791180827e-04 9.3943247924142582e-03 0.0000000000000000e+00  8.1199134402071738e-04 9.3727346276967615e-03 0.0000000000000000e+00  8.1148563714671606e-04 9.3576827648564308e-03 0.0000000000000000e+00  8.1261234969276942e-04 9.3476146327915594e-03 0.0000000000000000e+00  8.1545123659903141e-04 9.3441256161351377e-03 0.0000000000000000e+00  8.1886270615602922e-04 9.3489267725872915e-03 0.0000000000000000e+00  8.2373555497353363e-04 9.3594495457529278e-03 0.0000000000000000e+00  8.4168947325135570e-04 9.3850380826581946e-03 0.0000000000000000e+00  8.5949435680298563e-04 9.4188266339881605e-03 0.0000000000000000e+00  8.7710401951503951e-04 9.4671970320255750e-03 0.0000000000000000e+00  8.9331311460187635e-04 9.7186563852825272e-03 0.0000000000000000e+00  8.9961164613375536e-04 9.7447896502356642e-03 0.0000000000000000e+00  8.8568306637121187e-04 9.6831327218198666e-03 0.0000000000000000e+00  8.7667260886304266e-04 9.6392589979054973e-03 0.0000000000000000e+00  8.6479379624643509e-04 9.5889946153861118e-03 0.0000000000000000e+00  8.4793348196700747e-04 9.5329392264914322e-03 0.0000000000000000e+00  8.4711654804763990e-04 9.4826697824198936e-03 0.0000000000000000e+00  8.4576798079007381e-04 9.4508182403762395e-03 0.0000000000000000e+00  8.4443959947582087e-04 9.4219839492201661e-03 0.0000000000000000e+00  8.4054129792532199e-04 9.3952212912285244e-03 0.0000000000000000e+00  8.2984810282877533e-04 9.3737950375834163e-03 0.0000000000000000e+00  8.2292221980707241e-04 9.3583626227588031e-03 0.0000000000000000e+00  8.1938402227785050e-04 9.3479914335816844e-03 0.0000000000000000e+00  8.1650155975108963e-04 9.3438546307759284e-03 0.0000000000000000e+00  8.1543927186286647e-04 9.3484325675129674e-03 0.0000000000000000e+00  8.1662408684074787e-04 9.3587833387923109e-03 0.0000000000000000e+00  8.1938313538952655e-04 9.3774982301358251e-03 0.0000000000000000e+00  8.2238192056301499e-04 9.4031088710631438e-03 0.0000000000000000e+00  8.3689812799045025e-04 9.4530558043831106e-03 0.0000000000000000e+00  8.5049263693724665e-04 9.5101156041454311e-03 0.0000000000000000e+00  9.4815603256732223e-04 9.7229337475041380e-03 0.0000000000000000e+00  9.4005646422438071e-04 9.6877448559817038e-03 0.0000000000000000e+00  9.3142714464770676e-04 9.6430730308752714e-03 0.0000000000000000e+00  9.2202988900617867e-04 9.5929241358988591e-03 0.0000000000000000e+00  9.1533749762457166e-04 9.5330906485296945e-03 0.0000000000000000e+00  9.0233399680330186e-04 9.4800618053130208e-03 0.0000000000000000e+00  8.9283865667962449e-04 9.4476491447363763e-03 0.0000000000000000e+00  8.7471192494077536e-04 9.4223060285482871e-03 0.0000000000000000e+00  8.7634904715867704e-04 9.4319712964437696e-03 0.0000000000000000e+00  8.6376614866689311e-04 9.4210459218160500e-03 0.0000000000000000e+00  8.4880885697139234e-04 9.4015691206188086e-03 0.0000000000000000e+00  8.2972152705403654e-04 9.3492845000279646e-03 0.0000000000000000e+00  8.1473648404146830e-04 9.3452971588927382e-03 0.0000000000000000e+00  8.0535422844150951e-04 9.3490451076420882e-03 0.0000000000000000e+00  8.0245225005843234e-04 9.3590584094030600e-03 0.0000000000000000e+00  8.0108257185557727e-04 9.3771978722361066e-03 0.0000000000000000e+00  8.0210059133248009e-04 9.4035906191632501e-03 0.0000000000000000e+00  8.0576574639498494e-04 9.4408613058629201e-03 0.0000000000000000e+00  8.0942064273863330e-04 9.4900786896405988e-03 0.0000000000000000e+00  8.1749579327963795e-04 9.5698621597386964e-03 0.0000000000000000e+00  9.9928791879952991e-04 9.6944187715364959e-03 0.0000000000000000e+00  1.0039789729933617e-03 9.7301962657233131e-03 0.0000000000000000e+00  9.9461923634833736e-04 9.6461673651754426e-03 0.0000000000000000e+00  9.9252001915805296e-04 9.5907233404090211e-03 0.0000000000000000e+00  9.9132278577324573e-04 9.5315248541736307e-03 0.0000000000000000e+00  9.8721941757833921e-04 9.4721917898957595e-03 0.0000000000000000e+00  9.6809678290544078e-04 9.4736957783243675e-03 0.0000000000000000e+00  9.3893771300154055e-04 9.4739409301714417e-03 0.0000000000000000e+00  9.1106068882410810e-04 9.4771479360424918e-03 0.0000000000000000e+00  8.8908728380870635e-04 9.4740598459743877e-03 0.0000000000000000e+00  8.6752942704839157e-04 9.4598720855445725e-03 0.0000000000000000e+00  8.4516958518879466e-04 9.4313495450214363e-03 0.0000000000000000e+00  8.2034447812167710e-04 9.4189792552859392e-03 0.0000000000000000e+00  8.0235908383857757e-04 9.4078074271807133e-03 0.0000000000000000e+00  7.8456603408647333e-04 9.3605922338286691e-03 0.0000000000000000e+00  7.7467942040463473e-04 9.3779558261286224e-03 0.0000000000000000e+00  7.7108358901237890e-04 9.4039269983721870e-03 0.0000000000000000e+00  7.7052775247674868e-04 9.4404867777049348e-03 0.0000000000000000e+00  7.7243164073307127e-04 9.4913008484548353e-03 0.0000000000000000e+00  7.7462946464740420e-04 9.5522346646045083e-03 0.0000000000000000e+00  7.7462932569381132e-04 9.6486390123996964e-03 0.0000000000000000e+00  1.0558776488948985e-03 9.6964541897303219e-03 0.0000000000000000e+00  1.0544585281937679e-03 9.6451366225022341e-03 0.0000000000000000e+00  1.0538565028276219e-03 9.5903352671902250e-03 0.0000000000000000e+00  1.0533431569301605e-03 9.5313042077949314e-03 0.0000000000000000e+00  1.0531827285050492e-03 9.4708522306992428e-03 0.0000000000000000e+00  1.0131479522874091e-03 9.5168542178350954e-03 0.0000000000000000e+00  9.7070600022080157e-04 9.5316683417245498e-03 0.0000000000000000e+00  9.3268700932234863e-04 9.5378146613022286e-03 0.0000000000000000e+00  9.0044419167216254e-04 9.5363429059998860e-03 0.0000000000000000e+00  8.7192337478235102e-04 9.5270040093467876e-03 0.0000000000000000e+00  8.4441098564093289e-04 9.5099343963793229e-03 0.0000000000000000e+00  8.1681767509017913e-04 9.4974679212110821e-03 0.0000000000000000e+00  7.9312413518813952e-04 9.4830514829292740e-03 0.0000000000000000e+00  7.7142906855735772e-04 9.4564045649457220e-03 0.0000000000000000e+00  7.4837839356584155e-04 9.4483946143112067e-03 0.0000000000000000e+00  7.2751968159566851e-04 9.4051028987161747e-03 0.0000000000000000e+00  7.2254190819365878e-04 9.4414767793636958e-03 0.0000000000000000e+00  7.1971016790480045e-04 9.4914483941518860e-03 0.0000000000000000e+00  7.2051934182859004e-04 9.5538738382872253e-03 0.0000000000000000e+00  7.2423495083299516e-04 9.6313866498087611e-03 0.0000000000000000e+00  7.1754689181981191e-04 9.7554119853559742e-03 0.0000000000000000e+00  1.1104631493075974e-03 9.6448392600084112e-03 0.0000000000000000e+00  1.1101968786142473e-03 9.5903243498523440e-03 0.0000000000000000e+00  1.1105099000719807e-03 9.5328646177366572e-03 0.0000000000000000e+00  1.0695708498609068e-03 9.5432261634585559e-03 0.0000000000000000e+00  1.0163451611932184e-03 9.5781917753372976e-03 0.0000000000000000e+00  9.7231473120805640e-04 9.5976130006082249e-03 0.0000000000000000e+00  9.3188957771387824e-04 9.6058936148081687e-03 0.0000000000000000e+00  8.9543283940239605e-04 9.6063541071714081e-03 0.0000000000000000e+00  8.6213683601294865e-04 9.6004546225235115e-03 0.0000000000000000e+00  8.3060624360747773e-04 9.5896395472802702e-03 0.0000000000000000e+00  8.0014702699952140e-04 9.5789955881613025e-03 0.0000000000000000e+00  7.7214317289268789e-04 9.5659713363333357e-03 0.0000000000000000e+00  7.4570241595870845e-04 9.5482372817115805e-03 0.0000000000000000e+00  7.1947664031270036e-04 9.5363458843540708e-03 0.0000000000000000e+00  6.9542972115341933e-04 9.5143750095952745e-03 0.0000000000000000e+00  6.7122241234542632e-04 9.5180663791458384e-03 0.0000000000000000e+00  6.5308630607935933e-04 9.4912019762916772e-03 0.0000000000000000e+00  6.5146839415588262e-04 9.5544037289873335e-03 0.0000000000000000e+00  6.5205699554134221e-04 9.6319639435486718e-03 0.0000000000000000e+00  6.5624625680643926e-04 9.7463104811523257e-03 0.0000000000000000e+00  6.5797605596275429e-04 9.8787226545289635e-03 0.0000000000000000e+00  1.1629735572807991e-03 9.5911479142217933e-03 0.0000000000000000e+00  1.1167314310092948e-03 9.5997699990817472e-03 0.0000000000000000e+00  1.0584774639788301e-03 9.6213653585043527e-03 0.0000000000000000e+00  1.0038355305138432e-03 9.6502412552546737e-03 0.0000000000000000e+00  9.5685848795562544e-04 9.6684886834759766e-03 0.0000000000000000e+00  9.1464345735658720e-04 9.6782679215125511e-03 0.0000000000000000e+00  8.7573489275910273e-04 9.6809825978796185e-03 0.0000000000000000e+00  8.3935098299926054e-04 9.6782298603336845e-03 0.0000000000000000e+00  8.0469827960431459e-04 9.6716024577740145e-03 0.0000000000000000e+00  7.7135214252039002e-04 9.6635417002306698e-03 0.0000000000000000e+00  7.3963432983026258e-04 9.6533547819586101e-03 0.0000000000000000e+00  7.0898312249979096e-04 9.6409998199431229e-03 0.0000000000000000e+00  6.7879267487940367e-04 9.6305223127837562e-03 0.0000000000000000e+00  6.4960572215383970e-04 9.6175900267662252e-03 0.0000000000000000e+00  6.2056304310143993e-04 9.6141641393623894e-03 0.0000000000000000e+00  5.9455109040967163e-04 9.6009035061607722e-03 0.0000000000000000e+00  5.6502423565960914e-04 9.5951597833194274e-03 0.0000000000000000e+00  5.4600337898931637e-04 9.6340375286433372e-03 0.0000000000000000e+00  5.4387437868004475e-04 9.7465292628714419e-03 0.0000000000000000e+00  5.4561877156156593e-04 9.8836347059959133e-03 0.0000000000000000e+00  5.4781132189110865e-04 1.0030833779608752e-02 0.0000000000000000e+00  1.0906065750948199e-03 9.6786019649260126e-03 0.0000000000000000e+00  1.0301654631951619e-03 9.7028635832613758e-03 0.0000000000000000e+00  9.7542432527604960e-04 9.7267443410410763e-03 0.0000000000000000e+00  9.2738801135297565e-04 9.7437087887730246e-03 0.0000000000000000e+00  8.8377397968157677e-04 9.7542111775655513e-03 0.0000000000000000e+00  8.4319506075727284e-04 9.7590021749981385e-03 0.0000000000000000e+00  8.0470974865730468e-04 9.7591616344769611e-03 0.0000000000000000e+00  7.6767220175467238e-04 9.7559758310351019e-03 0.0000000000000000e+00  7.3171850272762745e-04 9.7508677110954775e-03 0.0000000000000000e+00  6.9676065114548588e-04 9.7439827080101332e-03 0.0000000000000000e+00  6.6235392302030067e-04 9.7359063979113817e-03 0.0000000000000000e+00  6.2807359385062746e-04 9.7285494945904376e-03 0.0000000000000000e+00  5.9386573703030024e-04 9.7211814642840164e-03 0.0000000000000000e+00  5.5917895280245273e-04 9.7181829442926446e-03 0.0000000000000000e+00  5.2438244291966860e-04 9.7135560441209759e-03 0.0000000000000000e+00  4.8629353598394435e-04 9.7164913952349340e-03 0.0000000000000000e+00  4.4681257893460630e-04 9.7375218899607447e-03 0.0000000000000000e+00  4.0704893580073380e-04 9.7471918822207067e-03 0.0000000000000000e+00  4.0681713072735387e-04 9.8845336758387487e-03 0.0000000000000000e+00  4.0820342315761045e-04 1.0033081960014203e-02 0.0000000000000000e+00  4.1044512193696997e-04 1.0191054456450568e-02 0.0000000000000000e+00  9.8469552219609892e-04 9.7843882808364164e-03 0.0000000000000000e+00  9.3244969414477033e-04 9.8054462515650229e-03 0.0000000000000000e+00  8.8498652027886712e-04 9.8216094038010519e-03 0.0000000000000000e+00  8.4100793494289649e-04 9.8328929596673258e-03 0.0000000000000000e+00  7.9946827814778368e-04 9.8396343648585669e-03 0.0000000000000000e+00  7.5957145891731995e-04 9.8425387621698338e-03 0.0000000000000000e+00  7.2074479961980315e-04 9.8425324016656983e-03 0.0000000000000000e+00  6.8262079190405632e-04 9.8405834204558194e-03 0.0000000000000000e+00  6.4495188237855092e-04 9.8371767920859103e-03 0.0000000000000000e+00  6.0734532852417739e-04 9.8330505036377126e-03 0.0000000000000000e+00  5.6941845605369224e-04 9.8294004523708130e-03 0.0000000000000000e+00  5.3089307879118468e-04 9.8266181426386271e-03 0.0000000000000000e+00  4.9128487851511356e-04 9.8267320734852885e-03 0.0000000000000000e+00  4.5028093207638993e-04 9.8285125996767121e-03 0.0000000000000000e+00  4.0642151693114293e-04 9.8367310007689730e-03 0.0000000000000000e+00  3.6036716316007898e-04 9.8544456647211218e-03 0.0000000000000000e+00  3.1254711047792974e-04 9.8700900068499197e-03 0.0000000000000000e+00  2.5728891505025263e-04 9.8848551049278352e-03 0.0000000000000000e+00  2.5746544397252017e-04 1.0034056868119898e-02 0.0000000000000000e+00  2.5930864201419049e-04 1.0193015013045712e-02 0.0000000000000000e+00  2.6295529419838396e-04 1.0365951478815057e-02 0.0000000000000000e+00  8.7756103866765914e-04 9.8844830160683596e-03 0.0000000000000000e+00  8.3157911398899439e-04 9.9008580825513236e-03 0.0000000000000000e+00  7.8796772700073423e-04 9.9133632821594066e-03 0.0000000000000000e+00  7.4607677472433116e-04 9.9221854539255760e-03 0.0000000000000000e+00  7.0531952022530819e-04 9.9278079526518952e-03 0.0000000000000000e+00  6.6522180367206175e-04 9.9309122231649657e-03 0.0000000000000000e+00  6.2542552489714852e-04 9.9322369400599922e-03 0.0000000000000000e+00  5.8563109102416193e-04 9.9323779474221659e-03 0.0000000000000000e+00  5.4548321150383640e-04 9.9320867942365408e-03 0.0000000000000000e+00  5.0463084140723821e-04 9.9323035449733858e-03 0.0000000000000000e+