<?xml version="1.0"?>
<VTKFile type="UnstructuredGrid"  version="0.1"  >
<UnstructuredGrid>
<Piece  NumberOfPoints="629" NumberOfCells="1162">
<Points>
<DataArray  type="Float64"  NumberOfComponents="3"  format="ascii">0.7104347826086956 0 0  0.7269565217391304 0 0  0.7269565217391304 0.01666666666666667 0  0.7104347826086956 0.01666666666666667 0  0.7434782608695653 0 0  0.7434782608695653 0.01666666666666667 0  0.7599999999999999 0 0  0.7599999999999999 0.01666666666666667 0  0.7765217391304348 0 0  0.7765217391304348 0.01666666666666667 0  0.7930434782608695 0 0  0.7930434782608695 0.01666666666666667 0  0.8095652173913043 0 0  0.8095652173913043 0.01666666666666667 0  0.8260869565217391 0 0  0.8260869565217391 0.01666666666666667 0  0.8426086956521739 0 0  0.8426086956521739 0.01666666666666667 0  0.8591304347826086 0 0  0.8591304347826086 0.01666666666666667 0  0.8756521739130434 0 0  0.8756521739130434 0.01666666666666667 0  0.8921739130434783 0 0  0.8921739130434783 0.01666666666666667 0  0.908695652173913 0 0  0.908695652173913 0.01666666666666667 0  0.9252173913043478 0 0  0.9252173913043478 0.01666666666666667 0  0.9417391304347826 0 0  0.9417391304347826 0.01666666666666667 0  0.9582608695652173 0 0  0.9582608695652173 0.01666666666666667 0  0.9747826086956521 0 0  0.9747826086956521 0.01666666666666667 0  0.991304347826087 0 0  0.991304347826087 0.01666666666666667 0  1.007826086956522 0 0  1.007826086956522 0.01666666666666667 0  1.024347826086957 0 0  1.024347826086957 0.01666666666666667 0  0.7269565217391304 0.03333333333333333 0  0.7104347826086956 0.03333333333333333 0  0.7434782608695653 0.03333333333333333 0  0.7599999999999999 0.03333333333333333 0  0.7765217391304348 0.03333333333333333 0  0.7930434782608695 0.03333333333333333 0  0.8095652173913043 0.03333333333333333 0  0.8260869565217391 0.03333333333333333 0  0.8426086956521739 0.03333333333333333 0  0.8591304347826086 0.03333333333333333 0  0.8756521739130434 0.03333333333333333 0  0.8921739130434783 0.03333333333333333 0  0.908695652173913 0.03333333333333333 0  0.9252173913043478 0.03333333333333333 0  0.9417391304347826 0.03333333333333333 0  0.9582608695652173 0.03333333333333333 0  0.9747826086956521 0.03333333333333333 0  0.991304347826087 0.03333333333333333 0  1.007826086956522 0.03333333333333333 0  1.024347826086957 0.03333333333333333 0  1.040869565217391 0.03333333333333333 0  0.7269565217391304 0.05 0  0.7434782608695653 0.05 0  0.7599999999999999 0.05 0  0.7765217391304348 0.05 0  0.7930434782608695 0.05 0  0.8095652173913043 0.05 0  0.8260869565217391 0.05 0  0.8426086956521739 0.05 0  0.8591304347826086 0.05 0  0.8756521739130434 0.05 0  0.8921739130434783 0.05 0  0.908695652173913 0.05 0  0.9252173913043478 0.05 0  0.9417391304347826 0.05 0  0.9582608695652173 0.05 0  0.9747826086956521 0.05 0  0.991304347826087 0.05 0  1.007826086956522 0.05 0  1.024347826086957 0.05 0  1.040869565217391 0.05 0  1.057391304347826 0.05 0  0.7434782608695653 0.06666666666666667 0  0.7599999999999999 0.06666666666666667 0  0.7765217391304348 0.06666666666666667 0  0.7930434782608695 0.06666666666666667 0  0.8095652173913043 0.06666666666666667 0  0.8260869565217391 0.06666666666666667 0  0.8426086956521739 0.06666666666666667 0  0.8591304347826086 0.06666666666666667 0  0.8756521739130434 0.06666666666666667 0  0.8921739130434783 0.06666666666666667 0  0.908695652173913 0.06666666666666667 0  0.9252173913043478 0.06666666666666667 0  0.9417391304347826 0.06666666666666667 0  0.9582608695652173 0.06666666666666667 0  0.9747826086956521 0.06666666666666667 0  0.991304347826087 0.06666666666666667 0  1.007826086956522 0.06666666666666667 0  1.024347826086957 0.06666666666666667 0  1.040869565217391 0.06666666666666667 0  1.057391304347826 0.06666666666666667 0  1.073913043478261 0.06666666666666667 0  0.7599999999999999 0.08333333333333333 0  0.7765217391304348 0.08333333333333333 0  0.7930434782608695 0.08333333333333333 0  0.8095652173913043 0.08333333333333333 0  0.8260869565217391 0.08333333333333333 0  0.8426086956521739 0.08333333333333333 0  0.8591304347826086 0.08333333333333333 0  0.8756521739130434 0.08333333333333333 0  0.8921739130434783 0.08333333333333333 0  0.908695652173913 0.08333333333333333 0  0.9252173913043478 0.08333333333333333 0  0.9417391304347826 0.08333333333333333 0  0.9582608695652173 0.08333333333333333 0  0.9747826086956521 0.08333333333333333 0  0.991304347826087 0.08333333333333333 0  1.007826086956522 0.08333333333333333 0  1.024347826086957 0.08333333333333333 0  1.040869565217391 0.08333333333333333 0  1.057391304347826 0.08333333333333333 0  1.073913043478261 0.08333333333333333 0  1.090434782608696 0.08333333333333333 0  0.7765217391304348 0.1 0  0.7930434782608695 0.1 0  0.8095652173913043 0.1 0  0.8260869565217391 0.1 0  0.8426086956521739 0.1 0  0.8591304347826086 0.1 0  0.8756521739130434 0.1 0  0.8921739130434783 0.1 0  0.908695652173913 0.1 0  0.9252173913043478 0.1 0  0.9417391304347826 0.1 0  0.9582608695652173 0.1 0  0.9747826086956521 0.1 0  0.991304347826087 0.1 0  1.007826086956522 0.1 0  1.024347826086957 0.1 0  1.040869565217391 0.1 0  1.057391304347826 0.1 0  1.073913043478261 0.1 0  1.090434782608696 0.1 0  1.10695652173913 0.1 0  0.7930434782608695 0.1166666666666667 0  0.8095652173913043 0.1166666666666667 0  0.8260869565217391 0.1166666666666667 0  0.8426086956521739 0.1166666666666667 0  0.8591304347826086 0.1166666666666667 0  0.8756521739130434 0.1166666666666667 0  0.8921739130434783 0.1166666666666667 0  0.908695652173913 0.1166666666666667 0  0.9252173913043478 0.1166666666666667 0  0.9417391304347826 0.1166666666666667 0  0.9582608695652173 0.1166666666666667 0  0.9747826086956521 0.1166666666666667 0  0.991304347826087 0.1166666666666667 0  1.007826086956522 0.1166666666666667 0  1.024347826086957 0.1166666666666667 0  1.040869565217391 0.1166666666666667 0  1.057391304347826 0.1166666666666667 0  1.073913043478261 0.1166666666666667 0  1.090434782608696 0.1166666666666667 0  1.10695652173913 0.1166666666666667 0  1.123478260869565 0.1166666666666667 0  0.8095652173913043 0.1333333333333333 0  0.8260869565217391 0.1333333333333333 0  0.8426086956521739 0.1333333333333333 0  0.8591304347826086 0.1333333333333333 0  0.8756521739130434 0.1333333333333333 0  0.8921739130434783 0.1333333333333333 0  0.908695652173913 0.1333333333333333 0  0.9252173913043478 0.1333333333333333 0  0.9417391304347826 0.1333333333333333 0  0.9582608695652173 0.1333333333333333 0  0.9747826086956521 0.1333333333333333 0  0.991304347826087 0.1333333333333333 0  1.007826086956522 0.1333333333333333 0  1.024347826086957 0.1333333333333333 0  1.040869565217391 0.1333333333333333 0  1.057391304347826 0.1333333333333333 0  1.073913043478261 0.1333333333333333 0  1.090434782608696 0.1333333333333333 0  1.10695652173913 0.1333333333333333 0  1.123478260869565 0.1333333333333333 0  1.14 0.1333333333333333 0  0.8260869565217391 0.15 0  0.8426086956521739 0.15 0  0.8591304347826086 0.15 0  0.8756521739130434 0.15 0  0.8921739130434783 0.15 0  0.908695652173913 0.15 0  0.9252173913043478 0.15 0  0.9417391304347826 0.15 0  0.9582608695652173 0.15 0  0.9747826086956521 0.15 0  0.991304347826087 0.15 0  1.007826086956522 0.15 0  1.024347826086957 0.15 0  1.040869565217391 0.15 0  1.057391304347826 0.15 0  1.073913043478261 0.15 0  1.090434782608696 0.15 0  1.10695652173913 0.15 0  1.123478260869565 0.15 0  1.14 0.15 0  1.156521739130435 0.15 0  0.8426086956521739 0.1666666666666667 0  0.8591304347826086 0.1666666666666667 0  0.8756521739130434 0.1666666666666667 0  0.8921739130434783 0.1666666666666667 0  0.908695652173913 0.1666666666666667 0  0.9252173913043478 0.1666666666666667 0  0.9417391304347826 0.1666666666666667 0  0.9582608695652173 0.1666666666666667 0  0.9747826086956521 0.1666666666666667 0  0.991304347826087 0.1666666666666667 0  1.007826086956522 0.1666666666666667 0  1.024347826086957 0.1666666666666667 0  1.040869565217391 0.1666666666666667 0  1.057391304347826 0.1666666666666667 0  1.073913043478261 0.1666666666666667 0  1.090434782608696 0.1666666666666667 0  1.10695652173913 0.1666666666666667 0  1.123478260869565 0.1666666666666667 0  1.14 0.1666666666666667 0  1.156521739130435 0.1666666666666667 0  1.17304347826087 0.1666666666666667 0  0.8591304347826086 0.1833333333333333 0  0.8756521739130434 0.1833333333333333 0  0.8921739130434783 0.1833333333333333 0  0.908695652173913 0.1833333333333333 0  0.9252173913043478 0.1833333333333333 0  0.9417391304347826 0.1833333333333333 0  0.9582608695652173 0.1833333333333333 0  0.9747826086956521 0.1833333333333333 0  0.991304347826087 0.1833333333333333 0  1.007826086956522 0.1833333333333333 0  1.024347826086957 0.1833333333333333 0  1.040869565217391 0.1833333333333333 0  1.057391304347826 0.1833333333333333 0  1.073913043478261 0.1833333333333333 0  1.090434782608696 0.1833333333333333 0  1.10695652173913 0.1833333333333333 0  1.123478260869565 0.1833333333333333 0  1.14 0.1833333333333333 0  1.156521739130435 0.1833333333333333 0  1.17304347826087 0.1833333333333333 0  1.189565217391304 0.1833333333333333 0  0.8756521739130434 0.2 0  0.8921739130434783 0.2 0  0.908695652173913 0.2 0  0.9252173913043478 0.2 0  0.9417391304347826 0.2 0  0.9582608695652173 0.2 0  0.9747826086956521 0.2 0  0.991304347826087 0.2 0  1.007826086956522 0.2 0  1.024347826086957 0.2 0  1.040869565217391 0.2 0  1.057391304347826 0.2 0  1.073913043478261 0.2 0  1.090434782608696 0.2 0  1.10695652173913 0.2 0  1.123478260869565 0.2 0  1.14 0.2 0  1.156521739130435 0.2 0  1.17304347826087 0.2 0  1.189565217391304 0.2 0  1.206086956521739 0.2 0  0.8921739130434783 0.2166666666666667 0  0.908695652173913 0.2166666666666667 0  0.9252173913043478 0.2166666666666667 0  0.9417391304347826 0.2166666666666667 0  0.9582608695652173 0.2166666666666667 0  0.9747826086956521 0.2166666666666667 0  0.991304347826087 0.2166666666666667 0  1.007826086956522 0.2166666666666667 0  1.02434782608
[...]
<PointData  Vectors="Displacement"> 
<DataArray  type="Float64"  Name="Displacement"  NumberOfComponents="3" format="ascii">1.4694179668638124e-04 1.6239175479314421e-03 0.0000000000000000e+00  1.4971235871601892e-04 1.6555756564149552e-03 0.0000000000000000e+00  1.1828287054300871e-04 1.6545320613465834e-03 0.0000000000000000e+00  1.1434587162008529e-04 1.6228200013537091e-03 0.0000000000000000e+00  1.5247335048687761e-04 1.6862370530121413e-03 0.0000000000000000e+00  1.2191674059248517e-04 1.6852043340091249e-03 0.0000000000000000e+00  1.5525632573501296e-04 1.7160957364818657e-03 0.0000000000000000e+00  1.2543541344166789e-04 1.7150607499809101e-03 0.0000000000000000e+00  1.5806927856912577e-04 1.7452790815454314e-03 0.0000000000000000e+00  1.2890030789790302e-04 1.7442395074467097e-03 0.0000000000000000e+00  1.6090805645542841e-04 1.7738578297079130e-03 0.0000000000000000e+00  1.3234106349781135e-04 1.7728136171047638e-03 0.0000000000000000e+00  1.6376950047800444e-04 1.8018589749236023e-03 0.0000000000000000e+00  1.3578053355369377e-04 1.8008092309763151e-03 0.0000000000000000e+00  1.6665666677509686e-04 1.8292890498662472e-03 0.0000000000000000e+00  1.3923488568848741e-04 1.8282304859007111e-03 0.0000000000000000e+00  1.6957461324515637e-04 1.8561535257878095e-03 0.0000000000000000e+00  1.4271549613962297e-04 1.8550845956040989e-03 0.0000000000000000e+00  1.7252447915920921e-04 1.8824573386121027e-03 0.0000000000000000e+00  1.4622531123705573e-04 1.8813817125649189e-03 0.0000000000000000e+00  1.7550277302569076e-04 1.9082095460785234e-03 0.0000000000000000e+00  1.4974896904181180e-04 1.9071335794805550e-03 0.0000000000000000e+00  1.7850466110564544e-04 1.9334381716724783e-03 0.0000000000000000e+00  1.5325718003246838e-04 1.9323661430244157e-03 0.0000000000000000e+00  1.8152745906965193e-04 1.9581942963842664e-03 0.0000000000000000e+00  1.5672651604136618e-04 1.9571263687921539e-03 0.0000000000000000e+00  1.8457129896125990e-04 1.9825408155055829e-03 0.0000000000000000e+00  1.6015188528055400e-04 1.9814751761105098e-03 0.0000000000000000e+00  1.8763758119563632e-04 2.0065398256478239e-03 0.0000000000000000e+00  1.6353973877788580e-04 2.0054747003615580e-03 0.0000000000000000e+00  1.9072768863915749e-04 2.0302471411120242e-03 0.0000000000000000e+00  1.6689856043042251e-04 2.0291812670280929e-03 0.0000000000000000e+00  1.9384259400001465e-04 2.0537119448976581e-03 0.0000000000000000e+00  1.7023528939424834e-04 2.0526445788174854e-03 0.0000000000000000e+00  1.9698279997045441e-04 2.0769782853768660e-03 0.0000000000000000e+00  1.7355452142301970e-04 2.0759092628413753e-03 0.0000000000000000e+00  2.0014832044337147e-04 2.1000873481701815e-03 0.0000000000000000e+00  1.7685795920994250e-04 2.0990170528111616e-03 0.0000000000000000e+00  2.0333889817964685e-04 2.1230803781471241e-03 0.0000000000000000e+00  1.8014429239040014e-04 2.1220091372088756e-03 0.0000000000000000e+00  8.6297626540450846e-05 1.6532209525378530e-03 0.0000000000000000e+00  8.1031811425126828e-05 1.6213971313747766e-03 0.0000000000000000e+00  9.1042573816823335e-05 1.6839918146915997e-03 0.0000000000000000e+00  9.5467558223739381e-05 1.7138841389119734e-03 0.0000000000000000e+00  9.9537096206505198e-05 1.7430812112190738e-03 0.0000000000000000e+00  1.0347143447284049e-04 1.7716653255824496e-03 0.0000000000000000e+00  1.0744386086976856e-04 1.7996641570313186e-03 0.0000000000000000e+00  1.1150698328666376e-04 1.8270812152751668e-03 0.0000000000000000e+00  1.1560208367376647e-04 1.8539260664227981e-03 0.0000000000000000e+00  1.1969149014984481e-04 1.8802131896040490e-03 0.0000000000000000e+00  1.2377024345919881e-04 1.9059603737242748e-03 0.0000000000000000e+00  1.2780434117199026e-04 1.9311980507887366e-03 0.0000000000000000e+00  1.3175181838625535e-04 1.9559711956203315e-03 0.0000000000000000e+00  1.3559330405854911e-04 1.9803346285154856e-03 0.0000000000000000e+00  1.3933307989116969e-04 2.0043466582236819e-03 0.0000000000000000e+00  1.4298575215092955e-04 2.0280629282311466e-03 0.0000000000000000e+00  1.4656613330940417e-04 2.0515336376440776e-03 0.0000000000000000e+00  1.5008487905062578e-04 2.0748041812656270e-03 0.0000000000000000e+00  1.5354673809018447e-04 2.0979172549716956e-03 0.0000000000000000e+00  1.5695039283133270e-04 2.1209150565460310e-03 0.0000000000000000e+00  1.6029183190393155e-04 2.1438400848831571e-03 0.0000000000000000e+00  6.0471448359332840e-05 1.6304102163174933e-03 0.0000000000000000e+00  6.8060250554087767e-05 1.6607372827397652e-03 0.0000000000000000e+00  7.5383072056699874e-05 1.6903577254343541e-03 0.0000000000000000e+00  8.2463896849461124e-05 1.7194320405571858e-03 0.0000000000000000e+00  8.9352079729854535e-05 1.7480061025033798e-03 0.0000000000000000e+00  9.6099082873406748e-05 1.7761221935409070e-03 0.0000000000000000e+00  1.0272528205277887e-04 1.8038138247448081e-03 0.0000000000000000e+00  1.0921835501630612e-04 1.8311046069788128e-03 0.0000000000000000e+00  1.1555536809031845e-04 1.8579971920622219e-03 0.0000000000000000e+00  1.2171639291905634e-04 1.8844948005062108e-03 0.0000000000000000e+00  1.2768208976248052e-04 1.9106180667233191e-03 0.0000000000000000e+00  1.3343496761157898e-04 1.9363959020241728e-03 0.0000000000000000e+00  1.3896571286163532e-04 1.9618614598947166e-03 0.0000000000000000e+00  1.4427542882361632e-04 1.9870528669626033e-03 0.0000000000000000e+00  1.4937251944769771e-04 2.0120116766455427e-03 0.0000000000000000e+00  1.5426786574254884e-04 2.0367798728694957e-03 0.0000000000000000e+00  1.5897120331143867e-04 2.0613981997380433e-03 0.0000000000000000e+00  1.6348942208418553e-04 2.0859060551633919e-03 0.0000000000000000e+00  1.6782663588737147e-04 2.1103417276424870e-03 0.0000000000000000e+00  1.7198587886613811e-04 2.1347416368076803e-03 0.0000000000000000e+00  1.7597177915557659e-04 2.1591383414918900e-03 0.0000000000000000e+00  4.6694259042272208e-05 1.6359446571807476e-03 0.0000000000000000e+00  5.6477028065434296e-05 1.6652015306871596e-03 0.0000000000000000e+00  6.6074051382472798e-05 1.6941049430122201e-03 0.0000000000000000e+00  7.5461898042137563e-05 1.7227037135415675e-03 0.0000000000000000e+00  8.4619398014855270e-05 1.7510292939079885e-03 0.0000000000000000e+00  9.3526332031699429e-05 1.7791049120115174e-03 0.0000000000000000e+00  1.0216143970807469e-04 1.8069417434494375e-03 0.0000000000000000e+00  1.1050440768908536e-04 1.8345342180237363e-03 0.0000000000000000e+00  1.1853695696935110e-04 1.8618739972946449e-03 0.0000000000000000e+00  1.2624501147250666e-04 1.8889636320350914e-03 0.0000000000000000e+00  1.3362070225995961e-04 1.9158147434004276e-03 0.0000000000000000e+00  1.4066228438402379e-04 1.9424450934486929e-03 0.0000000000000000e+00  1.4737339412917327e-04 1.9688787119130770e-03 0.0000000000000000e+00  1.5376163360125572e-04 1.9951453208310759e-03 0.0000000000000000e+00  1.5983641720337567e-04 2.0212782211956270e-03 0.0000000000000000e+00  1.6560683527369290e-04 2.0473121276887562e-03 0.0000000000000000e+00  1.7108033967906233e-04 2.0732817282903466e-03 0.0000000000000000e+00  1.7626251383506068e-04 2.0992206150753862e-03 0.0000000000000000e+00  1.8115768987647315e-04 2.1251599327151748e-03 0.0000000000000000e+00  1.8576980643598436e-04 2.1511267637897278e-03 0.0000000000000000e+00  1.9010280409335651e-04 2.1771432126578643e-03 0.0000000000000000e+00  3.8703313670531401e-05 1.6386189140907780e-03 0.0000000000000000e+00  5.0452318358666331e-05 1.6673185066265362e-03 0.0000000000000000e+00  6.1984415091441533e-05 1.6959556428613534e-03 0.0000000000000000e+00  7.3230016918748834e-05 1.7245431775149444e-03 0.0000000000000000e+00  8.4134194641987916e-05 1.7530793068947599e-03 0.0000000000000000e+00  9.4656802413574221e-05 1.7815497928987340e-03 0.0000000000000000e+00  1.0477044823402011e-04 1.8099297068587697e-03 0.0000000000000000e+00  1.1445721166850382e-04 1.8381935267106652e-03 0.0000000000000000e+00  1.2370723454740179e-04 1.8663246664583940e-03 0.0000000000000000e+00  1.3251823987038127e-04 1.8943170990648472e-03 0.0000000000000000e+00  1.4089376105763543e-04 1.9221744222963719e-03 0.0000000000000000e+00  1.4884097878610470e-04 1.9499091437673265e-03 0.0000000000000000e+00  1.5636898366994310e-04 1.9775414529159515e-03 0.0000000000000000e+00  1.6348730784616181e-04 2.0050970986921876e-03 0.0000000000000000e+00  1.7020465323340470e-04 2.0326049944269543e-03 0.0000000000000000e+00  1.7652804592822223e-04 2.0600951044892016e-03 0.0000000000000000e+00  1.8246256384603496e-04 2.0875966620705010e-03 0.0000000000000000e+00  1.8801149324829111e-04 2.1151365396501090e-03 0.0000000000000000e+00  1.9317654997028113e-04 2.1427378646912184e-03 0.0000000000000000e+00  1.9795783533713943e-04 2.1704193193644609e-03 0.0000000000000000e+00  2.0235344142070704e-04 2.1981951575906159e-03 0.0000000000000000e+00  3.5640781249448988e-05 1.6392081501104725e-03 0.0000000000000000e+00  4.9031465561810849e-05 1.6678979938376307e-03 0.0000000000000000e+00  6.2087563164074975e-05 1.6967924780076410e-03 0.0000000000000000e+00  7.4726070808429991e-05 1.7258558792748765e-03 0.0000000000000000e+00  8.6889299792640190e-05 1.7550394658701570e-03 0.0000000000000000e+00  9.8541789140229485e-05 1.7842890139345361e-03 0.0000000000000000e+00  1.0966510530089016e-04 1.8135545982073474e-03 0.0000000000000000e+00  1.2025327862957429e-04 1.8427982009280694e-03 0.0000000000000000e+00  1.3030925410124290e-04 1.8719961050097456e-03 0.0000000000000000e+00  1.3984148730718818e-04 1.9011384713714069e-03 0.0000000000000000e+00  1.4886095253733805e-04 1.9302278054573821e-03 0.0000000000000000e+00  1.5737898458037609e-04 1.9592766743067652e-03 0.0000000000000000e+00  1.6540587765165581e-04 1.9883049152463758e-03 0.0000000000000000e+00  1.7295001013684457e-04 2.0173367642201327e-03 0.0000000000000000e+00  1.8001738771430772e-04 2.0463982581897656e-03 0.0000000000000000e+00  1.8661154282355083e-04 2.0755150454188653e-03 0.0000000000000000e+00  1.9273364472390222e-04 2.1047106125272291e-03 0.0000000000000000e+00  1.9838259708583562e-04 2.1340050130422166e-03 0.0000000000000000e+00  2.0355495060097269e-04 2.1634142605051615e-03 0.0000000000000000e+00  2.0824459920823076e-04 2.1929503166277496e-03 0.0000000000000000e+00  2.1244228892471770e-04 2.2226213809826878e-03 0.0000000000000000e+00  3.6681021934926670e-05 1.6386208324292726e-03 0.0000000000000000e+00  5.1306357596923074e-05 1.6678759544594517e-03 0.0000000000000000e+00  6.5438438139321637e-05 1.6975385331774034e-03 0.0000000000000000e+00  7.9006557899928616e-05 1.7275164545833364e-03 0.0000000000000000e+00  9.1970568536796555e-05 1.7577175314335760e-03 0.0000000000000000e+00  1.0431376748775543e-04 1.7880610763874520e-03 0.0000000000000000e+00  1.1603558503826150e-04 1.8184850215626856e-03 0.0000000000000000e+00  1.2714533841843502e-04 1.8489478869686297e-03 0.0000000000000000e+00  1.3765716880902387e-04 1.8794275074636283e-03 0.0000000000000000e+00  1.4758628279496733e-04 1.9099181239395006e-03 0.0000000000000000e+00  1.5694651581516899e-04 1.9404267138322447e-03 0.0000000000000000e+00  1.6574898862725085e-04 1.9709691396509817e-03 0.0000000000000000e+00  1.7400153257024980e-04 2.0015665428027790e-03 0.0000000000000000e+00  1.8170861291825108e-04 2.0322422408336461e-03 0.0000000000000000e+00  1.8887154265880064e-04 2.0630192369545716e-03 0.0000000000000000e+00  1.9548879648919958e-04 2.0939183694852139e-03 0.0000000000000000e+00  2.0155624835482982e-04 2.1249571253443575e-03 0.0000000000000000e+00  2.0706721867679378e-04 2.1561491219636996e-03 0.0000000000000000e+00  2.1201230914853704e-04 2.1875041212933853e-03 0.0000000000000000e+00  2.1637905099204248e-04 2.2190283321204705e-03 0.0000000000000000e+00  2.2015141723704822e-04 2.2507248226572513e-03 0.0000000000000000e+00  4.0974911026999822e-05 1.6378681702452565e-03 0.0000000000000000e+00  5.6377080131094806e-05 1.6682173977867556e-03 0.0000000000000000e+00  7.1123790077073917e-05 1.6990811490885066e-03 0.0000000000000000e+00  8.5175987763854349e-05 1.7303207240232574e-03 0.0000000000000000e+00  9.8523463019601398e-05 1.7618193038043634e-03 0.0000000000000000e+00  1.1117449220643791e-04 1.7934889190202518e-03 0.0000000000000000e+00  1.2314708878283421e-04 1.8252709837758743e-03 0.0000000000000000e+00  1.3446245294297421e-04 1.8571329793411779e-03 0.0000000000000000e+00  1.4514061268231182e-04 1.8890633875147907e-03 0.0000000000000000e+00  1.5519793796227074e-04 1.9210661689987071e-03 0.0000000000000000e+00  1.6464605951052496e-04 1.9531555369407196e-03 0.0000000000000000e+00  1.7349172486671920e-04 1.9853514284759437e-03 0.0000000000000000e+00  1.8173720703191243e-04 2.0176758452210290e-03 0.0000000000000000e+00  1.8938096698097921e-04 2.0501501018130065e-03 0.0000000000000000e+00  1.9641833565813637e-04 2.0827929527758486e-03 0.0000000000000000e+00  2.0284204128801311e-04 2.1156195324455989e-03 0.0000000000000000e+00  2.0864248220496334e-04 2.1486409965472504e-03 0.0000000000000000e+00  2.1380771989537440e-04 2.1818646682349885e-03 0.0000000000000000e+00  2.1832321273497455e-04 2.2152944372033322e-03 0.0000000000000000e+00  2.2217134292309393e-04 2.2489311827621943e-03 0.0000000000000000e+00  2.2533083945634283e-04 2.2827730005044486e-03 0.0000000000000000e+00  4.7623765110736026e-05 1.6379737837601269e-03 0.0000000000000000e+00  6.3327693698694758e-05 1.6698318238068559e-03 0.0000000000000000e+00  7.8246221629662332e-05 1.7022060861864969e-03 0.0000000000000000e+00  9.2382384086538098e-05 1.7349392430768597e-03 0.0000000000000000e+00  1.0575827482706273e-04 1.7679171102908755e-03 0.0000000000000000e+00  1.1840376204247650e-04 1.8010662370214110e-03 0.0000000000000000e+00  1.3034873988475003e-04 1.8343471625632988e-03 0.0000000000000000e+00  1.4161854576229672e-04 1.8677462660842534e-03 0.0000000000000000e+00  1.5223180733920315e-04 1.9012678655409699e-03 0.0000000000000000e+00  1.6219995278210763e-04 1.9349273457051591e-03 0.0000000000000000e+00  1.7152774376034066e-04 1.9687455963520975e-03 0.0000000000000000e+00  1.8021434999178606e-04 2.0027447877977891e-03 0.0000000000000000e+00  1.8825460788545853e-04 2.0369454149177578e-03 0.0000000000000000e+00  1.9564019708276039e-04 2.0713644876059543e-03 0.0000000000000000e+00  2.0236055248294758e-04 2.1060146979000379e-03 0.0000000000000000e+00  2.0840341282362320e-04 2.1409043476979168e-03 0.0000000000000000e+00  2.1375497698599021e-04 2.1760377743956856e-03 0.0000000000000000e+00  2.1839968391616641e-04 2.2114159900734234e-03 0.0000000000000000e+00  2.2231966418638578e-04 2.2470372598495224e-03 0.0000000000000000e+00  2.2549395071798893e-04 2.2828973480359550e-03 0.0000000000000000e+00  2.2789758184586542e-04 2.3189891615297393e-03 0.0000000000000000e+00  5.5677738690952437e-05 1.6398699895628531e-03 0.0000000000000000e+00  7.1238632285453512e-05 1.6734868308469651e-03 0.0000000000000000e+00  8.5946286007999083e-05 1.7075366458626300e-03 0.0000000000000000e+00  9.9842649330454176e-05 1.7418811774008675e-03 0.0000000000000000e+00  1.1297293844395745e-04 1.7764368115176089e-03 0.0000000000000000e+00  1.2537719402411538e-04 1.8111625936754049e-03 0.0000000000000000e+00  1.3708610140744139e-04 1.8460479389803114e-03 0.0000000000000000e+00  1.4811973109231415e-04 1.8811018555060673e-03 0.0000000000000000e+00  1.5848807231617451e-04 1.9163442579741858e-03 0.0000000000000000e+00  1.6819254846690907e-04 1.9517993695034157e-03 0.0000000000000000e+00  1.7722797010225955e-04 1.9874910034028337e-03 0.0000000000000000e+00  1.8558454080538529e-04 2.0234395172023215e-03 0.0000000000000000e+00  1.9324963328191518e-04 2.0596602094093918e-03 0.0000000000000000e+00  2.0020914961878201e-04 2.0961628733677309e-03 0.0000000000000000e+00  2.0644837191207121e-04 2.1329521848004337e-03 0.0000000000000000e+00  2.1195227872451819e-04 2.1700285895397756e-03 0.0000000000000000e+00  2.1670534259026847e-04 2.2073893662410199e-03 0.0000000000000000e+00  2.2069084816406261e-04 2.2450295506533180e-03 0.0000000000000000e+00  2.2388979853592397e-04 2.2829424049210512e-03 0.0000000000000000e+00  2.2627951857489219e-04 2.3211191079022088e-03 0.0000000000000000e+00  2.2783212980447831e-04 2.3595473639527881e-03 0.0000000000000000e+00  6.4177792346982207e-05 1.6442866626662004e-03 0.0000000000000000e+00  7.9236802076012403e-05 1.6797357281308296e-03 0.0000000000000000e+00  9.3449676457292599e-05 1.7154980221710597e-03 0.0000000000000000e+00  1.0688013451070380e-04 1.7514879393188778e-03 0.0000000000000000e+00  1.1957904475635628e-04 1.7876710856188555e-03 0.0000000000000000e+00  1.3158159947373663e-04 1.8240467681488787e-03 0.0000000000000000e+00  1.4290768729790954e-04 1.8606340183191334e-03 0.0000000000000000e+00  1.5356394881463670e-04 1.8974611238680875e-03 0.0000000000000000e+00  1.6354658910814211e-04 1.9345581508414147e-03 0.0000000000000000e+00  1.7284441317789848e-04 1.9719519045015999e-03 0.0000000000000000e+00  1.8144171397388385e-04 2.0096629834689679e-03 0.0000000000000000e+00  1.8932072844452376e-04 2.0477045953983660e-03 0.0000000000000000e+00  1.9646348179619939e-04 2.0860827177234449e-03 0.0000000000000000e+00  2.0285294579605102e-04 2.1247971604853081e-03 0.0000000000000000e+00  2.0847350568206169e-04 2.1638431250837042e-03 0.0000000000000000e+00  2.1331075764174616e-04 2.2032128992659473e-03 0.0000000000000000e+00  2.1735066570582244e-04 2.2428973496905640e-03 0.0000000000000000e+00  2.2057811652207281e-04 2.2828868600895135e-03 0.0000000000000000e+00  2.2297493890182261e-04 2.3231713300107038e-03 0.0000000000000000e+00  2.2451751809126027e-04 2.3637388227940909e-03 0.0000000000000000e+00  2.2517425857649523e-04 2.4045724491434692e-03 0.0000000000000000e+00  7.2238508416168603e-05 1.6516716282215613e-03 0.0000000000000000e+00  8.6566317352094322e-05 1.6888902132599880e-03 0.0000000000000000e+00  1.0011869303084508e-04 1.7263259182826781e-03 0.0000000000000000e+00  1.1295651939173206e-04 1.7639620317821357e-03 0.0000000000000000e+00  1.2511731765227582e-04 1.8018163756109891e-03 0.0000000000000000e+00  1.3661812386517064e-04 1.8399242094438834e-03 0.0000000000000000e+00  1.4745955490166838e-04 1.8783263488493800e-03 0.0000000000000000e+00  1.5763017223597493e-04 1.9170611767723234e-03 0.0000000000000000e+00  1.6711075260484635e-04 1.9561595586053159e-03 0.0000000000000000e+00  1.7587815736740372e-04 1.9956422622523732e-03 0.0000000000000000e+00  1.8390851473326517e-04 2.0355194831780943e-03 0.0000000000000000e+00  1.9117954976548626e-04 2.0757918950420080e-03 0.0000000000000000e+00  1.9767203086629593e-04 2.1164526377299448e-03 0.0000000000000000e+00  2.0337036890610567e-04 2.1574897688684176e-03 0.0000000000000000e+00  2.0826240861802903e-04 2.1988888074232753e-03 0.0000000000000000e+00  2.1233842911568500e-04 2.2406350321528892e-03 0.0000000000000000e+00  2.1558935289088792e-04 2.2827151680691149e-03 0.0000000000000000e+00  2.1800416807838673e-04 2.3251180242079453e-03 0.0000000000000000e+00  2.1956661012528827e-04 2.3678335602760809e-03 0.0000000000000000e+00  2.2025125783937697e-04 2.4108497600030224e-03 0.0000000000000000e+00  2.2001942710465455e-04 2.4541466203212422e-03 0.0000000000000000e+00  7.9143392928079719e-05 1.6621849533971533e-03 0.0000000000000000e+00  9.2650699704607001e-05 1.7010558498513038e-03 0.0000000000000000e+00  1.0548505082585250e-04 1.7401197211800261e-03 0.0000000000000000e+00  1.1768242036869413e-04 1.7794230223426137e-03 0.0000000000000000e+00  1.2925319243531024e-04 1.8190239548356065e-03 0.0000000000000000e+00  1.4018857416888642e-04 1.8589800214189964e-03 0.0000000000000000e+00  1.5046660705059079e-04 1.8993401351829083e-03 0.0000000000000000e+00  1.6005773732299280e-04 1.9401398186495624e-03 0.0000000000000000e+00  1.6892972276501221e-04 1.9813993137403649e-03 0.0000000000000000e+00  1.7705154689725408e-04 2.0231241961324213e-03 0.0000000000000000e+00  1.8439619225898803e-04 2.0653076668378360e-03 0.0000000000000000e+00  1.9094232179034450e-04 2.1079337380159528e-03 0.0000000000000000e+00  1.9667497942855685e-04 2.1509807904689245e-03 0.0000000000000000e+