<?xml version="1.0"?>
<VTKFile type="UnstructuredGrid"  version="0.1"  >
<UnstructuredGrid>
<Piece  NumberOfPoints="614" NumberOfCells="1122">
<Points>
<DataArray  type="Float64"  NumberOfComponents="3"  format="ascii">2.792173913043478 0.2166666666666667 0  2.792173913043478 0.2333333333333333 0  2.808695652173913 0.2333333333333333 0  2.445217391304348 0.2333333333333333 0  2.461739130434782 0.2333333333333333 0  2.461739130434782 0.25 0  2.445217391304348 0.25 0  2.478260869565217 0.2333333333333333 0  2.478260869565217 0.25 0  2.494782608695652 0.2333333333333333 0  2.494782608695652 0.25 0  2.511304347826087 0.2333333333333333 0  2.511304347826087 0.25 0  2.527826086956522 0.2333333333333333 0  2.527826086956522 0.25 0  2.544347826086956 0.2333333333333333 0  2.544347826086956 0.25 0  2.560869565217391 0.2333333333333333 0  2.560869565217391 0.25 0  2.577391304347826 0.2333333333333333 0  2.577391304347826 0.25 0  2.593913043478261 0.2333333333333333 0  2.593913043478261 0.25 0  2.610434782608696 0.2333333333333333 0  2.610434782608696 0.25 0  2.62695652173913 0.2333333333333333 0  2.62695652173913 0.25 0  2.643478260869565 0.2333333333333333 0  2.643478260869565 0.25 0  2.66 0.2333333333333333 0  2.66 0.25 0  2.676521739130435 0.2333333333333333 0  2.676521739130435 0.25 0  2.693043478260869 0.2333333333333333 0  2.693043478260869 0.25 0  2.709565217391304 0.2333333333333333 0  2.709565217391304 0.25 0  2.726086956521739 0.2333333333333333 0  2.726086956521739 0.25 0  2.742608695652174 0.2333333333333333 0  2.742608695652174 0.25 0  2.759130434782609 0.2333333333333333 0  2.759130434782609 0.25 0  2.775652173913044 0.2333333333333333 0  2.775652173913044 0.25 0  2.792173913043478 0.25 0  2.808695652173913 0.25 0  2.825217391304347 0.25 0  2.28 0.25 0  2.296521739130434 0.25 0  2.296521739130434 0.2666666666666667 0  2.28 0.2666666666666667 0  2.31304347826087 0.25 0  2.31304347826087 0.2666666666666667 0  2.329565217391304 0.25 0  2.329565217391304 0.2666666666666667 0  2.346086956521739 0.25 0  2.346086956521739 0.2666666666666667 0  2.362608695652174 0.25 0  2.362608695652174 0.2666666666666667 0  2.379130434782609 0.25 0  2.379130434782609 0.2666666666666667 0  2.395652173913044 0.25 0  2.395652173913044 0.2666666666666667 0  2.412173913043478 0.25 0  2.412173913043478 0.2666666666666667 0  2.428695652173913 0.25 0  2.428695652173913 0.2666666666666667 0  2.445217391304348 0.2666666666666667 0  2.461739130434782 0.2666666666666667 0  2.478260869565217 0.2666666666666667 0  2.494782608695652 0.2666666666666667 0  2.511304347826087 0.2666666666666667 0  2.527826086956522 0.2666666666666667 0  2.544347826086956 0.2666666666666667 0  2.560869565217391 0.2666666666666667 0  2.577391304347826 0.2666666666666667 0  2.593913043478261 0.2666666666666667 0  2.610434782608696 0.2666666666666667 0  2.62695652173913 0.2666666666666667 0  2.643478260869565 0.2666666666666667 0  2.66 0.2666666666666667 0  2.676521739130435 0.2666666666666667 0  2.693043478260869 0.2666666666666667 0  2.709565217391304 0.2666666666666667 0  2.726086956521739 0.2666666666666667 0  2.742608695652174 0.2666666666666667 0  2.759130434782609 0.2666666666666667 0  2.775652173913044 0.2666666666666667 0  2.792173913043478 0.2666666666666667 0  2.808695652173913 0.2666666666666667 0  2.825217391304347 0.2666666666666667 0  2.841739130434783 0.2666666666666667 0  2.24695652173913 0.2666666666666667 0  2.263478260869565 0.2666666666666667 0  2.263478260869565 0.2833333333333333 0  2.28 0.2833333333333333 0  2.296521739130434 0.2833333333333333 0  2.31304347826087 0.2833333333333333 0  2.329565217391304 0.2833333333333333 0  2.346086956521739 0.2833333333333333 0  2.362608695652174 0.2833333333333333 0  2.379130434782609 0.2833333333333333 0  2.395652173913044 0.2833333333333333 0  2.412173913043478 0.2833333333333333 0  2.428695652173913 0.2833333333333333 0  2.445217391304348 0.2833333333333333 0  2.461739130434782 0.2833333333333333 0  2.478260869565217 0.2833333333333333 0  2.494782608695652 0.2833333333333333 0  2.511304347826087 0.2833333333333333 0  2.527826086956522 0.2833333333333333 0  2.544347826086956 0.2833333333333333 0  2.560869565217391 0.2833333333333333 0  2.577391304347826 0.2833333333333333 0  2.593913043478261 0.2833333333333333 0  2.610434782608696 0.2833333333333333 0  2.62695652173913 0.2833333333333333 0  2.643478260869565 0.2833333333333333 0  2.66 0.2833333333333333 0  2.676521739130435 0.2833333333333333 0  2.693043478260869 0.2833333333333333 0  2.709565217391304 0.2833333333333333 0  2.726086956521739 0.2833333333333333 0  2.742608695652174 0.2833333333333333 0  2.759130434782609 0.2833333333333333 0  2.775652173913044 0.2833333333333333 0  2.792173913043478 0.2833333333333333 0  2.808695652173913 0.2833333333333333 0  2.825217391304347 0.2833333333333333 0  2.841739130434783 0.2833333333333333 0  2.858260869565217 0.2833333333333333 0  2.28 0.3 0  2.296521739130434 0.3 0  2.31304347826087 0.3 0  2.329565217391304 0.3 0  2.346086956521739 0.3 0  2.362608695652174 0.3 0  2.379130434782609 0.3 0  2.395652173913044 0.3 0  2.412173913043478 0.3 0  2.428695652173913 0.3 0  2.445217391304348 0.3 0  2.461739130434782 0.3 0  2.478260869565217 0.3 0  2.494782608695652 0.3 0  2.511304347826087 0.3 0  2.527826086956522 0.3 0  2.544347826086956 0.3 0  2.560869565217391 0.3 0  2.577391304347826 0.3 0  2.593913043478261 0.3 0  2.610434782608696 0.3 0  2.62695652173913 0.3 0  2.643478260869565 0.3 0  2.66 0.3 0  2.676521739130435 0.3 0  2.693043478260869 0.3 0  2.709565217391304 0.3 0  2.726086956521739 0.3 0  2.742608695652174 0.3 0  2.759130434782609 0.3 0  2.775652173913044 0.3 0  2.792173913043478 0.3 0  2.808695652173913 0.3 0  2.825217391304347 0.3 0  2.841739130434783 0.3 0  2.858260869565217 0.3 0  2.874782608695652 0.3 0  2.296521739130434 0.3166666666666667 0  2.31304347826087 0.3166666666666667 0  2.329565217391304 0.3166666666666667 0  2.346086956521739 0.3166666666666667 0  2.362608695652174 0.3166666666666667 0  2.379130434782609 0.3166666666666667 0  2.395652173913044 0.3166666666666667 0  2.412173913043478 0.3166666666666667 0  2.428695652173913 0.3166666666666667 0  2.445217391304348 0.3166666666666667 0  2.461739130434782 0.3166666666666667 0  2.478260869565217 0.3166666666666667 0  2.494782608695652 0.3166666666666667 0  2.511304347826087 0.3166666666666667 0  2.527826086956522 0.3166666666666667 0  2.544347826086956 0.3166666666666667 0  2.560869565217391 0.3166666666666667 0  2.577391304347826 0.3166666666666667 0  2.593913043478261 0.3166666666666667 0  2.610434782608696 0.3166666666666667 0  2.62695652173913 0.3166666666666667 0  2.643478260869565 0.3166666666666667 0  2.66 0.3166666666666667 0  2.676521739130435 0.3166666666666667 0  2.693043478260869 0.3166666666666667 0  2.709565217391304 0.3166666666666667 0  2.726086956521739 0.3166666666666667 0  2.742608695652174 0.3166666666666667 0  2.759130434782609 0.3166666666666667 0  2.775652173913044 0.3166666666666667 0  2.792173913043478 0.3166666666666667 0  2.808695652173913 0.3166666666666667 0  2.825217391304347 0.3166666666666667 0  2.841739130434783 0.3166666666666667 0  2.858260869565217 0.3166666666666667 0  2.874782608695652 0.3166666666666667 0  2.891304347826087 0.3166666666666667 0  2.31304347826087 0.3333333333333333 0  2.329565217391304 0.3333333333333333 0  2.346086956521739 0.3333333333333333 0  2.362608695652174 0.3333333333333333 0  2.379130434782609 0.3333333333333333 0  2.395652173913044 0.3333333333333333 0  2.412173913043478 0.3333333333333333 0  2.428695652173913 0.3333333333333333 0  2.445217391304348 0.3333333333333333 0  2.461739130434782 0.3333333333333333 0  2.478260869565217 0.3333333333333333 0  2.494782608695652 0.3333333333333333 0  2.511304347826087 0.3333333333333333 0  2.527826086956522 0.3333333333333333 0  2.544347826086956 0.3333333333333333 0  2.560869565217391 0.3333333333333333 0  2.577391304347826 0.3333333333333333 0  2.593913043478261 0.3333333333333333 0  2.610434782608696 0.3333333333333333 0  2.62695652173913 0.3333333333333333 0  2.643478260869565 0.3333333333333333 0  2.66 0.3333333333333333 0  2.676521739130435 0.3333333333333333 0  2.693043478260869 0.3333333333333333 0  2.709565217391304 0.3333333333333333 0  2.726086956521739 0.3333333333333333 0  2.742608695652174 0.3333333333333333 0  2.759130434782609 0.3333333333333333 0  2.775652173913044 0.3333333333333333 0  2.792173913043478 0.3333333333333333 0  2.808695652173913 0.3333333333333333 0  2.825217391304347 0.3333333333333333 0  2.841739130434783 0.3333333333333333 0  2.858260869565217 0.3333333333333333 0  2.874782608695652 0.3333333333333333 0  2.891304347826087 0.3333333333333333 0  2.907826086956522 0.3333333333333333 0  2.329565217391304 0.35 0  2.346086956521739 0.35 0  2.362608695652174 0.35 0  2.379130434782609 0.35 0  2.395652173913044 0.35 0  2.412173913043478 0.35 0  2.428695652173913 0.35 0  2.445217391304348 0.35 0  2.461739130434782 0.35 0  2.478260869565217 0.35 0  2.494782608695652 0.35 0  2.511304347826087 0.35 0  2.527826086956522 0.35 0  2.544347826086956 0.35 0  2.560869565217391 0.35 0  2.577391304347826 0.35 0  2.593913043478261 0.35 0  2.610434782608696 0.35 0  2.62695652173913 0.35 0  2.643478260869565 0.35 0  2.66 0.35 0  2.676521739130435 0.35 0  2.693043478260869 0.35 0  2.709565217391304 0.35 0  2.726086956521739 0.35 0  2.742608695652174 0.35 0  2.759130434782609 0.35 0  2.775652173913044 0.35 0  2.792173913043478 0.35 0  2.808695652173913 0.35 0  2.825217391304347 0.35 0  2.841739130434783 0.35 0  2.858260869565217 0.35 0  2.874782608695652 0.35 0  2.891304347826087 0.35 0  2.907826086956522 0.35 0  2.924347826086957 0.35 0  2.346086956521739 0.3666666666666666 0  2.362608695652174 0.3666666666666666 0  2.379130434782609 0.3666666666666666 0  2.395652173913044 0.3666666666666666 0  2.412173913043478 0.3666666666666666 0  2.428695652173913 0.3666666666666666 0  2.445217391304348 0.3666666666666666 0  2.461739130434782 0.3
[...]
<CellData  Scalars="rho_bar"> 
<DataArray  type="Float64"  Name="rho_bar"  format="ascii">6.0655751291781253e-02   8.0994454224181361e-02   8.0931573242018301e-02   8.1542010225028536e-02   8.1149787256934655e-02   8.2262195898125848e-02   8.1617446974195401e-02   8.3033911255341153e-02   8.2233623236443301e-02   8.3717985458701738e-02   8.2877249045280793e-02   8.4171937053593854e-02   8.3416615705741506e-02   8.4269105957008941e-02   8.3725060444966359e-02   8.3909395356476998e-02   8.3694522655772971e-02   8.3031475553986586e-02   8.3243800992362602e-02   8.1623959402058188e-02   8.2334456601668896e-02   7.9716202311832449e-02   8.0971016267398097e-02   7.7378407562169293e-02   7.9191402192836616e-02   7.4738296898724355e-02   7.7080172574006539e-02   7.1977485759407253e-02   7.4781989717334810e-02   6.9311864152510810e-02   7.2490181451404928e-02   6.6979115478522366e-02   7.0433398228393812e-02   6.5219799726977917e-02   6.8860439093862497e-02   6.4259115468194836e-02   6.8016257570373245e-02   6.4298887236840227e-02   6.8126370536066225e-02   6.5523159622909666e-02   6.9395258000302884e-02   6.8105893869199921e-02   7.2012719282920509e-02   7.2214405858487873e-02   7.6153974726743123e-02   8.1970331288646239e-02   1.0651645818702933e-01   1.1001669290526153e-01   1.0159068709150482e-01   1.0473357719713294e-01   9.7140763438001834e-02   9.9865566830987434e-02   9.3201885657188621e-02   9.5469728693126699e-02   8.9789324572356111e-02   9.1579622840111549e-02   8.6903650179009639e-02   8.8210115640007386e-02   8.4535609449472568e-02   8.5362605866014199e-02   8.2669690942745733e-02   8.3029878587161321e-02   8.1285292996730082e-02   8.1198387190322990e-02   8.0355712264084209e-02   7.9848766113330083e-02   7.9845196254824530e-02   7.8954011645136629e-02   7.9704894669335405e-02   7.8476617777255300e-02   7.9869210305975963e-02   7.8365136545179168e-02   8.0253438196212640e-02   7.8551425089217669e-02   8.0756145893530418e-02   7.8950245605777264e-02   8.1268203704129252e-02   7.9464826427204760e-02   8.1684133638990214e-02   7.9996790541448509e-02   8.1908021750826288e-02   8.0453224889354580e-02   8.1861835111955106e-02   8.0749808767290002e-02   8.1503100187038144e-02   8.0824705690612772e-02   8.0825907741271283e-02   8.0652200019698056e-02   7.9852141955664813e-02   8.0235237106423732e-02   7.8646690506052358e-02   7.9608184946015195e-02   7.7334228085481668e-02   7.8858777665486476e-02   7.6095309602794592e-02   7.8135595813671799e-02   7.5160329077893898e-02   7.7643230310632610e-02   7.4789230158825631e-02   7.7632017652993879e-02   7.5240539629805356e-02   7.8367019975512320e-02   7.6755123531032143e-02   8.0102089513659616e-02   7.9554064949804992e-02   8.3070481738447083e-02   8.3831870825488680e-02   8.7476756117868426e-02   8.9740380596002950e-02   9.3474946403576287e-02   9.7360654212650027e-02   1.0113734745142205e-01   1.1040770550670999e-01   1.2146560029018830e-01   1.1561345150487876e-01   1.1752721481590696e-01   1.0986500751022828e-01   1.1168943330133825e-01   1.0436426584388232e-01   1.0599489476577735e-01   9.9216836663407304e-02   1.0057405040014882e-01   9.4499511495751795e-02   9.5526325821737465e-02   9.0262472834574559e-02   9.0922955247008580e-02   8.6534540592199394e-02   8.6809443783911255e-02   8.3329027490391241e-02   8.3211885301139488e-02   8.0648398367475976e-02   8.0142292682077815e-02   7.8487029739137043e-02   7.7602471276339638e-02   7.6832200461642991e-02   7.5586149119465693e-02   7.5663216576222783e-02   7.4079389423439682e-02   7.4949430378895440e-02   7.3059473481060858e-02   7.4648814381381698e-02   7.2493755814178926e-02   7.4705837877134099e-02   7.2338646205529891e-02   7.5050416149165758e-02   7.2537295072073460e-02   7.5604271172284465e-02   7.3022141515610706e-02   7.6289389901735533e-02   7.3723182622560085e-02   7.7031020822646304e-02   7.4573684439633234e-02   7.7756348110187251e-02   7.5507652268610878e-02   7.8408263018136484e-02   7.6463560431702784e-02   7.8958338375099343e-02   7.7400990736400152e-02   7.9404325799862327e-02   7.8306054139006223e-02   7.9775412232186857e-02   7.9190181602728976e-02   8.0152688331921684e-02   8.0106086216053876e-02   8.0677889659501040e-02   8.1164382037725691e-02   8.1553801847086341e-02   8.2536258456070224e-02   8.3028949672777630e-02   8.4447800359301189e-02   8.5363045142741553e-02   8.7151443148780178e-02   8.8802026664451042e-02   9.0892262409549243e-02   9.3563754873131649e-02   9.5887585336429118e-02   9.9808171759174835e-02   1.0229847492082475e-01   1.0759236543731221e-01   1.1017805264086250e-01   1.1682745387390100e-01   1.1942066567663005e-01   1.2722849256942831e-01   1.2971980644056791e-01   1.4053810258679411e-01   1.1374781896303418e-01   1.0794825319323352e-01   1.0812705081990162e-01   1.0222805337739536e-01   1.0239120323320652e-01   9.6731977783775625e-02   9.6790057694925755e-02   9.1574443965347876e-02   9.1458444649934356e-02   8.6839133883245490e-02   8.6500388683463450e-02   8.2582237732713712e-02   8.1989027617621543e-02   7.8838805217703034e-02   7.7972642802507638e-02   7.5627505113086149e-02   7.4479999276141115e-02   7.2955065769644209e-02   7.1525031418102694e-02   7.0819233937037915e-02   6.9110990133447125e-02   6.9209837191904308e-02   6.7232891105283771e-02   6.8107761292065000e-02   6.5877399907921921e-02   6.7485841197364824e-02   6.5023010480097912e-02   6.7308728166058221e-02   6.4641479159381190e-02   6.7530653321501766e-02   6.4696676190451580e-02   6.8098666194768981e-02   6.5144385765333976e-02   6.8960950444546268e-02   6.5939280818061524e-02   7.0070631621889368e-02   6.7041436269785981e-02   7.1379605243598696e-02   6.8413831861097313e-02   7.2841711567173742e-02   7.0017039650496576e-02   7.4426710293166415e-02   7.1819493426584127e-02   7.6125777650357662e-02   7.3807804786678588e-02   7.7955368176474180e-02   7.5989575448401389e-02   7.9973041308143408e-02   7.8403463678234780e-02   8.2291072852807345e-02   8.1136331951260368e-02   8.5079455117454517e-02   8.4329421318613845e-02   8.8553857474269110e-02   8.8173005778139829e-02   9.2942234811233426e-02   9.2880380404219032e-02   9.8451954732098293e-02   9.8649286780484804e-02   1.0523811851141181e-01   1.0562645833973967e-01   1.1334979954161825e-01   1.1385724295119977e-01   1.2265796390455641e-01   1.2321004308126621e-01   1.3281062567189864e-01   1.3331628727020534e-01   1.4322324312350140e-01   1.4356624365546475e-01   1.5310645382695032e-01   1.5314871033294952e-01   1.6113160636564097e-01   1.0160714580539325e-01   9.6041927585894735e-02   9.5123210455046833e-02   9.0582217253673922e-02   8.9714050800725642e-02   8.5369466873868330e-02   8.4476955241625878e-02   8.0512726170900717e-02   7.9537948660030000e-02   7.6090047417843920e-02   7.4990660753021327e-02   7.2153085766035976e-02   7.0899583131372151e-02   6.8732832271359914e-02   6.7305400312180255e-02   6.5844485575971903e-02   6.4230337423155898e-02   6.3492684485293022e-02   6.1683843356999779e-02   6.1674100351535456e-02   5.9666750105549046e-02   6.0377189645951776e-02   5.8172347305400565e-02   5.9583255407778112e-02   5.7186204017960866e-02   5.9268965465804450e-02   5.6688951224207050e-02   5.9405564860769054e-02   5.6657565843218904e-02   5.9960539114340926e-02   5.7065449462890487e-02   6.0904400388009559e-02   5.7887287905757145e-02   6.2216061634286099e-02   5.9105914425261454e-02   6.3876589562264843e-02   6.0711238699374649e-02   6.5865851242530860e-02   6.2692525293175927e-02   6.8170142785147714e-02   6.5040782869021402e-02   7.0789947412152193e-02   6.7757318140073242e-02   7.3744485474993904e-02   7.0858474294900983e-02   7.7083752098524458e-02   7.4383184509350886e-02   8.0901160081627330e-02   7.8406156554970338e-02   8.5337658619482545e-02   8.3044980907181737e-02   9.0567744039347892e-02   8.8452818049625556e-02   9.6764808355564419e-02   9.4789610951138512e-02   1.0406062207636246e-01   1.0217825449038487e-01   1.1249377036957513e-01   1.1065391550992752e-01   1.2193411257403981e-01   1.2009135460233099e-01   1.3200489639517746e-01   1.3012294603538202e-01   1.4205569692577771e-01   1.4009569897434246e-01   1.5122664705794603e-01   1.4912738893590954e-01   1.5856654271390003e-01   1.5624408751775820e-01   1.6316069402526354e-01   1.6053351817374795e-01   1.6126918424035183e-01   8.7568381764071043e-02   8.2471444992839385e-02   8.1264171013704881e-02   7.7535581239474294e-02   7.6416102868653274e-02   7.2884158376446198e-02   7.1789871181795875e-02   6.8609361349927525e-02   6.7490538112102316e-02   6.4774147859933462e-02   6.3593276046456759e-02   6.1416948650346213e-02   6.0146085595772461e-02   5.8558713719034657e-02   5.7176565276116254e-02   5.6208733596158543e-02   5.4698597604128631e-02   5.4368510147190220e-02   5.2717386343537405e-02   5.3032134637576396e-02   5.1231088058737016e-02   5.2187422980012860e-02   5.0231258258928761e-02   5.1818581951050185e-02   4.9705080416910769e-02   5.1907798645962629e-02   4.9638013568304530e-02   5.2437221179599834e-02   5.0015299611260944e-02   5.3394100360005387e-02   5.0825811290133832e-02   5.4776344595055260e-02   5.2067737716804056e-02   5.6588957383622358e-02   5.3750049099614235e-02   5.8837591232221514e-02   5.5885239692825300e-02   6.1530953488209417e-02   5.8487246247920933e-02   6.4686222486814313e-02   6.1575822050577857e-02   6.8333328480438799e-02   6.5180644403166774e-02   7.2523315106600969e-02   6.9346234669191320e-02   7.7337966437233382e-02   7.4141197019536101e-02   8.2891431019311471e-02   7.9661928043603447e-02   8.9314705875362096e-02   8.6023359655885173e-02   9.6716369988160231e-02   9.3326800250960573e-02   1.0513400514940048e-01   1.0161021835389585e-01   1.1446565350149611e-01   1.1078547456476513e-01   1.2437789044492714e-01   1.2054950280702054e-01   1.3424273435913289e-01   1.3030667976449647e-01   1.4316119326293236e-01   1.3917451139997980e-01   1.5011380023744558e-01   1.4611737029779095e-01   1.5416402946822449e-01   1.5017269087006035e-01   1.5461177651267854e-01   1.5063538787907255e-01   1.5109134284294243e-01   1.4715860321889049e-01   1.3982637524376754e-01   7.4627376840465429e-02   7.0161887550559521e-02   6.9551743751441672e-02   6.5909150260617860e-02   6.5372280864373744e-02   6.1967938843366231e-02   6.1452481350683479e-02   5.8408281324385830e-02   5.7873169685666151e-02   5.5274422103678750e-02   5.4688490476641677e-02   5.2591372666248838e-02   5.1930634150025065e-02   5.0372478194464373e-02   4.9617510740977498e-02   4.8623224097796063e-02   4.7758196642790740e-02   4.7342374500196578e-02   4.6355084792124621e-02   4.6523248369418978e-02   4.5404669383865892e-02   4.6156238029745118e-02   4.4899779650476104e-02   4.6231012703567137e-02   4.4832066717566878e-02   4.6739426768133349e-02   4.5194574274047709e-02   4.7679544346664014e-02   4.5985308952722646e-02   4.9059849119182562e-02   4.7211073901563178e-02   5.0899159911192517e-02   4.8889912249130849e-02   5.3220994579038797e-02   5.1047659761633911e-02   5.6051537498723061e-02   5.3713247019211048e-02   5.9422774525092426e-02   5.6919820346531355e-02   6.3374203138793758e-02   6.0706504230209062e-02   6.7957474111023972e-02   6.5119983953022709e-02   7.3242714594468031e-02   7.0219666429631747e-02   7.9316550478917724e-02   7.6078800982270864e-02   8.6262190460500682e-02   8.2770072025109678e-02   9.4119357354516722e-02   9.0331747297061463e-02   1.0283201561307467e-01   9.8717984565918529e-02   1.1217169652432908e-01   1.0773404196041593e-01   1.2163836324664461e-01   1.1694297750323518e-01   1.3042230702414490e-01   1.2560065432489423e-01   1.3749211792643853e-01   1.3271314576711593e-01   1.4182801247593335e-01   1.3724320892037131e-01   1.4268133003572378e-01   1.3839651529388658e-01   1.3969302744565976e-01   1.3579254697923362e-01   1.3292276989864768e-01   1.2947962194575741e-01   1.2289242494285167e-01   1.1993514327429909e-01   1.0803382532101800e-01   6.5653091874586719e-02   6.1803737513435396e-02   6.2643076242627785e-02   5.8204268766045411e-02   5.9044882158270806e-02   5.4929322409778124e-02   5.5732146645280298e-02   5.2029118170484570e-02   5.2764784876957870e-02   4.9534144159265131e-02   5.0181452515378207e-02   4.7461797262681495e-02   4.8004991748883667e-02   4.5821560520052811e-02   4.6248662804049850e-02   4.4616568200517646e-02   4.4919107024253231e-02   4.3844996807600532e-02   4.4017538932589029e-02   4.3501939391637240e-02   4.3541262667406690e-02   4.3582141209006588e-02   4.3486071741860741e-02   4.4083467713987100e-02   4.3849599715020449e-02   4.5010542894046823e-02   4.4635187596183803e-02   4.6377294239776629e-02   4.5854686867061747e-02   4.8207369676728590e-02   4.7529346428283319e-02   5.0531368962793873e-02   4.9688362363651942e-02   5.3383783193785235e-02   5.2365564764210462e-02   5.6803623978693138e-02   5.5598532686154653e-02   6.0833159770892389e-02   5.9428225419524347e-02   6.5517125040222196e-02   6.3895272553502525e-02   7.0906597633935656e-02   6.9040920382283086e-02   7.7055272650852061e-02   7.4907354368590598e-02   8.3994340549535418e-02   8.1520407031830194e-02   9.1690845866736440e-02   8.8851149842756189e-02   1.0000202808094741e-01   9.6771776511674443e-02   1.0860754680976131e-01   1.0500444947880894e-01   1.1692043504792826e-01   1.1304505574523438e-01   1.2407323906237082e-01   1.2011747350054779e-01   1.2905367128793085e-01   1.2526488325825991e-01   1.3097437072035006e-01   1.2758203394883263e-01   1.2934314939426378e-01   1.2649917751201203e-01   1.2414301034734873e-01   1.2193374799901062e-01   1.1576013638328662e-01   1.1422998653868331e-01   1.0494736825642116e-01   1.0406766957982433e-01   9.2709094640924028e-02   9.2383058997502751e-02   8.0157615843522337e-02   6.3087674660862791e-02   5.9654303415070310e-02   6.2874450614108832e-02   5.6503420904562604e-02   5.9605797848096963e-02   5.3693138509643315e-02   5.6653710469725560e-02   5.1261767738454159e-02   5.4066264878799439e-02   4.9232889342908016e-02   5.1874366436712234e-02   4.7620825219283645e-02   5.0097236797816767e-02   4.6433589114955862e-02   4.8746838954594182e-02   4.5673923707060721e-02   4.7829256877155446e-02   4.5340348004347400e-02   4.7345441740427104e-02   4.5430201495946600e-02   4.7293255854554503e-02   4.5944327407000621e-02   4.7672206815411178e-02   4.6890618285171846e-02   4.8487934491726913e-02   4.8285933364167893e-02   4.9754638867164393e-02   5.0155222932804569e-02   5.1494972949971025e-02   5.2528018821933080e-02   5.3736608402243036e-02   5.5436813780405589e-02   5.6509028310556486e-02   5.8918417104940529e-02   5.9844413994251208e-02   6.3009818652919269e-02   6.3776906916421433e-02   6.7740362082578554e-02   6.8333353485819842e-02   7.3131629763582839e-02   7.3527223103429531e-02   7.9195920993985480e-02   7.9359824949321256e-02   8.5908334914625101e-02   8.5804402942032926e-02   9.3161961330548576e-02   9.2763627557180553e-02   1.0073349432241054e-01   1.0003080882481334e-01   1.0824072991615664e-01   1.0726282526263818e-01   1.1508469732776688e-01   1.1393857031128253e-01   1.2045701460585499e-01   1.1934001898248470e-01   1.2348745249193704e-01   1.2264937411628385e-01   1.2349642260564223e-01   1.2316487558734726e-01   1.2021377872858459e-01   1.2052801380316371e-01   1.1383828265986111e-01   1.1483402909220734e-01   1.0492810552194347e-01   1.0656811626181159e-01   9.4284678682215253e-02   9.6461069887951736e-02   8.2825104528538432e-02   8.5375201410533369e-02   7.1372164840448588e-02   7.4136439908820365e-02   6.3370380418531783e-02   6.9800523976591353e-02   6.6442504454613596e-02   7.3661785074178393e-02   6.3418820000748125e-02   7.0347188001988553e-02   6.0781889028400232e-02   6.7413591789040897e-02   5.8566029772516674e-02   6.4907197988239837e-02   5.6793909964567388e-02   6.2858547081578328e-02   5.5480274735382522e-02   6.1288308128214466e-02   5.4632666626765837e-02   6.0208811085966443e-02   5.4251390843623168e-02   5.9623556221709686e-02   5.4333961377333845e-02   5.9529904609460671e-02   5.4881839617213712e-02   5.9926672114999933e-02   5.5903628739351841e-02   6.0819566368895232e-02   5.7416397968466357e-02   6.2222225180065378e-02   5.9444440812031790e-02   6.4155923397664946e-02   6.2012929199942009e-02   6.6644631728741896e-02   6.5144135918740922e-02   6.9707795121307897e-02   6.8861415147565816e-02   7.3361259539012597e-02   7.3185907379265377e-02   7.7619547837620095e-02   7.8123002141387662e-02   8.2484724054376651e-02   8.3655166101583550e-02   8.7932879900536859e-02   8.9742788896885209e-02   9.3912976742446766e-02   9.6299944502669821e-02   1.0033727787221243e-01   1.0314780543872770e-01   1.0704023624441319e-01   1.0999068540397867e-01   1.1374367166029219e-01   1.1640504567060153e-01   1.2005413425288862e-01   1.2182026170161937e-01   1.2545841238166344e-01   1.2554443880881397e-01   1.2933168230524328e-01   1.2689269243196152e-01   1.3102264422992613e-01   1.2539180960106933e-01   1.3002445049242820e-01   1.2093459967001971e-01   1.2614406405735007e-01   1.1380946617555142e-01   1.1956394066876017e-01   1.0461288989201996e-01   1.1079391765236433e-01   9.4108911221107303e-02   1.0054128748464980e-01   8.3095001576821537e-02   8.9576434455597514e-02   7.2253364222182995e-02   7.8602946517988173e-02   6.2061662667896061e-02   6.8145885970041967e-02   5.8534502113116900e-02   9.1447008693733539e-02   8.7682619248985016e-02   1.0230974993695401e-01   8.4357475129888282e-02   9.8429053792995810e-02   8.1530203240025731e-02   9.5065971572666289e-02   7.9239859275627739e-02   9.2276099793243679e-02   7.7513123577007598e-02   9.0096866845319035e-02   7.6364067404311453e-02   8.8550846303579150e-02   7.5792813995142344e-02   8.7643714770241091e-02   7.5793026849012582e-02   8.7368126240871383e-02   7.6364115971949975e-02   8.7718091875847337e-02   7.7513243833303588e-02   8.8697051541579905e-02   7.9253942900062269e-02   9.0314692340808037e-02   8.1604853730083263e-02   9.2584927994102423e-02   8.4581654972892911e-02   9.5520725446885918e-02   8.8188601797867652e-02   9.9122948375871447e-02   9.2421071100861063e-02   1.0337681854366655e-01   9.7265708772860573e-02   1.0825625161015941e-01   1.0268683788751871e-01   1.1371594351736640e-01   1.0861459500283988e-01   1.1967652714658751e-01   1.1494443031848470e-01   1.2602006634840129e-01   1.2151962765793234e-01   1.3258491764260363e-01   1.2809297908571857e-01   1.3913550248729495e-01   1.3431144195973443e-01   1.4533668040424483e-01   1.3972946053699567e-01   1.5076637445592972e-01   1.4382197333869506e-01   1.5493807922982261e-01   1.4602151824059020e-01   1.5732679031657734e-01   1.4581600489116817e-01   1.5743726315837137e-01   1.4289308353635380e-01   1.5492030331930542e-01   1.3724657242847801e-01   1.4968860890726834e-01   1.2919015523312186e-01   1.4195781438022365e-01   1.1929434299390036e-01   1.3221118238670013e-01   1.0826778228608534e-01   1.2110781878111963e-01   9.6826320971443863e-02   1.0935614246031981e-01   8.5577269861520075e-02   9.7598324983317858e-02   7.4956092168086352e-02   8.6326782828812773e-02   6.5231642383716607e-02   7.5866737821954369e-02   6.6406833008214247e-02   1.3974603230419233e-01   1.3491995514093780e-01   1.6306037390313663e-01   1.3073452304885674e-01   1.5794922886073784e-01   1.2726754177242394e-01   1.5360509240105821e-01   1.2456762780668067e-01   1.5010036406811311e-01   1.2266036422113424e-01   1.4747591417079786e-01   1.2154575985072667e-01   1.4574301465547407e-01   1.2120859309293124e-01   1.4488751134777841e-01   1.2164055798650790e-01   1.4489218537231108e-01   1.2284347863662011e-01   1.4575261965399050e-01   1.2482116848170675e-01   1.4746815598714372e-01   1.2757607585717168e-01   1.5003418644848784e-01   1.3110006564141194e-01   1.5343613600122480e-01   1.3536181238348302e-01   1.5763539206666222e-01   1.4030567898022814e-01   1.6256145804896646e-01   1.4585508955362950e-01   1.6811720954943116e-01   1.5190397962163338e-01   1.7417800445245818e-01   1.5830718129862570e-01   1.8058189937407684e-01   1.64882690