<?xml version="1.0"?>
<VTKFile type="UnstructuredGrid"  version="0.1"  >
<UnstructuredGrid>
<Piece  NumberOfPoints="614" NumberOfCells="1122">
<Points>
<DataArray  type="Float64"  NumberOfComponents="3"  format="ascii">2.792173913043478 0.2166666666666667 0  2.792173913043478 0.2333333333333333 0  2.808695652173913 0.2333333333333333 0  2.445217391304348 0.2333333333333333 0  2.461739130434782 0.2333333333333333 0  2.461739130434782 0.25 0  2.445217391304348 0.25 0  2.478260869565217 0.2333333333333333 0  2.478260869565217 0.25 0  2.494782608695652 0.2333333333333333 0  2.494782608695652 0.25 0  2.511304347826087 0.2333333333333333 0  2.511304347826087 0.25 0  2.527826086956522 0.2333333333333333 0  2.527826086956522 0.25 0  2.544347826086956 0.2333333333333333 0  2.544347826086956 0.25 0  2.560869565217391 0.2333333333333333 0  2.560869565217391 0.25 0  2.577391304347826 0.2333333333333333 0  2.577391304347826 0.25 0  2.593913043478261 0.2333333333333333 0  2.593913043478261 0.25 0  2.610434782608696 0.2333333333333333 0  2.610434782608696 0.25 0  2.62695652173913 0.2333333333333333 0  2.62695652173913 0.25 0  2.643478260869565 0.2333333333333333 0  2.643478260869565 0.25 0  2.66 0.2333333333333333 0  2.66 0.25 0  2.676521739130435 0.2333333333333333 0  2.676521739130435 0.25 0  2.693043478260869 0.2333333333333333 0  2.693043478260869 0.25 0  2.709565217391304 0.2333333333333333 0  2.709565217391304 0.25 0  2.726086956521739 0.2333333333333333 0  2.726086956521739 0.25 0  2.742608695652174 0.2333333333333333 0  2.742608695652174 0.25 0  2.759130434782609 0.2333333333333333 0  2.759130434782609 0.25 0  2.775652173913044 0.2333333333333333 0  2.775652173913044 0.25 0  2.792173913043478 0.25 0  2.808695652173913 0.25 0  2.825217391304347 0.25 0  2.28 0.25 0  2.296521739130434 0.25 0  2.296521739130434 0.2666666666666667 0  2.28 0.2666666666666667 0  2.31304347826087 0.25 0  2.31304347826087 0.2666666666666667 0  2.329565217391304 0.25 0  2.329565217391304 0.2666666666666667 0  2.346086956521739 0.25 0  2.346086956521739 0.2666666666666667 0  2.362608695652174 0.25 0  2.362608695652174 0.2666666666666667 0  2.379130434782609 0.25 0  2.379130434782609 0.2666666666666667 0  2.395652173913044 0.25 0  2.395652173913044 0.2666666666666667 0  2.412173913043478 0.25 0  2.412173913043478 0.2666666666666667 0  2.428695652173913 0.25 0  2.428695652173913 0.2666666666666667 0  2.445217391304348 0.2666666666666667 0  2.461739130434782 0.2666666666666667 0  2.478260869565217 0.2666666666666667 0  2.494782608695652 0.2666666666666667 0  2.511304347826087 0.2666666666666667 0  2.527826086956522 0.2666666666666667 0  2.544347826086956 0.2666666666666667 0  2.560869565217391 0.2666666666666667 0  2.577391304347826 0.2666666666666667 0  2.593913043478261 0.2666666666666667 0  2.610434782608696 0.2666666666666667 0  2.62695652173913 0.2666666666666667 0  2.643478260869565 0.2666666666666667 0  2.66 0.2666666666666667 0  2.676521739130435 0.2666666666666667 0  2.693043478260869 0.2666666666666667 0  2.709565217391304 0.2666666666666667 0  2.726086956521739 0.2666666666666667 0  2.742608695652174 0.2666666666666667 0  2.759130434782609 0.2666666666666667 0  2.775652173913044 0.2666666666666667 0  2.792173913043478 0.2666666666666667 0  2.808695652173913 0.2666666666666667 0  2.825217391304347 0.2666666666666667 0  2.841739130434783 0.2666666666666667 0  2.24695652173913 0.2666666666666667 0  2.263478260869565 0.2666666666666667 0  2.263478260869565 0.2833333333333333 0  2.28 0.2833333333333333 0  2.296521739130434 0.2833333333333333 0  2.31304347826087 0.2833333333333333 0  2.329565217391304 0.2833333333333333 0  2.346086956521739 0.2833333333333333 0  2.362608695652174 0.2833333333333333 0  2.379130434782609 0.2833333333333333 0  2.395652173913044 0.2833333333333333 0  2.412173913043478 0.2833333333333333 0  2.428695652173913 0.2833333333333333 0  2.445217391304348 0.2833333333333333 0  2.461739130434782 0.2833333333333333 0  2.478260869565217 0.2833333333333333 0  2.494782608695652 0.2833333333333333 0  2.511304347826087 0.2833333333333333 0  2.527826086956522 0.2833333333333333 0  2.544347826086956 0.2833333333333333 0  2.560869565217391 0.2833333333333333 0  2.577391304347826 0.2833333333333333 0  2.593913043478261 0.2833333333333333 0  2.610434782608696 0.2833333333333333 0  2.62695652173913 0.2833333333333333 0  2.643478260869565 0.2833333333333333 0  2.66 0.2833333333333333 0  2.676521739130435 0.2833333333333333 0  2.693043478260869 0.2833333333333333 0  2.709565217391304 0.2833333333333333 0  2.726086956521739 0.2833333333333333 0  2.742608695652174 0.2833333333333333 0  2.759130434782609 0.2833333333333333 0  2.775652173913044 0.2833333333333333 0  2.792173913043478 0.2833333333333333 0  2.808695652173913 0.2833333333333333 0  2.825217391304347 0.2833333333333333 0  2.841739130434783 0.2833333333333333 0  2.858260869565217 0.2833333333333333 0  2.28 0.3 0  2.296521739130434 0.3 0  2.31304347826087 0.3 0  2.329565217391304 0.3 0  2.346086956521739 0.3 0  2.362608695652174 0.3 0  2.379130434782609 0.3 0  2.395652173913044 0.3 0  2.412173913043478 0.3 0  2.428695652173913 0.3 0  2.445217391304348 0.3 0  2.461739130434782 0.3 0  2.478260869565217 0.3 0  2.494782608695652 0.3 0  2.511304347826087 0.3 0  2.527826086956522 0.3 0  2.544347826086956 0.3 0  2.560869565217391 0.3 0  2.577391304347826 0.3 0  2.593913043478261 0.3 0  2.610434782608696 0.3 0  2.62695652173913 0.3 0  2.643478260869565 0.3 0  2.66 0.3 0  2.676521739130435 0.3 0  2.693043478260869 0.3 0  2.709565217391304 0.3 0  2.726086956521739 0.3 0  2.742608695652174 0.3 0  2.759130434782609 0.3 0  2.775652173913044 0.3 0  2.792173913043478 0.3 0  2.808695652173913 0.3 0  2.825217391304347 0.3 0  2.841739130434783 0.3 0  2.858260869565217 0.3 0  2.874782608695652 0.3 0  2.296521739130434 0.3166666666666667 0  2.31304347826087 0.3166666666666667 0  2.329565217391304 0.3166666666666667 0  2.346086956521739 0.3166666666666667 0  2.362608695652174 0.3166666666666667 0  2.379130434782609 0.3166666666666667 0  2.395652173913044 0.3166666666666667 0  2.412173913043478 0.3166666666666667 0  2.428695652173913 0.3166666666666667 0  2.445217391304348 0.3166666666666667 0  2.461739130434782 0.3166666666666667 0  2.478260869565217 0.3166666666666667 0  2.494782608695652 0.3166666666666667 0  2.511304347826087 0.3166666666666667 0  2.527826086956522 0.3166666666666667 0  2.544347826086956 0.3166666666666667 0  2.560869565217391 0.3166666666666667 0  2.577391304347826 0.3166666666666667 0  2.593913043478261 0.3166666666666667 0  2.610434782608696 0.3166666666666667 0  2.62695652173913 0.3166666666666667 0  2.643478260869565 0.3166666666666667 0  2.66 0.3166666666666667 0  2.676521739130435 0.3166666666666667 0  2.693043478260869 0.3166666666666667 0  2.709565217391304 0.3166666666666667 0  2.726086956521739 0.3166666666666667 0  2.742608695652174 0.3166666666666667 0  2.759130434782609 0.3166666666666667 0  2.775652173913044 0.3166666666666667 0  2.792173913043478 0.3166666666666667 0  2.808695652173913 0.3166666666666667 0  2.825217391304347 0.3166666666666667 0  2.841739130434783 0.3166666666666667 0  2.858260869565217 0.3166666666666667 0  2.874782608695652 0.3166666666666667 0  2.891304347826087 0.3166666666666667 0  2.31304347826087 0.3333333333333333 0  2.329565217391304 0.3333333333333333 0  2.346086956521739 0.3333333333333333 0  2.362608695652174 0.3333333333333333 0  2.379130434782609 0.3333333333333333 0  2.395652173913044 0.3333333333333333 0  2.412173913043478 0.3333333333333333 0  2.428695652173913 0.3333333333333333 0  2.445217391304348 0.3333333333333333 0  2.461739130434782 0.3333333333333333 0  2.478260869565217 0.3333333333333333 0  2.494782608695652 0.3333333333333333 0  2.511304347826087 0.3333333333333333 0  2.527826086956522 0.3333333333333333 0  2.544347826086956 0.3333333333333333 0  2.560869565217391 0.3333333333333333 0  2.577391304347826 0.3333333333333333 0  2.593913043478261 0.3333333333333333 0  2.610434782608696 0.3333333333333333 0  2.62695652173913 0.3333333333333333 0  2.643478260869565 0.3333333333333333 0  2.66 0.3333333333333333 0  2.676521739130435 0.3333333333333333 0  2.693043478260869 0.3333333333333333 0  2.709565217391304 0.3333333333333333 0  2.726086956521739 0.3333333333333333 0  2.742608695652174 0.3333333333333333 0  2.759130434782609 0.3333333333333333 0  2.775652173913044 0.3333333333333333 0  2.792173913043478 0.3333333333333333 0  2.808695652173913 0.3333333333333333 0  2.825217391304347 0.3333333333333333 0  2.841739130434783 0.3333333333333333 0  2.858260869565217 0.3333333333333333 0  2.874782608695652 0.3333333333333333 0  2.891304347826087 0.3333333333333333 0  2.907826086956522 0.3333333333333333 0  2.329565217391304 0.35 0  2.346086956521739 0.35 0  2.362608695652174 0.35 0  2.379130434782609 0.35 0  2.395652173913044 0.35 0  2.412173913043478 0.35 0  2.428695652173913 0.35 0  2.445217391304348 0.35 0  2.461739130434782 0.35 0  2.478260869565217 0.35 0  2.494782608695652 0.35 0  2.511304347826087 0.35 0  2.527826086956522 0.35 0  2.544347826086956 0.35 0  2.560869565217391 0.35 0  2.577391304347826 0.35 0  2.593913043478261 0.35 0  2.610434782608696 0.35 0  2.62695652173913 0.35 0  2.643478260869565 0.35 0  2.66 0.35 0  2.676521739130435 0.35 0  2.693043478260869 0.35 0  2.709565217391304 0.35 0  2.726086956521739 0.35 0  2.742608695652174 0.35 0  2.759130434782609 0.35 0  2.775652173913044 0.35 0  2.792173913043478 0.35 0  2.808695652173913 0.35 0  2.825217391304347 0.35 0  2.841739130434783 0.35 0  2.858260869565217 0.35 0  2.874782608695652 0.35 0  2.891304347826087 0.35 0  2.907826086956522 0.35 0  2.924347826086957 0.35 0  2.346086956521739 0.3666666666666666 0  2.362608695652174 0.3666666666666666 0  2.379130434782609 0.3666666666666666 0  2.395652173913044 0.3666666666666666 0  2.412173913043478 0.3666666666666666 0  2.428695652173913 0.3666666666666666 0  2.445217391304348 0.3666666666666666 0  2.461739130434782 0.3
[...]
<PointData  Vectors="Displacement"> 
<DataArray  type="Float64"  Name="Displacement"  NumberOfComponents="3" format="ascii">3.9737668907678612e-05 3.7355619824065880e-03 0.0000000000000000e+00  8.7560050193331671e-06 3.7354301528437486e-03 0.0000000000000000e+00  9.4177237575745375e-06 3.7666434536617302e-03 0.0000000000000000e+00  3.4639665266901211e-05 3.0922343024874753e-03 0.0000000000000000e+00  3.4455150406196146e-05 3.1227999505147900e-03 0.0000000000000000e+00  5.9703659599399147e-06 3.1237004018016979e-03 0.0000000000000000e+00  6.5989634023180345e-06 3.0909172320589496e-03 0.0000000000000000e+00  3.3675664551536127e-05 3.1534915446817698e-03 0.0000000000000000e+00  4.7763835465973877e-06 3.1549023559174706e-03 0.0000000000000000e+00  3.2662487805673411e-05 3.1837742091292425e-03 0.0000000000000000e+00  3.4232649929075695e-06 3.1854610164064974e-03 0.0000000000000000e+00  3.1390217600849187e-05 3.2135306997232342e-03 0.0000000000000000e+00  1.8821394775124288e-06 3.2155188635656180e-03 0.0000000000000000e+00  2.9841456679780537e-05 3.2428492730753444e-03 0.0000000000000000e+00  8.8591757348291129e-08 3.2451563656385614e-03 0.0000000000000000e+00  2.8001199118587922e-05 3.2718406668421694e-03 0.0000000000000000e+00  -1.9902164877269235e-06 3.2744508660457628e-03 0.0000000000000000e+00  2.5887692751388251e-05 3.3005422455906915e-03 0.0000000000000000e+00  -4.3627796529469831e-06 3.3034424357831745e-03 0.0000000000000000e+00  2.3509394451535049e-05 3.3289740977579560e-03 0.0000000000000000e+00  -7.0328952994063903e-06 3.3321746727994679e-03 0.0000000000000000e+00  2.0877159199489315e-05 3.3573652613945169e-03 0.0000000000000000e+00  -9.9906366870167487e-06 3.3607749943601072e-03 0.0000000000000000e+00  1.8124737407992109e-05 3.3859919600821228e-03 0.0000000000000000e+00  -1.3162466053812610e-05 3.3893654206392527e-03 0.0000000000000000e+00  1.5689073036094447e-05 3.4155514484480332e-03 0.0000000000000000e+00  -1.6407586458131302e-05 3.4179558230099018e-03 0.0000000000000000e+00  1.5679797061331186e-05 3.4490412313215261e-03 0.0000000000000000e+00  -1.8095484631980616e-05 3.4492159368375340e-03 0.0000000000000000e+00  1.5630939532847434e-05 3.4827372102518659e-03 0.0000000000000000e+00  -1.8121577266045981e-05 3.4829963849788517e-03 0.0000000000000000e+00  1.5610570591362121e-05 3.5165576787152221e-03 0.0000000000000000e+00  -1.8161541488946388e-05 3.5167973497300447e-03 0.0000000000000000e+00  1.4402839471085965e-05 3.5490889008854090e-03 0.0000000000000000e+00  -1.8167304423424258e-05 3.5505997553906881e-03 0.0000000000000000e+00  1.2537361788609950e-05 3.5804432629612912e-03 0.0000000000000000e+00  -1.9628227084402198e-05 3.5822976206710080e-03 0.0000000000000000e+00  1.0890572505660218e-05 3.6115617522543592e-03 0.0000000000000000e+00  -2.1070592198294268e-05 3.6132433352315304e-03 0.0000000000000000e+00  9.6461799472967879e-06 3.6424761080698660e-03 0.0000000000000000e+00  -2.2151048290595411e-05 3.6437057887697809e-03 0.0000000000000000e+00  8.8681875279169879e-06 3.6733761450274717e-03 0.0000000000000000e+00  -2.2790336294072153e-05 3.6741240691367566e-03 0.0000000000000000e+00  8.5708583452952049e-06 3.7043484736796763e-03 0.0000000000000000e+00  -2.2977777231286343e-05 3.7046105908701927e-03 0.0000000000000000e+00  -2.2707154075706960e-05 3.7352068632099753e-03 0.0000000000000000e+00  -2.1984091743575547e-05 3.7659481079035397e-03 0.0000000000000000e+00  -2.0817296781604108e-05 3.7968433864667456e-03 0.0000000000000000e+00  -7.9798866815746067e-06 2.8379900589255991e-03 0.0000000000000000e+00  -4.3257842724432039e-06 2.8594720521862489e-03 0.0000000000000000e+00  -2.9748883176846337e-05 2.8540116986246322e-03 0.0000000000000000e+00  -3.3449369910780803e-05 2.8326946707173447e-03 0.0000000000000000e+00  -7.0268368930844523e-07 2.8809429747240485e-03 0.0000000000000000e+00  -2.6200452127356733e-05 2.8754466549707962e-03 0.0000000000000000e+00  2.6878590892474542e-06 2.9025684033185651e-03 0.0000000000000000e+00  -2.2968199448451262e-05 2.8975072803497435e-03 0.0000000000000000e+00  5.5851106959538367e-06 2.9248611939497646e-03 0.0000000000000000e+00  -2.1240715089691789e-05 2.9206242794802802e-03 0.0000000000000000e+00  6.7961220116367447e-06 2.9487819656552326e-03 0.0000000000000000e+00  -2.1252021761777556e-05 2.9486244968828543e-03 0.0000000000000000e+00  6.7398288409020662e-06 2.9770691559442282e-03 0.0000000000000000e+00  -2.1311930829334797e-05 2.9768483353840546e-03 0.0000000000000000e+00  6.7011468396855091e-06 3.0053997006175954e-03 0.0000000000000000e+00  -2.1395679708433324e-05 3.0051854381623519e-03 0.0000000000000000e+00  6.6317580332114155e-06 3.0338949616513875e-03 0.0000000000000000e+00  -2.1504444180548587e-05 3.0336697506262891e-03 0.0000000000000000e+00  6.5089803853005054e-06 3.0627049678931748e-03 0.0000000000000000e+00  -2.1608070763202519e-05 3.0623024713905800e-03 0.0000000000000000e+00  -2.1999641075918632e-05 3.0932995029742168e-03 0.0000000000000000e+00  -2.3230908984515241e-05 3.1252735204057819e-03 0.0000000000000000e+00  -2.4379197527244539e-05 3.1566888750231940e-03 0.0000000000000000e+00  -2.5784126589049948e-05 3.1874759604694166e-03 0.0000000000000000e+00  -2.7454601329698185e-05 3.2177964143208725e-03 0.0000000000000000e+00  -2.9414841638444986e-05 3.2477272592175131e-03 0.0000000000000000e+00  -3.1686738550121831e-05 3.2773191612908755e-03 0.0000000000000000e+00  -3.4282344302838276e-05 3.3066043203824730e-03 0.0000000000000000e+00  -3.7210035534670670e-05 3.3356188143547224e-03 0.0000000000000000e+00  -4.0468047455727810e-05 3.3644266830441731e-03 0.0000000000000000e+00  -4.4025672215286676e-05 3.3930675728677368e-03 0.0000000000000000e+00  -4.7831311069278283e-05 3.4214931347696128e-03 0.0000000000000000e+00  -5.1939727253265698e-05 3.4493613138177033e-03 0.0000000000000000e+00  -5.1910371669038200e-05 3.4832388353865716e-03 0.0000000000000000e+00  -5.1943700565863446e-05 3.5170337700916187e-03 0.0000000000000000e+00  -5.1977362041727361e-05 3.5507624815602308e-03 0.0000000000000000e+00  -5.1973584609853642e-05 3.5842567183621086e-03 0.0000000000000000e+00  -5.3368319603420363e-05 3.6149821733033943e-03 0.0000000000000000e+00  -5.4332732715022344e-05 3.6448555502087169e-03 0.0000000000000000e+00  -5.4852792882645589e-05 3.6747712513508805e-03 0.0000000000000000e+00  -5.4947947297175199e-05 3.7047721016029880e-03 0.0000000000000000e+00  -5.4598813430365018e-05 3.7348854708066596e-03 0.0000000000000000e+00  -5.3816090893422320e-05 3.7651674348232406e-03 0.0000000000000000e+00  -5.2612800861662594e-05 3.7956181781042811e-03 0.0000000000000000e+00  -5.1025527865916783e-05 3.8262858984424203e-03 0.0000000000000000e+00  -4.0744184948718993e-05 2.7895491528883943e-03 0.0000000000000000e+00  -3.7132019685286011e-05 2.8112922871941508e-03 0.0000000000000000e+00  -6.2339825787561921e-05 2.8062925028651381e-03 0.0000000000000000e+00  -5.8517318478546956e-05 2.8273841759192358e-03 0.0000000000000000e+00  -5.4755981450608724e-05 2.8484985159237422e-03 0.0000000000000000e+00  -5.1216289058753413e-05 2.8701442755868704e-03 0.0000000000000000e+00  -4.9123477060162069e-05 2.8927187880529916e-03 0.0000000000000000e+00  -4.9124166954596082e-05 2.9204645066404919e-03 0.0000000000000000e+00  -4.9176993766913627e-05 2.9484470426211721e-03 0.0000000000000000e+00  -4.9253467313925652e-05 2.9766236377957713e-03 0.0000000000000000e+00  -4.9342412958617541e-05 3.0049399903588577e-03 0.0000000000000000e+00  -4.9391547611082831e-05 3.0332561887137623e-03 0.0000000000000000e+00  -4.9607333972338643e-05 3.0642716379587018e-03 0.0000000000000000e+00  -5.0644900318155570e-05 3.0955092532798287e-03 0.0000000000000000e+00  -5.1873233831762617e-05 3.1272926590915754e-03 0.0000000000000000e+00  -5.3180800536498184e-05 3.1587071591279254e-03 0.0000000000000000e+00  -5.4683854293761652e-05 3.1897059275418456e-03 0.0000000000000000e+00  -5.6469316775919905e-05 3.2202963139286648e-03 0.0000000000000000e+00  -5.8567129606439367e-05 3.2505220467172568e-03 0.0000000000000000e+00  -6.0995356952528402e-05 3.2804154318808029e-03 0.0000000000000000e+00  -6.3765791806387205e-05 3.3099978679420488e-03 0.0000000000000000e+00  -6.6886020328034269e-05 3.3392907114888899e-03 0.0000000000000000e+00  -7.0355474521012137e-05 3.3683179504515122e-03 0.0000000000000000e+00  -7.4157390631175520e-05 3.3970710378946173e-03 0.0000000000000000e+00  -7.8256707991555875e-05 3.4254680072821606e-03 0.0000000000000000e+00  -8.2542634891005393e-05 3.4534225355739969e-03 0.0000000000000000e+00  -8.5590371899938537e-05 3.4835237429601345e-03 0.0000000000000000e+00  -8.5607881313102299e-05 3.5172965533843657e-03 0.0000000000000000e+00  -8.5659472223703880e-05 3.5509144720652194e-03 0.0000000000000000e+00  -8.5708031070514109e-05 3.5842724614091005e-03 0.0000000000000000e+00  -8.5811574141739775e-05 3.6169932125655248e-03 0.0000000000000000e+00  -8.6769133667862242e-05 3.6459266416538089e-03 0.0000000000000000e+00  -8.7213709256049867e-05 3.6753376969022103e-03 0.0000000000000000e+00  -8.7273927794716017e-05 3.7048500936123540e-03 0.0000000000000000e+00  -8.6882439917985313e-05 3.7344565762714305e-03 0.0000000000000000e+00  -8.6029077306362049e-05 3.7642974587405813e-03 0.0000000000000000e+00  -8.4790742436508437e-05 3.7943120367356152e-03 0.0000000000000000e+00  -8.3219199642017372e-05 3.8246412886509696e-03 0.0000000000000000e+00  -8.1847954319095499e-05 3.8558486395160116e-03 0.0000000000000000e+00  -8.3135724161699487e-05 2.8219951914932699e-03 0.0000000000000000e+00  -7.9303276030843835e-05 2.8431568420694692e-03 0.0000000000000000e+00  -7.6875876576370990e-05 2.8652185049078487e-03 0.0000000000000000e+00  -7.6841078597815070e-05 2.8926148561606822e-03 0.0000000000000000e+00  -7.6879866541827762e-05 2.9203140162380493e-03 0.0000000000000000e+00  -7.6941452348139937e-05 2.9482398032662886e-03 0.0000000000000000e+00  -7.7027110217074297e-05 2.9763596755530146e-03 0.0000000000000000e+00  -7.7123715555840871e-05 3.0046197708141929e-03 0.0000000000000000e+00  -7.7037790079957039e-05 3.0349962778222560e-03 0.0000000000000000e+00  -7.7821443016847205e-05 3.0662067901436191e-03 0.0000000000000000e+00  -7.8871240218690328e-05 3.0977694546698315e-03 0.0000000000000000e+00  -8.0158708681706553e-05 3.1294726464126126e-03 0.0000000000000000e+00  -8.1573818658078502e-05 3.1609617369848186e-03 0.0000000000000000e+00  -8.3199540908618529e-05 3.1921463709253823e-03 0.0000000000000000e+00  -8.5099323908080810e-05 3.2229983103075188e-03 0.0000000000000000e+00  -8.7314055411060544e-05 3.2535175200360321e-03 0.0000000000000000e+00  -8.9865244475969221e-05 3.2837136034772206e-03 0.0000000000000000e+00  -9.2765254586698128e-05 3.3135945941195205e-03 0.0000000000000000e+00  -9.6022074637079757e-05 3.3431680163946123e-03 0.0000000000000000e+00  -9.9641438387181581e-05 3.3724371619725454e-03 0.0000000000000000e+00  -1.0363286143214297e-04 3.4013788194929674e-03 0.0000000000000000e+00  -1.0803322369614722e-04 3.4299104446743507e-03 0.0000000000000000e+00  -1.1296977637541699e-04 3.4578116451079600e-03 0.0000000000000000e+00  -1.1899934792790368e-04 3.4838944104635654e-03 0.0000000000000000e+00  -1.1905962939641152e-04 3.5175870334479644e-03 0.0000000000000000e+00  -1.1904547440268933e-04 3.5511676081730922e-03 0.0000000000000000e+00  -1.1911378459378359e-04 3.5843314512945894e-03 0.0000000000000000e+00  -1.1914637048812825e-04 3.6169693060247713e-03 0.0000000000000000e+00  -1.1945501889371339e-04 3.6468005681123679e-03 0.0000000000000000e+00  -1.1980406552847923e-04 3.6758444032857348e-03 0.0000000000000000e+00  -1.1986466336707915e-04 3.7049244997097446e-03 0.0000000000000000e+00  -1.1959304533132170e-04 3.7339134297593494e-03 0.0000000000000000e+00  -1.1867964353091541e-04 3.7632863652822240e-03 0.0000000000000000e+00  -1.1726776273318546e-04 3.7930110935164461e-03 0.0000000000000000e+00  -1.1606658330665074e-04 3.8230642982105072e-03 0.0000000000000000e+00  -1.1577366758178031e-04 3.8558706999297318e-03 0.0000000000000000e+00  -1.1576742365615644e-04 3.8893862453880288e-03 0.0000000000000000e+00  -1.0448207287233042e-04 2.8382706556552648e-03 0.0000000000000000e+00  -1.0439849297318593e-04 2.8651785036475108e-03 0.0000000000000000e+00  -1.0440027307802175e-04 2.8924900907347350e-03 0.0000000000000000e+00  -1.0443720900667358e-04 2.9201342218513871e-03 0.0000000000000000e+00  -1.0451214128058492e-04 2.9479779807364804e-03 0.0000000000000000e+00  -1.0463664009838649e-04 2.9760773912331133e-03 0.0000000000000000e+00  -1.0455757384025580e-04 3.0036242480147011e-03 0.0000000000000000e+00  -1.0469414635795245e-04 3.0364512513073780e-03 0.0000000000000000e+00  -1.0561045578034315e-04 3.0682497703498376e-03 0.0000000000000000e+00  -1.0677177349886054e-04 3.1000002588179049e-03 0.0000000000000000e+00  -1.0810219293020319e-04 3.1317740704317689e-03 0.0000000000000000e+00  -1.0960261210074655e-04 3.1633890609609376e-03 0.0000000000000000e+00  -1.1132637403385059e-04 3.1947743088322524e-03 0.0000000000000000e+00  -1.1332434208602146e-04 3.2258834853003062e-03 0.0000000000000000e+00  -1.1563270364092049e-04 3.2566921786063054e-03 0.0000000000000000e+00  -1.1827277937126080e-04 3.2871878183337415e-03 0.0000000000000000e+00  -1.2125443056293507e-04 3.3173626207809062e-03 0.0000000000000000e+00  -1.2457978570878792e-04 3.3472103614364083e-03 0.0000000000000000e+00  -1.2824534940226125e-04 3.3767212250142100e-03 0.0000000000000000e+00  -1.3224550100926795e-04 3.4058685612347486e-03 0.0000000000000000e+00  -1.3658210709981646e-04 3.4345905378728209e-03 0.0000000000000000e+00  -1.4128541752085773e-04 3.4627577236115959e-03 0.0000000000000000e+00  -1.4647671325794371e-04 3.4901010500188278e-03 0.0000000000000000e+00  -1.5222491503609332e-04 3.5178277875090066e-03 0.0000000000000000e+00  -1.5205141239827522e-04 3.5515038280881251e-03 0.0000000000000000e+00  -1.5200954789607488e-04 3.5845762173184669e-03 0.0000000000000000e+00  -1.5215127029256741e-04 3.6168511257459982e-03 0.0000000000000000e+00  -1.5255128182608220e-04 3.6476190001569013e-03 0.0000000000000000e+00  -1.5258348814300768e-04 3.6762974368859430e-03 0.0000000000000000e+00  -1.5261645106342300e-04 3.7050584599033747e-03 0.0000000000000000e+00  -1.5242934875907827e-04 3.7336326323774622e-03 0.0000000000000000e+00  -1.5256852254354794e-04 3.7618015542669669e-03 0.0000000000000000e+00  -1.5016190217169591e-04 3.7917186682592209e-03 0.0000000000000000e+00  -1.4949351307515644e-04 3.8231175707026566e-03 0.0000000000000000e+00  -1.4937424199742072e-04 3.8558079903945426e-03 0.0000000000000000e+00  -1.4939359072185134e-04 3.8892695374877374e-03 0.0000000000000000e+00  -1.4952458439267211e-04 3.9230980956779628e-03 0.0000000000000000e+00  -1.3168569303026147e-04 2.8651003292758845e-03 0.0000000000000000e+00  -1.3170707502382976e-04 2.8923288928496913e-03 0.0000000000000000e+00  -1.3180153376463337e-04 2.9199022484410839e-03 0.0000000000000000e+00  -1.3193386002604873e-04 2.9477446154688052e-03 0.0000000000000000e+00  -1.3208118594238669e-04 2.9757485753228396e-03 0.0000000000000000e+00  -1.3189159619619547e-04 3.0063133760555938e-03 0.0000000000000000e+00  -1.3267762677227819e-04 3.0382756275591249e-03 0.0000000000000000e+00  -1.3342745638042220e-04 3.0703160123047670e-03 0.0000000000000000e+00  -1.3447665321566213e-04 3.1022497779229479e-03 0.0000000000000000e+00  -1.3577505291038718e-04 3.1341533928574876e-03 0.0000000000000000e+00  -1.3730334593864489e-04 3.1659432377271783e-03 0.0000000000000000e+00  -1.3908649284610010e-04 3.1975525332923428e-03 0.0000000000000000e+00  -1.4115389348962464e-04 3.2289267511553294e-03 0.0000000000000000e+00  -1.4352999871672948e-04 3.2600249348799411e-03 0.0000000000000000e+00  -1.4622961748916351e-04 3.2908166491121787e-03 0.0000000000000000e+00  -1.4925726362576404e-04 3.3212780643443497e-03 0.0000000000000000e+00  -1.5260807006093509e-04 3.3513890180467310e-03 0.0000000000000000e+00  -1.5626910612875325e-04 3.3811289530941242e-03 0.0000000000000000e+00  -1.6022227513132016e-04 3.4104702441665911e-03 0.0000000000000000e+00  -1.6445157331578615e-04 3.4393722359840314e-03 0.0000000000000000e+00  -1.6895769595210998e-04 3.4677830415415271e-03 0.0000000000000000e+00  -1.7378114077931200e-04 3.4956983180520112e-03 0.0000000000000000e+00  -1.7894054097126555e-04 3.5236813690506389e-03 0.0000000000000000e+00  -1.8421500245164498e-04 3.5519109294420053e-03 0.0000000000000000e+00  -1.8398444348535127e-04 3.5849722407892489e-03 0.0000000000000000e+00  -1.8387679096135444e-04 3.6169759491323141e-03 0.0000000000000000e+00  -1.8401966156289512e-04 3.6475918394644796e-03 0.0000000000000000e+00  -1.8445121898279224e-04 3.6768127509776644e-03 0.0000000000000000e+00  -1.8509988609066057e-04 3.7050559931182041e-03 0.0000000000000000e+00  -1.8434377308760525e-04 3.7330135636826989e-03 0.0000000000000000e+00  -1.8297804125448812e-04 3.7616663984453977e-03 0.0000000000000000e+00  -1.8257540688267621e-04 3.7917902367379311e-03 0.0000000000000000e+00  -1.8229666664236851e-04 3.8230734080589254e-03 0.0000000000000000e+00  -1.8232766394856088e-04 3.8556686402085980e-03 0.0000000000000000e+00  -1.8256733565748872e-04 3.8890683510373128e-03 0.0000000000000000e+00  -1.8279497368507480e-04 3.9228462208466697e-03 0.0000000000000000e+00  -1.8309568484328124e-04 3.9569741988801244e-03 0.0000000000000000e+00  -1.5867776382743996e-04 2.8920796476924996e-03 0.0000000000000000e+00  -1.5883766343720250e-04 2.9196325176875930e-03 0.0000000000000000e+00  -1.5904861321974965e-04 2.9474269237817494e-03 0.0000000000000000e+00  -1.5868681999298468e-04 2.9777104147113930e-03 0.0000000000000000e+00  -1.5917884945437696e-04 3.0084679263541799e-03 0.0000000000000000e+00  -1.5990193979503823e-04 3.0403254579304327e-03 0.0000000000000000e+00  -1.6075388393768655e-04 3.0723625400025300e-03 0.0000000000000000e+00  -1.6180242209955643e-04 3.1044727266744186e-03 0.0000000000000000e+00  -1.6310308286783895e-04 3.1365704812612370e-03 0.0000000000000000e+00  -1.6466035888739852e-04 3.1685835946567336e-03 0.0000000000000000e+00  -1.6648906409360079e-04 3.2004479432966330e-03 0.0000000000000000e+00  -1.6860753002060093e-04 3.2321034076230777e-03 0.0000000000000000e+00  -1.7103133981439698e-04 3.2634976810582052e-03 0.0000000000000000e+00  -1.7376909380481493e-04 3.2945859506821238e-03 0.0000000000000000e+00  -1.7682029021017366e-04 3.3253296504666594e-03 0.0000000000000000e+00  -1.8017479864185365e-04 3.3556951674536708e-03 0.0000000000000000e+00  -1.8381339887920870e-04 3.3856521128944293e-03 0.0000000000000000e+00  -1.8771007529964852e-04 3.4151717663974198e-03 0.0000000000000000e+00  -1.9183752889302395e-04 3.4442291853045703e-03 0.0000000000000000e+00  -1.9617609042997002e-04 3.4728169235325014e-03 0.0000000000000000e+00  -2.0071862138860429e-04 3.5009979840683924e-03 0.0000000000000000e+00  -2.0542749487305825e-04 3.5290618490491817e-03 0.0000000000000000e+00  -2.1013081033535182e-04 3.5571557924685420e-03 0.0000000000000000e+00  -2.1457069320197664e-04 3.5854850508317921e-03 0.0000000000000000e+00  -2.1421273235361344e-04 3.6173873506166682e-03 0.0000000000000000e+00  -2.1404886785198041e-04 3.6476466647445390e-03 0.0000000000000000e+00  -2.1400422657236759e-04 3.6768131528350915e-03 0.0000000000000000e+00  -2.1403518184954289e-04 3.7050673754988324e-03 0.0000000000000000e+00  -2.1391592290218627e-04 3.7330006273813866e-03 0.0000000000000000e+00  -2.1365310792773528e-04 3.7617005641140885e-03 0.0000000000000000e+00  -2.1356634393247760e-04 3.7917259772321773e-03 0.0000000000000000e+00  -2.1379393589994410e-04 3.8228811892367810e-03 0.0000000000000000e+00  -2.1425033570231014e-04 3.8553929623662332e-03 0.0000000000000000e+00  -2.1480436743592739e-04 3.8887213153079559e-03 0.0000000000000000e+00  -2.1539526885975220e-04 3.9224951323247490e-03 0.0000000000000000e+00  -2.1292445091940115e-04 3.9519530596145184e-03 0.0000000000000000e+00  -2.0954589269176285e-04 3.9811704047925216e-03 0.0000000000000000e+00  -1.8537955530396170e-04 2.9191383