<?xml version="1.0"?>
<VTKFile type="UnstructuredGrid"  version="0.1"  >
<UnstructuredGrid>
<Piece  NumberOfPoints="617" NumberOfCells="1135">
<Points>
<DataArray  type="Float64"  NumberOfComponents="3"  format="ascii">0 0 0  0.01652173913043478 0 0  0.01652173913043478 0.01666666666666667 0  0 0.01666666666666667 0  0.03304347826086956 0 0  0.03304347826086956 0.01666666666666667 0  0.04956521739130434 0 0  0.04956521739130434 0.01666666666666667 0  0.06608695652173913 0 0  0.06608695652173913 0.01666666666666667 0  0.08260869565217391 0 0  0.08260869565217391 0.01666666666666667 0  0.09913043478260869 0.01666666666666667 0  0.01652173913043478 0.03333333333333333 0  0 0.03333333333333333 0  0.03304347826086956 0.03333333333333333 0  0.04956521739130434 0.03333333333333333 0  0.06608695652173913 0.03333333333333333 0  0.08260869565217391 0.03333333333333333 0  0.09913043478260869 0.03333333333333333 0  0.1156521739130435 0.03333333333333333 0  0.01652173913043478 0.05 0  0 0.05 0  0.03304347826086956 0.05 0  0.04956521739130434 0.05 0  0.06608695652173913 0.05 0  0.08260869565217391 0.05 0  0.09913043478260869 0.05 0  0.1156521739130435 0.05 0  0.1321739130434783 0.05 0  0.01652173913043478 0.06666666666666667 0  0 0.06666666666666667 0  0.03304347826086956 0.06666666666666667 0  0.04956521739130434 0.06666666666666667 0  0.06608695652173913 0.06666666666666667 0  0.08260869565217391 0.06666666666666667 0  0.09913043478260869 0.06666666666666667 0  0.1156521739130435 0.06666666666666667 0  0.1321739130434783 0.06666666666666667 0  0.148695652173913 0.06666666666666667 0  0.01652173913043478 0.08333333333333333 0  0 0.08333333333333333 0  0.03304347826086956 0.08333333333333333 0  0.04956521739130434 0.08333333333333333 0  0.06608695652173913 0.08333333333333333 0  0.08260869565217391 0.08333333333333333 0  0.09913043478260869 0.08333333333333333 0  0.1156521739130435 0.08333333333333333 0  0.1321739130434783 0.08333333333333333 0  0.148695652173913 0.08333333333333333 0  0.1652173913043478 0.08333333333333333 0  0.01652173913043478 0.1 0  0 0.1 0  0.03304347826086956 0.1 0  0.04956521739130434 0.1 0  0.06608695652173913 0.1 0  0.08260869565217391 0.1 0  0.09913043478260869 0.1 0  0.1156521739130435 0.1 0  0.1321739130434783 0.1 0  0.148695652173913 0.1 0  0.1652173913043478 0.1 0  0.1817391304347826 0.1 0  0.01652173913043478 0.1166666666666667 0  0 0.1166666666666667 0  0.03304347826086956 0.1166666666666667 0  0.04956521739130434 0.1166666666666667 0  0.06608695652173913 0.1166666666666667 0  0.08260869565217391 0.1166666666666667 0  0.09913043478260869 0.1166666666666667 0  0.1156521739130435 0.1166666666666667 0  0.1321739130434783 0.1166666666666667 0  0.148695652173913 0.1166666666666667 0  0.1652173913043478 0.1166666666666667 0  0.1817391304347826 0.1166666666666667 0  0.1982608695652174 0.1166666666666667 0  0.01652173913043478 0.1333333333333333 0  0 0.1333333333333333 0  0.03304347826086956 0.1333333333333333 0  0.04956521739130434 0.1333333333333333 0  0.06608695652173913 0.1333333333333333 0  0.08260869565217391 0.1333333333333333 0  0.09913043478260869 0.1333333333333333 0  0.1156521739130435 0.1333333333333333 0  0.1321739130434783 0.1333333333333333 0  0.148695652173913 0.1333333333333333 0  0.1652173913043478 0.1333333333333333 0  0.1817391304347826 0.1333333333333333 0  0.1982608695652174 0.1333333333333333 0  0.2147826086956522 0.1333333333333333 0  0.01652173913043478 0.15 0  0 0.15 0  0.03304347826086956 0.15 0  0.04956521739130434 0.15 0  0.06608695652173913 0.15 0  0.08260869565217391 0.15 0  0.09913043478260869 0.15 0  0.1156521739130435 0.15 0  0.1321739130434783 0.15 0  0.148695652173913 0.15 0  0.1652173913043478 0.15 0  0.1817391304347826 0.15 0  0.1982608695652174 0.15 0  0.2147826086956522 0.15 0  0.2313043478260869 0.15 0  0.01652173913043478 0.1666666666666667 0  0 0.1666666666666667 0  0.03304347826086956 0.1666666666666667 0  0.04956521739130434 0.1666666666666667 0  0.06608695652173913 0.1666666666666667 0  0.08260869565217391 0.1666666666666667 0  0.09913043478260869 0.1666666666666667 0  0.1156521739130435 0.1666666666666667 0  0.1321739130434783 0.1666666666666667 0  0.148695652173913 0.1666666666666667 0  0.1652173913043478 0.1666666666666667 0  0.1817391304347826 0.1666666666666667 0  0.1982608695652174 0.1666666666666667 0  0.2147826086956522 0.1666666666666667 0  0.2313043478260869 0.1666666666666667 0  0.2478260869565218 0.1666666666666667 0  0.01652173913043478 0.1833333333333333 0  0 0.1833333333333333 0  0.03304347826086956 0.1833333333333333 0  0.04956521739130434 0.1833333333333333 0  0.06608695652173913 0.1833333333333333 0  0.08260869565217391 0.1833333333333333 0  0.09913043478260869 0.1833333333333333 0  0.1156521739130435 0.1833333333333333 0  0.1321739130434783 0.1833333333333333 0  0.148695652173913 0.1833333333333333 0  0.1652173913043478 0.1833333333333333 0  0.1817391304347826 0.1833333333333333 0  0.1982608695652174 0.1833333333333333 0  0.2147826086956522 0.1833333333333333 0  0.2313043478260869 0.1833333333333333 0  0.2478260869565218 0.1833333333333333 0  0.2643478260869565 0.1833333333333333 0  0.01652173913043478 0.2 0  0 0.2 0  0.03304347826086956 0.2 0  0.04956521739130434 0.2 0  0.06608695652173913 0.2 0  0.08260869565217391 0.2 0  0.09913043478260869 0.2 0  0.1156521739130435 0.2 0  0.1321739130434783 0.2 0  0.148695652173913 0.2 0  0.1652173913043478 0.2 0  0.1817391304347826 0.2 0  0.1982608695652174 0.2 0  0.2147826086956522 0.2 0  0.2313043478260869 0.2 0  0.2478260869565218 0.2 0  0.2643478260869565 0.2 0  0.2808695652173913 0.2 0  0.01652173913043478 0.2166666666666667 0  0 0.2166666666666667 0  0.03304347826086956 0.2166666666666667 0  0.04956521739130434 0.2166666666666667 0  0.06608695652173913 0.2166666666666667 0  0.08260869565217391 0.2166666666666667 0  0.09913043478260869 0.2166666666666667 0  0.1156521739130435 0.2166666666666667 0  0.1321739130434783 0.2166666666666667 0  0.148695652173913 0.2166666666666667 0  0.1652173913043478 0.2166666666666667 0  0.1817391304347826 0.2166666666666667 0  0.1982608695652174 0.2166666666666667 0  0.2147826086956522 0.2166666666666667 0  0.2313043478260869 0.2166666666666667 0  0.2478260869565218 0.2166666666666667 0  0.2643478260869565 0.2166666666666667 0  0.2808695652173913 0.2166666666666667 0  0.2973913043478261 0.2166666666666667 0  0.01652173913043478 0.2333333333333333 0  0 0.2333333333333333 0  0.03304347826086956 0.2333333333333333 0  0.04956521739130434 0.2333333333333333 0  0.06608695652173913 0.2333333333333333 0  0.08260869565217391 0.2333333333333333 0  0.09913043478260869 0.2333333333333333 0  0.1156521739130435 0.2333333333333333 0  0.1321739130434783 0.2333333333333333 0  0.148695652173913 0.2333333333333333 0  0.1652173913043478 0.2333333333333333 0  0.1817391304347826 0.2333333333333333 0  0.1982608695652174 0.2333333333333333 0  0.2147826086956522 0.2333333333333333 0  0.2313043478260869 0.2333333333333333 0  0.2478260869565218 0.2333333333333333 0  0.2643478260869565 0.2333333333333333 0  0.2808695652173913 0.2333333333333333 0  0.2973913043478261 0.2333333333333333 0  0.01652173913043478 0.25 0  0 0.25 0  0.03304347826086956 0.25 0  0.04956521739130434 0.25 0  0.06608695652173913 0.25 0  0.08260869565217391 0.25 0  0.09913043478260869 0.25 0  0.1156521739130435 0.25 0  0.1321739130434783 0.25 0  0.148695652173913 0.25 0  0.1652173913043478 0.25 0  0.1817391304347826 0.25 0  0.1982608695652174 0.25 0  0.2147826086956522 0.25 0  0.2313043478260869 0.25 0  0.2478260869565218 0.25 0  0.2643478260869565 0.25 0  0.2808695652173913 0.25 0  0.2973913043478261 0.25 0  0.01652173913043478 0.2666666666666667 0  0 0.2666666666666667 0  0.03304347826086956 0.2666666666666667 0  0.04956521739130434 0.2666666666666667 0  0.06608695652173913 0.2666666666666667 0  0.08260869565217391 0.2666666666666667 0  0.09913043478260869 0.2666666666666667 0  0.1156521739130435 0.2666666666666667 0  0.1321739130434783 0.2666666666666667 0  0.148695652173913 0.2666666666666667 0  0.1652173913043478 0.2666666666666667 0  0.1817391304347826 0.2666666666666667 0  0.1982608695652174 0.2666666666666667 0  0.2147826086956522 0.2666666666666667 0  0.2313043478260869 0.2666666666666667 0  0.2478260869565218 0.2666666666666667 0  0.2643478260869565 0.2666666666666667 0  0.2808695652173913 0.2666666666666667 0  0.2973913043478261 0.2666666666666667 0  0.3139130434782609 0.2666666666666667 0  0.01652173913043478 0.2833333333333333 0  0 0.2833333333333333 0  0.03304347826086956 0.2833333333333333 0  0.04956521739130434 0.2833333333333333 0  0.06608695652173913 0.2833333333333333 0  0.08260869565217391 0.2833333333333333 0  0.09913043478260869 0.2833333333333333 0  0.1156521739130435 0.2833333333333333 0  0.1321739130434783 0.2833333333333333 0  0.148695652173913 0.2833333333333333 0  0.1652173913043478 0.2833333333333333 0  0.1817391304347826 0.2833333333333333 0  0.1982608695652174 0.2833333333333333 0  0.2147826086956522 0.2833333333333333 0  0.2313043478260869 0.2833333333333333 0  0.2478260869565218 0.2833333333333333 0  0.2643478260869565 0.2833333333333333 0  0.2808695652173913 0.2833333333333333 0  0.2973913043478261 0.2833333333333333 0  0.3139130434782609 0.2833333333333333 0  0.3304347826086956 0.2833333333333333 0  0.01652173913043478 0.3 0  0 0.3 0  0.03304347826086956 0.3 0  0.04956521739130434 0.3 0  0.06608695652173913 0.3 0  0.08260869565217391 0.3 0  0.09913043478260869 0.3 0  0.1156521739130435 0.3 0  0.1321739130434783 0.3 0  0.148695652173913 0.3 0  0.1652173913043478 0.3 0  0.1817391304347826 0.3 0  0.1982608695652174 0.3 0  0.2147826086956522 0.3 0  0.2313043478260869 0.3 0  0.2478260869565218 0.3 0  0.2643478260869565 0.3 0  0.2808695652173913 0.3 0  0.2973913043478261 0.3 0  0.3139130434782609 0.3 0  0.3304347826086956 0.3 0  0.3469565217391304 0.3 0  0.01652173913043478 0.3166666666666667 0  0 0.3166666666666667 0  0.03304347826086956 0.3166666666666667 0  0.04956521739130434 0.31666666
[...]
<CellData  Scalars="rho_bar"> 
<DataArray  type="Float64"  Name="rho_bar"  format="ascii">9.8081961309897736e-01   9.8008995263534471e-01   9.7981408031196793e-01   9.7927160800928692e-01   9.7826161318887417e-01   9.7786483571259375e-01   9.7601449837556242e-01   9.7574413379515146e-01   9.7294562499939929e-01   9.7278454909116752e-01   9.6884414331712110e-01   9.7581049636114203e-01   9.7270224197560795e-01   9.7463114348221702e-01   9.7167232774995094e-01   9.7255749045753637e-01   9.6959718341819812e-01   9.6947234742277555e-01   9.6635266232582506e-01   9.6520156822033154e-01   9.6174017687011404e-01   9.5953104426224856e-01   9.5550059392140718e-01   9.4733155744552489e-01   9.6097587560636444e-01   9.5238303424163806e-01   9.5884555137474359e-01   9.5036688990454021e-01   9.5494106625495634e-01   9.4609591839908869e-01   9.4898484268990446e-01   9.3923084781004751e-01   9.4056166696832566e-01   9.2925679760441204e-01   9.2915501922845456e-01   9.1549168928038605e-01   9.1420996068590488e-01   8.9718754266928014e-01   8.7365965662614642e-01   9.2009153785817621e-01   8.9493908411167911e-01   9.1498167075568559e-01   8.9001347414195220e-01   9.0532010617036918e-01   8.7885021067652580e-01   8.9042450194205214e-01   8.6073830840842636e-01   8.6925908058942203e-01   8.3458931381286139e-01   8.4072386885067063e-01   7.9918244207493283e-01   8.0411651961403485e-01   7.5395447192608389e-01   7.5950542757536232e-01   6.9967555267755199e-01   6.3852403209613950e-01   8.0163612928589845e-01   7.2951220147875184e-01   7.8891849769317079e-01   7.1906107001189612e-01   7.6421530014934647e-01   6.9258661402890143e-01   7.2766599086523032e-01   6.5170246956500621e-01   6.7929593603880045e-01   5.9832688751657659e-01   6.2000290658066870e-01   5.3501269793597050e-01   5.5278154099427312e-01   4.6607361161233002e-01   4.8234409089224517e-01   3.9713069485563474e-01   4.1366504502497164e-01   3.3323302086499457e-01   2.7745386383941789e-01   5.2792127834229385e-01   4.1300187110453718e-01   5.0953247621732800e-01   4.0313061687510726e-01   4.7257108845612411e-01   3.7427445992009950e-01   4.2298082481224569e-01   3.3314200026275881e-01   3.6660747156653850e-01   2.8661525155013323e-01   3.0870543157706432e-01   2.3990266970691071e-01   2.5421744286636638e-01   1.9677120648809293e-01   2.0679281376947747e-01   1.5973871330558859e-01   1.6793288156037703e-01   1.2969032750476348e-01   1.3735750117988427e-01   1.0621750479271565e-01   8.8329872457296940e-02   2.2285437059574281e-01   1.5801667471247877e-01   2.1265734098878597e-01   1.5392286063025670e-01   1.9179534410993485e-01   1.4147611947806765e-01   1.6579431356827129e-01   1.2423885781041047e-01   1.3928391430691367e-01   1.0582395190830921e-01   1.1495767260243253e-01   8.8506383250653353e-02   9.4101175453333324e-02   7.3347775997417694e-02   7.7111564877623537e-02   6.0747400673043787e-02   6.3754752062843242e-02   5.0660381657662762e-02   5.3485459382163751e-02   4.2783123149833090e-02   4.5740294749278841e-02   3.6744373592253805e-02   3.2232066502226771e-02   7.8405599722771738e-02   5.7349438387066284e-02   7.4976354997032063e-02   5.5825465067174090e-02   6.8498100341972706e-02   5.2051810740937621e-02   6.0451266448787302e-02   4.6835743706688165e-02   5.2194409040890198e-02   4.1137433732284991e-02   4.4540147852218055e-02   3.5633625045297532e-02   3.7855460153434696e-02   3.0673341935901620e-02   3.2251748151316678e-02   2.6402694291814150e-02   2.7692062942306726e-02   2.2847626633582249e-02   2.4065446473519207e-02   1.9963577102754634e-02   2.1247665207197394e-02   1.7678928694571432e-02   1.9134569530333660e-02   1.5925772670580818e-02   1.4651366931607578e-02   3.1345606978136209e-02   2.4306209403411910e-02   3.0176861792071654e-02   2.3701545292828984e-02   2.8150412600178330e-02   2.2443535136744592e-02   2.5594865603998193e-02   2.0710956875844708e-02   2.2862901052604960e-02   1.8750452295396933e-02   2.0210831141743272e-02   1.6769478445439596e-02   1.7787354522575065e-02   1.4902566224082084e-02   1.5664192642056443e-02   1.3224779990718395e-02   1.3863358392165542e-02   1.1770355474967192e-02   1.2378046398194042e-02   1.0547168049204166e-02   1.1189662773964638e-02   9.5493084345527265e-03   1.0278920795781682e-02   8.7667715747393009e-03   9.6304797749275223e-03   8.1907556347035650e-03   7.8156090681659272e-03   1.4817752610561181e-02   1.2011962782813954e-02   1.4358128453586352e-02   1.1749027177606508e-02   1.3598752537620157e-02   1.1247424034024248e-02   1.2629787667457060e-02   1.0558929547330941e-02   1.1559018245152750e-02   9.7600176908809455e-03   1.0478037917473943e-02   8.9240813222666408e-03   9.4511338179712051e-03   8.1074006165702851e-03   8.5180343539399440e-03   7.3479104048591636e-03   7.7000603768708461e-03   6.6686126221406168e-03   7.0063205535774347e-03   6.0817170489622114e-03   6.4392584822473529e-03   5.5927440093754711e-03   5.9988198932882332e-03   5.2040263601499884e-03   5.6849653590340405e-03   4.9171085003333805e-03   5.4992661987007859e-03   4.7342782658044823e-03   4.6599398299983505e-03   7.9275084238061514e-03   6.6237191555475992e-03   7.7196741284541919e-03   6.4970484046421853e-03   7.3849284355952741e-03   6.2654916925253545e-03   6.9547000676941986e-03   5.9484167057095782e-03   6.4686032873863871e-03   5.5745835944392029e-03   5.9640606955002956e-03   5.1740153164678100e-03   5.4709682800213703e-03   4.7725093048746675e-03   5.0107851289447752e-03   4.3897793567648389e-03   4.5977038471364208e-03   4.0397413000499592e-03   4.2405133114657087e-03   3.7316418547915882e-03   3.9445857971439615e-03   3.4714951554434851e-03   3.7135879385801675e-03   3.2634793222142524e-03   3.5507877053709480e-03   3.1110978878086718e-03   3.4601443440525630e-03   3.0181304751634025e-03   3.4475342466574830e-03   2.9896454668515760e-03   3.0333483558912552e-03   4.6209837833265386e-03   3.9470791322554601e-03   4.5164147644746249e-03   3.8807337242000610e-03   4.3502959242306388e-03   3.7621049548607192e-03   4.1358337596505762e-03   3.5998621753363766e-03   3.8900115707114591e-03   3.4066351987319548e-03   3.6300092631029956e-03   3.1962925140092573e-03   3.3708286842327180e-03   2.9817017624130648e-03   3.1243757689641848e-03   2.7735985174433589e-03   2.8995259382492713e-03   2.5803434201570911e-03   2.7026802395982395e-03   2.4081987303881084e-03   2.5385203787640304e-03   2.2618466789477627e-03   2.4107864518152547e-03   2.1450081362561590e-03   2.3229851731258210e-03   2.0610428162590377e-03   2.2791076444363093e-03   2.0135538026614655e-03   2.2844915257154742e-03   2.0070900501804978e-03   2.3470495144791281e-03   2.0481037391943588e-03   2.1463814041745161e-03   2.8782170586624444e-03   2.5082131711318912e-03   2.8215379608255370e-03   2.4713826383957831e-03   2.7321043321865981e-03   2.4061743660543648e-03   2.6162559933558065e-03   2.3169555209257269e-03   2.4821870690121088e-03   2.2099547454736109e-03   2.3385649822844912e-03   2.0922246369527880e-03   2.1934375474042958e-03   1.9706584428480331e-03   2.0536695664903856e-03   1.8513819705276002e-03   1.9248085750828742e-03   1.7395154346538523e-03   1.8112403978103801e-03   1.6392072172657767e-03   1.7165006107230779e-03   1.5538391361973821e-03   1.6436558436381857e-03   1.4863179518427650e-03   1.5957229445778295e-03   1.4394215101645878e-03   1.5761443214820233e-03   1.4161902457275268e-03   1.5894000571839773e-03   1.4204224842139803e-03   1.6418714713422060e-03   1.4573525754547664e-03   1.7431315664171354e-03   1.5346470687509850e-03   1.6639032835276402e-03   1.9157797317179413e-03   1.7112172639680682e-03   1.8835904517074409e-03   1.6901285667862231e-03   1.8327826562885144e-03   1.6526564736806229e-03   1.7667032126827795e-03   1.6011900902310713e-03   1.6896816056439440e-03   1.5390887345935703e-03   1.6064303976564120e-03   1.4702216899660449e-03   1.5215247057660383e-03   1.3985148514390104e-03   1.4390751906964371e-03   1.3276189602527922e-03   1.3626096981759002e-03   1.2607513236661246e-03   1.2951054279061978e-03   1.2006768201362015e-03   1.2391311668473418e-03   1.1497929359409278e-03   1.1970554865431476e-03   1.1102890852940580e-03   1.1713079663830529e-03   1.0843554061649048e-03   1.1647078400757677e-03   1.0744514621558174e-03   1.1808984842652302e-03   1.0836566888509404e-03   1.2249581372700954e-03   1.1161541010836474e-03   1.3042914084374095e-03   1.1779228276305258e-03   1.4299555778401088e-03   1.2777544466565395e-03   1.3924754576553394e-03   1.2898096891522113e-03   1.3738466612687732e-03   1.2778034981197981e-03   1.3440486025666500e-03   1.2558090616285099e-03   1.3049915110047443e-03   1.2252357599868916e-03   1.2591437265883413e-03   1.1880412234572041e-03   1.2092414593725101e-03   1.1465036888394107e-03   1.1580236192641480e-03   1.1029880403172841e-03   1.1080499773688599e-03   1.0597687831273078e-03   1.0616171000714697e-03   1.0189294195722689e-03   1.0207644619198103e-03   9.8234307928659324e-04   9.8734691426848086e-04   9.5171581434996821e-04   9.6316121943774828e-04   9.2868169918583422e-04   9.5012007842086609e-04   9.1494202604854534e-04   9.5048226425171491e-04   9.1245217549534006e-04   9.6716576153446242e-04   9.2367383637880320e-04   1.0041801734292845e-03   9.5192079659309290e-04   1.0672424666038035e-03   1.0018420548730937e-03   1.1646652383285282e-03   1.0801099310580595e-03   1.1511437501237792e-03   1.1219039803477074e-03   1.1405968236411119e-03   1.1156122011967862e-03   1.1229437098752547e-03   1.1028096209842019e-03   1.0993753292564354e-03   1.0844150695492548e-03   1.0714197875661725e-03   1.0616842914678267e-03   1.0407822509107751e-03   1.0360740043092545e-03   1.0091985206750864e-03   1.0091088475506337e-03   9.7833241594811248e-04   9.8227987177539012e-04   9.4972567140189914e-04   9.5698849558659138e-04   9.2480016736731286e-04   9.3453467055254794e-04   9.0490497685421839e-04   9.1614797609748634e-04   8.9140074210419795e-04   9.0305259370177210e-04   8.8578149308209835e-04   8.9656522983256476e-04   8.8984102800129100e-04   8.9823088175469028e-04   9.0589716550997553e-04   9.1000426954224623e-04   9.3710123635022452e-04   9.3449863853845559e-04   9.8786347497599545e-04   9.7532436408992560e-04   1.0644487301576140e-03   1.0375553177433292e-03   1.1283775863512439e-03   1.1254757582224353e-03   1.1615501039158908e-03   1.1201772453587307e-03   1.1593071955751872e-03   1.1099382088586979e-03   1.1523296518794503e-03   1.0956162967444528e-03   1.1413353775057802e-03   1.0782822601430053e-03   1.1272672514557266e-03   1.0591119233372014e-03   1.1111847270748015e-03   1.0392943052425655e-03   1.0941734083668355e-03   1.0199740205461463e-03   1.0772842615796726e-03   1.0022270220563178e-03   1.0615070272309696e-03   9.8706976048345933e-04   1.0477729985530779e-03   9.7549612910198882e-04   1.0369840201767252e-03   9.6854165716641369e-04   1.0300644451629408e-03   9.6737292522575580e-04   1.0280360413701748e-03   9.7340985969051545e-04   1.0321176517586945e-03   9.8848912764316682e-04   1.0438599426234509e-03   1.0150844555463718e-03   1.0653230551939416e-03   1.0566036352478753e-03   1.0993160878201133e-03   1.1177919196453832e-03   1.1497182591201950e-03   1.2052739216025518e-03   1.2219057753182934e-03   1.3233286041172002e-03   1.3067385520233981e-03   1.4165010267662057e-03   1.3052792012377907e-03   1.4176553428996972e-03   1.2998260425128077e-03   1.4146705559971366e-03   1.2911716085157164e-03   1.4083026731334914e-03   1.2802407255781598e-03   1.3994667060476507e-03   1.2679862656146525e-03   1.3891087427371645e-03   1.2553269887129351e-03   1.3781306079467383e-03   1.2431159472372428e-03   1.3673557114459440e-03   1.2321426174079250e-03   1.3575296302302245e-03   1.2231534412847659e-03   1.3493424536255407e-03   1.2168914751408842e-03   1.3434664080403289e-03   1.2141489822801424e-03   1.3406040284144423e-03   1.2158397346272863e-03   1.3415503190284438e-03   1.2230892346336640e-03   1.3472700098006542e-03   1.2373559306968394e-03   1.3589967737452199e-03   1.2605888653097106e-03   1.3783629908908546e-03   1.2954375069979863e-03   1.4075704028709733e-03   1.3455274424250237e-03   1.4496120772705496e-03   1.4158232635252319e-03   1.5085668853187008e-03   1.5130983237743065e-03   1.5899714013291506e-03   1.7013082649918868e-03   1.7392893110263633e-03   1.9512134625720825e-03   1.7411163553346948e-03   1.9558485333393398e-03   1.7389080328203109e-03   1.9558338009095333e-03   1.7336807897403942e-03   1.9522894429104699e-03   1.7264918984948962e-03   1.9464152792281234e-03   1.7183139758145589e-03   1.9393072069059257e-03   1.7099838587047826e-03   1.9318800959796918e-03   1.7022102793174893e-03   1.9248725686504355e-03   1.6956032697736151e-03   1.9188865232209985e-03   1.6907216045656723e-03   1.9144436355294390e-03   1.6881206213326355e-03   1.9120412573061269e-03   1.6884073045144244e-03   1.9122092642531426e-03   1.6922975652736076e-03   1.9155645185555017e-03   1.7006891585426257e-03   1.9228739032888897e-03   1.7147487739260882e-03   1.9351278637691600e-03   1.7360270882871983e-03   1.9536346994500210e-03   1.7666083017522792e-03   1.9801422219303724e-03   1.8093048595795897e-03   2.0169993210527267e-03   1.8679059481523646e-03   2.0673585149632284e-03   1.9474963190195566e-03   2.1354404963037170e-03   2.0548486721994504e-03   2.2268559274001075e-03   2.3490180185753769e-03   2.5408926040949398e-03   2.9176052433046774e-03   2.5460006541322472e-03   2.9264544445753034e-03   2.5459104839814974e-03   2.9286402082170540e-03   2.5423453926416251e-03   2.9262905725190272e-03   2.5368733563761021e-03   2.9214072119561805e-03   2.5307404865447447e-03   2.9155711811529555e-03   2.5248630877110156e-03   2.9099070552316736e-03   2.5198922113124586e-03   2.9051632370012538e-03   2.5163114419186131e-03   2.9018397495531841e-03   2.5145219691397650e-03   2.9003051328016067e-03   2.5149200598314474e-03   2.9008945915360977e-03   2.5179554504526753e-03   2.9039807008469456e-03   2.5241874981916700e-03   2.9100317185891162e-03   2.5343371706022387e-03   2.9196590274521684e-03   2.5493528197672601e-03   2.9336711070363005e-03   2.5704893587449366e-03   2.9531373401716150e-03   2.5994166313604173e-03   2.9794745176166095e-03   2.6383620898774241e-03   3.0145640755066421e-03   2.6902949341135744e-03   3.0609098248865086e-03   2.7591548684747507e-03   3.1218324654027217e-03   2.8501463986215082e-03   3.2017264007247101e-03   2.9700688762427439e-03   3.3063424617591317e-03   3.4431484241308698e-03   3.9653774046920142e-03   4.6412547897671935e-03   3.9739174310250347e-03   4.6555530521191447e-03   3.9743751854837486e-03   4.6584524009080138e-03   3.9702089070573175e-03   4.6546511280589776e-03   3.9641688738865756e-03   4.6479890384293768e-03   3.9581300178928563e-03   4.6410851321506148e-03   3.9532266320215269e-03   4.6354831979475621e-03   3.9500799544620645e-03   4.6319716867345108e-03   3.9490168730916299e-03   4.6308907908464494e-03   3.9502459673766655e-03   4.6323829374890890e-03   3.9539787289466664e-03   4.6365600009287238e-03   3.9605077998405812e-03   4.6436115237197349e-03   3.9702550074387144e-03   4.6538591379130020e-03   3.9838081684952353e-03   4.6677912905053482e-03   4.0019592619009838e-03   4.6860876983816600e-03   4.0257513088383379e-03   4.7096519250827704e-03   4.0565558476936469e-03   4.7396639555039449e-03   4.0961761280123004e-03   4.7776653998426481e-03   4.1470042359749403e-03   4.8256876055894852e-03   4.2122202740930616e-03   4.8864413398600629e-03   4.2960478595419115e-03   4.9635496036537028e-03   4.4040293812406903e-03   5.0618369566199821e-03   4.5432965730599724e-03   5.1875595587350569e-03   5.3486887322188358e-03   6.5707342914824761e-03   7.8559309979668607e-03   6.5816210774908923e-03   7.8760792016637771e-03   6.5784087165405803e-03   7.8743767252767091e-03   6.5687891082844216e-03   7.8623013003496153e-03   6.5580294600063741e-03   7.8478171995487751e-03   6.5491695048305260e-03   7.8355153704608282e-03   6.5436334405041593e-03   7.8275314818422610e-03   6.5418705903712146e-03   7.8244966353774280e-03   6.5438498387567056e-03   7.8262848166076350e-03   6.5494047498209501e-03   7.8325165140233338e-03   6.5584390850636012e-03   7.8428677312767474e-03   6.5710316886220766e-03   7.8572239397574403e-03   6.5874674694040162e-03   7.8757286527553951e-03   6.6082422578716002e-03   7.8987751908487381e-03   6.6340518983622242e-03   7.9269754492430986e-03   6.6658070432859184e-03   7.9611435763201951e-03   6.7046550857963174e-03   8.0022919875919439e-03   6.7520675658376654e-03   8.0516803704884909e-03   6.8099767723930390e-03   8.1109290953384674e-03   6.8810260749491937e-03   8.1822494230647299e-03   6.9688852250979422e-03   8.2687922440512780e-03   7.0785815755779018e-03   8.3750347477477005e-03   7.2167012717192667e-03   8.5070732084019853e-03   7.3914535272165231e-03   8.6726316849637889e-03   8.8810654738144396e-03   1.1703109074235466e-02   1.4405204097922486e-02   1.1707322008336799e-02   1.4421522066835378e-02   1.1685798042829458e-02   1.4393503429670168e-02   1.1656824384916517e-02   1.4351280696668821e-02   1.1630904709423085e-02   1.4311959118749678e-02   1.1612882215214037e-02   1.4283423266037947e-02   1.1604136565030671e-02   1.4267999089641801e-02   1.1604235497378499e-02   1.4265109750826959e-02   1.1612065044738417e-02   1.4273019118323021e-02   1.1626500025712872e-02   1.4289874419767526e-02   1.1646763703990854e-02   1.4314263819499375e-02   1.1672543941301921e-02   1.4345424278856916e-02   1.1703967542937566e-02   1.4383223771874452e-02   1.1741502299132929e-02   1.4428015626751693e-02   1.1785858766548158e-02   1.4480480465322992e-02   1.1837895102846996e-02   1.4541459618687675e-02   1.1898579159051027e-02   1.4611855473592006e-02   1.1968986125460252e-02   1.4692558700928407e-02   1.2050472681493347e-02   1.4784547710355813e-02   1.2145054480539742e-02   1.4889239311892967e-02   1.2256071491509620e-02   1.5009233455154694e-02   1.2388891537257977e-02   1.5149304705840269e-02   1.2551082146386078e-02   1.5316944961723197e-02   1.2751924696802962e-02   1.5521904817383001e-02   1.3001991417973981e-02   1.5775264302090534e-02   1.6089014230589851e-02   2.3065425737535918e-02   2.9623029596828634e-02   2.3011244065703949e-02   2.9555616726818664e-02   2.2914344506269484e-02   2.9405830557853070e-02   2.2819347244833268e-02   2.9253482076681180e-02   2.2746499881067649e-02   2.9133308976300225e-02   2.2701962561525277e-02   2.9055975465073533e-02   2.2684592342548944e-02   2.9020116306750068e-02   2.2690204231008534e-02   2.9019288243576181e-02   2.2714023550909759e-02   2.9045895210253317e-02   2.2752074212749624e-02   2.9093344263187524e-02   2.2801756817026255e-02   2.9157045577561120e-02   2.2861891324798340e-02   2.9234587544989109e-02   2.2932427382928278e-02   2.9325363352659669e-02   2.3014041915273807e-02   2.9429974286235387e-02   2.3107745825253285e-02   2.9549602094143489e-02   2.3214565273222094e-02   2.9685507820579903e-02   2.3335231176137426e-02   2.9838544732247105e-02   2.3469975056489057e-02   3.0008757977638811e-02   2.3618600015063704e-02   3.0195187092082947e-02   2.3781290464470885e-02   3.0396498676092305e-02   2.3960421660653097e-02   3.0613001077847510e-02   2.4163233041009934e-02   3.0850330973587994e-02   2.4402088506679277e-02   3.1121721905032925e-02   2.4691648202385542e-02   3.1445207495200404e-02   2.5046863304398263e-02   3.1839306366783088e-02   2.5481937401863875e-02   3.2320817955463543e-02   3.2904170435036406e-02   5.2358413829744280e-02   7.1138434745461721e-02   5.1964557922764151e-02   7.0458912226547363e-02   5.1551929694961959e-02   6.9751786726272733e-02   5.1216818573301966e-02   6.9175326305386128e-02   5.0988000202370883e-02   6.8773042274229174e-02   5.0862537281531096e-02   6.8538892513024446e-02   5.0824093980487095e-02   6.8446167071300454e-02   5.0852829486286881e-02   6.8462447768017728e-02   5.0930636929093283e-02   6.8557731548721496e-02   5.1043960332039180e-02   6.8708638628613580e-02   5.11846522