<?xml version="1.0"?>
<VTKFile type="UnstructuredGrid"  version="0.1"  >
<UnstructuredGrid>
<Piece  NumberOfPoints="650" NumberOfCells="1199">
<Points>
<DataArray  type="Float64"  NumberOfComponents="3"  format="ascii">3.238260869565217 0 0  3.254782608695652 0 0  3.254782608695652 0.01666666666666667 0  3.238260869565217 0.01666666666666667 0  3.271304347826087 0 0  3.271304347826087 0.01666666666666667 0  3.287826086956521 0 0  3.287826086956521 0.01666666666666667 0  3.304347826086957 0 0  3.304347826086957 0.01666666666666667 0  3.320869565217391 0 0  3.320869565217391 0.01666666666666667 0  3.337391304347826 0 0  3.337391304347826 0.01666666666666667 0  3.353913043478261 0 0  3.353913043478261 0.01666666666666667 0  3.370434782608696 0 0  3.370434782608696 0.01666666666666667 0  3.386956521739131 0 0  3.386956521739131 0.01666666666666667 0  3.403478260869565 0 0  3.403478260869565 0.01666666666666667 0  3.419999999999999 0 0  3.419999999999999 0.01666666666666667 0  3.436521739130435 0 0  3.436521739130435 0.01666666666666667 0  3.453043478260869 0 0  3.453043478260869 0.01666666666666667 0  3.469565217391304 0 0  3.469565217391304 0.01666666666666667 0  3.486086956521739 0 0  3.486086956521739 0.01666666666666667 0  3.502608695652174 0 0  3.502608695652174 0.01666666666666667 0  3.519130434782609 0 0  3.519130434782609 0.01666666666666667 0  3.535652173913043 0 0  3.535652173913043 0.01666666666666667 0  3.552173913043478 0 0  3.552173913043478 0.01666666666666667 0  3.568695652173913 0 0  3.568695652173913 0.01666666666666667 0  3.585217391304347 0 0  3.585217391304347 0.01666666666666667 0  3.601739130434782 0 0  3.601739130434782 0.01666666666666667 0  3.618260869565217 0 0  3.618260869565217 0.01666666666666667 0  3.634782608695652 0 0  3.634782608695652 0.01666666666666667 0  3.651304347826087 0 0  3.651304347826087 0.01666666666666667 0  3.667826086956521 0 0  3.667826086956521 0.01666666666666667 0  3.684347826086956 0 0  3.684347826086956 0.01666666666666667 0  3.700869565217391 0 0  3.700869565217391 0.01666666666666667 0  3.717391304347826 0 0  3.717391304347826 0.01666666666666667 0  3.733913043478261 0 0  3.733913043478261 0.01666666666666667 0  3.750434782608695 0 0  3.750434782608695 0.01666666666666667 0  3.766956521739131 0 0  3.766956521739131 0.01666666666666667 0  3.783478260869565 0 0  3.783478260869565 0.01666666666666667 0  3.8 0 0  3.8 0.01666666666666667 0  3.254782608695652 0.03333333333333333 0  3.271304347826087 0.03333333333333333 0  3.287826086956521 0.03333333333333333 0  3.304347826086957 0.03333333333333333 0  3.320869565217391 0.03333333333333333 0  3.337391304347826 0.03333333333333333 0  3.353913043478261 0.03333333333333333 0  3.370434782608696 0.03333333333333333 0  3.386956521739131 0.03333333333333333 0  3.403478260869565 0.03333333333333333 0  3.419999999999999 0.03333333333333333 0  3.436521739130435 0.03333333333333333 0  3.453043478260869 0.03333333333333333 0  3.469565217391304 0.03333333333333333 0  3.486086956521739 0.03333333333333333 0  3.502608695652174 0.03333333333333333 0  3.519130434782609 0.03333333333333333 0  3.535652173913043 0.03333333333333333 0  3.552173913043478 0.03333333333333333 0  3.568695652173913 0.03333333333333333 0  3.585217391304347 0.03333333333333333 0  3.601739130434782 0.03333333333333333 0  3.618260869565217 0.03333333333333333 0  3.634782608695652 0.03333333333333333 0  3.651304347826087 0.03333333333333333 0  3.667826086956521 0.03333333333333333 0  3.684347826086956 0.03333333333333333 0  3.700869565217391 0.03333333333333333 0  3.717391304347826 0.03333333333333333 0  3.733913043478261 0.03333333333333333 0  3.750434782608695 0.03333333333333333 0  3.766956521739131 0.03333333333333333 0  3.783478260869565 0.03333333333333333 0  3.8 0.03333333333333333 0  3.271304347826087 0.05 0  3.287826086956521 0.05 0  3.304347826086957 0.05 0  3.320869565217391 0.05 0  3.337391304347826 0.05 0  3.353913043478261 0.05 0  3.370434782608696 0.05 0  3.386956521739131 0.05 0  3.403478260869565 0.05 0  3.419999999999999 0.05 0  3.436521739130435 0.05 0  3.453043478260869 0.05 0  3.469565217391304 0.05 0  3.486086956521739 0.05 0  3.502608695652174 0.05 0  3.519130434782609 0.05 0  3.535652173913043 0.05 0  3.552173913043478 0.05 0  3.568695652173913 0.05 0  3.585217391304347 0.05 0  3.601739130434782 0.05 0  3.618260869565217 0.05 0  3.634782608695652 0.05 0  3.651304347826087 0.05 0  3.667826086956521 0.05 0  3.684347826086956 0.05 0  3.700869565217391 0.05 0  3.717391304347826 0.05 0  3.733913043478261 0.05 0  3.750434782608695 0.05 0  3.766956521739131 0.05 0  3.783478260869565 0.05 0  3.8 0.05 0  3.287826086956521 0.06666666666666667 0  3.304347826086957 0.06666666666666667 0  3.320869565217391 0.06666666666666667 0  3.337391304347826 0.06666666666666667 0  3.353913043478261 0.06666666666666667 0  3.370434782608696 0.06666666666666667 0  3.386956521739131 0.06666666666666667 0  3.403478260869565 0.06666666666666667 0  3.419999999999999 0.06666666666666667 0  3.436521739130435 0.06666666666666667 0  3.453043478260869 0.06666666666666667 0  3.469565217391304 0.06666666666666667 0  3.486086956521739 0.06666666666666667 0  3.502608695652174 0.06666666666666667 0  3.519130434782609 0.06666666666666667 0  3.535652173913043 0.06666666666666667 0  3.552173913043478 0.06666666666666667 0  3.568695652173913 0.06666666666666667 0  3.585217391304347 0.06666666666666667 0  3.601739130434782 0.06666666666666667 0  3.618260869565217 0.06666666666666667 0  3.634782608695652 0.06666666666666667 0  3.651304347826087 0.06666666666666667 0  3.667826086956521 0.06666666666666667 0  3.684347826086956 0.06666666666666667 0  3.700869565217391 0.06666666666666667 0  3.717391304347826 0.06666666666666667 0  3.733913043478261 0.06666666666666667 0  3.750434782608695 0.06666666666666667 0  3.766956521739131 0.06666666666666667 0  3.783478260869565 0.06666666666666667 0  3.8 0.06666666666666667 0  3.304347826086957 0.08333333333333333 0  3.320869565217391 0.08333333333333333 0  3.337391304347826 0.08333333333333333 0  3.353913043478261 0.08333333333333333 0  3.370434782608696 0.08333333333333333 0  3.386956521739131 0.08333333333333333 0  3.403478260869565 0.08333333333333333 0  3.419999999999999 0.08333333333333333 0  3.436521739130435 0.08333333333333333 0  3.453043478260869 0.08333333333333333 0  3.469565217391304 0.08333333333333333 0  3.486086956521739 0.08333333333333333 0  3.502608695652174 0.08333333333333333 0  3.519130434782609 0.08333333333333333 0  3.535652173913043 0.08333333333333333 0  3.552173913043478 0.08333333333333333 0  3.568695652173913 0.08333333333333333 0  3.585217391304347 0.08333333333333333 0  3.601739130434782 0.08333333333333333 0  3.618260869565217 0.08333333333333333 0  3.634782608695652 0.08333333333333333 0  3.651304347826087 0.08333333333333333 0  3.667826086956521 0.08333333333333333 0  3.684347826086956 0.08333333333333333 0  3.700869565217391 0.08333333333333333 0  3.717391304347826 0.08333333333333333 0  3.733913043478261 0.08333333333333333 0  3.750434782608695 0.08333333333333333 0  3.766956521739131 0.08333333333333333 0  3.783478260869565 0.08333333333333333 0  3.8 0.08333333333333333 0  3.320869565217391 0.1 0  3.337391304347826 0.1 0  3.353913043478261 0.1 0  3.370434782608696 0.1 0  3.386956521739131 0.1 0  3.403478260869565 0.1 0  3.419999999999999 0.1 0  3.436521739130435 0.1 0  3.453043478260869 0.1 0  3.469565217391304 0.1 0  3.486086956521739 0.1 0  3.502608695652174 0.1 0  3.519130434782609 0.1 0  3.535652173913043 0.1 0  3.552173913043478 0.1 0  3.568695652173913 0.1 0  3.585217391304347 0.1 0  3.601739130434782 0.1 0  3.618260869565217 0.1 0  3.634782608695652 0.1 0  3.651304347826087 0.1 0  3.667826086956521 0.1 0  3.684347826086956 0.1 0  3.700869565217391 0.1 0  3.717391304347826 0.1 0  3.733913043478261 0.1 0  3.750434782608695 0.1 0  3.766956521739131 0.1 0  3.783478260869565 0.1 0  3.8 0.1 0  3.337391304347826 0.1166666666666667 0  3.353913043478261 0.1166666666666667 0  3.370434782608696 0.1166666666666667 0  3.386956521739131 0.1166666666666667 0  3.403478260869565 0.1166666666666667 0  3.419999999999999 0.1166666666666667 0  3.436521739130435 0.1166666666666667 0  3.453043478260869 0.1166666666666667 0  3.469565217391304 0.1166666666666667 0  3.486086956521739 0.1166666666666667 0  3.502608695652174 0.1166666666666667 0  3.519130434782609 0.1166666666666667 0  3.535652173913043 0.1166666666666667 0  3.552173913043478 0.1166666666666667 0  3.568695652173913 0.1166666666666667 0  3.585217391304347 0.1166666666666667 0  3.601739130434782 0.1166666666666667 0  3.618260869565217 0.1166666666666667 0  3.634782608695652 0.1166666666666667 0  3.651304347826087 0.1166666666666667 0  3.667826086956521 0.1166666666666667 0  3.684347826086956 0.1166666666666667 0  3.700869565217391 0.1166666666666667 0  3.717391304347826 0.1166666666666667 0  3.733913043478261 0.1166666666666667 0  3.750434782608695 0.1166666666666667 0  3.766956521739131 0.1166666666666667 0  3.783478260869565 0.1166666666666667 0  3.8 0.1166666666666667 0  3.353913043478261 0.1333333333333333 0  3.370434782608696 0.1333333333333333 0  3.386956521739131 0.1333333333333333 0  3.403478260869565 0.1333333333333333 0  3.419999999999999 0.1333333333333333 0  3.436521739130435 0.1333333333333333 0  3.453043478260869 0.1333333333333333 0  3.469565217391304 0.1333333333333333 0  3.486086956521739 0.1333333333333333 0  3.502608695652174 0.1333333333333333 0  3.519130434782609 0.1333333333333333 0  3.535652173913043 0.1333333333333333 0  3.552173913043478 0.1333333333333333 0  3.568695652173913 0.1333333333333333 0  3.585217391304347 0.1333333333333333 0  3.601739130434782 0.1333333333333333 0  3.618260869565217 0.1333333333333333 0  3.634782608695652 0.1333333333333333 0  3.651304347826087 0.1333333333333333 0  3.667826086956521 0.1333333333333333 0  3.684347826086956 0.1333333333333333 0  3.700869565217391 0.1333333333333333 0  3.717391304347826 0.13333333
[...]
<PointData  Vectors="Displacement"> 
<DataArray  type="Float64"  Name="Displacement"  NumberOfComponents="3" format="ascii">4.7203336709585600e-04 4.6071688912236626e-03 0.0000000000000000e+00  4.7367563760138327e-04 4.6413412089356789e-03 0.0000000000000000e+00  4.3955749619829191e-04 4.6408969083366154e-03 0.0000000000000000e+00  4.3823571473947543e-04 4.6066068373445844e-03 0.0000000000000000e+00  4.7495610010584734e-04 4.6757048923942767e-03 0.0000000000000000e+00  4.4061495489233684e-04 4.6753595404339576e-03 0.0000000000000000e+00  4.7593430259889826e-04 4.7101746265557111e-03 0.0000000000000000e+00  4.4144804418949678e-04 4.7099107923505275e-03 0.0000000000000000e+00  4.7666229959291106e-04 4.7446962025527433e-03 0.0000000000000000e+00  4.4208959727600920e-04 4.7445003150769337e-03 0.0000000000000000e+00  4.7718137486231136e-04 4.7792332960201059e-03 0.0000000000000000e+00  4.4256595136320763e-04 4.7790951334812154e-03 0.0000000000000000e+00  4.7752385089758025e-04 4.8137583775438994e-03 0.0000000000000000e+00  4.4289890802979578e-04 4.8136698105016081e-03 0.0000000000000000e+00  4.7771602666407421e-04 4.8482489397818360e-03 0.0000000000000000e+00  4.4310736062729776e-04 4.8482030221010637e-03 0.0000000000000000e+00  4.7778029158949986e-04 4.8826865676340897e-03 0.0000000000000000e+00  4.4320816681114346e-04 4.8826771346640509e-03 0.0000000000000000e+00  4.7773623093457803e-04 4.9170566521174845e-03 0.0000000000000000e+00  4.4321652719446394e-04 4.9170781899272363e-03 0.0000000000000000e+00  4.7760119777373822e-04 4.9513479092650739e-03 0.0000000000000000e+00  4.4314621389757755e-04 4.9513954738028684e-03 0.0000000000000000e+00  4.7739073275429800e-04 4.9855517743127159e-03 0.0000000000000000e+00  4.4300980255761613e-04 4.9856208863257676e-03 0.0000000000000000e+00  4.7711892155368510e-04 5.0196619512179368e-03 0.0000000000000000e+00  4.4281887844560341e-04 5.0197485026207116e-03 0.0000000000000000e+00  4.7679866384410481e-04 5.0536741445427087e-03 0.0000000000000000e+00  4.4258418105219552e-04 5.0537743369980445e-03 0.0000000000000000e+00  4.7644183974550640e-04 5.0875858982684756e-03 0.0000000000000000e+00  4.4231568324025884e-04 5.0876962137366638e-03 0.0000000000000000e+00  4.7605939431890585e-04 5.1213964639256933e-03 0.0000000000000000e+00  4.4202262411543867e-04 5.1215136545614279e-03 0.0000000000000000e+00  4.7566137165926554e-04 5.1551066667961986e-03 0.0000000000000000e+00  4.4171351537201291e-04 5.1552277540816262e-03 0.0000000000000000e+00  4.7525692312346831e-04 5.1887187659197150e-03 0.0000000000000000e+00  4.4139613425281550e-04 5.1888410436190325e-03 0.0000000000000000e+00  4.7485430541074431e-04 5.2222363097070932e-03 0.0000000000000000e+00  4.4107751192302080e-04 5.2223573473836864e-03 0.0000000000000000e+00  4.7446087771234747e-04 5.2556639909142602e-03 0.0000000000000000e+00  4.4076392282580909e-04 5.2557816362587377e-03 0.0000000000000000e+00  4.7408310314932917e-04 5.2890075041300407e-03 0.0000000000000000e+00  4.4046087860290782e-04 5.2891198830224435e-03 0.0000000000000000e+00  4.7372655740204352e-04 5.3222734084420733e-03 0.0000000000000000e+00  4.4017312891144833e-04 5.3223789219765689e-03 0.0000000000000000e+00  4.7339594511556300e-04 5.3554689988913086e-03 0.0000000000000000e+00  4.3990466981030978e-04 5.3555663172442924e-03 0.0000000000000000e+00  4.7309512156763176e-04 5.3886021909465547e-03 0.0000000000000000e+00  4.3965875819947336e-04 5.3886902449236471e-03 0.0000000000000000e+00  4.7282711341512125e-04 5.4216814212316696e-03 0.0000000000000000e+00  4.3943792846100083e-04 5.4217593933476886e-03 0.0000000000000000e+00  4.7259412853284497e-04 5.4547155646788650e-03 0.0000000000000000e+00  4.3924400536663881e-04 5.4547828825574169e-03 0.0000000000000000e+00  4.7239754145212440e-04 5.4877138627786679e-03 0.0000000000000000e+00  4.3907810589913644e-04 5.4877701984091289e-03 0.0000000000000000e+00  4.7223783826381050e-04 5.5206858488457957e-03 0.0000000000000000e+00  4.3894062245420159e-04 5.5207311277249531e-03 0.0000000000000000e+00  4.7211450409573828e-04 5.5536412427376171e-03 0.0000000000000000e+00  4.3883118176656419e-04 5.5536756671577345e-03 0.0000000000000000e+00  4.7202583922034377e-04 5.5865897669118321e-03 0.0000000000000000e+00  4.3874857865417420e-04 5.5866138582027058e-03 0.0000000000000000e+00  4.7196869993052534e-04 5.6195408038346283e-03 0.0000000000000000e+00  4.3869069142001428e-04 5.6195554714748254e-03 0.0000000000000000e+00  4.7193818522394597e-04 5.6525027628862804e-03 0.0000000000000000e+00  4.3865439418548641e-04 5.6525094205220634e-03 0.0000000000000000e+00  4.7192734951095254e-04 5.6854819373074921e-03 0.0000000000000000e+00  4.3863548089961520e-04 5.6854827218683684e-03 0.0000000000000000e+00  4.7192717476171998e-04 5.7184805053947640e-03 0.0000000000000000e+00  4.3862857548426077e-04 5.7184787221763803e-03 0.0000000000000000e+00  4.7192763679173135e-04 5.7514936146036890e-03 0.0000000000000000e+00  4.3862682189828832e-04 5.7514940971322582e-03 0.0000000000000000e+00  4.0605947253039758e-04 4.6406051170511612e-03 0.0000000000000000e+00  4.0680735048647727e-04 4.6751325774448734e-03 0.0000000000000000e+00  4.0742041334067329e-04 4.7097327171332125e-03 0.0000000000000000e+00  4.0791250385975624e-04 4.7443637660806500e-03 0.0000000000000000e+00  4.0829300980424000e-04 4.7789967176278996e-03 0.0000000000000000e+00  4.0857065904786611e-04 4.8136066667265869e-03 0.0000000000000000e+00  4.0875497859532819e-04 4.8481716904699521e-03 0.0000000000000000e+00  4.0885608728949023e-04 4.8826737765444474e-03 0.0000000000000000e+00  4.0888404733381768e-04 4.9170990465525477e-03 0.0000000000000000e+00  4.0884848546855231e-04 4.9514370564660935e-03 0.0000000000000000e+00  4.0875856248800583e-04 4.9856799170508309e-03 0.0000000000000000e+00  4.0862303656007798e-04 5.0198218431778008e-03 0.0000000000000000e+00  4.0845028518229302e-04 5.0538589701674651e-03 0.0000000000000000e+00  4.0824827302799968e-04 5.0877892661475473e-03 0.0000000000000000e+00  4.0802449925536572e-04 5.1216124272236681e-03 0.0000000000000000e+00  4.0778594656394406e-04 5.1553297471861334e-03 0.0000000000000000e+00  4.0753903717863376e-04 5.1889439753618309e-03 0.0000000000000000e+00  4.0728959695624992e-04 5.2224591672117068e-03 0.0000000000000000e+00  4.0704282787309314e-04 5.2558805334459672e-03 0.0000000000000000e+00  4.0680328965092896e-04 5.2892142905204310e-03 0.0000000000000000e+00  4.0657489231837022e-04 5.3224675143140393e-03 0.0000000000000000e+00  4.0636090099001787e-04 5.3556480016475026e-03 0.0000000000000000e+00  4.0616395243480807e-04 5.3887641459710502e-03 0.0000000000000000e+00  4.0598608109124543e-04 5.4218248326621072e-03 0.0000000000000000e+00  4.0582875050471535e-04 5.4548393562249171e-03 0.0000000000000000e+00  4.0569288485052676e-04 5.4878173562041901e-03 0.0000000000000000e+00  4.0557889441504796e-04 5.5207687601563794e-03 0.0000000000000000e+00  4.0548668881397080e-04 5.5537037094940591e-03 0.0000000000000000e+00  4.0541567177806396e-04 5.5866324270990803e-03 0.0000000000000000e+00  4.0536470885920394e-04 5.6195649651682054e-03 0.0000000000000000e+00  4.0533204745307982e-04 5.6525107504097703e-03 0.0000000000000000e+00  4.0531513182612966e-04 5.6854778283879307e-03 0.0000000000000000e+00  4.0531016206419624e-04 5.7184717161686835e-03 0.0000000000000000e+00  4.0531101864042871e-04 5.7514938182946368e-03 0.0000000000000000e+00  3.7333502485253477e-04 4.6750674039361612e-03 0.0000000000000000e+00  3.7370144662771218e-04 4.7096768686621018e-03 0.0000000000000000e+00  3.7401774603617444e-04 4.7443177671685393e-03 0.0000000000000000e+00  3.7427581784417951e-04 4.7789657441307575e-03 0.0000000000000000e+00  3.7447162354415129e-04 4.8135941851892893e-03 0.0000000000000000e+00  3.7460586800329979e-04 4.8481781611290535e-03 0.0000000000000000e+00  3.7468237438761541e-04 4.8826978695836300e-03 0.0000000000000000e+00  3.7470626247983576e-04 4.9171389467621797e-03 0.0000000000000000e+00  3.7468301243010420e-04 4.9514909582477271e-03 0.0000000000000000e+00  3.7461831586754957e-04 4.9857459279134325e-03 0.0000000000000000e+00  3.7451807664276967e-04 5.0198979052161960e-03 0.0000000000000000e+00  3.7438832665119022e-04 5.0539428916149300e-03 0.0000000000000000e+00  3.7423506879559238e-04 5.0878788212927037e-03 0.0000000000000000e+00  3.7406412327146608e-04 5.1217054470697812e-03 0.0000000000000000e+00  3.7388100880390618e-04 5.1554241825674365e-03 0.0000000000000000e+00  3.7369085373532596e-04 5.1890379407440465e-03 0.0000000000000000e+00  3.7349833001717981e-04 5.2225509697055592e-03 0.0000000000000000e+00  3.7330760446201546e-04 5.2559686916922154e-03 0.0000000000000000e+00  3.7312230509912531e-04 5.2892975446018750e-03 0.0000000000000000e+00  3.7294550472588334e-04 5.3225448242706971e-03 0.0000000000000000e+00  3.7277972413759960e-04 5.3557185326832402e-03 0.0000000000000000e+00  3.7262695553330751e-04 5.3888272404249149e-03 0.0000000000000000e+00  3.7248870428493216e-04 5.4218799708345257e-03 0.0000000000000000e+00  3.7236604498655827e-04 5.4548861103947011e-03 0.0000000000000000e+00  3.7225968519717808e-04 5.4878553452623732e-03 0.0000000000000000e+00  3.7217002736280414e-04 5.5207976168531207e-03 0.0000000000000000e+00  3.7209721619072022e-04 5.5537230789888753e-03 0.0000000000000000e+00  3.7204115465015015e-04 5.5866420264849585e-03 0.0000000000000000e+00  3.7200146409833648e-04 5.6195647543595285e-03 0.0000000000000000e+00  3.7197734720163236e-04 5.6525013057463101e-03 0.0000000000000000e+00  3.7196727761664686e-04 5.6854610897305244e-03 0.0000000000000000e+00  3.7196837668712661e-04 5.7184524292812145e-03 0.0000000000000000e+00  3.7197523557473607e-04 5.7514823103274335e-03 0.0000000000000000e+00  3.4014503629904567e-04 4.7097487702403009e-03 0.0000000000000000e+00  3.4029515914147193e-04 4.7443700555337186e-03 0.0000000000000000e+00  3.4042879743234665e-04 4.7790128826335054e-03 0.0000000000000000e+00  3.4053401221844731e-04 4.8136452473009047e-03 0.0000000000000000e+00  3.4060584573820496e-04 4.8482362783115671e-03 0.0000000000000000e+00  3.4064376868613109e-04 4.8827633030221630e-03 0.0000000000000000e+00  3.4064892563089895e-04 4.9172114571201121e-03 0.0000000000000000e+00  3.4062304724302668e-04 4.9515703754893789e-03 0.0000000000000000e+00  3.4056859703017950e-04 4.9858317113950319e-03 0.0000000000000000e+00  3.4048885894051036e-04 5.0199889971927541e-03 0.0000000000000000e+00  3.4038775341236509e-04 5.0540378170217098e-03 0.0000000000000000e+00  3.4026952786232002e-04 5.0879758987745147e-03 0.0000000000000000e+00  3.4013849294705359e-04 5.1218029493909495e-03 0.0000000000000000e+00  3.3999884133651976e-04 5.1555204370545317e-03 0.0000000000000000e+00  3.3985451902470164e-04 5.1891313981726177e-03 0.0000000000000000e+00  3.3970913219653323e-04 5.2226402493666634e-03 0.0000000000000000e+00  3.3956587750672864e-04 5.2560526122459464e-03 0.0000000000000000e+00  3.3942749141033864e-04 5.2893751423408030e-03 0.0000000000000000e+00  3.3929622331600344e-04 5.3226153530430698e-03 0.0000000000000000e+00  3.3917383760164219e-04 5.3557814417534242e-03 0.0000000000000000e+00  3.3906164599584648e-04 5.3888821303390358e-03 0.0000000000000000e+00  3.3896056847160775e-04 5.4219265305815324e-03 0.0000000000000000e+00  3.3887121742895117e-04 5.4549240427946791e-03 0.0000000000000000e+00  3.3879399561081216e-04 5.4878842927121273e-03 0.0000000000000000e+00  3.3872919256638370e-04 5.5208171069170003e-03 0.0000000000000000e+00  3.3867705856012524e-04 5.5537325183490551e-03 0.0000000000000000e+00  3.3863782915847666e-04 5.5866407832202711e-03 0.0000000000000000e+00  3.3861166681312051e-04 5.6195523858291125e-03 0.0000000000000000e+00  3.3859847455418605e-04 5.6524780180296332e-03 0.0000000000000000e+00  3.3859751906871271e-04 5.6854285600901854e-03 0.0000000000000000e+00  3.3860677909327468e-04 5.7184151861730597e-03 0.0000000000000000e+00  3.3862193131608458e-04 5.7514499283423705e-03 0.0000000000000000e+00  3.0665977614038382e-04 4.7445094035756773e-03 0.0000000000000000e+00  3.0667814003812943e-04 4.7791347608125570e-03 0.0000000000000000e+00  3.0669559554029509e-04 4.8137622661168890e-03 0.0000000000000000e+00  3.0670338860591391e-04 4.8483515775363077e-03 0.0000000000000000e+00  3.0669829510114870e-04 4.8828769845443440e-03 0.0000000000000000e+00  3.0667835093808681e-04 4.9173242147565440e-03 0.0000000000000000e+00  3.0664190714051361e-04 4.9516835599418413e-03 0.0000000000000000e+00  3.0658859142491349e-04 4.9859459458738145e-03 0.0000000000000000e+00  3.0651953615916974e-04 5.0201039597029384e-03 0.0000000000000000e+00  3.0643700279961802e-04 5.0541524772027922e-03 0.0000000000000000e+00  3.0634384557549536e-04 5.0880889052344587e-03 0.0000000000000000e+00  3.0624313547078768e-04 5.1219128569833360e-03 0.0000000000000000e+00  3.0613794363100520e-04 5.1556258267618713e-03 0.0000000000000000e+00  3.0603119198915717e-04 5.1892309628173748e-03 0.0000000000000000e+00  3.0592554465824670e-04 5.2227328491901998e-03 0.0000000000000000e+00  3.0582332100089637e-04 5.2561373178281520e-03 0.0000000000000000e+00  3.0572642573221308e-04 5.2894512647222369e-03 0.0000000000000000e+00  3.0563630881737973e-04 5.3226824471519149e-03 0.0000000000000000e+00  3.0555396519644736e-04 5.3558392764513551e-03 0.0000000000000000e+00  3.0547997713370305e-04 5.3889306253231519e-03 0.0000000000000000e+00  3.0541459727439260e-04 5.4219656647062024e-03 0.0000000000000000e+00  3.0535786597085977e-04 5.4549537433357855e-03 0.0000000000000000e+00  3.0530974986813913e-04 5.4879043226288638e-03 0.0000000000000000e+00  3.0527027975608230e-04 5.5208269775648645e-03 0.0000000000000000e+00  3.0523965738857506e-04 5.5537314653377554e-03 0.0000000000000000e+00  3.0521829588035700e-04 5.5866278517461730e-03 0.0000000000000000e+00  3.0520675589963366e-04 5.6195266804832814e-03 0.0000000000000000e+00  3.0520553829916264e-04 5.6524391828508980e-03 0.0000000000000000e+00  3.0521469355516577e-04 5.6853775650813430e-03 0.0000000000000000e+00  3.0523321727338095e-04 5.7183554909798146e-03 0.0000000000000000e+00  3.0525824332962450e-04 5.7513890196371374e-03 0.0000000000000000e+00  2.7295425987958671e-04 4.7793192986654680e-03 0.0000000000000000e+00  2.7289799512216222e-04 4.8139402858425225e-03 0.0000000000000000e+00  2.7285050001576576e-04 4.8485230059398809e-03 0.0000000000000000e+00  2.7280705498942894e-04 4.8830397221457048e-03 0.0000000000000000e+00  2.7276332863871160e-04 4.9174794593782132e-03 0.0000000000000000e+00  2.7271463921048079e-04 4.9518343033150792e-03 0.0000000000000000e+00  2.7265845718284893e-04 4.9860936449017193e-03 0.0000000000000000e+00  2.7259457661957709e-04 5.0202485515230180e-03 0.0000000000000000e+00  2.7252431193118635e-04 5.0542929240554339e-03 0.0000000000000000e+00  2.7244962590066611e-04 5.0882238736995418e-03 0.0000000000000000e+00  2.7237268670602744e-04 5.1220409703300477e-03 0.0000000000000000e+00  2.7229568929741871e-04 5.1557457583455988e-03 0.0000000000000000e+00  2.7222072074714431e-04 5.1893415243580206e-03 0.0000000000000000e+00  2.7214965547451810e-04 5.2228330456002749e-03 0.0000000000000000e+00  2.7208405527732896e-04 5.2562264031829975e-03 0.0000000000000000e+00  2.7202507364811751e-04 5.2895287918228121e-03 0.0000000000000000e+00  2.7197339613940292e-04 5.3227482786520446e-03 0.0000000000000000e+00  2.7192923493892722e-04 5.3558935472784079e-03 0.0000000000000000e+00  2.7189238145795515e-04 5.3889736574463361e-03 0.0000000000000000e+00  2.7186231537104454e-04 5.4219978395612526e-03 0.0000000000000000e+00  2.7183836341114574e-04 5.4549753430589709e-03 0.0000000000000000e+00  2.7181989177732529e-04 5.4879153617337171e-03 0.0000000000000000e+00  2.7180650196173165e-04 5.5208270615946147e-03 0.0000000000000000e+00  2.7179818847444554e-04 5.5537197243999961e-03 0.0000000000000000e+00  2.7179541382884551e-04 5.5866030006310550e-03 0.0000000000000000e+00  2.7179906049557250e-04 5.6194872549068069e-03 0.0000000000000000e+00  2.7181022828020853e-04 5.6523839951027055e-03 0.0000000000000000e+00  2.7182985870836777e-04 5.6853064077663409e-03 0.0000000000000000e+00  2.7185819243722846e-04 5.7182700773495436e-03 0.0000000000000000e+00  2.7189411864991575e-04 5.7512940399432515e-03 0.0000000000000000e+00  2.3908657930580041e-04 4.8141673415633985e-03 0.0000000000000000e+00  2.3900550318959549e-04 4.8487437717752782e-03 0.0000000000000000e+00  2.3893733686696604e-04 4.8832469098025327e-03 0.0000000000000000e+00  2.3887767822715664e-04 4.9176746960935781e-03 0.0000000000000000e+00  2.3881982176801529e-04 4.9520227550926841e-03 0.0000000000000000e+00  2.3876052725073943e-04 4.9862769195527278e-03 0.0000000000000000e+00  2.3869959220478942e-04 5.0204260628061983e-03 0.0000000000000000e+00  2.3863834989049510e-04 5.0544629734584623e-03 0.0000000000000000e+00  2.3857841724831248e-04 5.0883847863580581e-03 0.0000000000000000e+00  2.3852137298298768e-04 5.1221912148146009e-03 0.0000000000000000e+00  2.3846876924339333e-04 5.1558839232924312e-03 0.0000000000000000e+00  2.3842205116602567e-04 5.1894664004826707e-03 0.0000000000000000e+00  2.3838247564981289e-04 5.2229436626113953e-03 0.0000000000000000e+00  2.3835099505506788e-04 5.2563221062894190e-03 0.0000000000000000e+00  2.3832811691600319e-04 5.2896093281148840e-03 0.0000000000000000e+00  2.3831381207429470e-04 5.3228138233313441e-03 0.0000000000000000e+00  2.3830749875204416e-04 5.3559446593485780e-03 0.0000000000000000e+00  2.3830810449699231e-04 5.3890111689441252e-03 0.0000000000000000e+00  2.3831420568604813e-04 5.4220226828922387e-03 0.0000000000000000e+00  2.3832424003815533e-04 5.4549883269693683e-03 0.0000000000000000e+00  2.3833677390622393e-04 5.4879169215072167e-03 0.0000000000000000e+00  2.3835078299794482e-04 5.5208170324086078e-03 0.0000000000000000e+00  2.3836588885499729e-04 5.5536972003943008e-03 0.0000000000000000e+00  2.3838249371377709e-04 5.5865663393938232e-03 0.0000000000000000e+00  2.3840176977758042e-04 5.6194342726626229e-03 0.0000000000000000e+00  2.3842547816081634e-04 5.6523123772351897e-03 0.0000000000000000e+00  2.3845561502644643e-04 5.6852143304701071e-03 0.0000000000000000e+00  2.3849391196769919e-04 5.7181569866632592e-03 0.0000000000000000e+00  2.3854126441217067e-04 5.7511614397118644e-03 0.0000000000000000e+00  2.0514365535200663e-04 4.8490029184787070e-03 0.0000000000000000e+00  2.0506913360805322e-04 4.8834900094402124e-03 0.0000000000000000e+00  2.0500371372986976e-04 4.9179040494645868e-03 0.0000000000000000e+00  2.0494110667283096e-04 4.9522469203706456e-03 0.0000000000000000e+00  2.0487993449644026e-04 4.9864961503494369e-03 0.0000000000000000e+00  2.0482165249829413e-04 5.0206381322893930e-03 0.0000000000000000e+00  2.0476850236232600e-04 5.0546647149963394e-03 0.0000000000000000e+00  2.0472204184807065e-04 5.0885739218666680e-03 0.0000000000000000e+00  2.0468337328533867e-04 5.1223659091938966e-03 0.0000000000000000e+00  2.0465356058043446e-04 5.1560425162460472e-03 0.0000000000000000e+00  2.0463357976540969e-04 5.1896075196174382e-03 0.0000000000000000e+00  2.0462426344143987e-04 5.2230662152362405e-03 0.0000000000000000e+00  2.0462614344446850e-04 5.2564254023647417e-03 0.0000000000000000e+00  2.0463922221946674e-04 5.2896932406853343e-03 0.0000000000000000e+00  2.0466282770625408e-04 5.3228788401640343e-03 0.0000000000000000e+00  2.0469557944044280e-04 5.3559918333046172e-03 0.0000000000000000e+00  2.0473545685700215e-04 5.3890419790671718e-03 0.0000000000000000e+00  2.0477997326773367e-04 5.4220388060822076e-03 0.0000000000000000e+00  2.0482645842964149e-04 5.4549913254727895e-03 0.0000000000000000e+00  2.0487243168993541e-04 5.4879078746842514e-03 0.0000000000000000e+00  2.0491600696493408e-04 5.5207961817096887e-03 0.0000000000000000e+00  2.0495624592592717e-04 5.5536636942632384e-03 0.0000000000000000e+00  2.0499338256437994e-04 5.5865181517148754e-03 0.0000000000000000e+00  2.0502886912298842e-04 5.6193683386555312e-03 0.0000000000000000e+00  2.0506522438812940e-04 5.6522249572535368e-03 0.0000000000000000e+