<?xml version="1.0"?>
<VTKFile type="UnstructuredGrid"  version="0.1"  >
<UnstructuredGrid>
<Piece  NumberOfPoints="607" NumberOfCells="1112">
<Points>
<DataArray  type="Float64"  NumberOfComponents="3"  format="ascii">0.4130434782608696 0 0  0.4295652173913043 0 0  0.4295652173913043 0.01666666666666667 0  0.4460869565217391 0 0  0.4460869565217391 0.01666666666666667 0  0.4626086956521739 0 0  0.4626086956521739 0.01666666666666667 0  0.4791304347826086 0 0  0.4791304347826086 0.01666666666666667 0  0.4956521739130435 0 0  0.4956521739130435 0.01666666666666667 0  0.5121739130434783 0 0  0.5121739130434783 0.01666666666666667 0  0.528695652173913 0 0  0.528695652173913 0.01666666666666667 0  0.5452173913043478 0 0  0.5452173913043478 0.01666666666666667 0  0.5617391304347825 0 0  0.5617391304347825 0.01666666666666667 0  0.5782608695652174 0 0  0.5782608695652174 0.01666666666666667 0  0.5947826086956521 0 0  0.5947826086956521 0.01666666666666667 0  0.6113043478260869 0 0  0.6113043478260869 0.01666666666666667 0  0.6278260869565218 0 0  0.6278260869565218 0.01666666666666667 0  0.6443478260869565 0 0  0.6443478260869565 0.01666666666666667 0  0.6608695652173913 0 0  0.6608695652173913 0.01666666666666667 0  0.677391304347826 0 0  0.677391304347826 0.01666666666666667 0  0.6939130434782609 0 0  0.6939130434782609 0.01666666666666667 0  0.7104347826086956 0 0  0.7104347826086956 0.01666666666666667 0  0.4460869565217391 0.03333333333333333 0  0.4626086956521739 0.03333333333333333 0  0.4791304347826086 0.03333333333333333 0  0.4956521739130435 0.03333333333333333 0  0.5121739130434783 0.03333333333333333 0  0.528695652173913 0.03333333333333333 0  0.5452173913043478 0.03333333333333333 0  0.5617391304347825 0.03333333333333333 0  0.5782608695652174 0.03333333333333333 0  0.5947826086956521 0.03333333333333333 0  0.6113043478260869 0.03333333333333333 0  0.6278260869565218 0.03333333333333333 0  0.6443478260869565 0.03333333333333333 0  0.6608695652173913 0.03333333333333333 0  0.677391304347826 0.03333333333333333 0  0.6939130434782609 0.03333333333333333 0  0.7104347826086956 0.03333333333333333 0  0.4626086956521739 0.05 0  0.4791304347826086 0.05 0  0.4956521739130435 0.05 0  0.5121739130434783 0.05 0  0.528695652173913 0.05 0  0.5452173913043478 0.05 0  0.5617391304347825 0.05 0  0.5782608695652174 0.05 0  0.5947826086956521 0.05 0  0.6113043478260869 0.05 0  0.6278260869565218 0.05 0  0.6443478260869565 0.05 0  0.6608695652173913 0.05 0  0.677391304347826 0.05 0  0.6939130434782609 0.05 0  0.7104347826086956 0.05 0  0.7269565217391304 0.05 0  0.4791304347826086 0.06666666666666667 0  0.4956521739130435 0.06666666666666667 0  0.5121739130434783 0.06666666666666667 0  0.528695652173913 0.06666666666666667 0  0.5452173913043478 0.06666666666666667 0  0.5617391304347825 0.06666666666666667 0  0.5782608695652174 0.06666666666666667 0  0.5947826086956521 0.06666666666666667 0  0.6113043478260869 0.06666666666666667 0  0.6278260869565218 0.06666666666666667 0  0.6443478260869565 0.06666666666666667 0  0.6608695652173913 0.06666666666666667 0  0.677391304347826 0.06666666666666667 0  0.6939130434782609 0.06666666666666667 0  0.7104347826086956 0.06666666666666667 0  0.7269565217391304 0.06666666666666667 0  0.7434782608695653 0.06666666666666667 0  0.4956521739130435 0.08333333333333333 0  0.5121739130434783 0.08333333333333333 0  0.528695652173913 0.08333333333333333 0  0.5452173913043478 0.08333333333333333 0  0.5617391304347825 0.08333333333333333 0  0.5782608695652174 0.08333333333333333 0  0.5947826086956521 0.08333333333333333 0  0.6113043478260869 0.08333333333333333 0  0.6278260869565218 0.08333333333333333 0  0.6443478260869565 0.08333333333333333 0  0.6608695652173913 0.08333333333333333 0  0.677391304347826 0.08333333333333333 0  0.6939130434782609 0.08333333333333333 0  0.7104347826086956 0.08333333333333333 0  0.7269565217391304 0.08333333333333333 0  0.7434782608695653 0.08333333333333333 0  0.7599999999999999 0.08333333333333333 0  0.5121739130434783 0.1 0  0.528695652173913 0.1 0  0.5452173913043478 0.1 0  0.5617391304347825 0.1 0  0.5782608695652174 0.1 0  0.5947826086956521 0.1 0  0.6113043478260869 0.1 0  0.6278260869565218 0.1 0  0.6443478260869565 0.1 0  0.6608695652173913 0.1 0  0.677391304347826 0.1 0  0.6939130434782609 0.1 0  0.7104347826086956 0.1 0  0.7269565217391304 0.1 0  0.7434782608695653 0.1 0  0.7599999999999999 0.1 0  0.7765217391304348 0.1 0  0.528695652173913 0.1166666666666667 0  0.5452173913043478 0.1166666666666667 0  0.5617391304347825 0.1166666666666667 0  0.5782608695652174 0.1166666666666667 0  0.5947826086956521 0.1166666666666667 0  0.6113043478260869 0.1166666666666667 0  0.6278260869565218 0.1166666666666667 0  0.6443478260869565 0.1166666666666667 0  0.6608695652173913 0.1166666666666667 0  0.677391304347826 0.1166666666666667 0  0.6939130434782609 0.1166666666666667 0  0.7104347826086956 0.1166666666666667 0  0.7269565217391304 0.1166666666666667 0  0.7434782608695653 0.1166666666666667 0  0.7599999999999999 0.1166666666666667 0  0.7765217391304348 0.1166666666666667 0  0.7930434782608695 0.1166666666666667 0  0.5452173913043478 0.1333333333333333 0  0.5617391304347825 0.1333333333333333 0  0.5782608695652174 0.1333333333333333 0  0.5947826086956521 0.1333333333333333 0  0.6113043478260869 0.1333333333333333 0  0.6278260869565218 0.1333333333333333 0  0.6443478260869565 0.1333333333333333 0  0.6608695652173913 0.1333333333333333 0  0.677391304347826 0.1333333333333333 0  0.6939130434782609 0.1333333333333333 0  0.7104347826086956 0.1333333333333333 0  0.7269565217391304 0.1333333333333333 0  0.7434782608695653 0.1333333333333333 0  0.7599999999999999 0.1333333333333333 0  0.7765217391304348 0.1333333333333333 0  0.7930434782608695 0.1333333333333333 0  0.8095652173913043 0.1333333333333333 0  0.5617391304347825 0.15 0  0.5782608695652174 0.15 0  0.5947826086956521 0.15 0  0.6113043478260869 0.15 0  0.6278260869565218 0.15 0  0.6443478260869565 0.15 0  0.6608695652173913 0.15 0  0.677391304347826 0.15 0  0.6939130434782609 0.15 0  0.7104347826086956 0.15 0  0.7269565217391304 0.15 0  0.7434782608695653 0.15 0  0.7599999999999999 0.15 0  0.7765217391304348 0.15 0  0.7930434782608695 0.15 0  0.8095652173913043 0.15 0  0.8260869565217391 0.15 0  0.5782608695652174 0.1666666666666667 0  0.5947826086956521 0.1666666666666667 0  0.6113043478260869 0.1666666666666667 0  0.6278260869565218 0.1666666666666667 0  0.6443478260869565 0.1666666666666667 0  0.6608695652173913 0.1666666666666667 0  0.677391304347826 0.1666666666666667 0  0.6939130434782609 0.1666666666666667 0  0.7104347826086956 0.1666666666666667 0  0.7269565217391304 0.1666666666666667 0  0.7434782608695653 0.1666666666666667 0  0.7599999999999999 0.1666666666666667 0  0.7765217391304348 0.1666666666666667 0  0.7930434782608695 0.1666666666666667 0  0.8095652173913043 0.1666666666666667 0  0.8260869565217391 0.1666666666666667 0  0.8426086956521739 0.1666666666666667 0  0.5947826086956521 0.1833333333333333 0  0.5782608695652174 0.1833333333333333 0  0.6113043478260869 0.1833333333333333 0  0.6278260869565218 0.1833333333333333 0  0.6443478260869565 0.1833333333333333 0  0.6608695652173913 0.1833333333333333 0  0.677391304347826 0.1833333333333333 0  0.6939130434782609 0.1833333333333333 0  0.7104347826086956 0.1833333333333333 0  0.7269565217391304 0.1833333333333333 0  0.7434782608695653 0.1833333333333333 0  0.7599999999999999 0.1833333333333333 0  0.7765217391304348 0.1833333333333333 0  0.7930434782608695 0.1833333333333333 0  0.8095652173913043 0.1833333333333333 0  0.8260869565217391 0.1833333333333333 0  0.8426086956521739 0.1833333333333333 0  0.8591304347826086 0.1833333333333333 0  0.5947826086956521 0.2 0  0.5782608695652174 0.2 0  0.6113043478260869 0.2 0  0.6278260869565218 0.2 0  0.6443478260869565 0.2 0  0.6608695652173913 0.2 0  0.677391304347826 0.2 0  0.6939130434782609 0.2 0  0.7104347826086956 0.2 0  0.7269565217391304 0.2 0  0.7434782608695653 0.2 0  0.7599999999999999 0.2 0  0.7765217391304348 0.2 0  0.7930434782608695 0.2 0  0.8095652173913043 0.2 0  0.8260869565217391 0.2 0  0.8426086956521739 0.2 0  0.8591304347826086 0.2 0  0.8756521739130434 0.2 0  0.5947826086956521 0.2166666666666667 0  0.5782608695652174 0.2166666666666667 0  0.6113043478260869 0.2166666666666667 0  0.6278260869565218 0.2166666666666667 0  0.6443478260869565 0.2166666666666667 0  0.6608695652173913 0.2166666666666667 0  0.677391304347826 0.2166666666666667 0  0.6939130434782609 0.2166666666666667 0  0.7104347826086956 0.2166666666666667 0  0.7269565217391304 0.2166666666666667 0  0.7434782608695653 0.2166666666666667 0  0.7599999999999999 0.2166666666666667 0  0.7765217391304348 0.2166666666666667 0  0.7930434782608695 0.2166666666666667 0  0.8095652173913043 0.2166666666666667 0  0.8260869565217391 0.2166666666666667 0  0.8426086956521739 0.2166666666666667 0  0.8591304347826086 0.2166666666666667 0  0.8756521739130434 0.2166666666666667 0  0.8921739130434783 0.2166666666666667 0  0.5947826086956521 0.2333333333333333 0  0.5782608695652174 0.2333333333333333 0  0.6113043478260869 0.2333333333333333 0  0.6278260869565218 0.2333333333333333 0  0.6443478260869565 0.2333333333333333 0  0.6608695652173913 0.2333333333333333 0  0.677391304347826 0.2333333333333333 0  0.6939130434782609 0.2333333333333333 0  0.7104347826086956 0.2333333333333333 0  0.7269565217391304 0.2333333333333333 0  0.7434782608695653 0.2333333333333333 0  0.7599999999999999 0.2333333333333333 0  0.7765217391304348 0.2333333333333333 0  0.7930434782608695 0.2333333333333333 0  0.8095652173913043 0.2333333333333333 0  0.8260869565217391 0.2333333333333333 0  0.8426086956521739 0.2333333333333333 0  0.8591304347826086 0.2333333333333333 0  0.8756521739130434 0.2333333333333333 0  0.8921739130434783 0.2333333333333333 0  0.908695652173913 0.2333333333333333 0  0.5947826086956521 0.25 0  0.6113043478260869 0.25 0  0.6278260869565218 0.25 0  0.6443
[...]
<PointData  Vectors="Displacement"> 
<DataArray  type="Float64"  Name="Displacement"  NumberOfComponents="3" format="ascii">7.5621414355962004e-05 4.3160584780932220e-04 0.0000000000000000e+00  7.6584300574429276e-05 4.4735006853826383e-04 0.0000000000000000e+00  6.0069332583395527e-05 4.4700943661043731e-04 0.0000000000000000e+00  7.8035387358550205e-05 4.6321668440528322e-04 0.0000000000000000e+00  6.1275857999233970e-05 4.6270567297067463e-04 0.0000000000000000e+00  7.9911402737777143e-05 4.7961850874685651e-04 0.0000000000000000e+00  6.2752361196816676e-05 4.7894608180328973e-04 0.0000000000000000e+00  8.1920322494127013e-05 4.9685477653552612e-04 0.0000000000000000e+00  6.4414123454524622e-05 4.9617296116445772e-04 0.0000000000000000e+00  8.3862115842711364e-05 5.1449269984122704e-04 0.0000000000000000e+00  6.6224041400375785e-05 5.1382896257232472e-04 0.0000000000000000e+00  8.5696558217595372e-05 5.3209880951717015e-04 0.0000000000000000e+00  6.8179573317513919e-05 5.3145956927229160e-04 0.0000000000000000e+00  8.7465827309630216e-05 5.4938392545645970e-04 0.0000000000000000e+00  7.0229465953716185e-05 5.4876199168228830e-04 0.0000000000000000e+00  8.9228341155352862e-05 5.6629244396254037e-04 0.0000000000000000e+00  7.2284956863126969e-05 5.6567034256738938e-04 0.0000000000000000e+00  9.1014403594327615e-05 5.8291874425404899e-04 0.0000000000000000e+00  7.4308201090057753e-05 5.8228977727771772e-04 0.0000000000000000e+00  9.2826054213202783e-05 5.9935446127747712e-04 0.0000000000000000e+00  7.6306551753431976e-05 5.9871682580676206e-04 0.0000000000000000e+00  9.4651898537998874e-05 6.1564630089802055e-04 0.0000000000000000e+00  7.8301463785117849e-05 6.1499930137075471e-04 0.0000000000000000e+00  9.6475323267941252e-05 6.3179125091697853e-04 0.0000000000000000e+00  8.0317561848256081e-05 6.3113770781064488e-04 0.0000000000000000e+00  9.8280618844926883e-05 6.4773304619305096e-04 0.0000000000000000e+00  8.2373829414708456e-05 6.4708069426703976e-04 0.0000000000000000e+00  1.0006385358447024e-04 6.6338003407845510e-04 0.0000000000000000e+00  8.4471004594129871e-05 6.6273503038446232e-04 0.0000000000000000e+00  1.0183771194252325e-04 6.7866278655947436e-04 0.0000000000000000e+00  8.6587777856816789e-05 6.7802433795887947e-04 0.0000000000000000e+00  1.0362160432780969e-04 6.9358074064323886e-04 0.0000000000000000e+00  8.8695001761403405e-05 6.9294417121729091e-04 0.0000000000000000e+00  1.0542879205394832e-04 7.0819047136205327e-04 0.0000000000000000e+00  9.0774628906876550e-05 7.0755177553033640e-04 0.0000000000000000e+00  1.0726202989909083e-04 7.2256377590092387e-04 0.0000000000000000e+00  9.2825672771176896e-05 7.2192104614382969e-04 0.0000000000000000e+00  4.4096126590603213e-05 4.6221779862289672e-04 0.0000000000000000e+00  4.5195137693804516e-05 4.7822918128343926e-04 0.0000000000000000e+00  4.6386398249347778e-05 4.9545310591693438e-04 0.0000000000000000e+00  4.8220740857861599e-05 5.1318988446338398e-04 0.0000000000000000e+00  5.0262904018690738e-05 5.3071926004633367e-04 0.0000000000000000e+00  5.2891415275299729e-05 5.4803888361088079e-04 0.0000000000000000e+00  5.5422634070909065e-05 5.6497568646544222e-04 0.0000000000000000e+00  5.7679139159751201e-05 5.8160338056280423e-04 0.0000000000000000e+00  5.9811496163273716e-05 5.9803212826040726e-04 0.0000000000000000e+00  6.1909188724289498e-05 6.1430492053530714e-04 0.0000000000000000e+00  6.4047603150002794e-05 6.3042071468495404e-04 0.0000000000000000e+00  6.6310756965497276e-05 6.4633746526689942e-04 0.0000000000000000e+00  6.8752910011190082e-05 6.6197971846549959e-04 0.0000000000000000e+00  7.1305146452498697e-05 6.7727695829022472e-04 0.0000000000000000e+00  7.3814394537085533e-05 6.9221550579341218e-04 0.0000000000000000e+00  7.6189252334794334e-05 7.0684048662363551e-04 0.0000000000000000e+00  7.8439621481060353e-05 7.2122060570947797e-04 0.0000000000000000e+00  2.7609730553069576e-05 4.7740978660602590e-04 0.0000000000000000e+00  2.8251485194777565e-05 4.9461159586250219e-04 0.0000000000000000e+00  2.9227994595014146e-05 5.1258062503705564e-04 0.0000000000000000e+00  3.2418261369074442e-05 5.2932241814492161e-04 0.0000000000000000e+00  3.4720744033238062e-05 5.4328706588566318e-04 0.0000000000000000e+00  3.7549894774638906e-05 5.5913292186158777e-04 0.0000000000000000e+00  4.0305315823427870e-05 5.7514227874522564e-04 0.0000000000000000e+00  4.2963209729781707e-05 5.9105646243582278e-04 0.0000000000000000e+00  4.5585828526058712e-05 6.0684124301032931e-04 0.0000000000000000e+00  4.8235143636687662e-05 6.2247413537078590e-04 0.0000000000000000e+00  5.0958284895242931e-05 6.3792309066831626e-04 0.0000000000000000e+00  5.3772950225723335e-05 6.5314880469546899e-04 0.0000000000000000e+00  5.6654101652619675e-05 6.6813031644580734e-04 0.0000000000000000e+00  5.9545987123795701e-05 6.8286839178312558e-04 0.0000000000000000e+00  6.2399941649864376e-05 6.9737495317721354e-04 0.0000000000000000e+00  6.5199187654297141e-05 7.1167407122336730e-04 0.0000000000000000e+00  6.7954201776066050e-05 7.2579769437780875e-04 0.0000000000000000e+00  1.1593138647163717e-05 4.9266100987495147e-04 0.0000000000000000e+00  1.3627995026641311e-05 5.0807896225229480e-04 0.0000000000000000e+00  1.6327710222060953e-05 5.2349084600497261e-04 0.0000000000000000e+00  1.9113092264001304e-05 5.3809786071577293e-04 0.0000000000000000e+00  2.1659525757935852e-05 5.5314095125986941e-04 0.0000000000000000e+00  2.4395215567417435e-05 5.6848501150707294e-04 0.0000000000000000e+00  2.7233756804173222e-05 5.8385144456654225e-04 0.0000000000000000e+00  3.0138888877858547e-05 5.9914025988029075e-04 0.0000000000000000e+00  3.3115948580533401e-05 6.1430488012610880e-04 0.0000000000000000e+00  3.6175923408932033e-05 6.2932041639108703e-04 0.0000000000000000e+00  3.9318374265634487e-05 6.4416686410129567e-04 0.0000000000000000e+00  4.2525377179881488e-05 6.5883847495664327e-04 0.0000000000000000e+00  4.5768614501820230e-05 6.7333804227326269e-04 0.0000000000000000e+00  4.9021467826852416e-05 6.8766973152670978e-04 0.0000000000000000e+00  5.2266912564785644e-05 7.0184292790387921e-04 0.0000000000000000e+00  5.5499559639589409e-05 7.1587398955946259e-04 0.0000000000000000e+00  5.8722224428927880e-05 7.2978020939903790e-04 0.0000000000000000e+00  -8.5882511861837333e-07 5.0333622467045049e-04 0.0000000000000000e+00  1.5074376955772604e-06 5.1817029423904056e-04 0.0000000000000000e+00  4.0778663410626103e-06 5.3257861297837359e-04 0.0000000000000000e+00  6.6821697115720599e-06 5.4713256792314458e-04 0.0000000000000000e+00  9.4436165775944138e-06 5.6179332997134722e-04 0.0000000000000000e+00  1.2381751928952299e-05 5.7655570808503459e-04 0.0000000000000000e+00  1.5455589414435625e-05 5.9131388600092692e-04 0.0000000000000000e+00  1.8650198101149132e-05 6.0599355867158196e-04 0.0000000000000000e+00  2.1957502270578254e-05 6.2057317796204606e-04 0.0000000000000000e+00  2.5365972553263209e-05 6.3503958083698973e-04 0.0000000000000000e+00  2.8856206308728354e-05 6.4939306305820932e-04 0.0000000000000000e+00  3.2406299410743948e-05 6.6363361695318066e-04 0.0000000000000000e+00  3.5997408658160088e-05 6.7776009829885963e-04 0.0000000000000000e+00  3.9614465711513797e-05 6.9177666934540816e-04 0.0000000000000000e+00  4.3246338314378708e-05 7.0569299888354180e-04 0.0000000000000000e+00  4.6885317390781655e-05 7.1952089488416923e-04 0.0000000000000000e+00  5.0525524009745427e-05 7.3326894137173363e-04 0.0000000000000000e+00  -1.2918119386175812e-05 5.1308608097898345e-04 0.0000000000000000e+00  -1.0286135354168115e-05 5.2705856996145049e-04 0.0000000000000000e+00  -7.6125258979251580e-06 5.4103805792232631e-04 0.0000000000000000e+00  -4.7607278740406543e-06 5.5502938542235122e-04 0.0000000000000000e+00  -1.7361852222587084e-06 5.6919268017214240e-04 0.0000000000000000e+00  1.4429474642629133e-06 5.8341005041706356e-04 0.0000000000000000e+00  4.7795817973824310e-06 5.9758412827451944e-04 0.0000000000000000e+00  8.2635256148693918e-06 6.1171239337568233e-04 0.0000000000000000e+00  1.1878257521918797e-05 6.2578399230060408e-04 0.0000000000000000e+00  1.5599764547026601e-05 6.3980534768230972e-04 0.0000000000000000e+00  1.9405661081506402e-05 6.5377020650505299e-04 0.0000000000000000e+00  2.3279845874792894e-05 6.6767003489273061e-04 0.0000000000000000e+00  2.7208283554438150e-05 6.8150697514010681e-04 0.0000000000000000e+00  3.1176941182842885e-05 6.9528902232786718e-04 0.0000000000000000e+00  3.5171377370738769e-05 7.0902649427139462e-04 0.0000000000000000e+00  3.9177303096147899e-05 7.2272632609182426e-04 0.0000000000000000e+00  4.3180751341417586e-05 7.3639031095853763e-04 0.0000000000000000e+00  -2.3723873382132715e-05 5.2154432127565287e-04 0.0000000000000000e+00  -2.1136207795351708e-05 5.3490823856712510e-04 0.0000000000000000e+00  -1.8260478927047429e-05 5.4816337072824655e-04 0.0000000000000000e+00  -1.5196758989213926e-05 5.6176829187888709e-04 0.0000000000000000e+00  -1.1976055813915405e-05 5.7545918791392287e-04 0.0000000000000000e+00  -8.5605116947558802e-06 5.8910332787890534e-04 0.0000000000000000e+00  -4.9592513028288749e-06 6.0276040169189636e-04 0.0000000000000000e+00  -1.1916442158824725e-06 6.1641594235374130e-04 0.0000000000000000e+00  2.7099552228937569e-06 6.3009086232622619e-04 0.0000000000000000e+00  6.7199469099029418e-06 6.4376564161681320e-04 0.0000000000000000e+00  1.0825255501261990e-05 6.5741945234389304e-04 0.0000000000000000e+00  1.5013100804797964e-05 6.7105580195197005e-04 0.0000000000000000e+00  1.9267224087352902e-05 6.8468471931823884e-04 0.0000000000000000e+00  2.3567426167793742e-05 6.9831878235080596e-04 0.0000000000000000e+00  2.7892109750876996e-05 7.1196432792923253e-04 0.0000000000000000e+00  3.2220332948856202e-05 7.2562109461820484e-04 0.0000000000000000e+00  3.6531738289552912e-05 7.3928532636646316e-04 0.0000000000000000e+00  -3.3988040711874844e-05 5.2884866669512657e-04 0.0000000000000000e+00  -3.1125236970356814e-05 5.4117439979414999e-04 0.0000000000000000e+00  -2.8074380643530241e-05 5.5431096587767387e-04 0.0000000000000000e+00  -2.4882036524688198e-05 5.6750173603429090e-04 0.0000000000000000e+00  -2.1440896704060917e-05 5.8056883689191303e-04 0.0000000000000000e+00  -1.7771620172679019e-05 5.9373326648059393e-04 0.0000000000000000e+00  -1.3895741039166821e-05 6.0694542087844083e-04 0.0000000000000000e+00  -9.8612078941825218e-06 6.2026452914684595e-04 0.0000000000000000e+00  -5.6977062888957962e-06 6.3363864217285933e-04 0.0000000000000000e+00  -1.4101590325442429e-06 6.4702562244663142e-04 0.0000000000000000e+00  2.9913820379017697e-06 6.6043867796799355e-04 0.0000000000000000e+00  7.4884116418489213e-06 6.7389385667763525e-04 0.0000000000000000e+00  1.2054120862329058e-05 6.8741050900635362e-04 0.0000000000000000e+00  1.6659315292866855e-05 7.0099465575775271e-04 0.0000000000000000e+00  2.1276528307131645e-05 7.1464263605370594e-04 0.0000000000000000e+00  2.5879399281304428e-05 7.2834851657337313e-04 0.0000000000000000e+00  3.0442642343948266e-05 7.4210273773793597e-04 0.0000000000000000e+00  -4.3433009253208276e-05 5.3393519997118927e-04 0.0000000000000000e+00  -4.0447299304219613e-05 5.4687433842385896e-04 0.0000000000000000e+00  -3.7358892201181930e-05 5.5960012772549017e-04 0.0000000000000000e+00  -3.3930191354870123e-05 5.7198394108762794e-04 0.0000000000000000e+00  -3.0235155999354535e-05 5.8464266116156486e-04 0.0000000000000000e+00  -2.6286570783584506e-05 5.9737224832718161e-04 0.0000000000000000e+00  -2.2162972491176620e-05 6.1034052444115924e-04 0.0000000000000000e+00  -1.7897114432400331e-05 6.2341010782625587e-04 0.0000000000000000e+00  -1.3473442054314740e-05 6.3650343825332508e-04 0.0000000000000000e+00  -8.8979702077881373e-06 6.4966556064969248e-04 0.0000000000000000e+00  -4.1923752597097797e-06 6.6292212864187193e-04 0.0000000000000000e+00  6.0717453874928720e-07 6.7630624872839151e-04 0.0000000000000000e+00  5.4625722919041860e-06 6.8982173543512325e-04 0.0000000000000000e+00  1.0340354030042112e-05 7.0345864469780633e-04 0.0000000000000000e+00  1.5208156479351067e-05 7.1720920304776210e-04 0.0000000000000000e+00  2.0034540407194208e-05 7.3106088289386713e-04 0.0000000000000000e+00  2.4791306983343297e-05 7.4499470941795083e-04 0.0000000000000000e+00  -5.2512166258834575e-05 5.3955191764654457e-04 0.0000000000000000e+00  -4.9482265897662027e-05 5.5185589259467186e-04 0.0000000000000000e+00  -4.6071245619121497e-05 5.6331922656807252e-04 0.0000000000000000e+00  -4.2405205721970564e-05 5.7550539393617537e-04 0.0000000000000000e+00  -3.8415289329873581e-05 5.8767832403333489e-04 0.0000000000000000e+00  -3.4246985031823202e-05 6.0033640951752387e-04 0.0000000000000000e+00  -2.9934318525457890e-05 6.1310774151802634e-04 0.0000000000000000e+00  -2.5417017931585938e-05 6.2586480608257792e-04 0.0000000000000000e+00  -2.0700414290168027e-05 6.3874047539627557e-04 0.0000000000000000e+00  -1.5811668425789052e-05 6.5176639576241982e-04 0.0000000000000000e+00  -1.0801736525358725e-05 6.6500265954927233e-04 0.0000000000000000e+00  -5.7194221919777788e-06 6.7844325334754545e-04 0.0000000000000000e+00  -6.0239745104590909e-07 6.9206618167480928e-04 0.0000000000000000e+00  4.5108587012976274e-06 7.0586465626136941e-04 0.0000000000000000e+00  9.5814112058788587e-06 7.1982334056153120e-04 0.0000000000000000e+00  1.4574962705914600e-05 7.3391589185509956e-04 0.0000000000000000e+00  1.9464024087075330e-05 7.4811146748125063e-04 0.0000000000000000e+00  -6.0827046130517692e-05 5.4453795517862261e-04 0.0000000000000000e+00  -6.3242371781959726e-05 5.3271118267597499e-04 0.0000000000000000e+00  -5.7774077747605459e-05 5.5448919731532914e-04 0.0000000000000000e+00  -5.4332150031957189e-05 5.6638446215290239e-04 0.0000000000000000e+00  -5.0348486331962711e-05 5.7780453246438998e-04 0.0000000000000000e+00  -4.6178353868092033e-05 5.9028278519239344e-04 0.0000000000000000e+00  -4.1877886551790895e-05 6.0277387315593462e-04 0.0000000000000000e+00  -3.7298974434860744e-05 6.1511482988769301e-04 0.0000000000000000e+00  -3.2464586399398961e-05 6.2766055661198018e-04 0.0000000000000000e+00  -2.7408065495131687e-05 6.4041244324712827e-04 0.0000000000000000e+00  -2.2204103078050455e-05 6.5348882062531925e-04 0.0000000000000000e+00  -1.6913011481518287e-05 6.6685113323919560e-04 0.0000000000000000e+00  -1.1571287007932508e-05 6.8045522695285078e-04 0.0000000000000000e+00  -6.2242876488845963e-06 6.9430522160392508e-04 0.0000000000000000e+00  -9.2135956881325863e-07 7.0838334984279312e-04 0.0000000000000000e+00  4.2955395703738540e-06 7.2265208997846549e-04 0.0000000000000000e+00  9.3946125875718792e-06 7.3706895396258038e-04 0.0000000000000000e+00  1.4352838148939354e-05 7.5159428086993198e-04 0.0000000000000000e+00  -6.9687529678177457e-05 5.3911698518904793e-04 0.0000000000000000e+00  -6.9819561252613277e-05 5.3273709180003603e-04 0.0000000000000000e+00  -6.9649116359671014e-05 5.4512189337918213e-04 0.0000000000000000e+00  -6.6223144488073544e-05 5.5752117868598675e-04 0.0000000000000000e+00  -6.2300545523898091e-05 5.6755267323644416e-04 0.0000000000000000e+00  -5.8072492898839476e-05 5.8023689682510315e-04 0.0000000000000000e+00  -5.3809962650992116e-05 5.9247521100823559e-04 0.0000000000000000e+00  -4.9171227090282980e-05 6.0424016029429122e-04 0.0000000000000000e+00  -4.4234813211814108e-05 6.1641721453058683e-04 0.0000000000000000e+00  -3.9018383967695019e-05 6.2883116190615477e-04 0.0000000000000000e+00  -3.3634244388978317e-05 6.4174815423942747e-04 0.0000000000000000e+00  -2.8151539709126923e-05 6.5503375225273879e-04 0.0000000000000000e+00  -2.2592743108179957e-05 6.6860739515101444e-04 0.0000000000000000e+00  -1.7014149161437118e-05 6.8251272218114781e-04 0.0000000000000000e+00  -1.1481977909940814e-05 6.9672768542584798e-04 0.0000000000000000e+00  -6.0481816910157749e-06 7.1119576057919476e-04 0.0000000000000000e+00  -7.4900787743344532e-07 7.2585812670883181e-04 0.0000000000000000e+00  4.3907739556616505e-06 7.4066359921108919e-04 0.0000000000000000e+00  9.3552883091113407e-06 7.5556842634219709e-04 0.0000000000000000e+00  -7.5701911644950677e-05 5.3912174211788249e-04 0.0000000000000000e+00  -7.6019798658445793e-05 5.3273798904548563e-04 0.0000000000000000e+00  -7.5504566604289977e-05 5.4515787523284562e-04 0.0000000000000000e+00  -7.5385888199823542e-05 5.5077061877917288e-04 0.0000000000000000e+00  -7.5339616597305473e-05 5.5606651404263043e-04 0.0000000000000000e+00  -7.0066717598398946e-05 5.7029825892152442e-04 0.0000000000000000e+00  -6.5728657443523916e-05 5.8232596190436439e-04 0.0000000000000000e+00  -6.1016332276085363e-05 5.9318895078474827e-04 0.0000000000000000e+00  -5.6032257276148724e-05 6.0501177231144800e-04 0.0000000000000000e+00  -5.0675341886089966e-05 6.1697203684739105e-04 0.0000000000000000e+00  -4.5134029809681265e-05 6.2976473347403812e-04 0.0000000000000000e+00  -3.9482397372133963e-05 6.4298023741398151e-04 0.0000000000000000e+00  -3.3703968650586539e-05 6.5649195433270502e-04 0.0000000000000000e+00  -2.7881715668652564e-05 6.7045732692742508e-04 0.0000000000000000e+00  -2.2112051027504831e-05 6.8483540810000015e-04 0.0000000000000000e+00  -1.6459320168927594e-05 6.9953447680924804e-04 0.0000000000000000e+00  -1.0963468280436512e-05 7.1447327237801313e-04 0.0000000000000000e+00  -5.6503958710131452e-06 7.2958757408862675e-04 0.0000000000000000e+00  -5.3509540256496951e-07 7.4482300709164415e-04 0.0000000000000000e+00  4.3758343017229709e-06 7.6013722938937406e-04 0.0000000000000000e+00  -8.1348651725518924e-05 5.3911926494053632e-04 0.0000000000000000e+00  -8.1854452561911319e-05 5.3275851861386728e-04 0.0000000000000000e+00  -8.0962308455852984e-05 5.4515010694141069e-04 0.0000000000000000e+00  -8.0686708684858037e-05 5.5078947734797602e-04 0.0000000000000000e+00  -8.0521588066004594e-05 5.5608675240551302e-04 0.0000000000000000e+00  -8.0417987754984060e-05 5.6102609065764811e-04 0.0000000000000000e+00  -7.6871671497478447e-05 5.7270156681909080e-04 0.0000000000000000e+00  -7.2615893444621829e-05 5.8186496691571869e-04 0.0000000000000000e+00  -6.7867700047889943e-05 5.9352004789066295e-04 0.0000000000000000e+00  -6.2440898037972685e-05 6.0474133597901198e-04 0.0000000000000000e+00  -5.6778316368522746e-05 6.1753673756769184e-04 0.0000000000000000e+00  -5.0984411344278916e-05 6.3068615784455740e-04 0.0000000000000000e+00  -4.4958756801083538e-05 6.4405422521465164e-04 0.0000000000000000e+00  -3.8856352389814474e-05 6.5809194961108191e-04 0.0000000000000000e+00  -3.2825635779758055e-05 6.7267647022209258e-04 0.0000000000000000e+00  -2.6941623312286708e-05 6.8765059436317537e-04 0.0000000000000000e+00  -2.1244705831815364e-05 7.0290542783036367e-04 0.0000000000000000e+00  -1.5761127442254389e-05 7.1836452905764078e-04 0.0000000000000000e+00  -1.0503909924298135e-05 7.3396062858344774e-04 0.0000000000000000e+00  -5.4751459532157677e-06 7.4964261896166221e-04 0.0000000000000000e+00  -6.7177662379202237e-07 7.6537947014605290e-04 0.0000000000000000e+00  -8.6615887099357266e-05 5.3911768987218096e-04 0.0000000000000000e+00  -8.6084846704408922e-05 5.4515492772276943e-04 0.0000000000000000e+00  -8.5637903032081858e-05 5.5080078680518464e-04 0.0000000000000000e+00  -8.5291271582420880e-05 5.5610139511138039e-04 0.0000000000000000e+00  -8.5039589483041207e-05 5.6105215123189369e-04 0.0000000000000000e+00  -8.4866844878685226e-05 5.6560609653428379e-04 0.0000000000000000e+00  -8.4796740576898450e-05 5.6982536161726829e-04 0.0000000000000000e+00  -7.9990906846154699e-05 5.8226665606724969e-04 0.0000000000000000e+00  -7.4597891746534597e-05 5.9188426022448539e-04 0.0000000000000000e+00  -6.8737604393222782e-05 6.0509425752303309e-04 0.0000000000000000e+00  -6.2785322404932263e-05 6.1815716100042343e-04 0.0000000000000000e+00  -5.6423789398850430e-05 6.3118673283049024e-04 0.0000000000000000e+00  -4.9967939414887139e-05 6.4534523858333546e-04 0.0000000000000000e+00  -4.3636218682993284e-05 6.6021168123081531e-04 0.0000000000000000e+00  -3