<?xml version="1.0"?>
<VTKFile type="UnstructuredGrid"  version="0.1"  >
<UnstructuredGrid>
<Piece  NumberOfPoints="640" NumberOfCells="1181">
<Points>
<DataArray  type="Float64"  NumberOfComponents="3"  format="ascii">2.973913043478261 0 0  2.990434782608696 0 0  2.990434782608696 0.01666666666666667 0  2.973913043478261 0.01666666666666667 0  3.006956521739131 0 0  3.006956521739131 0.01666666666666667 0  3.023478260869565 0 0  3.023478260869565 0.01666666666666667 0  3.04 0 0  3.04 0.01666666666666667 0  3.056521739130435 0 0  3.056521739130435 0.01666666666666667 0  3.073043478260869 0 0  3.073043478260869 0.01666666666666667 0  3.089565217391304 0 0  3.089565217391304 0.01666666666666667 0  3.106086956521739 0 0  3.106086956521739 0.01666666666666667 0  3.122608695652174 0 0  3.122608695652174 0.01666666666666667 0  3.139130434782609 0 0  3.139130434782609 0.01666666666666667 0  3.155652173913043 0 0  3.155652173913043 0.01666666666666667 0  3.172173913043478 0 0  3.172173913043478 0.01666666666666667 0  3.188695652173913 0 0  3.188695652173913 0.01666666666666667 0  3.205217391304347 0 0  3.205217391304347 0.01666666666666667 0  3.221739130434782 0 0  3.221739130434782 0.01666666666666667 0  3.238260869565217 0 0  3.238260869565217 0.01666666666666667 0  2.990434782608696 0.03333333333333333 0  2.973913043478261 0.03333333333333333 0  3.006956521739131 0.03333333333333333 0  3.023478260869565 0.03333333333333333 0  3.04 0.03333333333333333 0  3.056521739130435 0.03333333333333333 0  3.073043478260869 0.03333333333333333 0  3.089565217391304 0.03333333333333333 0  3.106086956521739 0.03333333333333333 0  3.122608695652174 0.03333333333333333 0  3.139130434782609 0.03333333333333333 0  3.155652173913043 0.03333333333333333 0  3.172173913043478 0.03333333333333333 0  3.188695652173913 0.03333333333333333 0  3.205217391304347 0.03333333333333333 0  3.221739130434782 0.03333333333333333 0  3.238260869565217 0.03333333333333333 0  3.254782608695652 0.03333333333333333 0  2.990434782608696 0.05 0  3.006956521739131 0.05 0  3.023478260869565 0.05 0  3.04 0.05 0  3.056521739130435 0.05 0  3.073043478260869 0.05 0  3.089565217391304 0.05 0  3.106086956521739 0.05 0  3.122608695652174 0.05 0  3.139130434782609 0.05 0  3.155652173913043 0.05 0  3.172173913043478 0.05 0  3.188695652173913 0.05 0  3.205217391304347 0.05 0  3.221739130434782 0.05 0  3.238260869565217 0.05 0  3.254782608695652 0.05 0  3.271304347826087 0.05 0  3.006956521739131 0.06666666666666667 0  2.990434782608696 0.06666666666666667 0  3.023478260869565 0.06666666666666667 0  3.04 0.06666666666666667 0  3.056521739130435 0.06666666666666667 0  3.073043478260869 0.06666666666666667 0  3.089565217391304 0.06666666666666667 0  3.106086956521739 0.06666666666666667 0  3.122608695652174 0.06666666666666667 0  3.139130434782609 0.06666666666666667 0  3.155652173913043 0.06666666666666667 0  3.172173913043478 0.06666666666666667 0  3.188695652173913 0.06666666666666667 0  3.205217391304347 0.06666666666666667 0  3.221739130434782 0.06666666666666667 0  3.238260869565217 0.06666666666666667 0  3.254782608695652 0.06666666666666667 0  3.271304347826087 0.06666666666666667 0  3.287826086956521 0.06666666666666667 0  3.006956521739131 0.08333333333333333 0  3.023478260869565 0.08333333333333333 0  3.04 0.08333333333333333 0  3.056521739130435 0.08333333333333333 0  3.073043478260869 0.08333333333333333 0  3.089565217391304 0.08333333333333333 0  3.106086956521739 0.08333333333333333 0  3.122608695652174 0.08333333333333333 0  3.139130434782609 0.08333333333333333 0  3.155652173913043 0.08333333333333333 0  3.172173913043478 0.08333333333333333 0  3.188695652173913 0.08333333333333333 0  3.205217391304347 0.08333333333333333 0  3.221739130434782 0.08333333333333333 0  3.238260869565217 0.08333333333333333 0  3.254782608695652 0.08333333333333333 0  3.271304347826087 0.08333333333333333 0  3.287826086956521 0.08333333333333333 0  3.304347826086957 0.08333333333333333 0  3.023478260869565 0.1 0  3.006956521739131 0.1 0  3.04 0.1 0  3.056521739130435 0.1 0  3.073043478260869 0.1 0  3.089565217391304 0.1 0  3.106086956521739 0.1 0  3.122608695652174 0.1 0  3.139130434782609 0.1 0  3.155652173913043 0.1 0  3.172173913043478 0.1 0  3.188695652173913 0.1 0  3.205217391304347 0.1 0  3.221739130434782 0.1 0  3.238260869565217 0.1 0  3.254782608695652 0.1 0  3.271304347826087 0.1 0  3.287826086956521 0.1 0  3.304347826086957 0.1 0  3.320869565217391 0.1 0  3.023478260869565 0.1166666666666667 0  3.04 0.1166666666666667 0  3.056521739130435 0.1166666666666667 0  3.073043478260869 0.1166666666666667 0  3.089565217391304 0.1166666666666667 0  3.106086956521739 0.1166666666666667 0  3.122608695652174 0.1166666666666667 0  3.139130434782609 0.1166666666666667 0  3.155652173913043 0.1166666666666667 0  3.172173913043478 0.1166666666666667 0  3.188695652173913 0.1166666666666667 0  3.205217391304347 0.1166666666666667 0  3.221739130434782 0.1166666666666667 0  3.238260869565217 0.1166666666666667 0  3.254782608695652 0.1166666666666667 0  3.271304347826087 0.1166666666666667 0  3.287826086956521 0.1166666666666667 0  3.304347826086957 0.1166666666666667 0  3.320869565217391 0.1166666666666667 0  3.337391304347826 0.1166666666666667 0  3.04 0.1333333333333333 0  3.023478260869565 0.1333333333333333 0  3.056521739130435 0.1333333333333333 0  3.073043478260869 0.1333333333333333 0  3.089565217391304 0.1333333333333333 0  3.106086956521739 0.1333333333333333 0  3.122608695652174 0.1333333333333333 0  3.139130434782609 0.1333333333333333 0  3.155652173913043 0.1333333333333333 0  3.172173913043478 0.1333333333333333 0  3.188695652173913 0.1333333333333333 0  3.205217391304347 0.1333333333333333 0  3.221739130434782 0.1333333333333333 0  3.238260869565217 0.1333333333333333 0  3.254782608695652 0.1333333333333333 0  3.271304347826087 0.1333333333333333 0  3.287826086956521 0.1333333333333333 0  3.304347826086957 0.1333333333333333 0  3.320869565217391 0.1333333333333333 0  3.337391304347826 0.1333333333333333 0  3.353913043478261 0.1333333333333333 0  3.04 0.15 0  3.056521739130435 0.15 0  3.073043478260869 0.15 0  3.089565217391304 0.15 0  3.106086956521739 0.15 0  3.122608695652174 0.15 0  3.139130434782609 0.15 0  3.155652173913043 0.15 0  3.172173913043478 0.15 0  3.188695652173913 0.15 0  3.205217391304347 0.15 0  3.221739130434782 0.15 0  3.238260869565217 0.15 0  3.254782608695652 0.15 0  3.271304347826087 0.15 0  3.287826086956521 0.15 0  3.304347826086957 0.15 0  3.320869565217391 0.15 0  3.337391304347826 0.15 0  3.353913043478261 0.15 0  3.370434782608696 0.15 0  3.056521739130435 0.1666666666666667 0  3.073043478260869 0.1666666666666667 0  3.089565217391304 0.1666666666666667 0  3.106086956521739 0.1666666666666667 0  3.122608695652174 0.1666666666666667 0  3.139130434782609 0.1666666666666667 0  3.155652173913043 0.1666666666666667 0  3.172173913043478 0.1666666666666667 0  3.188695652173913 0.1666666666666667 0  3.205217391304347 0.1666666666666667 0  3.221739130434782 0.1666666666666667 0  3.238260869565217 0.1666666666666667 0  3.254782608695652 0.1666666666666667 0  3.271304347826087 0.1666666666666667 0  3.287826086956521 0.1666666666666667 0  3.304347826086957 0.1666666666666667 0  3.320869565217391 0.1666666666666667 0  3.337391304347826 0.1666666666666667 0  3.353913043478261 0.1666666666666667 0  3.370434782608696 0.1666666666666667 0  3.386956521739131 0.1666666666666667 0  3.073043478260869 0.1833333333333333 0  3.089565217391304 0.1833333333333333 0  3.106086956521739 0.1833333333333333 0  3.122608695652174 0.1833333333333333 0  3.139130434782609 0.1833333333333333 0  3.155652173913043 0.1833333333333333 0  3.172173913043478 0.1833333333333333 0  3.188695652173913 0.1833333333333333 0  3.205217391304347 0.1833333333333333 0  3.221739130434782 0.1833333333333333 0  3.238260869565217 0.1833333333333333 0  3.254782608695652 0.1833333333333333 0  3.271304347826087 0.1833333333333333 0  3.287826086956521 0.1833333333333333 0  3.304347826086957 0.1833333333333333 0  3.320869565217391 0.1833333333333333 0  3.337391304347826 0.1833333333333333 0  3.353913043478261 0.1833333333333333 0  3.370434782608696 0.1833333333333333 0  3.386956521739131 0.1833333333333333 0  3.403478260869565 0.1833333333333333 0  3.089565217391304 0.2 0  3.106086956521739 0.2 0  3.122608695652174 0.2 0  3.139130434782609 0.2 0  3.155652173913043 0.2 0  3.172173913043478 0.2 0  3.188695652173913 0.2 0  3.205217391304347 0.2 0  3.221739130434782 0.2 0  3.238260869565217 0.2 0  3.254782608695652 0.2 0  3.271304347826087 0.2 0  3.287826086956521 0.2 0  3.304347826086957 0.2 0  3.320869565217391 0.2 0  3.337391304347826 0.2 0  3.353913043478261 0.2 0  3.370434782608696 0.2 0  3.386956521739131 0.2 0  3.403478260869565 0.2 0  3.419999999999999 0.2 0  3.106086956521739 0.2166666666666667 0  3.122608695652174 0.2166666666666667 0  3.139130434782609 0.2166666666666667 0  3.155652173913043 0.2166666666666667 0  3.172173913043478 0.2166666666666667 0  3.188695652173913 0.2166666666666667 0  3.205217391304347 0.2166666666666667 0  3.221739130434782 0.2166666666666667 0  3.238260869565217 0.2166666666666667 0  3.254782608695652 0.2166666666666667 0  3.271304347826087 0.2166666666666667 0  3.287826086956521 0.2166666666666667 0  3.304347826086957 0.2166666666666667 0  3.320869565217391 0.2166666666666667 0  3.337391304347826 0.2166666666666667 0  3.353913043478261 0.2166666666666667 0  3.370434782608696 0.2166666666666667 0  3.386956521739131 0.2166666666666667 0  3.403478260869565 0.2166666666666667 0  3.419999999999999 0.2166666666666667 0  3.436521739130435 0.2166666666666667 0  3.122608695652174 0.2333333333333333 0  3.139130434782609 0.2333333333333333 0  3.155652173913043 0.2333333333333333 0  3.172173913043478 0.2333333333333333 0  3.188695652173913 0.2333333333333333 0  3.205217391304347 0.2333333333333333 0  3.221739130434782 0.2333333333333333 0  3.238260869565217 0.2333333333333333 0  3.254782
[...]
<CellData  Scalars="rho"> 
<DataArray  type="Float64"  Name="rho"  format="ascii">9.8937573086430164e-01   9.8667706367972441e-01   9.3645343028896577e-01   9.3072583862957403e-01   8.8661104351843611e-01   8.6046842625588138e-01   6.9945793704395032e-01   7.2141672743735508e-01   6.2437119593453216e-01   6.3092293662829546e-01   5.5896693093985128e-01   5.7702038217438856e-01   5.1012622097696392e-01   5.1979079853178367e-01   4.5335146470416121e-01   4.7685770549024065e-01   3.9275112770679294e-01   4.2929176057634644e-01   3.1791727215400467e-01   3.6343019616681105e-01   2.1022785349702991e-01   2.8874191625050621e-01   1.1375608479502375e-01   2.4428010284310536e-01   0.0000000000000000e+00   4.2988370620523103e-02   0.0000000000000000e+00   0.0000000000000000e+00   7.3922469442824840e-08   5.0371789153311526e-08   1.3099333772425766e-07   1.3113244235228437e-07   7.7524700311735451e-01   6.1374668092507756e-01   7.2506319043250989e-01   6.0326072444962342e-01   6.2356575492331334e-01   5.6885765807024424e-01   5.8523990334679254e-01   5.3167445091992827e-01   5.5798309698200843e-01   5.1001411895041837e-01   5.0162753323785580e-01   4.8011166101959063e-01   4.8863858455379605e-01   4.6943327800419138e-01   4.7370842640679522e-01   4.8558628952223720e-01   4.5252010772755041e-01   4.8100169373398044e-01   3.9507387967914603e-01   4.3875396610557982e-01   3.6319954871686172e-01   4.1021331721196724e-01   3.2169982404605652e-01   3.7771555389051098e-01   2.0742772635789911e-01   3.4508216931041724e-01   0.0000000000000000e+00   1.9456922965955398e-01   1.4469099034971812e-07   1.2676851499327787e-02   9.0039726718997300e-07   2.3414588516517964e-06   9.2573325513962948e-05   4.0756344852100124e-01   3.9609719917283004e-01   3.2736326943333333e-01   3.8054165293585324e-01   3.1625432113846497e-01   3.7357287180251592e-01   2.6818697433702565e-01   3.6936807937785149e-01   2.7378281637698776e-01   3.9889076273671981e-01   3.2452161165942245e-01   4.3709709876003094e-01   4.0907171264302467e-01   4.5549294910685489e-01   4.5914165720060879e-01   4.7593704394143943e-01   4.9615491254008809e-01   4.8245372355677429e-01   5.1620950890696349e-01   4.7995063625089873e-01   5.2066927121902729e-01   4.6468131485881392e-01   5.4497329979435549e-01   4.3854530576906714e-01   5.5206756680285030e-01   3.9447232207584054e-01   5.5118161813218602e-01   1.7433644305111817e-01   4.1385348067655547e-01   3.3637730954518902e-04   8.2886141432174626e-02   1.0081334651668881e-03   1.8931126572548831e-03   1.1758638062928062e-02   7.1486799242585081e-02   2.3087927108656909e-07   3.6974580549385329e-02   2.2697913339368590e-07   8.4656359897644029e-02   4.1772758278465187e-07   2.0047160861442265e-01   1.9181761511616718e-01   3.0134856493278528e-01   3.0278438507607996e-01   3.8287309467863168e-01   4.0435537475423405e-01   4.5586748468813409e-01   4.5525011243344571e-01   5.2569353962010290e-01   5.2877145601632858e-01   5.3005517628537380e-01   5.4428914865497702e-01   5.9484802447385055e-01   6.4921367280054565e-01   7.0910511253693609e-01   7.6968875575307227e-01   9.8292365644013457e-01   8.5659318874562318e-01   9.8408413057779309e-01   9.8774258092188927e-01   8.1439950338049938e-01   9.8800684250148052e-01   5.0177513005267227e-01   8.8926266233022799e-01   7.7930060298564752e-02   4.0370455727959875e-01   2.4866729111696465e-02   5.0894602187145269e-02   3.1671142226114599e-02   3.0856751809906343e-07   4.6200214791254307e-05   4.5305040851086216e-04   8.5193570789081297e-02   5.6238893284073048e-02   2.1762233357822949e-01   2.1964692570782784e-01   3.8276620507866460e-01   3.5337759714784489e-01   4.5059683434371572e-01   4.5457282034509766e-01   5.2585769027278462e-01   5.7317638380198199e-01   5.2256508740429808e-01   5.6124723569588320e-01   5.9594528980739381e-01   5.2984352213072083e-01   6.7426986683546364e-01   6.2355158035072300e-01   8.2637828791658352e-01   7.5431440517610493e-01   9.9423759977756487e-01   9.1658867239439390e-01   9.9500449361378240e-01   9.9549536235350766e-01   9.9858391040895988e-01   9.9554066564257337e-01   9.9996927787746737e-01   9.9996973020225333e-01   7.0111598814596898e-01   9.9998385612216756e-01   1.3598771202021159e-01   6.2396150110034787e-01   4.0425910368570774e-02   8.3836042274675157e-02   4.2737350435360484e-02   4.4893292857522492e-02   2.8697640504190641e-02   1.8275603419364428e-01   1.5702373243723525e-01   2.9229799078449831e-01   2.8362876641346002e-01   4.3034826653183977e-01   4.0694808481611938e-01   5.9298901445225449e-01   5.9088227703493723e-01   6.2941551332522849e-01   6.9782497698512391e-01   5.3749036853833898e-01   5.8534119605036827e-01   4.9345787195548818e-01   4.7784900159145577e-01   5.7283820946723496e-01   4.6127745455482416e-01   7.1790633201179455e-01   6.2605772569510931e-01   9.7544589003312132e-01   7.4214656893293174e-01   9.9094887316903080e-01   9.8722751891952631e-01   9.9996265999243439e-01   9.9347039002089510e-01   9.9998010911346336e-01   9.9997666184026890e-01   9.9996392879841911e-01   9.9998663649541364e-01   9.9993199659809084e-01   9.9993653080955591e-01   5.1767996842909347e-01   9.5804750065281286e-01   3.9962703291570222e-02   9.1404234972755086e-02   2.3018563433271740e-02   1.4118776898154839e-01   2.7523218882494144e-01   2.9125061557723958e-01   4.7284274807842441e-01   5.3881697600356271e-01   7.5426823584139102e-01   9.3702153514228770e-01   8.4889242612173155e-01   9.9985066986381699e-01   6.6615450693404810e-01   7.9261975792204298e-01   4.8232410557675143e-01   5.2996387820047142e-01   3.9903878590837061e-01   3.9174879544153651e-01   3.0786564596571070e-01   2.5036840363713514e-01   4.0946692469248280e-01   1.2095753006232058e-04   5.8848003281229522e-01   4.0614839629126614e-01   8.8265211044272651e-01   6.6211181584597556e-01   9.9360486996214104e-01   9.3604330894708310e-01   9.9998241486208350e-01   9.9998242773728041e-01   9.9994396550113818e-01   9.9995342256674768e-01   9.9985711796517251e-01   9.9987202475570236e-01   9.9927917861473459e-01   9.9962845400180911e-01   6.9927153888217497e-01   9.9777657256524255e-01   1.1698514353158109e-02   5.3228756061937643e-01   0.0000000000000000e+00   6.8626093771192898e-01   5.8349096522494759e-01   9.9989249703094318e-01   9.9990972055073279e-01   9.9985991253600481e-01   9.9988454937593607e-01   9.9983099433750267e-01   9.9985865441023392e-01   6.7869315422719079e-01   7.5208716432646372e-01   4.5420924847618077e-01   5.1624528460839969e-01   2.3075161713893091e-01   3.0750712447427969e-01   1.5749762852705041e-04   2.5461060293315957e-04   1.0479941519781460e-03   4.1851056521629269e-04   3.5822176896319374e-03   2.5461620622183765e-03   3.7705975230766559e-01   5.3684894288890846e-03   7.3228381578495749e-01   3.9737847671343851e-01   9.9998462279301259e-01   9.9996810306116712e-01   9.9988280677384755e-01   9.9988849824939330e-01   9.9972673839986381e-01   9.9973170939735057e-01   9.9877993180239399e-01   9.9930716445063528e-01   9.9492737162754974e-01   9.9773397789279639e-01   8.3273971070983899e-01   9.9405723658151468e-01   1.0739131814341354e-06   7.0465210997202621e-01   3.5298388223427630e-06   9.9992415091672704e-01   9.9991387710405644e-01   9.9992205738097162e-01   9.9989818918738060e-01   9.9991028208944110e-01   8.6518508858072696e-01   8.8969334286221435e-01   5.7545233742535162e-01   6.0470967774993667e-01   3.2780441860734827e-01   3.6978835571623714e-01   1.2825451872230340e-01   1.4405369747652813e-01   1.0718772618248796e-03   1.7380133697054252e-03   1.8832202524409986e-03   1.2086330277168991e-03   3.1402141537264800e-03   2.3557362901722315e-03   6.2476518365076035e-03   4.3784870293753905e-03   1.5706508742622249e-02   8.5508119780149921e-03   7.3104743435155040e-01   2.2130984997830822e-01   9.9968991227583237e-01   6.6968551641588259e-01   9.9945516656994327e-01   9.9866537971670277e-01   9.9869758612406212e-01   9.9860514660590494e-01   9.9658540116253569e-01   9.9701688258126331e-01   9.9584569271657308e-01   9.9659281159463653e-01   9.4526646252572299e-01   9.9696615453562809e-01   9.5816308643329892e-02   8.7670321466488288e-01   1.0158979135218252e-04   9.9992113101711644e-01   9.4291248445912867e-01   8.9197989033613201e-01   6.7038594542394803e-01   6.8670263119108599e-01   4.2955087884674786e-01   4.3336341607194528e-01   2.2788285364710217e-01   2.3366363094450227e-01   2.2066411514089024e-03   2.6192559160613618e-03   1.4295621980285986e-03   1.8411605828688817e-03   1.7593892309956060e-03   1.6267288506823605e-03   2.5890817624793878e-03   1.9828731909422694e-03   4.0697024226015281e-03   3.2193672299441886e-03   9.9424259717402503e-03   5.5063038800156313e-03   9.4228141619765952e-03   6.9015627479404075e-03   4.8825101945381461e-01   1.5660486448138100e-01   9.9701309900834645e-01   5.6545471855122509e-01   9.9645616690930494e-01   9.9491899408831630e-01   9.9709362332162810e-01   9.9674572255508864e-01   9.9748937316878017e-01   9.9755164801882557e-01   9.9829619409223258e-01   9.9804545280821233e-01   9.9121037890311336e-01   9.9844255681934524e-01   5.7043088906117123e-01   9.7537582277866719e-01   5.6872739110945503e-01   7.0215613221616568e-01   4.2424440445561529e-01   4.9198175750794620e-01   2.4454553361930029e-01   4.3300728936033595e-02   3.2291832088672829e-03   1.0969005952718289e-01   2.1627054439067850e-03   2.1836621062334863e-03   1.5783043525825593e-03   1.5477724065037089e-03   1.5277310091236446e-03   1.3896119777484024e-03   1.9148413567062594e-03   1.2803984362890490e-03   2.8577967919935156e-03   2.2719078671402126e-03   6.1387831133582803e-03   3.4436823822269432e-03   4.4219039925757781e-03   6.2958836659722309e-03   4.2287186903616162e-03   3.0897882324487499e-03   4.0674733433354909e-01   9.1956073620797565e-02   9.9479938928086176e-01   4.9969426054275806e-01   9.9736945074263927e-01   9.9686014104188359e-01   9.9830634679639318e-01   9.9832482604824024e-01   9.9846337453958434e-01   9.9849096032623785e-01   9.9830354416562217e-01   9.9838896940145860e-01   9.9402116226255788e-01   9.9766339945973126e-01   6.4608788520406069e-01   9.8355109248055639e-01   5.9899960097664107e-01   1.6253127023913541e-01   8.7145052340646678e-02   1.7799972666944180e-03   1.9819465385998341e-03   1.7843618570176011e-03   1.5448235141836656e-03   1.4686138272445083e-03   1.2322014212916865e-03   1.1489280174254721e-03   1.1944750537445357e-03   1.0723401587563082e-03   1.1879542385826527e-03   9.0581509769392947e-04   1.9693131391771220e-03   1.4005809048455973e-03   3.1034533087720656e-03   3.0522991913945665e-03   2.5265157767359334e-03   3.9017446264340478e-03   2.0238282921938820e-03   2.2080320427431306e-03   3.0394078939200561e-03   3.2076771549199917e-03   3.2363710078235591e-01   1.0929167280239680e-02   8.7653920362955784e-01   3.9929579211954969e-01   9.9861589955086250e-01   9.9895662005278840e-01   9.9848265553253435e-01   9.9857305545954089e-01   9.9840938436123472e-01   9.9843358632707213e-01   9.9779215544177158e-01   9.9815391363129591e-01   9.9647728270484159e-01   9.9777054324235459e-01   8.6148086052143091e-01   9.9336352506617709e-01   7.5415198170313680e-01   1.1445289333402288e-03   1.1649938341243081e-03   9.4902196687450839e-04   9.8263446751749328e-04   8.7656491409231912e-04   8.8258457001639092e-04   7.9474661428501384e-04   8.7953763935179645e-04   7.7375900977026181e-04   8.4452558961166109e-04   6.4089396165144859e-04   1.1907438614679239e-03   9.3573873581928764e-04   1.9267154493539909e-03   1.9822165668101559e-03   1.5335088786165953e-03   2.5065378751043393e-03   1.0667562516303837e-03   1.3176250449747750e-03   1.9520417229687119e-03   2.2264277994434533e-03   3.1677613370599141e-03   2.1871245278663127e-03   1.7217428213758676e-01   9.9009268166772961e-03   5.7667249522220021e-01   2.9925922600047289e-01   9.9820121418796282e-01   7.0261514226679689e-01   9.9822693968508669e-01   9.9784253353062535e-01   9.9849174135103946e-01   9.9852929914777866e-01   9.9844894686875063e-01   9.9875784432884962e-01   9.9846144208026166e-01   9.9866843503037628e-01   9.7211474764207473e-01   9.9853764089948860e-01   8.5975744656254205e-01   6.2397624539845507e-04   6.2051537257186483e-04   5.3026016521119765e-04   6.0652547308412690e-04   5.2684757380290557e-04   6.3271785161546714e-04   5.4179533055348386e-04   5.6155526200384184e-04   4.2244339886355226e-04   7.9160519956635023e-04   6.2041424047908588e-04   1.5367297885315377e-03   1.2673295530883019e-03   9.6000944491834680e-04   1.6384269337180177e-03   7.2692490276543564e-04   8.4501924015557698e-04   1.7580629637681917e-03   1.4798681401108919e-03   2.0758916811922479e-03   1.7689572900603798e-03   6.0635045210422952e-03   2.4125266318356818e-03   4.8505719151775532e-02   7.4419719769487106e-03   4.4709551870048919e-01   6.5646326476216155e-02   9.7707300018246734e-01   5.4664427895344325e-01   9.9929260578698142e-01   9.9917059399699815e-01   9.9925852001346671e-01   9.9958216582112258e-01   9.9910987693848008e-01   9.9937372235841981e-01   9.9850690763967720e-01   9.9901714714076828e-01   9.7569257267539278e-01   9.9746950218573716e-01   9.1415753734975458e-01   3.7304297128616697e-04   3.9223909220803982e-04   3.3029904694165699e-04   4.2348992561576978e-04   3.5605361387188507e-04   3.6382833031184262e-04   2.6620121611656088e-04   5.2081254929893994e-04   4.0362666328515919e-04   9.9798373715093928e-04   7.6625885324620288e-04   6.0869543932341589e-04   5.1559823696876647e-04   1.0546660777042680e-03   5.4960781435816708e-04   1.2330333447993667e-03   1.0541292275772238e-03   1.9174524972135419e-03   1.6196378093457791e-03   4.8056238028481536e-03   2.4488060362514953e-03   7.3118960162825300e-03   5.6104014912525630e-03   1.4129153993181298e-02   1.0678897766383500e-02   3.5830150966742436e-01   3.5811342405521154e-02   8.4561169260522884e-01   4.2239040688975427e-01   9.9966139615744809e-01   9.9977945566023430e-01   9.9954523231534054e-01   9.9968109792419746e-01   9.9918314850307621e-01   9.9948727562846029e-01   9.9774704922154500e-01   9.9893181507799211e-01   9.7556234280675724e-01   9.9624957351274701e-01   9.6059250196223167e-01   2.4063912603338567e-04   2.7111261424109999e-04   2.1682369559614079e-04   2.2327900197385069e-04   1.5281904634131783e-04   3.2494994858829856e-04   2.5161852161554671e-04   6.5003679212466848e-04   4.8527724296614497e-04   3.0925914210868825e-04   3.2335523404331988e-04   7.0856658002405514e-04   6.1495617983126137e-04   1.1277094110819716e-03   7.1933449395985313e-04   1.5913354519023284e-03   1.3150429872291734e-03   3.9043643856517367e-03   2.0096447899146243e-03   6.5867911735721070e-03   5.1355468364614925e-03   1.1192007403631731e-02   8.6699909860100313e-03   1.9155636692596754e-02   1.3641959976665301e-02   2.2732404311740462e-01   3.7318074727238068e-02   6.6829725550193275e-01   3.3076870024206928e-01   9.9960445624259875e-01   7.5013174894568801e-01   9.9951011437749404e-01   9.9948035230477572e-01   9.9948339226049543e-01   9.9956033494305896e-01   9.9871179390246301e-01   9.9961011535573741e-01   9.8424022165615255e-01   9.9900039615641623e-01   9.7424163577022671e-01   1.5434017607233490e-04   1.1525890785208038e-04   6.3474609745455525e-05   1.9244909726378020e-04   1.2717089023276778e-04   1.9847670353632165e-04   1.6082546984592450e-04   2.4835459220800155e-04   2.0543333543509470e-04   4.7620165846186239e-04   4.0168244719912137e-04   7.5378161432276120e-04   6.0337444213043952e-04   1.2473735350802936e-03   8.5973872721539898e-04   2.6254297638942177e-03   1.5766948557557026e-03   5.0527638478951248e-03   3.6636790457339279e-03   8.0816015113590513e-03   6.0449469199536452e-03   1.4031248507666341e-02   9.3449100453149442e-03   2.8123323557814463e-02   1.8252446912293736e-02   1.4291967019309984e-01   5.0283736627346191e-02   5.1290958534096620e-01   2.0921816981828434e-01   9.9946124010978599e-01   5.8451045355579134e-01   9.9985071702602613e-01   9.9978763569002915e-01   9.9988063165637575e-01   1.0000000000000000e+00   9.9988043095529600e-01   1.0000000000000000e+00   9.8976082578167968e-01   9.9914858011248131e-01   8.5572568031445684e-01   2.9369674091609374e-05   3.8502452360993578e-05   2.4167386599488321e-05   9.4958317220028262e-05   3.9171265288950084e-05   2.4277481527051726e-04   1.7604926254931387e-04   3.0144198777133928e-04   2.3690548501629442e-04   5.1611470583765137e-04   3.4266066369858633e-04   7.6837903893987099e-04   5.6642321533034604e-04   1.3348812012977827e-03   8.8395744593996171e-04   2.8079413821009490e-03   1.6870013635506861e-03   4.9679630239983881e-03   3.3829856539195759e-03   1.0076708982176242e-02   6.3592229989118398e-03   1.7087802651686062e-02   1.1910765774042141e-02   2.7442466267943947e-02   2.0002493756925737e-02   6.2743661714910595e-02   3.1790023118884639e-02   3.4202083014185347e-01   7.8730619517617034e-02   8.3621834991479538e-01   5.2441826370147737e-01   1.0000000000000000e+00   9.2144125329926585e-01   1.0000000000000000e+00   1.0000000000000000e+00   9.9983243241438957e-01   1.0000000000000000e+00   9.9212321854069319e-01   9.9854661035808123e-01   9.8201529528586728e-01   2.1421883136835919e-05   5.3299135178738956e-05   2.1787790313847897e-05   1.1271566576455241e-04   7.3417463859073106e-05   1.7927017968021313e-04   1.3131077514282716e-04   2.4517440257199616e-04   1.7413893135655002e-04   4.6611239059236317e-04   2.7800893058191740e-04   7.3165299756093648e-04   5.2345573599051661e-04   1.1836852711010031e-03   7.9882173427908438e-04   2.5569922136322253e-03   1.4279173335802133e-03   5.2875545442446197e-03   3.0920997153402303e-03   1.1129546952146813e-02   6.0164714405968765e-03   1.7512153259654013e-02   1.1083580003020770e-02   2.7294472989918991e-02   1.8258324635878360e-02   5.6657097269552210e-02   3.4077844971691668e-02   2.2206345638060526e-01   6.5752183029258490e-02   6.3205163324113833e-01   3.7756890049835146e-01   1.0000000000000000e+00   7.2828148991834851e-01   1.0000000000000000e+00   1.0000000000000000e+00   9.9965102883220824e-01   9.9995600746178259e-01   9.9499383455808144e-01   9.9925774408840207e-01   9.9141635090559233e-01   2.8705985806181143e-05   4.2384298878097496e-05   3.9752201293712108e-05   7.9326867762913249e-05   5.1431054403164824e-05   1.2766178799842177e-04   7.7974489655479177e-05   2.3419891910747372e-04   1.4882563320417144e-04   3.4746156740850129e-04   2.4276624205772391e-04   6.6867190379455506e-04   4.3275233218663769e-04   1.1805970837323579e-03   7.3612158788089800e-04   2.6214513205252243e-03   1.2934190552615380e-03   4.7137458124898238e-03   2.6146594090327145e-03   9.0446461863498851e-03   5.5682633856151895e-03   1.4040678410449339e-02   8.9440943466387538e-03   2.7589899232111467e-02   2.0752852987717806e-02   4.5127407335485058e-02   3.4840853099930486e-02   2.1091236312186343e-01   5.0580802227954753e-02   5.0586204637910503e-01   2.7439341950097501e-01   9.0062919763059623e-01   5.7009192340479165e-01   9.9993092899935465e-01   9.4396702097864660e-01   9.9941529690504749e-01   9.9967635343986450e-01   9.9795608883627129e-01   9.9901525435856198e-01   9.9864691208619571e-01   7.1474119976968410e-05   7.2643406116559329e-05   8.7069837040320820e-05   7.8355564683250535e-05   9.2320255406109955e-05   1.1396615818032755e-04   1.0345280396453534e-04   2.1432834232253033e-04   1.3834980742108625e-04   3.2011835106008875e-04   2.1766905331978363e-04   5.0981448669046466e-04   3.6201385266363312e-04   9.3510983514581648e-04   5.4179613253869919e-04   1.9684098053490708e-03   9.4921298761506119e-04   3.0889057457019354e-03   1.4801013771382316e-03   6.4778766064129117e-03   3.1882730546290861e-03   1.2512735651607340e-02   7.3851907718696886e-03   2.0730627393184022e-02   1.4946983483808239e-02   3.8558144339004077e-02   2.4641322733010573e-02   1.0716487618419965e-01   4.4049774216342361e-02   3.8411242017254577e-01   1.5654120904527546e-01   7.3935478315367320e-01   4.2514996981818254