<?xml version="1.0"?>
<VTKFile type="UnstructuredGrid"  version="0.1"  >
<UnstructuredGrid>
<Piece  NumberOfPoints="639" NumberOfCells="1175">
<Points>
<DataArray  type="Float64"  NumberOfComponents="3"  format="ascii">1.321739130434783 0 0  1.338260869565217 0 0  1.338260869565217 0.01666666666666667 0  1.354782608695652 0 0  1.354782608695652 0.01666666666666667 0  1.371304347826087 0 0  1.371304347826087 0.01666666666666667 0  1.387826086956522 0 0  1.387826086956522 0.01666666666666667 0  1.404347826086957 0 0  1.404347826086957 0.01666666666666667 0  1.420869565217391 0 0  1.420869565217391 0.01666666666666667 0  1.437391304347826 0 0  1.437391304347826 0.01666666666666667 0  1.453913043478261 0 0  1.453913043478261 0.01666666666666667 0  1.470434782608696 0 0  1.470434782608696 0.01666666666666667 0  1.486956521739131 0 0  1.486956521739131 0.01666666666666667 0  1.503478260869565 0 0  1.503478260869565 0.01666666666666667 0  1.52 0 0  1.52 0.01666666666666667 0  1.536521739130435 0 0  1.536521739130435 0.01666666666666667 0  1.55304347826087 0 0  1.55304347826087 0.01666666666666667 0  1.569565217391304 0 0  1.569565217391304 0.01666666666666667 0  1.586086956521739 0 0  1.586086956521739 0.01666666666666667 0  1.602608695652174 0 0  1.602608695652174 0.01666666666666667 0  1.619130434782609 0 0  1.619130434782609 0.01666666666666667 0  1.635652173913043 0 0  1.635652173913043 0.01666666666666667 0  1.652173913043478 0 0  1.652173913043478 0.01666666666666667 0  1.668695652173913 0 0  1.668695652173913 0.01666666666666667 0  1.685217391304348 0 0  1.685217391304348 0.01666666666666667 0  1.701739130434782 0 0  1.701739130434782 0.01666666666666667 0  1.718260869565217 0 0  1.718260869565217 0.01666666666666667 0  1.734782608695652 0 0  1.734782608695652 0.01666666666666667 0  1.751304347826087 0 0  1.751304347826087 0.01666666666666667 0  1.767826086956522 0 0  1.767826086956522 0.01666666666666667 0  1.784347826086957 0 0  1.784347826086957 0.01666666666666667 0  1.800869565217391 0 0  1.800869565217391 0.01666666666666667 0  1.817391304347826 0 0  1.817391304347826 0.01666666666666667 0  1.833913043478261 0 0  1.833913043478261 0.01666666666666667 0  1.850434782608696 0 0  1.850434782608696 0.01666666666666667 0  1.86695652173913 0 0  1.86695652173913 0.01666666666666667 0  1.883478260869565 0 0  1.883478260869565 0.01666666666666667 0  1.354782608695652 0.03333333333333333 0  1.371304347826087 0.03333333333333333 0  1.387826086956522 0.03333333333333333 0  1.404347826086957 0.03333333333333333 0  1.420869565217391 0.03333333333333333 0  1.437391304347826 0.03333333333333333 0  1.453913043478261 0.03333333333333333 0  1.470434782608696 0.03333333333333333 0  1.486956521739131 0.03333333333333333 0  1.503478260869565 0.03333333333333333 0  1.52 0.03333333333333333 0  1.536521739130435 0.03333333333333333 0  1.55304347826087 0.03333333333333333 0  1.569565217391304 0.03333333333333333 0  1.586086956521739 0.03333333333333333 0  1.602608695652174 0.03333333333333333 0  1.619130434782609 0.03333333333333333 0  1.635652173913043 0.03333333333333333 0  1.652173913043478 0.03333333333333333 0  1.668695652173913 0.03333333333333333 0  1.685217391304348 0.03333333333333333 0  1.701739130434782 0.03333333333333333 0  1.718260869565217 0.03333333333333333 0  1.734782608695652 0.03333333333333333 0  1.751304347826087 0.03333333333333333 0  1.767826086956522 0.03333333333333333 0  1.784347826086957 0.03333333333333333 0  1.800869565217391 0.03333333333333333 0  1.817391304347826 0.03333333333333333 0  1.833913043478261 0.03333333333333333 0  1.850434782608696 0.03333333333333333 0  1.86695652173913 0.03333333333333333 0  1.883478260869565 0.03333333333333333 0  1.371304347826087 0.05 0  1.387826086956522 0.05 0  1.404347826086957 0.05 0  1.420869565217391 0.05 0  1.437391304347826 0.05 0  1.453913043478261 0.05 0  1.470434782608696 0.05 0  1.486956521739131 0.05 0  1.503478260869565 0.05 0  1.52 0.05 0  1.536521739130435 0.05 0  1.55304347826087 0.05 0  1.569565217391304 0.05 0  1.586086956521739 0.05 0  1.602608695652174 0.05 0  1.619130434782609 0.05 0  1.635652173913043 0.05 0  1.652173913043478 0.05 0  1.668695652173913 0.05 0  1.685217391304348 0.05 0  1.701739130434782 0.05 0  1.718260869565217 0.05 0  1.734782608695652 0.05 0  1.751304347826087 0.05 0  1.767826086956522 0.05 0  1.784347826086957 0.05 0  1.800869565217391 0.05 0  1.817391304347826 0.05 0  1.833913043478261 0.05 0  1.850434782608696 0.05 0  1.86695652173913 0.05 0  1.883478260869565 0.05 0  1.387826086956522 0.06666666666666667 0  1.404347826086957 0.06666666666666667 0  1.420869565217391 0.06666666666666667 0  1.437391304347826 0.06666666666666667 0  1.453913043478261 0.06666666666666667 0  1.470434782608696 0.06666666666666667 0  1.486956521739131 0.06666666666666667 0  1.503478260869565 0.06666666666666667 0  1.52 0.06666666666666667 0  1.536521739130435 0.06666666666666667 0  1.55304347826087 0.06666666666666667 0  1.569565217391304 0.06666666666666667 0  1.586086956521739 0.06666666666666667 0  1.602608695652174 0.06666666666666667 0  1.619130434782609 0.06666666666666667 0  1.635652173913043 0.06666666666666667 0  1.652173913043478 0.06666666666666667 0  1.668695652173913 0.06666666666666667 0  1.685217391304348 0.06666666666666667 0  1.701739130434782 0.06666666666666667 0  1.718260869565217 0.06666666666666667 0  1.734782608695652 0.06666666666666667 0  1.751304347826087 0.06666666666666667 0  1.767826086956522 0.06666666666666667 0  1.784347826086957 0.06666666666666667 0  1.800869565217391 0.06666666666666667 0  1.817391304347826 0.06666666666666667 0  1.833913043478261 0.06666666666666667 0  1.850434782608696 0.06666666666666667 0  1.86695652173913 0.06666666666666667 0  1.883478260869565 0.06666666666666667 0  1.404347826086957 0.08333333333333333 0  1.420869565217391 0.08333333333333333 0  1.437391304347826 0.08333333333333333 0  1.453913043478261 0.08333333333333333 0  1.470434782608696 0.08333333333333333 0  1.486956521739131 0.08333333333333333 0  1.503478260869565 0.08333333333333333 0  1.52 0.08333333333333333 0  1.536521739130435 0.08333333333333333 0  1.55304347826087 0.08333333333333333 0  1.569565217391304 0.08333333333333333 0  1.586086956521739 0.08333333333333333 0  1.602608695652174 0.08333333333333333 0  1.619130434782609 0.08333333333333333 0  1.635652173913043 0.08333333333333333 0  1.652173913043478 0.08333333333333333 0  1.668695652173913 0.08333333333333333 0  1.685217391304348 0.08333333333333333 0  1.701739130434782 0.08333333333333333 0  1.718260869565217 0.08333333333333333 0  1.734782608695652 0.08333333333333333 0  1.751304347826087 0.08333333333333333 0  1.767826086956522 0.08333333333333333 0  1.784347826086957 0.08333333333333333 0  1.800869565217391 0.08333333333333333 0  1.817391304347826 0.08333333333333333 0  1.833913043478261 0.08333333333333333 0  1.850434782608696 0.08333333333333333 0  1.86695652173913 0.08333333333333333 0  1.883478260869565 0.08333333333333333 0  1.420869565217391 0.1 0  1.437391304347826 0.1 0  1.453913043478261 0.1 0  1.470434782608696 0.1 0  1.486956521739131 0.1 0  1.503478260869565 0.1 0  1.52 0.1 0  1.536521739130435 0.1 0  1.55304347826087 0.1 0  1.569565217391304 0.1 0  1.586086956521739 0.1 0  1.602608695652174 0.1 0  1.619130434782609 0.1 0  1.635652173913043 0.1 0  1.652173913043478 0.1 0  1.668695652173913 0.1 0  1.685217391304348 0.1 0  1.701739130434782 0.1 0  1.718260869565217 0.1 0  1.734782608695652 0.1 0  1.751304347826087 0.1 0  1.767826086956522 0.1 0  1.784347826086957 0.1 0  1.800869565217391 0.1 0  1.817391304347826 0.1 0  1.833913043478261 0.1 0  1.850434782608696 0.1 0  1.86695652173913 0.1 0  1.883478260869565 0.1 0  1.437391304347826 0.1166666666666667 0  1.453913043478261 0.1166666666666667 0  1.470434782608696 0.1166666666666667 0  1.486956521739131 0.1166666666666667 0  1.503478260869565 0.1166666666666667 0  1.52 0.1166666666666667 0  1.536521739130435 0.1166666666666667 0  1.55304347826087 0.1166666666666667 0  1.569565217391304 0.1166666666666667 0  1.586086956521739 0.1166666666666667 0  1.602608695652174 0.1166666666666667 0  1.619130434782609 0.1166666666666667 0  1.635652173913043 0.1166666666666667 0  1.652173913043478 0.1166666666666667 0  1.668695652173913 0.1166666666666667 0  1.685217391304348 0.1166666666666667 0  1.701739130434782 0.1166666666666667 0  1.718260869565217 0.1166666666666667 0  1.734782608695652 0.1166666666666667 0  1.751304347826087 0.1166666666666667 0  1.767826086956522 0.1166666666666667 0  1.784347826086957 0.1166666666666667 0  1.800869565217391 0.1166666666666667 0  1.817391304347826 0.1166666666666667 0  1.833913043478261 0.1166666666666667 0  1.850434782608696 0.1166666666666667 0  1.86695652173913 0.1166666666666667 0  1.883478260869565 0.1166666666666667 0  1.453913043478261 0.1333333333333333 0  1.470434782608696 0.1333333333333333 0  1.486956521739131 0.1333333333333333 0  1.503478260869565 0.1333333333333333 0  1.52 0.1333333333333333 0  1.536521739130435 0.1333333333333333 0  1.55304347826087 0.1333333333333333 0  1.569565217391304 0.1333333333333333 0  1.586086956521739 0.1333333333333333 0  1.602608695652174 0.1333333333333333 0  1.619130434782609 0.1333333333333333 0  1.635652173913043 0.1333333333333333 0  1.652173913043478 0.1333333333333333 0  1.668695652173913 0.1333333333333333 0  1.685217391304348 0.1333333333333333 0  1.701739130434782 0.1333333333333333 0  1.718260869565217 0.1333333333333333 0  1.734782608695652 0.1333333333333333 0  1.751304347826087 0.1333333333333333 0  1.767826086956522 0.1333333333333333 0  1.784347826086957 0.1333333333333333 0  1.800869565217391 0.1333333333333333 0  1.817391304347826 0.1333333333333333 0  1.833913043478261 0.1333333333333333 0  1.850434782608696 0.1333333333333333 0  1.86695652173913 0.1333333333333333 0  1.883478260869565 0.1333333333333333 0  1.470434782608696 0.15 0  1.486956521739131 0.15 0  1.503478260869565 0.15 0  1.52 0.15 0  1.5365217391304
[...]
<CellData  Scalars="sigma_m"> 
<DataArray  type="Float64"  Name="sigma_m"  format="ascii">8.6013041303887647e+06   8.8528154606896006e+06   8.6943144070037305e+06   9.0677436314475443e+06   8.4436943816583492e+06   9.1995052873578649e+06   8.3613014455743907e+06   9.2273653090188354e+06   8.4377648071300276e+06   9.0998743437169176e+06   8.6504234633928761e+06   9.0194637197850756e+06   8.7175235750140697e+06   9.1275020109676644e+06   8.4483379962728545e+06   9.4934657707946710e+06   7.9108372900624145e+06   9.7244291099129003e+06   7.4181475989794983e+06   9.8899850053271633e+06   7.1450288342943629e+06   1.0455156457427967e+07   7.1143236577281849e+06   1.1609812280989109e+07   7.3642146758133546e+06   1.3213701554881563e+07   7.7488643256421033e+06   1.4816071099328468e+07   8.0239578122964846e+06   1.5773374220038671e+07   8.1960035179445781e+06   1.5471482975696938e+07   8.3866674200496087e+06   1.4229648464453390e+07   8.3685475375403231e+06   1.2458761042964762e+07   8.3850907439450668e+06   1.0051294919751709e+07   8.7992221928019691e+06   7.6072462994395578e+06   8.3244366295341942e+06   5.4513903140809033e+06   7.3803432844948489e+06   3.6483725737025281e+06   5.8445802217689529e+06   2.3743299352995963e+06   4.5609369109017728e+06   1.8973825494655177e+06   3.6975442023355854e+06   2.3216317946778676e+06   3.3811103924671221e+06   3.3648212395504410e+06   3.4282546591859185e+06   4.5646031562882336e+06   3.7080767623398001e+06   5.4266364046577113e+06   4.1571814143312182e+06   5.5942063242066074e+06   4.5317445925617199e+06   5.2877086090142699e+06   5.0186923060005670e+06   4.9726345383301592e+06   5.3784362618617052e+06   4.9052380186091354e+06   5.4486951225124188e+06   4.9722241666325228e+06   5.3486395792040322e+06   8.6586154167026356e+06   8.3996517649809700e+06   7.3105432765414463e+06   8.3141850203513559e+06   7.1168093193232482e+06   8.4070776373000760e+06   7.1626741491264077e+06   8.6512181310319994e+06   7.7130734046084732e+06   8.6845326919739563e+06   9.1210713724839184e+06   8.3735168349079266e+06   8.3235302277733404e+06   7.7860684568831222e+06   6.7565385071965391e+06   7.2574713376087993e+06   4.3090748670883849e+06   7.0160718039704142e+06   3.8428740767168319e+06   7.2517310088529177e+06   3.3687779046631535e+06   7.7874341262823427e+06   3.2657996294997353e+06   8.3061087594931740e+06   3.0661323484941856e+06   8.3856544926423403e+06   2.5118285429605506e+06   8.0117121683540046e+06   2.9435751576641947e+06   7.1752092074313862e+06   5.2840137237655129e+06   6.5997050359240975e+06   5.6711091053164173e+06   6.9201120790825021e+06   4.6105230663819769e+06   7.7302801935261758e+06   5.5386762924806755e+06   8.8118806814537141e+06   9.8907925594004225e+06   8.5578109655732103e+06   1.0186444315687137e+07   7.1355405319539560e+06   9.3122897563290261e+06   5.3062709144494645e+06   6.7566353738276400e+06   3.8126511901686238e+06   4.5028965078089805e+06   3.1980581372401924e+06   3.2909939061086555e+06   3.4716811547402581e+06   2.8968772546013901e+06   4.0827086578234676e+06   2.8359471816209173e+06   4.6007410639656214e+06   2.8930196172896451e+06   4.5288258499977794e+06   3.4014059846727825e+06   5.0503229986908687e+06   3.4824078029455915e+06   5.3923485455330191e+06   6.4609214726089872e+06   5.4677476602045335e+06   6.5013730257319938e+06   5.3593534442732707e+06   5.2893000622967137e+06   5.0503155735149223e+04   9.4807335373612383e+04   9.7677104160331467e+00   7.3659587406635997e+04   1.4058334342837886e+01   3.1572377288622298e+04   9.7422808681888426e+00   1.9089871891129293e+04   7.2462114463675018e+00   8.0615243486861407e+04   2.0020864710345144e+01   4.6941864061449347e+06   2.1861555055944109e+03   3.7843913506229445e+06   1.2990063200619509e+06   3.6364432887922721e+06   1.7300653764952347e+06   3.7079611096504885e+06   5.3679469477549405e+05   3.6855661808904391e+06   3.9735957243305049e+05   3.2394347147815446e+06   3.8232568416425638e+05   2.5253731689640316e+06   2.9205618403082206e+06   4.0263174208010193e+06   7.0204329984251130e+06   6.8034311655322826e+06   1.1642830214561047e+07   5.4315188891938496e+06   1.2788468649582893e+07   9.7779572067774483e+05   3.0775796583549050e+03   2.6477464922743748e+03   2.1918740533675942e+00   6.2378055659118559e+02   1.2832643853362988e-01   2.9476327992542898e+04   5.4640484504903009e-01   7.7280043757346589e+06   2.3763919787593616e+02   8.5608400159640107e+06   7.0557904989652541e+06   5.8235152358515337e+06   6.1470343212445667e+06   3.5737779740244537e+06   2.9980924548564269e+06   2.6743831030765399e+06   1.7340286360853377e+06   2.6680694265523283e+06   1.3957068348691508e+06   3.4949188274086528e+06   1.6772269217297705e+06   3.1159575238694982e+06   2.8730680896883770e+06   5.0987237976591045e+05   6.7890656684748872e+04   3.7700755231259150e+03   2.1962462173257109e+01   1.7812074581248730e+03   1.2935489937177089e+00   3.1041341099850401e+03   9.6143728674500983e-01   0.0000000000000000e+00   0.0000000000000000e+00   0.0000000000000000e+00   0.0000000000000000e+00   0.0000000000000000e+00   2.9951380893668693e-10   0.0000000000000000e+00   1.0194979450499716e-07   0.0000000000000000e+00   4.7748298148634254e-03   1.4660586247067163e-07   8.4775340306977043e+04   1.7653109928240822e+00   1.6069652433996606e+06   1.3237400693936327e+06   1.1636477830720134e+06   1.4601489879881558e+06   1.9939465812466200e+05   1.1552372256008624e+06   2.5782017269576485e+06   1.6810911061208183e+06   6.2968558191405442e+06   6.0769144817187507e+06   8.8273155924981646e+06   1.0646161737191172e+07   7.4813884679215444e+03   7.3090461968272200e+02   3.6236240820598456e-04   1.5522486338530996e-05   1.6836381280015274e-09   0.0000000000000000e+00   0.0000000000000000e+00   0.0000000000000000e+00   0.0000000000000000e+00   0.0000000000000000e+00   0.0000000000000000e+00   0.0000000000000000e+00   8.2977694972491039e-07   0.0000000000000000e+00   8.3471860954602182e+00   1.4865678247300819e-06   7.0137615408858620e+06   5.3138789302184114e+02   4.2962479200825961e+06   4.5887195048279436e+06   2.3445839141613687e+06   2.2531713168439334e+06   1.5065462764384639e+06   9.0006117444496357e+05   3.2294458256130801e+06   8.3794485310080391e+05   8.1124426539682387e+05   1.6398170250389318e+06   1.3388576141907159e-02   4.0686843906296177e-02   2.6165204431798704e-07   1.1840691673676406e-07   5.5376141927051270e-10   0.0000000000000000e+00   0.0000000000000000e+00   0.0000000000000000e+00   0.0000000000000000e+00   0.0000000000000000e+00   0.0000000000000000e+00   0.0000000000000000e+00   0.0000000000000000e+00   0.0000000000000000e+00   0.0000000000000000e+00   6.0074362293590727e-08   3.2926756593760985e-10   4.5093598316023495e+01   2.3355913939178546e-01   1.7786806859455172e+06   4.4272898530357825e+06   1.0884799736581093e+06   1.8835345405009938e+06   2.6256021668581995e+06   1.1454901898564077e+06   5.9274481538483994e+06   2.5947011165972943e+06   1.0994617759083698e+07   6.4588459124125950e+06   1.9534092516173754e+01   7.1086331252442918e+01   4.7629409097564998e-09   3.7162642604295579e-09   0.0000000000000000e+00   0.0000000000000000e+00   0.0000000000000000e+00   0.0000000000000000e+00   0.0000000000000000e+00   0.0000000000000000e+00   0.0000000000000000e+00   0.0000000000000000e+00   0.0000000000000000e+00   0.0000000000000000e+00   0.0000000000000000e+00   0.0000000000000000e+00   0.0000000000000000e+00   0.0000000000000000e+00   6.6823042234117134e+00   1.1993344661912530e-06   4.4467453927795263e+06   3.0349758614418278e+06   2.8667201093451357e+06   3.3308000531787900e+06   2.0654738091435852e+06   1.7734639100329857e+06   2.5957857148286677e+06   4.5835597940444486e+05   1.4782535442556065e+04   1.9184598685970160e+06   1.6335856054105609e-05   6.0543251333400952e-03   0.0000000000000000e+00   0.0000000000000000e+00   0.0000000000000000e+00   0.0000000000000000e+00   0.0000000000000000e+00   0.0000000000000000e+00   0.0000000000000000e+00   0.0000000000000000e+00   0.0000000000000000e+00   0.0000000000000000e+00   0.0000000000000000e+00   2.9915306471637806e-06   2.5669097958682369e-07   2.0924011250348220e+04   2.7857809589965668e+03   1.0788022901597235e+06   1.1015565928692014e+06   1.7763637920654346e+06   1.6798555042150505e+06   3.1733197895674286e+06   1.8747607036897778e+06   4.5314885682675140e+06   3.5370513935469403e+06   7.9613350273958349e+05   1.4154650984537539e+06   6.5962177447901360e-08   1.1257008428346580e-06   0.0000000000000000e+00   0.0000000000000000e+00   0.0000000000000000e+00   0.0000000000000000e+00   0.0000000000000000e+00   0.0000000000000000e+00   0.0000000000000000e+00   0.0000000000000000e+00   0.0000000000000000e+00   0.0000000000000000e+00   0.0000000000000000e+00   0.0000000000000000e+00   0.0000000000000000e+00   0.0000000000000000e+00   0.0000000000000000e+00   0.0000000000000000e+00   2.5179045306289369e-07   0.0000000000000000e+00   2.5346441083715530e+06   1.9163890961126548e+01   3.0066702129541510e+06   3.1700076738848402e+06   2.5437025834777197e+06   2.2976482256414196e+06   1.9419719365176023e+06   1.3016481876489783e+06   8.9514244601758046e+05   6.1541435218507017e+05   2.1576388322173206e-03   1.4645626978163812e+03   0.0000000000000000e+00   2.1409606165559188e-07   0.0000000000000000e+00   0.0000000000000000e+00   0.0000000000000000e+00   0.0000000000000000e+00   0.0000000000000000e+00   4.1930960594526279e-09   1.9980630665709437e-09   7.8676582415552758e+00   2.8827452890073784e+00   4.3119655130055139e+05   9.6606915465735074e+05   1.1133710857507198e+06   1.2911730131194259e+06   2.5364930652757999e+06   1.9334860447344617e+06   3.9238489626601352e+06   2.2541226279643881e+06   5.8864069511135472e+06   3.3330266876904131e+06   9.2650675034567467e+00   1.5770398793500867e+03   0.0000000000000000e+00   0.0000000000000000e+00   0.0000000000000000e+00   0.0000000000000000e+00   0.0000000000000000e+00   0.0000000000000000e+00   0.0000000000000000e+00   0.0000000000000000e+00   0.0000000000000000e+00   0.0000000000000000e+00   0.0000000000000000e+00   0.0000000000000000e+00   0.0000000000000000e+00   0.0000000000000000e+00   0.0000000000000000e+00   0.0000000000000000e+00   0.0000000000000000e+00   0.0000000000000000e+00   0.0000000000000000e+00   0.0000000000000000e+00   5.3238278328553037e+01   5.4668831687625059e-06   2.9135665068759131e+06   2.1349141366528133e+06   2.4857536877922681e+06   2.3179802397571611e+06   1.9663614818284360e+06   1.6583467324833677e+06   9.5058232132516894e+05   1.0496733699331074e+06   4.9087745692552919e+04   8.3130675722998288e+05   1.9047782573841195e-06   3.9379285311132598e+01   0.0000000000000000e+00   9.0850239612315015e-09   0.0000000000000000e+00   0.0000000000000000e+00   3.1144767372380073e+00   1.2299948812968601e+06   1.3697096744829589e+06   1.2930546359822841e+06   1.6178406166544803e+06   1.5098558389691641e+06   1.6840141989033150e+06   2.2876593502655937e+06   1.9404016833047781e+06   2.5677212338848677e+06   2.2128828326738961e+06   2.9737129607011001e+06   1.6995145213297601e+06   3.1659637362019380e-05   3.1503642852987687e-03   0.0000000000000000e+00   0.0000000000000000e+00   0.0000000000000000e+00   0.0000000000000000e+00   0.0000000000000000e+00   0.0000000000000000e+00   0.0000000000000000e+00   0.0000000000000000e+00   0.0000000000000000e+00   0.0000000000000000e+00   0.0000000000000000e+00   0.0000000000000000e+00   0.0000000000000000e+00   0.0000000000000000e+00   0.0000000000000000e+00   0.0000000000000000e+00   0.0000000000000000e+00   0.0000000000000000e+00   0.0000000000000000e+00   0.0000000000000000e+00   5.6134622851723594e-06   0.0000000000000000e+00   1.9878282669460082e+06   2.4445047346841800e+01   2.3114018852015985e+06   2.1773100168814766e+06   1.9488908408655953e+06   1.7882499463897326e+06   1.4134226807396787e+06   1.4152763429764553e+06   1.1972104231250263e+06   1.2144913881007547e+06   4.0430817151900745e+04   1.1601066685644391e+06   6.0589732698430886e-06   3.6936507676237653e+02   0.0000000000000000e+00   2.2047691656245006e-07   1.7690809385753244e+06   1.5366975433602538e+06   1.7287086779224530e+06   1.7421702056169598e+06   1.6846880048258849e+06   2.1635621596031454e+06   1.8826211889951290e+06   2.2937986536385268e+06   1.8308479311461812e+06   7.5049029900089454e+02   7.0835364068979989e+03   0.0000000000000000e+00   0.0000000000000000e+00   0.0000000000000000e+00   0.0000000000000000e+00   0.0000000000000000e+00   0.0000000000000000e+00   0.0000000000000000e+00   0.0000000000000000e+00   0.0000000000000000e+00   0.0000000000000000e+00   0.0000000000000000e+00   0.0000000000000000e+00   0.0000000000000000e+00   0.0000000000000000e+00   0.0000000000000000e+00   0.0000000000000000e+00   0.0000000000000000e+00   0.0000000000000000e+00   0.0000000000000000e+00   0.0000000000000000e+00   0.0000000000000000e+00   0.0000000000000000e+00   0.0000000000000000e+00   0.0000000000000000e+00   1.6523767572970860e+00   6.1810001684546821e-10   2.0979109956032392e+06   2.1027292518166036e+04   1.8899323396956967e+06   1.8104543398462024e+06   1.6237986963698175e+06   1.6046907901815604e+06   1.4209276026665757e+06   1.4241805778461425e+06   1.3010882210992591e+06   1.2725933351153692e+06   4.5628636600865488e+05   1.0254420893496919e+06   2.3594766771571378e-03   4.7133470725226580e+04   1.5895718739605721e+06   1.6781613632022040e+06   1.5319926988806557e+06   1.7688196107561230e+06   1.5414280275293146e+06   4.3839173887409642e+05   5.0740880494614493e+05   2.6362684176612903e-07   8.6216743861117103e-07   0.0000000000000000e+00   0.0000000000000000e+00   0.0000000000000000e+00   0.0000000000000000e+00   0.0000000000000000e+00   0.0000000000000000e+00   0.0000000000000000e+00   0.0000000000000000e+00   0.0000000000000000e+00   0.0000000000000000e+00   0.0000000000000000e+00   0.0000000000000000e+00   0.0000000000000000e+00   0.0000000000000000e+00   0.0000000000000000e+00   0.0000000000000000e+00   0.0000000000000000e+00   0.0000000000000000e+00   0.0000000000000000e+00   0.0000000000000000e+00   0.0000000000000000e+00   0.0000000000000000e+00   0.0000000000000000e+00   0.0000000000000000e+00   0.0000000000000000e+00   0.0000000000000000e+00   7.4373175706498088e+01   8.0991796943248872e-09   1.5527698244191029e+06   4.5141327799515188e+04   1.6730936518888155e+06   1.6610764769576562e+06   1.6197967085106175e+06   1.6235317124131166e+06   1.4732584610881880e+06   1.4483592304952715e+06   1.3114128410822379e+06   1.2966670721523890e+06   1.0332864339245746e+06   1.1611204520577048e+06   1.1203865851131757e+06   1.9608669516782471e+05   5.5157944612077292e+04   2.5924675848800561e-06   2.0948295328432186e-06   0.0000000000000000e+00   0.0000000000000000e+00   0.0000000000000000e+00   0.0000000000000000e+00   0.0000000000000000e+00   0.0000000000000000e+00   0.0000000000000000e+00   0.0000000000000000e+00   0.0000000000000000e+00   0.0000000000000000e+00   0.0000000000000000e+00   0.0000000000000000e+00   0.0000000000000000e+00   0.0000000000000000e+00   0.0000000000000000e+00   0.0000000000000000e+00   0.0000000000000000e+00   0.0000000000000000e+00   0.0000000000000000e+00   0.0000000000000000e+00   0.0000000000000000e+00   0.0000000000000000e+00   0.0000000000000000e+00   0.0000000000000000e+00   0.0000000000000000e+00   0.0000000000000000e+00   0.0000000000000000e+00   0.0000000000000000e+00   0.0000000000000000e+00   0.0000000000000000e+00   1.3340462351260008e+01   2.2020533756017426e-09   1.7315474051452954e+06   1.5974516232391679e+03   2.0117642020557623e+06   1.8427664085266371e+06   1.7045128905333551e+06   1.6748489299397017e+06   1.5310886831689258e+06   1.5158112953608423e+06   1.3859191626519149e+06   1.3819393781507139e+06   7.4756943950325721e-08   0.0000000000000000e+00   0.0000000000000000e+00   0.0000000000000000e+00   0.0000000000000000e+00   0.0000000000000000e+00   0.0000000000000000e+00   0.0000000000000000e+00   0.0000000000000000e+00   0.0000000000000000e+00   0.0000000000000000e+00   0.0000000000000000e+00   0.0000000000000000e+00   0.0000000000000000e+00   0.0000000000000000e+00   0.0000000000000000e+00   0.0000000000000000e+00   0.0000000000000000e+00   0.0000000000000000e+00   0.0000000000000000e+00   0.0000000000000000e+00   0.0000000000000000e+00   0.0000000000000000e+00   0.0000000000000000e+00   0.0000000000000000e+00   0.0000000000000000e+00   0.0000000000000000e+00   0.0000000000000000e+00   0.0000000000000000e+00   0.0000000000000000e+00   0.0000000000000000e+00   0.0000000000000000e+00   0.0000000000000000e+00   0.0000000000000000e+00   0.0000000000000000e+00   3.6780409751994363e-02   0.0000000000000000e+00   1.4664483875161225e+06   1.9059546482910064e+00   1.8167901187620799e+06   1.5960652758860195e+06   1.6835736347156710e+06   1.6591281918137975e+06   1.5867110898850313e+06   1.5927039450010029e+06   0.0000000000000000e+00   0.0000000000000000e+00   0.0000000000000000e+00   0.0000000000000000e+00   0.0000000000000000e+00   0.0000000000000000e+00   0.0000000000000000e+00   0.0000000000000000e+00   0.0000000000000000e+00   0.0000000000000000e+00   0.0000000000000000e+00   0.0000000000000000e+00   0.0000000000000000e+00   0.0000000000000000e+00   0.0000000000000000e+00   0.0000000000000000e+00   0.0000000000000000e+00   0.0000000000000000e+00   0.0000000000000000e+00   0.0000000000000000e+00   0.0000000000000000e+00   0.0000000000000000e+00   0.0000000000000000e+00   0.0000000000000000e+00   0.0000000000000000e+00   0.0000000000000000e+00   0.0000000000000000e+00   0.0000000000000000e+00   0.0000000000000000e+00   0.0000000000000000e+00   0.0000000000000000e+00   0.0000000000000000e+00   0.0000000000000000e+00   0.0000000000000000e+00   0.0000000000000000e+00   1.9944109612126780e-05   0.0000000000000000e+00   6.8886185858591707e+04   7.8724145544918731e-04   1.6387329965334474e+06   7.0256857205910143e+05   1.8203766263495488e+06   1.8712510599676273e+06   0.0000000000000000e+00   0.0000000000000000e+00   0.0000000000000000e+00   0.0000000000000000e+00   0.0000000000000000e+00   0.0000000000000000e+00   0.0000000000000000e+00   0.0000000000000000e+00   0.0000000000000000e+00   0.0000000000000000e+00   0.0000000000000000e+00   0.0000000000000000e+00   0.0000000000000000e+00   0.0000000000000000e+00   0.0000000000000000e+00   0.0000000000000000e+00   0.0000000000000000e+00   0.0000000000000000e+00   0.0000000000000000e+00   0.0000000000000000e+00   0.0000000000000000e+00   0.0000000000000000e+00   0.0000000000000000e+00   0.0000000000000000e+00   0.0000000000000000e+00   0.0000000000000000e+00   0.0000000000000000e+00   0.0000000000000000e+00   0.0000000000000000e+00   0.0000000000000000e+00   0.0000000000000000e+00   0.0000000000000000e+00   0.0000000000000000e+00   0.0000000000000000e+00   0.0000000000000000e+00   1.4575982198285639e-08   0.0000000000000000e+00   4.4357317160761284e+02   4.3642759432800748e-07   2.2269684776742375e+06   2.2958680481332118e+04   0.0000000000000000e+00   0.0000000000000000e+00   0.0000000000000000e+00   0.0000000000000000e+00   0.0000000000000000e+00   0.0000000000000000e+00   0.0000000000000000e+00   0.0000000000000000e+00   0.0000000000000000e+00   0.0000000000000000e+00   0.0000000000000000e+00   0.0000000000000000e+00   0.0000000000000000e+00   0.0000000000000000e+00   0.0000000000000000e+00   0.0000000000000000e+00   0.0000000000000000e+00   0.0000000000000000e+00   0.0000000000000000e+00   0.0000000000000000e+00   0.0000000000000000e+00   0.0000000000000000e+00   0.0000000000000000e+00   0.0000000000000000e+00   0.0000000000000000e+00   0.0000000000000000e+00   0.0000000000000000e+00   0.0000000000000000e+00   0.0000000000000000e+00   0.0000000000000000e+00   0.0000000000000000e+00   0.0000000000000000e+00   0.0000000000000000e+00   0.0000000000000000e+00   0.0000000000000000e+00   0.0000000000000000e+00   0.0000000000000000e+00   3.4208454292400020e-01   0.0000000000000000e+00   1.7712986862231233e+01   0.00000000