<?xml version="1.0"?>
<VTKFile type="UnstructuredGrid"  version="0.1"  >
<UnstructuredGrid>
<Piece  NumberOfPoints="621" NumberOfCells="1125">
<Points>
<DataArray  type="Float64"  NumberOfComponents="3"  format="ascii">1.883478260869565 0 0  1.9 0 0  1.9 0.01666666666666667 0  1.883478260869565 0.01666666666666667 0  1.916521739130435 0 0  1.916521739130435 0.01666666666666667 0  1.933043478260869 0 0  1.933043478260869 0.01666666666666667 0  1.949565217391304 0 0  1.949565217391304 0.01666666666666667 0  1.966086956521739 0 0  1.966086956521739 0.01666666666666667 0  1.982608695652174 0 0  1.982608695652174 0.01666666666666667 0  1.999130434782608 0 0  1.999130434782608 0.01666666666666667 0  2.015652173913043 0 0  2.015652173913043 0.01666666666666667 0  2.032173913043478 0 0  2.032173913043478 0.01666666666666667 0  2.048695652173913 0 0  2.048695652173913 0.01666666666666667 0  2.065217391304348 0 0  2.065217391304348 0.01666666666666667 0  2.081739130434782 0 0  2.081739130434782 0.01666666666666667 0  2.098260869565217 0 0  2.098260869565217 0.01666666666666667 0  2.114782608695652 0 0  2.114782608695652 0.01666666666666667 0  2.131304347826087 0 0  2.131304347826087 0.01666666666666667 0  2.147826086956522 0 0  2.147826086956522 0.01666666666666667 0  2.164347826086956 0 0  2.164347826086956 0.01666666666666667 0  2.180869565217391 0 0  2.180869565217391 0.01666666666666667 0  2.197391304347826 0 0  2.197391304347826 0.01666666666666667 0  2.213913043478261 0 0  2.213913043478261 0.01666666666666667 0  2.230434782608695 0 0  2.230434782608695 0.01666666666666667 0  2.24695652173913 0 0  2.24695652173913 0.01666666666666667 0  2.263478260869565 0 0  2.263478260869565 0.01666666666666667 0  2.28 0 0  2.28 0.01666666666666667 0  2.296521739130434 0 0  2.296521739130434 0.01666666666666667 0  2.31304347826087 0 0  2.31304347826087 0.01666666666666667 0  2.329565217391304 0 0  2.329565217391304 0.01666666666666667 0  2.346086956521739 0 0  2.346086956521739 0.01666666666666667 0  2.362608695652174 0 0  2.362608695652174 0.01666666666666667 0  2.379130434782609 0 0  2.379130434782609 0.01666666666666667 0  2.395652173913044 0 0  2.395652173913044 0.01666666666666667 0  2.412173913043478 0 0  2.412173913043478 0.01666666666666667 0  2.428695652173913 0 0  2.428695652173913 0.01666666666666667 0  2.445217391304348 0 0  2.445217391304348 0.01666666666666667 0  2.461739130434782 0 0  2.461739130434782 0.01666666666666667 0  2.478260869565217 0 0  2.478260869565217 0.01666666666666667 0  2.494782608695652 0 0  2.494782608695652 0.01666666666666667 0  2.511304347826087 0 0  2.511304347826087 0.01666666666666667 0  2.527826086956522 0 0  2.527826086956522 0.01666666666666667 0  2.544347826086956 0 0  2.544347826086956 0.01666666666666667 0  2.560869565217391 0 0  2.560869565217391 0.01666666666666667 0  2.577391304347826 0 0  2.577391304347826 0.01666666666666667 0  1.916521739130435 0.03333333333333333 0  1.933043478260869 0.03333333333333333 0  1.949565217391304 0.03333333333333333 0  1.966086956521739 0.03333333333333333 0  1.982608695652174 0.03333333333333333 0  1.999130434782608 0.03333333333333333 0  2.015652173913043 0.03333333333333333 0  2.032173913043478 0.03333333333333333 0  2.048695652173913 0.03333333333333333 0  2.065217391304348 0.03333333333333333 0  2.081739130434782 0.03333333333333333 0  2.098260869565217 0.03333333333333333 0  2.114782608695652 0.03333333333333333 0  2.131304347826087 0.03333333333333333 0  2.147826086956522 0.03333333333333333 0  2.164347826086956 0.03333333333333333 0  2.180869565217391 0.03333333333333333 0  2.197391304347826 0.03333333333333333 0  2.213913043478261 0.03333333333333333 0  2.230434782608695 0.03333333333333333 0  2.24695652173913 0.03333333333333333 0  2.263478260869565 0.03333333333333333 0  2.28 0.03333333333333333 0  2.296521739130434 0.03333333333333333 0  2.31304347826087 0.03333333333333333 0  2.329565217391304 0.03333333333333333 0  2.346086956521739 0.03333333333333333 0  2.362608695652174 0.03333333333333333 0  2.379130434782609 0.03333333333333333 0  2.395652173913044 0.03333333333333333 0  2.412173913043478 0.03333333333333333 0  2.428695652173913 0.03333333333333333 0  2.445217391304348 0.03333333333333333 0  2.461739130434782 0.03333333333333333 0  2.478260869565217 0.03333333333333333 0  2.494782608695652 0.03333333333333333 0  2.511304347826087 0.03333333333333333 0  2.527826086956522 0.03333333333333333 0  2.544347826086956 0.03333333333333333 0  2.560869565217391 0.03333333333333333 0  2.577391304347826 0.03333333333333333 0  2.593913043478261 0.03333333333333333 0  1.933043478260869 0.05 0  1.949565217391304 0.05 0  1.966086956521739 0.05 0  1.982608695652174 0.05 0  1.999130434782608 0.05 0  2.015652173913043 0.05 0  2.032173913043478 0.05 0  2.048695652173913 0.05 0  2.065217391304348 0.05 0  2.081739130434782 0.05 0  2.098260869565217 0.05 0  2.114782608695652 0.05 0  2.131304347826087 0.05 0  2.147826086956522 0.05 0  2.164347826086956 0.05 0  2.180869565217391 0.05 0  2.197391304347826 0.05 0  2.213913043478261 0.05 0  2.230434782608695 0.05 0  2.24695652173913 0.05 0  2.263478260869565 0.05 0  2.28 0.05 0  2.296521739130434 0.05 0  2.31304347826087 0.05 0  2.329565217391304 0.05 0  2.346086956521739 0.05 0  2.362608695652174 0.05 0  2.379130434782609 0.05 0  2.395652173913044 0.05 0  2.412173913043478 0.05 0  2.428695652173913 0.05 0  2.445217391304348 0.05 0  2.461739130434782 0.05 0  2.478260869565217 0.05 0  2.494782608695652 0.05 0  2.511304347826087 0.05 0  2.527826086956522 0.05 0  2.544347826086956 0.05 0  2.560869565217391 0.05 0  2.577391304347826 0.05 0  2.593913043478261 0.05 0  2.610434782608696 0.05 0  1.949565217391304 0.06666666666666667 0  1.966086956521739 0.06666666666666667 0  1.982608695652174 0.06666666666666667 0  1.999130434782608 0.06666666666666667 0  2.015652173913043 0.06666666666666667 0  2.032173913043478 0.06666666666666667 0  2.048695652173913 0.06666666666666667 0  2.065217391304348 0.06666666666666667 0  2.081739130434782 0.06666666666666667 0  2.098260869565217 0.06666666666666667 0  2.114782608695652 0.06666666666666667 0  2.131304347826087 0.06666666666666667 0  2.147826086956522 0.06666666666666667 0  2.164347826086956 0.06666666666666667 0  2.180869565217391 0.06666666666666667 0  2.197391304347826 0.06666666666666667 0  2.213913043478261 0.06666666666666667 0  2.230434782608695 0.06666666666666667 0  2.24695652173913 0.06666666666666667 0  2.263478260869565 0.06666666666666667 0  2.28 0.06666666666666667 0  2.296521739130434 0.06666666666666667 0  2.31304347826087 0.06666666666666667 0  2.329565217391304 0.06666666666666667 0  2.346086956521739 0.06666666666666667 0  2.362608695652174 0.06666666666666667 0  2.379130434782609 0.06666666666666667 0  2.395652173913044 0.06666666666666667 0  2.412173913043478 0.06666666666666667 0  2.428695652173913 0.06666666666666667 0  2.445217391304348 0.06666666666666667 0  2.461739130434782 0.06666666666666667 0  2.478260869565217 0.06666666666666667 0  2.494782608695652 0.06666666666666667 0  2.511304347826087 0.06666666666666667 0  2.527826086956522 0.06666666666666667 0  2.544347826086956 0.06666666666666667 0  2.560869565217391 0.06666666666666667 0  2.577391304347826 0.06666666666666667 0  2.593913043478261 0.06666666666666667 0  2.610434782608696 0.06666666666666667 0  2.62695652173913 0.06666666666666667 0  1.966086956521739 0.08333333333333333 0  1.982608695652174 0.08333333333333333 0  1.999130434782608 0.08333333333333333 0  2.015652173913043 0.08333333333333333 0  2.032173913043478 0.08333333333333333 0  2.048695652173913 0.08333333333333333 0  2.065217391304348 0.08333333333333333 0  2.081739130434782 0.08333333333333333 0  2.098260869565217 0.08333333333333333 0  2.114782608695652 0.08333333333333333 0  2.131304347826087 0.08333333333333333 0  2.147826086956522 0.08333333333333333 0  2.164347826086956 0.08333333333333333 0  2.180869565217391 0.08333333333333333 0  2.197391304347826 0.08333333333333333 0  2.213913043478261 0.08333333333333333 0  2.230434782608695 0.08333333333333333 0  2.24695652173913 0.08333333333333333 0  2.263478260869565 0.08333333333333333 0  2.28 0.08333333333333333 0  2.296521739130434 0.08333333333333333 0  2.31304347826087 0.08333333333333333 0  2.329565217391304 0.08333333333333333 0  2.346086956521739 0.08333333333333333 0  2.362608695652174 0.08333333333333333 0  2.379130434782609 0.08333333333333333 0  2.395652173913044 0.08333333333333333 0  2.412173913043478 0.08333333333333333 0  2.428695652173913 0.08333333333333333 0  2.445217391304348 0.08333333333333333 0  2.461739130434782 0.08333333333333333 0  2.478260869565217 0.08333333333333333 0  2.494782608695652 0.08333333333333333 0  2.511304347826087 0.08333333333333333 0  2.527826086956522 0.08333333333333333 0  2.544347826086956 0.08333333333333333 0  2.560869565217391 0.08333333333333333 0  2.577391304347826 0.08333333333333333 0  2.593913043478261 0.08333333333333333 0  2.610434782608696 0.08333333333333333 0  2.62695652173913 0.08333333333333333 0  2.643478260869565 0.08333333333333333 0  1.982608695652174 0.1 0  1.999130434782608 0.1 0  2.015652173913043 0.1 0  2.032173913043478 0.1 0  2.048695652173913 0.1 0  2.065217391304348 0.1 0  2.081739130434782 0.1 0  2.098260869565217 0.1 0  2.114782608695652 0.1 0  2.131304347826087 0.1 0  2.147826086956522 0.1 0  2.164347826086956 0.1 0  2.180869565217391 0.1 0  2.197391304347826 0.1 0  2.213913043478261 0.1 0  2.230434782608695 0.1 0  2.24695652173913 0.1 0  2.263478260869565 0.1 0  2.28 0.1 0  2.296521739130434 0.1 0  2.31304347826087 0.1 0  2.329565217391304 0.1 0  2.346086956521739 0.1 0  2.362608695652174 0.1 0  2.379130434782609 0.1 0  2.395652173913044 0.1 0  2.412173913043478 0.1 0  2.428695652173913 0.1 0  2.445217391304348 0.1 0  2.461739130434782 0.1 0  2.478260869565217 0.1 0  2.494782608695652 0.1 0  2.511304347826087 0.1 0  2.527826086956522 0.1 0  2.544347826086956 0.1 0  2.560869565217391 0.1 0  2.5773
[...]
<PointData  Vectors="Displacement"> 
<DataArray  type="Float64"  Name="Displacement"  NumberOfComponents="3" format="ascii">3.4022324218785935e-04 2.2706902822272660e-03 0.0000000000000000e+00  3.4185760705677805e-04 2.3003273356391289e-03 0.0000000000000000e+00  3.1207321544499643e-04 2.2997439957583897e-03 0.0000000000000000e+00  3.1021080533929552e-04 2.2701078903919242e-03 0.0000000000000000e+00  3.4349137149140922e-04 2.3297456399202243e-03 0.0000000000000000e+00  3.1393551496635617e-04 2.3291609117574619e-03 0.0000000000000000e+00  3.4512155185612540e-04 2.3589380107853441e-03 0.0000000000000000e+00  3.1580409681930061e-04 2.3583521821962721e-03 0.0000000000000000e+00  3.4674600300088246e-04 2.3878876642746839e-03 0.0000000000000000e+00  3.1768338111475632e-04 2.3873019712496702e-03 0.0000000000000000e+00  3.4836493524040025e-04 2.4165722209879728e-03 0.0000000000000000e+00  3.1957369685699423e-04 2.4159876440384477e-03 0.0000000000000000e+00  3.4998096000851811e-04 2.4449757459156316e-03 0.0000000000000000e+00  3.2147005704557217e-04 2.4443923946129123e-03 0.0000000000000000e+00  3.5159719371443630e-04 2.4730961068291442e-03 0.0000000000000000e+00  3.2336539474254203e-04 2.4725134854735129e-03 0.0000000000000000e+00  3.5321542053740680e-04 2.5009419443692144e-03 0.0000000000000000e+00  3.2525506557129767e-04 2.5003595294345554e-03 0.0000000000000000e+00  3.5483570165291899e-04 2.5285244818840781e-03 0.0000000000000000e+00  3.2713846331444587e-04 2.5279420073670046e-03 0.0000000000000000e+00  3.5645714543488426e-04 2.5558516952180646e-03 0.0000000000000000e+00  3.2901755181768017e-04 2.5552689857281630e-03 0.0000000000000000e+00  3.5807862664513613e-04 2.5829271572400396e-03 0.0000000000000000e+00  3.3089496709626834e-04 2.5823440390968819e-03 0.0000000000000000e+00  3.5969901527607972e-04 2.6097504279710953e-03 0.0000000000000000e+00  3.3277325533739735e-04 2.6091668650306409e-03 0.0000000000000000e+00  3.6131731239240838e-04 2.6363171273177505e-03 0.0000000000000000e+00  3.3465458411573504e-04 2.6357333496587476e-03 0.0000000000000000e+00  3.6293298785731862e-04 2.6626196453630210e-03 0.0000000000000000e+00  3.3654013746120716e-04 2.6620360863193215e-03 0.0000000000000000e+00  3.6454631325555755e-04 2.6886495682341320e-03 0.0000000000000000e+00  3.3842943188840059e-04 2.6880666793838541e-03 0.0000000000000000e+00  3.6615841807723944e-04 2.7144011960733047e-03 0.0000000000000000e+00  3.4032017609087010e-04 2.7138191539354361e-03 0.0000000000000000e+00  3.6777083100192934e-04 2.7398746190521262e-03 0.0000000000000000e+00  3.4220911101651190e-04 2.7392931534961384e-03 0.0000000000000000e+00  3.6938458036194752e-04 2.7650758470836047e-03 0.0000000000000000e+00  3.4409379317495596e-04 2.7644944887634903e-03 0.0000000000000000e+00  3.7099965011992692e-04 2.7900130086139004e-03 0.0000000000000000e+00  3.4597402688695824e-04 2.7894313323749260e-03 0.0000000000000000e+00  3.7261514638890840e-04 2.8146920021873308e-03 0.0000000000000000e+00  3.4785177053946165e-04 2.8141096099799927e-03 0.0000000000000000e+00  3.7422962874560935e-04 2.8391141531321218e-03 0.0000000000000000e+00  3.4973025283294471e-04 2.8385307498272521e-03 0.0000000000000000e+00  3.7584128080965664e-04 2.8632747210220535e-03 0.0000000000000000e+00  3.5161323592240018e-04 2.8626905518073032e-03 0.0000000000000000e+00  3.7744852575831986e-04 2.8871615857006083e-03 0.0000000000000000e+00  3.5350384605938777e-04 2.8865777040558531e-03 0.0000000000000000e+00  3.7905143569967945e-04 2.9107577744412589e-03 0.0000000000000000e+00  3.5540222721594208e-04 2.9101753690883134e-03 0.0000000000000000e+00  3.8065247127511045e-04 2.9340508048121337e-03 0.0000000000000000e+00  3.5730375728898928e-04 2.9334701885020448e-03 0.0000000000000000e+00  3.8225517543267334e-04 2.9570421705878611e-03 0.0000000000000000e+00  3.5920096515890668e-04 2.9564625328721357e-03 0.0000000000000000e+00  3.8386160121990116e-04 2.9797469936854114e-03 0.0000000000000000e+00  3.6108861762327861e-04 2.9791673972740917e-03 0.0000000000000000e+00  3.8547124376688078e-04 3.0021830289153413e-03 0.0000000000000000e+00  3.6296689797189193e-04 3.0016031153446386e-03 0.0000000000000000e+00  3.8708240116079346e-04 3.0243614689538594e-03 0.0000000000000000e+00  3.6483960283950108e-04 3.0237806862801445e-03 0.0000000000000000e+00  3.8869345256214289e-04 3.0462869531693421e-03 0.0000000000000000e+00  3.6671173607097992e-04 3.0457037324378355e-03 0.0000000000000000e+00  3.9030186200418100e-04 3.0679594918599450e-03 0.0000000000000000e+00  3.6858985450325321e-04 3.0673717750723736e-03 0.0000000000000000e+00  3.9189870096671258e-04 3.0893615459491896e-03 0.0000000000000000e+00  3.7048577264163691e-04 3.0887771861735436e-03 0.0000000000000000e+00  3.9348249230323069e-04 3.1104248933417331e-03 0.0000000000000000e+00  3.7240552026601812e-04 3.1098543094793206e-03 0.0000000000000000e+00  3.9502513048826556e-04 3.1310482084910712e-03 0.0000000000000000e+00  3.7432143169598272e-04 3.1305907930431628e-03 0.0000000000000000e+00  3.9654128378935712e-04 3.1514608647207846e-03 0.0000000000000000e+00  3.7579046384577313e-04 3.1510493491561740e-03 0.0000000000000000e+00  3.9808909330325983e-04 3.1721294595066221e-03 0.0000000000000000e+00  3.7691462688057734e-04 3.1716998992678434e-03 0.0000000000000000e+00  3.9966706845832769e-04 3.1933493821540964e-03 0.0000000000000000e+00  3.7794196438177839e-04 3.1929204905293764e-03 0.0000000000000000e+00  4.0124156098466626e-04 3.2151812835322533e-03 0.0000000000000000e+00  3.7891976321860043e-04 3.2147680302764292e-03 0.0000000000000000e+00  4.0275383211011378e-04 3.2376757233797335e-03 0.0000000000000000e+00  3.7979562858910914e-04 3.2373211147261934e-03 0.0000000000000000e+00  4.0423465517840389e-04 3.2607280453590287e-03 0.0000000000000000e+00  3.8056487152430835e-04 3.2604062165165152e-03 0.0000000000000000e+00  4.0581766123584597e-04 3.2843521742765762e-03 0.0000000000000000e+00  3.8129639098928846e-04 3.2840020182894432e-03 0.0000000000000000e+00  4.0754069894517590e-04 3.3089176982411231e-03 0.0000000000000000e+00  3.8194438229405319e-04 3.3085699396934493e-03 0.0000000000000000e+00  2.8425515501737163e-04 2.3285335946453428e-03 0.0000000000000000e+00  2.8631684689030582e-04 2.3577232634465740e-03 0.0000000000000000e+00  2.8842478513313295e-04 2.3866702188739125e-03 0.0000000000000000e+00  2.9060552442831597e-04 2.4153529403778840e-03 0.0000000000000000e+00  2.9283327420133931e-04 2.4437556343784171e-03 0.0000000000000000e+00  2.9505401606993162e-04 2.4718766913261400e-03 0.0000000000000000e+00  2.9723287801944635e-04 2.4997241102541722e-03 0.0000000000000000e+00  2.9937206965275113e-04 2.5273080676455877e-03 0.0000000000000000e+00  3.0149215263059452e-04 2.5546361442381977e-03 0.0000000000000000e+00  3.0360723926691131e-04 2.5817117081846875e-03 0.0000000000000000e+00  3.0572486795552581e-04 2.6085343040829945e-03 0.0000000000000000e+00  3.0785410427271707e-04 2.6350999019716962e-03 0.0000000000000000e+00  3.1000493611527575e-04 2.6614013986948465e-03 0.0000000000000000e+00  3.1218068021537557e-04 2.6874308048288969e-03 0.0000000000000000e+00  3.1437357488837568e-04 2.7131827159272560e-03 0.0000000000000000e+00  3.1656399816745403e-04 2.7386571926440698e-03 0.0000000000000000e+00  3.1873044848896123e-04 2.7638596962591003e-03 0.0000000000000000e+00  3.2086806247808296e-04 2.7887976631221535e-03 0.0000000000000000e+00  3.2298750158129858e-04 2.8134765789786190e-03 0.0000000000000000e+00  3.2510142112353172e-04 2.8378975348645080e-03 0.0000000000000000e+00  3.2722366781501441e-04 2.8620560293379513e-03 0.0000000000000000e+00  3.2937825751524667e-04 2.8859409828421367e-03 0.0000000000000000e+00  3.3158934957634300e-04 2.9095363234123315e-03 0.0000000000000000e+00  3.3384593799122824e-04 2.9328299546791136e-03 0.0000000000000000e+00  3.3609458624366526e-04 2.9558236641394585e-03 0.0000000000000000e+00  3.3828146987550836e-04 2.9785313252714517e-03 0.0000000000000000e+00  3.4040719899723859e-04 3.0009691132496731e-03 0.0000000000000000e+00  3.4251013879645916e-04 3.0231482177054555e-03 0.0000000000000000e+00  3.4460688726706940e-04 3.0450723103468808e-03 0.0000000000000000e+00  3.4668385808688825e-04 3.0667396029357432e-03 0.0000000000000000e+00  3.4874356322089813e-04 3.0881378409866908e-03 0.0000000000000000e+00  3.5111934275800888e-04 3.1092093008560852e-03 0.0000000000000000e+00  3.5363262175500527e-04 3.1299710794482878e-03 0.0000000000000000e+00  3.5548621144211150e-04 3.1507573302407984e-03 0.0000000000000000e+00  3.5606887541430454e-04 3.1714630373808504e-03 0.0000000000000000e+00  3.5636598991851731e-04 3.1926671237541638e-03 0.0000000000000000e+00  3.5673391922803514e-04 3.2145153459086982e-03 0.0000000000000000e+00  3.5701067851816364e-04 3.2372262630993220e-03 0.0000000000000000e+00  3.5710117694278331e-04 3.2604031639231227e-03 0.0000000000000000e+00  3.5707483438419523e-04 3.2838748020804264e-03 0.0000000000000000e+00  3.5692162682011925e-04 3.3084251254363842e-03 0.0000000000000000e+00  3.5675366494689509e-04 3.3339550899609063e-03 0.0000000000000000e+00  2.5837599630487582e-04 2.3535428387043227e-03 0.0000000000000000e+00  2.6057235279527188e-04 2.3824068948584904e-03 0.0000000000000000e+00  2.6278039406249477e-04 2.4110162009122922e-03 0.0000000000000000e+00  2.6499808356680952e-04 2.4393649780498814e-03 0.0000000000000000e+00  2.6721243674503864e-04 2.4674525981607685e-03 0.0000000000000000e+00  2.6941174829787690e-04 2.4952770248964150e-03 0.0000000000000000e+00  2.7159367092603688e-04 2.5228357600895254e-03 0.0000000000000000e+00  2.7376405424548507e-04 2.5501291227689343e-03 0.0000000000000000e+00  2.7593128414599014e-04 2.5771595862273222e-03 0.0000000000000000e+00  2.7810291511153962e-04 2.6039275335424526e-03 0.0000000000000000e+00  2.8028528639950569e-04 2.6304298802889686e-03 0.0000000000000000e+00  2.8248294487464410e-04 2.6566619758068006e-03 0.0000000000000000e+00  2.8469696242293060e-04 2.6826201659441089e-03 0.0000000000000000e+00  2.8692391936922996e-04 2.7083032568912071e-03 0.0000000000000000e+00  2.8915705562717193e-04 2.7337129632558281e-03 0.0000000000000000e+00  2.9138999989234088e-04 2.7588518637589434e-03 0.0000000000000000e+00  2.9362130999641963e-04 2.7837208017317044e-03 0.0000000000000000e+00  2.9585581457948522e-04 2.8083198398858233e-03 0.0000000000000000e+00  2.9810235280999927e-04 2.8326484136031701e-03 0.0000000000000000e+00  3.0037139444428752e-04 2.8567026540965035e-03 0.0000000000000000e+00  3.0267325126150942e-04 2.8804744694963303e-03 0.0000000000000000e+00  3.0501378800070568e-04 2.9039566875700309e-03 0.0000000000000000e+00  3.0738833740051298e-04 2.9271507805165523e-03 0.0000000000000000e+00  3.0978225123598735e-04 2.9500659194380968e-03 0.0000000000000000e+00  3.1218206288719799e-04 2.9727103407865873e-03 0.0000000000000000e+00  3.1458806744201110e-04 2.9950871897217925e-03 0.0000000000000000e+00  3.1701480613005557e-04 3.0172037984700934e-03 0.0000000000000000e+00  3.1948046974259267e-04 3.0390779763551359e-03 0.0000000000000000e+00  3.2199934177751715e-04 3.0607324869735097e-03 0.0000000000000000e+00  3.2457949187803117e-04 3.0821904668640507e-03 0.0000000000000000e+00  3.2720783874018580e-04 3.1034760308774833e-03 0.0000000000000000e+00  3.2976767318487602e-04 3.1248341235692745e-03 0.0000000000000000e+00  3.3207799093079918e-04 3.1468619700019303e-03 0.0000000000000000e+00  3.3459326037618443e-04 3.1713824914741538e-03 0.0000000000000000e+00  3.3452982170205131e-04 3.1925958363769008e-03 0.0000000000000000e+00  3.3451076824792230e-04 3.2142758536737779e-03 0.0000000000000000e+00  3.3448126061838898e-04 3.2372999498729224e-03 0.0000000000000000e+00  3.3419478481015713e-04 3.2606289001566036e-03 0.0000000000000000e+00  3.3386554847693713e-04 3.2838066385518930e-03 0.0000000000000000e+00  3.3319965103257746e-04 3.3082343750303685e-03 0.0000000000000000e+00  3.3106868915904971e-04 3.3340062379601638e-03 0.0000000000000000e+00  3.3096584713050822e-04 3.3644553021791568e-03 0.0000000000000000e+00  2.3281429759751220e-04 2.3781945508763312e-03 0.0000000000000000e+00  2.3504084742241455e-04 2.4067570458511469e-03 0.0000000000000000e+00  2.3726471771811115e-04 2.4350644892366237e-03 0.0000000000000000e+00  2.3948573744817867e-04 2.4631144499965576e-03 0.0000000000000000e+00  2.4170270249291410e-04 2.4909032110445261e-03 0.0000000000000000e+00  2.4391576368209883e-04 2.5184257500160826e-03 0.0000000000000000e+00  2.4612739750879130e-04 2.5456789773601021e-03 0.0000000000000000e+00  2.4834195806852866e-04 2.5726623938348223e-03 0.0000000000000000e+00  2.5056449064366485e-04 2.5993755678146960e-03 0.0000000000000000e+00  2.5279941133647243e-04 2.6258165534602442e-03 0.0000000000000000e+00  2.5504957834654527e-04 2.6519826805392007e-03 0.0000000000000000e+00  2.5731589235485861e-04 2.6778721254612347e-03 0.0000000000000000e+00  2.5959754597703493e-04 2.7034846553467763e-03 0.0000000000000000e+00  2.6189303772427940e-04 2.7288213054642721e-03 0.0000000000000000e+00  2.6420176916213962e-04 2.7538828117153009e-03 0.0000000000000000e+00  2.6652534479161273e-04 2.7786682819062941e-03 0.0000000000000000e+00  2.6886789661805411e-04 2.8031760572557077e-03 0.0000000000000000e+00  2.7123562974278113e-04 2.8274044093405996e-03 0.0000000000000000e+00  2.7363561744537916e-04 2.8513505780713121e-03 0.0000000000000000e+00  2.7607385051076820e-04 2.8750107377941720e-03 0.0000000000000000e+00  2.7855316121115512e-04 2.8983832686199995e-03 0.0000000000000000e+00  2.8107256899678626e-04 2.9214725010236371e-03 0.0000000000000000e+00  2.8362937129629344e-04 2.9442867724956598e-03 0.0000000000000000e+00  2.8622287090226186e-04 2.9668326140094414e-03 0.0000000000000000e+00  2.8885706601470580e-04 2.9891138732513170e-03 0.0000000000000000e+00  2.9154050197603210e-04 3.0111404950951058e-03 0.0000000000000000e+00  2.9428320011380102e-04 3.0329380719481560e-03 0.0000000000000000e+00  2.9709041605440980e-04 3.0545518323507326e-03 0.0000000000000000e+00  2.9994579260009626e-04 3.0760608132997078e-03 0.0000000000000000e+00  3.0277237233814554e-04 3.0976094558386670e-03 0.0000000000000000e+00  3.0540335568638707e-04 3.1194846157460857e-03 0.0000000000000000e+00  3.0762010453263389e-04 3.1421719055207730e-03 0.0000000000000000e+00  3.0951450356201998e-04 3.1658773902350826e-03 0.0000000000000000e+00  3.1107686383314762e-04 3.1893936458191954e-03 0.0000000000000000e+00  3.1157192271385364e-04 3.2134442918540173e-03 0.0000000000000000e+00  3.1170398990286924e-04 3.2373285767483438e-03 0.0000000000000000e+00  3.1154828541395764e-04 3.2613715313660092e-03 0.0000000000000000e+00  3.1118158779609354e-04 3.2839213213164101e-03 0.0000000000000000e+00  3.0992980411365985e-04 3.3116020974723330e-03 0.0000000000000000e+00  3.0795011821610800e-04 3.3385846934863984e-03 0.0000000000000000e+00  3.0611182014179391e-04 3.3675081599663145e-03 0.0000000000000000e+00  3.0475683270938039e-04 3.3972326592831815e-03 0.0000000000000000e+00  2.0739465681484138e-04 2.4025778124612198e-03 0.0000000000000000e+00  2.0962096614976980e-04 2.4308469562885093e-03 0.0000000000000000e+00  2.1185017744123960e-04 2.4588573961748907e-03 0.0000000000000000e+00  2.1408417605358829e-04 2.4866050920124231e-03 0.0000000000000000e+00  2.1632448634003459e-04 2.5140847336619044e-03 0.0000000000000000e+00  2.1857300271712360e-04 2.5412919654162220e-03 0.0000000000000000e+00  2.2083231285438600e-04 2.5682244780530885e-03 0.0000000000000000e+00  2.2310545223628743e-04 2.5948809308339199e-03 0.0000000000000000e+00  2.2539519374821168e-04 2.6212598180535489e-03 0.0000000000000000e+00  2.2770344592642954e-04 2.6473594943863584e-03 0.0000000000000000e+00  2.3003117732573684e-04 2.6731787936179439e-03 0.0000000000000000e+00  2.3237887243223593e-04 2.6987172945127152e-03 0.0000000000000000e+00  2.3474729241378800e-04 2.7239749561378695e-03 0.0000000000000000e+00  2.3713823153095976e-04 2.7489512250615804e-03 0.0000000000000000e+00  2.3955487302469624e-04 2.7736445155029368e-03 0.0000000000000000e+00  2.4200167184519736e-04 2.7980528491944523e-03 0.0000000000000000e+00  2.4448401109879495e-04 2.8221745245126510e-03 0.0000000000000000e+00  2.4700750763570223e-04 2.8460080962581995e-03 0.0000000000000000e+00  2.4957687793671134e-04 2.8695527616756501e-03 0.0000000000000000e+00  2.5219498643611575e-04 2.8928100217826946e-03 0.0000000000000000e+00  2.5486303937360196e-04 2.9157849661206694e-03 0.0000000000000000e+00  2.5758203543629270e-04 2.9384845400928037e-03 0.0000000000000000e+00  2.6035429337711104e-04 2.9609145001091501e-03 0.0000000000000000e+00  2.6318411930890712e-04 2.9830803711713909e-03 0.0000000000000000e+00  2.6607760249078007e-04 3.0049952082666135e-03 0.0000000000000000e+00  2.6904081748041963e-04 3.0266915859735372e-03 0.0000000000000000e+00  2.7207558068431746e-04 3.0482312637747679e-03 0.0000000000000000e+00  2.7516624138930175e-04 3.0697406585359550e-03 0.0000000000000000e+00  2.7824523824664950e-04 3.0914713374170762e-03 0.0000000000000000e+00  2.8115570094377335e-04 3.1137683926083428e-03 0.0000000000000000e+00  2.8356920000893585e-04 3.1370788436138352e-03 0.0000000000000000e+00  2.8572380171691767e-04 3.1606963859629007e-03 0.0000000000000000e+00  2.8713310486804211e-04 3.1847485959724045e-03 0.0000000000000000e+00  2.8735311629733202e-04 3.2119006699219163e-03 0.0000000000000000e+00  2.8761692079005253e-04 3.2371708882177842e-03 0.0000000000000000e+00  2.8767831745378161e-04 3.2625384655796574e-03 0.0000000000000000e+00  2.8747391149139186e-04 3.2891262187442019e-03 0.0000000000000000e+00  2.8545468448735073e-04 3.3153693124343521e-03 0.0000000000000000e+00  2.8357945573216143e-04 3.3425110246860148e-03 0.0000000000000000e+00  2.8156148661149160e-04 3.3710453376360606e-03 0.0000000000000000e+00  2.7968388509548499e-04 3.4005258020747041e-03 0.0000000000000000e+00  2.7790136132836745e-04 3.4308641431516173e-03 0.0000000000000000e+00  1.8205047260428525e-04 2.4267148973107400e-03 0.0000000000000000e+00  1.8428535110695394e-04 2.4546816654886856e-03 0.0000000000000000e+00  1.8653574575893086e-04 2.4823837121396319e-03 0.0000000000000000e+00  1.8880267358699118e-04 2.5098152609393789e-03 0.0000000000000000e+00  1.9108750869997003e-04 2.5369711152553273e-03 0.0000000000000000e+00  1.9339189637659863e-04 2.5638480611035741e-03 0.0000000000000000e+00  1.9571751090437963e-04 2.5904443184315441e-03 0.0000000000000000e+00  1.9806575869026080e-04 2.6167585488828388e-03 0.0000000000000000e+00  2.0043760272403093e-04 2.6427894744883319e-03 0.0000000000000000e+00  2.0283370400637788e-04 2.6685359369671073e-03 0.0000000000000000e+00  2.0525488794174911e-04 2.6939968823153108e-03 0.0000000000000000e+00  2.0770272821633723e-04 2.7191711242934469e-03 0.0000000000000000e+00  2.1017997425664851e-04 2.7440570054695465e-03 0.0000000000000000e+00  2.1269061023782416e-04 2.7686524052102429e-03 0.0000000000000000e+00  2.1523958242402919e-04 2.7929553472779913e-03 0.0000000000000000e+00  2.1783238239860944e-04 2.8169646321238944e-03 0.0000000000000000e+00  2.2047448400993404e-04 2.8406801477993521e-03 0.0000000000000000e+00  2.2317064809846898e-04 2.8641032656998235e-03 0.0000000000000000e+00  2.2592444325669471e-04 2.8872375232538868e-03 0.0000000000000000e+00  2.2873840093141288e-04 2.9100886891164448e-03 0.0000000000000000e+00  2.3161468976084300e-04 2.9326632090530178e-03 0.0000000000000000e+00  2.3455571791934895e-04 2.9549663845105339e-03 0.0000000000000000e+00  2.3756464014634552e-04 2.9770035664029482e-03 0.0000000000000000e+00  2.4064673374160389e-04 2.9987872607884379e-03 0.0000000000000000e+00  2.4380874852887629e-04 3.0203518729282918e-03 0.0000000000000000e+00  2.4706020193849176e-04 3.0417653788399057e-03 0.0000000000000000e+00  2.5038733506872052e-04 3.0631798114443940e-03 0.0000000000000000e+00  2.5372373620626514e-04 3.0849448193778490e-03 0.0000000000000000e+00  2.5696410303018024e-04 3.1075655290520297e-03 0.0000000000000000e+00  2.5951900456182460e-04 3.1319058358122475e-03 0.0000000000000000e+