<?xml version="1.0"?>
<VTKFile type="UnstructuredGrid"  version="0.1"  >
<UnstructuredGrid>
<Piece  NumberOfPoints="617" NumberOfCells="1135">
<Points>
<DataArray  type="Float64"  NumberOfComponents="3"  format="ascii">0 0 0  0.01652173913043478 0 0  0.01652173913043478 0.01666666666666667 0  0 0.01666666666666667 0  0.03304347826086956 0 0  0.03304347826086956 0.01666666666666667 0  0.04956521739130434 0 0  0.04956521739130434 0.01666666666666667 0  0.06608695652173913 0 0  0.06608695652173913 0.01666666666666667 0  0.08260869565217391 0 0  0.08260869565217391 0.01666666666666667 0  0.09913043478260869 0.01666666666666667 0  0.01652173913043478 0.03333333333333333 0  0 0.03333333333333333 0  0.03304347826086956 0.03333333333333333 0  0.04956521739130434 0.03333333333333333 0  0.06608695652173913 0.03333333333333333 0  0.08260869565217391 0.03333333333333333 0  0.09913043478260869 0.03333333333333333 0  0.1156521739130435 0.03333333333333333 0  0.01652173913043478 0.05 0  0 0.05 0  0.03304347826086956 0.05 0  0.04956521739130434 0.05 0  0.06608695652173913 0.05 0  0.08260869565217391 0.05 0  0.09913043478260869 0.05 0  0.1156521739130435 0.05 0  0.1321739130434783 0.05 0  0.01652173913043478 0.06666666666666667 0  0 0.06666666666666667 0  0.03304347826086956 0.06666666666666667 0  0.04956521739130434 0.06666666666666667 0  0.06608695652173913 0.06666666666666667 0  0.08260869565217391 0.06666666666666667 0  0.09913043478260869 0.06666666666666667 0  0.1156521739130435 0.06666666666666667 0  0.1321739130434783 0.06666666666666667 0  0.148695652173913 0.06666666666666667 0  0.01652173913043478 0.08333333333333333 0  0 0.08333333333333333 0  0.03304347826086956 0.08333333333333333 0  0.04956521739130434 0.08333333333333333 0  0.06608695652173913 0.08333333333333333 0  0.08260869565217391 0.08333333333333333 0  0.09913043478260869 0.08333333333333333 0  0.1156521739130435 0.08333333333333333 0  0.1321739130434783 0.08333333333333333 0  0.148695652173913 0.08333333333333333 0  0.1652173913043478 0.08333333333333333 0  0.01652173913043478 0.1 0  0 0.1 0  0.03304347826086956 0.1 0  0.04956521739130434 0.1 0  0.06608695652173913 0.1 0  0.08260869565217391 0.1 0  0.09913043478260869 0.1 0  0.1156521739130435 0.1 0  0.1321739130434783 0.1 0  0.148695652173913 0.1 0  0.1652173913043478 0.1 0  0.1817391304347826 0.1 0  0.01652173913043478 0.1166666666666667 0  0 0.1166666666666667 0  0.03304347826086956 0.1166666666666667 0  0.04956521739130434 0.1166666666666667 0  0.06608695652173913 0.1166666666666667 0  0.08260869565217391 0.1166666666666667 0  0.09913043478260869 0.1166666666666667 0  0.1156521739130435 0.1166666666666667 0  0.1321739130434783 0.1166666666666667 0  0.148695652173913 0.1166666666666667 0  0.1652173913043478 0.1166666666666667 0  0.1817391304347826 0.1166666666666667 0  0.1982608695652174 0.1166666666666667 0  0.01652173913043478 0.1333333333333333 0  0 0.1333333333333333 0  0.03304347826086956 0.1333333333333333 0  0.04956521739130434 0.1333333333333333 0  0.06608695652173913 0.1333333333333333 0  0.08260869565217391 0.1333333333333333 0  0.09913043478260869 0.1333333333333333 0  0.1156521739130435 0.1333333333333333 0  0.1321739130434783 0.1333333333333333 0  0.148695652173913 0.1333333333333333 0  0.1652173913043478 0.1333333333333333 0  0.1817391304347826 0.1333333333333333 0  0.1982608695652174 0.1333333333333333 0  0.2147826086956522 0.1333333333333333 0  0.01652173913043478 0.15 0  0 0.15 0  0.03304347826086956 0.15 0  0.04956521739130434 0.15 0  0.06608695652173913 0.15 0  0.08260869565217391 0.15 0  0.09913043478260869 0.15 0  0.1156521739130435 0.15 0  0.1321739130434783 0.15 0  0.148695652173913 0.15 0  0.1652173913043478 0.15 0  0.1817391304347826 0.15 0  0.1982608695652174 0.15 0  0.2147826086956522 0.15 0  0.2313043478260869 0.15 0  0.01652173913043478 0.1666666666666667 0  0 0.1666666666666667 0  0.03304347826086956 0.1666666666666667 0  0.04956521739130434 0.1666666666666667 0  0.06608695652173913 0.1666666666666667 0  0.08260869565217391 0.1666666666666667 0  0.09913043478260869 0.1666666666666667 0  0.1156521739130435 0.1666666666666667 0  0.1321739130434783 0.1666666666666667 0  0.148695652173913 0.1666666666666667 0  0.1652173913043478 0.1666666666666667 0  0.1817391304347826 0.1666666666666667 0  0.1982608695652174 0.1666666666666667 0  0.2147826086956522 0.1666666666666667 0  0.2313043478260869 0.1666666666666667 0  0.2478260869565218 0.1666666666666667 0  0.01652173913043478 0.1833333333333333 0  0 0.1833333333333333 0  0.03304347826086956 0.1833333333333333 0  0.04956521739130434 0.1833333333333333 0  0.06608695652173913 0.1833333333333333 0  0.08260869565217391 0.1833333333333333 0  0.09913043478260869 0.1833333333333333 0  0.1156521739130435 0.1833333333333333 0  0.1321739130434783 0.1833333333333333 0  0.148695652173913 0.1833333333333333 0  0.1652173913043478 0.1833333333333333 0  0.1817391304347826 0.1833333333333333 0  0.1982608695652174 0.1833333333333333 0  0.2147826086956522 0.1833333333333333 0  0.2313043478260869 0.1833333333333333 0  0.2478260869565218 0.1833333333333333 0  0.2643478260869565 0.1833333333333333 0  0.01652173913043478 0.2 0  0 0.2 0  0.03304347826086956 0.2 0  0.04956521739130434 0.2 0  0.06608695652173913 0.2 0  0.08260869565217391 0.2 0  0.09913043478260869 0.2 0  0.1156521739130435 0.2 0  0.1321739130434783 0.2 0  0.148695652173913 0.2 0  0.1652173913043478 0.2 0  0.1817391304347826 0.2 0  0.1982608695652174 0.2 0  0.2147826086956522 0.2 0  0.2313043478260869 0.2 0  0.2478260869565218 0.2 0  0.2643478260869565 0.2 0  0.2808695652173913 0.2 0  0.01652173913043478 0.2166666666666667 0  0 0.2166666666666667 0  0.03304347826086956 0.2166666666666667 0  0.04956521739130434 0.2166666666666667 0  0.06608695652173913 0.2166666666666667 0  0.08260869565217391 0.2166666666666667 0  0.09913043478260869 0.2166666666666667 0  0.1156521739130435 0.2166666666666667 0  0.1321739130434783 0.2166666666666667 0  0.148695652173913 0.2166666666666667 0  0.1652173913043478 0.2166666666666667 0  0.1817391304347826 0.2166666666666667 0  0.1982608695652174 0.2166666666666667 0  0.2147826086956522 0.2166666666666667 0  0.2313043478260869 0.2166666666666667 0  0.2478260869565218 0.2166666666666667 0  0.2643478260869565 0.2166666666666667 0  0.2808695652173913 0.2166666666666667 0  0.2973913043478261 0.2166666666666667 0  0.01652173913043478 0.2333333333333333 0  0 0.2333333333333333 0  0.03304347826086956 0.2333333333333333 0  0.04956521739130434 0.2333333333333333 0  0.06608695652173913 0.2333333333333333 0  0.08260869565217391 0.2333333333333333 0  0.09913043478260869 0.2333333333333333 0  0.1156521739130435 0.2333333333333333 0  0.1321739130434783 0.2333333333333333 0  0.148695652173913 0.2333333333333333 0  0.1652173913043478 0.2333333333333333 0  0.1817391304347826 0.2333333333333333 0  0.1982608695652174 0.2333333333333333 0  0.2147826086956522 0.2333333333333333 0  0.2313043478260869 0.2333333333333333 0  0.2478260869565218 0.2333333333333333 0  0.2643478260869565 0.2333333333333333 0  0.2808695652173913 0.2333333333333333 0  0.2973913043478261 0.2333333333333333 0  0.01652173913043478 0.25 0  0 0.25 0  0.03304347826086956 0.25 0  0.04956521739130434 0.25 0  0.06608695652173913 0.25 0  0.08260869565217391 0.25 0  0.09913043478260869 0.25 0  0.1156521739130435 0.25 0  0.1321739130434783 0.25 0  0.148695652173913 0.25 0  0.1652173913043478 0.25 0  0.1817391304347826 0.25 0  0.1982608695652174 0.25 0  0.2147826086956522 0.25 0  0.2313043478260869 0.25 0  0.2478260869565218 0.25 0  0.2643478260869565 0.25 0  0.2808695652173913 0.25 0  0.2973913043478261 0.25 0  0.01652173913043478 0.2666666666666667 0  0 0.2666666666666667 0  0.03304347826086956 0.2666666666666667 0  0.04956521739130434 0.2666666666666667 0  0.06608695652173913 0.2666666666666667 0  0.08260869565217391 0.2666666666666667 0  0.09913043478260869 0.2666666666666667 0  0.1156521739130435 0.2666666666666667 0  0.1321739130434783 0.2666666666666667 0  0.148695652173913 0.2666666666666667 0  0.1652173913043478 0.2666666666666667 0  0.1817391304347826 0.2666666666666667 0  0.1982608695652174 0.2666666666666667 0  0.2147826086956522 0.2666666666666667 0  0.2313043478260869 0.2666666666666667 0  0.2478260869565218 0.2666666666666667 0  0.2643478260869565 0.2666666666666667 0  0.2808695652173913 0.2666666666666667 0  0.2973913043478261 0.2666666666666667 0  0.3139130434782609 0.2666666666666667 0  0.01652173913043478 0.2833333333333333 0  0 0.2833333333333333 0  0.03304347826086956 0.2833333333333333 0  0.04956521739130434 0.2833333333333333 0  0.06608695652173913 0.2833333333333333 0  0.08260869565217391 0.2833333333333333 0  0.09913043478260869 0.2833333333333333 0  0.1156521739130435 0.2833333333333333 0  0.1321739130434783 0.2833333333333333 0  0.148695652173913 0.2833333333333333 0  0.1652173913043478 0.2833333333333333 0  0.1817391304347826 0.2833333333333333 0  0.1982608695652174 0.2833333333333333 0  0.2147826086956522 0.2833333333333333 0  0.2313043478260869 0.2833333333333333 0  0.2478260869565218 0.2833333333333333 0  0.2643478260869565 0.2833333333333333 0  0.2808695652173913 0.2833333333333333 0  0.2973913043478261 0.2833333333333333 0  0.3139130434782609 0.2833333333333333 0  0.3304347826086956 0.2833333333333333 0  0.01652173913043478 0.3 0  0 0.3 0  0.03304347826086956 0.3 0  0.04956521739130434 0.3 0  0.06608695652173913 0.3 0  0.08260869565217391 0.3 0  0.09913043478260869 0.3 0  0.1156521739130435 0.3 0  0.1321739130434783 0.3 0  0.148695652173913 0.3 0  0.1652173913043478 0.3 0  0.1817391304347826 0.3 0  0.1982608695652174 0.3 0  0.2147826086956522 0.3 0  0.2313043478260869 0.3 0  0.2478260869565218 0.3 0  0.2643478260869565 0.3 0  0.2808695652173913 0.3 0  0.2973913043478261 0.3 0  0.3139130434782609 0.3 0  0.3304347826086956 0.3 0  0.3469565217391304 0.3 0  0.01652173913043478 0.3166666666666667 0  0 0.3166666666666667 0  0.03304347826086956 0.3166666666666667 0  0.04956521739130434 0.31666666
[...]
<PointData  Vectors="Displacement"> 
<DataArray  type="Float64"  Name="Displacement"  NumberOfComponents="3" format="ascii">0.0000000000000000e+00 0.0000000000000000e+00 0.0000000000000000e+00  7.4655512260445836e-06 3.6505128410025940e-06 0.0000000000000000e+00  3.9162588000494351e-06 1.9305517784968267e-06 0.0000000000000000e+00  0.0000000000000000e+00 0.0000000000000000e+00 0.0000000000000000e+00  1.4461927306004013e-05 8.5917252159008559e-06 0.0000000000000000e+00  8.2079680510602582e-06 6.8002005583936224e-06 0.0000000000000000e+00  2.1473774888994190e-05 1.5993616941517310e-05 0.0000000000000000e+00  1.2359093873868629e-05 1.4206858447511466e-05 0.0000000000000000e+00  2.8671655997938967e-05 2.6169479572918960e-05 0.0000000000000000e+00  1.6422840583263463e-05 2.4348916939617918e-05 0.0000000000000000e+00  3.6102701161328746e-05 3.9585345821893482e-05 0.0000000000000000e+00  2.0375683284612017e-05 3.7760129257792598e-05 0.0000000000000000e+00  2.4098402162837925e-05 5.4900736515362953e-05 0.0000000000000000e+00  1.1696440968081851e-06 1.4166802433185019e-06 0.0000000000000000e+00  0.0000000000000000e+00 0.0000000000000000e+00 0.0000000000000000e+00  2.4276800357332923e-06 6.0655301519256922e-06 0.0000000000000000e+00  3.5540967123643579e-06 1.3497184946760538e-05 0.0000000000000000e+00  4.4872374303407720e-06 2.3590277661625831e-05 0.0000000000000000e+00  5.0856055241076699e-06 3.7058942670889193e-05 0.0000000000000000e+00  5.1449861273415178e-06 5.4465979317228759e-05 0.0000000000000000e+00  4.5587118896290832e-06 7.5470283973091672e-05 0.0000000000000000e+00  -1.3591121957409672e-06 1.6415068587636809e-06 0.0000000000000000e+00  0.0000000000000000e+00 0.0000000000000000e+00 0.0000000000000000e+00  -2.8418286776448354e-06 6.3184684658200770e-06 0.0000000000000000e+00  -4.4544845415801820e-06 1.3860097089502304e-05 0.0000000000000000e+00  -6.3993757515731371e-06 2.3719146363112959e-05 0.0000000000000000e+00  -8.7471736432649342e-06 3.7204757117383312e-05 0.0000000000000000e+00  -1.1861329231097861e-05 5.4734087227498331e-05 0.0000000000000000e+00  -1.4535898149566048e-05 7.5486191029875270e-05 0.0000000000000000e+00  -1.8625122712309154e-05 1.0087473500948891e-04 0.0000000000000000e+00  -3.8276375726053041e-06 2.4427780939900551e-06 0.0000000000000000e+00  0.0000000000000000e+00 0.0000000000000000e+00 0.0000000000000000e+00  -7.5852951354281767e-06 7.2097601091934285e-06 0.0000000000000000e+00  -1.1271888369918568e-05 1.4592114434949264e-05 0.0000000000000000e+00  -1.3934639244621811e-05 2.4166697452882637e-05 0.0000000000000000e+00  -1.9447581317213373e-05 3.7654883608499339e-05 0.0000000000000000e+00  -2.6819861940924131e-05 5.5466697040235387e-05 0.0000000000000000e+00  -3.5304280924774267e-05 7.6363296253751999e-05 0.0000000000000000e+00  -3.4584824388023361e-05 1.0783619030960791e-04 0.0000000000000000e+00  -3.8345319963874873e-05 1.4041916310992514e-04 0.0000000000000000e+00  -5.4234028825691431e-06 3.6618144900899084e-06 0.0000000000000000e+00  0.0000000000000000e+00 0.0000000000000000e+00 0.0000000000000000e+00  -1.1843117967837488e-05 8.4279875940699634e-06 0.0000000000000000e+00  -1.8718302563689177e-05 1.5819462400376973e-05 0.0000000000000000e+00  -2.2305936328759465e-05 2.5948001597507072e-05 0.0000000000000000e+00  -2.5335492934676462e-05 4.4130918436798090e-05 0.0000000000000000e+00  -3.0958046038456072e-05 6.3322872754109679e-05 0.0000000000000000e+00  -3.7242581486991005e-05 8.5550184708305446e-05 0.0000000000000000e+00  -4.2866482541669470e-05 1.1311186191429467e-04 0.0000000000000000e+00  -4.7537955640854050e-05 1.4553370851743517e-04 0.0000000000000000e+00  -5.2381075725807703e-05 1.8076220395040618e-04 0.0000000000000000e+00  -4.6848742180824732e-06 5.7239114359308490e-06 0.0000000000000000e+00  0.0000000000000000e+00 0.0000000000000000e+00 0.0000000000000000e+00  -1.0303853994134951e-05 1.2466122640047137e-05 0.0000000000000000e+00  -1.6475143319659482e-05 2.1276990295461612e-05 0.0000000000000000e+00  -2.2682623666872910e-05 3.2650863320920362e-05 0.0000000000000000e+00  -2.8931211854542438e-05 4.9620625508913508e-05 0.0000000000000000e+00  -3.5122087916756422e-05 6.9695397366578650e-05 0.0000000000000000e+00  -4.1818049267711349e-05 9.2576782688270725e-05 0.0000000000000000e+00  -4.8622834057212059e-05 1.1943733934315270e-04 0.0000000000000000e+00  -5.5020471076717340e-05 1.5035866149566549e-04 0.0000000000000000e+00  -6.0941788772636404e-05 1.8456104714062381e-04 0.0000000000000000e+00  -6.6496314600359091e-05 2.2183160864859918e-04 0.0000000000000000e+00  -4.8431171054716719e-06 7.2152811384768746e-06 0.0000000000000000e+00  0.0000000000000000e+00 0.0000000000000000e+00 0.0000000000000000e+00  -1.0534034258091670e-05 1.5625036304213833e-05 0.0000000000000000e+00  -1.6987270559851174e-05 2.5902764270621833e-05 0.0000000000000000e+00  -2.4023810569601633e-05 3.8718908175340003e-05 0.0000000000000000e+00  -3.1447349791370462e-05 5.5531355062906628e-05 0.0000000000000000e+00  -3.8830213900940078e-05 7.5565948834588657e-05 0.0000000000000000e+00  -4.6313806742581079e-05 9.8641545607632661e-05 0.0000000000000000e+00  -5.3883840210318928e-05 1.2509857709723968e-04 0.0000000000000000e+00  -6.1247437751694422e-05 1.5499104393469309e-04 0.0000000000000000e+00  -6.8203198982512688e-05 1.8799485950386031e-04 0.0000000000000000e+00  -7.4709597572381043e-05 2.2388103195639618e-04 0.0000000000000000e+00  -8.0683983571003831e-05 2.6239449636140022e-04 0.0000000000000000e+00  -5.3335338399763133e-06 8.4974705391360211e-06 0.0000000000000000e+00  0.0000000000000000e+00 0.0000000000000000e+00 0.0000000000000000e+00  -1.1456576627244592e-05 1.8319758232678401e-05 0.0000000000000000e+00  -1.8352476516996285e-05 2.9934244744368786e-05 0.0000000000000000e+00  -2.5915198836730580e-05 4.3905232765072083e-05 0.0000000000000000e+00  -3.3942616408673197e-05 6.0999043776465353e-05 0.0000000000000000e+00  -4.2104512895630239e-05 8.1046703211254224e-05 0.0000000000000000e+00  -5.0324733433633144e-05 1.0403479095101072e-04 0.0000000000000000e+00  -5.8541839198737683e-05 1.3007563474197830e-04 0.0000000000000000e+00  -6.6592024100054528e-05 1.5914306258860508e-04 0.0000000000000000e+00  -7.4311924402587165e-05 1.9105711446767610e-04 0.0000000000000000e+00  -8.1605633365044075e-05 2.2562728255336745e-04 0.0000000000000000e+00  -8.8394543379284799e-05 2.6259545187804547e-04 0.0000000000000000e+00  -9.4617714850620463e-05 3.0159614854815219e-04 0.0000000000000000e+00  -5.9243250131898389e-06 9.6715851862800462e-06 0.0000000000000000e+00  0.0000000000000000e+00 0.0000000000000000e+00 0.0000000000000000e+00  -1.2581227386909329e-05 2.0707224851304273e-05 0.0000000000000000e+00  -1.9950474209538838e-05 3.3455807740582893e-05 0.0000000000000000e+00  -2.7945328129474825e-05 4.8345612700080096e-05 0.0000000000000000e+00  -3.6396531027820724e-05 6.5832987448997423e-05 0.0000000000000000e+00  -4.5067286535633186e-05 8.5965977783738112e-05 0.0000000000000000e+00  -5.3823021593577982e-05 1.0880681086373023e-04 0.0000000000000000e+00  -6.2554088008138440e-05 1.3441371206374808e-04 0.0000000000000000e+00  -7.1128255034938779e-05 1.6274595830521101e-04 0.0000000000000000e+00  -7.9417616624205989e-05 1.9367564730697021e-04 0.0000000000000000e+00  -8.7323849708085798e-05 2.2704076975112484e-04 0.0000000000000000e+00  -9.4770584293043625e-05 2.6261707732077574e-04 0.0000000000000000e+00  -1.0171035582838808e-04 3.0011381349284727e-04 0.0000000000000000e+00  -1.0813937609154554e-04 3.3922729441802321e-04 0.0000000000000000e+00  -6.5153841022747077e-06 1.0756231029912173e-05 0.0000000000000000e+00  0.0000000000000000e+00 0.0000000000000000e+00 0.0000000000000000e+00  -1.3701121895767834e-05 2.2840590481156539e-05 0.0000000000000000e+00  -2.1519902257105622e-05 3.6532253265335518e-05 0.0000000000000000e+00  -2.9890596301103849e-05 5.2157457403373419e-05 0.0000000000000000e+00  -3.8675831151019366e-05 7.0025776922326503e-05 0.0000000000000000e+00  -4.7700174783951940e-05 9.0256906716611987e-05 0.0000000000000000e+00  -5.6825856271766835e-05 1.1294075280359133e-04 0.0000000000000000e+00  -6.5930375713856118e-05 1.3812522844127611e-04 0.0000000000000000e+00  -7.4892496948509470e-05 1.6578022904641825e-04 0.0000000000000000e+00  -8.3602525285934612e-05 1.9580999825363882e-04 0.0000000000000000e+00  -9.1971042478786796e-05 2.2807747006602357e-04 0.0000000000000000e+00  -9.9929265942955915e-05 2.6239505742454733e-04 0.0000000000000000e+00  -1.0743665730676020e-04 2.9852973286493162e-04 0.0000000000000000e+00  -1.1448892599988562e-04 3.3623296354397963e-04 0.0000000000000000e+00  -1.2111792996466601e-04 3.7525474611979301e-04 0.0000000000000000e+00  -7.0625275396683545e-06 1.1747225780783001e-05 0.0000000000000000e+00  0.0000000000000000e+00 0.0000000000000000e+00 0.0000000000000000e+00  -1.4727850211692183e-05 2.4736864716640738e-05 0.0000000000000000e+00  -2.2944532303326636e-05 3.9207345445016212e-05 0.0000000000000000e+00  -3.1634279080485666e-05 5.5419302780414204e-05 0.0000000000000000e+00  -4.0683729566275126e-05 7.3608563720482543e-05 0.0000000000000000e+00  -4.9956857741281099e-05 9.3913116447879829e-05 0.0000000000000000e+00  -5.9329455156136516e-05 1.1643053409282354e-04 0.0000000000000000e+00  -6.8685080760966339e-05 1.4120917755641808e-04 0.0000000000000000e+00  -7.7913675537542149e-05 1.6823377121910431e-04 0.0000000000000000e+00  -8.6917996925748301e-05 1.9743382102089909e-04 0.0000000000000000e+00  -9.5618079772904420e-05 2.2869674480567945e-04 0.0000000000000000e+00  -1.0395316915118422e-04 2.6186827938320413e-04 0.0000000000000000e+00  -1.1188728553591945e-04 2.9676052650257371e-04 0.0000000000000000e+00  -1.1941421834171480e-04 3.3317093243464733e-04 0.0000000000000000e+00  -1.2655825369548425e-04 3.7089633386589723e-04 0.0000000000000000e+00  -1.3337429083906842e-04 4.0974941390107883e-04 0.0000000000000000e+00  -7.5462817361137081e-06 1.2636437810686502e-05 0.0000000000000000e+00  0.0000000000000000e+00 0.0000000000000000e+00 0.0000000000000000e+00  -1.5623744291224209e-05 2.6400591977184220e-05 0.0000000000000000e+00  -2.4172597202542937e-05 4.1507891152901791e-05 0.0000000000000000e+00  -3.3117743345483720e-05 5.8179940782663923e-05 0.0000000000000000e+00  -4.2363503970913871e-05 7.6613858539952232e-05 0.0000000000000000e+00  -5.1800592234776430e-05 9.6948369305368385e-05 0.0000000000000000e+00  -6.1322165154687215e-05 1.1928170831339940e-04 0.0000000000000000e+00  -7.0825165105538386e-05 1.4366503519417392e-04 0.0000000000000000e+00  -8.0212769345553421e-05 1.7009620493384906e-04 0.0000000000000000e+00  -8.9399345642918450e-05 1.9852505074253917e-04 0.0000000000000000e+00  -9.8313896151483064e-05 2.2886157771341328e-04 0.0000000000000000e+00  -1.0690239157088643e-04 2.6098026716127082e-04 0.0000000000000000e+00  -1.1513152825971716e-04 2.9472870909833275e-04 0.0000000000000000e+00  -1.2299178714476292e-04 3.2994130198123320e-04 0.0000000000000000e+00  -1.3049798778406627e-04 3.6645180602462541e-04 0.0000000000000000e+00  -1.3768837509813312e-04 4.0410742770137541e-04 0.0000000000000000e+00  -1.4462113818724777e-04 4.4278496077361908e-04 0.0000000000000000e+00  -7.9584937985200764e-06 1.3416706504264160e-05 0.0000000000000000e+00  0.0000000000000000e+00 0.0000000000000000e+00 0.0000000000000000e+00  -1.6373564200964320e-05 2.7831745153066188e-05 0.0000000000000000e+00  -2.5182003057717691e-05 4.3448787843588052e-05 0.0000000000000000e+00  -3.4313077442200617e-05 6.0467945857851896e-05 0.0000000000000000e+00  -4.3685033188155064e-05 7.9066033519174258e-05 0.0000000000000000e+00  -5.3208438774516350e-05 9.9378556330765591e-05 0.0000000000000000e+00  -6.2793651066812950e-05 1.2150290886641730e-04 0.0000000000000000e+00  -7.2353012020496852e-05 1.4549338924014184e-04 0.0000000000000000e+00  -8.1803762524282231e-05 1.7135829956689932e-04 0.0000000000000000e+00  -9.1071849975210586e-05 1.9906344951350202e-04 0.0000000000000000e+00  -1.0009483841516387e-04 2.2853804168047591e-04 0.0000000000000000e+00  -1.0882417213394261e-04 2.5968017160558015e-04 0.0000000000000000e+00  -1.1722774118288118e-04 2.9236503449391597e-04 0.0000000000000000e+00  -1.2529169143389552e-04 3.2645569031406472e-04 0.0000000000000000e+00  -1.3302053286850553e-04 3.6181375255035959e-04 0.0000000000000000e+00  -1.4043563202314940e-04 3.9831069687582411e-04 0.0000000000000000e+00  -1.4757132097885207e-04 4.3583920106639800e-04 0.0000000000000000e+00  -1.5446761951545799e-04 4.7432185761552600e-04 0.0000000000000000e+00  -8.2962990898722992e-06 1.4082354878421883e-05 0.0000000000000000e+00  0.0000000000000000e+00 0.0000000000000000e+00 0.0000000000000000e+00  -1.6972093799134244e-05 2.9028018498937524e-05 0.0000000000000000e+00  -2.5964326799920479e-05 4.5036515100132334e-05 0.0000000000000000e+00  -3.5207937010517466e-05 6.2297973678269471e-05 0.0000000000000000e+00  -4.4633322184180909e-05 8.0979661779817034e-05 0.0000000000000000e+00  -5.4167405145723229e-05 1.0121472187132599e-04 0.0000000000000000e+00  -6.3736769629534027e-05 1.2310025520594940e-04 0.0000000000000000e+00  -7.3269204679203537e-05 1.4669358066940645e-04 0.0000000000000000e+00  -8.2695900629687480e-05 1.7201092976322729e-04 0.0000000000000000e+00  -9.1954144819461362e-05 1.9903017065752064e-04 0.0000000000000000e+00  -1.0098962602579094e-04 2.2769562480328065e-04 0.0000000000000000e+00  -1.0975836100915752e-04 2.5792371647507742e-04 0.0000000000000000e+00  -1.1822848358329727e-04 2.8961043641228775e-04 0.0000000000000000e+00  -1.2638130236956375e-04 3.2264019193666558e-04 0.0000000000000000e+00  -1.3421107624366288e-04 3.5689471453292747e-04 0.0000000000000000e+00  -1.4172332713072858e-04 3.9226189074384758e-04 0.0000000000000000e+00  -1.4893120814291587e-04 4.2864362083486120e-04 0.0000000000000000e+00  -1.5584953340528934e-04 4.6596069943867057e-04 0.0000000000000000e+00  -8.5592483285146158e-06 1.4628503003904202e-05 0.0000000000000000e+00  0.0000000000000000e+00 0.0000000000000000e+00 0.0000000000000000e+00  -1.7418393321051525e-05 2.9985107151344812e-05 0.0000000000000000e+00  -2.6517022193158261e-05 4.6270980114051655e-05 0.0000000000000000e+00  -3.5797090334633236e-05 6.3674295137954441e-05 0.0000000000000000e+00  -4.5200734520697230e-05 8.2359843349493093e-05 0.0000000000000000e+00  -5.4669767982433054e-05 1.0246067775740711e-04 0.0000000000000000e+00  -6.4146293330792292e-05 1.2407467811646690e-04 0.0000000000000000e+00  -7.3573139110968304e-05 1.4726185054003547e-04 0.0000000000000000e+00  -8.2894994160661613e-05 1.7204405497620243e-04 0.0000000000000000e+00  -9.2060050626846542e-05 1.9840760756601711e-04 0.0000000000000000e+00  -1.0102164267612747e-04 2.2630770544970419e-04 0.0000000000000000e+00  -1.0973973919623565e-04 2.5567395443748146e-04 0.0000000000000000e+00  -1.1818221842158101e-04 2.8641712520577345e-04 0.0000000000000000e+00  -1.2632552227878854e-04 3.1843664861602169e-04 0.0000000000000000e+00  -1.3415432363541175e-04 3.5162801719387083e-04 0.0000000000000000e+00  -1.4165999517721343e-04 3.8588965333533450e-04 0.0000000000000000e+00  -1.4883760591156582e-04 4.2112837484627966e-04 0.0000000000000000e+00  -1.5568134606131964e-04 4.5726206038516459e-04 0.0000000000000000e+00  -8.7478422122311601e-06 1.5050169759166898e-05 0.0000000000000000e+00  0.0000000000000000e+00 0.0000000000000000e+00 0.0000000000000000e+00  -1.7712923845910067e-05 3.0696219444269002e-05 0.0000000000000000e+00  -2.6839325335722651e-05 4.7146141687653681e-05 0.0000000000000000e+00  -3.6077502084810807e-05 6.4592442998387953e-05 0.0000000000000000e+00  -4.5381911205581784e-05 8.3202694148639997e-05 0.0000000000000000e+00  -5.4709141299399001e-05 1.0311229714959653e-04 0.0000000000000000e+00  -6.4016697583119624e-05 1.2442083845364647e-04 0.0000000000000000e+00  -7.3262205473161954e-05 1.4719037124866975e-04 0.0000000000000000e+00  -8.2403444540898060e-05 1.7144609303242758e-04 0.0000000000000000e+00  -9.1399053586863717e-05 1.9717929376365375e-04 0.0000000000000000e+00  -1.0020954658283860e-04 2.2435183897431227e-04 0.0000000000000000e+00  -1.0879840623042995e-04 2.5290163885015034e-04 0.0000000000000000e+00  -1.1713304394357732e-04 2.8274889191497068e-04 0.0000000000000000e+00  -1.2518530391173553e-04 3.1380263271673725e-04 0.0000000000000000e+00  -1.3293123635506579e-04 3.4596697295411773e-04 0.0000000000000000e+00  -1.4034996138007465e-04 3.7914653358490241e-04 0.0000000000000000e+00  -1.4742148252837854e-04 4.1325033815847858e-04 0.0000000000000000e+00  -1.5412348360265896e-04 4.4819322386183401e-04 0.0000000000000000e+00  -1.6042746822871284e-04 4.8389390799142358e-04 0.0000000000000000e+00  -8.8626996877192649e-06 1.5341391181469163e-05 0.0000000000000000e+00  0.0000000000000000e+00 0.0000000000000000e+00 0.0000000000000000e+00  -1.7855908641081773e-05 3.1151212099321762e-05 0.0000000000000000e+00  -2.6929808237175632e-05 4.7649759729692796e-05 0.0000000000000000e+00  -3.6045181467350029e-05 6.5039594513659668e-05 0.0000000000000000e+00  -4.5170257470383436e-05 8.3495457925123791e-05 0.0000000000000000e+00  -5.4277316564912287e-05 1.0315725211785082e-04 0.0000000000000000e+00  -6.3339807541684928e-05 1.2412672373350773e-04 0.0000000000000000e+00  -7.2330278378534044e-05 1.4646685250332880e-04 0.0000000000000000e+00  -8.1219384886159818e-05 1.7020365064286747e-04 0.0000000000000000e+00  -8.9975823128689617e-05 1.9532985725063129e-04 0.0000000000000000e+00  -9.8566856506197704e-05 2.2180984409131586e-04 0.0000000000000000e+00  -1.0695913361226482e-04 2.4958522091507316e-04 0.0000000000000000e+00  -1.1511951492488988e-04 2.7858081482805817e-04 0.0000000000000000e+00  -1.2301562074867460e-04 3.0871061075532426e-04 0.0000000000000000e+00  -1.3061587832561482e-04 3.3988318040018884e-04 0.0000000000000000e+00  -1.3788893064887062e-04 3.7200614071700340e-04 0.0000000000000000e+00  -1.4480234307253292e-04 4.0498907164773676e-04 0.0000000000000000e+00  -1.5132069090471780e-04 4.3874426549328054e-04 0.0000000000000000e+00  -1.5740332557981563e-04 4.7318482339877866e-04 0.0000000000000000e+00  -1.6300230491630351e-04 5.0822004090939022e-04 0.0000000000000000e+00  -8.9039859839404923e-06 1.5494330126019055e-05 0.0000000000000000e+00  0.0000000000000000e+00 0.0000000000000000e+00 0.0000000000000000e+00  -1.7846158412924944e-05 3.1335401966689613e-05 0.0000000000000000e+00  -2.6784560336730730e-05 4.7762440458552038e-05 0.0000000000000000e+00  -3.5692773720696537e-05 6.4994038767795853e-05 0.0000000000000000e+00  -4.4555177657761667e-05 8.3216116448422124e-05 0.0000000000000000e+00  -5.3361570263377616e-05 1.0257471194446445e-04 0.0000000000000000e+00  -6.2102505956190433e-05 1.2317345670954260e-04 0.0000000000000000e+00  -7.0765944085810739e-05 1.4507443784564153e-04 0.0000000000000000e+00  -7.9335378053885870e-05 1.6830148911803954e-04 0.0000000000000000e+00  -8.7789218933428172e-05 1.9284503937086104e-04 0.0000000000000000e+00  -9.6101042003052085e-05 2.1866777297883261e-04 0.0000000000000000e+00  -1.0424030984779920e-04 2.4571059950145743e-04 0.0000000000000000e+00  -1.1217324036450786e-04 2.7389860915720299e-04 0.0000000000000000e+00  -1.1986355066773059e-04 3.0314669183620379e-04 0.0000000000000000e+00  -1.2727289466177169e-04 3.3336446563800163e-04 0.0000000000000000e+00  -1.3436089527633414e-04 3.6446013927040867e-04 0.0000000000000000e+00  -1.4108474946856035e-04 3.9634287965950409e-04 0.0000000000000000e+00  -1.4739849669043336e-04 4.2892327086133374e-04 0.0000000000000000e+00  -1.5325218251155420e-04 4.6211159928625882e-04 0.0000000000000000e+00  -1.5859126471050078e-04 4.9581398040873640e-04 0.0000000000000000e+00  -1.6335666411649799e-04 5.2992659967526453e-04 0.0000000000000000e+00  -8.8708813137471647e-06 1.5498254575387080e-05 0.0000000000000000e+00  0.0000000000000000e+00 0.0000000000000000e+00 0.0000000000000000e+00  -1.7679913886905569e-05 3.1227942792502682e-05 0.0000000000000000e+00  -2.6395390785501043e-05 4.7455991128838315e-05 0.0000000000000000e+00  -3.5007241288705703e-05 6.44238909