<?xml version="1.0"?>
<VTKFile type="UnstructuredGrid"  version="0.1"  >
<UnstructuredGrid>
<Piece  NumberOfPoints="621" NumberOfCells="1125">
<Points>
<DataArray  type="Float64"  NumberOfComponents="3"  format="ascii">1.883478260869565 0 0  1.9 0 0  1.9 0.01666666666666667 0  1.883478260869565 0.01666666666666667 0  1.916521739130435 0 0  1.916521739130435 0.01666666666666667 0  1.933043478260869 0 0  1.933043478260869 0.01666666666666667 0  1.949565217391304 0 0  1.949565217391304 0.01666666666666667 0  1.966086956521739 0 0  1.966086956521739 0.01666666666666667 0  1.982608695652174 0 0  1.982608695652174 0.01666666666666667 0  1.999130434782608 0 0  1.999130434782608 0.01666666666666667 0  2.015652173913043 0 0  2.015652173913043 0.01666666666666667 0  2.032173913043478 0 0  2.032173913043478 0.01666666666666667 0  2.048695652173913 0 0  2.048695652173913 0.01666666666666667 0  2.065217391304348 0 0  2.065217391304348 0.01666666666666667 0  2.081739130434782 0 0  2.081739130434782 0.01666666666666667 0  2.098260869565217 0 0  2.098260869565217 0.01666666666666667 0  2.114782608695652 0 0  2.114782608695652 0.01666666666666667 0  2.131304347826087 0 0  2.131304347826087 0.01666666666666667 0  2.147826086956522 0 0  2.147826086956522 0.01666666666666667 0  2.164347826086956 0 0  2.164347826086956 0.01666666666666667 0  2.180869565217391 0 0  2.180869565217391 0.01666666666666667 0  2.197391304347826 0 0  2.197391304347826 0.01666666666666667 0  2.213913043478261 0 0  2.213913043478261 0.01666666666666667 0  2.230434782608695 0 0  2.230434782608695 0.01666666666666667 0  2.24695652173913 0 0  2.24695652173913 0.01666666666666667 0  2.263478260869565 0 0  2.263478260869565 0.01666666666666667 0  2.28 0 0  2.28 0.01666666666666667 0  2.296521739130434 0 0  2.296521739130434 0.01666666666666667 0  2.31304347826087 0 0  2.31304347826087 0.01666666666666667 0  2.329565217391304 0 0  2.329565217391304 0.01666666666666667 0  2.346086956521739 0 0  2.346086956521739 0.01666666666666667 0  2.362608695652174 0 0  2.362608695652174 0.01666666666666667 0  2.379130434782609 0 0  2.379130434782609 0.01666666666666667 0  2.395652173913044 0 0  2.395652173913044 0.01666666666666667 0  2.412173913043478 0 0  2.412173913043478 0.01666666666666667 0  2.428695652173913 0 0  2.428695652173913 0.01666666666666667 0  2.445217391304348 0 0  2.445217391304348 0.01666666666666667 0  2.461739130434782 0 0  2.461739130434782 0.01666666666666667 0  2.478260869565217 0 0  2.478260869565217 0.01666666666666667 0  2.494782608695652 0 0  2.494782608695652 0.01666666666666667 0  2.511304347826087 0 0  2.511304347826087 0.01666666666666667 0  2.527826086956522 0 0  2.527826086956522 0.01666666666666667 0  2.544347826086956 0 0  2.544347826086956 0.01666666666666667 0  2.560869565217391 0 0  2.560869565217391 0.01666666666666667 0  2.577391304347826 0 0  2.577391304347826 0.01666666666666667 0  1.916521739130435 0.03333333333333333 0  1.933043478260869 0.03333333333333333 0  1.949565217391304 0.03333333333333333 0  1.966086956521739 0.03333333333333333 0  1.982608695652174 0.03333333333333333 0  1.999130434782608 0.03333333333333333 0  2.015652173913043 0.03333333333333333 0  2.032173913043478 0.03333333333333333 0  2.048695652173913 0.03333333333333333 0  2.065217391304348 0.03333333333333333 0  2.081739130434782 0.03333333333333333 0  2.098260869565217 0.03333333333333333 0  2.114782608695652 0.03333333333333333 0  2.131304347826087 0.03333333333333333 0  2.147826086956522 0.03333333333333333 0  2.164347826086956 0.03333333333333333 0  2.180869565217391 0.03333333333333333 0  2.197391304347826 0.03333333333333333 0  2.213913043478261 0.03333333333333333 0  2.230434782608695 0.03333333333333333 0  2.24695652173913 0.03333333333333333 0  2.263478260869565 0.03333333333333333 0  2.28 0.03333333333333333 0  2.296521739130434 0.03333333333333333 0  2.31304347826087 0.03333333333333333 0  2.329565217391304 0.03333333333333333 0  2.346086956521739 0.03333333333333333 0  2.362608695652174 0.03333333333333333 0  2.379130434782609 0.03333333333333333 0  2.395652173913044 0.03333333333333333 0  2.412173913043478 0.03333333333333333 0  2.428695652173913 0.03333333333333333 0  2.445217391304348 0.03333333333333333 0  2.461739130434782 0.03333333333333333 0  2.478260869565217 0.03333333333333333 0  2.494782608695652 0.03333333333333333 0  2.511304347826087 0.03333333333333333 0  2.527826086956522 0.03333333333333333 0  2.544347826086956 0.03333333333333333 0  2.560869565217391 0.03333333333333333 0  2.577391304347826 0.03333333333333333 0  2.593913043478261 0.03333333333333333 0  1.933043478260869 0.05 0  1.949565217391304 0.05 0  1.966086956521739 0.05 0  1.982608695652174 0.05 0  1.999130434782608 0.05 0  2.015652173913043 0.05 0  2.032173913043478 0.05 0  2.048695652173913 0.05 0  2.065217391304348 0.05 0  2.081739130434782 0.05 0  2.098260869565217 0.05 0  2.114782608695652 0.05 0  2.131304347826087 0.05 0  2.147826086956522 0.05 0  2.164347826086956 0.05 0  2.180869565217391 0.05 0  2.197391304347826 0.05 0  2.213913043478261 0.05 0  2.230434782608695 0.05 0  2.24695652173913 0.05 0  2.263478260869565 0.05 0  2.28 0.05 0  2.296521739130434 0.05 0  2.31304347826087 0.05 0  2.329565217391304 0.05 0  2.346086956521739 0.05 0  2.362608695652174 0.05 0  2.379130434782609 0.05 0  2.395652173913044 0.05 0  2.412173913043478 0.05 0  2.428695652173913 0.05 0  2.445217391304348 0.05 0  2.461739130434782 0.05 0  2.478260869565217 0.05 0  2.494782608695652 0.05 0  2.511304347826087 0.05 0  2.527826086956522 0.05 0  2.544347826086956 0.05 0  2.560869565217391 0.05 0  2.577391304347826 0.05 0  2.593913043478261 0.05 0  2.610434782608696 0.05 0  1.949565217391304 0.06666666666666667 0  1.966086956521739 0.06666666666666667 0  1.982608695652174 0.06666666666666667 0  1.999130434782608 0.06666666666666667 0  2.015652173913043 0.06666666666666667 0  2.032173913043478 0.06666666666666667 0  2.048695652173913 0.06666666666666667 0  2.065217391304348 0.06666666666666667 0  2.081739130434782 0.06666666666666667 0  2.098260869565217 0.06666666666666667 0  2.114782608695652 0.06666666666666667 0  2.131304347826087 0.06666666666666667 0  2.147826086956522 0.06666666666666667 0  2.164347826086956 0.06666666666666667 0  2.180869565217391 0.06666666666666667 0  2.197391304347826 0.06666666666666667 0  2.213913043478261 0.06666666666666667 0  2.230434782608695 0.06666666666666667 0  2.24695652173913 0.06666666666666667 0  2.263478260869565 0.06666666666666667 0  2.28 0.06666666666666667 0  2.296521739130434 0.06666666666666667 0  2.31304347826087 0.06666666666666667 0  2.329565217391304 0.06666666666666667 0  2.346086956521739 0.06666666666666667 0  2.362608695652174 0.06666666666666667 0  2.379130434782609 0.06666666666666667 0  2.395652173913044 0.06666666666666667 0  2.412173913043478 0.06666666666666667 0  2.428695652173913 0.06666666666666667 0  2.445217391304348 0.06666666666666667 0  2.461739130434782 0.06666666666666667 0  2.478260869565217 0.06666666666666667 0  2.494782608695652 0.06666666666666667 0  2.511304347826087 0.06666666666666667 0  2.527826086956522 0.06666666666666667 0  2.544347826086956 0.06666666666666667 0  2.560869565217391 0.06666666666666667 0  2.577391304347826 0.06666666666666667 0  2.593913043478261 0.06666666666666667 0  2.610434782608696 0.06666666666666667 0  2.62695652173913 0.06666666666666667 0  1.966086956521739 0.08333333333333333 0  1.982608695652174 0.08333333333333333 0  1.999130434782608 0.08333333333333333 0  2.015652173913043 0.08333333333333333 0  2.032173913043478 0.08333333333333333 0  2.048695652173913 0.08333333333333333 0  2.065217391304348 0.08333333333333333 0  2.081739130434782 0.08333333333333333 0  2.098260869565217 0.08333333333333333 0  2.114782608695652 0.08333333333333333 0  2.131304347826087 0.08333333333333333 0  2.147826086956522 0.08333333333333333 0  2.164347826086956 0.08333333333333333 0  2.180869565217391 0.08333333333333333 0  2.197391304347826 0.08333333333333333 0  2.213913043478261 0.08333333333333333 0  2.230434782608695 0.08333333333333333 0  2.24695652173913 0.08333333333333333 0  2.263478260869565 0.08333333333333333 0  2.28 0.08333333333333333 0  2.296521739130434 0.08333333333333333 0  2.31304347826087 0.08333333333333333 0  2.329565217391304 0.08333333333333333 0  2.346086956521739 0.08333333333333333 0  2.362608695652174 0.08333333333333333 0  2.379130434782609 0.08333333333333333 0  2.395652173913044 0.08333333333333333 0  2.412173913043478 0.08333333333333333 0  2.428695652173913 0.08333333333333333 0  2.445217391304348 0.08333333333333333 0  2.461739130434782 0.08333333333333333 0  2.478260869565217 0.08333333333333333 0  2.494782608695652 0.08333333333333333 0  2.511304347826087 0.08333333333333333 0  2.527826086956522 0.08333333333333333 0  2.544347826086956 0.08333333333333333 0  2.560869565217391 0.08333333333333333 0  2.577391304347826 0.08333333333333333 0  2.593913043478261 0.08333333333333333 0  2.610434782608696 0.08333333333333333 0  2.62695652173913 0.08333333333333333 0  2.643478260869565 0.08333333333333333 0  1.982608695652174 0.1 0  1.999130434782608 0.1 0  2.015652173913043 0.1 0  2.032173913043478 0.1 0  2.048695652173913 0.1 0  2.065217391304348 0.1 0  2.081739130434782 0.1 0  2.098260869565217 0.1 0  2.114782608695652 0.1 0  2.131304347826087 0.1 0  2.147826086956522 0.1 0  2.164347826086956 0.1 0  2.180869565217391 0.1 0  2.197391304347826 0.1 0  2.213913043478261 0.1 0  2.230434782608695 0.1 0  2.24695652173913 0.1 0  2.263478260869565 0.1 0  2.28 0.1 0  2.296521739130434 0.1 0  2.31304347826087 0.1 0  2.329565217391304 0.1 0  2.346086956521739 0.1 0  2.362608695652174 0.1 0  2.379130434782609 0.1 0  2.395652173913044 0.1 0  2.412173913043478 0.1 0  2.428695652173913 0.1 0  2.445217391304348 0.1 0  2.461739130434782 0.1 0  2.478260869565217 0.1 0  2.494782608695652 0.1 0  2.511304347826087 0.1 0  2.527826086956522 0.1 0  2.544347826086956 0.1 0  2.560869565217391 0.1 0  2.5773
[...]
<CellData  Scalars="rho_bar"> 
<DataArray  type="Float64"  Name="rho_bar"  format="ascii">9.9674950128078821e-01   9.9199833465733689e-01   9.9716511352644399e-01   9.9330688654093557e-01   9.9730397402044457e-01   9.9385833687710834e-01   9.9724928659963097e-01   9.9385433740979690e-01   9.9710404536901653e-01   9.9354184108710453e-01   9.9696209450834883e-01   9.9316503685835600e-01   9.9688893737756290e-01   9.9291328766721099e-01   9.9690059810682341e-01   9.9287042303562523e-01   9.9697144205310817e-01   9.9300219314214566e-01   9.9706528143575990e-01   9.9321949745902349e-01   9.9714915423674677e-01   9.9343753946100744e-01   9.9719949602355640e-01   9.9359029223516937e-01   9.9721453377956859e-01   9.9365180832689048e-01   9.9721503658994026e-01   9.9365401711838031e-01   9.9722546732600836e-01   9.9365923254984001e-01   9.9726314011518302e-01   9.9371868988884149e-01   9.9733033959565121e-01   9.9385336801149060e-01   9.9740861036906037e-01   9.9403770815485559e-01   9.9746597432003803e-01   9.9420332300049363e-01   9.9747242338278141e-01   9.9427078376309452e-01   9.9741881582210257e-01   9.9419316510002265e-01   9.9733428148506331e-01   9.9400083975884257e-01   9.9728873189832412e-01   9.9382857315989748e-01   9.9734906831737946e-01   9.9385853271897251e-01   9.9752541305475317e-01   9.9418060976654965e-01   9.9775835078882313e-01   9.9470960282896781e-01   9.9795903566088873e-01   9.9524389209384756e-01   9.9804673146540557e-01   9.9557902558907374e-01   9.9794050290908864e-01   9.9553307688370030e-01   9.9751653876132063e-01   9.9486095981410139e-01   9.9657732294990276e-01   9.9312368507024873e-01   9.9513225477892309e-01   9.8989830529738287e-01   9.9474115659659335e-01   9.8711546431711616e-01   9.9714724823764911e-01   9.9036300617441686e-01   9.9936118077870473e-01   9.9695409090003362e-01   9.9992506923763236e-01   9.9959799810871941e-01   9.9999263920344728e-01   9.9996635231671427e-01   9.9999896945347255e-01   9.9999668706852873e-01   9.9999965037018057e-01   9.9999929437964197e-01   9.9999959418617668e-01   9.9999947305950820e-01   9.9999844905349600e-01   9.9999847859486968e-01   9.9998662590059639e-01   9.9998792086075317e-01   7.2675224338164324e-01   7.2988985965034625e-01   3.4922682724719117e-01   7.2332330631567010e-01   3.4603754822281335e-01   7.1386852118631650e-01   3.3641054297956741e-01   7.0634579493712657e-01   3.2690348480950249e-01   7.0296959288707583e-01   3.2106183813875699e-01   7.0378181583267918e-01   3.1988483599294942e-01   7.0714870397802532e-01   3.2233613436748781e-01   7.1149079836805806e-01   3.2656975877796690e-01   7.1541058898865406e-01   3.3103035557567340e-01   7.1746882322530803e-01   3.3420451507504711e-01   7.1736156253618055e-01   3.3508705474548495e-01   7.1654283767505256e-01   3.3435133402092826e-01   7.1643416164806673e-01   3.3369032671746740e-01   7.1792614055296466e-01   3.3435342243009541e-01   7.2137563745308941e-01   3.3701666365585775e-01   7.2593224744027918e-01   3.4144291970513885e-01   7.2962323026491249e-01   3.4605936550415312e-01   7.3017243778517338e-01   3.4843660962187728e-01   7.2663071365385301e-01   3.4669000003348216e-01   7.2077606529158267e-01   3.4128338660119711e-01   7.1705990866830860e-01   3.3574933043769128e-01   7.1937139086521362e-01   3.3480432432673957e-01   7.2905432010360571e-01   3.4138094727146095e-01   7.4420282328127552e-01   3.5535793863335652e-01   7.5989133454668256e-01   3.7321987373627646e-01   7.6974761198790409e-01   3.8857566571215696e-01   7.6689057019742268e-01   3.9319054243880824e-01   7.4539617386088675e-01   3.7934899050679899e-01   7.0589573362638369e-01   3.4576267733719934e-01   6.6148781253231903e-01   3.0133616093378501e-01   6.4300769724324858e-01   2.6564255318398294e-01   7.0589906998391139e-01   2.8401217894956732e-01   8.9326062563037611e-01   4.5006389435807659e-01   9.9278329736858351e-01   8.3845521147074908e-01   9.9974323774521523e-01   9.9242555388544396e-01   9.9998422016160571e-01   9.9976830224087121e-01   9.9999611432843416e-01   9.9997917167246431e-01   9.9999377971089587e-01   9.9998484831454948e-01   9.9994603559122952e-01   9.9990416216393152e-01   9.9878866032958469e-01   9.9778841779084193e-01   9.4147980737367509e-01   4.0187287575482282e-03   3.6787996385257808e-03   3.1202211066031876e-04   3.2042962931794860e-03   2.6723982904567722e-04   2.8390620165618858e-03   2.2902870580073423e-04   2.6495605597294724e-03   2.0555577971140279e-04   2.6199689608649998e-03   1.9617698056100444e-04   2.6963861222419998e-03   1.9730783580420211e-04   2.8218681528152478e-03   2.0384998079623726e-04   2.9516707093332310e-03   2.1227191937599673e-04   3.0346777114924539e-03   2.1937307148069604e-04   3.0375746810404718e-03   2.2145366041765693e-04   2.9939848278229737e-03   2.1840125079917552e-04   2.9657209516618576e-03   2.1490560831345201e-04   2.9909128513966061e-03   2.1444372438373765e-04   3.0903595913209718e-03   2.1879090987899283e-04   3.2539615773701062e-03   2.2859952424022139e-04   3.4220485324746694e-03   2.4131060609353114e-04   3.4963902744188573e-03   2.5091265389009154e-04   3.4068260544751687e-03   2.5055691656838979e-04   3.1930536969762302e-03   2.3881667351729116e-04   3.0112733726254033e-03   2.2349351949702939e-04   3.0205643296037283e-03   2.1768031597382842e-04   3.3133208889954890e-03   2.3037237504731458e-04   3.9228786407570423e-03   2.6639103877376679e-04   4.7732665003172138e-03   3.2572995387022052e-04   5.5885971096736346e-03   3.9692575937471308e-04   5.8749477878533790e-03   4.5181100305015864e-04   5.1960518395564904e-03   4.5062651949936988e-04   3.7851597698135668e-03   3.7677596677326857e-04   2.5233115279036018e-03   2.7627332368776469e-04   2.1067615185171875e-03   2.2112781119184213e-04   3.6822059411351095e-03   2.9081333180399271e-04   2.1641978697083713e-02   1.0135263292882874e-03   2.5734209341982101e-01   1.2471351549013868e-02   8.3717189984692852e-01   2.5980017007881079e-01   9.9586178084201393e-01   8.6569639144371335e-01   9.9957190540617857e-01   9.9481241442294566e-01   9.9910226786649092e-01   9.9722445717207053e-01   9.8127730802352009e-01   9.6531525231874815e-01   7.1765445303102537e-01   5.9240525601137473e-01   3.0482473524991921e-01   1.7649160265669689e-01   1.0392498156178973e-02   3.0955145232288355e-07   2.4364375959355194e-07   4.0803741413464343e-08   1.9897338143781706e-07   3.1896254841049908e-08   1.7252472337784638e-07   2.6444630004303841e-08   1.5921508788226593e-07   2.3381054638689974e-08   1.5424962584072635e-07   2.1895873734504682e-08   1.5356772861685469e-07   2.1281453821409005e-08   1.5449638953353908e-07   2.1073071454491564e-08   1.5491422649301561e-07   2.0988114931193759e-08   1.5320473217839142e-07   2.0768075055984294e-08   1.4996375682918567e-07   2.0310622702209482e-08   1.4747860975957341e-07   1.9852429450351046e-08   1.4732957838899574e-07   1.9651220687736767e-08   1.5019759451913772e-07   1.9794327057084035e-08   1.5585143935588824e-07   2.0324929452438442e-08   1.6243596195897328e-07   2.1108143196298581e-08   1.6669824087767187e-07   2.1830046872025246e-08   1.6598341124699867e-07   2.2097790153274850e-08   1.6096146934763139e-07   2.1793384282394384e-08   1.5674598129640973e-07   2.1275153537040726e-08   1.6023303180586390e-07   2.1387626318129338e-08   1.7674723916856949e-07   2.2948336009243074e-08   2.0988394831370868e-07   2.6544240851652158e-08   2.6057726633850947e-07   3.2633658081371322e-08   3.2365760685437733e-07   4.1229060193659364e-08   3.8499427883661091e-07   5.1579132798185170e-08   4.2526451925669272e-07   6.2099355389403753e-08   4.4214351566096448e-07   7.1670328116724162e-08   4.8691247937308456e-07   8.4678778156099836e-08   7.3822328562160154e-07   1.2407397174489065e-07   2.1740494403436439e-06   3.0559160436408983e-07   1.6687023303328208e-05   1.7119915575366153e-06   3.9251548380222139e-04   2.7020919308099848e-05   2.5260434251925059e-02   1.2982288930628958e-03   5.7564088201616714e-01   1.1179958626236745e-01   9.6649361117898380e-01   8.0133416875325048e-01   9.4754500457755320e-01   9.1745999266178324e-01   5.1801442764012873e-01   5.5328106283659129e-01   4.5772592680375937e-02   5.0578322421993054e-02   8.2559367079801393e-04   7.5000508062702186e-04   2.7571273774192526e-05   1.8812382595064427e-05   1.2610661010992181e-06   4.1516517076030856e-10   3.0372237132721612e-10   9.3553192970219395e-11   2.3931503075521248e-10   6.9531325141980486e-11   2.0148600380724235e-10   5.5713396858910404e-11   1.7888765468931932e-10   4.7528323869154126e-11   1.6492005909067120e-10   4.2495849431981979e-11   1.5573902352924074e-10   3.9242118813713020e-11   1.4901235800834916e-10   3.6987320613709107e-11   1.4343587428911067e-10   3.5263690116120002e-11   1.3878383627504342e-10   3.3859683575461957e-11   1.3551327652609290e-10   3.2799568616681553e-11   1.3403358978258953e-10   3.2167666678499066e-11   1.3445245842606351e-10   3.1991039447139747e-11   1.3647743120811151e-10   3.2243957504007900e-11   1.3931809409821008e-10   3.2804527612858208e-11   1.4193893282943295e-10   3.3477091469317591e-11   1.4377949756709074e-10   3.4092395573281932e-11   1.4559666435450449e-10   3.4695885053892545e-11   1.4984985474697512e-10   3.5680107017081283e-11   1.6020043624997987e-10   3.7812910210395989e-11   1.8078367506705703e-10   4.2090692042862107e-11   2.1635937486053091e-10   4.9733957692884230e-11   2.7309367730173538e-10   6.2484314019191853e-11   3.6015893045693314e-10   8.3186189418308741e-11   4.9436157945059754e-10   1.1732548266252257e-10   7.1569202416318042e-10   1.7757108746370897e-10   1.1477941745200821e-09   3.0010356237101620e-10   2.2738058843193211e-09   6.1850362794343070e-10   6.6448683500031105e-09   1.8131162034714289e-09   3.5661035578208703e-08   9.3265058176417204e-09   4.3773562572827889e-07   1.0649281625048824e-07   1.5024556225225664e-05   3.4621707442801992e-06   1.5876555176733149e-03   3.7886643273251286e-04   1.8642110142522827e-01   6.3915435392835007e-02   8.1550413365589236e-01   7.1219382641952111e-01   8.4352621053106658e-01   9.3244043296398482e-01   1.6237256705841521e-01   5.1586002597989411e-01   1.8943463117672057e-03   1.1110502509020074e-02   2.1634731759404932e-05   6.7363648053301694e-05   6.0340942720227296e-07   1.1054361688892884e-06   4.2436774603619553e-08   4.9802977547530629e-08   5.2861927890557342e-09   5.9881266611938608e-12   4.1333325651038438e-12   2.0406454304122698e-12   3.1160444594983509e-12   1.4366008382893373e-12   2.5196696581038704e-12   1.1003142841303772e-12   2.1494010275328423e-12   8.9971548729768865e-13   1.9071318598425559e-12   7.7290951416841856e-13   1.7405521468560900e-12   6.8856031987252229e-13   1.6213326977284250e-12   6.2997755160646826e-13   1.5352719096028983e-12   5.8827017331471641e-13   1.4760785186733005e-12   5.5908055962561341e-13   1.4405051225926026e-12   5.4012350148013886e-13   1.4258964379602436e-12   5.2999271638043420e-13   1.4290790772975021e-12   5.2749471457502760e-13   1.4463245416133465e-12   5.3143600631244701e-13   1.4749220363559825e-12   5.4090065759737637e-13   1.5165924072135803e-12   5.5618472790304959e-13   1.5815867134468446e-12   5.7998975992272049e-13   1.6918873709433541e-12   6.1905110667244908e-13   1.8840577246474295e-12   6.8564598443288135e-13   2.2154685493565771e-12   8.0032277101812141e-13   2.7847724126672810e-12   9.9946902606025877e-13   3.7850833578545470e-12   1.3560911652869365e-12   5.6483429045073332e-12   2.0377033393970131e-12   9.4922218233743203e-12   3.4900138334847964e-12   1.8772317034176928e-11   7.1348482677535717e-12   4.6994130808997183e-11   1.8722976872590880e-11   1.6644666200882346e-10   7.0249361883156793e-11   9.6948364151453847e-10   4.3531724521391396e-10   1.1129199395387704e-08   5.2906450979476708e-09   3.1486390613307463e-07   1.5596746689531635e-07   2.9206875266159698e-05   1.4757887288996416e-05   7.8096187955414677e-03   3.9857825442856020e-03   4.4888623774570502e-01   3.2303936767270119e-01   9.4245539190033845e-01   9.4250866882356765e-01   9.7335825443516777e-01   9.9330835374855730e-01   5.5679854925531869e-01   9.4021504288225610e-01   6.8008772537760040e-03   1.5894160175562561e-01   2.5036808451913337e-05   4.5511816415431510e-04   3.0497192345565110e-07   2.1137297225489373e-06   1.0937043048997457e-08   3.7216475641995344e-08   9.2313310699291692e-10   1.8320019020319961e-09   1.9562346187385068e-10   4.0695224967635133e-13   2.6550058448056773e-13   1.8754442443480469e-13   1.9124516785022185e-13   1.2502036443133121e-13   1.4874212972415537e-13   9.1565643955959824e-14   1.2274440723084964e-13   7.2118237307942490e-14   1.0593378026631708e-13   6.0053813773682447e-14   9.4665016566371702e-14   5.2217489591536540e-14   8.6939714686688317e-14   4.6934678366028518e-14   8.1749422046565748e-14   4.3391216545766558e-14   7.8400249255613159e-14   4.1059748194053723e-14   7.6586884982058745e-14   3.9671969413272284e-14   7.6068780903900330e-14   3.9061346749728435e-14   7.6688655425982701e-14   3.9116857900959686e-14   7.8576034567845505e-14   3.9884762159658768e-14   8.1999222227106383e-14   4.1522341120980867e-14   8.7781633813695731e-14   4.4325654258159394e-14   9.7431322269396071e-14   4.9025598395739227e-14   1.1374234887284734e-13   5.6991448597424719e-14   1.4211779901055862e-13   7.0869236405239189e-14   1.9419651072401705e-13   9.6478380839926129e-14   2.9825216370700990e-13   1.4813150706061156e-13   5.3462789750824423e-13   2.6728619317850649e-13   1.1807869496986241e-12   6.0090821207836618e-13   3.4718894426077911e-12   1.8290091663430989e-12   1.5121163580526328e-11   8.4371306237803407e-12   1.1179857965319216e-10   6.7795158376071653e-11   1.6344757121829671e-09   1.0975071129681883e-09   5.4339564357445524e-08   4.0310828277230960e-08   4.6333439657024015e-06   3.6490384454542427e-06   9.8028575376201332e-04   7.4755075563298656e-04   1.7742866344181127e-01   1.3508113848560388e-01   8.4384788974131053e-01   8.0273296482300094e-01   9.9638444253354252e-01   9.9636458195962319e-01   9.9857864427737097e-01   9.9941959546958203e-01   9.7281136933953105e-01   9.9770711126738620e-01   2.9022122707279102e-01   8.5479647728519903e-01   8.2907722310393583e-04   4.4470891819368481e-02   2.6557503326104154e-06   8.8808688533947882e-05   3.2561899704353094e-08   4.0759341292847178e-07   1.1317071261599905e-09   6.4861866433396675e-09   8.7483983020793740e-11   2.7127078361388623e-10   2.4313560424242084e-11   1.6329530320528348e-14   1.4377388168895784e-14   1.0001259080164956e-14   1.3091379832038309e-14   8.9002879140783419e-15   1.2277216280646527e-14   8.1601392309949037e-15   1.1796119636642293e-14   7.7345537382219260e-15   1.1601830607332889e-14   7.5217609918354387e-15   1.1675845475641233e-14   7.4940054162198082e-15   1.2055171675721494e-14   7.6790425869906682e-15   1.2804572217343479e-14   8.0953762212251019e-15   1.4118336129816579e-14   8.9002879140783419e-15   1.6357285896143974e-14   1.0260311119244157e-14   2.0280073916486201e-14   1.2684298056342420e-14   2.7607545879012234e-14   1.7180701306074304e-14   4.2484534408989332e-14   2.6358544976308933e-14   7.7530574552990115e-14   4.8072656966269297e-14   1.7876441068172735e-13   1.1134611751136470e-13   5.7092293855494854e-13   3.6108153504225525e-13   2.8671417092359296e-12   1.8774889050850646e-12   2.6764581291989969e-11   1.8671786339297117e-11   5.6303318488974240e-10   4.3206447678893310e-10   3.1255298247693629e-08   2.7093665376047123e-08   3.8267760709420634e-06   3.8266205439063689e-06   6.5076551599993493e-04   7.0962687407606206e-04   8.1352598151489958e-02   8.1892262527492932e-02   6.7401788755152803e-01   6.3379392072648144e-01   9.9003842350505034e-01   9.8586110515821979e-01   9.9939741822334582e-01   9.9911265967231078e-01   9.9964224752857567e-01   9.9963043663242490e-01   9.9823686671244638e-01   9.9930337639959799e-01   9.2215985353147700e-01   9.9320015352329338e-01   1.3953222585107899e-01   6.9504236143576714e-01   3.5788685053894664e-04   2.3332647619468495e-02   1.1151149667173088e-06   6.2801928449809016e-05   1.0836867283166762e-08   2.3885114801743462e-07   2.9023237517004468e-10   2.5778048122019718e-09   1.8154043083621715e-11   7.7443773616181514e-11   5.6098274174113799e-12   4.8479738741965182e-15   4.2280993521141397e-15   3.4509432348765293e-15   3.8117657178797052e-15   3.0346096006420952e-15   3.5897211129546739e-15   2.7848094201014354e-15   3.4972025275692443e-15   2.6552834005618336e-15   3.5064543861077879e-15   2.6182759664076607e-15   3.6452322641859317e-15   2.7015426932545490e-15   3.9690473130349362e-15   2.9050835811024943e-15   4.5334106838860577e-15   3.3214172153369276e-15   5.5881225572799564e-15   4.0615658984203654e-15   7.5125091332968963e-15   5.4400928206632694e-15   1.1453800870716204e-14   8.2711615334574194e-15   2.0714911267797720e-14   1.4867736671438560e-14   4.7573056605187977e-14   3.3954320836452721e-14   1.5334030341781124e-13   1.0919043447188418e-13   8.0210837971606027e-13   5.7517879348267828e-13   8.3638281485794664e-12   6.1558258490634915e-12   2.2769640802463217e-10   1.7702999251708231e-10   2.0975327817233484e-08   1.7832967935671469e-08   5.0852166897374946e-06   4.9344861129304229e-06   1.2799394294098583e-03   1.4610292850870219e-03   1.0254214155822197e-01   1.2276552750800356e-01   6.0492815579000114e-01   6.2605454099915558e-01   9.6449150964497976e-01   9.5628559227201060e-01   9.9450808848501104e-01   9.8969152981192343e-01   9.9656017280541409e-01   9.9050318556608929e-01   9.9716210615794332e-01   9.9002956840362277e-01   9.9710617148417890e-01   9.9213894648832324e-01   9.9099324870300898e-01   9.9234945050267787e-01   8.4270119186794856e-01   9.7410264673058489e-01   1.1723468558080408e-01   6.1661435378771101e-01   4.4121132973183152e-04   2.9101762428463025e-02   9.6335292262828020e-07   9.0998904155814589e-05   5.4162258011913894e-09   1.9529383591769081e-07   1.0169570741069836e-10   1.1540252549864982e-09   5.3129352769095338e-12   2.5877235539558319e-11   6.2338097646848709e-13   1.7022124450723678e-12   2.4903227628196117e-13   2.2296979077888571e-15   1.9058828589398522e-15   1.7393494052460791e-15   1.7208456881689934e-15   1.5265566588595908e-15   1.6468308198606497e-15   1.4155343563970750e-15   1.6468308198606495e-15   1.3877787807814461e-15   1.7393494052460795e-15   1.4432899320127039e-15   1.9521421516325676e-15   1.5913196686293915e-15   2.3499720687899156e-15   1.9151347174783958e-15   3.1456319031046112e-15   2.5165055224836887e-15   4.6906922790412880e-15   3.7562545666484481e-15   8.2896652505345058e-15   6.5780714209040557e-15   1.8429702208777605e-14   1.4488410471358293e-14   5.6935937446193474e-14   4.4094357794695815e-14   2.8286632295741282e-13   2.1598463758228575e-13   2.8194761340453563e-12   2.1336543643002423e-12   7.7538281351152731e-11   5.8940611650607876e-11   8.8934065852382601e-09   6.9360370040053982e-09   3.7286567912594090e-06   3.0989891291651394e-06   1.8042214308909201e-03   1.7025119682347236e-03   1.6048195665060097e-01   1.7144033672861320e-01   6.7848649949328788e-01   7.0444341531663979e-01   9.4853372166972738e-01   9.4794184278972426e-01   9.4433580532178529e-01   9.2462959807495926e-01   8.0902386678164750e-01   6.7353121414134165e-01   6.7153311866226661e-01   3.7245654805284234e-01   6.5549215079116019e-01   2.7502680734820462e-01   7.9019272683620267e-01   3.5264140234263253e-01   9.4788368812568091e-01   6.7861081248957733e-01   9.6659866069078959e-01   9.2977409184440740e-01   8.2081507380563612e-01   9.4717861812474846e-01   1.5282478696738080e-01   6.4719776277212826e-01   5.9435271302688941e-04   3.9585163086441298e-02   6.5425419451536935e-07   8.3260774797394604e-05   2.1821622101884470e-09   8.3921887652123826e-08   3.4128986673801868e-11   3.6507008527308942e-10   1.7745064676925425e-12   8.2601055625038611e-12   2.2360816901804514e-13   6.0397057725462387e-13   1.0058620603103921e-13   1.37852692