<?xml version="1.0"?>
<VTKFile type="UnstructuredGrid"  version="0.1"  >
<UnstructuredGrid>
<Piece  NumberOfPoints="614" NumberOfCells="1122">
<Points>
<DataArray  type="Float64"  NumberOfComponents="3"  format="ascii">2.792173913043478 0.2166666666666667 0  2.792173913043478 0.2333333333333333 0  2.808695652173913 0.2333333333333333 0  2.445217391304348 0.2333333333333333 0  2.461739130434782 0.2333333333333333 0  2.461739130434782 0.25 0  2.445217391304348 0.25 0  2.478260869565217 0.2333333333333333 0  2.478260869565217 0.25 0  2.494782608695652 0.2333333333333333 0  2.494782608695652 0.25 0  2.511304347826087 0.2333333333333333 0  2.511304347826087 0.25 0  2.527826086956522 0.2333333333333333 0  2.527826086956522 0.25 0  2.544347826086956 0.2333333333333333 0  2.544347826086956 0.25 0  2.560869565217391 0.2333333333333333 0  2.560869565217391 0.25 0  2.577391304347826 0.2333333333333333 0  2.577391304347826 0.25 0  2.593913043478261 0.2333333333333333 0  2.593913043478261 0.25 0  2.610434782608696 0.2333333333333333 0  2.610434782608696 0.25 0  2.62695652173913 0.2333333333333333 0  2.62695652173913 0.25 0  2.643478260869565 0.2333333333333333 0  2.643478260869565 0.25 0  2.66 0.2333333333333333 0  2.66 0.25 0  2.676521739130435 0.2333333333333333 0  2.676521739130435 0.25 0  2.693043478260869 0.2333333333333333 0  2.693043478260869 0.25 0  2.709565217391304 0.2333333333333333 0  2.709565217391304 0.25 0  2.726086956521739 0.2333333333333333 0  2.726086956521739 0.25 0  2.742608695652174 0.2333333333333333 0  2.742608695652174 0.25 0  2.759130434782609 0.2333333333333333 0  2.759130434782609 0.25 0  2.775652173913044 0.2333333333333333 0  2.775652173913044 0.25 0  2.792173913043478 0.25 0  2.808695652173913 0.25 0  2.825217391304347 0.25 0  2.28 0.25 0  2.296521739130434 0.25 0  2.296521739130434 0.2666666666666667 0  2.28 0.2666666666666667 0  2.31304347826087 0.25 0  2.31304347826087 0.2666666666666667 0  2.329565217391304 0.25 0  2.329565217391304 0.2666666666666667 0  2.346086956521739 0.25 0  2.346086956521739 0.2666666666666667 0  2.362608695652174 0.25 0  2.362608695652174 0.2666666666666667 0  2.379130434782609 0.25 0  2.379130434782609 0.2666666666666667 0  2.395652173913044 0.25 0  2.395652173913044 0.2666666666666667 0  2.412173913043478 0.25 0  2.412173913043478 0.2666666666666667 0  2.428695652173913 0.25 0  2.428695652173913 0.2666666666666667 0  2.445217391304348 0.2666666666666667 0  2.461739130434782 0.2666666666666667 0  2.478260869565217 0.2666666666666667 0  2.494782608695652 0.2666666666666667 0  2.511304347826087 0.2666666666666667 0  2.527826086956522 0.2666666666666667 0  2.544347826086956 0.2666666666666667 0  2.560869565217391 0.2666666666666667 0  2.577391304347826 0.2666666666666667 0  2.593913043478261 0.2666666666666667 0  2.610434782608696 0.2666666666666667 0  2.62695652173913 0.2666666666666667 0  2.643478260869565 0.2666666666666667 0  2.66 0.2666666666666667 0  2.676521739130435 0.2666666666666667 0  2.693043478260869 0.2666666666666667 0  2.709565217391304 0.2666666666666667 0  2.726086956521739 0.2666666666666667 0  2.742608695652174 0.2666666666666667 0  2.759130434782609 0.2666666666666667 0  2.775652173913044 0.2666666666666667 0  2.792173913043478 0.2666666666666667 0  2.808695652173913 0.2666666666666667 0  2.825217391304347 0.2666666666666667 0  2.841739130434783 0.2666666666666667 0  2.24695652173913 0.2666666666666667 0  2.263478260869565 0.2666666666666667 0  2.263478260869565 0.2833333333333333 0  2.28 0.2833333333333333 0  2.296521739130434 0.2833333333333333 0  2.31304347826087 0.2833333333333333 0  2.329565217391304 0.2833333333333333 0  2.346086956521739 0.2833333333333333 0  2.362608695652174 0.2833333333333333 0  2.379130434782609 0.2833333333333333 0  2.395652173913044 0.2833333333333333 0  2.412173913043478 0.2833333333333333 0  2.428695652173913 0.2833333333333333 0  2.445217391304348 0.2833333333333333 0  2.461739130434782 0.2833333333333333 0  2.478260869565217 0.2833333333333333 0  2.494782608695652 0.2833333333333333 0  2.511304347826087 0.2833333333333333 0  2.527826086956522 0.2833333333333333 0  2.544347826086956 0.2833333333333333 0  2.560869565217391 0.2833333333333333 0  2.577391304347826 0.2833333333333333 0  2.593913043478261 0.2833333333333333 0  2.610434782608696 0.2833333333333333 0  2.62695652173913 0.2833333333333333 0  2.643478260869565 0.2833333333333333 0  2.66 0.2833333333333333 0  2.676521739130435 0.2833333333333333 0  2.693043478260869 0.2833333333333333 0  2.709565217391304 0.2833333333333333 0  2.726086956521739 0.2833333333333333 0  2.742608695652174 0.2833333333333333 0  2.759130434782609 0.2833333333333333 0  2.775652173913044 0.2833333333333333 0  2.792173913043478 0.2833333333333333 0  2.808695652173913 0.2833333333333333 0  2.825217391304347 0.2833333333333333 0  2.841739130434783 0.2833333333333333 0  2.858260869565217 0.2833333333333333 0  2.28 0.3 0  2.296521739130434 0.3 0  2.31304347826087 0.3 0  2.329565217391304 0.3 0  2.346086956521739 0.3 0  2.362608695652174 0.3 0  2.379130434782609 0.3 0  2.395652173913044 0.3 0  2.412173913043478 0.3 0  2.428695652173913 0.3 0  2.445217391304348 0.3 0  2.461739130434782 0.3 0  2.478260869565217 0.3 0  2.494782608695652 0.3 0  2.511304347826087 0.3 0  2.527826086956522 0.3 0  2.544347826086956 0.3 0  2.560869565217391 0.3 0  2.577391304347826 0.3 0  2.593913043478261 0.3 0  2.610434782608696 0.3 0  2.62695652173913 0.3 0  2.643478260869565 0.3 0  2.66 0.3 0  2.676521739130435 0.3 0  2.693043478260869 0.3 0  2.709565217391304 0.3 0  2.726086956521739 0.3 0  2.742608695652174 0.3 0  2.759130434782609 0.3 0  2.775652173913044 0.3 0  2.792173913043478 0.3 0  2.808695652173913 0.3 0  2.825217391304347 0.3 0  2.841739130434783 0.3 0  2.858260869565217 0.3 0  2.874782608695652 0.3 0  2.296521739130434 0.3166666666666667 0  2.31304347826087 0.3166666666666667 0  2.329565217391304 0.3166666666666667 0  2.346086956521739 0.3166666666666667 0  2.362608695652174 0.3166666666666667 0  2.379130434782609 0.3166666666666667 0  2.395652173913044 0.3166666666666667 0  2.412173913043478 0.3166666666666667 0  2.428695652173913 0.3166666666666667 0  2.445217391304348 0.3166666666666667 0  2.461739130434782 0.3166666666666667 0  2.478260869565217 0.3166666666666667 0  2.494782608695652 0.3166666666666667 0  2.511304347826087 0.3166666666666667 0  2.527826086956522 0.3166666666666667 0  2.544347826086956 0.3166666666666667 0  2.560869565217391 0.3166666666666667 0  2.577391304347826 0.3166666666666667 0  2.593913043478261 0.3166666666666667 0  2.610434782608696 0.3166666666666667 0  2.62695652173913 0.3166666666666667 0  2.643478260869565 0.3166666666666667 0  2.66 0.3166666666666667 0  2.676521739130435 0.3166666666666667 0  2.693043478260869 0.3166666666666667 0  2.709565217391304 0.3166666666666667 0  2.726086956521739 0.3166666666666667 0  2.742608695652174 0.3166666666666667 0  2.759130434782609 0.3166666666666667 0  2.775652173913044 0.3166666666666667 0  2.792173913043478 0.3166666666666667 0  2.808695652173913 0.3166666666666667 0  2.825217391304347 0.3166666666666667 0  2.841739130434783 0.3166666666666667 0  2.858260869565217 0.3166666666666667 0  2.874782608695652 0.3166666666666667 0  2.891304347826087 0.3166666666666667 0  2.31304347826087 0.3333333333333333 0  2.329565217391304 0.3333333333333333 0  2.346086956521739 0.3333333333333333 0  2.362608695652174 0.3333333333333333 0  2.379130434782609 0.3333333333333333 0  2.395652173913044 0.3333333333333333 0  2.412173913043478 0.3333333333333333 0  2.428695652173913 0.3333333333333333 0  2.445217391304348 0.3333333333333333 0  2.461739130434782 0.3333333333333333 0  2.478260869565217 0.3333333333333333 0  2.494782608695652 0.3333333333333333 0  2.511304347826087 0.3333333333333333 0  2.527826086956522 0.3333333333333333 0  2.544347826086956 0.3333333333333333 0  2.560869565217391 0.3333333333333333 0  2.577391304347826 0.3333333333333333 0  2.593913043478261 0.3333333333333333 0  2.610434782608696 0.3333333333333333 0  2.62695652173913 0.3333333333333333 0  2.643478260869565 0.3333333333333333 0  2.66 0.3333333333333333 0  2.676521739130435 0.3333333333333333 0  2.693043478260869 0.3333333333333333 0  2.709565217391304 0.3333333333333333 0  2.726086956521739 0.3333333333333333 0  2.742608695652174 0.3333333333333333 0  2.759130434782609 0.3333333333333333 0  2.775652173913044 0.3333333333333333 0  2.792173913043478 0.3333333333333333 0  2.808695652173913 0.3333333333333333 0  2.825217391304347 0.3333333333333333 0  2.841739130434783 0.3333333333333333 0  2.858260869565217 0.3333333333333333 0  2.874782608695652 0.3333333333333333 0  2.891304347826087 0.3333333333333333 0  2.907826086956522 0.3333333333333333 0  2.329565217391304 0.35 0  2.346086956521739 0.35 0  2.362608695652174 0.35 0  2.379130434782609 0.35 0  2.395652173913044 0.35 0  2.412173913043478 0.35 0  2.428695652173913 0.35 0  2.445217391304348 0.35 0  2.461739130434782 0.35 0  2.478260869565217 0.35 0  2.494782608695652 0.35 0  2.511304347826087 0.35 0  2.527826086956522 0.35 0  2.544347826086956 0.35 0  2.560869565217391 0.35 0  2.577391304347826 0.35 0  2.593913043478261 0.35 0  2.610434782608696 0.35 0  2.62695652173913 0.35 0  2.643478260869565 0.35 0  2.66 0.35 0  2.676521739130435 0.35 0  2.693043478260869 0.35 0  2.709565217391304 0.35 0  2.726086956521739 0.35 0  2.742608695652174 0.35 0  2.759130434782609 0.35 0  2.775652173913044 0.35 0  2.792173913043478 0.35 0  2.808695652173913 0.35 0  2.825217391304347 0.35 0  2.841739130434783 0.35 0  2.858260869565217 0.35 0  2.874782608695652 0.35 0  2.891304347826087 0.35 0  2.907826086956522 0.35 0  2.924347826086957 0.35 0  2.346086956521739 0.3666666666666666 0  2.362608695652174 0.3666666666666666 0  2.379130434782609 0.3666666666666666 0  2.395652173913044 0.3666666666666666 0  2.412173913043478 0.3666666666666666 0  2.428695652173913 0.3666666666666666 0  2.445217391304348 0.3666666666666666 0  2.461739130434782 0.3
[...]
<PointData  Vectors="Displacement"> 
<DataArray  type="Float64"  Name="Displacement"  NumberOfComponents="3" format="ascii">-9.6085550599199371e-05 5.7007783349520020e-03 0.0000000000000000e+00  -1.4821250358844714e-04 5.6987707565359239e-03 0.0000000000000000e+00  -1.4475604195202902e-04 5.7321223904623630e-03 0.0000000000000000e+00  -1.5928799538104818e-05 4.5893557609754552e-03 0.0000000000000000e+00  -1.6249978853117359e-05 4.6564161533937188e-03 0.0000000000000000e+00  -5.7164833565238640e-05 4.6609883477557838e-03 0.0000000000000000e+00  -5.5364025005032862e-05 4.5946035001218364e-03 0.0000000000000000e+00  -1.6510891278886337e-05 4.7215592940905394e-03 0.0000000000000000e+00  -5.9280122863366184e-05 4.7251799190352398e-03 0.0000000000000000e+00  -1.7010038211794970e-05 4.7820144354668200e-03 0.0000000000000000e+00  -6.1904060066591914e-05 4.7862057546570573e-03 0.0000000000000000e+00  -1.8892322938401658e-05 4.8394482389657514e-03 0.0000000000000000e+00  -6.5804242288972599e-05 4.8448323077064630e-03 0.0000000000000000e+00  -2.2692296790607680e-05 4.8948602280000399e-03 0.0000000000000000e+00  -7.1392762805783271e-05 4.9017239367711461e-03 0.0000000000000000e+00  -2.8548302928929156e-05 4.9488631300229780e-03 0.0000000000000000e+00  -7.8918361722688402e-05 4.9574151695999562e-03 0.0000000000000000e+00  -3.6617133768937908e-05 5.0022585829035153e-03 0.0000000000000000e+00  -8.8565935815162439e-05 5.0125832211857062e-03 0.0000000000000000e+00  -4.6964115487813173e-05 5.0559893270679486e-03 0.0000000000000000e+00  -1.0044242121600644e-04 5.0680048051462015e-03 0.0000000000000000e+00  -5.9540208916784774e-05 5.1109859460047235e-03 0.0000000000000000e+00  -1.1457459941148917e-04 5.1245347356117851e-03 0.0000000000000000e+00  -7.4058814669148264e-05 5.1692466867016484e-03 0.0000000000000000e+00  -1.3088456981936086e-04 5.1834004967978107e-03 0.0000000000000000e+00  -8.9127833590264621e-05 5.2325983909023519e-03 0.0000000000000000e+00  -1.4910458508454139e-04 5.2453718302648460e-03 0.0000000000000000e+00  -9.9760741448463194e-05 5.3063160346163386e-03 0.0000000000000000e+00  -1.6974666313657213e-04 5.3086163624565356e-03 0.0000000000000000e+00  -9.9571146359972589e-05 5.3819961082710527e-03 0.0000000000000000e+00  -1.6854602563388628e-04 5.3848453815157037e-03 0.0000000000000000e+00  -9.8718123405720659e-05 5.4553810443488376e-03 0.0000000000000000e+00  -1.6835070944756612e-04 5.4568106912170440e-03 0.0000000000000000e+00  -1.1373549901745580e-04 5.4912732862420462e-03 0.0000000000000000e+00  -1.7374378376766949e-04 5.5077923562451897e-03 0.0000000000000000e+00  -1.2593699344978863e-04 5.5305688798520554e-03 0.0000000000000000e+00  -1.8403588249370190e-04 5.5473587826689753e-03 0.0000000000000000e+00  -1.3589831923387162e-04 5.5667506352505090e-03 0.0000000000000000e+00  -1.9266251613034568e-04 5.5801849792409732e-03 0.0000000000000000e+00  -1.4313509794666078e-04 5.6007126088113294e-03 0.0000000000000000e+00  -1.9854783664347326e-04 5.6100634264503032e-03 0.0000000000000000e+00  -1.4753959574979644e-04 5.6335482283295969e-03 0.0000000000000000e+00  -2.0167129099267042e-04 5.6387477867003511e-03 0.0000000000000000e+00  -1.4918778391708777e-04 5.6660506095268636e-03 0.0000000000000000e+00  -2.0219744138182930e-04 5.6672147792010416e-03 0.0000000000000000e+00  -2.0029727577757371e-04 5.6960535764649361e-03 0.0000000000000000e+00  -1.9610798936926322e-04 5.7256808360991495e-03 0.0000000000000000e+00  -1.8971077015161148e-04 5.7564362802265227e-03 0.0000000000000000e+00  -6.1456062466340479e-05 4.2607686569354885e-03 0.0000000000000000e+00  -5.7974830694112189e-05 4.2833305887543457e-03 0.0000000000000000e+00  -8.9809902989503951e-05 4.2670435568045962e-03 0.0000000000000000e+00  -9.3413647025524706e-05 4.2457372805553241e-03 0.0000000000000000e+00  -5.4383667964413095e-05 4.3049821875730983e-03 0.0000000000000000e+00  -8.5446353956242945e-05 4.2876150807823364e-03 0.0000000000000000e+00  -5.1540071337934215e-05 4.3269649228888252e-03 0.0000000000000000e+00  -8.1555817932270634e-05 4.3099473393325661e-03 0.0000000000000000e+00  -5.1282876142551062e-05 4.3497152668138155e-03 0.0000000000000000e+00  -7.9930829183227778e-05 4.3360395725723869e-03 0.0000000000000000e+00  -5.6111462171170115e-05 4.3709181868593107e-03 0.0000000000000000e+00  -8.3591215990262520e-05 4.3632779362360293e-03 0.0000000000000000e+00  -5.6502266724684381e-05 4.3984867397060257e-03 0.0000000000000000e+00  -8.4768483036605003e-05 4.3960265622722799e-03 0.0000000000000000e+00  -5.7475394467156925e-05 4.4334452427817290e-03 0.0000000000000000e+00  -8.6016513425565935e-05 4.4309275607106744e-03 0.0000000000000000e+00  -5.8317363336956175e-05 4.4803504568771500e-03 0.0000000000000000e+00  -8.6967746906947271e-05 4.4690459849570791e-03 0.0000000000000000e+00  -5.7977858488746906e-05 4.5243766741451131e-03 0.0000000000000000e+00  -8.7069143953631597e-05 4.5350265018988820e-03 0.0000000000000000e+00  -9.2224675063478509e-05 4.6013294568385977e-03 0.0000000000000000e+00  -9.5960320163760842e-05 4.6674160848636228e-03 0.0000000000000000e+00  -9.9898882046788010e-05 4.7311205688500757e-03 0.0000000000000000e+00  -1.0436777012450362e-04 4.7924933600368555e-03 0.0000000000000000e+00  -1.0995443253939476e-04 4.8519939265185457e-03 0.0000000000000000e+00  -1.1706128214035025e-04 4.9100567581165542e-03 0.0000000000000000e+00  -1.2595826661270326e-04 4.9671170738334186e-03 0.0000000000000000e+00  -1.3683267709470407e-04 5.0237086391794784e-03 0.0000000000000000e+00  -1.4977551633973510e-04 5.0804424328805241e-03 0.0000000000000000e+00  -1.6476324905431215e-04 5.1379850098651134e-03 0.0000000000000000e+00  -1.8159746148312534e-04 5.1970849431952773e-03 0.0000000000000000e+00  -1.9978313604083995e-04 5.2581408724315954e-03 0.0000000000000000e+00  -2.1855513212712545e-04 5.3208274229775967e-03 0.0000000000000000e+00  -2.3631783271064175e-04 5.3875383154062409e-03 0.0000000000000000e+00  -2.3609615740927044e-04 5.4589545836919804e-03 0.0000000000000000e+00  -2.3558406242842980e-04 5.5239638193272820e-03 0.0000000000000000e+00  -2.4304665791795527e-04 5.5651679256096473e-03 0.0000000000000000e+00  -2.4977093793762992e-04 5.5935811875346729e-03 0.0000000000000000e+00  -2.5388128935178560e-04 5.6188421195046767e-03 0.0000000000000000e+00  -2.5543687059439383e-04 5.6431515913611960e-03 0.0000000000000000e+00  -2.5465070785231017e-04 5.6675242204019408e-03 0.0000000000000000e+00  -2.5170220747904948e-04 5.6924815051324516e-03 0.0000000000000000e+00  -2.4669042121064398e-04 5.7183661537010891e-03 0.0000000000000000e+00  -2.3956954997405745e-04 5.7453787639204354e-03 0.0000000000000000e+00  -2.3048640286062338e-04 5.7745903175429091e-03 0.0000000000000000e+00  -9.9164165950717782e-05 4.1971082038714195e-03 0.0000000000000000e+00  -9.6382621044471275e-05 4.2224949413674001e-03 0.0000000000000000e+00  -1.2690543020210736e-04 4.2093103030243417e-03 0.0000000000000000e+00  -1.2427322306146109e-04 4.2313189322818112e-03 0.0000000000000000e+00  -1.2026627189311863e-04 4.2504832888430096e-03 0.0000000000000000e+00  -1.1446384806221547e-04 4.2686283048815263e-03 0.0000000000000000e+00  -1.0830640552793700e-04 4.2914330614226507e-03 0.0000000000000000e+00  -1.0708763722690551e-04 4.3207881136301121e-03 0.0000000000000000e+00  -1.0857333889289384e-04 4.3593015634597774e-03 0.0000000000000000e+00  -1.0960378941447576e-04 4.3934881849667607e-03 0.0000000000000000e+00  -1.1016773791423310e-04 4.4251115974076292e-03 0.0000000000000000e+00  -1.1410326855411470e-04 4.4832898517249316e-03 0.0000000000000000e+00  -1.2180241356736119e-04 4.5460031343461278e-03 0.0000000000000000e+00  -1.2781907933219892e-04 4.6113205051479889e-03 0.0000000000000000e+00  -1.3329992909574785e-04 4.6757585384641122e-03 0.0000000000000000e+00  -1.3859101796043967e-04 4.7389228022735484e-03 0.0000000000000000e+00  -1.4441686483046719e-04 4.8004674077332787e-03 0.0000000000000000e+00  -1.5128363084206199e-04 4.8606006189863158e-03 0.0000000000000000e+00  -1.5955104292448210e-04 4.9195840462680643e-03 0.0000000000000000e+00  -1.6947192787175844e-04 4.9777294408240380e-03 0.0000000000000000e+00  -1.8121295835406151e-04 5.0354293739180702e-03 0.0000000000000000e+00  -1.9484837332426282e-04 5.0931334288820867e-03 0.0000000000000000e+00  -2.1034714814238543e-04 5.1513128536114020e-03 0.0000000000000000e+00  -2.2754362537157684e-04 5.2104031458584795e-03 0.0000000000000000e+00  -2.4610114063052348e-04 5.2705642982600895e-03 0.0000000000000000e+00  -2.6553436132805780e-04 5.3315899647006001e-03 0.0000000000000000e+00  -2.8493874527681123e-04 5.3939697693242321e-03 0.0000000000000000e+00  -2.9841297493347842e-04 5.4605882959461094e-03 0.0000000000000000e+00  -2.9832479541307388e-04 5.5246282580374353e-03 0.0000000000000000e+00  -2.9796869869716595e-04 5.5865008576686725e-03 0.0000000000000000e+00  -3.0502812862995927e-04 5.6069528085787943e-03 0.0000000000000000e+00  -3.0776363844878913e-04 5.6268473443368411e-03 0.0000000000000000e+00  -3.0782117373186218e-04 5.6465741118294187e-03 0.0000000000000000e+00  -3.0574150654328171e-04 5.6668374503291803e-03 0.0000000000000000e+00  -3.0172946713976912e-04 5.6879680059380103e-03 0.0000000000000000e+00  -2.9590180662132751e-04 5.7100984021999620e-03 0.0000000000000000e+00  -2.8790839834705675e-04 5.7330855261918390e-03 0.0000000000000000e+00  -2.7809967566934602e-04 5.7585685205424741e-03 0.0000000000000000e+00  -2.6728296155316330e-04 5.7897335466128167e-03 0.0000000000000000e+00  -1.5432410322622800e-04 4.2179816321140035e-03 0.0000000000000000e+00  -1.5031259018524615e-04 4.2334011706765054e-03 0.0000000000000000e+00  -1.4232153323815195e-04 4.2478312796892705e-03 0.0000000000000000e+00  -1.3694190737282620e-04 4.2708270845598440e-03 0.0000000000000000e+00  -1.3841120969423486e-04 4.3165756287452083e-03 0.0000000000000000e+00  -1.3900859193522616e-04 4.3574277485902259e-03 0.0000000000000000e+00  -1.3945203919487771e-04 4.3917746212990862e-03 0.0000000000000000e+00  -1.4185342103633080e-04 4.4383969638291621e-03 0.0000000000000000e+00  -1.4923066546584698e-04 4.4967851202854835e-03 0.0000000000000000e+00  -1.5632219999044421e-04 4.5588386274480657e-03 0.0000000000000000e+00  -1.6292974501853498e-04 4.6221055398747192e-03 0.0000000000000000e+00  -1.6902290407251228e-04 4.6854204072077103e-03 0.0000000000000000e+00  -1.7520784417952230e-04 4.7480429243180969e-03 0.0000000000000000e+00  -1.8196412241533691e-04 4.8096774208863415e-03 0.0000000000000000e+00  -1.8972431566058090e-04 4.8702981337640869e-03 0.0000000000000000e+00  -1.9879517457363824e-04 4.9300134118776323e-03 0.0000000000000000e+00  -2.0939318035698756e-04 4.9890130856712536e-03 0.0000000000000000e+00  -2.2165888791807111e-04 5.0475621342950423e-03 0.0000000000000000e+00  -2.3566027159685270e-04 5.1059757313315149e-03 0.0000000000000000e+00  -2.5140071589558602e-04 5.1645824776526969e-03 0.0000000000000000e+00  -2.6883834303282722e-04 5.2236618788240683e-03 0.0000000000000000e+00  -2.8794466840224880e-04 5.2833162582901910e-03 0.0000000000000000e+00  -3.0886418386744536e-04 5.3434245863074829e-03 0.0000000000000000e+00  -3.3217989360245109e-04 5.4037329139717651e-03 0.0000000000000000e+00  -3.5976758677621175e-04 5.4615682285678426e-03 0.0000000000000000e+00  -3.5896821576163689e-04 5.5259174456836037e-03 0.0000000000000000e+00  -3.5878783358102371e-04 5.5869385056700610e-03 0.0000000000000000e+00  -3.5963877494006423e-04 5.6197517637534252e-03 0.0000000000000000e+00  -3.5976527541589518e-04 5.6338435257326314e-03 0.0000000000000000e+00  -3.5801881163929005e-04 5.6489336052032834e-03 0.0000000000000000e+00  -3.5481326461353637e-04 5.6651116394566660e-03 0.0000000000000000e+00  -3.4987837016878199e-04 5.6824723280027960e-03 0.0000000000000000e+00  -3.4320220865340968e-04 5.7010450162344765e-03 0.0000000000000000e+00  -3.3455315133986671e-04 5.7193071197591313e-03 0.0000000000000000e+00  -3.2372582805296649e-04 5.7416161260729886e-03 0.0000000000000000e+00  -3.1663520832040526e-04 5.7714669136923209e-03 0.0000000000000000e+00  -3.1696705895909697e-04 5.8280963479629523e-03 0.0000000000000000e+00  -1.8093324553795800e-04 4.2180540753665053e-03 0.0000000000000000e+00  -1.7711387608114923e-04 4.2247290855673700e-03 0.0000000000000000e+00  -1.7575613041459441e-04 4.2662886620014702e-03 0.0000000000000000e+00  -1.7644463405737393e-04 4.3150556555127421e-03 0.0000000000000000e+00  -1.7695783337065771e-04 4.3563372457672564e-03 0.0000000000000000e+00  -1.7644219353919261e-04 4.3932789444154612e-03 0.0000000000000000e+00  -1.7860487788467222e-04 4.4508549320115137e-03 0.0000000000000000e+00  -1.8440822991028504e-04 4.5098839518603181e-03 0.0000000000000000e+00  -1.9060143039183210e-04 4.5709108466616176e-03 0.0000000000000000e+00  -1.9677423928534079e-04 4.6331289013573414e-03 0.0000000000000000e+00  -2.0303579776195945e-04 4.6956690326447042e-03 0.0000000000000000e+00  -2.0965409052973199e-04 4.7579852133619246e-03 0.0000000000000000e+00  -2.1696351735995645e-04 4.8197269561908295e-03 0.0000000000000000e+00  -2.2526583659668214e-04 4.8807588586566196e-03 0.0000000000000000e+00  -2.3479843264195382e-04 4.9410675019872742e-03 0.0000000000000000e+00  -2.4572821503407064e-04 5.0007316890138716e-03 0.0000000000000000e+00  -2.5815557652654318e-04 5.0599043368462215e-03 0.0000000000000000e+00  -2.7211903987422120e-04 5.1187903519989706e-03 0.0000000000000000e+00  -2.8760729449403528e-04 5.1776159708227711e-03 0.0000000000000000e+00  -3.0457964540601327e-04 5.2365761662836957e-03 0.0000000000000000e+00  -3.2300228562015000e-04 5.2957575846590832e-03 0.0000000000000000e+00  -3.4290825183900462e-04 5.3550962431727746e-03 0.0000000000000000e+00  -3.6445508016910906e-04 5.4143175048823799e-03 0.0000000000000000e+00  -3.8806701653925290e-04 5.4722376988008943e-03 0.0000000000000000e+00  -4.1482874309203783e-04 5.5277097367670168e-03 0.0000000000000000e+00  -4.1341608711898889e-04 5.5892193417090121e-03 0.0000000000000000e+00  -4.1287204585906698e-04 5.6275824665411667e-03 0.0000000000000000e+00  -4.0785133512209900e-04 5.6389963371612471e-03 0.0000000000000000e+00  -4.0423276594806732e-04 5.6502960899625539e-03 0.0000000000000000e+00  -4.0096452005073665e-04 5.6627053638557880e-03 0.0000000000000000e+00  -3.9632878931701295e-04 5.6759878138990440e-03 0.0000000000000000e+00  -3.8885922383392494e-04 5.6913511641232366e-03 0.0000000000000000e+00  -3.7883353838978157e-04 5.7055440606718771e-03 0.0000000000000000e+00  -3.7282071689100977e-04 5.7236080162959705e-03 0.0000000000000000e+00  -3.7126634862090030e-04 5.7714340058893001e-03 0.0000000000000000e+00  -3.7240565905138234e-04 5.8270484664229693e-03 0.0000000000000000e+00  -3.7340833632881835e-04 5.8860365812135754e-03 0.0000000000000000e+00  -2.1920747847411858e-04 4.2264358946711633e-03 0.0000000000000000e+00  -2.2010300617593553e-04 4.2643641662230888e-03 0.0000000000000000e+00  -2.2098581811570462e-04 4.3134941719505026e-03 0.0000000000000000e+00  -2.2009791935399998e-04 4.3568710285417376e-03 0.0000000000000000e+00  -2.1438749925160725e-04 4.4056956619725803e-03 0.0000000000000000e+00  -2.1565652681145733e-04 4.4618469217483159e-03 0.0000000000000000e+00  -2.1880475640300776e-04 4.5212675393438992e-03 0.0000000000000000e+00  -2.2348863164084134e-04 4.5820562644757808e-03 0.0000000000000000e+00  -2.2900728328757703e-04 4.6438487655591889e-03 0.0000000000000000e+00  -2.3512608598104720e-04 4.7060975635226767e-03 0.0000000000000000e+00  -2.4188472971559539e-04 4.7683505595038037e-03 0.0000000000000000e+00  -2.4943825834199037e-04 4.8302826158744174e-03 0.0000000000000000e+00  -2.5797492023693614e-04 4.8916980911421284e-03 0.0000000000000000e+00  -2.6765690752490631e-04 4.9524991636193541e-03 0.0000000000000000e+00  -2.7859563438756816e-04 5.0126680332197677e-03 0.0000000000000000e+00  -2.9084080543380109e-04 5.0722563661347300e-03 0.0000000000000000e+00  -3.0438059091621666e-04 5.1313724373595231e-03 0.0000000000000000e+00  -3.1915210869002091e-04 5.1901596998313046e-03 0.0000000000000000e+00  -3.3505326070084636e-04 5.2487476499422613e-03 0.0000000000000000e+00  -3.5195144818881601e-04 5.3071871641585727e-03 0.0000000000000000e+00  -3.6968452344597825e-04 5.3653981808241113e-03 0.0000000000000000e+00  -3.8804194907265542e-04 5.4231085564379403e-03 0.0000000000000000e+00  -4.0675321982838416e-04 5.4797036239887503e-03 0.0000000000000000e+00  -4.2545156177827698e-04 5.5350456482017203e-03 0.0000000000000000e+00  -4.4255010396813152e-04 5.5925051188816235e-03 0.0000000000000000e+00  -4.4120896073086309e-04 5.6291435466250808e-03 0.0000000000000000e+00  -4.4103823254698133e-04 5.6420227886313850e-03 0.0000000000000000e+00  -4.4213445813828437e-04 5.6520772484152763e-03 0.0000000000000000e+00  -4.4311420652025195e-04 5.6610377586293961e-03 0.0000000000000000e+00  -4.4163088015125037e-04 5.6699435579735374e-03 0.0000000000000000e+00  -4.3728965872509020e-04 5.6796406721027039e-03 0.0000000000000000e+00  -4.2085543624879494e-04 5.6920578673953408e-03 0.0000000000000000e+00  -4.1978297974324693e-04 5.7243912973689096e-03 0.0000000000000000e+00  -4.2144571308752089e-04 5.7698447932018051e-03 0.0000000000000000e+00  -4.2312796897138661e-04 5.8257283934691571e-03 0.0000000000000000e+00  -4.2658640420825884e-04 5.8847763365985481e-03 0.0000000000000000e+00  -4.0560606803215769e-04 5.9472205335155057e-03 0.0000000000000000e+00  -2.5248741488613144e-04 4.2620063165011695e-03 0.0000000000000000e+00  -2.5523011295513082e-04 4.3073441800675454e-03 0.0000000000000000e+00  -2.4628749809569634e-04 4.3618422237852875e-03 0.0000000000000000e+00  -2.4442502832218351e-04 4.4139386857815835e-03 0.0000000000000000e+00  -2.4589199123567225e-04 4.4714840074950388e-03 0.0000000000000000e+00  -2.4921724596419160e-04 4.5312229477786061e-03 0.0000000000000000e+00  -2.5368880375653021e-04 4.5922999835031437e-03 0.0000000000000000e+00  -2.5904868052207706e-04 4.6541795916454761e-03 0.0000000000000000e+00  -2.6512553565575245e-04 4.7164858175813814e-03 0.0000000000000000e+00  -2.7191112189866234e-04 4.7788831197375266e-03 0.0000000000000000e+00  -2.7949663692588303e-04 4.8410884537397388e-03 0.0000000000000000e+00  -2.8801003920931088e-04 4.9028829833151818e-03 0.0000000000000000e+00  -2.9756563301094917e-04 4.9641046433471650e-03 0.0000000000000000e+00  -3.0823064045388686e-04 5.0246478215643965e-03 0.0000000000000000e+00  -3.2000635758872411e-04 5.0844666957536892e-03 0.0000000000000000e+00  -3.3282588855119402e-04 5.1435795088508873e-03 0.0000000000000000e+00  -3.4656884344582301e-04 5.2020621557960656e-03 0.0000000000000000e+00  -3.6107228990893186e-04 5.2599927087904905e-03 0.0000000000000000e+00  -3.7612880062790738e-04 5.3173803223906680e-03 0.0000000000000000e+00  -3.9146786870228686e-04 5.3741003272546337e-03 0.0000000000000000e+00  -4.0671979152474993e-04 5.4298458376826663e-03 0.0000000000000000e+00  -4.2136387226198693e-04 5.4841223939757003e-03 0.0000000000000000e+00  -4.3460465454481109e-04 5.5366798317859223e-03 0.0000000000000000e+00  -4.4491973259415195e-04 5.5879478053771133e-03 0.0000000000000000e+00  -4.5197503371032757e-04 5.6303354119794499e-03 0.0000000000000000e+00  -4.5197800720236432e-04 5.6420823228854038e-03 0.0000000000000000e+00  -4.5199462736042939e-04 5.6521907378454745e-03 0.0000000000000000e+00  -4.5202396057956242e-04 5.6609286342553409e-03 0.0000000000000000e+00  -4.5169419233552065e-04 5.6697553252506600e-03 0.0000000000000000e+00  -4.5112915844419416e-04 5.6797287890581255e-03 0.0000000000000000e+00  -4.5092615248219347e-04 5.6921445214911477e-03 0.0000000000000000e+00  -4.5197879940765922e-04 5.7225222547302576e-03 0.0000000000000000e+00  -4.5645889843598416e-04 5.7673186417697593e-03 0.0000000000000000e+00  -4.7423323529663131e-04 5.8255967960279785e-03 0.0000000000000000e+00  -4.4882809213297054e-04 5.8856504517255433e-03 0.0000000000000000e+00  -4.2939851977882328e-04 5.9418967983379499e-03 0.0000000000000000e+00  -4.1163226016744693e-04 6.0025578635883314e-03 0.0000000000000000e+