<?xml version="1.0"?>
<VTKFile type="UnstructuredGrid"  version="0.1"  >
<UnstructuredGrid>
<Piece  NumberOfPoints="640" NumberOfCells="1181">
<Points>
<DataArray  type="Float64"  NumberOfComponents="3"  format="ascii">2.973913043478261 0 0  2.990434782608696 0 0  2.990434782608696 0.01666666666666667 0  2.973913043478261 0.01666666666666667 0  3.006956521739131 0 0  3.006956521739131 0.01666666666666667 0  3.023478260869565 0 0  3.023478260869565 0.01666666666666667 0  3.04 0 0  3.04 0.01666666666666667 0  3.056521739130435 0 0  3.056521739130435 0.01666666666666667 0  3.073043478260869 0 0  3.073043478260869 0.01666666666666667 0  3.089565217391304 0 0  3.089565217391304 0.01666666666666667 0  3.106086956521739 0 0  3.106086956521739 0.01666666666666667 0  3.122608695652174 0 0  3.122608695652174 0.01666666666666667 0  3.139130434782609 0 0  3.139130434782609 0.01666666666666667 0  3.155652173913043 0 0  3.155652173913043 0.01666666666666667 0  3.172173913043478 0 0  3.172173913043478 0.01666666666666667 0  3.188695652173913 0 0  3.188695652173913 0.01666666666666667 0  3.205217391304347 0 0  3.205217391304347 0.01666666666666667 0  3.221739130434782 0 0  3.221739130434782 0.01666666666666667 0  3.238260869565217 0 0  3.238260869565217 0.01666666666666667 0  2.990434782608696 0.03333333333333333 0  2.973913043478261 0.03333333333333333 0  3.006956521739131 0.03333333333333333 0  3.023478260869565 0.03333333333333333 0  3.04 0.03333333333333333 0  3.056521739130435 0.03333333333333333 0  3.073043478260869 0.03333333333333333 0  3.089565217391304 0.03333333333333333 0  3.106086956521739 0.03333333333333333 0  3.122608695652174 0.03333333333333333 0  3.139130434782609 0.03333333333333333 0  3.155652173913043 0.03333333333333333 0  3.172173913043478 0.03333333333333333 0  3.188695652173913 0.03333333333333333 0  3.205217391304347 0.03333333333333333 0  3.221739130434782 0.03333333333333333 0  3.238260869565217 0.03333333333333333 0  3.254782608695652 0.03333333333333333 0  2.990434782608696 0.05 0  3.006956521739131 0.05 0  3.023478260869565 0.05 0  3.04 0.05 0  3.056521739130435 0.05 0  3.073043478260869 0.05 0  3.089565217391304 0.05 0  3.106086956521739 0.05 0  3.122608695652174 0.05 0  3.139130434782609 0.05 0  3.155652173913043 0.05 0  3.172173913043478 0.05 0  3.188695652173913 0.05 0  3.205217391304347 0.05 0  3.221739130434782 0.05 0  3.238260869565217 0.05 0  3.254782608695652 0.05 0  3.271304347826087 0.05 0  3.006956521739131 0.06666666666666667 0  2.990434782608696 0.06666666666666667 0  3.023478260869565 0.06666666666666667 0  3.04 0.06666666666666667 0  3.056521739130435 0.06666666666666667 0  3.073043478260869 0.06666666666666667 0  3.089565217391304 0.06666666666666667 0  3.106086956521739 0.06666666666666667 0  3.122608695652174 0.06666666666666667 0  3.139130434782609 0.06666666666666667 0  3.155652173913043 0.06666666666666667 0  3.172173913043478 0.06666666666666667 0  3.188695652173913 0.06666666666666667 0  3.205217391304347 0.06666666666666667 0  3.221739130434782 0.06666666666666667 0  3.238260869565217 0.06666666666666667 0  3.254782608695652 0.06666666666666667 0  3.271304347826087 0.06666666666666667 0  3.287826086956521 0.06666666666666667 0  3.006956521739131 0.08333333333333333 0  3.023478260869565 0.08333333333333333 0  3.04 0.08333333333333333 0  3.056521739130435 0.08333333333333333 0  3.073043478260869 0.08333333333333333 0  3.089565217391304 0.08333333333333333 0  3.106086956521739 0.08333333333333333 0  3.122608695652174 0.08333333333333333 0  3.139130434782609 0.08333333333333333 0  3.155652173913043 0.08333333333333333 0  3.172173913043478 0.08333333333333333 0  3.188695652173913 0.08333333333333333 0  3.205217391304347 0.08333333333333333 0  3.221739130434782 0.08333333333333333 0  3.238260869565217 0.08333333333333333 0  3.254782608695652 0.08333333333333333 0  3.271304347826087 0.08333333333333333 0  3.287826086956521 0.08333333333333333 0  3.304347826086957 0.08333333333333333 0  3.023478260869565 0.1 0  3.006956521739131 0.1 0  3.04 0.1 0  3.056521739130435 0.1 0  3.073043478260869 0.1 0  3.089565217391304 0.1 0  3.106086956521739 0.1 0  3.122608695652174 0.1 0  3.139130434782609 0.1 0  3.155652173913043 0.1 0  3.172173913043478 0.1 0  3.188695652173913 0.1 0  3.205217391304347 0.1 0  3.221739130434782 0.1 0  3.238260869565217 0.1 0  3.254782608695652 0.1 0  3.271304347826087 0.1 0  3.287826086956521 0.1 0  3.304347826086957 0.1 0  3.320869565217391 0.1 0  3.023478260869565 0.1166666666666667 0  3.04 0.1166666666666667 0  3.056521739130435 0.1166666666666667 0  3.073043478260869 0.1166666666666667 0  3.089565217391304 0.1166666666666667 0  3.106086956521739 0.1166666666666667 0  3.122608695652174 0.1166666666666667 0  3.139130434782609 0.1166666666666667 0  3.155652173913043 0.1166666666666667 0  3.172173913043478 0.1166666666666667 0  3.188695652173913 0.1166666666666667 0  3.205217391304347 0.1166666666666667 0  3.221739130434782 0.1166666666666667 0  3.238260869565217 0.1166666666666667 0  3.254782608695652 0.1166666666666667 0  3.271304347826087 0.1166666666666667 0  3.287826086956521 0.1166666666666667 0  3.304347826086957 0.1166666666666667 0  3.320869565217391 0.1166666666666667 0  3.337391304347826 0.1166666666666667 0  3.04 0.1333333333333333 0  3.023478260869565 0.1333333333333333 0  3.056521739130435 0.1333333333333333 0  3.073043478260869 0.1333333333333333 0  3.089565217391304 0.1333333333333333 0  3.106086956521739 0.1333333333333333 0  3.122608695652174 0.1333333333333333 0  3.139130434782609 0.1333333333333333 0  3.155652173913043 0.1333333333333333 0  3.172173913043478 0.1333333333333333 0  3.188695652173913 0.1333333333333333 0  3.205217391304347 0.1333333333333333 0  3.221739130434782 0.1333333333333333 0  3.238260869565217 0.1333333333333333 0  3.254782608695652 0.1333333333333333 0  3.271304347826087 0.1333333333333333 0  3.287826086956521 0.1333333333333333 0  3.304347826086957 0.1333333333333333 0  3.320869565217391 0.1333333333333333 0  3.337391304347826 0.1333333333333333 0  3.353913043478261 0.1333333333333333 0  3.04 0.15 0  3.056521739130435 0.15 0  3.073043478260869 0.15 0  3.089565217391304 0.15 0  3.106086956521739 0.15 0  3.122608695652174 0.15 0  3.139130434782609 0.15 0  3.155652173913043 0.15 0  3.172173913043478 0.15 0  3.188695652173913 0.15 0  3.205217391304347 0.15 0  3.221739130434782 0.15 0  3.238260869565217 0.15 0  3.254782608695652 0.15 0  3.271304347826087 0.15 0  3.287826086956521 0.15 0  3.304347826086957 0.15 0  3.320869565217391 0.15 0  3.337391304347826 0.15 0  3.353913043478261 0.15 0  3.370434782608696 0.15 0  3.056521739130435 0.1666666666666667 0  3.073043478260869 0.1666666666666667 0  3.089565217391304 0.1666666666666667 0  3.106086956521739 0.1666666666666667 0  3.122608695652174 0.1666666666666667 0  3.139130434782609 0.1666666666666667 0  3.155652173913043 0.1666666666666667 0  3.172173913043478 0.1666666666666667 0  3.188695652173913 0.1666666666666667 0  3.205217391304347 0.1666666666666667 0  3.221739130434782 0.1666666666666667 0  3.238260869565217 0.1666666666666667 0  3.254782608695652 0.1666666666666667 0  3.271304347826087 0.1666666666666667 0  3.287826086956521 0.1666666666666667 0  3.304347826086957 0.1666666666666667 0  3.320869565217391 0.1666666666666667 0  3.337391304347826 0.1666666666666667 0  3.353913043478261 0.1666666666666667 0  3.370434782608696 0.1666666666666667 0  3.386956521739131 0.1666666666666667 0  3.073043478260869 0.1833333333333333 0  3.089565217391304 0.1833333333333333 0  3.106086956521739 0.1833333333333333 0  3.122608695652174 0.1833333333333333 0  3.139130434782609 0.1833333333333333 0  3.155652173913043 0.1833333333333333 0  3.172173913043478 0.1833333333333333 0  3.188695652173913 0.1833333333333333 0  3.205217391304347 0.1833333333333333 0  3.221739130434782 0.1833333333333333 0  3.238260869565217 0.1833333333333333 0  3.254782608695652 0.1833333333333333 0  3.271304347826087 0.1833333333333333 0  3.287826086956521 0.1833333333333333 0  3.304347826086957 0.1833333333333333 0  3.320869565217391 0.1833333333333333 0  3.337391304347826 0.1833333333333333 0  3.353913043478261 0.1833333333333333 0  3.370434782608696 0.1833333333333333 0  3.386956521739131 0.1833333333333333 0  3.403478260869565 0.1833333333333333 0  3.089565217391304 0.2 0  3.106086956521739 0.2 0  3.122608695652174 0.2 0  3.139130434782609 0.2 0  3.155652173913043 0.2 0  3.172173913043478 0.2 0  3.188695652173913 0.2 0  3.205217391304347 0.2 0  3.221739130434782 0.2 0  3.238260869565217 0.2 0  3.254782608695652 0.2 0  3.271304347826087 0.2 0  3.287826086956521 0.2 0  3.304347826086957 0.2 0  3.320869565217391 0.2 0  3.337391304347826 0.2 0  3.353913043478261 0.2 0  3.370434782608696 0.2 0  3.386956521739131 0.2 0  3.403478260869565 0.2 0  3.419999999999999 0.2 0  3.106086956521739 0.2166666666666667 0  3.122608695652174 0.2166666666666667 0  3.139130434782609 0.2166666666666667 0  3.155652173913043 0.2166666666666667 0  3.172173913043478 0.2166666666666667 0  3.188695652173913 0.2166666666666667 0  3.205217391304347 0.2166666666666667 0  3.221739130434782 0.2166666666666667 0  3.238260869565217 0.2166666666666667 0  3.254782608695652 0.2166666666666667 0  3.271304347826087 0.2166666666666667 0  3.287826086956521 0.2166666666666667 0  3.304347826086957 0.2166666666666667 0  3.320869565217391 0.2166666666666667 0  3.337391304347826 0.2166666666666667 0  3.353913043478261 0.2166666666666667 0  3.370434782608696 0.2166666666666667 0  3.386956521739131 0.2166666666666667 0  3.403478260869565 0.2166666666666667 0  3.419999999999999 0.2166666666666667 0  3.436521739130435 0.2166666666666667 0  3.122608695652174 0.2333333333333333 0  3.139130434782609 0.2333333333333333 0  3.155652173913043 0.2333333333333333 0  3.172173913043478 0.2333333333333333 0  3.188695652173913 0.2333333333333333 0  3.205217391304347 0.2333333333333333 0  3.221739130434782 0.2333333333333333 0  3.238260869565217 0.2333333333333333 0  3.254782
[...]
<CellData  Scalars="sigma_m"> 
<DataArray  type="Float64"  Name="sigma_m"  format="ascii">3.3471654036159148e+06   8.9101252525722310e+06   3.1465074342756574e+06   8.9755944909453895e+06   2.7048380326657793e+06   8.7474136478781495e+06   1.9688894889289672e+06   7.4717193861696543e+06   2.1062607747735102e+06   4.7290812826614222e+06   2.7872072939150473e+06   3.5690521009119535e+06   3.1847175508259609e+06   3.0363381581735034e+06   3.0221772706744112e+06   2.8321253726892495e+06   2.3343471616088827e+06   2.6575366104344022e+06   1.3833024904228791e+06   1.9724807478436895e+06   5.9860353153471416e+05   1.3973343928746157e+06   5.1674222909189860e-04   1.0320871960835025e+00   0.0000000000000000e+00   0.0000000000000000e+00   0.0000000000000000e+00   0.0000000000000000e+00   0.0000000000000000e+00   0.0000000000000000e+00   0.0000000000000000e+00   0.0000000000000000e+00   7.9571610610785829e+06   7.3090119498515707e+06   8.0902493175413003e+06   7.1865214710072409e+06   8.1796494154516561e+06   1.0403394649933351e+07   7.5875784672149792e+06   1.1102789658455038e+07   4.7998888209754666e+06   6.0590515382769285e+06   3.4990590564994616e+06   2.8736654709081152e+06   3.1366775021870169e+06   2.2998260507272435e+06   2.9871418549271170e+06   2.7289473574452614e+06   2.9597877517250590e+06   3.1765514693580484e+06   2.9024504319385979e+06   3.7984335736844507e+06   4.4292531518422803e+06   5.1712662852536896e+06   1.0437776746730327e+00   1.3312324386272780e+05   2.9881509543534679e-09   1.1797350625124981e-03   0.0000000000000000e+00   0.0000000000000000e+00   0.0000000000000000e+00   0.0000000000000000e+00   0.0000000000000000e+00   0.0000000000000000e+00   0.0000000000000000e+00   2.8705499676904840e-04   5.6492923739262762e-04   1.4118989267761872e-07   1.0820173719412969e-02   1.2314450592610711e-06   6.1905137038161318e+00   1.4866441255241984e-04   1.0907184970956769e+05   6.4777911271272404e-01   2.4887026354658250e+06   1.6030171312833720e+05   2.2738080225800239e+06   9.5200873968507466e+05   2.4840218912081742e+06   1.8771070662227198e+06   2.7899528183232304e+06   2.4035860876215384e+06   3.0971954140134109e+06   3.3099958636561385e+06   4.2305614547038209e+06   5.1409260148879467e+06   6.2597845152483238e+06   1.0025289465061078e+07   1.2080244995288440e+02   8.4465987498902790e+06   1.9184950851090001e-04   1.0119466190006126e+02   0.0000000000000000e+00   3.3363669346064964e-04   0.0000000000000000e+00   8.6018122846084593e-10   0.0000000000000000e+00   0.0000000000000000e+00   0.0000000000000000e+00   0.0000000000000000e+00   0.0000000000000000e+00   0.0000000000000000e+00   0.0000000000000000e+00   0.0000000000000000e+00   0.0000000000000000e+00   1.0781776890854486e-06   0.0000000000000000e+00   2.5116815904887595e+01   4.1190788267147154e-04   2.2563956510054641e+06   2.5354113356587695e+05   1.5881765173409067e+06   1.5441993685491919e+06   2.0607770306802250e+06   1.0311255532130576e+06   2.7947141562103876e+06   1.2169336953265073e+06   3.6021127055675504e+06   2.0160584081131010e+06   5.4878619468102939e+06   4.9142766702716034e+06   1.1835228248969834e+07   9.6356828867395222e+06   1.3989267270873673e+07   1.2242546516986126e+07   3.7703993835574322e+04   9.4706973535675146e+06   2.2949392053143808e-01   3.0101115886075387e+05   5.4152045125523532e-08   1.0533084497613832e+00   0.0000000000000000e+00   7.6786912671685450e-08   0.0000000000000000e+00   0.0000000000000000e+00   0.0000000000000000e+00   0.0000000000000000e+00   0.0000000000000000e+00   0.0000000000000000e+00   0.0000000000000000e+00   0.0000000000000000e+00   5.2382139064033736e-03   7.6906796917061663e-05   5.5604558750842954e+05   7.6201444533271833e+03   1.2965824019429311e+06   1.1775920403365849e+06   1.5847836536183238e+06   1.3588578171207937e+06   2.2713551983976653e+06   2.2672976229750742e+06   3.2915213996760929e+06   3.4454414366104878e+06   3.2903561861237134e+06   4.1059396813734807e+06   4.5451210844352944e+06   3.9403180453727194e+06   7.3945743440318806e+06   5.1676712344030989e+06   8.3997942357472740e+06   7.2909722810670836e+06   9.1143842390905730e+06   8.8341936509251073e+06   4.6439444400177980e+06   1.0304418513902258e+07   2.8104581320076250e+00   4.4364388814353449e+06   1.4452072033425254e-08   2.1126608780567087e+00   6.4739967004913531e-09   0.0000000000000000e+00   0.0000000000000000e+00   0.0000000000000000e+00   0.0000000000000000e+00   1.5809705070018479e-08   2.3105593463898208e-09   2.9555485342339715e+01   4.0864314451972277e+00   8.1897752120984427e+05   2.0357228463732502e+06   5.3035545957698068e+05   1.6187043319131718e+06   1.0673050834580753e+06   2.3227175724864588e+06   2.2801306571374531e+06   4.1038758244594056e+06   3.7240645917293536e+06   7.9925747606045939e+06   6.4601802410961371e+06   1.6166803290831111e+07   4.6890931746221585e+06   7.9350533269815147e+06   2.8573277728792471e+06   6.8388204062432330e+06   2.3038768178885295e+06   4.9355282847649399e+06   4.3159971214741785e+06   4.1783995062531303e+06   6.2376214025407424e+06   5.6534132581988927e+06   6.9487933523240900e+06   6.9619961818685876e+06   1.2955422311793393e+06   8.1658192091085892e+06   3.7469956370215281e-02   7.6272370845157781e+05   7.0992800835073637e-03   0.0000000000000000e+00   0.0000000000000000e+00   0.0000000000000000e+00   2.7785995700260413e-01   1.4343445351085857e-01   2.6160692901228555e+06   3.3145987250582399e+06   2.6033970862248591e+06   3.0896095173358228e+06   2.3177049873643089e+06   2.2352179540867582e+06   3.6076317507243333e+06   2.7335830676686773e+06   3.8546149532671161e+06   4.4631246232729191e+06   1.0994810664729630e+05   1.5505480131533786e+03   1.5865621318983134e+04   4.6440984240624337e+00   1.3236010104773531e+06   6.3225955270413827e+01   8.2611437405842105e+06   2.1271406462898495e+05   6.1913025939478595e+06   9.2809328387678713e+06   3.0587144248198778e+06   4.2105408987469301e+06   1.2721674821495980e+06   3.1276624135079593e+06   3.0436872369995802e+06   3.2610323622073918e+06   4.7697850051001804e+06   4.7780040640283767e+06   5.3986340107053882e+06   6.3023168505347930e+06   3.7514336753993407e+03   7.2355615507437084e+06   3.6493259424605668e+02   1.0067273782603364e-01   1.1203354205512990e-01   3.5788041355817560e+06   3.7036234428772223e+06   4.3101830082707182e+06   4.5010607707960447e+06   2.4124501275110855e+06   2.7741126223865165e+06   1.8714850557667806e+06   1.5200338068460715e+06   2.1770742111424715e+06   1.0644852282276300e+06   7.1404896089903112e+00   6.2513043934343893e+00   6.5959811630551509e-07   4.5486428236878433e-08   0.0000000000000000e+00   0.0000000000000000e+00   3.4285867397806715e-08   0.0000000000000000e+00   1.6535817896515788e-03   0.0000000000000000e+00   1.4082503300183319e+03   2.1343351697057726e-04   5.2401585521895075e+06   5.4504809110599626e+02   4.9335383722029962e+06   4.1802522357984101e+06   2.2454854113528035e+06   3.0669038399125128e+06   1.2055439861028246e+06   2.0580198297235139e+06   2.9059177374592046e+06   2.9057091380363065e+06   4.5185609754119879e+06   4.4252827137713628e+06   1.7817430015233424e+06   4.8748369439297654e+06   5.7646659142025956e+05   4.1168927586569656e+06   4.5325676465720749e+06   4.5723575923750615e+06   2.8959569317701682e+06   2.7888469427747615e+06   1.2939582437621623e+06   1.0244469502100688e+06   6.6810865971832781e+05   2.8534514261231647e+05   5.6950386762346807e+02   3.0586414011159186e+03   1.1925599779760692e-08   1.8270679589042294e-08   0.0000000000000000e+00   0.0000000000000000e+00   0.0000000000000000e+00   0.0000000000000000e+00   0.0000000000000000e+00   0.0000000000000000e+00   0.0000000000000000e+00   0.0000000000000000e+00   0.0000000000000000e+00   0.0000000000000000e+00   4.8177891507661554e-06   0.0000000000000000e+00   6.4814857819943413e+01   2.6487959653189418e-06   3.5383307507508211e+06   7.2083561370170514e+01   3.0411842134369127e+06   2.0731238107907469e+06   9.8562778649428347e+05   1.4417111546275883e+06   1.6697688119252266e+06   2.1704656658755084e+06   3.0178400960630784e+06   3.2550407296272842e+06   4.0200361412285874e+06   4.6902444595423527e+06   4.7308229394647097e+06   2.8173263241757620e+06   1.2120554593690110e+06   8.1307490793590818e+05   1.0305843255264045e+06   8.7206103579177370e+05   3.5741106481731293e+05   3.3502924190371158e+05   5.3576528865755080e-06   3.8375822612675898e-05   0.0000000000000000e+00   0.0000000000000000e+00   0.0000000000000000e+00   0.0000000000000000e+00   0.0000000000000000e+00   0.0000000000000000e+00   0.0000000000000000e+00   0.0000000000000000e+00   0.0000000000000000e+00   0.0000000000000000e+00   0.0000000000000000e+00   0.0000000000000000e+00   0.0000000000000000e+00   0.0000000000000000e+00   0.0000000000000000e+00   0.0000000000000000e+00   2.4796770460085433e-06   0.0000000000000000e+00   2.6645416044114234e+02   5.4171005511381995e-06   2.9323679661834841e+06   1.2952359688358883e+03   1.1156424644148524e+06   8.7994697420011240e+05   9.5959348265847075e+05   1.0842707976331124e+06   2.4311728045832543e+06   2.5929996565703810e+06   3.7832185362861296e+06   3.9650632359783938e+06   4.2162501972108185e+06   9.6848867993080441e+05   1.6379167911631071e+06   1.5273329491393063e+06   1.3799218687533367e-02   3.5835784148793251e-02   0.0000000000000000e+00   0.0000000000000000e+00   0.0000000000000000e+00   0.0000000000000000e+00   0.0000000000000000e+00   0.0000000000000000e+00   0.0000000000000000e+00   0.0000000000000000e+00   0.0000000000000000e+00   0.0000000000000000e+00   0.0000000000000000e+00   0.0000000000000000e+00   0.0000000000000000e+00   0.0000000000000000e+00   0.0000000000000000e+00   0.0000000000000000e+00   0.0000000000000000e+00   0.0000000000000000e+00   0.0000000000000000e+00   0.0000000000000000e+00   0.0000000000000000e+00   0.0000000000000000e+00   8.8152691510118915e-04   0.0000000000000000e+00   1.2451248720780466e+05   9.7710256032633482e-03   1.3281115624007217e+06   1.4357655538265104e+06   7.6810219788978144e+05   7.8492391897351923e+05   2.0294289570429539e+06   2.1963677193535347e+06   2.7952031665229644e+06   2.8063151663430058e+06   2.7432273087325250e+06   1.9431267413194472e-01   0.0000000000000000e+00   0.0000000000000000e+00   0.0000000000000000e+00   0.0000000000000000e+00   0.0000000000000000e+00   0.0000000000000000e+00   0.0000000000000000e+00   0.0000000000000000e+00   0.0000000000000000e+00   0.0000000000000000e+00   0.0000000000000000e+00   0.0000000000000000e+00   0.0000000000000000e+00   0.0000000000000000e+00   0.0000000000000000e+00   0.0000000000000000e+00   0.0000000000000000e+00   0.0000000000000000e+00   0.0000000000000000e+00   0.0000000000000000e+00   0.0000000000000000e+00   0.0000000000000000e+00   0.0000000000000000e+00   0.0000000000000000e+00   0.0000000000000000e+00   0.0000000000000000e+00   1.4488588644998026e-08   0.0000000000000000e+00   6.0080006773432871e+01   2.4602482716861791e-07   8.4935901229646301e+05   1.7807533323130974e+03   8.6848549082513619e+05   8.0366957752125850e+05   1.7846935666419107e+06   1.8539364051945284e+06   2.2311707336782585e+06   2.3023483030761839e+06   2.6256934914132832e+06   0.0000000000000000e+00   0.0000000000000000e+00   0.0000000000000000e+00   0.0000000000000000e+00   0.0000000000000000e+00   0.0000000000000000e+00   0.0000000000000000e+00   0.0000000000000000e+00   0.0000000000000000e+00   0.0000000000000000e+00   0.0000000000000000e+00   0.0000000000000000e+00   0.0000000000000000e+00   0.0000000000000000e+00   0.0000000000000000e+00   0.0000000000000000e+00   0.0000000000000000e+00   0.0000000000000000e+00   0.0000000000000000e+00   0.0000000000000000e+00   0.0000000000000000e+00   0.0000000000000000e+00   0.0000000000000000e+00   0.0000000000000000e+00   0.0000000000000000e+00   0.0000000000000000e+00   0.0000000000000000e+00   0.0000000000000000e+00   0.0000000000000000e+00   2.6038615114465421e-02   0.0000000000000000e+00   1.2153532769594919e+05   1.2619626900731828e+00   1.1126759904598130e+06   8.0615668978194112e+05   1.7258449886288370e+06   1.7773804056327508e+06   2.1848222651144080e+06   2.2371837767120493e+06   2.4408161310819564e+06   0.0000000000000000e+00   0.0000000000000000e+00   0.0000000000000000e+00   0.0000000000000000e+00   0.0000000000000000e+00   0.0000000000000000e+00   0.0000000000000000e+00   0.0000000000000000e+00   0.0000000000000000e+00   0.0000000000000000e+00   0.0000000000000000e+00   0.0000000000000000e+00   0.0000000000000000e+00   0.0000000000000000e+00   0.0000000000000000e+00   0.0000000000000000e+00   0.0000000000000000e+00   0.0000000000000000e+00   0.0000000000000000e+00   0.0000000000000000e+00   0.0000000000000000e+00   0.0000000000000000e+00   0.0000000000000000e+00   0.0000000000000000e+00   0.0000000000000000e+00   0.0000000000000000e+00   0.0000000000000000e+00   0.0000000000000000e+00   0.0000000000000000e+00   1.9889131349477863e-05   0.0000000000000000e+00   4.2731613946084246e+04   1.0691817764807703e-03   1.2428987748932475e+06   1.4139185581815487e+06   1.9550237901510017e+06   2.0120547398774798e+06   2.2199111320947795e+06   2.2011847498727441e+06   1.6847151001347660e+06   0.0000000000000000e+00   0.0000000000000000e+00   0.0000000000000000e+00   0.0000000000000000e+00   0.0000000000000000e+00   0.0000000000000000e+00   0.0000000000000000e+00   0.0000000000000000e+00   0.0000000000000000e+00   0.0000000000000000e+00   0.0000000000000000e+00   0.0000000000000000e+00   0.0000000000000000e+00   0.0000000000000000e+00   0.0000000000000000e+00   0.0000000000000000e+00   0.0000000000000000e+00   0.0000000000000000e+00   0.0000000000000000e+00   0.0000000000000000e+00   0.0000000000000000e+00   0.0000000000000000e+00   0.0000000000000000e+00   0.0000000000000000e+00   0.0000000000000000e+00   0.0000000000000000e+00   0.0000000000000000e+00   0.0000000000000000e+00   0.0000000000000000e+00   1.6353622049006154e-08   0.0000000000000000e+00   3.4259035732114467e+02   8.7550207075137531e-07   2.1509987831344013e+06   1.7724266178706610e+04   2.8354808759016553e+06   2.5803419084911128e+06   2.3290491045287075e+06   2.2473910729311570e+06   1.5607654553136064e+06   0.0000000000000000e+00   0.0000000000000000e+00   0.0000000000000000e+00   0.0000000000000000e+00   0.0000000000000000e+00   0.0000000000000000e+00   0.0000000000000000e+00   0.0000000000000000e+00   0.0000000000000000e+00   0.0000000000000000e+00   0.0000000000000000e+00   0.0000000000000000e+00   0.0000000000000000e+00   0.0000000000000000e+00   0.0000000000000000e+00   0.0000000000000000e+00   0.0000000000000000e+00   0.0000000000000000e+00   0.0000000000000000e+00   0.0000000000000000e+00   0.0000000000000000e+00   0.0000000000000000e+00   0.0000000000000000e+00   0.0000000000000000e+00   0.0000000000000000e+00   0.0000000000000000e+00   0.0000000000000000e+00   0.0000000000000000e+00   0.0000000000000000e+00   0.0000000000000000e+00   0.0000000000000000e+00   7.3625395961979390e-01   0.0000000000000000e+00   2.3056975931466594e+06   4.4936270976631356e+01   3.0118172947792388e+06   2.5563746146423575e+06   2.4890233476441666e+06   2.3838737746241679e+06   1.7414887776149299e+06   0.0000000000000000e+00   0.0000000000000000e+00   0.0000000000000000e+00   0.0000000000000000e+00   0.0000000000000000e+00   0.0000000000000000e+00   0.0000000000000000e+00   0.0000000000000000e+00   0.0000000000000000e+00   0.0000000000000000e+00   0.0000000000000000e+00   0.0000000000000000e+00   0.0000000000000000e+00   0.0000000000000000e+00   0.0000000000000000e+00   0.0000000000000000e+00   0.0000000000000000e+00   0.0000000000000000e+00   0.0000000000000000e+00   0.0000000000000000e+00   0.0000000000000000e+00   0.0000000000000000e+00   0.0000000000000000e+00   0.0000000000000000e+00   0.0000000000000000e+00   0.0000000000000000e+00   0.0000000000000000e+00   0.0000000000000000e+00   0.0000000000000000e+00   0.0000000000000000e+00   0.0000000000000000e+00   1.2035751067928707e-03   0.0000000000000000e+00   1.9904546820913683e+05   6.3458353414456770e-02   3.1647292082427084e+06   1.2285544982485231e+06   3.2723654022839558e+06   3.2952575881691710e+06   2.2505160976239732e+06   0.0000000000000000e+00   0.0000000000000000e+00   0.0000000000000000e+00   0.0000000000000000e+00   0.0000000000000000e+00   0.0000000000000000e+00   0.0000000000000000e+00   0.0000000000000000e+00   0.0000000000000000e+00   0.0000000000000000e+00   0.0000000000000000e+00   0.0000000000000000e+00   0.0000000000000000e+00   0.0000000000000000e+00   0.0000000000000000e+00   0.0000000000000000e+00   0.0000000000000000e+00   0.0000000000000000e+00   0.0000000000000000e+00   0.0000000000000000e+00   0.0000000000000000e+00   0.0000000000000000e+00   0.0000000000000000e+00   0.0000000000000000e+00   0.0000000000000000e+00   0.0000000000000000e+00   0.0000000000000000e+00   0.0000000000000000e+00   0.0000000000000000e+00   0.0000000000000000e+00   0.0000000000000000e+00   7.6851153884440403e-07   0.0000000000000000e+00   3.4058605936816061e+03   2.5157751943366043e-05   5.2677814379196540e+06   6.8193595694674266e+04   4.9806313610132122e+06   4.5523221204979997e+06   2.7368005593724796e+06   0.0000000000000000e+00   0.0000000000000000e+00   0.0000000000000000e+00   0.0000000000000000e+00   0.0000000000000000e+00   0.0000000000000000e+00   0.0000000000000000e+00   0.0000000000000000e+00   0.0000000000000000e+00   0.0000000000000000e+00   0.0000000000000000e+00   0.0000000000000000e+00   0.0000000000000000e+00   0.0000000000000000e+00   0.0000000000000000e+00   0.0000000000000000e+00   0.0000000000000000e+00   0.0000000000000000e+00   0.0000000000000000e+00   0.0000000000000000e+00   0.0000000000000000e+00   0.0000000000000000e+00   0.0000000000000000e+00   0.0000000000000000e+00   0.0000000000000000e+00   0.0000000000000000e+00   0.0000000000000000e+00   0.0000000000000000e+00   0.0000000000000000e+00   0.0000000000000000e+00   0.0000000000000000e+00   0.0000000000000000e+00   0.0000000000000000e+00   9.8354744979964359e-01   1.7221194225497565e-09   4.8094465532130832e+06   2.1789525087220689e+01   5.2826521820977544e+06   4.1106119774916396e+06   3.5635017205967251e+06   0.0000000000000000e+00   0.0000000000000000e+00   0.0000000000000000e+00   0.0000000000000000e+00   0.0000000000000000e+00   0.0000000000000000e+00   0.0000000000000000e+00   0.0000000000000000e+00   0.0000000000000000e+00   0.0000000000000000e+00   0.0000000000000000e+00   0.0000000000000000e+00   0.0000000000000000e+00   0.0000000000000000e+00   0.0000000000000000e+00   0.0000000000000000e+00   0.0000000000000000e+00   0.0000000000000000e+00   0.0000000000000000e+00   0.0000000000000000e+00   0.0000000000000000e+00   0.0000000000000000e+00   0.0000000000000000e+00   0.0000000000000000e+00   0.0000000000000000e+00   0.0000000000000000e+00   0.0000000000000000e+00   0.0000000000000000e+00   0.0000000000000000e+00   0.0000000000000000e+00   0.0000000000000000e+00   0.0000000000000000e+00   0.0000000000000000e+00   1.1307204637739603e-04   0.0000000000000000e+00   7.3309032253977872e+04   2.6914635581376085e-03   5.9542279374673674e+06   7.4532470871811791e+05   4.9010418410900189e+06   0.0000000000000000e+00   0.0000000000000000e+00   0.0000000000000000e+00   0.0000000000000000e+00   0.0000000000000000e+00   0.0000000000000000e+00   0.0000000000000000e+00   0.0000000000000000e+00   0.0000000000000000e+00   0.0000000000000000e+00   0.0000000000000000e+00   0.0000000000000000e+00   0.0000000000000000e+00   0.0000000000000000e+00   0.0000000000000000e+00   0.0000000000000000e+00   0.0000000000000000e+00   0.0000000000000000e+00   0.0000000000000000e+00   0.0000000000000000e+00   0.0000000000000000e+00   0.0000000000000000e+00   0.0000000000000000e+00   0.0000000000000000e+00   0.0000000000000000e+00   0.0000000000000000e+00   0.0000000000000000e+00   0.0000000000000000e+00   0.0000000000000000e+00   0.0000000000000000e+00   0.0000000000000000e+00   0.0000000000000000e+00   0.00000000