<?xml version="1.0"?>
<VTKFile type="UnstructuredGrid"  version="0.1"  >
<UnstructuredGrid>
<Piece  NumberOfPoints="640" NumberOfCells="1181">
<Points>
<DataArray  type="Float64"  NumberOfComponents="3"  format="ascii">2.973913043478261 0 0  2.990434782608696 0 0  2.990434782608696 0.01666666666666667 0  2.973913043478261 0.01666666666666667 0  3.006956521739131 0 0  3.006956521739131 0.01666666666666667 0  3.023478260869565 0 0  3.023478260869565 0.01666666666666667 0  3.04 0 0  3.04 0.01666666666666667 0  3.056521739130435 0 0  3.056521739130435 0.01666666666666667 0  3.073043478260869 0 0  3.073043478260869 0.01666666666666667 0  3.089565217391304 0 0  3.089565217391304 0.01666666666666667 0  3.106086956521739 0 0  3.106086956521739 0.01666666666666667 0  3.122608695652174 0 0  3.122608695652174 0.01666666666666667 0  3.139130434782609 0 0  3.139130434782609 0.01666666666666667 0  3.155652173913043 0 0  3.155652173913043 0.01666666666666667 0  3.172173913043478 0 0  3.172173913043478 0.01666666666666667 0  3.188695652173913 0 0  3.188695652173913 0.01666666666666667 0  3.205217391304347 0 0  3.205217391304347 0.01666666666666667 0  3.221739130434782 0 0  3.221739130434782 0.01666666666666667 0  3.238260869565217 0 0  3.238260869565217 0.01666666666666667 0  2.990434782608696 0.03333333333333333 0  2.973913043478261 0.03333333333333333 0  3.006956521739131 0.03333333333333333 0  3.023478260869565 0.03333333333333333 0  3.04 0.03333333333333333 0  3.056521739130435 0.03333333333333333 0  3.073043478260869 0.03333333333333333 0  3.089565217391304 0.03333333333333333 0  3.106086956521739 0.03333333333333333 0  3.122608695652174 0.03333333333333333 0  3.139130434782609 0.03333333333333333 0  3.155652173913043 0.03333333333333333 0  3.172173913043478 0.03333333333333333 0  3.188695652173913 0.03333333333333333 0  3.205217391304347 0.03333333333333333 0  3.221739130434782 0.03333333333333333 0  3.238260869565217 0.03333333333333333 0  3.254782608695652 0.03333333333333333 0  2.990434782608696 0.05 0  3.006956521739131 0.05 0  3.023478260869565 0.05 0  3.04 0.05 0  3.056521739130435 0.05 0  3.073043478260869 0.05 0  3.089565217391304 0.05 0  3.106086956521739 0.05 0  3.122608695652174 0.05 0  3.139130434782609 0.05 0  3.155652173913043 0.05 0  3.172173913043478 0.05 0  3.188695652173913 0.05 0  3.205217391304347 0.05 0  3.221739130434782 0.05 0  3.238260869565217 0.05 0  3.254782608695652 0.05 0  3.271304347826087 0.05 0  3.006956521739131 0.06666666666666667 0  2.990434782608696 0.06666666666666667 0  3.023478260869565 0.06666666666666667 0  3.04 0.06666666666666667 0  3.056521739130435 0.06666666666666667 0  3.073043478260869 0.06666666666666667 0  3.089565217391304 0.06666666666666667 0  3.106086956521739 0.06666666666666667 0  3.122608695652174 0.06666666666666667 0  3.139130434782609 0.06666666666666667 0  3.155652173913043 0.06666666666666667 0  3.172173913043478 0.06666666666666667 0  3.188695652173913 0.06666666666666667 0  3.205217391304347 0.06666666666666667 0  3.221739130434782 0.06666666666666667 0  3.238260869565217 0.06666666666666667 0  3.254782608695652 0.06666666666666667 0  3.271304347826087 0.06666666666666667 0  3.287826086956521 0.06666666666666667 0  3.006956521739131 0.08333333333333333 0  3.023478260869565 0.08333333333333333 0  3.04 0.08333333333333333 0  3.056521739130435 0.08333333333333333 0  3.073043478260869 0.08333333333333333 0  3.089565217391304 0.08333333333333333 0  3.106086956521739 0.08333333333333333 0  3.122608695652174 0.08333333333333333 0  3.139130434782609 0.08333333333333333 0  3.155652173913043 0.08333333333333333 0  3.172173913043478 0.08333333333333333 0  3.188695652173913 0.08333333333333333 0  3.205217391304347 0.08333333333333333 0  3.221739130434782 0.08333333333333333 0  3.238260869565217 0.08333333333333333 0  3.254782608695652 0.08333333333333333 0  3.271304347826087 0.08333333333333333 0  3.287826086956521 0.08333333333333333 0  3.304347826086957 0.08333333333333333 0  3.023478260869565 0.1 0  3.006956521739131 0.1 0  3.04 0.1 0  3.056521739130435 0.1 0  3.073043478260869 0.1 0  3.089565217391304 0.1 0  3.106086956521739 0.1 0  3.122608695652174 0.1 0  3.139130434782609 0.1 0  3.155652173913043 0.1 0  3.172173913043478 0.1 0  3.188695652173913 0.1 0  3.205217391304347 0.1 0  3.221739130434782 0.1 0  3.238260869565217 0.1 0  3.254782608695652 0.1 0  3.271304347826087 0.1 0  3.287826086956521 0.1 0  3.304347826086957 0.1 0  3.320869565217391 0.1 0  3.023478260869565 0.1166666666666667 0  3.04 0.1166666666666667 0  3.056521739130435 0.1166666666666667 0  3.073043478260869 0.1166666666666667 0  3.089565217391304 0.1166666666666667 0  3.106086956521739 0.1166666666666667 0  3.122608695652174 0.1166666666666667 0  3.139130434782609 0.1166666666666667 0  3.155652173913043 0.1166666666666667 0  3.172173913043478 0.1166666666666667 0  3.188695652173913 0.1166666666666667 0  3.205217391304347 0.1166666666666667 0  3.221739130434782 0.1166666666666667 0  3.238260869565217 0.1166666666666667 0  3.254782608695652 0.1166666666666667 0  3.271304347826087 0.1166666666666667 0  3.287826086956521 0.1166666666666667 0  3.304347826086957 0.1166666666666667 0  3.320869565217391 0.1166666666666667 0  3.337391304347826 0.1166666666666667 0  3.04 0.1333333333333333 0  3.023478260869565 0.1333333333333333 0  3.056521739130435 0.1333333333333333 0  3.073043478260869 0.1333333333333333 0  3.089565217391304 0.1333333333333333 0  3.106086956521739 0.1333333333333333 0  3.122608695652174 0.1333333333333333 0  3.139130434782609 0.1333333333333333 0  3.155652173913043 0.1333333333333333 0  3.172173913043478 0.1333333333333333 0  3.188695652173913 0.1333333333333333 0  3.205217391304347 0.1333333333333333 0  3.221739130434782 0.1333333333333333 0  3.238260869565217 0.1333333333333333 0  3.254782608695652 0.1333333333333333 0  3.271304347826087 0.1333333333333333 0  3.287826086956521 0.1333333333333333 0  3.304347826086957 0.1333333333333333 0  3.320869565217391 0.1333333333333333 0  3.337391304347826 0.1333333333333333 0  3.353913043478261 0.1333333333333333 0  3.04 0.15 0  3.056521739130435 0.15 0  3.073043478260869 0.15 0  3.089565217391304 0.15 0  3.106086956521739 0.15 0  3.122608695652174 0.15 0  3.139130434782609 0.15 0  3.155652173913043 0.15 0  3.172173913043478 0.15 0  3.188695652173913 0.15 0  3.205217391304347 0.15 0  3.221739130434782 0.15 0  3.238260869565217 0.15 0  3.254782608695652 0.15 0  3.271304347826087 0.15 0  3.287826086956521 0.15 0  3.304347826086957 0.15 0  3.320869565217391 0.15 0  3.337391304347826 0.15 0  3.353913043478261 0.15 0  3.370434782608696 0.15 0  3.056521739130435 0.1666666666666667 0  3.073043478260869 0.1666666666666667 0  3.089565217391304 0.1666666666666667 0  3.106086956521739 0.1666666666666667 0  3.122608695652174 0.1666666666666667 0  3.139130434782609 0.1666666666666667 0  3.155652173913043 0.1666666666666667 0  3.172173913043478 0.1666666666666667 0  3.188695652173913 0.1666666666666667 0  3.205217391304347 0.1666666666666667 0  3.221739130434782 0.1666666666666667 0  3.238260869565217 0.1666666666666667 0  3.254782608695652 0.1666666666666667 0  3.271304347826087 0.1666666666666667 0  3.287826086956521 0.1666666666666667 0  3.304347826086957 0.1666666666666667 0  3.320869565217391 0.1666666666666667 0  3.337391304347826 0.1666666666666667 0  3.353913043478261 0.1666666666666667 0  3.370434782608696 0.1666666666666667 0  3.386956521739131 0.1666666666666667 0  3.073043478260869 0.1833333333333333 0  3.089565217391304 0.1833333333333333 0  3.106086956521739 0.1833333333333333 0  3.122608695652174 0.1833333333333333 0  3.139130434782609 0.1833333333333333 0  3.155652173913043 0.1833333333333333 0  3.172173913043478 0.1833333333333333 0  3.188695652173913 0.1833333333333333 0  3.205217391304347 0.1833333333333333 0  3.221739130434782 0.1833333333333333 0  3.238260869565217 0.1833333333333333 0  3.254782608695652 0.1833333333333333 0  3.271304347826087 0.1833333333333333 0  3.287826086956521 0.1833333333333333 0  3.304347826086957 0.1833333333333333 0  3.320869565217391 0.1833333333333333 0  3.337391304347826 0.1833333333333333 0  3.353913043478261 0.1833333333333333 0  3.370434782608696 0.1833333333333333 0  3.386956521739131 0.1833333333333333 0  3.403478260869565 0.1833333333333333 0  3.089565217391304 0.2 0  3.106086956521739 0.2 0  3.122608695652174 0.2 0  3.139130434782609 0.2 0  3.155652173913043 0.2 0  3.172173913043478 0.2 0  3.188695652173913 0.2 0  3.205217391304347 0.2 0  3.221739130434782 0.2 0  3.238260869565217 0.2 0  3.254782608695652 0.2 0  3.271304347826087 0.2 0  3.287826086956521 0.2 0  3.304347826086957 0.2 0  3.320869565217391 0.2 0  3.337391304347826 0.2 0  3.353913043478261 0.2 0  3.370434782608696 0.2 0  3.386956521739131 0.2 0  3.403478260869565 0.2 0  3.419999999999999 0.2 0  3.106086956521739 0.2166666666666667 0  3.122608695652174 0.2166666666666667 0  3.139130434782609 0.2166666666666667 0  3.155652173913043 0.2166666666666667 0  3.172173913043478 0.2166666666666667 0  3.188695652173913 0.2166666666666667 0  3.205217391304347 0.2166666666666667 0  3.221739130434782 0.2166666666666667 0  3.238260869565217 0.2166666666666667 0  3.254782608695652 0.2166666666666667 0  3.271304347826087 0.2166666666666667 0  3.287826086956521 0.2166666666666667 0  3.304347826086957 0.2166666666666667 0  3.320869565217391 0.2166666666666667 0  3.337391304347826 0.2166666666666667 0  3.353913043478261 0.2166666666666667 0  3.370434782608696 0.2166666666666667 0  3.386956521739131 0.2166666666666667 0  3.403478260869565 0.2166666666666667 0  3.419999999999999 0.2166666666666667 0  3.436521739130435 0.2166666666666667 0  3.122608695652174 0.2333333333333333 0  3.139130434782609 0.2333333333333333 0  3.155652173913043 0.2333333333333333 0  3.172173913043478 0.2333333333333333 0  3.188695652173913 0.2333333333333333 0  3.205217391304347 0.2333333333333333 0  3.221739130434782 0.2333333333333333 0  3.238260869565217 0.2333333333333333 0  3.254782
[...]
<CellData  Scalars="rho_bar"> 
<DataArray  type="Float64"  Name="rho_bar"  format="ascii">9.9999999999987332e-01   9.9999999999824152e-01   9.9999999999992462e-01   9.9999999999821376e-01   9.9999999999999289e-01   9.9999999999956679e-01   9.9999999999999978e-01   9.9999999999998601e-01   1.0000000000000000e+00   1.0000000000000000e+00   9.9999999999999989e-01   9.9999999999999989e-01   1.0000000000000000e+00   1.0000000000000000e+00   9.9999999999999989e-01   9.9999999999999989e-01   9.9999999999999989e-01   9.9999999999999989e-01   9.9999999999854106e-01   9.9999999999999822e-01   8.5477334486490320e-01   9.9995171270905603e-01   3.7119932342436859e-06   1.1110295459909389e-02   4.8757294498121455e-15   4.3404724259232816e-12   0.0000000000000000e+00   0.0000000000000000e+00   0.0000000000000000e+00   0.0000000000000000e+00   0.0000000000000000e+00   0.0000000000000000e+00   9.8773974447115642e-01   4.9248979691939931e-01   9.9461984177039764e-01   5.1503318310815860e-01   9.9975026171137116e-01   6.9133440106517507e-01   9.9999949415009104e-01   9.8167149955919319e-01   9.9999999996681799e-01   9.9999342453239648e-01   9.9999999999999944e-01   9.9999999992698696e-01   1.0000000000000000e+00   9.9999999999999989e-01   9.9999999999999989e-01   9.9999999999999989e-01   9.9999999999999989e-01   9.9999999999999989e-01   9.9999999999998235e-01   1.0000000000000000e+00   9.9980074867176028e-01   9.9999999932498296e-01   1.2694194679673827e-02   7.8634097606555575e-01   3.6918801349372643e-11   1.4801608594544600e-05   9.2518585385429707e-18   1.5172770447454318e-12   0.0000000000000000e+00   0.0000000000000000e+00   0.0000000000000000e+00   0.0000000000000000e+00   0.0000000000000000e+00   3.2669024122485481e-06   7.5101313838551072e-06   1.8417492438545699e-09   1.7511507543883459e-04   1.9623641711596921e-08   8.0175310892914659e-02   3.0855619787273358e-06   6.5334075902553035e-01   1.7546904028158467e-02   9.9999661062925937e-01   6.6850502987193228e-01   9.9999999999988176e-01   9.9999953150410159e-01   9.9999999999999989e-01   9.9999999999998512e-01   9.9999999999999989e-01   9.9999999999999989e-01   9.9999999999999989e-01   9.9999999999999989e-01   9.9999999972572107e-01   9.9999999999999767e-01   9.8570919568810689e-01   9.9999999608877721e-01   2.3826061595304532e-01   9.5120444695193240e-01   2.5870271438318175e-06   2.4120588950223432e-01   6.9995675922029916e-12   6.2081358885116922e-06   9.2518585385429707e-18   1.5305580876775100e-11   0.0000000000000000e+00   9.2518585385429707e-18   0.0000000000000000e+00   0.0000000000000000e+00   0.0000000000000000e+00   3.7007434154171876e-17   0.0000000000000000e+00   1.4439375621104017e-13   2.7755575615628914e-17   3.8713104028031964e-08   1.2444952475950306e-12   2.5601988201020531e-01   1.9663163930113324e-05   9.9999448112335176e-01   8.2300582686300083e-01   9.9999999999992406e-01   9.9999999956784358e-01   1.0000000000000000e+00   9.9999999999999978e-01   9.9999999999999989e-01   9.9999999999999989e-01   9.9999999999999911e-01   1.0000000000000000e+00   9.9999999999070677e-01   9.9999999999999800e-01   9.9999963574471262e-01   9.9999999999036748e-01   9.7652353971064587e-01   9.9999987549029723e-01   3.9759311960974120e-01   9.9616696637466828e-01   5.2507053526106200e-03   6.3921328190260840e-01   1.1844160559733770e-09   1.9781578390079140e-02   4.6259292692714852e-17   1.7689780473784109e-09   3.7007434154171889e-17   0.0000000000000000e+00   0.0000000000000000e+00   0.0000000000000000e+00   0.0000000000000000e+00   0.0000000000000000e+00   7.1272617437519616e-13   1.0806170773018190e-14   3.3240492477443206e-04   4.5770531258611706e-06   9.5502418777199793e-01   5.5923483041779709e-01   9.9999999987094057e-01   9.9999999632598791e-01   9.9999999999999956e-01   9.9999999999999667e-01   9.9999999999999989e-01   9.9999999999999944e-01   9.9999999999999956e-01   9.9999999999999856e-01   9.9999999999999911e-01   9.9999999999999767e-01   9.9999999999999523e-01   9.9999999999999822e-01   9.9999999999972145e-01   9.9999999999999611e-01   9.9999999980824938e-01   9.9999999999985922e-01   9.9999625043068729e-01   9.9999999992494726e-01   7.0621607545932852e-01   9.9999845736637138e-01   6.4631383883837490e-02   7.1898963113130221e-01   4.3057021836823150e-10   4.8597523609155063e-02   1.5347070836391194e-10   0.0000000000000000e+00   0.0000000000000000e+00   0.0000000000000000e+00   0.0000000000000000e+00   5.4256831435080731e-10   6.7754875783994820e-11   2.2661780373824691e-01   1.1705029117011606e-01   9.9740662131950142e-01   9.8492662011592402e-01   9.9999999994478816e-01   9.9999999984083832e-01   9.9999999999972555e-01   9.9999999999944666e-01   9.9999999978466680e-01   9.9999999887625812e-01   9.9999998312401628e-01   9.9999935712611576e-01   9.9999999537410333e-01   9.9999778787501536e-01   9.9999999998073619e-01   9.9999993118288388e-01   9.9999999999994671e-01   9.9999999993514455e-01   9.9999999999999822e-01   9.9999999999991840e-01   9.9999999999999234e-01   9.9999999999999811e-01   9.9999999999589206e-01   9.9999999999999334e-01   9.9999953313970880e-01   9.9999999999569544e-01   6.7641607020317962e-01   9.9999926114791904e-01   9.9270457737565777e-04   6.1139075594935643e-01   1.6109333561906133e-04   0.0000000000000000e+00   1.6816178079655706e-12   6.8299995289085779e-13   9.1300308763731311e-03   4.1343718616249714e-03   6.8503032531303065e-01   6.7621413981191514e-01   9.9999996037948202e-01   9.9999994995780050e-01   9.9999999999885425e-01   9.9999999999905487e-01   9.9999990107744952e-01   9.9999992714320407e-01   8.0851202983224402e-01   7.5023704489974541e-01   6.5010945493606387e-01   3.2610066499885720e-01   6.2810963713515366e-01   4.6353973724431542e-02   6.6778129484563786e-01   2.1008754540937549e-01   9.9884762063258314e-01   4.4956467419604434e-01   9.9999999270148399e-01   9.9541198434991485e-01   9.9999999999940414e-01   9.9999998650196076e-01   9.9999999999999667e-01   9.9999999999920275e-01   9.9999999999999034e-01   9.9999999999999545e-01   9.9999999997496847e-01   9.9999999999998568e-01   9.9995570167942482e-01   9.9999999994738586e-01   4.9365205983919752e-01   9.9982307895979627e-01   3.1808133091901308e-01   2.7047324676542912e-03   2.6420424724452789e-03   6.5952075931702714e-01   6.6005797673344002e-01   9.9999976686820158e-01   9.9999980206885830e-01   9.9999999999957068e-01   9.9999999999971678e-01   9.9999999912009196e-01   9.9999999967761699e-01   7.4110182883003273e-01   7.9860686395220504e-01   6.0675604742236287e-02   5.3914674194131096e-02   7.0022191378527063e-09   4.2945469402866370e-10   4.5596397028428255e-12   1.8115139018467136e-14   2.0445186284708447e-10   7.3644793966802029e-15   1.1186875060455643e-05   6.1967745749550821e-12   3.2417119636418745e-01   1.4375233307421331e-06   8.8705904270095559e-01   2.8203842047246480e-01   9.9999990979385411e-01   8.5506606311768851e-01   9.9999999999804745e-01   9.9999988746055113e-01   9.9999999999999012e-01   9.9999999999776690e-01   9.9999999999982603e-01   9.9999999999998601e-01   9.9999999285348362e-01   9.9999999999964151e-01   7.9438982737211350e-01   9.9999997245238836e-01   6.4271745249188528e-01   6.6151486729658115e-01   9.9999985735218766e-01   9.9999989476950102e-01   9.9999999999992062e-01   9.9999999999994327e-01   9.9999999999894296e-01   9.9999999999949085e-01   9.9878484896318731e-01   9.9977885326355598e-01   2.8574709910969465e-01   3.3322408708460682e-01   1.0362753248098025e-10   1.5955434196079915e-10   0.0000000000000000e+00   0.0000000000000000e+00   0.0000000000000000e+00   0.0000000000000000e+00   0.0000000000000000e+00   0.0000000000000000e+00   0.0000000000000000e+00   0.0000000000000000e+00   4.2188474935755933e-15   0.0000000000000000e+00   2.6365153856418758e-08   1.3785269222429022e-15   1.6147171117317682e-01   1.4923968089108897e-08   8.2979517345793574e-01   1.5861131169421294e-01   9.9999995666924790e-01   8.4981720996621102e-01   9.9999999999910538e-01   9.9999996959625015e-01   9.9999999999996636e-01   9.9999999999922906e-01   9.9999999996679778e-01   9.9999999999994649e-01   9.9987242413405675e-01   9.9999999989214927e-01   9.9883573406751036e-01   9.9999999999998290e-01   9.9999999999997835e-01   9.9999999999998301e-01   9.9999938198387450e-01   9.9999974665447744e-01   4.4760751651827430e-01   5.9342113490639714e-01   5.4158280240098236e-08   3.0120547593141345e-07   0.0000000000000000e+00   0.0000000000000000e+00   0.0000000000000000e+00   0.0000000000000000e+00   0.0000000000000000e+00   0.0000000000000000e+00   0.0000000000000000e+00   0.0000000000000000e+00   0.0000000000000000e+00   0.0000000000000000e+00   0.0000000000000000e+00   0.0000000000000000e+00   0.0000000000000000e+00   0.0000000000000000e+00   1.9428902930940237e-16   0.0000000000000000e+00   1.3391277762601440e-08   2.1279274638648835e-16   2.6179765284452561e-01   3.0073424750476363e-08   9.9640136184998607e-01   3.3313278095967269e-01   9.9999999964117747e-01   9.9906482481320713e-01   9.9999999999988698e-01   9.9999999983331433e-01   9.9999999999877409e-01   9.9999999999989386e-01   9.9999978977228143e-01   9.9999999999700873e-01   9.9999859234492805e-01   9.9999994456185204e-01   6.4526040966776688e-01   6.6079079152382314e-01   1.0299605827430537e-04   3.2354235680703830e-04   5.5511151231257827e-17   1.2952601953960160e-16   0.0000000000000000e+00   0.0000000000000000e+00   0.0000000000000000e+00   0.0000000000000000e+00   0.0000000000000000e+00   0.0000000000000000e+00   0.0000000000000000e+00   0.0000000000000000e+00   0.0000000000000000e+00   0.0000000000000000e+00   0.0000000000000000e+00   0.0000000000000000e+00   0.0000000000000000e+00   0.0000000000000000e+00   0.0000000000000000e+00   0.0000000000000000e+00   0.0000000000000000e+00   0.0000000000000000e+00   3.9505435959578482e-15   0.0000000000000000e+00   5.3826592694613158e-06   1.8346435481930706e-14   4.8819652988898982e-01   5.9394930715263764e-05   9.9999964190240032e-01   6.7308344153625288e-01   9.9999999999819578e-01   9.9999991311077785e-01   9.9999999999980949e-01   9.9999999999901779e-01   9.9999999842761156e-01   9.9999999999966771e-01   9.9999999142282103e-01   1.3169372516861990e-03   4.1355807667287073e-15   4.9312406010434042e-15   0.0000000000000000e+00   0.0000000000000000e+00   0.0000000000000000e+00   0.0000000000000000e+00   0.0000000000000000e+00   0.0000000000000000e+00   0.0000000000000000e+00   0.0000000000000000e+00   0.0000000000000000e+00   0.0000000000000000e+00   0.0000000000000000e+00   0.0000000000000000e+00   0.0000000000000000e+00   0.0000000000000000e+00   0.0000000000000000e+00   0.0000000000000000e+00   0.0000000000000000e+00   0.0000000000000000e+00   0.0000000000000000e+00   0.0000000000000000e+00   0.0000000000000000e+00   0.0000000000000000e+00   0.0000000000000000e+00   0.0000000000000000e+00   7.7388040420345292e-11   0.0000000000000000e+00   1.8434434254753085e-01   1.4535674700925465e-09   9.9960071716545007e-01   4.2877284702074264e-01   9.9999999994970945e-01   9.9995722717517388e-01   9.9999999999988831e-01   9.9999999998371281e-01   9.9999999994863453e-01   9.9999999999987177e-01   9.9999999978366338e-01   0.0000000000000000e+00   0.0000000000000000e+00   0.0000000000000000e+00   0.0000000000000000e+00   0.0000000000000000e+00   0.0000000000000000e+00   0.0000000000000000e+00   0.0000000000000000e+00   0.0000000000000000e+00   0.0000000000000000e+00   0.0000000000000000e+00   0.0000000000000000e+00   0.0000000000000000e+00   0.0000000000000000e+00   0.0000000000000000e+00   0.0000000000000000e+00   0.0000000000000000e+00   0.0000000000000000e+00   0.0000000000000000e+00   0.0000000000000000e+00   0.0000000000000000e+00   0.0000000000000000e+00   0.0000000000000000e+00   0.0000000000000000e+00   0.0000000000000000e+00   0.0000000000000000e+00   0.0000000000000000e+00   7.3829831137572910e-15   0.0000000000000000e+00   1.7067373582594722e-04   1.7758942464733232e-13   8.5049590814101683e-01   7.5986629219621975e-03   9.9999999803321782e-01   9.8261213667626557e-01   9.9999999999978584e-01   9.9999999958847741e-01   9.9999999999605438e-01   9.9999999999984479e-01   9.9999999998835154e-01   0.0000000000000000e+00   0.0000000000000000e+00   0.0000000000000000e+00   0.0000000000000000e+00   0.0000000000000000e+00   0.0000000000000000e+00   0.0000000000000000e+00   0.0000000000000000e+00   0.0000000000000000e+00   0.0000000000000000e+00   0.0000000000000000e+00   0.0000000000000000e+00   0.0000000000000000e+00   0.0000000000000000e+00   0.0000000000000000e+00   0.0000000000000000e+00   0.0000000000000000e+00   0.0000000000000000e+00   0.0000000000000000e+00   0.0000000000000000e+00   0.0000000000000000e+00   0.0000000000000000e+00   0.0000000000000000e+00   0.0000000000000000e+00   0.0000000000000000e+00   0.0000000000000000e+00   0.0000000000000000e+00   0.0000000000000000e+00   0.0000000000000000e+00   1.1446546466231664e-07   9.2518585385429703e-17   3.8558749120544289e-01   6.3170825167676208e-06   9.9999985896604293e-01   6.7855894317891419e-01   9.9999999999894240e-01   9.9999997905982541e-01   9.9999999999946498e-01   9.9999999999948319e-01   9.9999999999894096e-01   0.0000000000000000e+00   0.0000000000000000e+00   0.0000000000000000e+00   0.0000000000000000e+00   0.0000000000000000e+00   0.0000000000000000e+00   0.0000000000000000e+00   0.0000000000000000e+00   0.0000000000000000e+00   0.0000000000000000e+00   0.0000000000000000e+00   0.0000000000000000e+00   0.0000000000000000e+00   0.0000000000000000e+00   0.0000000000000000e+00   0.0000000000000000e+00   0.0000000000000000e+00   0.0000000000000000e+00   0.0000000000000000e+00   0.0000000000000000e+00   0.0000000000000000e+00   0.0000000000000000e+00   0.0000000000000000e+00   0.0000000000000000e+00   0.0000000000000000e+00   0.0000000000000000e+00   0.0000000000000000e+00   0.0000000000000000e+00   0.0000000000000000e+00   9.9553273032644984e-11   0.0000000000000000e+00   2.9535697795467269e-01   5.4623117140550903e-09   9.9997483718571023e-01   5.9158268997104069e-01   9.9999999998900024e-01   9.9999743487240245e-01   9.9999999999985356e-01   9.9999999999625611e-01   9.9999999999980649e-01   0.0000000000000000e+00   0.0000000000000000e+00   0.0000000000000000e+00   0.0000000000000000e+00   0.0000000000000000e+00   0.0000000000000000e+00   0.0000000000000000e+00   0.0000000000000000e+00   0.0000000000000000e+00   0.0000000000000000e+00   0.0000000000000000e+00   0.0000000000000000e+00   0.0000000000000000e+00   0.0000000000000000e+00   0.0000000000000000e+00   0.0000000000000000e+00   0.0000000000000000e+00   0.0000000000000000e+00   0.0000000000000000e+00   0.0000000000000000e+00   0.0000000000000000e+00   0.0000000000000000e+00   0.0000000000000000e+00   0.0000000000000000e+00   0.0000000000000000e+00   0.0000000000000000e+00   0.0000000000000000e+00   0.0000000000000000e+00   0.0000000000000000e+00   1.1530591296586107e-13   0.0000000000000000e+00   5.5367469855997203e-03   5.3395251183493031e-12   9.9257111074638960e-01   1.3803466726787439e-01   9.9999999975971099e-01   9.9951417137877330e-01   9.9999999999987066e-01   9.9999999993885136e-01   9.9999999999989031e-01   0.0000000000000000e+00   0.0000000000000000e+00   0.0000000000000000e+00   0.0000000000000000e+00   0.0000000000000000e+00   0.0000000000000000e+00   0.0000000000000000e+00   0.0000000000000000e+00   0.0000000000000000e+00   0.0000000000000000e+00   0.0000000000000000e+00   0.0000000000000000e+00   0.0000000000000000e+00   0.0000000000000000e+00   0.0000000000000000e+00   0.0000000000000000e+00   0.0000000000000000e+00   0.0000000000000000e+00   0.0000000000000000e+00   0.0000000000000000e+00   0.0000000000000000e+00   0.0000000000000000e+00   0.0000000000000000e+00   0.0000000000000000e+00   0.0000000000000000e+00   0.0000000000000000e+00   0.0000000000000000e+00   0.0000000000000000e+00   0.0000000000000000e+00   1.8503717077085941e-16   0.0000000000000000e+00   8.6984358503849890e-06   5.8841820305133289e-15   6.0686050843702821e-01   4.4601490304059060e-04   9.9999998240728449e-01   8.4060610749170417e-01   9.9999999999946720e-01   9.9999999623564673e-01   9.9999999999969036e-01   0.0000000000000000e+00   0.0000000000000000e+00   0.0000000000000000e+00   0.0000000000000000e+00   0.0000000000000000e+00   0.0000000000000000e+00   0.0000000000000000e+00   0.0000000000000000e+00   0.0000000000000000e+00   0.0000000000000000e+00   0.0000000000000000e+00   0.0000000000000000e+00   0.0000000000000000e+00   0.0000000000000000e+00   0.0000000000000000e+00   0.0000000000000000e+00   0.0000000000000000e+00   0.0000000000000000e+00   0.0000000000000000e+00   0.0000000000000000e+00   0.0000000000000000e+00   0.0000000000000000e+00   0.0000000000000000e+00   0.0000000000000000e+00   0.0000000000000000e+00   0.0000000000000000e+00   0.0000000000000000e+00   0.0000000000000000e+00   0.0000000000000000e+00   0.0000000000000000e+00   0.0000000000000000e+00   5.0762713939741149e-09   9.2518585385429722e-18   3.3220389717219478e-01   1.7019586832459999e-07   9.9998941279992948e-01   6.3204098988593671e-01   9.9999999998966704e-01   9.9999816087005666e-01   9.9999999999590083e-01   0.0000000000000000e+00   0.0000000000000000e+00   0.0000000000000000e+00   0.0000000000000000e+00   0.0000000000000000e+00   0.0000000000000000e+00   0.0000000000000000e+00   0.0000000000000000e+00   0.0000000000000000e+00   0.0000000000000000e+00   0.0000000000000000e+00   0.0000000000000000e+00   0.0000000000000000e+00   0.0000000000000000e+00   0.0000000000000000e+00   0.0000000000000000e+00   0.0000000000000000e+00   0.0000000000000000e+00   0.0000000000000000e+00   0.0000000000000000e+00   0.0000000000000000e+00   0.0000000000000000e+00   0.0000000000000000e+00   0.0000000000000000e+00   0.0000000000000000e+00   0.0000000000000000e+00   0.0000000000000000e+00   0.0000000000000000e+00   0.0000000000000000e+00   0.0000000000000000e+00   0.0000000000000000e+00   1.0858351255175569e-12   0.0000000000000000e+00   1.0331368220938119e-02   2.3121254910662969e-11   9.7165886442790639e-01   1.0991132502350853e-01   9.9999999933356643e-01   9.9680813521189293e-01   9.9999999983520949e-01   0.0000000000000000e+00   0.0000000000000000e+00   0.0000000000000000e+00   0.0000000000000000e+00   0.0000000000000000e+00   0.0000000000000000e+00   0.0000000000000000e+00   0.0000000000000000e+00   0.0000000000000000e+00   0.0000000000000000e+00   0.0000000000000000e+00   0.0000000000000000e+00   0.0000000000000000e+00   0.0000000000000000e+00   0.0000000000000000e+00   0.0000000000000000e+00   0.0000000000000000e+00   0.0000000000000000e+00   0.0000000000000000e+00   0.0000000000000000e+00   0.0000000000000000e+00   0.0000000000000000e+00   0.0000000000000000e+00   0.0000000000000000e+00   0.0000000000000000e+00   0.0000000000000000e+00   0.0000000000000000e+00   0.0000000000000000e+00   0.0000000000000000e+00   0.0000000000000000e+00   0.0000000000000000e+00   1.7578531223231644e-16   0.0000000000000000e+00   1.2227940058284756e-06   2.6182759664076607e-15   4.5238746724867662e-01   2.9357675448390033e-05   9.9999984208985548e-01   6.7888510963798299e-01   9.9999997837890797e-01   0.0000000000000000e+00   0.0000000000000000e+00   0.0000000000000000e+00   0.0000000000000000e+00   0.0000000000000000e+00   0.0000000000000000e+00   0.0000000000000000e+00   0.0000000000000000e+00   0.0000000000000000e+00   0.0000000000000000e+00   0.0000000000000000e+00   0.0000000000000000e+00   0.0000000000000000e+00   0.0000000000000000e+00   0.0000000000000000e+00   0.0000000000000000e+00   0.0000000000000000e+00   0.0000000000000000e+00   0.0000000000000000e+00   0.0000000000000000e+00   0.0000000000000000e+00   0.0000000000000000e+00   0.0000000000000000e+00   0.0000000000000000e+00   0.0000000000000000e+00   0.0000000000000000e+00   0.0000000000000000e+00   0.0000000000000000e+00   0.0000000000000000e+00   0.0000000000000000e+00   0.0000000000000000e+00   0.0000000000000000e+00   0.00000000