<?xml version="1.0"?>
<VTKFile type="UnstructuredGrid"  version="0.1"  >
<UnstructuredGrid>
<Piece  NumberOfPoints="629" NumberOfCells="1162">
<Points>
<DataArray  type="Float64"  NumberOfComponents="3"  format="ascii">0.7104347826086956 0 0  0.7269565217391304 0 0  0.7269565217391304 0.01666666666666667 0  0.7104347826086956 0.01666666666666667 0  0.7434782608695653 0 0  0.7434782608695653 0.01666666666666667 0  0.7599999999999999 0 0  0.7599999999999999 0.01666666666666667 0  0.7765217391304348 0 0  0.7765217391304348 0.01666666666666667 0  0.7930434782608695 0 0  0.7930434782608695 0.01666666666666667 0  0.8095652173913043 0 0  0.8095652173913043 0.01666666666666667 0  0.8260869565217391 0 0  0.8260869565217391 0.01666666666666667 0  0.8426086956521739 0 0  0.8426086956521739 0.01666666666666667 0  0.8591304347826086 0 0  0.8591304347826086 0.01666666666666667 0  0.8756521739130434 0 0  0.8756521739130434 0.01666666666666667 0  0.8921739130434783 0 0  0.8921739130434783 0.01666666666666667 0  0.908695652173913 0 0  0.908695652173913 0.01666666666666667 0  0.9252173913043478 0 0  0.9252173913043478 0.01666666666666667 0  0.9417391304347826 0 0  0.9417391304347826 0.01666666666666667 0  0.9582608695652173 0 0  0.9582608695652173 0.01666666666666667 0  0.9747826086956521 0 0  0.9747826086956521 0.01666666666666667 0  0.991304347826087 0 0  0.991304347826087 0.01666666666666667 0  1.007826086956522 0 0  1.007826086956522 0.01666666666666667 0  1.024347826086957 0 0  1.024347826086957 0.01666666666666667 0  0.7269565217391304 0.03333333333333333 0  0.7104347826086956 0.03333333333333333 0  0.7434782608695653 0.03333333333333333 0  0.7599999999999999 0.03333333333333333 0  0.7765217391304348 0.03333333333333333 0  0.7930434782608695 0.03333333333333333 0  0.8095652173913043 0.03333333333333333 0  0.8260869565217391 0.03333333333333333 0  0.8426086956521739 0.03333333333333333 0  0.8591304347826086 0.03333333333333333 0  0.8756521739130434 0.03333333333333333 0  0.8921739130434783 0.03333333333333333 0  0.908695652173913 0.03333333333333333 0  0.9252173913043478 0.03333333333333333 0  0.9417391304347826 0.03333333333333333 0  0.9582608695652173 0.03333333333333333 0  0.9747826086956521 0.03333333333333333 0  0.991304347826087 0.03333333333333333 0  1.007826086956522 0.03333333333333333 0  1.024347826086957 0.03333333333333333 0  1.040869565217391 0.03333333333333333 0  0.7269565217391304 0.05 0  0.7434782608695653 0.05 0  0.7599999999999999 0.05 0  0.7765217391304348 0.05 0  0.7930434782608695 0.05 0  0.8095652173913043 0.05 0  0.8260869565217391 0.05 0  0.8426086956521739 0.05 0  0.8591304347826086 0.05 0  0.8756521739130434 0.05 0  0.8921739130434783 0.05 0  0.908695652173913 0.05 0  0.9252173913043478 0.05 0  0.9417391304347826 0.05 0  0.9582608695652173 0.05 0  0.9747826086956521 0.05 0  0.991304347826087 0.05 0  1.007826086956522 0.05 0  1.024347826086957 0.05 0  1.040869565217391 0.05 0  1.057391304347826 0.05 0  0.7434782608695653 0.06666666666666667 0  0.7599999999999999 0.06666666666666667 0  0.7765217391304348 0.06666666666666667 0  0.7930434782608695 0.06666666666666667 0  0.8095652173913043 0.06666666666666667 0  0.8260869565217391 0.06666666666666667 0  0.8426086956521739 0.06666666666666667 0  0.8591304347826086 0.06666666666666667 0  0.8756521739130434 0.06666666666666667 0  0.8921739130434783 0.06666666666666667 0  0.908695652173913 0.06666666666666667 0  0.9252173913043478 0.06666666666666667 0  0.9417391304347826 0.06666666666666667 0  0.9582608695652173 0.06666666666666667 0  0.9747826086956521 0.06666666666666667 0  0.991304347826087 0.06666666666666667 0  1.007826086956522 0.06666666666666667 0  1.024347826086957 0.06666666666666667 0  1.040869565217391 0.06666666666666667 0  1.057391304347826 0.06666666666666667 0  1.073913043478261 0.06666666666666667 0  0.7599999999999999 0.08333333333333333 0  0.7765217391304348 0.08333333333333333 0  0.7930434782608695 0.08333333333333333 0  0.8095652173913043 0.08333333333333333 0  0.8260869565217391 0.08333333333333333 0  0.8426086956521739 0.08333333333333333 0  0.8591304347826086 0.08333333333333333 0  0.8756521739130434 0.08333333333333333 0  0.8921739130434783 0.08333333333333333 0  0.908695652173913 0.08333333333333333 0  0.9252173913043478 0.08333333333333333 0  0.9417391304347826 0.08333333333333333 0  0.9582608695652173 0.08333333333333333 0  0.9747826086956521 0.08333333333333333 0  0.991304347826087 0.08333333333333333 0  1.007826086956522 0.08333333333333333 0  1.024347826086957 0.08333333333333333 0  1.040869565217391 0.08333333333333333 0  1.057391304347826 0.08333333333333333 0  1.073913043478261 0.08333333333333333 0  1.090434782608696 0.08333333333333333 0  0.7765217391304348 0.1 0  0.7930434782608695 0.1 0  0.8095652173913043 0.1 0  0.8260869565217391 0.1 0  0.8426086956521739 0.1 0  0.8591304347826086 0.1 0  0.8756521739130434 0.1 0  0.8921739130434783 0.1 0  0.908695652173913 0.1 0  0.9252173913043478 0.1 0  0.9417391304347826 0.1 0  0.9582608695652173 0.1 0  0.9747826086956521 0.1 0  0.991304347826087 0.1 0  1.007826086956522 0.1 0  1.024347826086957 0.1 0  1.040869565217391 0.1 0  1.057391304347826 0.1 0  1.073913043478261 0.1 0  1.090434782608696 0.1 0  1.10695652173913 0.1 0  0.7930434782608695 0.1166666666666667 0  0.8095652173913043 0.1166666666666667 0  0.8260869565217391 0.1166666666666667 0  0.8426086956521739 0.1166666666666667 0  0.8591304347826086 0.1166666666666667 0  0.8756521739130434 0.1166666666666667 0  0.8921739130434783 0.1166666666666667 0  0.908695652173913 0.1166666666666667 0  0.9252173913043478 0.1166666666666667 0  0.9417391304347826 0.1166666666666667 0  0.9582608695652173 0.1166666666666667 0  0.9747826086956521 0.1166666666666667 0  0.991304347826087 0.1166666666666667 0  1.007826086956522 0.1166666666666667 0  1.024347826086957 0.1166666666666667 0  1.040869565217391 0.1166666666666667 0  1.057391304347826 0.1166666666666667 0  1.073913043478261 0.1166666666666667 0  1.090434782608696 0.1166666666666667 0  1.10695652173913 0.1166666666666667 0  1.123478260869565 0.1166666666666667 0  0.8095652173913043 0.1333333333333333 0  0.8260869565217391 0.1333333333333333 0  0.8426086956521739 0.1333333333333333 0  0.8591304347826086 0.1333333333333333 0  0.8756521739130434 0.1333333333333333 0  0.8921739130434783 0.1333333333333333 0  0.908695652173913 0.1333333333333333 0  0.9252173913043478 0.1333333333333333 0  0.9417391304347826 0.1333333333333333 0  0.9582608695652173 0.1333333333333333 0  0.9747826086956521 0.1333333333333333 0  0.991304347826087 0.1333333333333333 0  1.007826086956522 0.1333333333333333 0  1.024347826086957 0.1333333333333333 0  1.040869565217391 0.1333333333333333 0  1.057391304347826 0.1333333333333333 0  1.073913043478261 0.1333333333333333 0  1.090434782608696 0.1333333333333333 0  1.10695652173913 0.1333333333333333 0  1.123478260869565 0.1333333333333333 0  1.14 0.1333333333333333 0  0.8260869565217391 0.15 0  0.8426086956521739 0.15 0  0.8591304347826086 0.15 0  0.8756521739130434 0.15 0  0.8921739130434783 0.15 0  0.908695652173913 0.15 0  0.9252173913043478 0.15 0  0.9417391304347826 0.15 0  0.9582608695652173 0.15 0  0.9747826086956521 0.15 0  0.991304347826087 0.15 0  1.007826086956522 0.15 0  1.024347826086957 0.15 0  1.040869565217391 0.15 0  1.057391304347826 0.15 0  1.073913043478261 0.15 0  1.090434782608696 0.15 0  1.10695652173913 0.15 0  1.123478260869565 0.15 0  1.14 0.15 0  1.156521739130435 0.15 0  0.8426086956521739 0.1666666666666667 0  0.8591304347826086 0.1666666666666667 0  0.8756521739130434 0.1666666666666667 0  0.8921739130434783 0.1666666666666667 0  0.908695652173913 0.1666666666666667 0  0.9252173913043478 0.1666666666666667 0  0.9417391304347826 0.1666666666666667 0  0.9582608695652173 0.1666666666666667 0  0.9747826086956521 0.1666666666666667 0  0.991304347826087 0.1666666666666667 0  1.007826086956522 0.1666666666666667 0  1.024347826086957 0.1666666666666667 0  1.040869565217391 0.1666666666666667 0  1.057391304347826 0.1666666666666667 0  1.073913043478261 0.1666666666666667 0  1.090434782608696 0.1666666666666667 0  1.10695652173913 0.1666666666666667 0  1.123478260869565 0.1666666666666667 0  1.14 0.1666666666666667 0  1.156521739130435 0.1666666666666667 0  1.17304347826087 0.1666666666666667 0  0.8591304347826086 0.1833333333333333 0  0.8756521739130434 0.1833333333333333 0  0.8921739130434783 0.1833333333333333 0  0.908695652173913 0.1833333333333333 0  0.9252173913043478 0.1833333333333333 0  0.9417391304347826 0.1833333333333333 0  0.9582608695652173 0.1833333333333333 0  0.9747826086956521 0.1833333333333333 0  0.991304347826087 0.1833333333333333 0  1.007826086956522 0.1833333333333333 0  1.024347826086957 0.1833333333333333 0  1.040869565217391 0.1833333333333333 0  1.057391304347826 0.1833333333333333 0  1.073913043478261 0.1833333333333333 0  1.090434782608696 0.1833333333333333 0  1.10695652173913 0.1833333333333333 0  1.123478260869565 0.1833333333333333 0  1.14 0.1833333333333333 0  1.156521739130435 0.1833333333333333 0  1.17304347826087 0.1833333333333333 0  1.189565217391304 0.1833333333333333 0  0.8756521739130434 0.2 0  0.8921739130434783 0.2 0  0.908695652173913 0.2 0  0.9252173913043478 0.2 0  0.9417391304347826 0.2 0  0.9582608695652173 0.2 0  0.9747826086956521 0.2 0  0.991304347826087 0.2 0  1.007826086956522 0.2 0  1.024347826086957 0.2 0  1.040869565217391 0.2 0  1.057391304347826 0.2 0  1.073913043478261 0.2 0  1.090434782608696 0.2 0  1.10695652173913 0.2 0  1.123478260869565 0.2 0  1.14 0.2 0  1.156521739130435 0.2 0  1.17304347826087 0.2 0  1.189565217391304 0.2 0  1.206086956521739 0.2 0  0.8921739130434783 0.2166666666666667 0  0.908695652173913 0.2166666666666667 0  0.9252173913043478 0.2166666666666667 0  0.9417391304347826 0.2166666666666667 0  0.9582608695652173 0.2166666666666667 0  0.9747826086956521 0.2166666666666667 0  0.991304347826087 0.2166666666666667 0  1.007826086956522 0.2166666666666667 0  1.02434782608
[...]
<CellData  Scalars="sigma_m"> 
<DataArray  type="Float64"  Name="sigma_m"  format="ascii">1.1969794691271512e+07   1.7698862518794775e+07   1.1755790130200816e+07   1.6209438085017562e+07   1.1702242283951288e+07   1.5255948740778301e+07   1.1767741899725197e+07   1.4890516671545761e+07   1.1865029038559059e+07   1.4678111111592410e+07   1.1958263455752954e+07   1.4533619352491677e+07   1.2044258324520620e+07   1.4427680250655850e+07   1.2126456149255887e+07   1.4339527479191173e+07   1.2206578905605830e+07   1.4259969417177208e+07   1.2285409218508573e+07   1.4185057519566402e+07   1.2363907854276726e+07   1.4111313498737315e+07   1.2443370867837291e+07   1.4034975693104824e+07   1.2525162165896529e+07   1.3952953062084483e+07   1.2610288300203901e+07   1.3864156948358543e+07   1.2698174128367290e+07   1.3771312154141508e+07   1.2785710305765077e+07   1.3682156773697276e+07   1.2869285837463478e+07   1.3605620256182825e+07   1.2947118066527251e+07   1.3546228562224653e+07   1.3019113303269448e+07   1.3503972359051047e+07   1.3777490318379030e+07   1.8752819915717942e+05   1.4062732160698311e+07   1.1631706412857170e+06   1.3725387006086763e+07   4.3412253680343386e+06   1.3515530142616512e+07   7.8228537047099201e+06   1.3351905387208382e+07   9.2222273798964601e+06   1.3228655331976505e+07   9.7113345195648670e+06   1.3135243623770328e+07   9.9000461297909524e+06   1.3056184002778256e+07   9.9398475538119841e+06   1.2983981917650633e+07   9.9110159114463907e+06   1.2915481000474352e+07   9.8558745313814562e+06   1.2847877745393584e+07   9.7930036757770870e+06   1.2778047585020917e+07   9.7346329836416990e+06   1.2703258741056483e+07   9.6877303288397808e+06   1.2622243077055387e+07   9.6494515351345483e+06   1.2536898480771078e+07   9.6025090939361136e+06   1.2453819657598823e+07   9.5306607691404447e+06   1.2381263677551648e+07   9.4379169040104803e+06   1.2323712153891250e+07   9.3266457180390097e+06   1.2281326458168315e+07   9.1884823465298284e+06   9.0184343232512884e+06   1.0997437423736587e-05   1.2839963239010907e-04   0.0000000000000000e+00   7.9049089395610015e-04   2.2880233354482509e-08   2.3174869600701715e-03   8.8629551086780120e-08   3.8829884882990908e-03   1.7069844269560641e-07   4.7448878335257447e-03   2.2127179344034256e-07   5.1284388869091112e-03   2.3866057029420948e-07   5.4441650690176691e-03   2.4588774980691416e-07   5.7428232306473833e-03   2.5738505897925598e-07   5.9831746014533012e-03   2.6824618701337012e-07   6.2142540690235904e-03   2.7847861378720324e-07   6.5546940096915859e-03   2.8810081524804956e-07   7.1644667952422136e-03   3.1200927449127616e-07   8.2427654231169191e-03   3.5007860676688610e-07   1.0020866914993893e-02   4.1685266962074245e-07   1.2358910479225660e-02   5.1682656176439257e-07   1.4206903855097151e-02   6.2539316522426834e-07   1.4424469109713409e-02   6.7512868511199658e-07   1.2979744145092150e-02   6.3823575791314524e-07   1.0664304688601654e-02   5.3978384781664179e-07   4.2805358663498096e-07   0.0000000000000000e+00   0.0000000000000000e+00   0.0000000000000000e+00   0.0000000000000000e+00   0.0000000000000000e+00   0.0000000000000000e+00   0.0000000000000000e+00   0.0000000000000000e+00   0.0000000000000000e+00   0.0000000000000000e+00   0.0000000000000000e+00   0.0000000000000000e+00   0.0000000000000000e+00   0.0000000000000000e+00   0.0000000000000000e+00   0.0000000000000000e+00   0.0000000000000000e+00   0.0000000000000000e+00   0.0000000000000000e+00   0.0000000000000000e+00   0.0000000000000000e+00   0.0000000000000000e+00   0.0000000000000000e+00   0.0000000000000000e+00   0.0000000000000000e+00   0.0000000000000000e+00   0.0000000000000000e+00   0.0000000000000000e+00   0.0000000000000000e+00   0.0000000000000000e+00   0.0000000000000000e+00   0.0000000000000000e+00   0.0000000000000000e+00   0.0000000000000000e+00   0.0000000000000000e+00   0.0000000000000000e+00   0.0000000000000000e+00   0.0000000000000000e+00   0.0000000000000000e+00   0.0000000000000000e+00   0.0000000000000000e+00   0.0000000000000000e+00   0.0000000000000000e+00   0.0000000000000000e+00   0.0000000000000000e+00   0.0000000000000000e+00   0.0000000000000000e+00   0.0000000000000000e+00   0.0000000000000000e+00   0.0000000000000000e+00   0.0000000000000000e+00   0.0000000000000000e+00   0.0000000000000000e+00   0.0000000000000000e+00   0.0000000000000000e+00   0.0000000000000000e+00   0.0000000000000000e+00   0.0000000000000000e+00   0.0000000000000000e+00   0.0000000000000000e+00   0.0000000000000000e+00   0.0000000000000000e+00   0.0000000000000000e+00   0.0000000000000000e+00   0.0000000000000000e+00   0.0000000000000000e+00   0.0000000000000000e+00   0.0000000000000000e+00   0.0000000000000000e+00   0.0000000000000000e+00   0.0000000000000000e+00   0.0000000000000000e+00   0.0000000000000000e+00   0.0000000000000000e+00   0.0000000000000000e+00   0.0000000000000000e+00   0.0000000000000000e+00   0.0000000000000000e+00   0.0000000000000000e+00   0.0000000000000000e+00   0.0000000000000000e+00   0.0000000000000000e+00   0.0000000000000000e+00   0.0000000000000000e+00   0.0000000000000000e+00   0.0000000000000000e+00   0.0000000000000000e+00   0.0000000000000000e+00   0.0000000000000000e+00   0.0000000000000000e+00   0.0000000000000000e+00   0.0000000000000000e+00   0.0000000000000000e+00   0.0000000000000000e+00   0.0000000000000000e+00   0.0000000000000000e+00   0.0000000000000000e+00   0.0000000000000000e+00   0.0000000000000000e+00   0.0000000000000000e+00   0.0000000000000000e+00   0.0000000000000000e+00   0.0000000000000000e+00   0.0000000000000000e+00   0.0000000000000000e+00   0.0000000000000000e+00   0.0000000000000000e+00   0.0000000000000000e+00   0.0000000000000000e+00   0.0000000000000000e+00   0.0000000000000000e+00   0.0000000000000000e+00   0.0000000000000000e+00   0.0000000000000000e+00   0.0000000000000000e+00   0.0000000000000000e+00   0.0000000000000000e+00   0.0000000000000000e+00   0.0000000000000000e+00   0.0000000000000000e+00   0.0000000000000000e+00   0.0000000000000000e+00   0.0000000000000000e+00   0.0000000000000000e+00   0.0000000000000000e+00   0.0000000000000000e+00   0.0000000000000000e+00   0.0000000000000000e+00   0.0000000000000000e+00   0.0000000000000000e+00   0.0000000000000000e+00   0.0000000000000000e+00   0.0000000000000000e+00   0.0000000000000000e+00   0.0000000000000000e+00   0.0000000000000000e+00   0.0000000000000000e+00   0.0000000000000000e+00   0.0000000000000000e+00   0.0000000000000000e+00   0.0000000000000000e+00   0.0000000000000000e+00   0.0000000000000000e+00   0.0000000000000000e+00   0.0000000000000000e+00   0.0000000000000000e+00   0.0000000000000000e+00   0.0000000000000000e+00   0.0000000000000000e+00   0.0000000000000000e+00   0.0000000000000000e+00   0.0000000000000000e+00   0.0000000000000000e+00   0.0000000000000000e+00   0.0000000000000000e+00   0.0000000000000000e+00   0.0000000000000000e+00   0.0000000000000000e+00   0.0000000000000000e+00   0.0000000000000000e+00   0.0000000000000000e+00   0.0000000000000000e+00   0.0000000000000000e+00   0.0000000000000000e+00   0.0000000000000000e+00   0.0000000000000000e+00   0.0000000000000000e+00   0.0000000000000000e+00   0.0000000000000000e+00   0.0000000000000000e+00   0.0000000000000000e+00   0.0000000000000000e+00   0.0000000000000000e+00   0.0000000000000000e+00   0.0000000000000000e+00   0.0000000000000000e+00   0.0000000000000000e+00   0.0000000000000000e+00   0.0000000000000000e+00   0.0000000000000000e+00   0.0000000000000000e+00   0.0000000000000000e+00   0.0000000000000000e+00   0.0000000000000000e+00   0.0000000000000000e+00   0.0000000000000000e+00   0.0000000000000000e+00   0.0000000000000000e+00   0.0000000000000000e+00   0.0000000000000000e+00   0.0000000000000000e+00   0.0000000000000000e+00   0.0000000000000000e+00   0.0000000000000000e+00   0.0000000000000000e+00   0.0000000000000000e+00   0.0000000000000000e+00   0.0000000000000000e+00   0.0000000000000000e+00   0.0000000000000000e+00   0.0000000000000000e+00   0.0000000000000000e+00   0.0000000000000000e+00   0.0000000000000000e+00   0.0000000000000000e+00   0.0000000000000000e+00   0.0000000000000000e+00   0.0000000000000000e+00   0.0000000000000000e+00   0.0000000000000000e+00   0.0000000000000000e+00   0.0000000000000000e+00   0.0000000000000000e+00   0.0000000000000000e+00   0.0000000000000000e+00   0.0000000000000000e+00   0.0000000000000000e+00   0.0000000000000000e+00   0.0000000000000000e+00   0.0000000000000000e+00   0.0000000000000000e+00   0.0000000000000000e+00   0.0000000000000000e+00   0.0000000000000000e+00   0.0000000000000000e+00   0.0000000000000000e+00   0.0000000000000000e+00   0.0000000000000000e+00   0.0000000000000000e+00   0.0000000000000000e+00   0.0000000000000000e+00   0.0000000000000000e+00   0.0000000000000000e+00   0.0000000000000000e+00   0.0000000000000000e+00   0.0000000000000000e+00   0.0000000000000000e+00   0.0000000000000000e+00   0.0000000000000000e+00   0.0000000000000000e+00   0.0000000000000000e+00   0.0000000000000000e+00   0.0000000000000000e+00   0.0000000000000000e+00   0.0000000000000000e+00   0.0000000000000000e+00   0.0000000000000000e+00   0.0000000000000000e+00   0.0000000000000000e+00   0.0000000000000000e+00   0.0000000000000000e+00   0.0000000000000000e+00   0.0000000000000000e+00   0.0000000000000000e+00   0.0000000000000000e+00   0.0000000000000000e+00   0.0000000000000000e+00   0.0000000000000000e+00   0.0000000000000000e+00   0.0000000000000000e+00   0.0000000000000000e+00   0.0000000000000000e+00   0.0000000000000000e+00   0.0000000000000000e+00   0.0000000000000000e+00   0.0000000000000000e+00   0.0000000000000000e+00   0.0000000000000000e+00   0.0000000000000000e+00   0.0000000000000000e+00   0.0000000000000000e+00   0.0000000000000000e+00   0.0000000000000000e+00   0.0000000000000000e+00   0.0000000000000000e+00   0.0000000000000000e+00   0.0000000000000000e+00   0.0000000000000000e+00   0.0000000000000000e+00   0.0000000000000000e+00   0.0000000000000000e+00   0.0000000000000000e+00   0.0000000000000000e+00   0.0000000000000000e+00   0.0000000000000000e+00   0.0000000000000000e+00   0.0000000000000000e+00   0.0000000000000000e+00   0.0000000000000000e+00   0.0000000000000000e+00   0.0000000000000000e+00   0.0000000000000000e+00   0.0000000000000000e+00   0.0000000000000000e+00   0.0000000000000000e+00   0.0000000000000000e+00   0.0000000000000000e+00   0.0000000000000000e+00   0.0000000000000000e+00   0.0000000000000000e+00   0.0000000000000000e+00   0.0000000000000000e+00   0.0000000000000000e+00   0.0000000000000000e+00   0.0000000000000000e+00   0.0000000000000000e+00   0.0000000000000000e+00   0.0000000000000000e+00   0.0000000000000000e+00   0.0000000000000000e+00   0.0000000000000000e+00   0.0000000000000000e+00   0.0000000000000000e+00   0.0000000000000000e+00   0.0000000000000000e+00   0.0000000000000000e+00   0.0000000000000000e+00   0.0000000000000000e+00   0.0000000000000000e+00   0.0000000000000000e+00   0.0000000000000000e+00   0.0000000000000000e+00   0.0000000000000000e+00   0.0000000000000000e+00   0.0000000000000000e+00   0.0000000000000000e+00   0.0000000000000000e+00   0.0000000000000000e+00   0.0000000000000000e+00   0.0000000000000000e+00   0.0000000000000000e+00   0.0000000000000000e+00   0.0000000000000000e+00   0.0000000000000000e+00   0.0000000000000000e+00   0.0000000000000000e+00   0.0000000000000000e+00   0.0000000000000000e+00   0.0000000000000000e+00   0.0000000000000000e+00   0.0000000000000000e+00   0.0000000000000000e+00   0.0000000000000000e+00   0.0000000000000000e+00   0.0000000000000000e+00   0.0000000000000000e+00   0.0000000000000000e+00   0.0000000000000000e+00   0.0000000000000000e+00   0.0000000000000000e+00   0.0000000000000000e+00   0.0000000000000000e+00   0.0000000000000000e+00   0.0000000000000000e+00   0.0000000000000000e+00   0.0000000000000000e+00   0.0000000000000000e+00   0.0000000000000000e+00   0.0000000000000000e+00   0.0000000000000000e+00   0.0000000000000000e+00   0.0000000000000000e+00   0.0000000000000000e+00   0.0000000000000000e+00   0.0000000000000000e+00   0.0000000000000000e+00   0.0000000000000000e+00   0.0000000000000000e+00   0.0000000000000000e+00   0.0000000000000000e+00   0.0000000000000000e+00   0.0000000000000000e+00   0.0000000000000000e+00   0.0000000000000000e+00   0.0000000000000000e+00   0.0000000000000000e+00   0.0000000000000000e+00   0.0000000000000000e+00   0.0000000000000000e+00   0.0000000000000000e+00   0.0000000000000000e+00   0.0000000000000000e+00   0.0000000000000000e+00   0.0000000000000000e+00   0.0000000000000000e+00   0.0000000000000000e+00   0.0000000000000000e+00   0.0000000000000000e+00   0.0000000000000000e+00   0.0000000000000000e+00   0.0000000000000000e+00   0.0000000000000000e+00   0.0000000000000000e+00   0.0000000000000000e+00   0.0000000000000000e+00   0.0000000000000000e+00   0.0000000000000000e+00   0.0000000000000000e+00   0.0000000000000000e+00   0.0000000000000000e+00   0.0000000000000000e+00   0.0000000000000000e+00   0.0000000000000000e+00   0.0000000000000000e+00   0.0000000000000000e+00   0.0000000000000000e+00   0.0000000000000000e+00   0.0000000000000000e+00   0.0000000000000000e+00   0.0000000000000000e+00   0.0000000000000000e+00   0.0000000000000000e+00   0.0000000000000000e+00   0.0000000000000000e+00   0.0000000000000000e+00   0.0000000000000000e+00   0.0000000000000000e+00   0.0000000000000000e+00   0.0000000000000000e+00   0.0000000000000000e+00   0.0000000000000000e+00   0.0000000000000000e+00   0.0000000000000000e+00   0.0000000000000000e+00   0.0000000000000000e+00   0.0000000000000000e+00   0.0000000000000000e+00   0.0000000000000000e+00   0.0000000000000000e+00   0.0000000000000000e+00   0.0000000000000000e+00   0.0000000000000000e+00   0.0000000000000000e+00   0.0000000000000000e+00   0.0000000000000000e+00   0.0000000000000000e+00   0.0000000000000000e+00   0.0000000000000000e+00   0.0000000000000000e+00   0.0000000000000000e+00   0.0000000000000000e+00   0.0000000000000000e+00   0.0000000000000000e+00   0.0000000000000000e+00   0.0000000000000000e+00   0.0000000000000000e+00   0.0000000000000000e+00   0.0000000000000000e+00   0.0000000000000000e+00   0.0000000000000000e+00   0.0000000000000000e+00   0.0000000000000000e+00   0.0000000000000000e+00   0.0000000000000000e+00   0.0000000000000000e+00   0.0000000000000000e+00   0.0000000000000000e+00   0.0000000000000000e+00   0.0000000000000000e+00   0.0000000000000000e+00   0.0000000000000000e+00   0.0000000000000000e+00   0.0000000000000000e+00   0.0000000000000000e+00   0.0000000000000000e+00   0.0000000000000000e+00   0.0000000000000000e+00   0.0000000000000000e+00   0.0000000000000000e+00   0.0000000000000000e+00   0.0000000000000000e+00   0.0000000000000000e+00   0.0000000000000000e+00   0.0000000000000000e+00   0.0000000000000000e+00   0.0000000000000000e+00   0.0000000000000000e+00   0.0000000000000000e+00   0.0000000000000000e+00   0.0000000000000000e+00   0.0000000000000000e+00   0.0000000000000000e+00   0.0000000000000000e+00   0.0000000000000000e+00   0.0000000000000000e+00   0.0000000000000000e+00   0.0000000000000000e+00   0.0000000000000000e+00   0.0000000000000000e+00   0.0000000000000000e+00   0.0000000000000000e+00   0.0000000000000000e+00   0.0000000000000000e+00   0.0000000000000000e+00   0.0000000000000000e+00   0.0000000000000000e+00   0.0000000000000000e+00   0.0000000000000000e+00   0.0000000000000000e+00   0.0000000000000000e+00   0.0000000000000000e+00   0.0000000000000000e+00   0.0000000000000000e+00   0.0000000000000000e+00   0.0000000000000000e+00   0.0000000000000000e+00   0.0000000000000000e+00   0.0000000000000000e+00   0.0000000000000000e+00   0.0000000000000000e+00   0.0000000000000000e+00   0.0000000000000000e+00   0.0000000000000000e+00   0.0000000000000000e+00   0.0000000000000000e+00   0.0000000000000000e+00   0.0000000000000000e+00   0.0000000000000000e+00   0.0000000000000000e+00   0.0000000000000000e+00   0.0000000000000000e+00   0.0000000000000000e+00   0.0000000000000000e+00   0.0000000000000000e+00   0.0000000000000000e+00   0.0000000000000000e+00   0.0000000000000000e+00   0.0000000000000000e+00   0.0000000000000000e+00   0.0000000000000000e+00   0.0000000000000000e+00   0.0000000000000000e+00   0.0000000000000000e+00   0.0000000000000000e+00   0.0000000000000000e+00   0.0000000000000000e+00   0.0000000000000000e+00   0.0000000000000000e+00   0.0000000000000000e+00   0.0000000000000000e+00   0.0000000000000000e+00   0.0000000000000000e+00   0.0000000000000000e+00   0.0000000000000000e+00   0.0000000000000000e+00   0.0000000000000000e+00   0.0000000000000000e+00   0.0000000000000000e+00   0.0000000000000000e+00   0.0000000000000000e+00   0.0000000000000000e+00   0.0000000000000000e+00   0.0000000000000000e+00   0.0000000000000000e+00   0.0000000000000000e+00   0.0000000000000000e+00   0.0000000000000000e+00   0.0000000000000000e+00   0.0000000000000000e+00   0.0000000000000000e+00   0.0000000000000000e+00   0.0000000000000000e+00   0.0000000000000000e+00   0.0000000000000000e+00   0.0000000000000000e+00   0.0000000000000000e+00   0.0000000000000000e+00   0.0000000000000000e+00   0.0000000000000000e+00   0.0000000000000000e+00   0.0000000000000000e+00   0.0000000000000000e+00   0.0000000000000000e+00   0.0000000000000000e+00   0.0000000000000000e+00   0.0000000000000000e+00   0.0000000000000000e+00   0.0000000000000000e+00   0.0000000000000000e+00   0.0000000000000000e+00   0.0000000000000000e+00   0.0000000000000000e+00   0.0000000000000000e+00   0.0000000000000000e+00   0.0000000000000000e+00   0.0000000000000000e+00   0.0000000000000000e+00   0.0000000000000000e+00   0.0000000000000000e+00   0.0000000000000000e+00   0.0000000000000000e+00   0.0000000000000000e+00   0.0000000000000000e+00   0.0000000000000000e+00   0.0000000000000000e+00   0.0000000000000000e+00   0.0000000000000000e+00   0.0000000000000000e+00   0.0000000000000000e+00   0.0000000000000000e+00   0.0000000000000000e+00   0.0000000000000000e+00   0.0000000000000000e+00   0.0000000000000000e+00   0.0000000000000000e+00   0.0000000000000000e+00   0.0000000000000000e+00   0.0000000000000000e+00   0.0000000000000000e+00   0.0000000000000000e+00   0.0000000000000000e+00   0.0000000000000000e+00   0.0000000000000000e+00   0.0000000000000000e+00   0.0000000000000000e+00   0.0000000000000000e+00   0.0000000000000000e+00   0.0000000000000000e+00   0.0000000000000000e+00   0.0000000000000000e+00   0.0000000000000000e+00   0.0000000000000000e+00   0.0000000000000000e+00   0.0000000000000000e+00   0.0000000000000000e+00   0.0000000000000000e+00   0.0000000000000000e+00   0.0000000000000000e+00   0.0000000000000000e+00   0.0000000000000000e+00   0.0000000000000000e+00   0.0000000000000000e+00   0.0000000000000000e+00   0.0000000000000000e+00   0.0000000000000000e+00   0.0000000000000000e+00   0.0000000000000000e+00   0.0000000000000000e+00   0.0000000000000000e+00   0.0000000000000000e+00   0.0000000000000000e+00   0.0000000000000000e+00   0.0000000000000000e+00   0.0000000000000000e+00   0.0000000000000000e+00   0.0000000000000000e+00   0.0000000000000000e+00   0.0000000000000000e+00   0.0000000000000000e+00   0.0000000000000000e+00   0.0000000000000000e+00   0.0000000000000000e+00   0.0000000000000000e+00   0.0000000000000000e+00   0.0000000000000000e+00   0.0000000000000000e+00   0.0000000000000000e+00   0.0000000000000000e+00   0.0000000000000000e+00   0.0000000000000000e+00   0.0000000000000000e+00   0.0000000000000000e+00   0.0000000000000000e+00   0.0000000000000000e+00   0.0000000000000000e+00   0.0000000000000000e+00   0.0000000000000000e+00   0.0000000000000000e+00   0.0000000000000000e+00   0.0000000000000000e+00   0.0000000000000000e+00   0.0000000000000000e+00   0.0000000000000000e+00   0.0000000000000000e+00   0.0000000000000000e+00   0.0000000000000000e+00   0.0000000000000000e+00   0.0000000000000000e+00   0.0000000000000000e+00   0.00000000