<?xml version="1.0"?>
<VTKFile type="UnstructuredGrid"  version="0.1"  >
<UnstructuredGrid>
<Piece  NumberOfPoints="611" NumberOfCells="1123">
<Points>
<DataArray  type="Float64"  NumberOfComponents="3"  format="ascii">1.883478260869565 0.01666666666666667 0  1.9 0.01666666666666667 0  1.9 0.03333333333333333 0  1.883478260869565 0.03333333333333333 0  1.916521739130435 0.03333333333333333 0  1.9 0.05 0  1.883478260869565 0.05 0  1.916521739130435 0.05 0  1.933043478260869 0.05 0  1.9 0.06666666666666667 0  1.883478260869565 0.06666666666666667 0  1.916521739130435 0.06666666666666667 0  1.933043478260869 0.06666666666666667 0  1.949565217391304 0.06666666666666667 0  1.9 0.08333333333333333 0  1.883478260869565 0.08333333333333333 0  1.916521739130435 0.08333333333333333 0  1.933043478260869 0.08333333333333333 0  1.949565217391304 0.08333333333333333 0  1.966086956521739 0.08333333333333333 0  1.9 0.1 0  1.883478260869565 0.1 0  1.916521739130435 0.1 0  1.933043478260869 0.1 0  1.949565217391304 0.1 0  1.966086956521739 0.1 0  1.982608695652174 0.1 0  1.9 0.1166666666666667 0  1.883478260869565 0.1166666666666667 0  1.916521739130435 0.1166666666666667 0  1.933043478260869 0.1166666666666667 0  1.949565217391304 0.1166666666666667 0  1.966086956521739 0.1166666666666667 0  1.982608695652174 0.1166666666666667 0  1.999130434782608 0.1166666666666667 0  1.9 0.1333333333333333 0  1.883478260869565 0.1333333333333333 0  1.916521739130435 0.1333333333333333 0  1.933043478260869 0.1333333333333333 0  1.949565217391304 0.1333333333333333 0  1.966086956521739 0.1333333333333333 0  1.982608695652174 0.1333333333333333 0  1.999130434782608 0.1333333333333333 0  2.015652173913043 0.1166666666666667 0  2.015652173913043 0.1333333333333333 0  2.032173913043478 0.1166666666666667 0  2.032173913043478 0.1333333333333333 0  2.048695652173913 0.1166666666666667 0  2.048695652173913 0.1333333333333333 0  2.065217391304348 0.1166666666666667 0  2.065217391304348 0.1333333333333333 0  2.081739130434782 0.1166666666666667 0  2.081739130434782 0.1333333333333333 0  2.098260869565217 0.1333333333333333 0  1.9 0.15 0  1.883478260869565 0.15 0  1.916521739130435 0.15 0  1.933043478260869 0.15 0  1.949565217391304 0.15 0  1.966086956521739 0.15 0  1.982608695652174 0.15 0  1.999130434782608 0.15 0  2.015652173913043 0.15 0  2.032173913043478 0.15 0  2.048695652173913 0.15 0  2.065217391304348 0.15 0  2.081739130434782 0.15 0  2.098260869565217 0.15 0  2.114782608695652 0.15 0  1.9 0.1666666666666667 0  1.883478260869565 0.1666666666666667 0  1.916521739130435 0.1666666666666667 0  1.933043478260869 0.1666666666666667 0  1.949565217391304 0.1666666666666667 0  1.966086956521739 0.1666666666666667 0  1.982608695652174 0.1666666666666667 0  1.999130434782608 0.1666666666666667 0  2.015652173913043 0.1666666666666667 0  2.032173913043478 0.1666666666666667 0  2.048695652173913 0.1666666666666667 0  2.065217391304348 0.1666666666666667 0  2.081739130434782 0.1666666666666667 0  2.098260869565217 0.1666666666666667 0  2.114782608695652 0.1666666666666667 0  2.131304347826087 0.1666666666666667 0  1.9 0.1833333333333333 0  1.883478260869565 0.1833333333333333 0  1.916521739130435 0.1833333333333333 0  1.933043478260869 0.1833333333333333 0  1.949565217391304 0.1833333333333333 0  1.966086956521739 0.1833333333333333 0  1.982608695652174 0.1833333333333333 0  1.999130434782608 0.1833333333333333 0  2.015652173913043 0.1833333333333333 0  2.032173913043478 0.1833333333333333 0  2.048695652173913 0.1833333333333333 0  2.065217391304348 0.1833333333333333 0  2.081739130434782 0.1833333333333333 0  2.098260869565217 0.1833333333333333 0  2.114782608695652 0.1833333333333333 0  2.131304347826087 0.1833333333333333 0  2.147826086956522 0.1833333333333333 0  1.9 0.2 0  1.883478260869565 0.2 0  1.916521739130435 0.2 0  1.933043478260869 0.2 0  1.949565217391304 0.2 0  1.966086956521739 0.2 0  1.982608695652174 0.2 0  1.999130434782608 0.2 0  2.015652173913043 0.2 0  2.032173913043478 0.2 0  2.048695652173913 0.2 0  2.065217391304348 0.2 0  2.081739130434782 0.2 0  2.098260869565217 0.2 0  2.114782608695652 0.2 0  2.131304347826087 0.2 0  2.147826086956522 0.2 0  2.164347826086956 0.2 0  1.9 0.2166666666666667 0  1.883478260869565 0.2166666666666667 0  1.916521739130435 0.2166666666666667 0  1.933043478260869 0.2166666666666667 0  1.949565217391304 0.2166666666666667 0  1.966086956521739 0.2166666666666667 0  1.982608695652174 0.2166666666666667 0  1.999130434782608 0.2166666666666667 0  2.015652173913043 0.2166666666666667 0  2.032173913043478 0.2166666666666667 0  2.048695652173913 0.2166666666666667 0  2.065217391304348 0.2166666666666667 0  2.081739130434782 0.2166666666666667 0  2.098260869565217 0.2166666666666667 0  2.114782608695652 0.2166666666666667 0  2.131304347826087 0.2166666666666667 0  2.147826086956522 0.2166666666666667 0  2.164347826086956 0.2166666666666667 0  2.180869565217391 0.2166666666666667 0  1.9 0.2333333333333333 0  1.883478260869565 0.2333333333333333 0  1.916521739130435 0.2333333333333333 0  1.933043478260869 0.2333333333333333 0  1.949565217391304 0.2333333333333333 0  1.966086956521739 0.2333333333333333 0  1.982608695652174 0.2333333333333333 0  1.999130434782608 0.2333333333333333 0  2.015652173913043 0.2333333333333333 0  2.032173913043478 0.2333333333333333 0  2.048695652173913 0.2333333333333333 0  2.065217391304348 0.2333333333333333 0  2.081739130434782 0.2333333333333333 0  2.098260869565217 0.2333333333333333 0  2.114782608695652 0.2333333333333333 0  2.131304347826087 0.2333333333333333 0  2.147826086956522 0.2333333333333333 0  2.164347826086956 0.2333333333333333 0  2.180869565217391 0.2333333333333333 0  2.197391304347826 0.2333333333333333 0  1.9 0.25 0  1.916521739130435 0.25 0  1.933043478260869 0.25 0  1.949565217391304 0.25 0  1.966086956521739 0.25 0  1.982608695652174 0.25 0  1.999130434782608 0.25 0  2.015652173913043 0.25 0  2.032173913043478 0.25 0  2.048695652173913 0.25 0  2.065217391304348 0.25 0  2.081739130434782 0.25 0  2.098260869565217 0.25 0  2.114782608695652 0.25 0  2.131304347826087 0.25 0  2.147826086956522 0.25 0  2.164347826086956 0.25 0  2.180869565217391 0.25 0  2.197391304347826 0.25 0  2.213913043478261 0.25 0  1.916521739130435 0.2666666666666667 0  1.9 0.2666666666666667 0  1.933043478260869 0.2666666666666667 0  1.949565217391304 0.2666666666666667 0  1.966086956521739 0.2666666666666667 0  1.982608695652174 0.2666666666666667 0  1.999130434782608 0.2666666666666667 0  2.015652173913043 0.2666666666666667 0  2.032173913043478 0.2666666666666667 0  2.048695652173913 0.2666666666666667 0  2.065217391304348 0.2666666666666667 0  2.081739130434782 0.2666666666666667 0  2.098260869565217 0.2666666666666667 0  2.114782608695652 0.2666666666666667 0  2.131304347826087 0.2666666666666667 0  2.147826086956522 0.2666666666666667 0  2.164347826086956 0.2666666666666667 0  2.180869565217391 0.2666666666666667 0  2.197391304347826 0.2666666666666667 0  2.213913043478261 0.2666666666666667 0  2.230434782608695 0.25 0  2.230434782608695 0.2666666666666667 0  2.24695652173913 0.2666666666666667 0  1.916521739130435 0.2833333333333333 0  1.9 0.2833333333333333 0  1.933043478260869 0.2833333333333333 0  1.949565217391304 0.2833333333333333 0  1.966086956521739 0.2833333333333333 0  1.982608695652174 0.2833333333333333 0  1.999130434782608 0.2833333333333333 0  2.015652173913043 0.2833333333333333 0  2.032173913043478 0.2833333333333333 0  2.048695652173913 0.2833333333333333 0  2.065217391304348 0.2833333333333333 0  2.081739130434782 0.2833333333333333 0  2.098260869565217 0.2833333333333333 0  2.114782608695652 0.2833333333333333 0  2.131304347826087 0.2833333333333333 0  2.147826086956522 0.2833333333333333 0  2.164347826086956 0.2833333333333333 0  2.180869565217391 0.2833333333333333 0  2.197391304347826 0.2833333333333333 0  2.213913043478261 0.2833333333333333 0  2.230434782608695 0.2833333333333333 0  2.24695652173913 0.2833333333333333 0  2.263478260869565 0.2833333333333333 0  1.916521739130435 0.3 0  1.9 0.3 0  1.933043478260869 0.3 0  1.949565217391304 0.3 0  1.966086956521739 0.3 0  1.982608695652174 0.3 0  1.999130434782608 0.3 0  2.015652173913043 0.3 0  2.032173913043478 0.3 0  2.048695652173913 0.3 0  2.065217391304348 0.3 0  2.081739130434782 0.3 0  2.098260869565217 0.3 0  2.114782608695652 0.3 0  2.131304347826087 0.3 0  2.147826086956522 0.3 0  2.164347826086956 0.3 0  2.180869565217391 0.3 0  2.197391304347826 0.3 0  2.213913043478261 0.3 0  2.230434782608695 0.3 0  2.24695652173913 0.3 0  2.263478260869565 0.3 0  2.28 0.3 0  1.916521739130435 0.3166666666666667 0  1.9 0.3166666666666667 0  1.933043478260869 0.3166666666666667 0  1.949565217391304 0.3166666666666667 0  1.966086956521739 0.3166666666666667 0  1.982608695652174 0.3166666666666667 0  1.999130434782608 0.3166666666666667 0  2.015652173913043 0.3166666666666667 0  2.032173913043478 0.3166666666666667 0  2.048695652173913 0.3166666666666667 0  2.065217391304348 0.3166666666666667 0  2.081739130434782 0.3166666666666667 0  2.098260869565217 0.3166666666666667 0  2.114782608695652 0.3166666666666667 0  2.131304347826087 0.3166666666666667 0  2.147826086956522 0.3166666666666667 0  2.164347826086956 0.3166666666666667 0  2.180869565217391 0.3166666666666667 0  2.197391304347826 0.3166666666666667 0  2.213913043478261 0.3166666666666667 0  2.230434782608695 0.3166666666666667 0  2.24695652173913 0.3166666666666667 0  2.263478260869565 0.3166666666666667 0  2.28 0.3166666666666667 0  2.296521739130434 0.3166666666666667 0  1.916521739130435 0.3333333333333333 0  1.9 0.3333333333333333 0  1.933043478260869 0.3333333333333333 0  1.949565217391304 0.3333333333333333 0  1.966086956521739 0.3333333333333333 0  1.982608695652174 0.3333333333333333 0  1.999130434782608 0.3333333333333333 0  2.015652173913043 0.3333333333333333 0  2.032173913043478 0.3333333333333333 0  2.048695652173913 0.3333333333333333 0  2.06521739
[...]
<CellData  Scalars="sigma_m"> 
<DataArray  type="Float64"  Name="sigma_m"  format="ascii">1.9596603097514097e+07   3.4684997637614399e+07   1.6830825082957134e+07   9.9343208875887754e+01   3.8867855927240873e-05   3.0335092365076425e+06   9.4755373708442869e-01   1.4771181760582555e+05   0.0000000000000000e+00   0.0000000000000000e+00   0.0000000000000000e+00   0.0000000000000000e+00   1.8879324302635612e-05   0.0000000000000000e+00   5.7503548270642023e-06   0.0000000000000000e+00   0.0000000000000000e+00   0.0000000000000000e+00   0.0000000000000000e+00   0.0000000000000000e+00   0.0000000000000000e+00   0.0000000000000000e+00   0.0000000000000000e+00   0.0000000000000000e+00   0.0000000000000000e+00   0.0000000000000000e+00   0.0000000000000000e+00   0.0000000000000000e+00   0.0000000000000000e+00   0.0000000000000000e+00   0.0000000000000000e+00   0.0000000000000000e+00   0.0000000000000000e+00   0.0000000000000000e+00   0.0000000000000000e+00   0.0000000000000000e+00   0.0000000000000000e+00   0.0000000000000000e+00   0.0000000000000000e+00   0.0000000000000000e+00   0.0000000000000000e+00   0.0000000000000000e+00   0.0000000000000000e+00   0.0000000000000000e+00   0.0000000000000000e+00   0.0000000000000000e+00   0.0000000000000000e+00   1.1499841207041619e-01   0.0000000000000000e+00   0.0000000000000000e+00   0.0000000000000000e+00   0.0000000000000000e+00   0.0000000000000000e+00   0.0000000000000000e+00   0.0000000000000000e+00   0.0000000000000000e+00   0.0000000000000000e+00   0.0000000000000000e+00   0.0000000000000000e+00   0.0000000000000000e+00   8.1148791689387725e+00   7.3545169291160044e-05   1.7248587855064113e+07   5.1198678186607631e+06   1.5309867600923333e+07   1.2221102346231114e+07   5.0624931491419226e+06   6.9920588325587120e+06   2.3062495074537068e-01   5.8629646210939471e+04   0.0000000000000000e+00   1.5868131697349831e-05   0.0000000000000000e+00   0.0000000000000000e+00   0.0000000000000000e+00   0.0000000000000000e+00   0.0000000000000000e+00   0.0000000000000000e+00   0.0000000000000000e+00   0.0000000000000000e+00   0.0000000000000000e+00   0.0000000000000000e+00   0.0000000000000000e+00   0.0000000000000000e+00   0.0000000000000000e+00   3.0157428350409579e-03   0.0000000000000000e+00   2.6264789296184834e+06   9.4905496204966494e+03   1.3255682133998610e+07   1.0169154089220092e+07   3.3304995382186519e+06   2.9151836962997019e+06   1.3938531947000716e+06   5.4296182595286602e+06   2.5715275539768497e-03   1.1282583297271580e+04   0.0000000000000000e+00   3.0457181000277127e-06   0.0000000000000000e+00   0.0000000000000000e+00   0.0000000000000000e+00   0.0000000000000000e+00   0.0000000000000000e+00   0.0000000000000000e+00   0.0000000000000000e+00   0.0000000000000000e+00   0.0000000000000000e+00   0.0000000000000000e+00   0.0000000000000000e+00   0.0000000000000000e+00   0.0000000000000000e+00   0.0000000000000000e+00   0.0000000000000000e+00   5.1218322435230366e+03   5.3973698033418142e-04   1.4344530527020581e+07   3.2287512088337597e+06   8.1806680038577123e+06   7.2565267369855307e+06   3.0897090782499611e+06   3.5333870205033920e+06   2.3236637159181833e+06   4.4797838002293305e+06   1.0085287025479395e-02   2.2798045512843488e+04   0.0000000000000000e+00   1.0301139866757974e-04   0.0000000000000000e+00   0.0000000000000000e+00   0.0000000000000000e+00   0.0000000000000000e+00   0.0000000000000000e+00   0.0000000000000000e+00   0.0000000000000000e+00   0.0000000000000000e+00   0.0000000000000000e+00   0.0000000000000000e+00   0.0000000000000000e+00   0.0000000000000000e+00   0.0000000000000000e+00   0.0000000000000000e+00   0.0000000000000000e+00   8.8124432890610756e-06   0.0000000000000000e+00   4.0263724067952266e+04   2.4368041216266513e-03   1.1390246521567371e+07   6.1715528722448659e+05   1.0381680769175462e+07   8.3835368104403364e+06   6.4315958990603751e+06   7.7564000119715389e+06   3.4146992240805002e+06   1.2046884455172680e+07   2.1972067546963920e+00   1.9153121920352525e+05   0.0000000000000000e+00   1.1398570196099780e-01   0.0000000000000000e+00   0.0000000000000000e+00   0.0000000000000000e+00   0.0000000000000000e+00   0.0000000000000000e+00   0.0000000000000000e+00   0.0000000000000000e+00   0.0000000000000000e+00   0.0000000000000000e+00   0.0000000000000000e+00   0.0000000000000000e+00   0.0000000000000000e+00   0.0000000000000000e+00   0.0000000000000000e+00   0.0000000000000000e+00   0.0000000000000000e+00   0.0000000000000000e+00   1.3894940511387270e-07   0.0000000000000000e+00   5.8153094772466360e+01   2.1363606750700202e-06   2.3565476710687326e+06   2.3999416790095370e+02   2.7721222835637469e+07   5.5883128617501287e+06   2.5407339471787009e+07   2.6541503517861124e+07   4.0485654150589472e+06   2.0067141088341422e+07   2.3388686750120705e+03   1.4840293176338023e+06   1.9110225399194942e-04   3.9661878587392943e+02   2.7175989539766899e-05   0.0000000000000000e+00   0.0000000000000000e+00   0.0000000000000000e+00   0.0000000000000000e+00   0.0000000000000000e+00   0.0000000000000000e+00   0.0000000000000000e+00   0.0000000000000000e+00   0.0000000000000000e+00   0.0000000000000000e+00   0.0000000000000000e+00   0.0000000000000000e+00   0.0000000000000000e+00   0.0000000000000000e+00   0.0000000000000000e+00   0.0000000000000000e+00   0.0000000000000000e+00   0.0000000000000000e+00   0.0000000000000000e+00   0.0000000000000000e+00   5.4112686336779811e-04   0.0000000000000000e+00   2.8270356018037901e+03   2.9510180663030621e-03   1.4256726908629721e+07   1.8099694099876331e+04   4.5984112439277664e+07   1.9447050017856307e+07   1.8379204103604741e+07   2.3490523757430583e+07   2.3225240958566298e+06   6.5508750349399084e+06   1.2339282602823232e+01   7.6646284694616962e+05   2.2554663977879028e+00   0.0000000000000000e+00   0.0000000000000000e+00   0.0000000000000000e+00   0.0000000000000000e+00   0.0000000000000000e+00   0.0000000000000000e+00   0.0000000000000000e+00   0.0000000000000000e+00   0.0000000000000000e+00   0.0000000000000000e+00   0.0000000000000000e+00   0.0000000000000000e+00   0.0000000000000000e+00   0.0000000000000000e+00   0.0000000000000000e+00   0.0000000000000000e+00   0.0000000000000000e+00   0.0000000000000000e+00   0.0000000000000000e+00   0.0000000000000000e+00   0.0000000000000000e+00   0.0000000000000000e+00   0.0000000000000000e+00   0.0000000000000000e+00   1.7091952991855792e+00   4.5652576991786136e-08   7.7391773441909999e+05   3.0726541247538666e+01   3.1204393750175368e+07   8.4369135104417074e+06   1.2944332535985455e+07   1.2413025612764515e+07   4.2396852997264778e+06   7.1920203039730806e+06   4.4003443148401944e+04   3.8782004225017186e+06   6.0729786820574582e+03   0.0000000000000000e+00   0.0000000000000000e+00   0.0000000000000000e+00   0.0000000000000000e+00   0.0000000000000000e+00   0.0000000000000000e+00   0.0000000000000000e+00   0.0000000000000000e+00   0.0000000000000000e+00   0.0000000000000000e+00   0.0000000000000000e+00   0.0000000000000000e+00   0.0000000000000000e+00   0.0000000000000000e+00   0.0000000000000000e+00   0.0000000000000000e+00   0.0000000000000000e+00   0.0000000000000000e+00   0.0000000000000000e+00   0.0000000000000000e+00   0.0000000000000000e+00   0.0000000000000000e+00   0.0000000000000000e+00   0.0000000000000000e+00   0.0000000000000000e+00   2.2473615510216764e-03   0.0000000000000000e+00   6.5131249869605599e+04   8.0968913617218377e-02   1.0293134284832807e+07   9.1140371394565445e+05   7.9522064400506560e+06   6.6873106270183930e+06   7.5519566511552939e+06   8.3683691893568309e+06   6.9778663395585371e+06   1.0605122459739972e+07   7.1961660097528913e+05   0.0000000000000000e+00   0.0000000000000000e+00   0.0000000000000000e+00   0.0000000000000000e+00   0.0000000000000000e+00   0.0000000000000000e+00   0.0000000000000000e+00   0.0000000000000000e+00   0.0000000000000000e+00   0.0000000000000000e+00   0.0000000000000000e+00   0.0000000000000000e+00   0.0000000000000000e+00   0.0000000000000000e+00   0.0000000000000000e+00   0.0000000000000000e+00   0.0000000000000000e+00   0.0000000000000000e+00   0.0000000000000000e+00   0.0000000000000000e+00   0.0000000000000000e+00   0.0000000000000000e+00   0.0000000000000000e+00   0.0000000000000000e+00   0.0000000000000000e+00   0.0000000000000000e+00   2.5584197919543485e-06   0.0000000000000000e+00   8.0138156856311116e+02   8.4834876871776586e-05   1.5759654295813045e+06   9.9533224117847094e+03   4.9393820351573145e+06   2.5690158891196223e+06   8.5509093403118048e+06   8.2673061944541624e+06   4.3462230474315956e+06   1.5028963605275234e+07   4.5406685952447020e+02   1.4459971947227286e+06   1.6333071462954198e+01   0.0000000000000000e+00   0.0000000000000000e+00   0.0000000000000000e+00   0.0000000000000000e+00   0.0000000000000000e+00   0.0000000000000000e+00   0.0000000000000000e+00   0.0000000000000000e+00   0.0000000000000000e+00   0.0000000000000000e+00   0.0000000000000000e+00   0.0000000000000000e+00   0.0000000000000000e+00   0.0000000000000000e+00   0.0000000000000000e+00   0.0000000000000000e+00   0.0000000000000000e+00   0.0000000000000000e+00   0.0000000000000000e+00   0.0000000000000000e+00   0.0000000000000000e+00   0.0000000000000000e+00   0.0000000000000000e+00   0.0000000000000000e+00   0.0000000000000000e+00   0.0000000000000000e+00   0.0000000000000000e+00   0.0000000000000000e+00   0.0000000000000000e+00   0.0000000000000000e+00   7.7027270504775025e-01   1.1445946319899927e-08   7.3966143131334661e+05   6.9036696620052718e+00   3.6698779427465545e+06   2.6775143351297323e+06   9.5458283341693580e+06   7.6753142343588443e+06   1.6302474269760037e+07   2.7673163287584946e+07   4.6994973574653966e+04   1.9644476762553420e+07   4.3899136084996444e+03   0.0000000000000000e+00   0.0000000000000000e+00   0.0000000000000000e+00   0.0000000000000000e+00   0.0000000000000000e+00   0.0000000000000000e+00   0.0000000000000000e+00   0.0000000000000000e+00   0.0000000000000000e+00   0.0000000000000000e+00   0.0000000000000000e+00   0.0000000000000000e+00   0.0000000000000000e+00   0.0000000000000000e+00   0.0000000000000000e+00   0.0000000000000000e+00   0.0000000000000000e+00   0.0000000000000000e+00   0.0000000000000000e+00   0.0000000000000000e+00   0.0000000000000000e+00   0.0000000000000000e+00   0.0000000000000000e+00   0.0000000000000000e+00   0.0000000000000000e+00   0.0000000000000000e+00   0.0000000000000000e+00   0.0000000000000000e+00   0.0000000000000000e+00   0.0000000000000000e+00   0.0000000000000000e+00   0.0000000000000000e+00   2.8138097150776218e-05   0.0000000000000000e+00   6.2742787208187792e+02   2.3651091234721549e-04   2.6521761587137491e+06   3.7018041727715354e+03   1.3904300218145834e+07   4.5384775134947005e+05   3.3558827914522342e+07   3.3731247965104289e+07   9.6498444150832929e+06   7.1155337546898514e+07   2.3923121763044125e+06   0.0000000000000000e+00   0.0000000000000000e+00   0.0000000000000000e+00   0.0000000000000000e+00   0.0000000000000000e+00   0.0000000000000000e+00   0.0000000000000000e+00   0.0000000000000000e+00   0.0000000000000000e+00   0.0000000000000000e+00   0.0000000000000000e+00   0.0000000000000000e+00   0.0000000000000000e+00   0.0000000000000000e+00   0.0000000000000000e+00   0.0000000000000000e+00   0.0000000000000000e+00   0.0000000000000000e+00   0.0000000000000000e+00   0.0000000000000000e+00   0.0000000000000000e+00   0.0000000000000000e+00   0.0000000000000000e+00   0.0000000000000000e+00   0.0000000000000000e+00   0.0000000000000000e+00   0.0000000000000000e+00   0.0000000000000000e+00   0.0000000000000000e+00   0.0000000000000000e+00   0.0000000000000000e+00   0.0000000000000000e+00   0.0000000000000000e+00   0.0000000000000000e+00   0.0000000000000000e+00   0.0000000000000000e+00   1.6595488904962305e-01   0.0000000000000000e+00   2.8412188270769076e+05   2.3481191022359749e+00   4.8502430477704950e+07   2.0215169702646367e+06   1.1386171514218917e+07   9.2285209728780165e+06   1.1273932828470539e+07   1.5949438183511393e+07   1.5849858660986917e+07   0.0000000000000000e+00   0.0000000000000000e+00   0.0000000000000000e+00   0.0000000000000000e+00   0.0000000000000000e+00   0.0000000000000000e+00   0.0000000000000000e+00   0.0000000000000000e+00   0.0000000000000000e+00   0.0000000000000000e+00   0.0000000000000000e+00   0.0000000000000000e+00   0.0000000000000000e+00   0.0000000000000000e+00   0.0000000000000000e+00   0.0000000000000000e+00   0.0000000000000000e+00   0.0000000000000000e+00   0.0000000000000000e+00   0.0000000000000000e+00   0.0000000000000000e+00   0.0000000000000000e+00   0.0000000000000000e+00   0.0000000000000000e+00   0.0000000000000000e+00   0.0000000000000000e+00   0.0000000000000000e+00   0.0000000000000000e+00   0.0000000000000000e+00   0.0000000000000000e+00   0.0000000000000000e+00   0.0000000000000000e+00   0.0000000000000000e+00   0.0000000000000000e+00   0.0000000000000000e+00   0.0000000000000000e+00   0.0000000000000000e+00   0.0000000000000000e+00   7.9926240977293059e-05   0.0000000000000000e+00   1.1472429085941918e+04   4.4529668648161519e-03   1.0146552881976096e+07   5.0049335694828554e+05   4.7369849464228451e+06   2.1453346027807277e+06   9.1644105085796341e+06   1.0073739884492112e+07   1.2970657194647618e+07   0.0000000000000000e+00   0.0000000000000000e+00   0.0000000000000000e+00   0.0000000000000000e+00   0.0000000000000000e+00   0.0000000000000000e+00   0.0000000000000000e+00   0.0000000000000000e+00   0.0000000000000000e+00   0.0000000000000000e+00   0.0000000000000000e+00   0.0000000000000000e+00   0.0000000000000000e+00   0.0000000000000000e+00   0.0000000000000000e+00   0.0000000000000000e+00   0.0000000000000000e+00   0.0000000000000000e+00   0.0000000000000000e+00   0.0000000000000000e+00   0.0000000000000000e+00   0.0000000000000000e+00   0.0000000000000000e+00   0.0000000000000000e+00   0.0000000000000000e+00   0.0000000000000000e+00   0.0000000000000000e+00   0.0000000000000000e+00   0.0000000000000000e+00   0.0000000000000000e+00   0.0000000000000000e+00   0.0000000000000000e+00   0.0000000000000000e+00   0.0000000000000000e+00   0.0000000000000000e+00   0.0000000000000000e+00   0.0000000000000000e+00   0.0000000000000000e+00   0.0000000000000000e+00   0.0000000000000000e+00   1.0751880275016040e-06   0.0000000000000000e+00   4.7358003405595264e+03   3.8777392351456859e-04   8.8616199115164150e+06   1.4166211841040703e+06   2.1349305646701255e+06   2.9477063304108591e+06   8.1505849420189112e+06   9.4399595555336550e+06   1.7621010949453030e+07   0.0000000000000000e+00   0.0000000000000000e+00   0.0000000000000000e+00   0.0000000000000000e+00   0.0000000000000000e+00   0.0000000000000000e+00   0.0000000000000000e+00   0.0000000000000000e+00   0.0000000000000000e+00   0.0000000000000000e+00   0.0000000000000000e+00   0.0000000000000000e+00   0.0000000000000000e+00   0.0000000000000000e+00   0.0000000000000000e+00   0.0000000000000000e+00   0.0000000000000000e+00   0.0000000000000000e+00   0.0000000000000000e+00   0.0000000000000000e+00   0.0000000000000000e+00   0.0000000000000000e+00   0.0000000000000000e+00   0.0000000000000000e+00   0.0000000000000000e+00   0.0000000000000000e+00   0.0000000000000000e+00   0.0000000000000000e+00   0.0000000000000000e+00   0.0000000000000000e+00   0.0000000000000000e+00   0.0000000000000000e+00   0.0000000000000000e+00   0.0000000000000000e+00   0.0000000000000000e+00   0.0000000000000000e+00   0.0000000000000000e+00   0.0000000000000000e+00   0.0000000000000000e+00   0.0000000000000000e+00   0.0000000000000000e+00   0.0000000000000000e+00   1.0672118885896794e-06   0.0000000000000000e+00   1.7141602259804324e+04   4.6813063462648958e-03   8.0417354246818488e+06   2.0436001222563186e+06   4.7264497760328623e+06   5.2398703897421733e+06   1.6114495140919700e+07   1.9884481908988263e+07   1.0872773964416217e+06   0.0000000000000000e+00   0.0000000000000000e+00   0.0000000000000000e+00   0.0000000000000000e+00   0.0000000000000000e+00   0.0000000000000000e+00   0.0000000000000000e+00   0.0000000000000000e+00   0.0000000000000000e+00   0.0000000000000000e+00   0.0000000000000000e+00   0.0000000000000000e+00   0.0000000000000000e+00   0.0000000000000000e+00   0.0000000000000000e+00   0.0000000000000000e+00   0.0000000000000000e+00   0.0000000000000000e+00   0.0000000000000000e+00   0.0000000000000000e+00   0.0000000000000000e+00   0.0000000000000000e+00   0.0000000000000000e+00   0.0000000000000000e+00   0.0000000000000000e+00   0.0000000000000000e+00   0.0000000000000000e+00   0.0000000000000000e+00   0.0000000000000000e+00   0.0000000000000000e+00   0.0000000000000000e+00   0.0000000000000000e+00   0.0000000000000000e+00   0.0000000000000000e+00   0.0000000000000000e+00   0.0000000000000000e+00   0.0000000000000000e+00   0.0000000000000000e+00   0.0000000000000000e+00   0.0000000000000000e+00   0.0000000000000000e+00   0.0000000000000000e+00   0.0000000000000000e+00   0.0000000000000000e+00   1.5803850791496106e-04   0.0000000000000000e+00   1.3166630479194019e+06   8.5787147551799130e+00   8.9545930935806986e+06   1.6255791537817651e+07   1.9249966701270603e+07   2.1789047700088467e+07   5.4650346581938218e+04   5.3039524304877538e+06   2.3371446717810818e-04   0.0000000000000000e+00   0.0000000000000000e+00   0.0000000000000000e+00   0.0000000000000000e+00   0.0000000000000000e+00   0.0000000000000000e+00   0.0000000000000000e+00   0.0000000000000000e+00   0.0000000000000000e+00   0.0000000000000000e+00   0.0000000000000000e+00   0.0000000000000000e+00   0.0000000000000000e+00   0.0000000000000000e+00   0.0000000000000000e+00   0.0000000000000000e+00   0.0000000000000000e+00   0.0000000000000000e+00   0.0000000000000000e+00   0.0000000000000000e+00   0.0000000000000000e+00   0.0000000000000000e+00   0.0000000000000000e+00   0.0000000000000000e+00   0.0000000000000000e+00   0.0000000000000000e+00   0.0000000000000000e+00   0.0000000000000000e+00   0.0000000000000000e+00   0.0000000000000000e+00   0.0000000000000000e+00   0.0000000000000000e+00   0.0000000000000000e+00   0.0000000000000000e+00   0.0000000000000000e+00   0.0000000000000000e+00   0.0000000000000000e+00   0.0000000000000000e+00   0.0000000000000000e+00   0.0000000000000000e+00   0.0000000000000000e+00   0.0000000000000000e+00   0.0000000000000000e+00   0.0000000000000000e+00   0.0000000000000000e+00   0.0000000000000000e+00   8.1519719451422077e+00   1.0569734986013910e-04   2.6379119693337493e+07   9.1618442983302157e+06   2.2419290673537102e+07   2.4823414739868928e+07   1.5913551566952986e+06   4.4317506592725560e+07   6.0197299796869401e-06   1.0836929166216061e+00   0.0000000000000000e+00   0.0000000000000000e+00   0.0000000000000000e+00   0.0000000000000000e+00   0.0000000000000000e+00   0.0000000000000000e+00   0.0000000000000000e+00   0.0000000000000000e+00   0.0000000000000000e+00   0.0000000000000000e+00   0.0000000000000000e+00   0.0000000000000000e+00   0.0000000000000000e+00   0.0000000000000000e+00   0.0000000000000000e+00   0.0000000000000000e+00   0.0000000000000000e+00   0.0000000000000000e+00   0.0000000000000000e+00   0.0000000000000000e+00   0.0000000000000000e+00   0.0000000000000000e+00   0.0000000000000000e+00   0.0000000000000000e+00   0.0000000000000000e+00   0.0000000000000000e+00   0.0000000000000000e+00   0.0000000000000000e+00   0.0000000000000000e+00   0.0000000000000000e+00   0.0000000000000000e+00   0.0000000000000000e+00   0.0000000000000000e+00   0.0000000000000000e+00   0.0000000000000000e+00   0.0000000000000000e+00   0.0000000000000000e+00   0.0000000000000000e+00   0.0000000000000000e+00   0.0000000000000000e+00   0.0000000000000000e+00   0.0000000000000000e+00   0.0000000000000000e+00   0.0000000000000000e+00   0.0000000000000000e+00   0.0000000000000000e+00   0.0000000000000000e+00   3.8698528185242287e-01   7.7637135099693499e-03   1.7982411028557271e+07   2.9863985896705605e+07   1.6676276850413928e+07   1.9291426227169529e+07   2.17097639