<?xml version="1.0"?>
<VTKFile type="UnstructuredGrid"  version="0.1"  >
<UnstructuredGrid>
<Piece  NumberOfPoints="614" NumberOfCells="1122">
<Points>
<DataArray  type="Float64"  NumberOfComponents="3"  format="ascii">2.792173913043478 0.2166666666666667 0  2.792173913043478 0.2333333333333333 0  2.808695652173913 0.2333333333333333 0  2.445217391304348 0.2333333333333333 0  2.461739130434782 0.2333333333333333 0  2.461739130434782 0.25 0  2.445217391304348 0.25 0  2.478260869565217 0.2333333333333333 0  2.478260869565217 0.25 0  2.494782608695652 0.2333333333333333 0  2.494782608695652 0.25 0  2.511304347826087 0.2333333333333333 0  2.511304347826087 0.25 0  2.527826086956522 0.2333333333333333 0  2.527826086956522 0.25 0  2.544347826086956 0.2333333333333333 0  2.544347826086956 0.25 0  2.560869565217391 0.2333333333333333 0  2.560869565217391 0.25 0  2.577391304347826 0.2333333333333333 0  2.577391304347826 0.25 0  2.593913043478261 0.2333333333333333 0  2.593913043478261 0.25 0  2.610434782608696 0.2333333333333333 0  2.610434782608696 0.25 0  2.62695652173913 0.2333333333333333 0  2.62695652173913 0.25 0  2.643478260869565 0.2333333333333333 0  2.643478260869565 0.25 0  2.66 0.2333333333333333 0  2.66 0.25 0  2.676521739130435 0.2333333333333333 0  2.676521739130435 0.25 0  2.693043478260869 0.2333333333333333 0  2.693043478260869 0.25 0  2.709565217391304 0.2333333333333333 0  2.709565217391304 0.25 0  2.726086956521739 0.2333333333333333 0  2.726086956521739 0.25 0  2.742608695652174 0.2333333333333333 0  2.742608695652174 0.25 0  2.759130434782609 0.2333333333333333 0  2.759130434782609 0.25 0  2.775652173913044 0.2333333333333333 0  2.775652173913044 0.25 0  2.792173913043478 0.25 0  2.808695652173913 0.25 0  2.825217391304347 0.25 0  2.28 0.25 0  2.296521739130434 0.25 0  2.296521739130434 0.2666666666666667 0  2.28 0.2666666666666667 0  2.31304347826087 0.25 0  2.31304347826087 0.2666666666666667 0  2.329565217391304 0.25 0  2.329565217391304 0.2666666666666667 0  2.346086956521739 0.25 0  2.346086956521739 0.2666666666666667 0  2.362608695652174 0.25 0  2.362608695652174 0.2666666666666667 0  2.379130434782609 0.25 0  2.379130434782609 0.2666666666666667 0  2.395652173913044 0.25 0  2.395652173913044 0.2666666666666667 0  2.412173913043478 0.25 0  2.412173913043478 0.2666666666666667 0  2.428695652173913 0.25 0  2.428695652173913 0.2666666666666667 0  2.445217391304348 0.2666666666666667 0  2.461739130434782 0.2666666666666667 0  2.478260869565217 0.2666666666666667 0  2.494782608695652 0.2666666666666667 0  2.511304347826087 0.2666666666666667 0  2.527826086956522 0.2666666666666667 0  2.544347826086956 0.2666666666666667 0  2.560869565217391 0.2666666666666667 0  2.577391304347826 0.2666666666666667 0  2.593913043478261 0.2666666666666667 0  2.610434782608696 0.2666666666666667 0  2.62695652173913 0.2666666666666667 0  2.643478260869565 0.2666666666666667 0  2.66 0.2666666666666667 0  2.676521739130435 0.2666666666666667 0  2.693043478260869 0.2666666666666667 0  2.709565217391304 0.2666666666666667 0  2.726086956521739 0.2666666666666667 0  2.742608695652174 0.2666666666666667 0  2.759130434782609 0.2666666666666667 0  2.775652173913044 0.2666666666666667 0  2.792173913043478 0.2666666666666667 0  2.808695652173913 0.2666666666666667 0  2.825217391304347 0.2666666666666667 0  2.841739130434783 0.2666666666666667 0  2.24695652173913 0.2666666666666667 0  2.263478260869565 0.2666666666666667 0  2.263478260869565 0.2833333333333333 0  2.28 0.2833333333333333 0  2.296521739130434 0.2833333333333333 0  2.31304347826087 0.2833333333333333 0  2.329565217391304 0.2833333333333333 0  2.346086956521739 0.2833333333333333 0  2.362608695652174 0.2833333333333333 0  2.379130434782609 0.2833333333333333 0  2.395652173913044 0.2833333333333333 0  2.412173913043478 0.2833333333333333 0  2.428695652173913 0.2833333333333333 0  2.445217391304348 0.2833333333333333 0  2.461739130434782 0.2833333333333333 0  2.478260869565217 0.2833333333333333 0  2.494782608695652 0.2833333333333333 0  2.511304347826087 0.2833333333333333 0  2.527826086956522 0.2833333333333333 0  2.544347826086956 0.2833333333333333 0  2.560869565217391 0.2833333333333333 0  2.577391304347826 0.2833333333333333 0  2.593913043478261 0.2833333333333333 0  2.610434782608696 0.2833333333333333 0  2.62695652173913 0.2833333333333333 0  2.643478260869565 0.2833333333333333 0  2.66 0.2833333333333333 0  2.676521739130435 0.2833333333333333 0  2.693043478260869 0.2833333333333333 0  2.709565217391304 0.2833333333333333 0  2.726086956521739 0.2833333333333333 0  2.742608695652174 0.2833333333333333 0  2.759130434782609 0.2833333333333333 0  2.775652173913044 0.2833333333333333 0  2.792173913043478 0.2833333333333333 0  2.808695652173913 0.2833333333333333 0  2.825217391304347 0.2833333333333333 0  2.841739130434783 0.2833333333333333 0  2.858260869565217 0.2833333333333333 0  2.28 0.3 0  2.296521739130434 0.3 0  2.31304347826087 0.3 0  2.329565217391304 0.3 0  2.346086956521739 0.3 0  2.362608695652174 0.3 0  2.379130434782609 0.3 0  2.395652173913044 0.3 0  2.412173913043478 0.3 0  2.428695652173913 0.3 0  2.445217391304348 0.3 0  2.461739130434782 0.3 0  2.478260869565217 0.3 0  2.494782608695652 0.3 0  2.511304347826087 0.3 0  2.527826086956522 0.3 0  2.544347826086956 0.3 0  2.560869565217391 0.3 0  2.577391304347826 0.3 0  2.593913043478261 0.3 0  2.610434782608696 0.3 0  2.62695652173913 0.3 0  2.643478260869565 0.3 0  2.66 0.3 0  2.676521739130435 0.3 0  2.693043478260869 0.3 0  2.709565217391304 0.3 0  2.726086956521739 0.3 0  2.742608695652174 0.3 0  2.759130434782609 0.3 0  2.775652173913044 0.3 0  2.792173913043478 0.3 0  2.808695652173913 0.3 0  2.825217391304347 0.3 0  2.841739130434783 0.3 0  2.858260869565217 0.3 0  2.874782608695652 0.3 0  2.296521739130434 0.3166666666666667 0  2.31304347826087 0.3166666666666667 0  2.329565217391304 0.3166666666666667 0  2.346086956521739 0.3166666666666667 0  2.362608695652174 0.3166666666666667 0  2.379130434782609 0.3166666666666667 0  2.395652173913044 0.3166666666666667 0  2.412173913043478 0.3166666666666667 0  2.428695652173913 0.3166666666666667 0  2.445217391304348 0.3166666666666667 0  2.461739130434782 0.3166666666666667 0  2.478260869565217 0.3166666666666667 0  2.494782608695652 0.3166666666666667 0  2.511304347826087 0.3166666666666667 0  2.527826086956522 0.3166666666666667 0  2.544347826086956 0.3166666666666667 0  2.560869565217391 0.3166666666666667 0  2.577391304347826 0.3166666666666667 0  2.593913043478261 0.3166666666666667 0  2.610434782608696 0.3166666666666667 0  2.62695652173913 0.3166666666666667 0  2.643478260869565 0.3166666666666667 0  2.66 0.3166666666666667 0  2.676521739130435 0.3166666666666667 0  2.693043478260869 0.3166666666666667 0  2.709565217391304 0.3166666666666667 0  2.726086956521739 0.3166666666666667 0  2.742608695652174 0.3166666666666667 0  2.759130434782609 0.3166666666666667 0  2.775652173913044 0.3166666666666667 0  2.792173913043478 0.3166666666666667 0  2.808695652173913 0.3166666666666667 0  2.825217391304347 0.3166666666666667 0  2.841739130434783 0.3166666666666667 0  2.858260869565217 0.3166666666666667 0  2.874782608695652 0.3166666666666667 0  2.891304347826087 0.3166666666666667 0  2.31304347826087 0.3333333333333333 0  2.329565217391304 0.3333333333333333 0  2.346086956521739 0.3333333333333333 0  2.362608695652174 0.3333333333333333 0  2.379130434782609 0.3333333333333333 0  2.395652173913044 0.3333333333333333 0  2.412173913043478 0.3333333333333333 0  2.428695652173913 0.3333333333333333 0  2.445217391304348 0.3333333333333333 0  2.461739130434782 0.3333333333333333 0  2.478260869565217 0.3333333333333333 0  2.494782608695652 0.3333333333333333 0  2.511304347826087 0.3333333333333333 0  2.527826086956522 0.3333333333333333 0  2.544347826086956 0.3333333333333333 0  2.560869565217391 0.3333333333333333 0  2.577391304347826 0.3333333333333333 0  2.593913043478261 0.3333333333333333 0  2.610434782608696 0.3333333333333333 0  2.62695652173913 0.3333333333333333 0  2.643478260869565 0.3333333333333333 0  2.66 0.3333333333333333 0  2.676521739130435 0.3333333333333333 0  2.693043478260869 0.3333333333333333 0  2.709565217391304 0.3333333333333333 0  2.726086956521739 0.3333333333333333 0  2.742608695652174 0.3333333333333333 0  2.759130434782609 0.3333333333333333 0  2.775652173913044 0.3333333333333333 0  2.792173913043478 0.3333333333333333 0  2.808695652173913 0.3333333333333333 0  2.825217391304347 0.3333333333333333 0  2.841739130434783 0.3333333333333333 0  2.858260869565217 0.3333333333333333 0  2.874782608695652 0.3333333333333333 0  2.891304347826087 0.3333333333333333 0  2.907826086956522 0.3333333333333333 0  2.329565217391304 0.35 0  2.346086956521739 0.35 0  2.362608695652174 0.35 0  2.379130434782609 0.35 0  2.395652173913044 0.35 0  2.412173913043478 0.35 0  2.428695652173913 0.35 0  2.445217391304348 0.35 0  2.461739130434782 0.35 0  2.478260869565217 0.35 0  2.494782608695652 0.35 0  2.511304347826087 0.35 0  2.527826086956522 0.35 0  2.544347826086956 0.35 0  2.560869565217391 0.35 0  2.577391304347826 0.35 0  2.593913043478261 0.35 0  2.610434782608696 0.35 0  2.62695652173913 0.35 0  2.643478260869565 0.35 0  2.66 0.35 0  2.676521739130435 0.35 0  2.693043478260869 0.35 0  2.709565217391304 0.35 0  2.726086956521739 0.35 0  2.742608695652174 0.35 0  2.759130434782609 0.35 0  2.775652173913044 0.35 0  2.792173913043478 0.35 0  2.808695652173913 0.35 0  2.825217391304347 0.35 0  2.841739130434783 0.35 0  2.858260869565217 0.35 0  2.874782608695652 0.35 0  2.891304347826087 0.35 0  2.907826086956522 0.35 0  2.924347826086957 0.35 0  2.346086956521739 0.3666666666666666 0  2.362608695652174 0.3666666666666666 0  2.379130434782609 0.3666666666666666 0  2.395652173913044 0.3666666666666666 0  2.412173913043478 0.3666666666666666 0  2.428695652173913 0.3666666666666666 0  2.445217391304348 0.3666666666666666 0  2.461739130434782 0.3
[...]
<PointData  Vectors="Displacement"> 
<DataArray  type="Float64"  Name="Displacement"  NumberOfComponents="3" format="ascii">1.3923143382568324e-04 5.0063723015965570e-03 0.0000000000000000e+00  1.1909357976245527e-04 5.0068913834799148e-03 0.0000000000000000e+00  1.2060028659795115e-04 5.0456464674717306e-03 0.0000000000000000e+00  7.1681482193071991e-05 3.9827745037244247e-03 0.0000000000000000e+00  7.5275644949439964e-05 4.0328328604579307e-03 0.0000000000000000e+00  5.5119807837636519e-05 4.0189135578171525e-03 0.0000000000000000e+00  5.1567706079877661e-05 3.9683499218505962e-03 0.0000000000000000e+00  7.8839620258561860e-05 4.0831381144673358e-03 0.0000000000000000e+00  5.8676402339159322e-05 4.0697345978085112e-03 0.0000000000000000e+00  8.2361983395520295e-05 4.1336843055852788e-03 0.0000000000000000e+00  6.2215556348345634e-05 4.1208295998711722e-03 0.0000000000000000e+00  8.5819290147364088e-05 4.1844585041946429e-03 0.0000000000000000e+00  6.5702018996706920e-05 4.1722012173200382e-03 0.0000000000000000e+00  8.9180867981207034e-05 4.2354351543549325e-03 0.0000000000000000e+00  6.9093265343930961e-05 4.2238328530705962e-03 0.0000000000000000e+00  9.2413403292528222e-05 4.2865728480339484e-03 0.0000000000000000e+00  7.2345105140590664e-05 4.2756858013022810e-03 0.0000000000000000e+00  9.5485302497655246e-05 4.3378128889510125e-03 0.0000000000000000e+00  7.5417248564961569e-05 4.3276979383174274e-03 0.0000000000000000e+00  9.8370341636555683e-05 4.3890802050614184e-03 0.0000000000000000e+00  7.8277997932762463e-05 4.3797858943514460e-03 0.0000000000000000e+00  1.0105001374793453e-04 4.4402862296389796e-03 0.0000000000000000e+00  8.0907061783513896e-05 4.4318501102198413e-03 0.0000000000000000e+00  1.0351434121645280e-04 4.4913325648547487e-03 0.0000000000000000e+00  8.3296229255654821e-05 4.4837807480208091e-03 0.0000000000000000e+00  1.0576128369147976e-04 4.5421142522425167e-03 0.0000000000000000e+00  8.5448200355443376e-05 4.5354627719555417e-03 0.0000000000000000e+00  1.0779506019465889e-04 4.5925218134773129e-03 0.0000000000000000e+00  8.7373996661784819e-05 4.5867792121436820e-03 0.0000000000000000e+00  1.0962382601395620e-04 4.6424414966888200e-03 0.0000000000000000e+00  8.9089361076514730e-05 4.6376118968949262e-03 0.0000000000000000e+00  1.1125732414714264e-04 4.6917534733436454e-03 0.0000000000000000e+00  9.0610611616369450e-05 4.6878391128215499e-03 0.0000000000000000e+00  1.1270547579730416e-04 4.7403280551424481e-03 0.0000000000000000e+00  9.1951027874449047e-05 4.7373296926890244e-03 0.0000000000000000e+00  1.1397917626304893e-04 4.7880206611815570e-03 0.0000000000000000e+00  9.3119775266965358e-05 4.7859339775155902e-03 0.0000000000000000e+00  1.1509445542731495e-04 4.8346669407850571e-03 0.0000000000000000e+00  9.4125984386713972e-05 4.8334735791279457e-03 0.0000000000000000e+00  1.1608091481400489e-04 4.8800800588434693e-03 0.0000000000000000e+00  9.4989535963158859e-05 4.8797318149707333e-03 0.0000000000000000e+00  1.1699492476693742e-04 4.9240525404251638e-03 0.0000000000000000e+00  9.5761114697498048e-05 4.9244475071197691e-03 0.0000000000000000e+00  1.1794662113470565e-04 4.9663639296819804e-03 0.0000000000000000e+00  9.6561913537313992e-05 4.9672854689404361e-03 0.0000000000000000e+00  9.7574072732578096e-05 5.0080561585869503e-03 0.0000000000000000e+00  9.9038521814686048e-05 5.0468068368925423e-03 0.0000000000000000e+00  1.0107120076824552e-04 5.0838471870788791e-03 0.0000000000000000e+00  8.2896919114501603e-06 3.4986910425342335e-03 0.0000000000000000e+00  1.3439468002535435e-05 3.5381668920553473e-03 0.0000000000000000e+00  -6.7704172576529377e-06 3.5165178598498179e-03 0.0000000000000000e+00  -1.2091432934188299e-05 3.4767229928184635e-03 0.0000000000000000e+00  1.8616185063639038e-05 3.5806045775378177e-03 0.0000000000000000e+00  -1.5764104886009682e-06 3.5596741766838035e-03 0.0000000000000000e+00  2.3651734830603045e-05 3.6252543482289869e-03 0.0000000000000000e+00  3.4626443802457477e-06 3.6051151860477977e-03 0.0000000000000000e+00  2.8455009007908627e-05 3.6716913692537564e-03 0.0000000000000000e+00  8.2711076331039178e-06 3.6524563605466790e-03 0.0000000000000000e+00  3.2910968574958290e-05 3.7196239309160006e-03 0.0000000000000000e+00  1.2633004535116466e-05 3.7015069933591148e-03 0.0000000000000000e+00  3.7003958524510386e-05 3.7685504687279612e-03 0.0000000000000000e+00  1.6533373386961265e-05 3.7514901983673049e-03 0.0000000000000000e+00  4.0815936084513094e-05 3.8180605186204572e-03 0.0000000000000000e+00  2.0120586082610714e-05 3.8018679508888603e-03 0.0000000000000000e+00  4.4457700469538972e-05 3.8679178766605729e-03 0.0000000000000000e+00  2.3562665933085784e-05 3.8524090272746355e-03 0.0000000000000000e+00  4.8022065111495807e-05 3.9180220254672821e-03 0.0000000000000000e+00  2.6980453914246928e-05 3.9030690660211867e-03 0.0000000000000000e+00  3.0437991032795250e-05 3.9538854630630929e-03 0.0000000000000000e+00  3.3953470712722379e-05 4.0049198308095045e-03 0.0000000000000000e+00  3.7512398223646505e-05 4.0562312057636669e-03 0.0000000000000000e+00  4.1078254984874830e-05 4.1078628775469486e-03 0.0000000000000000e+00  4.4600749429432994e-05 4.1598351878157245e-03 0.0000000000000000e+00  4.8022770170924061e-05 4.2121410575726307e-03 0.0000000000000000e+00  5.1286824082252521e-05 4.2647436373744107e-03 0.0000000000000000e+00  5.4342194997752817e-05 4.3175744538719307e-03 0.0000000000000000e+00  5.7151083400518651e-05 4.3705374110537126e-03 0.0000000000000000e+00  5.9691937188522813e-05 4.4235171834612723e-03 0.0000000000000000e+00  6.1959820745483059e-05 4.4763882924633153e-03 0.0000000000000000e+00  6.3964517841067281e-05 4.5290225513763245e-03 0.0000000000000000e+00  6.5727006399052230e-05 4.5812939918635324e-03 0.0000000000000000e+00  6.7274671840765848e-05 4.6330806309307108e-03 0.0000000000000000e+00  6.8635253596763620e-05 4.6842624014651283e-03 0.0000000000000000e+00  6.9829946530824082e-05 4.7347133702836212e-03 0.0000000000000000e+00  7.0868219816334067e-05 4.7842874190450911e-03 0.0000000000000000e+00  7.1749305411602049e-05 4.8327988918937812e-03 0.0000000000000000e+00  7.2477893165463767e-05 4.8800030731333769e-03 0.0000000000000000e+00  7.3093191709247963e-05 4.9255711835972512e-03 0.0000000000000000e+00  7.3772314626851466e-05 4.9690096153688452e-03 0.0000000000000000e+00  7.4643591139313738e-05 5.0100156322612803e-03 0.0000000000000000e+00  7.5926604022269340e-05 5.0485600939859385e-03 0.0000000000000000e+00  7.7972228718854584e-05 5.0854291242974281e-03 0.0000000000000000e+00  8.0332552400658625e-05 5.1208785359744755e-03 0.0000000000000000e+00  -1.9026973851803242e-05 3.4088653482395761e-03 0.0000000000000000e+00  -1.6637812471300209e-05 3.4447034101501971e-03 0.0000000000000000e+00  -3.4913263806429293e-05 3.4286206163340201e-03 0.0000000000000000e+00  -3.3269464909724843e-05 3.4521147847350582e-03 0.0000000000000000e+00  -2.8005115068756952e-05 3.4937022069690313e-03 0.0000000000000000e+00  -2.2920656098176409e-05 3.5379483781777265e-03 0.0000000000000000e+00  -1.7849581572663659e-05 3.5842910842801869e-03 0.0000000000000000e+00  -1.2933813042058883e-05 3.6326623524378728e-03 0.0000000000000000e+00  -8.6479425265131361e-06 3.6831834206229415e-03 0.0000000000000000e+00  -4.9852817985656026e-06 3.7344505217620960e-03 0.0000000000000000e+00  -1.6678465382212450e-06 3.7857684598166718e-03 0.0000000000000000e+00  1.5555072454662151e-06 3.8369738769431748e-03 0.0000000000000000e+00  4.8323476818641489e-06 3.8881346390899972e-03 0.0000000000000000e+00  8.2222934447206848e-06 3.9393796717697794e-03 0.0000000000000000e+00  1.1727568339156072e-05 3.9908343803836581e-03 0.0000000000000000e+00  1.5315040924183142e-05 4.0426014561785297e-03 0.0000000000000000e+00  1.8929746986325728e-05 4.0947538398581609e-03 0.0000000000000000e+00  2.2503622732843263e-05 4.1473309878400878e-03 0.0000000000000000e+00  2.5962533072716553e-05 4.2003356120388731e-03 0.0000000000000000e+00  2.9233081758131897e-05 4.2537317259178972e-03 0.0000000000000000e+00  3.2252211610896763e-05 4.3074402589671603e-03 0.0000000000000000e+00  3.4975502259259678e-05 4.3613460091325206e-03 0.0000000000000000e+00  3.7380946243746747e-05 4.4153113346725743e-03 0.0000000000000000e+00  3.9468614644538081e-05 4.4691895566921751e-03 0.0000000000000000e+00  4.1257770152113932e-05 4.5228351890112288e-03 0.0000000000000000e+00  4.2782422646799738e-05 4.5761107769723272e-03 0.0000000000000000e+00  4.4085738261935657e-05 4.6288901492812186e-03 0.0000000000000000e+00  4.5212778239567550e-05 4.6810580960022254e-03 0.0000000000000000e+00  4.6200616723761569e-05 4.7325031200758164e-03 0.0000000000000000e+00  4.7065226861996268e-05 4.7830977164054610e-03 0.0000000000000000e+00  4.7794688041439947e-05 4.8326658273898319e-03 0.0000000000000000e+00  4.8362298039284606e-05 4.8809367788997422e-03 0.0000000000000000e+00  4.8800392802423943e-05 4.9275046120036449e-03 0.0000000000000000e+00  4.9386141836757208e-05 4.9715198460973265e-03 0.0000000000000000e+00  5.0507690018582971e-05 5.0129370087015112e-03 0.0000000000000000e+00  5.1565618981512461e-05 5.0512008980950337e-03 0.0000000000000000e+00  5.2849412883926194e-05 5.0872099722056498e-03 0.0000000000000000e+00  5.6046604047885941e-05 5.1238972680299642e-03 0.0000000000000000e+00  5.4845055165546143e-05 5.1562233430379363e-03 0.0000000000000000e+00  -5.2439637927999925e-05 3.4489180661059411e-03 0.0000000000000000e+00  -5.1840541070466661e-05 3.4698091152386024e-03 0.0000000000000000e+00  -4.6189413499723016e-05 3.5154059997259896e-03 0.0000000000000000e+00  -4.0705094360754647e-05 3.5626215796229648e-03 0.0000000000000000e+00  -3.5362632264866491e-05 3.6121037036928060e-03 0.0000000000000000e+00  -3.1089356701482994e-05 3.6647281043244006e-03 0.0000000000000000e+00  -2.7716129326221241e-05 3.7175745521418504e-03 0.0000000000000000e+00  -2.4700724894796316e-05 3.7698666603114619e-03 0.0000000000000000e+00  -2.1682623285929942e-05 3.8216602255882735e-03 0.0000000000000000e+00  -1.8503904369395847e-05 3.8732238164959909e-03 0.0000000000000000e+00  -1.5129033160127851e-05 3.9248116453257254e-03 0.0000000000000000e+00  -1.1583726655473111e-05 3.9766220394845571e-03 0.0000000000000000e+00  -7.9252187553261156e-06 4.0288034391012693e-03 0.0000000000000000e+00  -4.2290009530182849e-06 4.0814591051283808e-03 0.0000000000000000e+00  -5.8205561430553371e-07 4.1346484013149599e-03 0.0000000000000000e+00  2.9228407900328756e-06 4.1883843050460742e-03 0.0000000000000000e+00  6.1934731866810314e-06 4.2426313734785131e-03 0.0000000000000000e+00  9.1522539343456204e-06 4.2972937937516458e-03 0.0000000000000000e+00  1.1747925004758775e-05 4.3522280937507403e-03 0.0000000000000000e+00  1.3959326609704771e-05 4.4072656307584251e-03 0.0000000000000000e+00  1.5793482501319470e-05 4.4622316481870601e-03 0.0000000000000000e+00  1.7281252927700783e-05 4.5169582812434146e-03 0.0000000000000000e+00  1.8471965142359939e-05 4.5712931638143255e-03 0.0000000000000000e+00  1.9427456169264121e-05 4.6251040797425039e-03 0.0000000000000000e+00  2.0214571751816932e-05 4.6782816192099414e-03 0.0000000000000000e+00  2.0895185228008911e-05 4.7307365642837449e-03 0.0000000000000000e+00  2.1508172086126715e-05 4.7823849874785336e-03 0.0000000000000000e+00  2.2032538222465879e-05 4.8330944622566431e-03 0.0000000000000000e+00  2.2395517670176502e-05 4.8826051030851489e-03 0.0000000000000000e+00  2.2535399244963221e-05 4.9303479878932879e-03 0.0000000000000000e+00  2.3179816211756582e-05 4.9748852756931038e-03 0.0000000000000000e+00  2.4485644374086794e-05 5.0159179664273365e-03 0.0000000000000000e+00  2.8320518316389818e-05 5.0558475259788148e-03 0.0000000000000000e+00  2.6140996990659084e-05 5.0903374224746485e-03 0.0000000000000000e+00  2.5385239025982382e-05 5.1236545811298734e-03 0.0000000000000000e+00  2.4835057301959078e-05 5.1559392140534737e-03 0.0000000000000000e+00  2.4489911050822662e-05 5.1870414679488731e-03 0.0000000000000000e+00  -7.1331658142534949e-05 3.4700680144044084e-03 0.0000000000000000e+00  -7.0880743240285288e-05 3.4920122828580179e-03 0.0000000000000000e+00  -6.5070112795522243e-05 3.5398040348359814e-03 0.0000000000000000e+00  -5.9021784289187701e-05 3.5903512957554127e-03 0.0000000000000000e+00  -5.4809842451863190e-05 3.6463374505118456e-03 0.0000000000000000e+00  -5.1842481832229635e-05 3.7010887052341015e-03 0.0000000000000000e+00  -4.9137336013574983e-05 3.7542808373800421e-03 0.0000000000000000e+00  -4.6252548134975658e-05 3.8064940385685196e-03 0.0000000000000000e+00  -4.3074486279898470e-05 3.8583123243040992e-03 0.0000000000000000e+00  -3.9624131608086617e-05 3.9101350143561486e-03 0.0000000000000000e+00  -3.5966166419325682e-05 3.9622278796387035e-03 0.0000000000000000e+00  -3.2182695095697056e-05 4.0147799660900582e-03 0.0000000000000000e+00  -2.8367369683776716e-05 4.0679228532404504e-03 0.0000000000000000e+00  -2.4624243508361085e-05 4.1217367587046755e-03 0.0000000000000000e+00  -2.1065064796434026e-05 4.1762467979062461e-03 0.0000000000000000e+00  -1.7804813250503660e-05 4.2314203559050429e-03 0.0000000000000000e+00  -1.4938328513384879e-05 4.2871354354728202e-03 0.0000000000000000e+00  -1.2523177533779868e-05 4.3432068810756392e-03 0.0000000000000000e+00  -1.0577388180554617e-05 4.3994239325680293e-03 0.0000000000000000e+00  -9.0847163297745005e-06 4.4555759744475771e-03 0.0000000000000000e+00  -8.0012060812784478e-06 4.5114672833402999e-03 0.0000000000000000e+00  -7.2614892892352188e-06 4.5669267297397415e-03 0.0000000000000000e+00  -6.7846511708401823e-06 4.6218132179759635e-03 0.0000000000000000e+00  -6.4823704450147335e-06 4.6760219432055309e-03 0.0000000000000000e+00  -6.2681914692875845e-06 4.7294870378093790e-03 0.0000000000000000e+00  -6.0697195693765475e-06 4.7821863496321851e-03 0.0000000000000000e+00  -5.8721175611869373e-06 4.8341291905241446e-03 0.0000000000000000e+00  -5.8925867122851699e-06 4.8851279431874105e-03 0.0000000000000000e+00  -6.2990290391017085e-06 4.9346264358153145e-03 0.0000000000000000e+00  -6.3768445718859343e-06 4.9790242045944372e-03 0.0000000000000000e+00  -3.8738485857062184e-06 5.0208743590902964e-03 0.0000000000000000e+00  -4.9915753408430245e-06 5.0558500608061394e-03 0.0000000000000000e+00  -5.4549641891612106e-06 5.0898816160201569e-03 0.0000000000000000e+00  -6.0356354834389379e-06 5.1234079032887233e-03 0.0000000000000000e+00  -6.3224504145117408e-06 5.1557952725580138e-03 0.0000000000000000e+00  -6.3819583867343493e-06 5.1870517524547945e-03 0.0000000000000000e+00  -6.2645188002617767e-06 5.2173179928684003e-03 0.0000000000000000e+00  -9.1419710936151339e-05 3.4924090239849739e-03 0.0000000000000000e+00  -9.1120903022681881e-05 3.5156361035667701e-03 0.0000000000000000e+00  -8.4173467456351563e-05 3.5665697173682923e-03 0.0000000000000000e+00  -8.0145547399250629e-05 3.6285528268502972e-03 0.0000000000000000e+00  -7.7668552118977737e-05 3.6853314757907024e-03 0.0000000000000000e+00  -7.5145190567588917e-05 3.7391119409884177e-03 0.0000000000000000e+00  -7.2198211859078148e-05 3.7914493936377822e-03 0.0000000000000000e+00  -6.8847822822322443e-05 3.8433323092685167e-03 0.0000000000000000e+00  -6.5196995737653468e-05 3.8952754556955357e-03 0.0000000000000000e+00  -6.1343733929455552e-05 3.9475800169383761e-03 0.0000000000000000e+00  -5.7383272611938641e-05 4.0004627506982958e-03 0.0000000000000000e+00  -5.3417621180072434e-05 4.0540802384999670e-03 0.0000000000000000e+00  -4.9562216627651043e-05 4.1085367181355045e-03 0.0000000000000000e+00  -4.5946918925728903e-05 4.1638748988169503e-03 0.0000000000000000e+00  -4.2716513153481976e-05 4.2200740746836159e-03 0.0000000000000000e+00  -3.9986756127072622e-05 4.2769695928099307e-03 0.0000000000000000e+00  -3.7819190445966551e-05 4.3343143361453049e-03 0.0000000000000000e+00  -3.6224474219315249e-05 4.3918418757191470e-03 0.0000000000000000e+00  -3.5174203149577868e-05 4.4492981084550496e-03 0.0000000000000000e+00  -3.4610594492042795e-05 4.5064545317864474e-03 0.0000000000000000e+00  -3.4453518816844409e-05 4.5631176185452647e-03 0.0000000000000000e+00  -3.4604939160544353e-05 4.6191338539045921e-03 0.0000000000000000e+00  -3.4958255284661452e-05 4.6744027795034985e-03 0.0000000000000000e+00  -3.5413049392734316e-05 4.7288807130686627e-03 0.0000000000000000e+00  -3.5887454621986145e-05 4.7825965488260238e-03 0.0000000000000000e+00  -3.6321659701882226e-05 4.8357282012378806e-03 0.0000000000000000e+00  -3.6738167104947683e-05 4.8886969190029298e-03 0.0000000000000000e+00  -3.8355275450242247e-05 4.9404326030440008e-03 0.0000000000000000e+00  -3.7257303419491002e-05 4.9852955588637433e-03 0.0000000000000000e+00  -3.7800332533616918e-05 5.0207774602566615e-03 0.0000000000000000e+00  -3.8217228633348036e-05 5.0556258669978938e-03 0.0000000000000000e+00  -3.8545139077273906e-05 5.0897441472230560e-03 0.0000000000000000e+00  -3.8710116028799131e-05 5.1233141584847743e-03 0.0000000000000000e+00  -3.8707121534906549e-05 5.1558240753566140e-03 0.0000000000000000e+00  -3.8452978464210470e-05 5.1872316231006835e-03 0.0000000000000000e+00  -3.7021109065303409e-05 5.2173594262520419e-03 0.0000000000000000e+00  -4.0285740609206881e-05 5.2530065077517540e-03 0.0000000000000000e+00  -1.1287176264667015e-04 3.5162359078093693e-03 0.0000000000000000e+00  -1.1311405931215901e-04 3.5383703742518451e-03 0.0000000000000000e+00  -1.0804449948301021e-04 3.6126088525039336e-03 0.0000000000000000e+00  -1.0558154431135658e-04 3.6706559612164026e-03 0.0000000000000000e+00  -1.0274558177193051e-04 3.7243526909970129e-03 0.0000000000000000e+00  -9.9371509389547586e-05 3.7764071566164358e-03 0.0000000000000000e+00  -9.5628518307282510e-05 3.8281680227686748e-03 0.0000000000000000e+00  -9.1661853613481863e-05 3.8801411477094607e-03 0.0000000000000000e+00  -8.7557262157145021e-05 3.9326019714396292e-03 0.0000000000000000e+00  -8.3395331038920733e-05 3.9857826988470074e-03 0.0000000000000000e+00  -7.9271693329532520e-05 4.0398642659093004e-03 0.0000000000000000e+00  -7.5306213180871773e-05 4.0949834450789233e-03 0.0000000000000000e+00  -7.1646201114369785e-05 4.1512125340552302e-03 0.0000000000000000e+00  -6.8481007927631733e-05 4.2085677048963807e-03 0.0000000000000000e+00  -6.5951854554845905e-05 4.2668082591542523e-03 0.0000000000000000e+00  -6.4117577208482924e-05 4.3255937286502295e-03 0.0000000000000000e+00  -6.2973670364233615e-05 4.3845870674266169e-03 0.0000000000000000e+00  -6.2475500856649246e-05 4.4434853455623605e-03 0.0000000000000000e+00  -6.2551420908846397e-05 4.5020243689251104e-03 0.0000000000000000e+00  -6.3109948108692408e-05 4.5599855059260085e-03 0.0000000000000000e+00  -6.4039676439332920e-05 4.6171966277986348e-03 0.0000000000000000e+00  -6.5217786071951626e-05 4.6735607817538459e-03 0.0000000000000000e+00  -6.6530069795829762e-05 4.7290678192984650e-03 0.0000000000000000e+00  -6.7926447226147920e-05 4.7838000268740338e-03 0.0000000000000000e+00  -6.9459091499615380e-05 4.8380116903218636e-03 0.0000000000000000e+00  -7.1118872953107362e-05 4.8924224542393818e-03 0.0000000000000000e+00  -7.1553501989462501e-05 4.9493614110219181e-03 0.0000000000000000e+00  -7.1569464256839222e-05 4.9848904513428724e-03 0.0000000000000000e+00  -7.1879393394254192e-05 5.0205425554282271e-03 0.0000000000000000e+00  -7.2161115410983019e-05 5.0554725502310553e-03 0.0000000000000000e+00  -7.2290387106529043e-05 5.0897129938779068e-03 0.0000000000000000e+00  -7.2327820534203910e-05 5.1233096133388341e-03 0.0000000000000000e+00  -7.2023331734560650e-05 5.1559544779935891e-03 0.0000000000000000e+00  -7.2987157333193156e-05 5.1914102376314636e-03 0.0000000000000000e+00  -7.5128574113745832e-05 5.2247166910960137e-03 0.0000000000000000e+00  -7.8497229936620312e-05 5.2607067535436801e-03 0.0000000000000000e+00  -8.2200083119643932e-05 5.2961070378425247e-03 0.0000000000000000e+00  -1.3552577362337792e-04 3.5411377311337796e-03 0.0000000000000000e+00  -1.3776462224410216e-04 3.6016772948059433e-03 0.0000000000000000