<?xml version="1.0"?>
<VTKFile type="UnstructuredGrid"  version="0.1"  >
<UnstructuredGrid>
<Piece  NumberOfPoints="639" NumberOfCells="1174">
<Points>
<DataArray  type="Float64"  NumberOfComponents="3"  format="ascii">1.024347826086957 0 0  1.040869565217391 0 0  1.040869565217391 0.01666666666666667 0  1.024347826086957 0.01666666666666667 0  1.057391304347826 0 0  1.057391304347826 0.01666666666666667 0  1.073913043478261 0 0  1.073913043478261 0.01666666666666667 0  1.090434782608696 0 0  1.090434782608696 0.01666666666666667 0  1.10695652173913 0 0  1.10695652173913 0.01666666666666667 0  1.123478260869565 0 0  1.123478260869565 0.01666666666666667 0  1.14 0 0  1.14 0.01666666666666667 0  1.156521739130435 0 0  1.156521739130435 0.01666666666666667 0  1.17304347826087 0 0  1.17304347826087 0.01666666666666667 0  1.189565217391304 0 0  1.189565217391304 0.01666666666666667 0  1.206086956521739 0 0  1.206086956521739 0.01666666666666667 0  1.222608695652174 0 0  1.222608695652174 0.01666666666666667 0  1.239130434782609 0 0  1.239130434782609 0.01666666666666667 0  1.255652173913044 0 0  1.255652173913044 0.01666666666666667 0  1.272173913043478 0 0  1.272173913043478 0.01666666666666667 0  1.288695652173913 0 0  1.288695652173913 0.01666666666666667 0  1.305217391304348 0 0  1.305217391304348 0.01666666666666667 0  1.321739130434783 0 0  1.321739130434783 0.01666666666666667 0  1.338260869565217 0.01666666666666667 0  1.040869565217391 0.03333333333333333 0  1.057391304347826 0.03333333333333333 0  1.073913043478261 0.03333333333333333 0  1.090434782608696 0.03333333333333333 0  1.10695652173913 0.03333333333333333 0  1.123478260869565 0.03333333333333333 0  1.14 0.03333333333333333 0  1.156521739130435 0.03333333333333333 0  1.17304347826087 0.03333333333333333 0  1.189565217391304 0.03333333333333333 0  1.206086956521739 0.03333333333333333 0  1.222608695652174 0.03333333333333333 0  1.239130434782609 0.03333333333333333 0  1.255652173913044 0.03333333333333333 0  1.272173913043478 0.03333333333333333 0  1.288695652173913 0.03333333333333333 0  1.305217391304348 0.03333333333333333 0  1.321739130434783 0.03333333333333333 0  1.338260869565217 0.03333333333333333 0  1.354782608695652 0.03333333333333333 0  1.057391304347826 0.05 0  1.073913043478261 0.05 0  1.090434782608696 0.05 0  1.10695652173913 0.05 0  1.123478260869565 0.05 0  1.14 0.05 0  1.156521739130435 0.05 0  1.17304347826087 0.05 0  1.189565217391304 0.05 0  1.206086956521739 0.05 0  1.222608695652174 0.05 0  1.239130434782609 0.05 0  1.255652173913044 0.05 0  1.272173913043478 0.05 0  1.288695652173913 0.05 0  1.305217391304348 0.05 0  1.321739130434783 0.05 0  1.338260869565217 0.05 0  1.354782608695652 0.05 0  1.371304347826087 0.05 0  1.073913043478261 0.06666666666666667 0  1.090434782608696 0.06666666666666667 0  1.10695652173913 0.06666666666666667 0  1.123478260869565 0.06666666666666667 0  1.14 0.06666666666666667 0  1.156521739130435 0.06666666666666667 0  1.17304347826087 0.06666666666666667 0  1.189565217391304 0.06666666666666667 0  1.206086956521739 0.06666666666666667 0  1.222608695652174 0.06666666666666667 0  1.239130434782609 0.06666666666666667 0  1.255652173913044 0.06666666666666667 0  1.272173913043478 0.06666666666666667 0  1.288695652173913 0.06666666666666667 0  1.305217391304348 0.06666666666666667 0  1.321739130434783 0.06666666666666667 0  1.338260869565217 0.06666666666666667 0  1.354782608695652 0.06666666666666667 0  1.371304347826087 0.06666666666666667 0  1.387826086956522 0.06666666666666667 0  1.090434782608696 0.08333333333333333 0  1.10695652173913 0.08333333333333333 0  1.123478260869565 0.08333333333333333 0  1.14 0.08333333333333333 0  1.156521739130435 0.08333333333333333 0  1.17304347826087 0.08333333333333333 0  1.189565217391304 0.08333333333333333 0  1.206086956521739 0.08333333333333333 0  1.222608695652174 0.08333333333333333 0  1.239130434782609 0.08333333333333333 0  1.255652173913044 0.08333333333333333 0  1.272173913043478 0.08333333333333333 0  1.288695652173913 0.08333333333333333 0  1.305217391304348 0.08333333333333333 0  1.321739130434783 0.08333333333333333 0  1.338260869565217 0.08333333333333333 0  1.354782608695652 0.08333333333333333 0  1.371304347826087 0.08333333333333333 0  1.387826086956522 0.08333333333333333 0  1.404347826086957 0.08333333333333333 0  1.10695652173913 0.1 0  1.123478260869565 0.1 0  1.14 0.1 0  1.156521739130435 0.1 0  1.17304347826087 0.1 0  1.189565217391304 0.1 0  1.206086956521739 0.1 0  1.222608695652174 0.1 0  1.239130434782609 0.1 0  1.255652173913044 0.1 0  1.272173913043478 0.1 0  1.288695652173913 0.1 0  1.305217391304348 0.1 0  1.321739130434783 0.1 0  1.338260869565217 0.1 0  1.354782608695652 0.1 0  1.371304347826087 0.1 0  1.387826086956522 0.1 0  1.404347826086957 0.1 0  1.420869565217391 0.1 0  1.123478260869565 0.1166666666666667 0  1.14 0.1166666666666667 0  1.156521739130435 0.1166666666666667 0  1.17304347826087 0.1166666666666667 0  1.189565217391304 0.1166666666666667 0  1.206086956521739 0.1166666666666667 0  1.222608695652174 0.1166666666666667 0  1.239130434782609 0.1166666666666667 0  1.255652173913044 0.1166666666666667 0  1.272173913043478 0.1166666666666667 0  1.288695652173913 0.1166666666666667 0  1.305217391304348 0.1166666666666667 0  1.321739130434783 0.1166666666666667 0  1.338260869565217 0.1166666666666667 0  1.354782608695652 0.1166666666666667 0  1.371304347826087 0.1166666666666667 0  1.387826086956522 0.1166666666666667 0  1.404347826086957 0.1166666666666667 0  1.420869565217391 0.1166666666666667 0  1.437391304347826 0.1166666666666667 0  1.14 0.1333333333333333 0  1.156521739130435 0.1333333333333333 0  1.17304347826087 0.1333333333333333 0  1.189565217391304 0.1333333333333333 0  1.206086956521739 0.1333333333333333 0  1.222608695652174 0.1333333333333333 0  1.239130434782609 0.1333333333333333 0  1.255652173913044 0.1333333333333333 0  1.272173913043478 0.1333333333333333 0  1.288695652173913 0.1333333333333333 0  1.305217391304348 0.1333333333333333 0  1.321739130434783 0.1333333333333333 0  1.338260869565217 0.1333333333333333 0  1.354782608695652 0.1333333333333333 0  1.371304347826087 0.1333333333333333 0  1.387826086956522 0.1333333333333333 0  1.404347826086957 0.1333333333333333 0  1.420869565217391 0.1333333333333333 0  1.437391304347826 0.1333333333333333 0  1.453913043478261 0.1333333333333333 0  1.156521739130435 0.15 0  1.17304347826087 0.15 0  1.189565217391304 0.15 0  1.206086956521739 0.15 0  1.222608695652174 0.15 0  1.239130434782609 0.15 0  1.255652173913044 0.15 0  1.272173913043478 0.15 0  1.288695652173913 0.15 0  1.305217391304348 0.15 0  1.321739130434783 0.15 0  1.338260869565217 0.15 0  1.354782608695652 0.15 0  1.371304347826087 0.15 0  1.387826086956522 0.15 0  1.404347826086957 0.15 0  1.420869565217391 0.15 0  1.437391304347826 0.15 0  1.453913043478261 0.15 0  1.470434782608696 0.15 0  1.17304347826087 0.1666666666666667 0  1.189565217391304 0.1666666666666667 0  1.206086956521739 0.1666666666666667 0  1.222608695652174 0.1666666666666667 0  1.239130434782609 0.1666666666666667 0  1.255652173913044 0.1666666666666667 0  1.272173913043478 0.1666666666666667 0  1.288695652173913 0.1666666666666667 0  1.305217391304348 0.1666666666666667 0  1.321739130434783 0.1666666666666667 0  1.338260869565217 0.1666666666666667 0  1.354782608695652 0.1666666666666667 0  1.371304347826087 0.1666666666666667 0  1.387826086956522 0.1666666666666667 0  1.404347826086957 0.1666666666666667 0  1.420869565217391 0.1666666666666667 0  1.437391304347826 0.1666666666666667 0  1.453913043478261 0.1666666666666667 0  1.470434782608696 0.1666666666666667 0  1.486956521739131 0.1666666666666667 0  1.189565217391304 0.1833333333333333 0  1.206086956521739 0.1833333333333333 0  1.222608695652174 0.1833333333333333 0  1.239130434782609 0.1833333333333333 0  1.255652173913044 0.1833333333333333 0  1.272173913043478 0.1833333333333333 0  1.288695652173913 0.1833333333333333 0  1.305217391304348 0.1833333333333333 0  1.321739130434783 0.1833333333333333 0  1.338260869565217 0.1833333333333333 0  1.354782608695652 0.1833333333333333 0  1.371304347826087 0.1833333333333333 0  1.387826086956522 0.1833333333333333 0  1.404347826086957 0.1833333333333333 0  1.420869565217391 0.1833333333333333 0  1.437391304347826 0.1833333333333333 0  1.453913043478261 0.1833333333333333 0  1.470434782608696 0.1833333333333333 0  1.486956521739131 0.1833333333333333 0  1.503478260869565 0.1833333333333333 0  1.206086956521739 0.2 0  1.222608695652174 0.2 0  1.239130434782609 0.2 0  1.255652173913044 0.2 0  1.272173913043478 0.2 0  1.288695652173913 0.2 0  1.305217391304348 0.2 0  1.321739130434783 0.2 0  1.338260869565217 0.2 0  1.354782608695652 0.2 0  1.371304347826087 0.2 0  1.387826086956522 0.2 0  1.404347826086957 0.2 0  1.420869565217391 0.2 0  1.437391304347826 0.2 0  1.453913043478261 0.2 0  1.470434782608696 0.2 0  1.486956521739131 0.2 0  1.503478260869565 0.2 0  1.52 0.2 0  1.222608695652174 0.2166666666666667 0  1.239130434782609 0.2166666666666667 0  1.255652173913044 0.2166666666666667 0  1.272173913043478 0.2166666666666667 0  1.288695652173913 0.2166666666666667 0  1.305217391304348 0.2166666666666667 0  1.321739130434783 0.2166666666666667 0  1.338260869565217 0.2166666666666667 0  1.354782608695652 0.2166666666666667 0  1.371304347826087 0.2166666666666667 0  1.387826086956522 0.2166666666666667 0  1.404347826086957 0.2166666666666667 0  1.420869565217391 0.2166666666666667 0  1.437391304347826 0.2166666666666667 0  1.453913043478261 0.2166666666666667 0  1.470434782608696 0.2166666666666667 0  1.486956521739131 0.2166666666666667 0  1.503478260869565 0.2166666666666667 0  1.52 0.2166666666666667 0  1.536521739130435 0.2166666666666667 0  1.239130434782609 0.2333333333333333 0  1.255652173913044 0.2333333333333333 0  1.272173913043478 0.2333333333333333 0  1.288695652173913 0.2333333333333333 0  1.305217391304348 0.23333
[...]
<CellData  Scalars="rho"> 
<DataArray  type="Float64"  Name="rho"  format="ascii">8.9246781159599831e-01   8.7196879479202838e-01   8.8494525591643247e-01   8.6525305261965568e-01   8.7658199286424832e-01   8.5777857810836322e-01   8.6739174103482741e-01   8.4952268647940121e-01   8.5743194027633773e-01   8.4051224456153173e-01   8.4678342773590753e-01   8.3080335534333194e-01   8.3553609433399889e-01   8.2046699131542133e-01   8.2377999317827955e-01   8.0957698483672191e-01   8.1161261904268911e-01   7.9821222499985278e-01   7.9916004669661200e-01   7.8647256914775709e-01   7.8612639530500428e-01   7.7451189003467091e-01   7.7566212874665241e-01   7.6399623388223359e-01   7.6446847099751658e-01   7.5220782601537550e-01   7.6176054290408968e-01   7.5061448386230567e-01   7.5232485228954193e-01   7.4059562990020611e-01   7.4609697971934386e-01   7.3425827674701016e-01   7.4050767076109869e-01   7.2778751225125926e-01   7.3828294486007640e-01   7.2470594866198379e-01   7.2341051256232991e-01   7.8694998928060689e-01   7.8204898360586905e-01   7.2114134285193576e-01   7.7662637821824920e-01   7.1744806479856371e-01   7.7061426447601922e-01   7.1357441080885908e-01   7.6398097905554330e-01   7.0897943594933355e-01   7.5671949104844094e-01   7.0385481061238253e-01   7.4883419319760036e-01   6.9816108721305892e-01   7.4033554758457076e-01   6.9186634447582707e-01   7.3124702680893516e-01   6.8460703168170833e-01   7.2162935844138831e-01   6.7697429409060339e-01   7.1161714900735074e-01   6.6876921351387741e-01   7.0093298563941864e-01   6.6016787324159332e-01   6.9166755517781153e-01   6.5157111803386658e-01   6.9176747013920037e-01   6.4293792014351703e-01   6.8356705632084291e-01   6.4544918405935303e-01   6.7804134166295493e-01   6.3994198498487953e-01   6.7290177053343436e-01   6.3455722709027362e-01   6.7061023405054143e-01   6.3168237048724862e-01   6.7032898970810417e-01   6.2281361878493569e-01   6.2141596488027306e-01   5.7776407869113611e-01   5.7750614279525092e-01   4.7144594074995655e-01   5.7728650899175504e-01   4.7290059058403394e-01   5.7599928189298366e-01   4.7497101749010256e-01   5.7504510806337417e-01   4.7576051477977893e-01   5.7362801636098248e-01   4.7645983823570298e-01   5.7162532671590438e-01   4.7730148835972647e-01   5.6783193303818236e-01   4.7768378806262046e-01   5.6435495216334974e-01   4.7810315218941291e-01   5.6014162655161448e-01   4.7614130785872122e-01   5.5545963207117877e-01   4.7390118951552490e-01   5.4939542336227776e-01   4.7068062940978722e-01   5.4403626318568299e-01   4.6851203422928511e-01   5.4949636621395881e-01   4.7617089234321563e-01   5.4488795362612519e-01   4.7374988629572812e-01   5.4217152842588512e-01   4.7220624638240166e-01   5.3320762734006066e-01   4.6550422781930517e-01   5.3319434657507303e-01   4.6737517758554958e-01   5.3135201274368482e-01   4.6402186402616530e-01   4.6258157064347744e-01   3.3525101446021016e-01   3.4282616377527125e-01   2.6297331166019011e-01   3.5105905416679850e-01   2.7245293483949146e-01   3.5834795186449986e-01   2.8200408735260324e-01   3.6361337243486774e-01   2.9374172147179806e-01   3.6788315777285524e-01   3.0392823412126829e-01   3.7204510833355720e-01   3.1025969546933019e-01   3.7281313928121085e-01   3.1343370389240521e-01   3.7538558590391380e-01   3.1599685115651399e-01   3.7586910152379910e-01   3.1817958132688667e-01   3.7700720673088400e-01   3.2150346140824909e-01   3.7723684615078618e-01   3.2377626365634177e-01   3.8948398236438803e-01   3.3566134212066073e-01   3.8906695716702777e-01   3.3834549058462243e-01   3.8439261763554838e-01   3.3594306319922240e-01   3.8553810584026366e-01   3.4029831861459708e-01   3.8325074603095394e-01   3.3857237912038740e-01   3.8128985369278290e-01   3.3687650335252645e-01   3.7779725251729002e-01   3.3338719229271602e-01   3.1970783321231672e-01   1.2891773756962510e-01   1.4427491696638658e-01   7.1374856159437366e-02   1.5756813419501009e-01   8.5968591490077143e-02   1.7086939160394646e-01   1.0094696618658502e-01   1.8381268663484596e-01   1.1590424827474774e-01   1.9607720423666161e-01   1.3047981936777789e-01   2.0518848219272603e-01   1.4216181916279902e-01   2.1317812843797648e-01   1.5266299261499328e-01   2.2399559609261055e-01   1.6542744560164752e-01   2.3049145582508415e-01   1.7795991054931379e-01   2.3727208423481189e-01   1.8759225601300392e-01   2.4545234176512426e-01   1.9754614243599689e-01   2.5300711615482452e-01   2.0671553710679116e-01   2.5975819430069619e-01   2.1545452868575635e-01   2.6529223194773527e-01   2.2045457707581317e-01   2.6511822090950526e-01   2.2290304811761447e-01   2.6445886477795766e-01   2.2356826682644634e-01   2.5255838539824199e-01   2.1260863738512284e-01   2.4552562945566508e-01   2.0622294891630261e-01   1.9647642762090806e-01   0.0000000000000000e+00   0.0000000000000000e+00   0.0000000000000000e+00   0.0000000000000000e+00   0.0000000000000000e+00   1.2360558975555878e-02   0.0000000000000000e+00   3.0830683968468876e-02   0.0000000000000000e+00   4.3869834197166245e-02   0.0000000000000000e+00   6.2275584840548938e-02   1.3713496869784837e-02   7.9035779650165047e-02   3.4259126951517359e-02   9.6102451966902022e-02   5.3358919619705951e-02   1.1364268254097641e-01   7.1356389250729568e-02   1.2818352460761270e-01   9.1773587127221140e-02   1.3966503701797275e-01   1.0566684784222463e-01   1.5276031230309103e-01   1.2185760946045837e-01   1.6346187702261955e-01   1.3590367911696524e-01   1.7176808508543531e-01   1.4716890437107849e-01   1.6368275874449442e-01   1.4693063299713685e-01   1.6134067823320594e-01   1.4525154462951423e-01   1.5477538820178144e-01   1.4108090614271626e-01   1.4461788246863436e-01   1.3285419542069146e-01   1.2285667817907615e-01   0.0000000000000000e+00   0.0000000000000000e+00   0.0000000000000000e+00   0.0000000000000000e+00   0.0000000000000000e+00   0.0000000000000000e+00   0.0000000000000000e+00   0.0000000000000000e+00   0.0000000000000000e+00   0.0000000000000000e+00   0.0000000000000000e+00   0.0000000000000000e+00   0.0000000000000000e+00   0.0000000000000000e+00   0.0000000000000000e+00   2.2863377035576692e-02   0.0000000000000000e+00   4.4801693615547464e-02   1.8391573272687974e-02   6.7128996925196791e-02   4.3501342728210567e-02   8.7804977026712416e-02   6.7382364262542738e-02   1.1811010265635198e-01   1.0215227773947128e-01   1.2286891885835609e-01   9.8647084128946155e-02   1.3098968555339019e-01   1.1284975024786577e-01   1.3529746156722930e-01   1.2067142404931616e-01   1.3095524030228273e-01   1.2338388906571121e-01   1.2531173145618543e-01   1.1946312984732695e-01   1.1854343604995825e-01   1.2165629079371219e-01   1.1383820507543448e-01   0.0000000000000000e+00   0.0000000000000000e+00   0.0000000000000000e+00   0.0000000000000000e+00   0.0000000000000000e+00   0.0000000000000000e+00   0.0000000000000000e+00   0.0000000000000000e+00   0.0000000000000000e+00   0.0000000000000000e+00   0.0000000000000000e+00   0.0000000000000000e+00   0.0000000000000000e+00   0.0000000000000000e+00   0.0000000000000000e+00   2.0789957203199264e-02   5.4214519719391775e-03   5.0205731713325215e-02   5.6313558603299334e-02   1.0260584618685815e-01   9.4402926081288599e-02   1.2355202151673056e-01   1.2049479170247676e-01   1.4532061208258992e-01   1.4774611258214015e-01   1.5354102705201450e-01   1.6141993709481386e-01   1.5848452046283770e-01   1.7184080379462552e-01   1.4504814114250023e-01   1.7390678160731193e-01   1.4534038196829618e-01   1.7031735091690331e-01   1.4257324367916377e-01   1.6070864178150232e-01   1.4219274378893096e-01   1.5980391328561533e-01   1.6592188231323932e-01   0.0000000000000000e+00   0.0000000000000000e+00   0.0000000000000000e+00   0.0000000000000000e+00   0.0000000000000000e+00   0.0000000000000000e+00   0.0000000000000000e+00   0.0000000000000000e+00   0.0000000000000000e+00   0.0000000000000000e+00   0.0000000000000000e+00   0.0000000000000000e+00   0.0000000000000000e+00   2.9425770955800248e-02   1.6841035140803921e-02   7.5024181189823680e-02   6.6906296493284168e-02   1.2977668652998267e-01   1.0546978127302349e-01   1.4649010539005311e-01   1.4356231055363231e-01   1.7532491940380349e-01   1.7702429312380169e-01   1.9017462425986376e-01   2.0097071981034234e-01   2.0214657504232889e-01   2.1250870744395564e-01   2.0471631718855859e-01   2.1966076459333503e-01   2.0540610331697734e-01   2.2381811668901147e-01   2.0481586111936967e-01   2.2563004812570936e-01   2.0752115568996080e-01   2.2963254892127072e-01   2.1397664167916541e-01   2.3892666611352414e-01   2.5095684588658562e-01   0.0000000000000000e+00   0.0000000000000000e+00   0.0000000000000000e+00   0.0000000000000000e+00   0.0000000000000000e+00   0.0000000000000000e+00   0.0000000000000000e+00   0.0000000000000000e+00   0.0000000000000000e+00   0.0000000000000000e+00   0.0000000000000000e+00   3.6524346524985866e-02   2.5349693504249333e-02   8.0203790157125629e-02   7.0417150867738074e-02   1.2570428293216557e-01   1.1783482625155062e-01   1.8383709691449460e-01   1.5902871464863827e-01   1.9514617798273259e-01   1.9019825420090042e-01   2.1787822793682313e-01   2.1764279384274332e-01   2.3392322592174974e-01   2.3791179520595335e-01   2.3961280767973961e-01   2.5137922063473966e-01   2.4745126527707731e-01   2.6123689770150377e-01   2.5543067041342743e-01   2.6626194336641323e-01   2.6668874607723442e-01   2.7907483921196841e-01   2.8395807178006494e-01   2.9713676797212002e-01   3.0365754349138591e-01   3.1680747424031502e-01   3.5195511656619921e-01   0.0000000000000000e+00   0.0000000000000000e+00   0.0000000000000000e+00   0.0000000000000000e+00   0.0000000000000000e+00   0.0000000000000000e+00   0.0000000000000000e+00   7.3938481749663068e-03   1.5492901374035762e-03   4.9769178521389852e-02   4.0557230036241988e-02   9.5851260159949991e-02   8.5985084549278737e-02   1.3957699177133370e-01   1.2667212607487258e-01   1.7709919276184821e-01   1.6519330025408901e-01   2.0799212471425357e-01   1.9769789312307165e-01   2.5508351698554005e-01   2.2476281987924060e-01   2.5030088114543991e-01   2.4612142418705285e-01   2.6638163923232117e-01   2.8165753116744030e-01   2.8105086763611054e-01   2.9633232654472108e-01   2.9683662375235842e-01   3.1182471389631344e-01   3.2004025635687522e-01   3.3366199773667810e-01   3.5128744619330787e-01   3.5643380696130572e-01   3.6995605109545332e-01   3.7653491190658400e-01   4.1267358375533525e-01   4.1338055849811089e-01   4.4785998251974635e-01   0.0000000000000000e+00   0.0000000000000000e+00   0.0000000000000000e+00   0.0000000000000000e+00   1.2112581211793389e-02   2.7158071146891213e-02   5.2033686647866097e-02   6.2688045039023380e-02   8.1913631441099213e-02   1.0116024701092909e-01   1.1046711282978468e-01   1.2737955823250230e-01   1.4344073903358381e-01   1.5878949563662054e-01   1.7660478975954128e-01   1.9063448154336740e-01   2.0507793705641064e-01   2.3974857744995198e-01   2.3066561224078544e-01   2.6081773532620645e-01   2.5325816263219486e-01   2.8964016269275605e-01   2.7519595954950721e-01   3.1423717755964842e-01   3.0149646609295538e-01   3.3848121709500517e-01   3.2715556448869648e-01   3.6708900979438719e-01   3.5723217086547165e-01   3.9921585979575080e-01   3.8681960651552888e-01   4.4194052130453032e-01   4.2483082965213625e-01   4.6637611932491874e-01   4.5486604724324692e-01   4.8837552692074443e-01   4.9185200479193697e-01   5.1477212307155629e-01   7.9343372787051263e-03   3.6003156283786759e-02   4.3972551007694947e-02   6.8894129273598975e-02   8.4902864096745079e-02   1.2608603636163748e-01   1.2134336142667740e-01   1.6154327666430118e-01   1.5726560237313622e-01   1.9293937954297510e-01   1.8886766674192557e-01   2.2617337341428304e-01   2.2494446139273738e-01   2.4911437310230616e-01   2.4642652103056953e-01   2.7460025755127737e-01   2.6721702249340279e-01   2.9932162665454271e-01   2.9257089693649629e-01   3.2839020213389136e-01   3.2246118409043356e-01   3.5648603647846921e-01   3.5167779306250024e-01   3.8868001227858345e-01   3.8483750381092513e-01   4.2298467969182219e-01   4.2047796365188062e-01   4.6038155841208311e-01   4.6283196764534718e-01   4.9566208271666873e-01   5.0033452481042717e-01   5.2651093040579944e-01   5.3130318077011651e-01   5.4919257377196218e-01   5.5300386359104181e-01   5.6513519565919212e-01   5.6953145182222953e-01   5.7301699169912279e-01   7.6170387326165004e-02   1.1412279630793483e-01   1.0833032500763641e-01   1.4692014316034196e-01   1.4364015211374370e-01   1.7972598599963405e-01   1.7408330248572212e-01   2.0941258425486126e-01   2.0438142244038007e-01   2.3532691724344929e-01   2.3214108834637451e-01   2.6139969270277702e-01   2.5674520620295033e-01   2.8830587714728834e-01   2.8408786937839248e-01   3.1805735759435183e-01   3.1161186173479721e-01   3.5167928461135367e-01   3.4546805533813779e-01   3.8561514990528972e-01   3.7988565659528956e-01   4.1774306880100903e-01   4.1989797392652861e-01   4.5822804258808181e-01   4.6316680707392144e-01   4.9754950676058379e-01   4.9582382051914053e-01   5.3026883614569942e-01   5.2935398855375371e-01   5.5821115794623088e-01   5.5791347249194545e-01   5.7111996069155213e-01   5.7596037312710535e-01   5.7504747964153602e-01   5.7551528516074024e-01   5.6445957465124097e-01   5.6471187885071172e-01   5.4121830147195582e-01   1.3143576122748113e-01   1.6589741631028626e-01   1.5940093934492530e-01   1.9553165682177506e-01   1.9029783966067684e-01   2.2562616260123258e-01   2.2223071289282154e-01   2.5367855222121083e-01   2.5197449823774482e-01   2.8067411842313511e-01   2.8028560256290164e-01   3.0619653674728015e-01   3.0626151504480165e-01   3.3808767365189857e-01   3.3836821272473572e-01   3.7566231682639123e-01   3.7590996921900854e-01   4.1470843871046803e-01   4.1397965559020106e-01   4.5667546003645554e-01   4.5679191226866100e-01   4.9788576295845782e-01   4.9602609053302549e-01   5.3221547016030291e-01   5.3212497014754212e-01   5.6158067883500840e-01   5.6157432305853050e-01   5.8026008160006015e-01   5.8045922860331445e-01   5.7763527106931434e-01   5.7769607582250804e-01   5.6730825437699683e-01   5.6762061543011133e-01   5.4389023403996029e-01   5.4411230813864941e-01   5.1034095773654331e-01   5.1164011334198500e-01   4.7595815485160714e-01   1.8117213447221978e-01   2.1502703503744014e-01   2.0942234891004680e-01   2.4982483011826004e-01   2.4752143182186850e-01   2.8244475348851589e-01   2.8327930776257632e-01   3.1340029019028226e-01   3.1678597357024274e-01   3.4204309386797765e-01   3.4710188615255289e-01   3.7894514372534799e-01   3.7594613180709657e-01   4.1792443677416169e-01   4.1868309045585350e-01   4.5972898259958894e-01   4.6089979443499396e-01   4.9783795167885292e-01   4.9632202301230843e-01   5.3355886540737074e-01   5.3106112014189888e-01   5.6275004292499187e-01   5.6442663658519576e-01   5.8170516604491163e-01   5.8305297965303848e-01   5.8670285253866605e-01   5.8791473821949847e-01   5.6932500802515584e-01   5.7071726895530317e-01   5.4645035093858074e-01   5.4799747680054234e-01   5.1449425777134805e-01   5.1648399219356889e-01   4.7697265291640961e-01   4.8382931562230530e-01   4.3858320414030366e-01   4.4453701106655552e-01   4.0153618827775295e-01   2.3622095477102231e-01   2.7979440454533772e-01   2.7587390976960768e-01   3.1870496308194129e-01   3.2728416391782311e-01   3.5111694558798573e-01   3.6780480611674532e-01   3.9507619958452550e-01   4.0834731144543407e-01   4.3391018907134765e-01   4.4489081158047222e-01   4.6851810634291252e-01   4.7623920513436996e-01   5.0158944128358973e-01   5.1101920455605954e-01   5.3347580288510088e-01   5.4170214493816526e-01   5.6019547319159591e-01   5.6653332976804449e-01   5.7706593633558378e-01   5.8216808131659559e-01   5.8114465311112307e-01   5.8557025345719971e-01   5.7587158011191042e-01   5.7549977756928128e-01   5.5377942803336988e-01   5.5807284482919661e-01   5.2295530418861247e-01   5.2771077913655240e-01   4.8874677484627621e-01   4.9423601639625259e-01   4.4885333911742503e-01   4.5431538829266915e-01   4.0728219903839974e-01   4.1496916127760841e-01   3.6978978699656184e-01   3.7567980579437160e-01   3.3943633260084516e-01   3.2390084271071901e-01   3.7150229588909567e-01   3.7008272554329519e-01   4.1773972017149136e-01   4.2379369095339009e-01   4.5472703027772621e-01   4.6341187546971541e-01   4.9048022598448393e-01   4.9952239482075550e-01   5.2309565500104660e-01   5.2920896335005452e-01   5.4823896114103965e-01   5.5596801700344944e-01   5.6912990719966916e-01   5.7172116187911914e-01   5.8085084020241862e-01   5.8274457460938789e-01   5.8119658379021366e-01   5.8125237245788797e-01   5.6990292069696513e-01   5.6879726956734300e-01   5.4766699649027961e-01   5.4652115120265066e-01   5.2281555595494611e-01   5.2183948391702206e-01   4.9050707612245409e-01   4.8925169603348756e-01   4.5225035427808374e-01   4.5298468607734016e-01   4.1328174664774908e-01   4.1424649706623501e-01   3.7528679466763154e-01   3.7821121773972199e-01   3.4202886387048520e-01   3.4413149819090239e-01   3.0972957534355117e-01   3.1148537172111268e-01   2.8647224679235950e-01   3.9162540489485076e-01   4.6173542341484031e-01   4.4104905545336737e-01   5.0576259920165045e-01   4.9253059726960696e-01   5.3924635399667020e-01   5.2747573501473000e-01   5.6014930417167319e-01   5.7278713152444960e-01   5.6655707534116873e-01   5.7973416412099577e-01   5.4501570635175989e-01   5.8005457876644750e-01   5.3865154717726482e-01   5.6245818398326652e-01   5.2854503620087667e-01   5.2847422341778449e-01   5.0836073732351306e-01   5.0950671294529892e-01   4.8113430101465571e-01   4.8709983379830829e-01   4.5340676265070567e-01   4.5660555800615743e-01   4.2143931046336780e-01   4.3397374547976786e-01   3.8827887778445891e-01   4.0464555160402504e-01   3.5750879284027853e-01   3.7747466709854083e-01   3.2792512734092105e-01   3.5102887299425234e-01   2.9862265826475021e-01   3.2441010837303225e-01   2.7555030744019132e-01   2.8651108149738741e-01   2.5466686726350846e-01   2.6134731749492512e-01   2.4354223299706931e-01   5.5718230530429647e-01   6.1823031791073146e-01   6.3219885856011659e-01   6.4792688811477483e-01   6.6916012973144179e-01   6.5038739772065146e-01   6.7317303913202664e-01   6.0195282856989429e-01   6.5140177394503940e-01   5.6331841621714429e-01   5.7826962904403589e-01   5.3016261239387585e-01   5.3854488826775149e-01   4.9561700088199950e-01   4.9818898973565123e-01   4.6176677521740955e-01   4.5946553217349861e-01   4.2517051879225970e-01   4.2472094483186301e-01   3.9520576607209318e-01   3.9291683938723881e-01   3.6676522376928888e-01   3.5770323068155396e-01   3.3856859651142557e-01   3.2981476933766996e-01   3.1264574376789228e-01   3.0391570794199196e-01   2.8153559892239671e-01   2.7692028814867503e-01   2.5771886382633491e-01   2.5367536337599844e-01   2.3495643138910258e-01   2.3292849345695127e-01   2.1323914535193633e-01   2.1052827570717397e-01   1.9256532140775559e-01   1.8845755853925328e-01   1.6884471247782348e-01   6.9511439717346302e-01   7.1049604146837408e-01   7.2649682056962850e-01   6.8477948737647976e-01   7.0552991271435894e-01   6.2654045631387079e-01   6.4188184217742805e-01   5.4289311703003762e-01   5.4051772291760303e-01   4.9096908633417374e-01   4.8586707900134601e-01   4.4395992725483818e-01   4.3406110387370822e-01   4.0349792606042056e-01   3.8997142679400570e-01   3.6941911055976273e-01   3.5385186817743614e-01   3.2999524460781943e-01   3.1293910169741895e-01   3.0817969279908219e-01   2.8336049915132888e-01   2.8250461244403235e-01   2.6652897166829514e-01   2.6170577213056395e-01   2.4725345450992245e-01   2.4130272699907881e-01   2.3579821553717362e-01   2.2049239530143072e-01   2.1657138066420939e-01   1.9875147471526852e-01   1.9598957609123513e-01   1.7604083567793960e-01   1.7387807080058459e-01   1.5553892485636528e-01   1.5153747618964322e-01   1.3183440606338498e-01   1.2427989880414962e-01   1.0150776623084745