<?xml version="1.0"?>
<VTKFile type="UnstructuredGrid"  version="0.1"  >
<UnstructuredGrid>
<Piece  NumberOfPoints="608" NumberOfCells="1117">
<Points>
<DataArray  type="Float64"  NumberOfComponents="3"  format="ascii">0.08260869565217391 0 0  0.09913043478260869 0 0  0.09913043478260869 0.01666666666666667 0  0.1156521739130435 0 0  0.1156521739130435 0.01666666666666667 0  0.1321739130434783 0 0  0.1321739130434783 0.01666666666666667 0  0.148695652173913 0 0  0.148695652173913 0.01666666666666667 0  0.1652173913043478 0 0  0.1652173913043478 0.01666666666666667 0  0.1817391304347826 0 0  0.1817391304347826 0.01666666666666667 0  0.1982608695652174 0 0  0.1982608695652174 0.01666666666666667 0  0.2147826086956522 0 0  0.2147826086956522 0.01666666666666667 0  0.2313043478260869 0 0  0.2313043478260869 0.01666666666666667 0  0.2478260869565218 0 0  0.2478260869565218 0.01666666666666667 0  0.2643478260869565 0 0  0.2643478260869565 0.01666666666666667 0  0.2808695652173913 0 0  0.2808695652173913 0.01666666666666667 0  0.2973913043478261 0 0  0.2973913043478261 0.01666666666666667 0  0.3139130434782609 0 0  0.3139130434782609 0.01666666666666667 0  0.3304347826086956 0 0  0.3304347826086956 0.01666666666666667 0  0.3469565217391304 0 0  0.3469565217391304 0.01666666666666667 0  0.3634782608695652 0 0  0.3634782608695652 0.01666666666666667 0  0.3799999999999999 0 0  0.3799999999999999 0.01666666666666667 0  0.3965217391304348 0 0  0.3965217391304348 0.01666666666666667 0  0.4130434782608696 0 0  0.4130434782608696 0.01666666666666667 0  0.4295652173913043 0.01666666666666667 0  0.1156521739130435 0.03333333333333333 0  0.1321739130434783 0.03333333333333333 0  0.148695652173913 0.03333333333333333 0  0.1652173913043478 0.03333333333333333 0  0.1817391304347826 0.03333333333333333 0  0.1982608695652174 0.03333333333333333 0  0.2147826086956522 0.03333333333333333 0  0.2313043478260869 0.03333333333333333 0  0.2478260869565218 0.03333333333333333 0  0.2643478260869565 0.03333333333333333 0  0.2808695652173913 0.03333333333333333 0  0.2973913043478261 0.03333333333333333 0  0.3139130434782609 0.03333333333333333 0  0.3304347826086956 0.03333333333333333 0  0.3469565217391304 0.03333333333333333 0  0.3634782608695652 0.03333333333333333 0  0.3799999999999999 0.03333333333333333 0  0.3965217391304348 0.03333333333333333 0  0.4130434782608696 0.03333333333333333 0  0.4295652173913043 0.03333333333333333 0  0.4460869565217391 0.03333333333333333 0  0.1321739130434783 0.05 0  0.148695652173913 0.05 0  0.1652173913043478 0.05 0  0.1817391304347826 0.05 0  0.1982608695652174 0.05 0  0.2147826086956522 0.05 0  0.2313043478260869 0.05 0  0.2478260869565218 0.05 0  0.2643478260869565 0.05 0  0.2808695652173913 0.05 0  0.2973913043478261 0.05 0  0.3139130434782609 0.05 0  0.3304347826086956 0.05 0  0.3469565217391304 0.05 0  0.3634782608695652 0.05 0  0.3799999999999999 0.05 0  0.3965217391304348 0.05 0  0.4130434782608696 0.05 0  0.4295652173913043 0.05 0  0.4460869565217391 0.05 0  0.4626086956521739 0.05 0  0.148695652173913 0.06666666666666667 0  0.1652173913043478 0.06666666666666667 0  0.1817391304347826 0.06666666666666667 0  0.1982608695652174 0.06666666666666667 0  0.2147826086956522 0.06666666666666667 0  0.2313043478260869 0.06666666666666667 0  0.2478260869565218 0.06666666666666667 0  0.2643478260869565 0.06666666666666667 0  0.2808695652173913 0.06666666666666667 0  0.2973913043478261 0.06666666666666667 0  0.3139130434782609 0.06666666666666667 0  0.3304347826086956 0.06666666666666667 0  0.3469565217391304 0.06666666666666667 0  0.3634782608695652 0.06666666666666667 0  0.3799999999999999 0.06666666666666667 0  0.3965217391304348 0.06666666666666667 0  0.4130434782608696 0.06666666666666667 0  0.4295652173913043 0.06666666666666667 0  0.4460869565217391 0.06666666666666667 0  0.4626086956521739 0.06666666666666667 0  0.4791304347826086 0.06666666666666667 0  0.1652173913043478 0.08333333333333333 0  0.1817391304347826 0.08333333333333333 0  0.1982608695652174 0.08333333333333333 0  0.2147826086956522 0.08333333333333333 0  0.2313043478260869 0.08333333333333333 0  0.2478260869565218 0.08333333333333333 0  0.2643478260869565 0.08333333333333333 0  0.2808695652173913 0.08333333333333333 0  0.2973913043478261 0.08333333333333333 0  0.3139130434782609 0.08333333333333333 0  0.3304347826086956 0.08333333333333333 0  0.3469565217391304 0.08333333333333333 0  0.3634782608695652 0.08333333333333333 0  0.3799999999999999 0.08333333333333333 0  0.3965217391304348 0.08333333333333333 0  0.4130434782608696 0.08333333333333333 0  0.4295652173913043 0.08333333333333333 0  0.4460869565217391 0.08333333333333333 0  0.4626086956521739 0.08333333333333333 0  0.4791304347826086 0.08333333333333333 0  0.4956521739130435 0.08333333333333333 0  0.1817391304347826 0.1 0  0.1982608695652174 0.1 0  0.2147826086956522 0.1 0  0.2313043478260869 0.1 0  0.2478260869565218 0.1 0  0.2643478260869565 0.1 0  0.2808695652173913 0.1 0  0.2973913043478261 0.1 0  0.3139130434782609 0.1 0  0.3304347826086956 0.1 0  0.3469565217391304 0.1 0  0.3634782608695652 0.1 0  0.3799999999999999 0.1 0  0.3965217391304348 0.1 0  0.4130434782608696 0.1 0  0.4295652173913043 0.1 0  0.4460869565217391 0.1 0  0.4626086956521739 0.1 0  0.4791304347826086 0.1 0  0.4956521739130435 0.1 0  0.5121739130434783 0.1 0  0.1982608695652174 0.1166666666666667 0  0.2147826086956522 0.1166666666666667 0  0.2313043478260869 0.1166666666666667 0  0.2478260869565218 0.1166666666666667 0  0.2643478260869565 0.1166666666666667 0  0.2808695652173913 0.1166666666666667 0  0.2973913043478261 0.1166666666666667 0  0.3139130434782609 0.1166666666666667 0  0.3304347826086956 0.1166666666666667 0  0.3469565217391304 0.1166666666666667 0  0.3634782608695652 0.1166666666666667 0  0.3799999999999999 0.1166666666666667 0  0.3965217391304348 0.1166666666666667 0  0.4130434782608696 0.1166666666666667 0  0.4295652173913043 0.1166666666666667 0  0.4460869565217391 0.1166666666666667 0  0.4626086956521739 0.1166666666666667 0  0.4791304347826086 0.1166666666666667 0  0.4956521739130435 0.1166666666666667 0  0.5121739130434783 0.1166666666666667 0  0.528695652173913 0.1166666666666667 0  0.2147826086956522 0.1333333333333333 0  0.2313043478260869 0.1333333333333333 0  0.2478260869565218 0.1333333333333333 0  0.2643478260869565 0.1333333333333333 0  0.2808695652173913 0.1333333333333333 0  0.2973913043478261 0.1333333333333333 0  0.3139130434782609 0.1333333333333333 0  0.3304347826086956 0.1333333333333333 0  0.3469565217391304 0.1333333333333333 0  0.3634782608695652 0.1333333333333333 0  0.3799999999999999 0.1333333333333333 0  0.3965217391304348 0.1333333333333333 0  0.4130434782608696 0.1333333333333333 0  0.4295652173913043 0.1333333333333333 0  0.4460869565217391 0.1333333333333333 0  0.4626086956521739 0.1333333333333333 0  0.4791304347826086 0.1333333333333333 0  0.4956521739130435 0.1333333333333333 0  0.5121739130434783 0.1333333333333333 0  0.528695652173913 0.1333333333333333 0  0.5452173913043478 0.1333333333333333 0  0.2313043478260869 0.15 0  0.2478260869565218 0.15 0  0.2643478260869565 0.15 0  0.2808695652173913 0.15 0  0.2973913043478261 0.15 0  0.3139130434782609 0.15 0  0.3304347826086956 0.15 0  0.3469565217391304 0.15 0  0.3634782608695652 0.15 0  0.3799999999999999 0.15 0  0.3965217391304348 0.15 0  0.4130434782608696 0.15 0  0.4295652173913043 0.15 0  0.4460869565217391 0.15 0  0.4626086956521739 0.15 0  0.4791304347826086 0.15 0  0.4956521739130435 0.15 0  0.5121739130434783 0.15 0  0.528695652173913 0.15 0  0.5452173913043478 0.15 0  0.5617391304347825 0.15 0  0.2478260869565218 0.1666666666666667 0  0.2643478260869565 0.1666666666666667 0  0.2808695652173913 0.1666666666666667 0  0.2973913043478261 0.1666666666666667 0  0.3139130434782609 0.1666666666666667 0  0.3304347826086956 0.1666666666666667 0  0.3469565217391304 0.1666666666666667 0  0.3634782608695652 0.1666666666666667 0  0.3799999999999999 0.1666666666666667 0  0.3965217391304348 0.1666666666666667 0  0.4130434782608696 0.1666666666666667 0  0.4295652173913043 0.1666666666666667 0  0.4460869565217391 0.1666666666666667 0  0.4626086956521739 0.1666666666666667 0  0.4791304347826086 0.1666666666666667 0  0.4956521739130435 0.1666666666666667 0  0.5121739130434783 0.1666666666666667 0  0.528695652173913 0.1666666666666667 0  0.5452173913043478 0.1666666666666667 0  0.5617391304347825 0.1666666666666667 0  0.5782608695652174 0.1666666666666667 0  0.2643478260869565 0.1833333333333333 0  0.2808695652173913 0.1833333333333333 0  0.2973913043478261 0.1833333333333333 0  0.3139130434782609 0.1833333333333333 0  0.3304347826086956 0.1833333333333333 0  0.3469565217391304 0.1833333333333333 0  0.3634782608695652 0.1833333333333333 0  0.3799999999999999 0.1833333333333333 0  0.3965217391304348 0.1833333333333333 0  0.4130434782608696 0.1833333333333333 0  0.4295652173913043 0.1833333333333333 0  0.4460869565217391 0.1833333333333333 0  0.4626086956521739 0.1833333333333333 0  0.4791304347826086 0.1833333333333333 0  0.4956521739130435 0.1833333333333333 0  0.5121739130434783 0.1833333333333333 0  0.528695652173913 0.1833333333333333 0  0.5452173913043478 0.1833333333333333 0  0.5617391304347825 0.1833333333333333 0  0.5782608695652174 0.1833333333333333 0  0.2808695652173913 0.2 0  0.2973913043478261 0.2 0  0.3139130434782609 0.2 0  0.3304347826086956 0.2 0  0.3469565217391304 0.2 0  0.3634782608695652 0.2 0  0.3799999999999999 0.2 0  0.3965217391304348 0.2 0  0.4130434782608696 0.2 0  0.4295652173913043 0.2 0  0.4460869565217391 0.2 0  0.4626086956521739 0.2 0  0.4791304347826086 0.2 0  0.4956521739130435 0.2 0  0.5121739130434783 0.2 0  0.528695652173913 0.2 0  0.5452173913043478 0.2 0  0.5617391304347825 0.2 0  0.5782608695652174 0.2 0  0.2973913043478261 0.2166666666666667 0  0.3139130434782609 0.2166666666666667 0  0.3304347826086956 0.2166666666666667 0  0.3469565217391304 0.2166666666666667 0  0.36347826086956
[...]
<PointData  Vectors="Displacement"> 
<DataArray  type="Float64"  Name="Displacement"  NumberOfComponents="3" format="ascii">3.5700001433895165e-05 4.0522669423334544e-05 0.0000000000000000e+00  4.2743794090697258e-05 5.6684029612157339e-05 0.0000000000000000e+00  2.4764236402626582e-05 5.4840589311553119e-05 0.0000000000000000e+00  4.9771010331222126e-05 7.6179893498605199e-05 0.0000000000000000e+00  2.8610295250979304e-05 7.4356159878750949e-05 0.0000000000000000e+00  5.6611822080501252e-05 9.9054028717044195e-05 0.0000000000000000e+00  3.2289682374906927e-05 9.7303204654885933e-05 0.0000000000000000e+00  6.3162912195527111e-05 1.2510674633391518e-04 0.0000000000000000e+00  3.5799728460479520e-05 1.2343997949600279e-04 0.0000000000000000e+00  6.9387140218385126e-05 1.5412177877403618e-04 0.0000000000000000e+00  3.9148183441583848e-05 1.5253914103243140e-04 0.0000000000000000e+00  7.5263930574452403e-05 1.8591870944661723e-04 0.0000000000000000e+00  4.2324679811588861e-05 1.8442991226391128e-04 0.0000000000000000e+00  8.0805596454101681e-05 2.2028909502371118e-04 0.0000000000000000e+00  4.5330920043334929e-05 2.1887459001101723e-04 0.0000000000000000e+00  8.6051903181199799e-05 2.5708188108840649e-04 0.0000000000000000e+00  4.8209943096845829e-05 2.5569691317045096e-04 0.0000000000000000e+00  9.0950650419223988e-05 2.9628119528293524e-04 0.0000000000000000e+00  5.0980454079584009e-05 2.9493667454714881e-04 0.0000000000000000e+00  9.5329671223856480e-05 3.3767461249518613e-04 0.0000000000000000e+00  5.3648983085436630e-05 3.3643968893825216e-04 0.0000000000000000e+00  9.9058138115769512e-05 3.8061457981163478e-04 0.0000000000000000e+00  5.6250021813389696e-05 3.7951169001126294e-04 0.0000000000000000e+00  1.0209188607065111e-04 4.2438079515957553e-04 0.0000000000000000e+00  5.8796321511135881e-05 4.2340764353182960e-04 0.0000000000000000e+00  1.0442237541757029e-04 4.6830277268601487e-04 0.0000000000000000e+00  6.1287025170498279e-05 4.6746445934567105e-04 0.0000000000000000e+00  1.0604231630570602e-04 5.1170811769354289e-04 0.0000000000000000e+00  6.3708462914305352e-05 5.1103747751894430e-04 0.0000000000000000e+00  1.0697245857752139e-04 5.5391965329379704e-04 0.0000000000000000e+00  6.5979242591535632e-05 5.5344635979430251e-04 0.0000000000000000e+00  1.0730244216945292e-04 5.9442785963577870e-04 0.0000000000000000e+00  6.7960556967767744e-05 5.9413642229975256e-04 0.0000000000000000e+00  1.0725446051041035e-04 6.3288892946653105e-04 0.0000000000000000e+00  6.9681826433868767e-05 6.3268234485031884e-04 0.0000000000000000e+00  1.0702096031759402e-04 6.6941337476989903e-04 0.0000000000000000e+00  7.1188064049049020e-05 6.6923951454070970e-04 0.0000000000000000e+00  1.0664688261578884e-04 7.0426944175521269e-04 0.0000000000000000e+00  7.2481665948242026e-05 7.0413861003532357e-04 0.0000000000000000e+00  1.0607655931089425e-04 7.3757024893165751e-04 0.0000000000000000e+00  7.3560399417360413e-05 7.3752522150593680e-04 0.0000000000000000e+00  7.4411450770022616e-05 7.6928161018191088e-04 0.0000000000000000e+00  7.8296017381628401e-06 7.3491235456379171e-05 0.0000000000000000e+00  8.3439829331675574e-06 9.6544689495692829e-05 0.0000000000000000e+00  8.8151137005076724e-06 1.2274634601076493e-04 0.0000000000000000e+00  9.2925040626478194e-06 1.5187360295912953e-04 0.0000000000000000e+00  9.7732921183899525e-06 1.8381914914064146e-04 0.0000000000000000e+00  1.0266405090728102e-05 2.1829914526660466e-04 0.0000000000000000e+00  1.0762771850394120e-05 2.5502348858105561e-04 0.0000000000000000e+00  1.1322215608930762e-05 2.9416862927623304e-04 0.0000000000000000e+00  1.2100023931920039e-05 3.3562902931631088e-04 0.0000000000000000e+00  1.3552018096002054e-05 3.7866462665467614e-04 0.0000000000000000e+00  1.5625604003675692e-05 4.2248464339285786e-04 0.0000000000000000e+00  1.8290742487122535e-05 4.6645570192244519e-04 0.0000000000000000e+00  2.1551833154762192e-05 5.0996513289802215e-04 0.0000000000000000e+00  2.5401921436916679e-05 5.5248642011902489e-04 0.0000000000000000e+00  2.9240402950804937e-05 5.9344196669079469e-04 0.0000000000000000e+00  3.2691097762664970e-05 6.3197402462353183e-04 0.0000000000000000e+00  3.5945224230319963e-05 6.6851754430143182e-04 0.0000000000000000e+00  3.8818399908546213e-05 7.0343970756231759e-04 0.0000000000000000e+00  4.1460304109671073e-05 7.3693385288314177e-04 0.0000000000000000e+00  4.3948029837927376e-05 7.6887965442577278e-04 0.0000000000000000e+00  4.6111534362955997e-05 7.9901281911528329e-04 0.0000000000000000e+00  -1.5560042832917968e-05 9.6826467055221373e-05 0.0000000000000000e+00  -1.8225096576403832e-05 1.2301130989591778e-04 0.0000000000000000e+00  -2.0540174494570214e-05 1.5211022064158457e-04 0.0000000000000000e+00  -2.2742366604684818e-05 1.8399439212746278e-04 0.0000000000000000e+00  -2.4473049337348403e-05 2.1834694126137536e-04 0.0000000000000000e+00  -2.5650159324459553e-05 2.5479518210869747e-04 0.0000000000000000e+00  -2.7281149696371237e-05 2.9382991497082931e-04 0.0000000000000000e+00  -2.9267624408866446e-05 3.3531497792021651e-04 0.0000000000000000e+00  -2.9502055606320560e-05 3.7815555807303800e-04 0.0000000000000000e+00  -2.8184776056955379e-05 4.2175454097613692e-04 0.0000000000000000e+00  -2.5618686486530996e-05 4.6550781824594912e-04 0.0000000000000000e+00  -2.1867768591677467e-05 5.0880355331785101e-04 0.0000000000000000e+00  -1.7029588260260872e-05 5.5112250095077210e-04 0.0000000000000000e+00  -1.1226893343553187e-05 5.9205740616579143e-04 0.0000000000000000e+00  -3.7667526384894406e-06 6.3073763199322384e-04 0.0000000000000000e+00  2.2133299783917296e-06 6.6755321544180294e-04 0.0000000000000000e+00  5.7831370762863759e-06 7.0227958384163985e-04 0.0000000000000000e+00  9.6720739592268314e-06 7.3582541661562498e-04 0.0000000000000000e+00  1.3711866793654522e-05 7.6781996882122495e-04 0.0000000000000000e+00  1.8041916228907999e-05 7.9852039994804706e-04 0.0000000000000000e+00  2.1142017880436622e-05 8.2657636365189103e-04 0.0000000000000000e+00  -4.3812903448523478e-05 1.2387799377466225e-04 0.0000000000000000e+00  -4.8993088397793307e-05 1.5280733872952528e-04 0.0000000000000000e+00  -5.4905139669506778e-05 1.8472758048773824e-04 0.0000000000000000e+00  -5.8944441101408346e-05 2.1892010073424570e-04 0.0000000000000000e+00  -4.7865928496577357e-05 2.5638045371163327e-04 0.0000000000000000e+00  -4.3147570328485060e-05 2.9433733795025007e-04 0.0000000000000000e+00  -4.0927689687035364e-05 3.3413295484201178e-04 0.0000000000000000e+00  -3.9302650542374775e-05 3.7490556435980794e-04 0.0000000000000000e+00  -3.7395983950034023e-05 4.1641124554963167e-04 0.0000000000000000e+00  -3.4899720758269128e-05 4.5818028551026791e-04 0.0000000000000000e+00  -3.1755258864537062e-05 4.9968375921292929e-04 0.0000000000000000e+00  -2.8066536988428420e-05 5.4049464230563249e-04 0.0000000000000000e+00  -2.4100586389030218e-05 5.8027928229729801e-04 0.0000000000000000e+00  -2.0390378982509237e-05 6.1866919313600846e-04 0.0000000000000000e+00  -1.8135043591144192e-05 6.5642934679016303e-04 0.0000000000000000e+00  -1.8857411984903735e-05 6.9387677693599206e-04 0.0000000000000000e+00  -2.4107665509411243e-05 7.3451515780877889e-04 0.0000000000000000e+00  -1.6709090084029255e-05 7.6643298823884844e-04 0.0000000000000000e+00  -1.1144192998619057e-05 7.9694680277014147e-04 0.0000000000000000e+00  -3.8128615601520927e-06 8.2589820966904627e-04 0.0000000000000000e+00  -9.2957199482187449e-07 8.5288818811146184e-04 0.0000000000000000e+00  -4.7225125327492405e-05 1.5844524516120571e-04 0.0000000000000000e+00  -5.0694951367943747e-05 1.8903710435582140e-04 0.0000000000000000e+00  -5.2453765450466738e-05 2.2121247823565359e-04 0.0000000000000000e+00  -5.1530708923251641e-05 2.5458886405945320e-04 0.0000000000000000e+00  -4.9504766642318760e-05 2.9230257972034576e-04 0.0000000000000000e+00  -4.7923868966019144e-05 3.3125876593783287e-04 0.0000000000000000e+00  -4.6453191720548404e-05 3.7086741910008746e-04 0.0000000000000000e+00  -4.4801289176160414e-05 4.1093987949347303e-04 0.0000000000000000e+00  -4.2780253993920657e-05 4.5120978441592078e-04 0.0000000000000000e+00  -4.0360497841441004e-05 4.9133216375205080e-04 0.0000000000000000e+00  -3.7651682542140112e-05 5.3100341912190911e-04 0.0000000000000000e+00  -3.4881971296672649e-05 5.7000503958802031e-04 0.0000000000000000e+00  -3.2401098127156239e-05 6.0823140606397659e-04 0.0000000000000000e+00  -3.0617342054887902e-05 6.4608863482059611e-04 0.0000000000000000e+00  -2.9632001660691584e-05 6.8376924830106307e-04 0.0000000000000000e+00  -2.8751381806854561e-05 7.2157525530658372e-04 0.0000000000000000e+00  -2.6140360523762767e-05 7.5315249494079721e-04 0.0000000000000000e+00  -2.3755053723026592e-05 7.8497410107741220e-04 0.0000000000000000e+00  -2.2982186805303500e-05 8.1634605578035150e-04 0.0000000000000000e+00  -2.5499404533693779e-05 8.5120997092217319e-04 0.0000000000000000e+00  -2.0501713814227818e-05 8.7905640592547739e-04 0.0000000000000000e+00  -4.9079462143338208e-05 1.9211829820913736e-04 0.0000000000000000e+00  -5.1227815279802994e-05 2.2302249039633936e-04 0.0000000000000000e+00  -5.2367794767275621e-05 2.5553767934213063e-04 0.0000000000000000e+00  -5.2764821925703955e-05 2.9116513455336511e-04 0.0000000000000000e+00  -5.2429520683190448e-05 3.2862141676497845e-04 0.0000000000000000e+00  -5.1689105642408801e-05 3.6691646468745481e-04 0.0000000000000000e+00  -5.0614182644063407e-05 4.0569081306662444e-04 0.0000000000000000e+00  -4.9201814138955618e-05 4.4468359346892426e-04 0.0000000000000000e+00  -4.7481542732635250e-05 4.8363826737430916e-04 0.0000000000000000e+00  -4.5550360821916808e-05 5.2233129004247909e-04 0.0000000000000000e+00  -4.3562174781089674e-05 5.6060341370389385e-04 0.0000000000000000e+00  -4.1698718219752158e-05 5.9839053444027683e-04 0.0000000000000000e+00  -4.0090076020046382e-05 6.3581656275534090e-04 0.0000000000000000e+00  -3.8658292899344286e-05 6.7281658898170392e-04 0.0000000000000000e+00  -3.7093182103866680e-05 7.0896099771878337e-04 0.0000000000000000e+00  -3.5253251691319949e-05 7.4181423549460280e-04 0.0000000000000000e+00  -3.4119265138343541e-05 7.7434324394718963e-04 0.0000000000000000e+00  -3.3710332069822073e-05 8.0705553083754611e-04 0.0000000000000000e+00  -3.3998174364072858e-05 8.4104999371976995e-04 0.0000000000000000e+00  -3.4352874754942119e-05 8.7184110465710724e-04 0.0000000000000000e+00  -3.7298712065378050e-05 9.0657306775404254e-04 0.0000000000000000e+00  -5.1035044897982401e-05 2.2471405822756274e-04 0.0000000000000000e+00  -5.3069706699267109e-05 2.5647301984264186e-04 0.0000000000000000e+00  -5.4526697191889513e-05 2.9057262246485994e-04 0.0000000000000000e+00  -5.5251812253474384e-05 3.2639703467044129e-04 0.0000000000000000e+00  -5.5349492109309027e-05 3.6328164261085913e-04 0.0000000000000000e+00  -5.4973953471189742e-05 4.0078116207844643e-04 0.0000000000000000e+00  -5.4218532070863010e-05 4.3859696087001287e-04 0.0000000000000000e+00  -5.3161348710705583e-05 4.7649151544951397e-04 0.0000000000000000e+00  -5.1895989191330739e-05 5.1427291350084428e-04 0.0000000000000000e+00  -5.0532207474998238e-05 5.5179920434696563e-04 0.0000000000000000e+00  -4.9175407342389612e-05 5.8898619236858114e-04 0.0000000000000000e+00  -4.7883804404555006e-05 6.2580587890887483e-04 0.0000000000000000e+00  -4.6623231410683907e-05 6.6209675857280108e-04 0.0000000000000000e+00  -4.5329099094411847e-05 6.9745721738265567e-04 0.0000000000000000e+00  -4.4139395660450528e-05 7.3103252626765137e-04 0.0000000000000000e+00  -4.3564065754776453e-05 7.6420083451108657e-04 0.0000000000000000e+00  -4.3546330275767076e-05 7.9748719057041821e-04 0.0000000000000000e+00  -4.3945117566689240e-05 8.3136422961381539e-04 0.0000000000000000e+00  -4.4687248260821908e-05 8.6467400802534326e-04 0.0000000000000000e+00  -4.6429721569637163e-05 9.0081012813507974e-04 0.0000000000000000e+00  -5.1381926255556387e-05 9.3443373337904155e-04 0.0000000000000000e+00  -5.3541698263032465e-05 2.5710584246649092e-04 0.0000000000000000e+00  -5.5581015916766618e-05 2.8997944037078915e-04 0.0000000000000000e+00  -5.6997191855844488e-05 3.2440459031026164e-04 0.0000000000000000e+00  -5.7803483807972440e-05 3.5994191805758109e-04 0.0000000000000000e+00  -5.8094613570546025e-05 3.9621128352129590e-04 0.0000000000000000e+00  -5.7974246543808268e-05 4.3291181324694777e-04 0.0000000000000000e+00  -5.7537133891151470e-05 4.6980839666901366e-04 0.0000000000000000e+00  -5.6875939238159558e-05 5.0671592738817811e-04 0.0000000000000000e+00  -5.6081883826161692e-05 5.4349125786678576e-04 0.0000000000000000e+00  -5.5235368172325975e-05 5.8002666820940250e-04 0.0000000000000000e+00  -5.4389964696235991e-05 6.1622932088717006e-04 0.0000000000000000e+00  -5.3569184211848224e-05 6.5193471546028028e-04 0.0000000000000000e+00  -5.2821170654442869e-05 6.8688478529677262e-04 0.0000000000000000e+00  -5.2322830123754863e-05 7.2081794955258978e-04 0.0000000000000000e+00  -5.2374445267315684e-05 7.5442629829182558e-04 0.0000000000000000e+00  -5.3014796697475750e-05 7.8813140758978491e-04 0.0000000000000000e+00  -5.4256442160905122e-05 8.2233099089815500e-04 0.0000000000000000e+00  -5.6256506037874721e-05 8.5716379162910632e-04 0.0000000000000000e+00  -5.9461154554253258e-05 8.9504953451779383e-04 0.0000000000000000e+00  -6.3070106262122207e-05 9.4090256674365339e-04 0.0000000000000000e+00  -6.3857911639572556e-05 9.5688863807213270e-04 0.0000000000000000e+00  -5.6110152860588130e-05 2.8920822173425867e-04 0.0000000000000000e+00  -5.7990139739420100e-05 3.2244429702521634e-04 0.0000000000000000e+00  -5.9331594296763173e-05 3.5677906265978903e-04 0.0000000000000000e+00  -6.0185435154883380e-05 3.9190802642422078e-04 0.0000000000000000e+00  -6.0631512684242712e-05 4.2756171060958942e-04 0.0000000000000000e+00  -6.0757498025069936e-05 4.6351550457136929e-04 0.0000000000000000e+00  -6.0650767767041868e-05 4.9958717820508297e-04 0.0000000000000000e+00  -6.0394916109514893e-05 5.3562966521467092e-04 0.0000000000000000e+00  -6.0065574050300020e-05 5.7152176890471851e-04 0.0000000000000000e+00  -5.9727088912458368e-05 6.0715114619208969e-04 0.0000000000000000e+00  -5.9440580703422048e-05 6.4238069447883676e-04 0.0000000000000000e+00  -5.9297832082320294e-05 6.7706379556823953e-04 0.0000000000000000e+00  -5.9460159052265360e-05 7.1115068317509865e-04 0.0000000000000000e+00  -6.0122015555566022e-05 7.4502488133623365e-04 0.0000000000000000e+00  -6.1346170434969460e-05 7.7901462851232657e-04 0.0000000000000000e+00  -6.3144849174024179e-05 8.1348404472808035e-04 0.0000000000000000e+00  -6.5501035983652766e-05 8.4887411724745361e-04 0.0000000000000000e+00  -6.8226779582048974e-05 8.8656958783507654e-04 0.0000000000000000e+00  -7.0363775809892569e-05 9.2763910413680341e-04 0.0000000000000000e+00  -7.3960909566560487e-05 9.5945783782541390e-04 0.0000000000000000e+00  -7.4113376158777602e-05 9.7244804030922438e-04 0.0000000000000000e+00  -5.8369925735958576e-05 3.2039754150045330e-04 0.0000000000000000e+00  -6.0106455003305361e-05 3.5367512808687126e-04 0.0000000000000000e+00  -6.1407986402725359e-05 3.8777496843003025e-04 0.0000000000000000e+00  -6.2332081838905822e-05 4.2246474919122127e-04 0.0000000000000000e+00  -6.2951347939825905e-05 4.5753875228707184e-04 0.0000000000000000e+00  -6.3343856116522760e-05 4.9282194035362619e-04 0.0000000000000000e+00  -6.3587636535440066e-05 5.2816746855129560e-04 0.0000000000000000e+00  -6.3757993435139212e-05 5.6345053297525655e-04 0.0000000000000000e+00  -6.3928220409651483e-05 5.9855910463024156e-04 0.0000000000000000e+00  -6.4177766004586684e-05 6.3338503959184823e-04 0.0000000000000000e+00  -6.4610053794404240e-05 6.6784733702678913e-04 0.0000000000000000e+00  -6.5363479276622286e-05 7.0196376917457744e-04 0.0000000000000000e+00  -6.6580606405613511e-05 7.3596729113198963e-04 0.0000000000000000e+00  -6.8337032483023683e-05 7.7010976801203748e-04 0.0000000000000000e+00  -7.0671229544193889e-05 8.0469874814064369e-04 0.0000000000000000e+00  -7.3589898261374953e-05 8.4015007710507635e-04 0.0000000000000000e+00  -7.7007622146314884e-05 8.7725524238953896e-04 0.0000000000000000e+00  -8.0565108710838547e-05 9.1674402865909890e-04 0.0000000000000000e+00  -8.3293133182827942e-05 9.6068024165923212e-04 0.0000000000000000e+00  -8.2464959634087392e-05 9.7391899566889764e-04 0.0000000000000000e+00  -8.2052239297931290e-05 9.8453628772433616e-04 0.0000000000000000e+00  -6.0225190011386759e-05 3.5053910014299380e-04 0.0000000000000000e+00  -6.1871667700333464e-05 3.8372106863206510e-04 0.0000000000000000e+00  -6.3183662071807881e-05 4.1753694238688569e-04 0.0000000000000000e+00  -6.4219729095564226e-05 4.5180209274467008e-04 0.0000000000000000e+00  -6.5047367502633186e-05 4.8635279157983088e-04 0.0000000000000000e+00  -6.5738019340792260e-05 5.2104723244467924e-04 0.0000000000000000e+00  -6.6364768424743287e-05 5.5576345323466239e-04 0.0000000000000000e+00  -6.7003259925525380e-05 5.9039637420698211e-04 0.0000000000000000e+00  -6.7736767545778905e-05 6.2485906649708102e-04 0.0000000000000000e+00  -6.8663709643899013e-05 6.5910267872338582e-04 0.0000000000000000e+00  -6.9897185625172743e-05 6.9315721191755416e-04 0.0000000000000000e+00  -7.1542440053285966e-05 7.2717010151885459e-04 0.0000000000000000e+00  -7.3661172857406203e-05 7.6132453609724263e-04 0.0000000000000000e+00  -7.6273561932810755e-05 7.9584903501003182e-04 0.0000000000000000e+00  -7.9341117007401650e-05 8.3103237107504417e-04 0.0000000000000000e+00  -8.2703584304470298e-05 8.6725562403112640e-04 0.0000000000000000e+00  -8.5948650017910047e-05 9.0467769341648493e-04 0.0000000000000000e+00  -8.8284401446268613e-05 9.4286632419805598e-04 0.0000000000000000e+00  -8.9211526537355922e-05 9.7512774266328905e-04 0.0000000000000000e+00  -8.8556187760961059e-05 9.8532587750444585e-04 0.0000000000000000e+00  -6.1646837359253793e-05 3.7966870724445749e-04 0.0000000000000000e+00  -6.3262745858319854e-05 4.1270000739086288e-04 0.0000000000000000e+00  -6.4638461385329600e-05 4.4623039180207162e-04 0.0000000000000000e+00  -6.5831320009024244e-05 4.8010899828086393e-04 0.0000000000000000e+00  -6.6904802043196081e-05 5.1420190818105243e-04 0.0000000000000000e+00  -6.7926428828375926e-05 5.4839296346383831e-04 0.0000000000000000e+00  -6.8967736536010220e-05 5.8258453708792722e-04 0.0000000000000000e+00  -7.0106108099553325e-05 6.1670196619280262e-04 0.0000000000000000e+00  -7.1426169651238943e-05 6.5070749890994693e-04 0.0000000000000000e+00  -7.3014743034968829e-05 6.8462111875446791e-04 0.0000000000000000e+00  -7.4943974798383659e-05 7.1853081241442869e-04 0.0000000000000000e+00  -7.7249199767154375e-05 7.5255400500689746e-04 0.0000000000000000e+00  -7.9919228019525236e-05 7.8683029344783285e-04 0.0000000000000000e+00  -8.2874268924692634e-05 8.2150480343922533e-04 0.0000000000000000e+00  -8.5922828699877771e-05 8.5667547217978344e-04 0.0000000000000000e+00  -8.8710793004075474e-05 8.9214962807073644e-04 0.0000000000000000e+00  -9.0761478437204236e-05 9.2702806470974417e-04 0.0000000000000000e+00  -9.1946875149455769e-05 9.5825236513353760e-04 0.0000000000000000e+00  -9.3260632756248478e-05 9.8622422917698507e-04 0.0000000000000000e+00  -6.2623243708391155e-05 4.0788406518681169e-04 0.0000000000000000e+00  -6.4264879940690672e-05 4.4075260833550831e-04 0.0000000000000000e+00  -6.5752010299076970e-05 4.7401988160927441e-04 0.0000000000000000e+00  -6.7139228539709179e-05 5.0756051732540170e-04 0.0000000000000000e+00  -6.8485776066743874e-05 5.4126458190546225e-04 0.0000000000000000e+00  -6.9854546196986198e-05 5.7503996294228381e-04 0.0000000000000000e+00  -7.1311553141031794e-05 6.0881689324752541e-04 0.0000000000000000e+00  -7.2924037352385882e-05 6.4255646882382001e-04 0.0000000000000000e+00  -7.4753974828507380e-05 6.7625978498588480e-04 0.0000000000000000e+00  -7.6845140582833488e-05 7.0996730222733261e-04 0.0000000000000000e+00  -7.9207668337138456e-05 7.4373591160194251e-04 0.0000000000000000