<?xml version="1.0"?>
<VTKFile type="UnstructuredGrid"  version="0.1"  >
<UnstructuredGrid>
<Piece  NumberOfPoints="639" NumberOfCells="1175">
<Points>
<DataArray  type="Float64"  NumberOfComponents="3"  format="ascii">1.321739130434783 0 0  1.338260869565217 0 0  1.338260869565217 0.01666666666666667 0  1.354782608695652 0 0  1.354782608695652 0.01666666666666667 0  1.371304347826087 0 0  1.371304347826087 0.01666666666666667 0  1.387826086956522 0 0  1.387826086956522 0.01666666666666667 0  1.404347826086957 0 0  1.404347826086957 0.01666666666666667 0  1.420869565217391 0 0  1.420869565217391 0.01666666666666667 0  1.437391304347826 0 0  1.437391304347826 0.01666666666666667 0  1.453913043478261 0 0  1.453913043478261 0.01666666666666667 0  1.470434782608696 0 0  1.470434782608696 0.01666666666666667 0  1.486956521739131 0 0  1.486956521739131 0.01666666666666667 0  1.503478260869565 0 0  1.503478260869565 0.01666666666666667 0  1.52 0 0  1.52 0.01666666666666667 0  1.536521739130435 0 0  1.536521739130435 0.01666666666666667 0  1.55304347826087 0 0  1.55304347826087 0.01666666666666667 0  1.569565217391304 0 0  1.569565217391304 0.01666666666666667 0  1.586086956521739 0 0  1.586086956521739 0.01666666666666667 0  1.602608695652174 0 0  1.602608695652174 0.01666666666666667 0  1.619130434782609 0 0  1.619130434782609 0.01666666666666667 0  1.635652173913043 0 0  1.635652173913043 0.01666666666666667 0  1.652173913043478 0 0  1.652173913043478 0.01666666666666667 0  1.668695652173913 0 0  1.668695652173913 0.01666666666666667 0  1.685217391304348 0 0  1.685217391304348 0.01666666666666667 0  1.701739130434782 0 0  1.701739130434782 0.01666666666666667 0  1.718260869565217 0 0  1.718260869565217 0.01666666666666667 0  1.734782608695652 0 0  1.734782608695652 0.01666666666666667 0  1.751304347826087 0 0  1.751304347826087 0.01666666666666667 0  1.767826086956522 0 0  1.767826086956522 0.01666666666666667 0  1.784347826086957 0 0  1.784347826086957 0.01666666666666667 0  1.800869565217391 0 0  1.800869565217391 0.01666666666666667 0  1.817391304347826 0 0  1.817391304347826 0.01666666666666667 0  1.833913043478261 0 0  1.833913043478261 0.01666666666666667 0  1.850434782608696 0 0  1.850434782608696 0.01666666666666667 0  1.86695652173913 0 0  1.86695652173913 0.01666666666666667 0  1.883478260869565 0 0  1.883478260869565 0.01666666666666667 0  1.354782608695652 0.03333333333333333 0  1.371304347826087 0.03333333333333333 0  1.387826086956522 0.03333333333333333 0  1.404347826086957 0.03333333333333333 0  1.420869565217391 0.03333333333333333 0  1.437391304347826 0.03333333333333333 0  1.453913043478261 0.03333333333333333 0  1.470434782608696 0.03333333333333333 0  1.486956521739131 0.03333333333333333 0  1.503478260869565 0.03333333333333333 0  1.52 0.03333333333333333 0  1.536521739130435 0.03333333333333333 0  1.55304347826087 0.03333333333333333 0  1.569565217391304 0.03333333333333333 0  1.586086956521739 0.03333333333333333 0  1.602608695652174 0.03333333333333333 0  1.619130434782609 0.03333333333333333 0  1.635652173913043 0.03333333333333333 0  1.652173913043478 0.03333333333333333 0  1.668695652173913 0.03333333333333333 0  1.685217391304348 0.03333333333333333 0  1.701739130434782 0.03333333333333333 0  1.718260869565217 0.03333333333333333 0  1.734782608695652 0.03333333333333333 0  1.751304347826087 0.03333333333333333 0  1.767826086956522 0.03333333333333333 0  1.784347826086957 0.03333333333333333 0  1.800869565217391 0.03333333333333333 0  1.817391304347826 0.03333333333333333 0  1.833913043478261 0.03333333333333333 0  1.850434782608696 0.03333333333333333 0  1.86695652173913 0.03333333333333333 0  1.883478260869565 0.03333333333333333 0  1.371304347826087 0.05 0  1.387826086956522 0.05 0  1.404347826086957 0.05 0  1.420869565217391 0.05 0  1.437391304347826 0.05 0  1.453913043478261 0.05 0  1.470434782608696 0.05 0  1.486956521739131 0.05 0  1.503478260869565 0.05 0  1.52 0.05 0  1.536521739130435 0.05 0  1.55304347826087 0.05 0  1.569565217391304 0.05 0  1.586086956521739 0.05 0  1.602608695652174 0.05 0  1.619130434782609 0.05 0  1.635652173913043 0.05 0  1.652173913043478 0.05 0  1.668695652173913 0.05 0  1.685217391304348 0.05 0  1.701739130434782 0.05 0  1.718260869565217 0.05 0  1.734782608695652 0.05 0  1.751304347826087 0.05 0  1.767826086956522 0.05 0  1.784347826086957 0.05 0  1.800869565217391 0.05 0  1.817391304347826 0.05 0  1.833913043478261 0.05 0  1.850434782608696 0.05 0  1.86695652173913 0.05 0  1.883478260869565 0.05 0  1.387826086956522 0.06666666666666667 0  1.404347826086957 0.06666666666666667 0  1.420869565217391 0.06666666666666667 0  1.437391304347826 0.06666666666666667 0  1.453913043478261 0.06666666666666667 0  1.470434782608696 0.06666666666666667 0  1.486956521739131 0.06666666666666667 0  1.503478260869565 0.06666666666666667 0  1.52 0.06666666666666667 0  1.536521739130435 0.06666666666666667 0  1.55304347826087 0.06666666666666667 0  1.569565217391304 0.06666666666666667 0  1.586086956521739 0.06666666666666667 0  1.602608695652174 0.06666666666666667 0  1.619130434782609 0.06666666666666667 0  1.635652173913043 0.06666666666666667 0  1.652173913043478 0.06666666666666667 0  1.668695652173913 0.06666666666666667 0  1.685217391304348 0.06666666666666667 0  1.701739130434782 0.06666666666666667 0  1.718260869565217 0.06666666666666667 0  1.734782608695652 0.06666666666666667 0  1.751304347826087 0.06666666666666667 0  1.767826086956522 0.06666666666666667 0  1.784347826086957 0.06666666666666667 0  1.800869565217391 0.06666666666666667 0  1.817391304347826 0.06666666666666667 0  1.833913043478261 0.06666666666666667 0  1.850434782608696 0.06666666666666667 0  1.86695652173913 0.06666666666666667 0  1.883478260869565 0.06666666666666667 0  1.404347826086957 0.08333333333333333 0  1.420869565217391 0.08333333333333333 0  1.437391304347826 0.08333333333333333 0  1.453913043478261 0.08333333333333333 0  1.470434782608696 0.08333333333333333 0  1.486956521739131 0.08333333333333333 0  1.503478260869565 0.08333333333333333 0  1.52 0.08333333333333333 0  1.536521739130435 0.08333333333333333 0  1.55304347826087 0.08333333333333333 0  1.569565217391304 0.08333333333333333 0  1.586086956521739 0.08333333333333333 0  1.602608695652174 0.08333333333333333 0  1.619130434782609 0.08333333333333333 0  1.635652173913043 0.08333333333333333 0  1.652173913043478 0.08333333333333333 0  1.668695652173913 0.08333333333333333 0  1.685217391304348 0.08333333333333333 0  1.701739130434782 0.08333333333333333 0  1.718260869565217 0.08333333333333333 0  1.734782608695652 0.08333333333333333 0  1.751304347826087 0.08333333333333333 0  1.767826086956522 0.08333333333333333 0  1.784347826086957 0.08333333333333333 0  1.800869565217391 0.08333333333333333 0  1.817391304347826 0.08333333333333333 0  1.833913043478261 0.08333333333333333 0  1.850434782608696 0.08333333333333333 0  1.86695652173913 0.08333333333333333 0  1.883478260869565 0.08333333333333333 0  1.420869565217391 0.1 0  1.437391304347826 0.1 0  1.453913043478261 0.1 0  1.470434782608696 0.1 0  1.486956521739131 0.1 0  1.503478260869565 0.1 0  1.52 0.1 0  1.536521739130435 0.1 0  1.55304347826087 0.1 0  1.569565217391304 0.1 0  1.586086956521739 0.1 0  1.602608695652174 0.1 0  1.619130434782609 0.1 0  1.635652173913043 0.1 0  1.652173913043478 0.1 0  1.668695652173913 0.1 0  1.685217391304348 0.1 0  1.701739130434782 0.1 0  1.718260869565217 0.1 0  1.734782608695652 0.1 0  1.751304347826087 0.1 0  1.767826086956522 0.1 0  1.784347826086957 0.1 0  1.800869565217391 0.1 0  1.817391304347826 0.1 0  1.833913043478261 0.1 0  1.850434782608696 0.1 0  1.86695652173913 0.1 0  1.883478260869565 0.1 0  1.437391304347826 0.1166666666666667 0  1.453913043478261 0.1166666666666667 0  1.470434782608696 0.1166666666666667 0  1.486956521739131 0.1166666666666667 0  1.503478260869565 0.1166666666666667 0  1.52 0.1166666666666667 0  1.536521739130435 0.1166666666666667 0  1.55304347826087 0.1166666666666667 0  1.569565217391304 0.1166666666666667 0  1.586086956521739 0.1166666666666667 0  1.602608695652174 0.1166666666666667 0  1.619130434782609 0.1166666666666667 0  1.635652173913043 0.1166666666666667 0  1.652173913043478 0.1166666666666667 0  1.668695652173913 0.1166666666666667 0  1.685217391304348 0.1166666666666667 0  1.701739130434782 0.1166666666666667 0  1.718260869565217 0.1166666666666667 0  1.734782608695652 0.1166666666666667 0  1.751304347826087 0.1166666666666667 0  1.767826086956522 0.1166666666666667 0  1.784347826086957 0.1166666666666667 0  1.800869565217391 0.1166666666666667 0  1.817391304347826 0.1166666666666667 0  1.833913043478261 0.1166666666666667 0  1.850434782608696 0.1166666666666667 0  1.86695652173913 0.1166666666666667 0  1.883478260869565 0.1166666666666667 0  1.453913043478261 0.1333333333333333 0  1.470434782608696 0.1333333333333333 0  1.486956521739131 0.1333333333333333 0  1.503478260869565 0.1333333333333333 0  1.52 0.1333333333333333 0  1.536521739130435 0.1333333333333333 0  1.55304347826087 0.1333333333333333 0  1.569565217391304 0.1333333333333333 0  1.586086956521739 0.1333333333333333 0  1.602608695652174 0.1333333333333333 0  1.619130434782609 0.1333333333333333 0  1.635652173913043 0.1333333333333333 0  1.652173913043478 0.1333333333333333 0  1.668695652173913 0.1333333333333333 0  1.685217391304348 0.1333333333333333 0  1.701739130434782 0.1333333333333333 0  1.718260869565217 0.1333333333333333 0  1.734782608695652 0.1333333333333333 0  1.751304347826087 0.1333333333333333 0  1.767826086956522 0.1333333333333333 0  1.784347826086957 0.1333333333333333 0  1.800869565217391 0.1333333333333333 0  1.817391304347826 0.1333333333333333 0  1.833913043478261 0.1333333333333333 0  1.850434782608696 0.1333333333333333 0  1.86695652173913 0.1333333333333333 0  1.883478260869565 0.1333333333333333 0  1.470434782608696 0.15 0  1.486956521739131 0.15 0  1.503478260869565 0.15 0  1.52 0.15 0  1.5365217391304
[...]
<CellData  Scalars="rho_bar"> 
<DataArray  type="Float64"  Name="rho_bar"  format="ascii">9.9952090683485451e-01   9.9945916500019993e-01   9.9888795925124052e-01   9.9934166034669281e-01   9.9867501334857467e-01   9.9914665385303925e-01   9.9830331051688437e-01   9.9885613803491657e-01   9.9771929899531797e-01   9.9849693895214708e-01   9.9692262029287693e-01   9.9823085602278205e-01   9.9614044249125466e-01   9.9837074637089163e-01   9.9600902105233058e-01   9.9900280313583212e-01   9.9709021628243832e-01   9.9964916764253287e-01   9.9872649896603338e-01   9.9993356051724702e-01   9.9970193614434544e-01   9.9999281948659025e-01   9.9996324207808729e-01   9.9999947072942597e-01   9.9999729140805038e-01   9.9999996534397717e-01   9.9999984544097664e-01   9.9999999727214606e-01   9.9999999044655885e-01   9.9999999965592679e-01   9.9999999910924831e-01   9.9999999991316113e-01   9.9999999983693910e-01   9.9999999995064104e-01   9.9999999993135691e-01   9.9999999993666222e-01   9.9999999993105804e-01   9.9999999983366450e-01   9.9999999984695143e-01   9.9999999924094807e-01   9.9999999936034512e-01   9.9999999500037129e-01   9.9999999586880206e-01   9.9999996003702218e-01   9.9999996589737383e-01   9.9999966831170606e-01   9.9999969570729519e-01   9.9999750195175208e-01   9.9999746185496208e-01   9.9998450854101262e-01   9.9998226760331388e-01   9.9992563530247913e-01   9.9990325542794867e-01   9.9973646205495725e-01   9.9960716996926735e-01   9.9934281795052060e-01   9.9886561395353313e-01   9.9889916554041602e-01   9.9777600628888630e-01   9.9880446656591571e-01   9.9715432437251750e-01   9.9917402104931108e-01   9.9768473128948310e-01   9.9963721673101080e-01   9.9881492397334126e-01   9.9989675952027401e-01   9.9961586841552474e-01   9.1579080350679876e-01   8.9897782512916480e-01   6.2100107659277903e-01   8.7322731954130073e-01   5.7215731945026516e-01   8.3993640809572390e-01   5.1544895747049480e-01   8.0527992286134664e-01   4.6126678734074344e-01   7.8113328130180493e-01   4.2079149796583382e-01   7.8454116136062890e-01   4.0708256860641007e-01   8.3592568387610000e-01   4.4367683040088401e-01   9.3091201596946482e-01   5.8278188081430005e-01   9.8959550613082892e-01   8.4132155172389111e-01   9.9941341050225652e-01   9.8337211559427606e-01   9.9998191750545862e-01   9.9941995387349247e-01   9.9999949894421536e-01   9.9998809128459121e-01   9.9999998028805714e-01   9.9999974228880473e-01   9.9999999845275211e-01   9.9999998981684679e-01   9.9999999969205555e-01   9.9999999891301816e-01   9.9999999982443766e-01   9.9999999961610653e-01   9.9999999971573572e-01   9.9999999954222341e-01   9.9999999885778368e-01   9.9999999839745757e-01   9.9999999094131720e-01   9.9999998732984752e-01   9.9999989016094082e-01   9.9999983237821788e-01   9.9999835722586505e-01   9.9999711486859166e-01   9.9997519254401745e-01   9.9994780833965524e-01   9.9968875988505013e-01   9.9919233918325112e-01   9.9714120328400857e-01   9.9089746610358787e-01   9.8227024487504444e-01   9.3581867779085637e-01   9.3340062182316796e-01   7.7008472264365890e-01   8.5785159960224777e-01   5.7455283065584428e-01   8.0419481178855934e-01   4.5932372635711971e-01   7.9728890270099828e-01   4.2136596461205383e-01   8.4242050852352091e-01   4.5124870303336673e-01   9.2339702068341301e-01   5.7164139360661503e-01   9.8135153412159226e-01   7.9081756023673755e-01   2.8969305771076648e-02   2.1601227846400423e-02   1.9343828206766691e-03   1.5110653566999465e-02   1.3904726504478755e-03   1.0470322980693681e-02   9.7325657240972751e-04   7.8929799190195719e-03   7.1532719501007957e-04   7.5331204366511475e-03   6.2288738365658613e-04   1.1225656283087403e-02   7.6758841623435702e-04   3.2421317470445743e-02   1.6642503024343897e-03   1.7292340241212206e-01   7.8604766327560020e-03   5.8151924463536220e-01   8.1391641715635302e-02   9.6462577800618687e-01   5.0254464971737833e-01   9.9973047584820440e-01   9.7035748396648558e-01   9.9999781759040784e-01   9.9984339999063421e-01   9.9999994932259784e-01   9.9999881986785988e-01   9.9999999469605472e-01   9.9999996068050911e-01   9.9999999707342535e-01   9.9999999050756727e-01   9.9999999184367661e-01   9.9999998321490957e-01   9.9999991153069878e-01   9.9999984168294187e-01   9.9999762283426541e-01   9.9999539073353816e-01   9.9990562310261044e-01   9.9977414680211873e-01   9.9627799932841643e-01   9.8876221899688754e-01   9.1387810554874505e-01   7.7750715581671981e-01   6.8665694773516628e-01   3.9997116838640856e-01   4.9631425166380877e-01   2.0984438023626872e-01   2.1221767699310684e-01   4.6329529776244653e-02   5.8508468004249754e-02   8.2223956229555990e-03   1.8271480603879956e-02   2.0748294285686357e-03   8.7648717359322791e-03   8.3161831082308668e-04   7.0922476944695750e-03   5.5110700303302284e-04   1.0058551100617432e-02   6.2103471355358852e-04   2.5280877706940423e-02   1.2231899062323344e-03   1.0223832485487525e-01   4.3305852044017261e-03   1.2574402672068299e-06   9.8471234775502746e-07   1.3319991243321286e-07   7.8858019135948585e-07   1.1003109420815177e-07   7.0423588423758841e-07   9.7924844890314400e-08   7.9628069803624123e-07   1.0391520886369562e-07   1.3525421080166453e-06   1.5119099639841304e-07   4.2303880627518166e-06   3.5835588157081188e-07   3.0459021186368683e-05   1.6758025189559755e-06   6.3396258381800052e-04   1.9049608821227387e-05   4.0630213477927841e-02   6.5507386964105063e-04   6.4378339629300008e-01   6.9488005034145872e-02   9.9785128795965661e-01   8.1566193588798530e-01   9.9999025583485190e-01   9.9928739467251826e-01   9.9999963411234094e-01   9.9999440929607553e-01   9.9999979481738299e-01   9.9999916449283976e-01   9.9999845572240609e-01   9.9999668713897594e-01   9.9992447696324760e-01   9.9985523229966844e-01   9.9197489756595525e-01   9.8246678754886729e-01   7.5374576126117976e-01   5.9731431492803011e-01   4.3699039293505587e-01   2.3870598779628219e-01   5.1309796114436028e-02   1.4010551383513087e-02   2.1279735032042439e-03   4.8071203883772384e-04   1.4134271934470227e-04   2.9859066577653262e-05   1.6810556472022606e-05   3.3665456565431161e-06   3.3813478350538028e-06   6.3807402178595072e-07   1.1047096831843612e-06   1.9206706457682490e-07   5.7902759175350792e-07   8.9692449254756138e-08   4.8827045980489236e-07   6.4726359827460582e-08   6.7285781987780389e-07   7.2753773070847571e-08   1.5704905008776903e-06   1.3052529411935101e-07   6.6121994402312828e-06   3.9215019749979296e-07   6.3540372038003099e-10   6.4654031202889481e-10   1.5147107642240112e-10   7.4651441509902382e-10   1.7256247356970777e-10   1.0741445048238307e-09   2.3522296147919052e-10   2.1749803162200254e-09   4.2538395028657321e-10   7.1854147261814717e-09   1.1603986475409544e-09   4.6080183456013556e-08   5.5650716720053380e-09   7.0258885098706301e-07   5.6330549299173567e-08   3.2162208034869362e-05   1.5005584503476523e-06   5.4617579907898723e-03   1.3556755116424707e-04   5.0796580075642206e-01   4.3529719745498373e-02   9.9685238275554222e-01   8.7604878378820883e-01   9.9995805428112361e-01   9.9933280314501538e-01   9.9997427790535365e-01   9.9991354634952168e-01   9.9935160847488691e-01   9.9897786573402070e-01   9.0398764054294400e-01   8.7766906788791188e-01   4.2290782863858206e-01   3.2259551532206304e-01   1.7465225846996380e-02   8.7124024063071036e-03   1.9080787632031851e-04   8.1705027751927131e-05   4.4680618606907111e-06   1.7572457620869868e-06   2.3989331111399603e-07   8.6991396826737398e-08   2.6737622986032043e-08   9.0041819093370899e-09   5.2914924201600656e-09   1.6717247956303071e-09   1.6472711528159329e-09   4.8959094186192474e-10   7.5297751367386954e-10   2.0888229109357806e-10   4.8999841221567918e-10   1.2467558467103390e-10   4.5097298118079746e-10   1.0259416464523482e-10   5.9469757821932054e-10   1.1692146325200292e-10   1.1636382043119422e-09   1.8905479034122182e-10   3.5993850215169484e-09   4.5528111836112849e-10   7.3886267474658033e-12   1.0392325888730630e-11   3.6713595126987765e-12   1.8121874371483208e-11   6.1736171730331096e-12   4.3173945899847409e-11   1.3677910655947780e-11   1.5882154850525395e-10   4.4651708256774723e-11   1.0504496901949289e-09   2.4797409496161537e-10   1.5089257315858976e-08   2.8226191754280702e-09   5.9323630179538232e-07   8.3761635868058957e-08   8.2058407063119939e-05   8.5534985510837841e-06   3.7318105543549265e-02   3.1560673302301816e-03   8.5415295353818066e-01   4.3459061634691321e-01   9.9832502424687342e-01   9.9030987345285704e-01   9.9885604815636875e-01   9.9813775246031056e-01   9.2785177076180314e-01   9.4289836713042441e-01   2.5574494284448263e-01   3.2664323591082600e-01   1.6826335689754213e-03   1.8741051652711644e-03   7.6566500233910001e-06   6.3333320188726158e-06   1.1327614106900384e-07   7.5700265028677562e-08   4.8507885393641236e-09   2.7921537582020769e-09   4.7059914298763782e-10   2.4270084090597765e-10   8.5168594399220891e-11   4.0438763448946715e-11   2.4754439239179276e-11   1.1025458324098739e-11   1.0402271636659561e-11   4.3861858589622224e-12   5.9253250454342321e-12   2.3639516270416534e-12   4.4267182512195802e-12   1.6554628038771101e-12   4.2975900615971357e-12   1.4808894851133425e-12   5.4840576524384249e-12   1.6979103308519452e-12   9.5143430171399781e-12   2.5561589881798844e-12   2.3883904113712151e-11   5.3085313922451884e-12   8.8510680266532924e-13   1.8888409355118569e-12   9.2689744768392797e-13   5.5433713175290263e-12   2.6198302786421371e-12   2.5195678876599469e-11   1.1176605937042916e-11   2.0763512205886541e-10   8.4132580531933396e-11   3.8243210820354551e-09   1.3858320972263515e-09   2.0608661258081373e-07   6.6365553811712898e-08   4.2051586312051136e-05   1.2065301500903871e-05   2.3461842619661694e-02   6.1744291698924269e-03   7.1926572443071091e-01   4.4983444167938341e-01   9.9256647905952422e-01   9.8550212961383210e-01   9.9199345093264568e-01   9.9439853423834623e-01   5.5018333511000850e-01   7.7037617001564651e-01   8.8590913879216283e-03   2.9879796537292825e-02   1.0139608819218866e-05   2.1151828172694127e-05   4.4313447124707173e-08   5.7642603505196183e-08   8.8678324868437184e-10   8.4758617716988292e-10   5.5229478398051914e-11   4.3125429153671290e-11   7.6848342504357967e-12   5.2419550182018327e-12   1.8964644669476160e-12   1.1799912898643096e-12   7.0937700158424407e-13   4.1355807667287096e-13   3.6276537329627000e-13   2.0096887117423053e-13   2.3812433506501906e-13   1.2585303169980008e-13   1.9408548842155451e-13   9.7394314835241895e-14   1.9443705904601915e-13   9.1574895814498345e-14   2.4194535264143739e-13   1.0493457954415445e-13   3.8653339788178696e-13   1.5008364921224415e-13   8.4360296526142570e-13   2.8169133692301799e-13   7.9498444864138225e-13   3.1674107781043412e-12   2.0574375536597253e-12   2.0662258940854869e-11   1.3118052940204931e-11   2.6527648596304719e-10   1.6184229882180531e-10   8.6421179379403478e-09   4.9863075335387960e-09   9.6551310712252534e-07   5.1798463437946505e-07   3.8326431874880884e-04   1.8622942144172494e-04   1.5161758526162208e-01   7.9617674524220347e-02   8.6458802090390585e-01   7.8636935438098787e-01   9.9521364868223905e-01   9.9479938372179111e-01   9.8539381742302279e-01   9.9351336508562915e-01   3.4234786732172956e-01   6.6808984301370899e-01   1.0097488465725766e-03   5.9127429600968080e-03   5.2959856295757123e-07   1.7386478829151128e-06   1.8006037864430155e-09   3.2721882888460873e-09   3.8754767913336734e-11   4.8341145901057812e-11   2.9252341289994409e-12   2.8725355427639000e-12   5.0521623921421630e-13   4.2544671489489880e-13   1.5191551720287563e-13   1.1576850589278822e-13   6.6964952101974059e-14   4.7693330766189027e-14   3.8904065154573208e-14   2.6330789400693308e-14   2.7949864644938329e-14   1.8105887159928602e-14   2.4045580341673189e-14   1.4895492247054189e-14   2.4508173268600337e-14   1.4414395603049956e-14   2.9883503079493812e-14   1.6440552622990867e-14   4.5019543648550123e-14   2.2611542268199030e-14   8.8984375423706335e-14   3.9412917374193076e-14   7.0483803978523489e-12   8.0577054288137174e-11   6.7608835196963949e-11   2.0659514284500834e-09   1.7052861715309113e-09   1.5368999880157244e-07   1.2117816261536526e-07   3.7100795175502410e-05   2.6771394655085906e-05   1.7295398667510647e-02   1.1251971945484419e-02   5.7265868006994514e-01   4.5778200170262190e-01   9.8360907383219498e-01   9.7834388934203775e-01   9.9796723255825071e-01   9.9827277156049721e-01   9.7492194933328769e-01   9.8901284075482510e-01   2.4300577603555312e-01   5.4043575711751102e-01   2.7316531480709827e-04   1.5549284703811439e-03   8.3433416527463831e-08   3.0320241253822832e-07   2.1616649211371935e-10   4.5222369367733022e-10   4.7124711540410179e-12   6.7888010028364484e-12   4.0322375068531855e-13   4.5593158877939775e-13   8.0777976900018723e-14   7.8150449075072511e-14   2.7783331191244552e-14   2.4295380522213856e-14   1.3664995061427974e-14   1.1157741397482828e-14   8.6042284408449663e-15   6.6798418648280289e-15   6.5410639867498835e-15   4.8572257327350622e-15   5.8101671622049885e-15   4.1355807667287105e-15   5.9767006158987620e-15   4.0615658984203662e-15   7.1701903673708053e-15   4.6074255521944020e-15   1.0334325987552503e-14   6.1709896452081652e-15   1.8947806286936013e-14   1.0158540675320187e-14   1.7028555972705332e-09   1.0483965568834172e-07   1.0958494451688658e-07   1.6187012534030220e-05   1.6057899451129204e-05   4.5553765101836296e-03   4.0251426060537642e-03   3.4268069433889453e-01   2.8841087993693754e-01   9.3152662089743166e-01   9.1185382400407922e-01   9.9761059923721651e-01   9.9714858187093258e-01   9.9729609706722455e-01   9.9771735343120216e-01   8.8342487079536325e-01   9.3243095221628713e-01   1.0006368936787170e-01   2.3450937023484197e-01   4.8211780507410428e-05   1.8682501030597068e-04   1.4477419078377337e-08   4.2632725544278223e-08   3.9072421224399071e-11   7.7753266788012836e-11   9.7355457029380017e-13   1.4378590910505790e-12   9.7301796249856474e-14   1.1670294360518110e-13   2.2352490229119826e-14   2.3314683517128300e-14   8.5394654310751661e-15   8.1323836553792748e-15   4.5426625424246017e-15   4.0430621813432805e-15   3.0161058835650099e-15   2.5535129566378612e-15   2.3684757858670013e-15   1.9336384345554815e-15   2.1464311809419708e-15   1.6838382540148215e-15   2.2019423321732278e-15   1.6560826783991926e-15   2.6275278249462047e-15   1.8688754247856808e-15   3.6544841227244749e-15   2.4424906541753456e-15   6.3005156647477665e-15   3.8302694349567916e-15   2.6945266846980151e-05   4.2222468069069820e-03   5.0272999969940679e-03   2.3950876011326194e-01   2.4301378561141113e-01   8.4123366247117082e-01   8.2320193833941324e-01   9.9384591304648873e-01   9.9218715190580142e-01   9.9737642581766006e-01   9.9683071397911194e-01   9.7138903408220778e-01   9.7197566902885424e-01   4.5418504926512621e-01   5.3826277599901451e-01   6.8655543850179232e-03   1.3587397090569355e-02   2.7534558377876709e-06   6.5943028970024347e-06   1.5248053190456789e-09   3.2161640202884233e-09   7.0873492260166919e-12   1.2058511596653912e-11   2.5301982731207323e-13   3.5389284095780736e-13   3.2057689836051408e-14   3.8469227803261693e-14   8.5857247237678799e-15   9.2518585385429770e-15   3.6174766885703036e-15   3.6082248300317603e-15   2.0354088784794543e-15   1.9151347174783958e-15   1.3970306393199891e-15   1.2582527612418445e-15   1.1102230246251569e-15   9.6219328800846933e-16   1.0269562977782704e-15   8.5117098554595358e-16   1.0732155904709852e-15   8.5117098554595377e-16   1.2490009027033015e-15   9.5294142946992649e-16   1.6930901125533643e-15   1.2212453270876724e-15   2.7663057030243497e-15   1.8318679906315087e-15   2.8127311293052965e-01   8.1842766154747704e-01   8.2912551996899342e-01   9.8685003619406120e-01   9.8531968216021459e-01   9.9347287345120783e-01   9.9166509633155742e-01   9.5402487293686100e-01   9.4212022468928425e-01   5.4853336664605934e-01   5.0779389686539056e-01   3.8376321920359460e-02   3.9977483213089263e-02   6.7687041249810606e-05   9.1911823460956956e-05   5.1869356865186260e-08   8.2143936384430486e-08   9.5705397310889420e-11   1.4966329101954545e-10   1.1746159600534160e-12   1.6847541880101377e-12   7.3080430595950942e-14   9.3998882751596608e-14   1.2638038763649704e-14   1.4738210651898959e-14   4.0338103228047373e-15   4.3576253716537410e-15   1.8781272833242237e-15   1.9058828589398526e-15   1.1102230246251569e-15   1.0917193075480709e-15   7.8640797577615291e-16   7.3089682454489508e-16   6.2912638062092227e-16   5.6436337085112150e-16   5.9211894646675042e-16   5.1810407815840652e-16   6.0137080500529336e-16   4.9034850254277770e-16   6.9388939039072313e-16   5.6436337085112150e-16   9.3443771239284042e-16   7.0314124892926617e-16   1.4525417905512473e-15   1.0362081563168134e-15   9.8577061732297278e-01   9.8511214628256716e-01   9.8321970805305803e-01   8.7610528868914572e-01   8.4916941080663066e-01   4.2511181830450412e-01   3.4970435328295540e-01   2.4773726243232153e-02   1.9078520017060292e-02   1.0993576249562768e-04   9.7206595198379207e-05   2.3444707626200486e-07   2.5142256806128448e-07   6.3979862148973663e-10   7.8528454109753484e-10   5.5212963830560609e-12   7.0719633852670946e-12   2.0382769546264028e-13   2.5545306610771006e-13   2.3444209536667897e-14   2.7885101635168524e-14   5.6528855670497575e-15   6.3560268159790236e-15   2.1464311809419700e-15   2.3129646346357434e-15   1.1102230246251569e-15   1.1287267417022430e-15   6.9388939039072313e-16   6.8463753185218010e-16   4.9960036108132064e-16   4.8109664400423467e-16   3.9782991715734788e-16   3.7932620008026200e-16   3.7007434154171896e-16   3.4231876592609005e-16   3.7932620008026200e-16   3.4231876592609005e-16   4.4408920985006281e-16   3.6082248300317607e-16   5.8286708792820738e-16   4.5334106838860575e-16   8.6967470262303955e-16   6.4763009769800824e-16   7.7360495295916576e-01   2.5795715666479957e-01   2.1514709021748266e-01   7.0839976647806774e-03   5.2865979719788824e-03   4.0172757573916015e-05   3.1072157263917217e-05   1.7325434067035547e-07   1.4971694761722892e-07   1.0153423934955447e-09   1.0008859204398614e-09   1.2989091284036179e-11   1.4139800441626000e-11   4.6466534323978235e-13   5.3039979815613023e-13   4.3927824341002042e-14   5.0320858591135245e-14   8.6782433091533106e-15   9.7422070410857502e-15   2.8310687127941500e-15   3.0901207518733538e-15   1.2860083368574735e-15   1.3507713466272743e-15   7.2164496600635195e-16   7.4014868308343802e-16   4.7184478546569173e-16   4.7184478546569173e-16   3.4231876592609005e-16   3.3306690738754711e-16   2.9605947323337531e-16   2.8680761469483222e-16   2.5905203907920331e-16   2.4054832200211733e-16   2.7755575615628923e-16   2.4054832200211733e-16   3.0531133177191810e-16   2.6830389761774625e-16   4.0708177569589086e-16   3.1456319031046113e-16   5.5511151231257847e-16   4.3483735131151978e-16   2.3349434599669789e-03   1.1848607626541168e-05   9.4670342544826251e-06   6.6000974907609615e-08   5.4792283016302809e-08   6.4994915005556240e-10   5.7982004382968953e-10   1.3928784052078912e-11   1.3471316654782117e-11   6.6712376363871826e-13   6.8938373528245265e-13   6.7288767150823059e-14   7.2266267044559169e-14   1.2675046197803876e-14   1.3776017363890491e-14   3.8117657178797068e-15   4.1170770496516232e-15   1.5913196686293919e-15   1.6930901125533643e-15   8.1416355139178163e-16   8.7892656116158269e-16   4.9960036108132054e-16   5.2735593669694955e-16   3.4231876592609005e-16   3.5157062446463304e-16   2.5905203907920331e-16   2.5905203907920331e-16   2.2204460492503136e-16   2.2204460492503136e-16   2.2204460492503141e-16   1.9428902930940247e-16   2.2204460492503136e-16   1.9428902930940244e-16   2.4054832200211733e-16   2.2204460492503141e-16   2.9605947323337521e-16   2.5905203907920331e-16   4.0708177569589086e-16   3.1456319031046113e-16   4.5334106838860575e-16   2.65373025