<?xml version="1.0"?>
<VTKFile type="UnstructuredGrid"  version="0.1"  >
<UnstructuredGrid>
<Piece  NumberOfPoints="639" NumberOfCells="1174">
<Points>
<DataArray  type="Float64"  NumberOfComponents="3"  format="ascii">1.024347826086957 0 0  1.040869565217391 0 0  1.040869565217391 0.01666666666666667 0  1.024347826086957 0.01666666666666667 0  1.057391304347826 0 0  1.057391304347826 0.01666666666666667 0  1.073913043478261 0 0  1.073913043478261 0.01666666666666667 0  1.090434782608696 0 0  1.090434782608696 0.01666666666666667 0  1.10695652173913 0 0  1.10695652173913 0.01666666666666667 0  1.123478260869565 0 0  1.123478260869565 0.01666666666666667 0  1.14 0 0  1.14 0.01666666666666667 0  1.156521739130435 0 0  1.156521739130435 0.01666666666666667 0  1.17304347826087 0 0  1.17304347826087 0.01666666666666667 0  1.189565217391304 0 0  1.189565217391304 0.01666666666666667 0  1.206086956521739 0 0  1.206086956521739 0.01666666666666667 0  1.222608695652174 0 0  1.222608695652174 0.01666666666666667 0  1.239130434782609 0 0  1.239130434782609 0.01666666666666667 0  1.255652173913044 0 0  1.255652173913044 0.01666666666666667 0  1.272173913043478 0 0  1.272173913043478 0.01666666666666667 0  1.288695652173913 0 0  1.288695652173913 0.01666666666666667 0  1.305217391304348 0 0  1.305217391304348 0.01666666666666667 0  1.321739130434783 0 0  1.321739130434783 0.01666666666666667 0  1.338260869565217 0.01666666666666667 0  1.040869565217391 0.03333333333333333 0  1.057391304347826 0.03333333333333333 0  1.073913043478261 0.03333333333333333 0  1.090434782608696 0.03333333333333333 0  1.10695652173913 0.03333333333333333 0  1.123478260869565 0.03333333333333333 0  1.14 0.03333333333333333 0  1.156521739130435 0.03333333333333333 0  1.17304347826087 0.03333333333333333 0  1.189565217391304 0.03333333333333333 0  1.206086956521739 0.03333333333333333 0  1.222608695652174 0.03333333333333333 0  1.239130434782609 0.03333333333333333 0  1.255652173913044 0.03333333333333333 0  1.272173913043478 0.03333333333333333 0  1.288695652173913 0.03333333333333333 0  1.305217391304348 0.03333333333333333 0  1.321739130434783 0.03333333333333333 0  1.338260869565217 0.03333333333333333 0  1.354782608695652 0.03333333333333333 0  1.057391304347826 0.05 0  1.073913043478261 0.05 0  1.090434782608696 0.05 0  1.10695652173913 0.05 0  1.123478260869565 0.05 0  1.14 0.05 0  1.156521739130435 0.05 0  1.17304347826087 0.05 0  1.189565217391304 0.05 0  1.206086956521739 0.05 0  1.222608695652174 0.05 0  1.239130434782609 0.05 0  1.255652173913044 0.05 0  1.272173913043478 0.05 0  1.288695652173913 0.05 0  1.305217391304348 0.05 0  1.321739130434783 0.05 0  1.338260869565217 0.05 0  1.354782608695652 0.05 0  1.371304347826087 0.05 0  1.073913043478261 0.06666666666666667 0  1.090434782608696 0.06666666666666667 0  1.10695652173913 0.06666666666666667 0  1.123478260869565 0.06666666666666667 0  1.14 0.06666666666666667 0  1.156521739130435 0.06666666666666667 0  1.17304347826087 0.06666666666666667 0  1.189565217391304 0.06666666666666667 0  1.206086956521739 0.06666666666666667 0  1.222608695652174 0.06666666666666667 0  1.239130434782609 0.06666666666666667 0  1.255652173913044 0.06666666666666667 0  1.272173913043478 0.06666666666666667 0  1.288695652173913 0.06666666666666667 0  1.305217391304348 0.06666666666666667 0  1.321739130434783 0.06666666666666667 0  1.338260869565217 0.06666666666666667 0  1.354782608695652 0.06666666666666667 0  1.371304347826087 0.06666666666666667 0  1.387826086956522 0.06666666666666667 0  1.090434782608696 0.08333333333333333 0  1.10695652173913 0.08333333333333333 0  1.123478260869565 0.08333333333333333 0  1.14 0.08333333333333333 0  1.156521739130435 0.08333333333333333 0  1.17304347826087 0.08333333333333333 0  1.189565217391304 0.08333333333333333 0  1.206086956521739 0.08333333333333333 0  1.222608695652174 0.08333333333333333 0  1.239130434782609 0.08333333333333333 0  1.255652173913044 0.08333333333333333 0  1.272173913043478 0.08333333333333333 0  1.288695652173913 0.08333333333333333 0  1.305217391304348 0.08333333333333333 0  1.321739130434783 0.08333333333333333 0  1.338260869565217 0.08333333333333333 0  1.354782608695652 0.08333333333333333 0  1.371304347826087 0.08333333333333333 0  1.387826086956522 0.08333333333333333 0  1.404347826086957 0.08333333333333333 0  1.10695652173913 0.1 0  1.123478260869565 0.1 0  1.14 0.1 0  1.156521739130435 0.1 0  1.17304347826087 0.1 0  1.189565217391304 0.1 0  1.206086956521739 0.1 0  1.222608695652174 0.1 0  1.239130434782609 0.1 0  1.255652173913044 0.1 0  1.272173913043478 0.1 0  1.288695652173913 0.1 0  1.305217391304348 0.1 0  1.321739130434783 0.1 0  1.338260869565217 0.1 0  1.354782608695652 0.1 0  1.371304347826087 0.1 0  1.387826086956522 0.1 0  1.404347826086957 0.1 0  1.420869565217391 0.1 0  1.123478260869565 0.1166666666666667 0  1.14 0.1166666666666667 0  1.156521739130435 0.1166666666666667 0  1.17304347826087 0.1166666666666667 0  1.189565217391304 0.1166666666666667 0  1.206086956521739 0.1166666666666667 0  1.222608695652174 0.1166666666666667 0  1.239130434782609 0.1166666666666667 0  1.255652173913044 0.1166666666666667 0  1.272173913043478 0.1166666666666667 0  1.288695652173913 0.1166666666666667 0  1.305217391304348 0.1166666666666667 0  1.321739130434783 0.1166666666666667 0  1.338260869565217 0.1166666666666667 0  1.354782608695652 0.1166666666666667 0  1.371304347826087 0.1166666666666667 0  1.387826086956522 0.1166666666666667 0  1.404347826086957 0.1166666666666667 0  1.420869565217391 0.1166666666666667 0  1.437391304347826 0.1166666666666667 0  1.14 0.1333333333333333 0  1.156521739130435 0.1333333333333333 0  1.17304347826087 0.1333333333333333 0  1.189565217391304 0.1333333333333333 0  1.206086956521739 0.1333333333333333 0  1.222608695652174 0.1333333333333333 0  1.239130434782609 0.1333333333333333 0  1.255652173913044 0.1333333333333333 0  1.272173913043478 0.1333333333333333 0  1.288695652173913 0.1333333333333333 0  1.305217391304348 0.1333333333333333 0  1.321739130434783 0.1333333333333333 0  1.338260869565217 0.1333333333333333 0  1.354782608695652 0.1333333333333333 0  1.371304347826087 0.1333333333333333 0  1.387826086956522 0.1333333333333333 0  1.404347826086957 0.1333333333333333 0  1.420869565217391 0.1333333333333333 0  1.437391304347826 0.1333333333333333 0  1.453913043478261 0.1333333333333333 0  1.156521739130435 0.15 0  1.17304347826087 0.15 0  1.189565217391304 0.15 0  1.206086956521739 0.15 0  1.222608695652174 0.15 0  1.239130434782609 0.15 0  1.255652173913044 0.15 0  1.272173913043478 0.15 0  1.288695652173913 0.15 0  1.305217391304348 0.15 0  1.321739130434783 0.15 0  1.338260869565217 0.15 0  1.354782608695652 0.15 0  1.371304347826087 0.15 0  1.387826086956522 0.15 0  1.404347826086957 0.15 0  1.420869565217391 0.15 0  1.437391304347826 0.15 0  1.453913043478261 0.15 0  1.470434782608696 0.15 0  1.17304347826087 0.1666666666666667 0  1.189565217391304 0.1666666666666667 0  1.206086956521739 0.1666666666666667 0  1.222608695652174 0.1666666666666667 0  1.239130434782609 0.1666666666666667 0  1.255652173913044 0.1666666666666667 0  1.272173913043478 0.1666666666666667 0  1.288695652173913 0.1666666666666667 0  1.305217391304348 0.1666666666666667 0  1.321739130434783 0.1666666666666667 0  1.338260869565217 0.1666666666666667 0  1.354782608695652 0.1666666666666667 0  1.371304347826087 0.1666666666666667 0  1.387826086956522 0.1666666666666667 0  1.404347826086957 0.1666666666666667 0  1.420869565217391 0.1666666666666667 0  1.437391304347826 0.1666666666666667 0  1.453913043478261 0.1666666666666667 0  1.470434782608696 0.1666666666666667 0  1.486956521739131 0.1666666666666667 0  1.189565217391304 0.1833333333333333 0  1.206086956521739 0.1833333333333333 0  1.222608695652174 0.1833333333333333 0  1.239130434782609 0.1833333333333333 0  1.255652173913044 0.1833333333333333 0  1.272173913043478 0.1833333333333333 0  1.288695652173913 0.1833333333333333 0  1.305217391304348 0.1833333333333333 0  1.321739130434783 0.1833333333333333 0  1.338260869565217 0.1833333333333333 0  1.354782608695652 0.1833333333333333 0  1.371304347826087 0.1833333333333333 0  1.387826086956522 0.1833333333333333 0  1.404347826086957 0.1833333333333333 0  1.420869565217391 0.1833333333333333 0  1.437391304347826 0.1833333333333333 0  1.453913043478261 0.1833333333333333 0  1.470434782608696 0.1833333333333333 0  1.486956521739131 0.1833333333333333 0  1.503478260869565 0.1833333333333333 0  1.206086956521739 0.2 0  1.222608695652174 0.2 0  1.239130434782609 0.2 0  1.255652173913044 0.2 0  1.272173913043478 0.2 0  1.288695652173913 0.2 0  1.305217391304348 0.2 0  1.321739130434783 0.2 0  1.338260869565217 0.2 0  1.354782608695652 0.2 0  1.371304347826087 0.2 0  1.387826086956522 0.2 0  1.404347826086957 0.2 0  1.420869565217391 0.2 0  1.437391304347826 0.2 0  1.453913043478261 0.2 0  1.470434782608696 0.2 0  1.486956521739131 0.2 0  1.503478260869565 0.2 0  1.52 0.2 0  1.222608695652174 0.2166666666666667 0  1.239130434782609 0.2166666666666667 0  1.255652173913044 0.2166666666666667 0  1.272173913043478 0.2166666666666667 0  1.288695652173913 0.2166666666666667 0  1.305217391304348 0.2166666666666667 0  1.321739130434783 0.2166666666666667 0  1.338260869565217 0.2166666666666667 0  1.354782608695652 0.2166666666666667 0  1.371304347826087 0.2166666666666667 0  1.387826086956522 0.2166666666666667 0  1.404347826086957 0.2166666666666667 0  1.420869565217391 0.2166666666666667 0  1.437391304347826 0.2166666666666667 0  1.453913043478261 0.2166666666666667 0  1.470434782608696 0.2166666666666667 0  1.486956521739131 0.2166666666666667 0  1.503478260869565 0.2166666666666667 0  1.52 0.2166666666666667 0  1.536521739130435 0.2166666666666667 0  1.239130434782609 0.2333333333333333 0  1.255652173913044 0.2333333333333333 0  1.272173913043478 0.2333333333333333 0  1.288695652173913 0.2333333333333333 0  1.305217391304348 0.23333
[...]
<CellData  Scalars="rho_bar"> 
<DataArray  type="Float64"  Name="rho_bar"  format="ascii">7.5741032080591048e-02   7.5758542524885522e-02   7.5575519999093718e-02   7.5592613403496295e-02   7.5412180236136481e-02   7.5428946049956841e-02   7.5250792400033115e-02   7.5267292221361692e-02   7.5091163990167673e-02   7.5107464865186824e-02   7.4933079657096960e-02   7.4949246100049619e-02   7.4776374802703938e-02   7.4792463665980663e-02   7.4620888469096550e-02   7.4636938764208668e-02   7.4466501548594119e-02   7.4482557036256683e-02   7.4313067095363144e-02   7.4329170322165544e-02   7.4160499948023956e-02   7.4176679497030232e-02   7.4008712521946657e-02   7.4024991399303824e-02   7.3857655347263365e-02   7.3874051746184388e-02   7.3707262318083333e-02   7.3723792848823994e-02   7.3557499524649170e-02   7.3574177946277047e-02   7.3408317275160784e-02   7.3425153653853395e-02   7.3259708487566508e-02   7.3276706802850949e-02   7.3111647202999189e-02   7.3128812684789463e-02   7.2981460485191829e-02   7.5552651547730193e-02   7.5388958806842640e-02   7.5331496348270938e-02   7.5227432891790250e-02   7.5170361881216327e-02   7.5067852733594703e-02   7.5011237031485267e-02   7.4910009943249131e-02   7.4853907242318302e-02   7.4753716638621681e-02   7.4698188675071900e-02   7.4598779902109877e-02   7.4543875323544603e-02   7.4445062300769055e-02   7.4390823296263273e-02   7.4292417306914715e-02   7.4238880830970230e-02   7.4140741656002401e-02   7.4087941545858030e-02   7.3989921224614577e-02   7.3937888392178172e-02   7.3839885543207612e-02   7.3788643900512041e-02   7.3690564485261983e-02   7.3640127335354758e-02   7.3541916790860931e-02   7.3492299810448580e-02   7.3393883783293548e-02   7.3345099733625199e-02   7.3246438748158574e-02   7.3198497948957567e-02   7.3099551841216692e-02   7.3052454760316382e-02   7.2953224230267594e-02   7.2906972284939489e-02   7.2807418070042540e-02   7.2762023408899937e-02   7.2617593524930413e-02   7.4988015372014480e-02   7.4830394776875891e-02   7.4705525371262002e-02   7.4674694645729511e-02   7.4550937752679666e-02   7.4520721364246173e-02   7.4398138532255673e-02   7.4368260146666698e-02   7.4246909318843410e-02   7.4217143844325081e-02   7.4097070140022411e-02   7.4067214078255700e-02   7.3948452449956820e-02   7.3918352289003522e-02   7.3800937526485907e-02   7.3770435784046240e-02   7.3654395736678674e-02   7.3623384112140200e-02   7.3508744099247500e-02   7.3477098821454964e-02   7.3363884108036112e-02   7.3331528004170185e-02   7.3219753136616217e-02   7.3186609103697092e-02   7.3076286216794240e-02   7.3042312410194057e-02   7.2933450298683644e-02   7.2898587853353111e-02   7.2791197674962921e-02   7.2755423020014365e-02   7.2649507998282209e-02   7.2612797672623616e-02   7.2508356353933379e-02   7.2470707918091556e-02   7.2367744772534937e-02   7.2329122267706020e-02   7.2227641752098490e-02   7.2088054561747522e-02   7.4244832804584757e-02   7.4094887746593383e-02   7.3913668470657778e-02   7.3946630934605212e-02   7.3767152977501943e-02   7.3799866131252334e-02   7.3622186189265915e-02   7.3654400792380600e-02   7.3478562907905789e-02   7.3510101794472052e-02   7.3336138829640268e-02   7.3366835503655234e-02   7.3194776088728666e-02   7.3224510526372424e-02   7.3054379448900655e-02   7.3083021459436182e-02   7.2914842038884944e-02   7.2942303498406399e-02   7.2776094682313025e-02   7.2802274214559246e-02   7.2638052831936348e-02   7.2662895959455825e-02   7.2500672091840912e-02   7.2524114810306461e-02   7.2363896356378646e-02   7.2385913187121162e-02   7.2227705165320538e-02   7.2248250299792260e-02   7.2092058137675968e-02   7.2111131944071399e-02   7.1956953123368750e-02   7.1974527319126153e-02   7.1822367765872974e-02   7.1838432863965296e-02   7.1688293279500104e-02   7.1702839768594914e-02   7.1554710043570335e-02   7.1421652391378959e-02   7.3361803340554643e-02   7.3220827892397145e-02   7.2996712151260870e-02   7.3081295568443533e-02   7.2859429541683410e-02   7.2943036219381696e-02   7.2723462833980609e-02   7.2805900092801523e-02   7.2588649088916241e-02   7.2669777886264400e-02   7.2454878289227573e-02   7.2534559166704496e-02   7.2322030174727547e-02   7.2400172359793000e-02   7.2190033443931947e-02   7.2266523889347081e-02   7.2058793597795490e-02   7.2133562330230799e-02   7.1928254547035081e-02   7.2001223577700696e-02   7.1798347283298911e-02   7.1869479079817417e-02   7.1669041995400903e-02   7.1738288236692677e-02   7.1540292181315843e-02   7.1607640709736978e-02   7.1412090155994118e-02   7.1477511688701076e-02   7.1284402520376572e-02   7.1347901755598936e-02   7.1157235339098179e-02   7.1218776994042901e-02   7.1030555626971706e-02   7.1090153325042885e-02   7.0904370228238756e-02   7.0962036004545453e-02   7.0778676803232465e-02   7.0653507787874326e-02   7.2383000009763526e-02   7.2251897544005989e-02   7.1999594119479787e-02   7.2122020129065600e-02   7.1872331000301104e-02   7.1993238880460997e-02   7.1746193212810186e-02   7.1865431175177533e-02   7.1621052457431403e-02   7.1738506664049545e-02   7.1496816730717144e-02   7.1612373201144636e-02   7.1373384673309004e-02   7.1486972693352968e-02   7.1250700263047487e-02   7.1362226637069190e-02   7.1128683923839198e-02   7.1238095455551972e-02   7.1007291240282128e-02   7.1114531064660452e-02   7.0886469272925884e-02   7.0991514968926819e-02   7.0766199196439894e-02   7.0869017699929274e-02   7.0646446640602517e-02   7.0747034396588263e-02   7.0527208014906986e-02   7.0625542545362227e-02   7.0408458474434443e-02   7.0504533063755231e-02   7.0290193918878793e-02   7.0384000380508113e-02   7.0172391929860578e-02   7.0263972820354029e-02   7.0055086666307539e-02   7.0144443980019011e-02   6.9938275214697296e-02   6.9821955747417008e-02   7.1354512154057026e-02   7.1233806519867701e-02   7.0968295691439295e-02   7.1114157193072597e-02   7.0851464101366321e-02   7.0995452081077701e-02   7.0735606835116857e-02   7.0877587773403833e-02   7.0620606077686707e-02   7.0760492957815738e-02   7.0506390112536926e-02   7.0644090209619217e-02   7.0392875445292005e-02   7.0528334411444057e-02   7.0280017030764821e-02   7.0413162065159213e-02   7.0167751749187879e-02   7.0298545767202125e-02   7.0056046470220915e-02   7.0184450366555073e-02   6.9944862325899915e-02   7.0070864810583208e-02   6.9834187806553538e-02   6.9957764102676082e-02   6.9723995361088434e-02   6.9845147680913100e-02   6.9614282999437116e-02   6.9732990438273107e-02   6.9505031487998789e-02   6.9621296026239024e-02   6.9396236805150557e-02   6.9510076508512195e-02   6.9287897359926715e-02   6.9399354305589245e-02   6.9180044707864152e-02   6.9289095978061155e-02   6.9072666169909008e-02   6.8965738855159719e-02   7.0321671628469098e-02   7.0211504165036298e-02   6.9947221035593324e-02   7.0102249771416367e-02   6.9840838707470959e-02   6.9993808981611241e-02   6.9735296434005153e-02   6.9886094823137540e-02   6.9630493902962248e-02   6.9779052698480462e-02   6.9526373436655103e-02   6.9672617566260128e-02   6.9422866518102713e-02   6.9566758125830103e-02   6.9319939845135722e-02   6.9461424550661663e-02   6.9217545050023380e-02   6.9356599271358468e-02   6.9115659325215559e-02   6.9252253504775263e-02   6.9014251550359784e-02   6.9148379962015977e-02   6.8913313655741840e-02   6.9044958409062968e-02   6.8812822669022861e-02   6.8941990773526030e-02   6.8712780938778195e-02   6.8839460374399031e-02   6.8613171867104458e-02   6.8737386122568397e-02   6.8514006942807806e-02   6.8635765063608578e-02   6.8415284224213738e-02   6.8534612145498483e-02   6.8317019242941646e-02   6.8433898018380568e-02   6.8219199734010680e-02   6.8121808258750194e-02   6.9326800879562236e-02   6.9226917731263507e-02   6.8977156229814651e-02   6.9127816401168260e-02   6.8880842069352674e-02   6.9029423576332585e-02   6.8785252037884742e-02   6.8931660236017683e-02   6.8690304822719039e-02   6.8834486331531664e-02   6.8595952945137026e-02   6.8737851012587947e-02   6.8502142291320650e-02   6.8641736198547257e-02   6.8408854291398216e-02   6.8546097679046694e-02   6.8316048010665958e-02   6.8450925891513345e-02   6.8223706028913422e-02   6.8356193500298243e-02   6.8131801859957236e-02   6.8261898937526544e-02   6.8040330348243888e-02   6.8168026424848774e-02   6.7949274542682153e-02   6.8074582199773248e-02   6.7858641073289427e-02   6.7981559288818022e-02   6.7768417640177298e-02   6.7888973866776364e-02   6.7678622799584712e-02   6.7796814091931806e-02   6.7589244347201746e-02   6.7705092508234699e-02   6.7500294659464180e-02   6.7613785645127891e-02   6.7411763169479985e-02   6.7323639068657959e-02   6.8407597267216694e-02   6.8317359397480681e-02   6.8093865499859713e-02   6.8227794773309938e-02   6.8006866065364338e-02   6.8138842935646274e-02   6.7920494217709959e-02   6.8050442310847753e-02   6.7834677703285218e-02   6.7962570622783380e-02   6.7749394206658597e-02   6.7875184089686250e-02   6.7664599510911805e-02   6.7788271308145395e-02   6.7580279847429509e-02   6.7701788983883154e-02   6.7496394671389140e-02   6.7615734216368573e-02   6.7412932124978772e-02   6.7530083484270489e-02   6.7329870098247757e-02   6.7444841674972097e-02   6.7247210490165729e-02   6.7359995895285713e-02   6.7164939843210578e-02   6.7275557213639897e-02   6.7083068234601473e-02   6.7191517455481187e-02   6.7001585334078462e-02   6.7107889392950440e-02   6.6920505555417467e-02   6.7024659411113394e-02   6.6839816048356981e-02   6.6941841812383732e-02   6.6759528229006465e-02   6.6859419593829530e-02   6.6679637306201342e-02   6.6600135425220280e-02   6.7596095042395679e-02   6.7514511555849782e-02   6.7327221972573431e-02   6.7433509694517890e-02   6.7248443530249460e-02   6.7353044423824421e-02   6.7170213164616147e-02   6.7273077293546660e-02   6.7092480392562812e-02   6.7193594382977548e-02   6.7015237091617788e-02   6.7114548705564978e-02   6.6938436566294779e-02   6.7035925908634192e-02   6.6862060380217261e-02   6.6957695757287022e-02   6.6786073062346352e-02   6.6879858309959045e-02   6.6710475495417615e-02   6.6802398159353543e-02   6.6635249026566284e-02   6.6725322374249538e-02   6.6560401757435425e-02   6.6648619590744487e-02   6.6485919885619721e-02   6.6572300880425331e-02   6.6411814434905916e-02   6.6496355907235516e-02   6.6338073887862670e-02   6.6420796632338019e-02   6.6264711072722915e-02   6.6345611849678493e-02   6.6191714569548019e-02   6.6270819195349301e-02   6.6119098480930810e-02   6.6196401939039723e-02   6.6046859359005769e-02   6.5974987092952617e-02   6.6918061912790650e-02   6.6843832984924231e-02   6.6700728628301065e-02   6.6770120626117674e-02   6.6628794543734757e-02   6.6696900688609978e-02   6.6557360365080059e-02   6.6624134928883097e-02   6.6486383860267326e-02   6.6551801055454399e-02   6.6415845386554845e-02   6.6479857026828487e-02   6.6345698762449487e-02   6.6408295471509893e-02   6.6275934124009103e-02   6.6337097281486526e-02   6.6206529349590468e-02   6.6266268883971594e-02   6.6137489583033116e-02   6.6195795380957004e-02   6.6068801501093177e-02   6.6125683690486534e-02   6.6000469889820668e-02   6.6055922407960974e-02   6.5932481681340596e-02   6.5986522626341776e-02   6.5864848124920897e-02   6.5917473739871071e-02   6.5797558065094769e-02   6.5848789452642401e-02   6.5730625148820401e-02   6.5780459780698103e-02   6.5664039212048123e-02   6.5712500920224265e-02   6.5597813444251085e-02   6.5644891097064673e-02   6.5531939098841863e-02   6.5466415834945182e-02   6.6392745958665594e-02   6.6324340312809038e-02   6.6231385668360523e-02   6.6256407660260322e-02   6.6164703499348568e-02   6.6188925049252487e-02   6.6098479202275504e-02   6.6121842971870029e-02   6.6032663951429413e-02   6.6055146595008815e-02   6.5967236935658896e-02   6.5988808857709122e-02   6.5902170268059751e-02   6.5922827313558710e-02   6.5837459052674102e-02   6.5857191034556783e-02   6.5773087787829435e-02   6.5791905984902574e-02   6.5709066112947370e-02   6.5726954385386047e-02   6.5645375855493626e-02   6.5662344359410624e-02   6.5582022556554570e-02   6.5598066135695743e-02   6.5518994985136428e-02   6.5534131014909527e-02   6.5456305666698938e-02   6.5470529706679409e-02   6.5393943517542893e-02   6.5407276284969396e-02   6.5331923539213743e-02   6.5344356726159986e-02   6.5270232775767878e-02   6.5281787253220036e-02   6.5208885176397474e-02   6.5219555914419622e-02   6.5147872329764128e-02   6.5087203807463093e-02   6.6032892848444727e-02   6.5968587489840413e-02   6.5929724314328475e-02   6.5904708425242778e-02   6.5866513865638590e-02   6.5841230561411224e-02   6.5803714031430760e-02   6.5778119613074060e-02   6.5741285564652752e-02   6.5715365794396616e-02   6.5679218257203242e-02   6.5652949655252035e-02   6.5617488596853318e-02   6.5590878608507930e-02   6.5556102496064875e-02   6.5529136989730535e-02   6.5495046638585505e-02   6.5467727034017306e-02   6.5434322091109942e-02   6.5406635857901491e-02   6.5373913059358649e-02   6.5345873151848949e-02   6.5313830161774764e-02   6.5285429258360644e-02   6.5254062367184132e-02   6.5225317090706045e-02   6.5194622788722317e-02   6.5165526877838414e-02   6.5135501361997514e-02   6.5106067379192306e-02   6.5076709101925950e-02   6.5046931579812783e-02   6.5018232738445855e-02   6.4988135094292743e-02   6.4960091554168931e-02   6.4929663423137857e-02   6.4902273553966591e-02   6.4844789056111976e-02   6.5844843061728706e-02   6.5782763506942676e-02   6.5799952737280717e-02   6.5721074281058139e-02   6.5738315250372520e-02   6.5659754216206817e-02   6.5677056470830206e-02   6.5598781795241104e-02   6.5616148883908904e-02   6.5538150767464207e-02   6.5555588656036654e-02   6.5477850309805449e-02   6.5495356863526755e-02   6.5417885094733022e-02   6.5435462171963749e-02   6.5358235912286858e-02   6.5375886629230606e-02   6.5298908242798867e-02   6.5316633468230162e-02   6.5239894164604309e-02   6.5257692540230020e-02   6.5181201481989706e-02   6.5199073830811222e-02   6.5122821737099476e-02   6.5140764947224511e-02   6.5064768301814527e-02   6.5082780667795104e-02   6.5007027373971016e-02   6.5025109840726153e-02   6.4949609983234916e-02   6.4967760708136410e-02   6.4892509883882149e-02   6.4910725026443739e-02   6.4835740316282697e-02   6.4854018117302320e-02   6.4779288167550353e-02   6.4797627285851880e-02   6.4741568127997751e-02   6.5828774810233082e-02   6.5766988169396717e-02   6.5840259563633416e-02   6.5705580050129803e-02   6.5778271826797657e-02   6.5644524906827387e-02   6.5716654848900838e-02   6.5583808436553953e-02   6.5655378611866266e-02   6.5523427180768506e-02   6.5594441861634933e-02   6.5463369828552748e-02   6.5533829262735932e-02   6.5403643965256983e-02   6.5473551050007683e-02   6.5344232591777213e-02   6.5413593317741520e-02   6.5285145973122377e-02   6.5353961729138349e-02   6.5226371804511893e-02   6.5294646484734625e-02   6.5167917852190033e-02   6.5235653258550463e-02   6.5109776124902610e-02   6.5176970980893242e-02   6.5051960748428228e-02   6.5118615533049942e-02   6.4994457501241665e-02   6.5060575925494329e-02   6.4937279235968828e-02   6.5002861821648383e-02   6.4880417594167253e-02   6.4945464390635171e-02   6.4823882726184986e-02   6.4888396039217380e-02   6.4767668138993845e-02   6.4831644409445152e-02   6.4775227333202859e-02   6.5979069151869518e-02   6.5915678048010420e-02   6.6043208851768592e-02   6.5852670589929177e-02   6.5979006781985025e-02   6.5790002069512757e-02   6.5915168772757105e-02   6.5727667704057496e-02   6.5851662301826736e-02   6.5665671025407671e-02   6.5788499251586724e-02   6.5604001526758396e-02   6.5725666434314434e-02   6.5542672300232058e-02   6.5663177694528771e-02   6.5481665422645233e-02   6.5601019441508979e-02   6.5420991160196715e-02   6.5539198422314551e-02   6.5360633083590303e-02   6.5477700291797503e-02   6.5300600622003574e-02   6.5416531214258111e-02   6.5240887915668760e-02   6.5355681953620931e-02   6.5181510304179638e-02   6.5295171226838422e-02   6.5122453673183409e-02   6.5234987360672445e-02   6.5063729290184738e-02   6.5175139530995421e-02   6.5005326567968924e-02   6.5115616481152105e-02   6.4947259684109401e-02   6.5056431905762213e-02   6.4889518588443038e-02   6.4997577962709538e-02   6.4939064655367751e-02   6.6284726939835545e-02   6.6217933465232817e-02   6.6396130609967699e-02   6.6151505334390959e-02   6.6327941453904235e-02   6.6085424934453962e-02   6.6260108712351246e-02   6.6019688890265493e-02   6.6192627255545269e-02   6.5954302241582871e-02   6.6125503587502452e-02   6.5889255156217935e-02   6.6058721747473334e-02   6.5824566613428392e-02   6.5992303726764859e-02   6.5760212800508339e-02   6.5926233606867543e-02   6.5696201307988547e-02   6.5860513034385199e-02   6.5632518497604056e-02   6.5795127708815279e-02   6.5569176843746552e-02   6.5730088971434147e-02   6.5506171058586721e-02   6.5665388663964458e-02   6.5443516828809570e-02   6.5601045485804074e-02   6.5381197315468015e-02   6.5537046663088960e-02   6.5319223100477747e-02   6.5473399291094012e-02   6.5257586784075977e-02   6.5410093522738910e-02   6.5196304533054861e-02   6.5347146454292904e-02   6.5135361774232250e-02   6.5284547463922496e-02   6.5222305203741421e-02   6.6729715068436155e-02   6.6657839493061033e-02   6.6881425409339654e-02   6.6586342984625624e-02   6.6807646879682103e-02   6.6515217027893481e-02   6.6734258005037531e-02   6.6444449631884325e-02   6.6661233525010202e-02   6.6374050303619675e-02   6.6588585458133259e-02   6.6304012937996343e-02   6.6516301336627767e-02   6.6234354644153268e-02   6.6444405079575997e-02   6.6165047081479161e-02   6.6372875906693968e-02   6.6096099611752127e-02   6.6301715089733732e-02   6.6027503644496666e-02   6.6230912715484203e-02   6.5959272479390804e-02   6.6160482789951860e-02   6.5891399322510896e-02   6.6090415984273107e-02   6.5823898899204009e-02   6.6020729997329844e-02   6.5756754300666465e-02   6.5951411479127309e-02   6.5689977012639345e-02   6.5882468345560441e-02   6.5623561818976467e-02   6.5813892212062880e-02   6.5557520095202590e-02   6.5745698936057181e-02   6.5491838602913743e-02   6.5677874045256407e-02   6.5610431837269723e-02   6.7293328988390022e-02   6.7214941827853703e-02   6.7477047654238273e-02   6.7136960868652867e-02   6.7396350211239547e-02   6.7059363515686268e-02   6.7316059082064547e-02   6.6982148796197447e-02   6.7236151945058290e-02   6.6905328880301124e-02   6.7156649961534087e-02   6.6828897036405474e-02   6.7077541005228433e-02   6.6752864927679040e-02   6.6998843987795806e-02   6.6677209696716505e-02   6.6920538873180585e-02   6.6601941878127499e-02   6.6842631349296577e-02   6.6527054362986227e-02   6.6765112152153777e-02   6.6452559814026618e-02   6.6687995464606770e-02   6.6378450745494144e-02   6.6611271292794205e-02   6.6304741288437011e-02   6.6534956666007145e-02   6.6231415872053223e-02   6.6459038662325984e-02   6.6158487507494784e-02   6.6383526682788171e-02   6.6085947756497385e-02   6.6308412605673883e-02   6.6013806491960939e-02   6.6233707861987290e-02   6.5942056328797141e-02   6.6159401869121781e-02   6.6085508399804913e-02   6.7950734117374012e-02   6.7864679728467006e-02   6.8156966127074198e-02   6.7779045245892233e-02   6.8068284677960292e-02   6.7693821669265200e-02   6.7980027343303204e-02   6.7609014134154294e-02   6.7892190444476003e-02   6.7524631660588641e-02   6.7804791278514104e-02   6.7440665368707950e-02   6.7717816460178687e-02   6.7357127248723364e-02   6.7631281896826184e-02   6.7273998136171367e-02   6.7545171895335626e-02   6.7191288735702639e-02   6.7459492114148895e-02   6.7108991764241413e-02   6.7374233940263359e-02   6.7027120312863231e-02   6.7289411662762047e-02   6.6945665987409309e-02   6.7205015449622527e-02   6.6864643433603141e-02   6.7121061584390879e-02   6.6784038250853647e-02   6.7037538253949230e-02   6.6703862815443132e-02   6.6954455173136043e-02   6.6624107042204297e-02   6.6871802878917266e-02   6.6544781844902715e-02   6.6789591230423370e-02   6.6465879041518544e-02   6.6707812378364997e-02   6.66264762