<?xml version="1.0"?>
<VTKFile type="UnstructuredGrid"  version="0.1"  >
<UnstructuredGrid>
<Piece  NumberOfPoints="28121" NumberOfCells="55200">
<Points>
<DataArray  type="Float64"  NumberOfComponents="3"  format="ascii">0 0 0  0.008260869565217391 0 0  0.01652173913043478 0 0  0.02478260869565217 0 0  0.03304347826086956 0 0  0.04130434782608695 0 0  0.04956521739130434 0 0  0.05782608695652174 0 0  0.06608695652173913 0 0  0.07434782608695652 0 0  0.08260869565217391 0 0  0.0908695652173913 0 0  0.09913043478260869 0 0  0.1073913043478261 0 0  0.1156521739130435 0 0  0.1239130434782609 0 0  0.1321739130434783 0 0  0.1404347826086956 0 0  0.148695652173913 0 0  0.1569565217391304 0 0  0.1652173913043478 0 0  0.1734782608695652 0 0  0.1817391304347826 0 0  0.19 0 0  0.1982608695652174 0 0  0.2065217391304348 0 0  0.2147826086956522 0 0  0.2230434782608696 0 0  0.2313043478260869 0 0  0.2395652173913043 0 0  0.2478260869565218 0 0  0.2560869565217391 0 0  0.2643478260869565 0 0  0.2726086956521739 0 0  0.2808695652173913 0 0  0.2891304347826087 0 0  0.2973913043478261 0 0  0.3056521739130434 0 0  0.3139130434782609 0 0  0.3221739130434783 0 0  0.3304347826086956 0 0  0.338695652173913 0 0  0.3469565217391304 0 0  0.3552173913043478 0 0  0.3634782608695652 0 0  0.3717391304347826 0 0  0.3799999999999999 0 0  0.3882608695652174 0 0  0.3965217391304348 0 0  0.4047826086956521 0 0  0.4130434782608696 0 0  0.4213043478260869 0 0  0.4295652173913043 0 0  0.4378260869565217 0 0  0.4460869565217391 0 0  0.4543478260869565 0 0  0.4626086956521739 0 0  0.4708695652173913 0 0  0.4791304347826086 0 0  0.4873913043478261 0 0  0.4956521739130435 0 0  0.5039130434782608 0 0  0.5121739130434783 0 0  0.5204347826086956 0 0  0.528695652173913 0 0  0.5369565217391304 0 0  0.5452173913043478 0 0  0.5534782608695652 0 0  0.5617391304347825 0 0  0.57 0 0  0.5782608695652174 0 0  0.5865217391304348 0 0  0.5947826086956521 0 0  0.6030434782608696 0 0  0.6113043478260869 0 0  0.6195652173913043 0 0  0.6278260869565218 0 0  0.6360869565217391 0 0  0.6443478260869565 0 0  0.6526086956521739 0 0  0.6608695652173913 0 0  0.6691304347826087 0 0  0.677391304347826 0 0  0.6856521739130435 0 0  0.6939130434782609 0 0  0.7021739130434783 0 0  0.7104347826086956 0 0  0.718695652173913 0 0  0.7269565217391304 0 0  0.7352173913043478 0 0  0.7434782608695653 0 0  0.7517391304347827 0 0  0.7599999999999999 0 0  0.7682608695652173 0 0  0.7765217391304348 0 0  0.7847826086956522 0 0  0.7930434782608695 0 0  0.8013043478260868 0 0  0.8095652173913043 0 0  0.8178260869565217 0 0  0.8260869565217391 0 0  0.8343478260869565 0 0  0.8426086956521739 0 0  0.8508695652173912 0 0  0.8591304347826086 0 0  0.8673913043478261 0 0  0.8756521739130434 0 0  0.8839130434782608 0 0  0.8921739130434783 0 0  0.9004347826086956 0 0  0.908695652173913 0 0  0.9169565217391303 0 0  0.9252173913043478 0 0  0.9334782608695652 0 0  0.9417391304347826 0 0  0.95 0 0  0.9582608695652173 0 0  0.9665217391304347 0 0  0.9747826086956521 0 0  0.9830434782608696 0 0  0.991304347826087 0 0  0.9995652173913042 0 0  1.007826086956522 0 0  1.016086956521739 0 0  1.024347826086957 0 0  1.032608695652174 0 0  1.040869565217391 0 0  1.049130434782609 0 0  1.057391304347826 0 0  1.065652173913043 0 0  1.073913043478261 0 0  1.082173913043478 0 0  1.090434782608696 0 0  1.098695652173913 0 0  1.10695652173913 0 0  1.115217391304348 0 0  1.123478260869565 0 0  1.131739130434783 0 0  1.14 0 0  1.148260869565217 0 0  1.156521739130435 0 0  1.164782608695652 0 0  1.17304347826087 0 0  1.181304347826087 0 0  1.189565217391304 0 0  1.197826086956522 0 0  1.206086956521739 0 0  1.214347826086956 0 0  1.222608695652174 0 0  1.230869565217391 0 0  1.239130434782609 0 0  1.247391304347826 0 0  1.255652173913044 0 0  1.263913043478261 0 0  1.272173913043478 0 0  1.280434782608696 0 0  1.288695652173913 0 0  1.296956521739131 0 0  1.305217391304348 0 0  1.313478260869565 0 0  1.321739130434783 0 0  1.33 0 0  1.338260869565217 0 0  1.346521739130435 0 0  1.354782608695652 0 0  1.36304347826087 0 0  1.371304347826087 0 0  1.379565217391304 0 0  1.387826086956522 0 0  1.396086956521739 0 0  1.404347826086957 0 0  1.412608695652174 0 0  1.420869565217391 0 0  1.429130434782609 0 0  1.437391304347826 0 0  1.445652173913043 0 0  1.453913043478261 0 0  1.462173913043478 0 0  1.470434782608696 0 0  1.478695652173913 0 0  1.486956521739131 0 0  1.495217391304348 0 0  1.503478260869565 0 0  1.511739130434782 0 0  1.52 0 0  1.528260869565217 0 0  1.536521739130435 0 0  1.544782608695652 0 0  1.55304347826087 0 0  1.561304347826087 0 0  1.569565217391304 0 0  1.577826086956522 0 0  1.586086956521739 0 0  1.594347826086957 0 0  1.602608695652174 0 0  1.610869565217391 0 0  1.619130434782609 0 0  1.627391304347826 0 0  1.635652173913043 0 0  1.643913043478261 0 0  1.652173913043478 0 0  1.660434782608696 0 0  1.668695652173913 0 0  1.67695652173913 0 0  1.685217391304348 0 0  1.693478260869565 0 0  1.701739130434782 0 0  1.71 0 0  1.718260869565217 0 0  1.726521739130435 0 0  1.734782608695652 0 0  1.743043478260869 0 0  1.751304347826087 0 0  1.759565217391304 0 0  1.767826086956522 0 0  1.776086956521739 0 0  1.784347826086957 0 0  1.792608695652174 0 0  1.800869565217391 0 0  1.809130434782608 0 0  1.817391304347826 0 0  1.825652173913043 0 0  1.833913043478261 0 0  1.842173913043478 0 0  1.850434782608696 0 0  1.858695652173913 0 0  1.86695652173913 0 0  1.875217391304348 0 0  1.883478260869565 0 0  1.891739130434782 0 0  1.9 0 0  1.908260869565217 0 0  1.916521739130435 0 0  1.924782608695652 0 0  1.933043478260869 0 0  1.941304347826087 0 0  1.949565217391304 0 0  1.957826086956522 0 0  1.966086956521739 0 0  1.974347826086956 0 0  1.982608695652174 0 0  1.990869565217391 0 0  1.999130434782608 0 0  2.007391304347826 0 0  2.015652173913043 0 0  2.023913043478261 0 0  2.032173913043478 0 0  2.040434782608695 0 0  2.048695652173913 0 0  2.05695652173913 0 0  2.065217391304348 0 0  2.073478260869565 0 0  2.081739130434782 0 0  2.09 0 0  2.098260869565217 0 0  2.106521739130435 0 0  2.114782608695652 0 0  2.12304347826087 0 0  2.131304347826087 0 0  2.139565217391304 0 0  2.147826086956522 0 0  2.156086956521739 0 0  2.164347826086956 0 0  2.172608695652174 0 0  2.180869565217391 0 0  2.189130434782609 0 0  2.197391304347826 0 0  2.205652173913043 0 0  2.213913043478261 0 0  2.222173913043478 0 0  2.230434782608695 0 0  2.238695652173913 0 0  2.24695652173913 0 0  2.255217391304348 0 0  2.263478260869565 0 0  2.271739130434783 0 0  2.28 0 0  2.288260869565217 0 0  2.296521739130434 0 0  2.304782608695652 0 0  2.31304347826087 0 0  2.321304347826087 0 0  2.329565217391304 0 0  2.337826086956521 0 0  2.346086956521739 0 0  2.354347826086956 0 0  2.362608695652174 0 0  2.370869565217391 0 0  2.379130434782609 0 0  2.387391304347826 0 0  2.395652173913044 0 0  2.403913043478261 0 0  2.412173913043478 0 0  2.420434782608695 0 0  2.428695652173913 0 0  2.43695652173913 0 0  2.445217391304348 0 0  2.453478260869565 0 0  2.461739130434782 0 0  2.47 0 0  2.478260869565217 0 0  2.486521739130435 0 0  2.494782608695652 0 0  2.503043478260869 0 0  2.511304347826087 0 0  2.519565217391305 0 0  2.527826086956522 0 0  2.536086956521739 0 0  2.544347826086956 0 0  2.552608695652174 0 0  2.560869565217391 0 0  2.569130434782608 0 0  2.577391304347826 0 0  2.585652173913043 0 0  2.593913043478261 0 0  2.602173913043478 0 0  2.610434782608696 0 0  2.618695652173913 0 0  2.62695652173913 0 0  2.635217391304348 0 0  2.643478260869565 0 0  2.651739130434783 0 0  2.66 0 0  2.668260869565217 0 0  2.676521739130435 0 0  2.684782608695652 0 0  2.693043478260869 0 0  2.701304347826087 0 0  2.709565217391304 0 0  2.717826086956522 0 0  2.726086956521739 0 0  2.734347826086956 0 0  2.742608695652174 0 0  2.750869565217391 0 0  2.759130434782609 0 0  2.767391304347826 0 0  2.775652173913044 0 0  2.783913043478261 0 0  2.792173913043478 0 0  2.800434782608696 0 0  2.808695652173913 0 0  2.81695652173913 0 0  2.825217391304347 0 0  2.833478260869565 0 0  2.841739130434783 0 0  2.85 0 0  2.858260869565217 0 0  2.866521739130435 0 0  2.874782608695652 0 0  2.88304347826087 0 0  2.891304347826087 0 0  2.899565217391304 0 0  2.907826086956522 0 0  2.916086956521739 0 0  2.924347826086957 0 0  2.932608695652174 0 0  2.940869565217391 0 0  2.949130434782608 0 0  2.957391304347826 0 0  2.965652173913043 0 0  2.973913043478261 0 0  2.982173913043478 0 0  2.990434782608696 0 0  2.998695652173913 0 0  3.006956521739131 0 0  3.015217391304348 0 0  3.023478260869565 0 0  3.031739130434782 0 0  3.04 0 0  3.048260869565218 0 0  3.056521739130435 0 0  3.064782608695652 0 0  3.073043478260869 0 0  3.081304347826087 0 0  3.089565217391304 0 0  3.097826086956522 0 0  3.106086956521739 0 0  3.114347826086956 0 0  3.122608695652174 0 0  3.130869565217391 0 0  3.139130434782609 0 0  3.147391304347826 0 0  3.155652173913043 0 0  3.163913043478261 0 0  3.172173913043478 0 0  3.180434782608696 0 0  3.188695652173913 0 0  3.19695652173913 0 0  3.205217391304347 0 0  3.213478260869565 0 0  3.221739130434782 0 0  3.23 0 0  3.238260869565217 0 0  3.246521739130435 0 0  3.254782608695652 0 0  3.26304347826087 0 0  3.271304347826087 0 0  3.279565217391304 0 0  3.287826086956521 0 0  3.296086956521739 0 0  3.304347826086957 0 0  3.312608695652174 0 0  3.320869565217391 0 0  3.329130434782608 0 0  3.337391304347826 0 0  3.345652173913043 0 0  3.353913043478261 0 0  3.362173913043478 0 0  3.370434782608696 0 0  3.378695652173913 0 0  3.386956521739131 0 0  3.395217391304348 0 0  3.403478260869565 0 0  3.411739130434782 0 0  3.419999999999999 0 0  3.428260869565217 0 0  3.436521739130435 0 0  3.444782608695652 0 0  3.453043478260869 0 0  3.461304347826087 0 0  3.469565217391304 0 0  3.477826086956522 0 0  3.486086956521739 0 0  3.494347826086956 0 0  3.502608695652174 0 0  3.510869565217391 0 0  3.519130434782609 0 0  3.527391304347826 0 0  3.535652173913043 0 0  3.54391304347826
[...]
<PointData  Scalars="rho"> 
<DataArray  type="Float64"  Name="rho"  format="ascii">3.2810131637947432e-01  3.4307013334639186e-01  3.4273954288428315e-01  3.4231112991815377e-01  3.4183305764857830e-01  3.4134172497833337e-01  3.4086085915906078e-01  3.4040430999631449e-01  3.3997890527273900e-01  3.3958673975643455e-01  3.3922688676242474e-01  3.3889662270928811e-01  3.3859227934516184e-01  3.3830981511529329e-01  3.3804518689323110e-01  3.3779457093592286e-01  3.3755449180955732e-01  3.3732187799461311e-01  3.3709407907439121e-01  3.3686884871335177e-01  3.3664432020557289e-01  3.3641896450307163e-01  3.3619155642383841e-01  3.3596112906608200e-01  3.3572694100662154e-01  3.3548843868562178e-01  3.3524522896090164e-01  3.3499704796156404e-01  3.3474374150420494e-01  3.3448523988002582e-01  3.3422154635874313e-01  3.3395271628404360e-01  3.3367884978844520e-01  3.3340007812834349e-01  3.3311655855427325e-01  3.3282846325383547e-01  3.3253597768736032e-01  3.3223929097139976e-01  3.3193859797669778e-01  3.3163409054491993e-01  3.3132595986921098e-01  3.3101439178756747e-01  3.3069956872946199e-01  3.3038166506571148e-01  3.3006085049501660e-01  3.2973728507900724e-01  3.2941112488589763e-01  3.2908251608669209e-01  3.2875160020227612e-01  3.2841851117676518e-01  3.2808337920134922e-01  3.2774632742308862e-01  3.2740747637897005e-01  3.2706693985944341e-01  3.2672483104574107e-01  3.2638125739654694e-01  3.2603632580560593e-01  3.2569014015484166e-01  3.2534280501653601e-01  3.2499442215645974e-01  3.2464509508088213e-01  3.2429492454505709e-01  3.2394401465337341e-01  3.2359246712850154e-01  3.2324038643454567e-01  3.2288787671358210e-01  3.2253504514873588e-01  3.2218199852728413e-01  3.2182884676259910e-01  3.2147569856174196e-01  3.2112266651817517e-01  3.2076986157549658e-01  3.2041739727376611e-01  3.2006538671736923e-01  3.1971394542338299e-01  3.1936318711812078e-01  3.1901322758128431e-01  3.1866417946377118e-01  3.1831615767165672e-01  3.1796927310883083e-01  3.1762363712452030e-01  3.1727935793131368e-01  3.1693654342565308e-01  3.1659529738818892e-01  3.1625572250704798e-01  3.1591791585324436e-01  3.1558197350755923e-01  3.1524798497646545e-01  3.1491603711301541e-01  3.1458621106197282e-01  3.1425858492466008e-01  3.1393322966093251e-01  3.1361021281574830e-01  3.1328959357079433e-01  3.1297142803035755e-01  3.1265576332847866e-01  3.1234264207916279e-01  3.1203209912903690e-01  3.1172416450788981e-01  3.1141886001925978e-01  3.1111620245084670e-01  3.1081619952356154e-01  3.1051885468663548e-01  3.1022416210571607e-01  3.0993211081342537e-01  3.0964268216664009e-01  3.0935585283006245e-01  3.0907159125005484e-01  3.0878986169712502e-01  3.0851061995448681e-01  3.0823381887083395e-01  3.0795940317615722e-01  3.0768731423100548e-01  3.0741748738698854e-01  3.0714985530278022e-01  3.0688434512495671e-01  3.0662088204742199e-01  3.0635938585611222e-01  3.0609977597331794e-01  3.0584196705135314e-01  3.0558587333975273e-01  3.0533140658773333e-01  3.0507847923106596e-01  3.0482700127287882e-01  3.0457688440622060e-01  3.0432803806195446e-01  3.0408037488093381e-01  3.0383380583090036e-01  3.0358824482000957e-01  3.0334360614765898e-01  3.0309980764829375e-01  3.0285676785123078e-01  3.0261440928876565e-01  3.0237265496983706e-01  3.0213143299422307e-01  3.0189067205534331e-01  3.0165030533282655e-01  3.0141026818170963e-01  3.0117050078728308e-01  3.0093094488125949e-01  3.0069154723284980e-01  3.0045225558691413e-01  3.0021302341275302e-01  2.9997380486137454e-01  2.9973455879327471e-01  2.9949524603111177e-01  2.9925583200225836e-01  2.9901628348510628e-01  2.9877657167237176e-01  2.9853666828956554e-01  2.9829654994491800e-01  2.9805619338528117e-01  2.9781557905260775e-01  2.9757468864713643e-01  2.9733350743816189e-01  2.9709202118775013e-01  2.9685021902245856e-01  2.9660808968909380e-01  2.9636562580950954e-01  2.9612281918267042e-01  2.9587966438854996e-01  2.9563615625614631e-01  2.9539229234451186e-01  2.9514806970690066e-01  2.9490348801481814e-01  2.9465854563725041e-01  2.9441324404603753e-01  2.9416758318262132e-01  2.9392156506387634e-01  2.9367519124192976e-01  2.9342846523070071e-01  2.9318138971542163e-01  2.9293396920813347e-01  2.9268620668579087e-01  2.9243810749252902e-01  2.9218967518756983e-01  2.9194091486044177e-01  2.9169183090345252e-01  2.9144242935826853e-01  2.9119271486561016e-01  2.9094269377808923e-01  2.9069237047549923e-01  2.9044175160871533e-01  2.9019084170594611e-01  2.8993964672081535e-01  2.8968817161500809e-01  2.8943642274550174e-01  2.8918440525740169e-01  2.8893212562507520e-01  2.8867958856012621e-01  2.8842680067484622e-01  2.8817376664277583e-01  2.8792049231866351e-01  2.8766698270823782e-01  2.8741324416894065e-01  2.8715928159448806e-01  2.8690510133117297e-01  2.8665070778118090e-01  2.8639610736199173e-01  2.8614130443305280e-01  2.8588630461911280e-01  2.8563111256697427e-01  2.8537573418863521e-01  2.8512017424337627e-01  2.8486443870795747e-01  2.8460853191990948e-01  2.8435245997600272e-01  2.8409622718970218e-01  2.8383983898343856e-01  2.8358330000908111e-01  2.8332661619383465e-01  2.8306979214310579e-01  2.8281283382897171e-01  2.8255574547284773e-01  2.8229853318050396e-01  2.8204120120760623e-01  2.8178375501317454e-01  2.8152619919373351e-01  2.8126853955228365e-01  2.8101078087292020e-01  2.8075292909518856e-01  2.8049498870393369e-01  2.8023696582795737e-01  2.7997886501317770e-01  2.7972069185887954e-01  2.7946245129737640e-01  2.7920414946414912e-01  2.7894579133202263e-01  2.7868738314843844e-01  2.7842892961657567e-01  2.7817043717552375e-01  2.7791191063012971e-01  2.7765335590838119e-01  2.7739477818530822e-01  2.7713618376070315e-01  2.7687757804376639e-01  2.7661896751084991e-01  2.7636035736401776e-01  2.7610175429969425e-01  2.7584316363077577e-01  2.7558459163830601e-01  2.7532604403334798e-01  2.7506752762137615e-01  2.7480904821073138e-01  2.7455061275449666e-01  2.7429222688130761e-01  2.7403389776670695e-01  2.7377563115885722e-01  2.7351743382607641e-01  2.7325931188726160e-01  2.7300127249615797e-01  2.7274332199093554e-01  2.7248546769785509e-01  2.7222771582203520e-01  2.7197007391492639e-01  2.7171254831385505e-01  2.7145514622781897e-01  2.7119787438222698e-01  2.7094074044797894e-01  2.7068375130546102e-01  2.7042691478331932e-01  2.7017023763692583e-01  2.6991372792266732e-01  2.6965739252760274e-01  2.6940123918163877e-01  2.6914527512043285e-01  2.6888950849216936e-01  2.6863394670521368e-01  2.6837859805636327e-01  2.6812346984461727e-01  2.6786857057950347e-01  2.6761390770788773e-01  2.6735948946934540e-01  2.6710532363889367e-01  2.6685141881280638e-01  2.6659778298739151e-01  2.6634442493400540e-01  2.6609135257135180e-01  2.6583857486814755e-01  2.6558609989430826e-01  2.6533393642094460e-01  2.6508209282996453e-01  2.6483057828197915e-01  2.6457940130781160e-01  2.6432857120601583e-01  2.6407809645552477e-01  2.6382798653786793e-01  2.6357825007796004e-01  2.6332889637855927e-01  2.6307993434490989e-01  2.6283137357322817e-01  2.6258322318710214e-01  2.6233549293313280e-01  2.6208819191588878e-01  2.6184133006201976e-01  2.6159491661484680e-01  2.6134896137822139e-01  2.6110347386414995e-01  2.6085846421114489e-01  2.6061394207144295e-01  2.6036991769907175e-01  2.6012640074420085e-01  2.5988340162442258e-01  2.5964093011966061e-01  2.5939899654606047e-01  2.5915761091228356e-01  2.5891678377640720e-01  2.5867652533916718e-01  2.5843684627468960e-01  2.5819775680164786e-01  2.5795926773734834e-01  2.5772138942193912e-01  2.5748413261392450e-01  2.5724750785629480e-01  2.5701152615611911e-01  2.5677619818286729e-01  2.5654153502161098e-01  2.5630754736588712e-01  2.5607424641648335e-01  2.5584164296128997e-01  2.5560974815662574e-01  2.5537857293748017e-01  2.5514812862203273e-01  2.5491842627464728e-01  2.5468947726086194e-01  2.5446129266020612e-01  2.5423388390172941e-01  2.5400726212509606e-01  2.5378143871996484e-01  2.5355642491139940e-01  2.5333223219721640e-01  2.5310887185486569e-01  2.5288635535898235e-01  2.5266469397033853e-01  2.5244389915913007e-01  2.5222398216978215e-01  2.5200495440419352e-01  2.5178682708680983e-01  2.5156961161025498e-01  2.5135331916913201e-01  2.5113796103136088e-01  2.5092354829565039e-01  2.5071009209956446e-01  2.5049760342645849e-01  2.5028609327210988e-01  2.5007557246166567e-01  2.4986605183510516e-01  2.4965754205813823e-01  2.4945005370689485e-01  2.4924359723480921e-01  2.4903818294036623e-01  2.4883382098974341e-01  2.4863052141806183e-01  2.4842829402726788e-01  2.4822714847546778e-01  2.4802709421920699e-01  2.4782814045168330e-01  2.4763029624294206e-01  2.4743357027348381e-01  2.4723797114417340e-01  2.4704350712786283e-01  2.4685018625203145e-01  2.4665801621064390e-01  2.4646700447425263e-01  2.4627715807805081e-01  2.4608848394255015e-01  2.4590098841800190e-01  2.4571467775403888e-01  2.4552955775601878e-01  2.4534563391578557e-01  2.4516291127318451e-01  2.4498139466363922e-01  2.4480108836319134e-01  2.4462199662157494e-01  2.4444412298417487e-01  2.4426747104008512e-01  2.4409204387743436e-01  2.4391784439246481e-01  2.4374487505534831e-01  2.4357313823210056e-01  2.4340263583392577e-01  2.4323336993269676e-01  2.4306534203614791e-01  2.4289855397755133e-01  2.4273300732285935e-01  2.4256870376131107e-01  2.4240564482030694e-01  2.4224383248109363e-01  2.4208326858401732e-01  2.4192395581675566e-01  2.4176589669516046e-01  2.4160909483247606e-01  2.4145355415378864e-01  2.4129927951544239e-01  2.4114627637113525e-01  2.4099455141185766e-01  2.4084411210547479e-01  2.4069496768557921e-01  2.4054712819333848e-01  2.4040060582049100e-01  2.4025541411804854e-01  2.4011156864706137e-01  2.3996908657486871e-01  2.3982798760031490e-01  2.3968829314029261e-01  2.3955002766136416e-01  2.3941321729520601e-01  2.3927789148159792e-01  2.3914408182914496e-01  2.3901182286771297e-01  2.3888115141500990e-01  2.3875210728878249e-01  2.3862473246310409e-01  2.3849907209975602e-01  2.3837517302038660e-01  2.3825308507749554e-01  2.3813285975203341e-01  2.3801455057860893e-01  2.3789821213119783e-01  2.3778390068825311e-01  2.3767167266925088e-01  2.3756158568100505e-01  2.3745369622198098e-01  2.3734806104683809e-01  2.3724473512343514e-01  2.3714377192338071e-01  2.3704522198202446e-01  2.3694913316945074e-01  2.3685554908378076e-01  2.3676450975438312e-01  2.3667604938271986e-01  2.3659019759404751e-01  2.3650697753909933e-01  2.3642640630878128e-01  2.3634849376993727e-01  2.3627324359818053e-01  2.3620065191628820e-01  2.3613070920051396e-01  2.3606339856986983e-01  2.3599869854365807e-01  2.3593658231040265e-01  2.3587701997615554e-01  2.3581997912855673e-01  2.3576542772865078e-01  2.3571333541898379e-01  2.3566367778503144e-01  2.3561643766926277e-01  2.3557161081785827e-01  2.3552920845485362e-01  2.3548926292595382e-01  2.3545183162236474e-01  2.3541700308251975e-01  2.3538490083088173e-01  2.3535568935324308e-01  2.3532957569109295e-01  2.3530681263049535e-01  2.3528769383612294e-01  2.3527254685596630e-01  2.3526171611218266e-01  2.3525554202055501e-01  2.4467880610481679e-01  3.4271438392271214e-01  3.4999999999999998e-01  3.4999999999999998e-01  3.4999999999999998e-01  3.4999999999999998e-01  3.4999999999999998e-01  3.4999999999999998e-01  3.4999999999999998e-01  3.4999999999999998e-01  3.4999999999999998e-01  3.4999999999999998e-01  3.4999999999999998e-01  3.4999999999999998e-01  3.4999999999999998e-01  3.4999999999999998e-01  3.4999999999999998e-01  3.4999999999999998e-01  3.4999999999999998e-01  3.4999999999999998e-01  3.4999999999999998e-01  3.4999999999999998e-01  3.4999999999999998e-01  3.4999999999999998e-01  3.4999999999999998e-01  3.4999999999999998e-01  3.4999999999999998e-01  3.4999999999999998e-01  3.4999999999999998e-01  3.4999999999999998e-01  3.4999999999999998e-01  3.4999999999999998e-01  3.4999999999999998e-01  3.4999999999999998e-01  3.4999999999999998e-01  3.4999999999999998e-01  3.4999999999999998e-01  3.4999999999999998e-01  3.4999999999999998e-01  3.4999999999999998e-01  3.4999999999999998e-01  3.4999999999999998e-01  3.4999999999999998e-01  3.4999999999999998e-01  3.4999999999999998e-01  3.4999999999999998e-01  3.4999999999999998e-01  3.4999999999999998e-01  3.4999999999999998e-01  3.4999999999999998e-01  3.4999999999999998e-01  3.4999999999999998e-01  3.4999999999999998e-01  3.4999999999999998e-01  3.4999999999999998e-01  3.4999999999999998e-01  3.4999999999999998e-01  3.4983866513637546e-01  3.4947174072451020e-01  3.4910306436876509e-01  3.4873273793758391e-01  3.4836086114522513e-01  3.4798753634712759e-01  3.4761286457392709e-01  3.4723695048976133e-01  3.4685989762085567e-01  3.4648181301871833e-01  3.4610280443196095e-01  3.4572298323263340e-01  3.4534246081969927e-01  3.4496135248963650e-01  3.4457977354086317e-01  3.4419784332913878e-01  3.4381568053162986e-01  3.4343340712913795e-01  3.4305114524269348e-01  3.4266901974972103e-01  3.4228715396969273e-01  3.4190567376733599e-01  3.4152470279614267e-01  3.4114436682307336e-01  3.4076478825974410e-01  3.4038609022278554e-01  3.4000839310445802e-01  3.3963181698882522e-01  3.3925647759052957e-01  3.3888248967582263e-01  3.3850996283968660e-01  3.3813900519624901e-01  3.3776971844659920e-01  3.3740220160893836e-01  3.3703654774485697e-01  3.3667284644322865e-01  3.3631117951166761e-01  3.3595162502872189e-01  3.3559425270131898e-01  3.3523912821766616e-01  3.3488630800113744e-01  3.3453584337819647e-01  3.3418777741371630e-01  3.3384214753977720e-01  3.3349898183013671e-01  3.3315830268968422e-01  3.3282012304112946e-01  3.3248445033059931e-01  3.3215128208540068e-01  3.3182061000586377e-01  3.3149241719811384e-01  3.3116668109613429e-01  3.3084336971295758e-01  3.3052244614676834e-01  3.3020386455256429e-01  3.2988757495994653e-01  3.2957351869133622e-01  3.2926163300641231e-01  3.2895184856632137e-01  3.2864409257918209e-01  3.2833828569172246e-01  3.2803434616531707e-01  3.2773218666393711e-01  3.2743171869183213e-01  3.2713284872586029e-01  3.2683548267134371e-01  3.2653952356185534e-01  3.2624487479565101e-01  3.2595143678071520e-01  3.2565911162504857e-01  3.2536779941009236e-01  3.2507740306916183e-01  3.2478782401580814e-01  3.2449896674239176e-01  3.2421073630875280e-01  3.2392304137146249e-01  3.2363579099989714e-01  3.2334889861255445e-01  3.2306227858521314e-01  3.2277585032063077e-01  3.2248953418177423e-01  3.2220325547088641e-01  3.2191694184688457e-01  3.2163052601560010e-01  3.2134394212678075e-01  3.2105712983513052e-01  3.2077003029343193e-01  3.2048259037855092e-01  3.2019475804243602e-01  3.1990648636429880e-01  3.1961773065637039e-01  3.1932845104186597e-01  3.1903860881104096e-01  3.1874817008711054e-01  3.1845710203627486e-01  3.1816537664736333e-01  3.1787296634596196e-01  3.1757984762139879e-01  3.1728599842122907e-01  3.1699140039209178e-01  3.1669603539569624e-01  3.1639988902147148e-01  3.1610294687857216e-01  3.1580519836040666e-01  3.1550663219988845e-01  3.1520724024355945e-01  3.1490701465151549e-01  3.1460595041776429e-01  3.1430404167200005e-01  3.1400128544925582e-01  3.1369767780151642e-01  3.1339321777573942e-01  3.1308790296575784e-01  3.1278173325833758e-01  3.1247470817226786e-01  3.1216682925486461e-01  3.1185809680089194e-01  3.1154851318874560e-01  3.1123807948184934e-01  3.1092679899111492e-01  3.1061467326994202e-01  3.1030170568344823e-01  3.0998789880953159e-01  3.0967325692613140e-01  3.0935778249883056e-01  3.0904147995686704e-01  3.0872435192679937e-01  3.0840640318610485e-01  3.0808763638114889e-01  3.0776805577480248e-01  3.0744766466904150e-01  3.0712646781261044e-01  3.0680446828039670e-01  3.0648167072590915e-01  3.0615807817917301e-01  3.0583369546733535e-01  3.0550852544887347e-01  3.0518257244541619e-01  3.0485583981132464e-01  3.0452833231384735e-01  3.0420005282705564e-01  3.0387100594380678e-01  3.0354119442539823e-01  3.0321062297390361e-01  3.0287929417999732e-01  3.0254721211217972e-01  3.0221437987472627e-01  3.0188080191805478e-01  3.0154648108197551e-01  3.0121142169327192e-01  3.0087562654310129e-01  3.0053910013379104e-01  3.0020184512454567e-01  2.9986386558748607e-01  2.9952516471038054e-01  2.9918574705533246e-01  2.9884561544267213e-01  2.9850477435476663e-01  2.9816322660272632e-01  2.9782097687202053e-01  2.9747802791957834e-01  2.9713438395256159e-01  2.9679004832590739e-01  2.9644502572249631e-01  2.9609931937192235e-01  2.9575293395623931e-01  2.9540587278244845e-01  2.9505814081571496e-01  2.9470974136215750e-01  2.9436067911145958e-01  2.9401095798679544e-01  2.9366058325495337e-01  2.9330955862293484e-01  2.9295788939719114e-01  2.9260557939535869e-01  2.9225263422651748e-01  2.9189905777116132e-01  2.9154485531312979e-01  2.9119003139679539e-01  2.9083459185250465e-01  2.9047854122014288e-01  2.9012188542696532e-01  2.8976462918910556e-01  2.8940677879019944e-01  2.8904833905160521e-01  2.8868931611361204e-01  2.8832971547251951e-01  2.8796954389955476e-01  2.8760880680967993e-01  2.8724751111889213e-01  2.8688566244481672e-01  2.8652326807324080e-01  2.8616033376059552e-01  2.8579686660905756e-01  2.8543287306677423e-01  2.8506836081762088e-01  2.8470333638450235e-01  2.8433780762564292e-01  2.8397178132702761e-01  2.8360526574415063e-01  2.8323826785895567e-01  2.8287079587580777e-01  2.8250285749942877e-01  2.8213446158294264e-01  2.8176561587974996e-01  2.8139632945065823e-01  2.8102661033173049e-01  2.8065646801600386e-01  2.8028591074353731e-01  2.7991494795718186e-01  2.7954358861094142e-01  2.7917184279674662e-01  2.7879971957065608e-01  2.7842722924604257e-01  2.7805438119318654e-01  2.7768118618306925e-01  2.7730765385199996e-01  2.7693379498209930e-01  2.7655961993813788e-01  2.7618514015730872e-01  2.7581036621775651e-01  2.7543530983107395e-01  2.7505998192231851e-01  2.7468439468617079e-01  2.7430855936006165e-01  2.7393248826866190e-01  2.7355619336385528e-01  2.7317968764333428e-01  2.7280298326098501e-01  2.7242609351675479e-01  2.7204903094491040e-01  2.7167180933047452e-01  2.7129444155472665e-01  2.7091694154518126e-01  2.7053932291016880e-01  2.7016160023197827e-01  2.6978378744513282e-01  2.6940589947589716e-01  2.6902795068735097e-01  2.6864995652102075e-01  2.6827193172369695e-01  2.6789389199933561e-01  2.6751585281821477e-01  2.6713783056543983e-01  2.6675984101936462e-01  2.6638190093894620e-01  2.6600402655445138e-01  2.6562623514617079e-01  2.6524854335767684e-01  2.6487096874629301e-01  2.6449352867485104e-01  2.6411624135782030e-01  2.6373912457138549e-01  2.6336219692636409e-01  2.6298547668443195e-01  2.6260898298858476e-01  2.6223273454371032e-01  2.6185675085841043e-01  2.6148105133658683e-01  2.6110565614139497e-01  2.6073058507636254e-01  2.6035585871328737e-01  2.5998149734072656e-01  2.5960752204591919e-01  2.5923395355868001e-01  2.5886081333877542e-01  2.5848812276598021e-01  2.5811590389923922e-01  2.5774417855448706e-01  2.5737296917083297e-01  2.5700229802836150e-01  2.5663218803085708e-01  2.5626266187465158e-01  2.5589374284315913e-01  2.5552545419696260e-01  2.5515781973034390e-01  2.5479086307593768e-01  2.5442460834086444e-01  2.5405907953757734e-01  2.5369430113094388e-01  2.5333029744520025e-01  2.5296709324825345e-01  2.5260471325981926e-01  2.5224318259097028e-01  2.5188252621544471e-01  2.5152276938682377e-01  2.5116393729396724e-01  2.5080605534485095e-01  2.5044914886872111e-01  2.5009324340801209e-01  2.4973836444392375e-01  2.4938453760740009e-01  2.4903178841856702e-01  2.4868014240966993e-01  2.4832962503970665e-01  2.4798026169801887e-01  2.4763207766251666e-01  2.4728509816647221e-01  2.4693934823863897e-01  2.4659485279092427e-01  2.4625163655433618e-01  2.4590972394252189e-01  2.4556913923165941e-01  2.4522990625210034e-01  2.4489204873625808e-01  2.4455559001787242e-01  2.4422055313275695e-01  2.4388696066153151e-01  2.4355483493295035e-01  2.4322419764240752e-01  2.4289507024447501e-01  2.4256747344032620e-01  2.4224142772297722e-0