<?xml version="1.0"?>
<VTKFile type="UnstructuredGrid"  version="0.1"  >
<UnstructuredGrid>
<Piece  NumberOfPoints="28121" NumberOfCells="55200">
<Points>
<DataArray  type="Float64"  NumberOfComponents="3"  format="ascii">0 0 0  0.008260869565217391 0 0  0.01652173913043478 0 0  0.02478260869565217 0 0  0.03304347826086956 0 0  0.04130434782608695 0 0  0.04956521739130434 0 0  0.05782608695652174 0 0  0.06608695652173913 0 0  0.07434782608695652 0 0  0.08260869565217391 0 0  0.0908695652173913 0 0  0.09913043478260869 0 0  0.1073913043478261 0 0  0.1156521739130435 0 0  0.1239130434782609 0 0  0.1321739130434783 0 0  0.1404347826086956 0 0  0.148695652173913 0 0  0.1569565217391304 0 0  0.1652173913043478 0 0  0.1734782608695652 0 0  0.1817391304347826 0 0  0.19 0 0  0.1982608695652174 0 0  0.2065217391304348 0 0  0.2147826086956522 0 0  0.2230434782608696 0 0  0.2313043478260869 0 0  0.2395652173913043 0 0  0.2478260869565218 0 0  0.2560869565217391 0 0  0.2643478260869565 0 0  0.2726086956521739 0 0  0.2808695652173913 0 0  0.2891304347826087 0 0  0.2973913043478261 0 0  0.3056521739130434 0 0  0.3139130434782609 0 0  0.3221739130434783 0 0  0.3304347826086956 0 0  0.338695652173913 0 0  0.3469565217391304 0 0  0.3552173913043478 0 0  0.3634782608695652 0 0  0.3717391304347826 0 0  0.3799999999999999 0 0  0.3882608695652174 0 0  0.3965217391304348 0 0  0.4047826086956521 0 0  0.4130434782608696 0 0  0.4213043478260869 0 0  0.4295652173913043 0 0  0.4378260869565217 0 0  0.4460869565217391 0 0  0.4543478260869565 0 0  0.4626086956521739 0 0  0.4708695652173913 0 0  0.4791304347826086 0 0  0.4873913043478261 0 0  0.4956521739130435 0 0  0.5039130434782608 0 0  0.5121739130434783 0 0  0.5204347826086956 0 0  0.528695652173913 0 0  0.5369565217391304 0 0  0.5452173913043478 0 0  0.5534782608695652 0 0  0.5617391304347825 0 0  0.57 0 0  0.5782608695652174 0 0  0.5865217391304348 0 0  0.5947826086956521 0 0  0.6030434782608696 0 0  0.6113043478260869 0 0  0.6195652173913043 0 0  0.6278260869565218 0 0  0.6360869565217391 0 0  0.6443478260869565 0 0  0.6526086956521739 0 0  0.6608695652173913 0 0  0.6691304347826087 0 0  0.677391304347826 0 0  0.6856521739130435 0 0  0.6939130434782609 0 0  0.7021739130434783 0 0  0.7104347826086956 0 0  0.718695652173913 0 0  0.7269565217391304 0 0  0.7352173913043478 0 0  0.7434782608695653 0 0  0.7517391304347827 0 0  0.7599999999999999 0 0  0.7682608695652173 0 0  0.7765217391304348 0 0  0.7847826086956522 0 0  0.7930434782608695 0 0  0.8013043478260868 0 0  0.8095652173913043 0 0  0.8178260869565217 0 0  0.8260869565217391 0 0  0.8343478260869565 0 0  0.8426086956521739 0 0  0.8508695652173912 0 0  0.8591304347826086 0 0  0.8673913043478261 0 0  0.8756521739130434 0 0  0.8839130434782608 0 0  0.8921739130434783 0 0  0.9004347826086956 0 0  0.908695652173913 0 0  0.9169565217391303 0 0  0.9252173913043478 0 0  0.9334782608695652 0 0  0.9417391304347826 0 0  0.95 0 0  0.9582608695652173 0 0  0.9665217391304347 0 0  0.9747826086956521 0 0  0.9830434782608696 0 0  0.991304347826087 0 0  0.9995652173913042 0 0  1.007826086956522 0 0  1.016086956521739 0 0  1.024347826086957 0 0  1.032608695652174 0 0  1.040869565217391 0 0  1.049130434782609 0 0  1.057391304347826 0 0  1.065652173913043 0 0  1.073913043478261 0 0  1.082173913043478 0 0  1.090434782608696 0 0  1.098695652173913 0 0  1.10695652173913 0 0  1.115217391304348 0 0  1.123478260869565 0 0  1.131739130434783 0 0  1.14 0 0  1.148260869565217 0 0  1.156521739130435 0 0  1.164782608695652 0 0  1.17304347826087 0 0  1.181304347826087 0 0  1.189565217391304 0 0  1.197826086956522 0 0  1.206086956521739 0 0  1.214347826086956 0 0  1.222608695652174 0 0  1.230869565217391 0 0  1.239130434782609 0 0  1.247391304347826 0 0  1.255652173913044 0 0  1.263913043478261 0 0  1.272173913043478 0 0  1.280434782608696 0 0  1.288695652173913 0 0  1.296956521739131 0 0  1.305217391304348 0 0  1.313478260869565 0 0  1.321739130434783 0 0  1.33 0 0  1.338260869565217 0 0  1.346521739130435 0 0  1.354782608695652 0 0  1.36304347826087 0 0  1.371304347826087 0 0  1.379565217391304 0 0  1.387826086956522 0 0  1.396086956521739 0 0  1.404347826086957 0 0  1.412608695652174 0 0  1.420869565217391 0 0  1.429130434782609 0 0  1.437391304347826 0 0  1.445652173913043 0 0  1.453913043478261 0 0  1.462173913043478 0 0  1.470434782608696 0 0  1.478695652173913 0 0  1.486956521739131 0 0  1.495217391304348 0 0  1.503478260869565 0 0  1.511739130434782 0 0  1.52 0 0  1.528260869565217 0 0  1.536521739130435 0 0  1.544782608695652 0 0  1.55304347826087 0 0  1.561304347826087 0 0  1.569565217391304 0 0  1.577826086956522 0 0  1.586086956521739 0 0  1.594347826086957 0 0  1.602608695652174 0 0  1.610869565217391 0 0  1.619130434782609 0 0  1.627391304347826 0 0  1.635652173913043 0 0  1.643913043478261 0 0  1.652173913043478 0 0  1.660434782608696 0 0  1.668695652173913 0 0  1.67695652173913 0 0  1.685217391304348 0 0  1.693478260869565 0 0  1.701739130434782 0 0  1.71 0 0  1.718260869565217 0 0  1.726521739130435 0 0  1.734782608695652 0 0  1.743043478260869 0 0  1.751304347826087 0 0  1.759565217391304 0 0  1.767826086956522 0 0  1.776086956521739 0 0  1.784347826086957 0 0  1.792608695652174 0 0  1.800869565217391 0 0  1.809130434782608 0 0  1.817391304347826 0 0  1.825652173913043 0 0  1.833913043478261 0 0  1.842173913043478 0 0  1.850434782608696 0 0  1.858695652173913 0 0  1.86695652173913 0 0  1.875217391304348 0 0  1.883478260869565 0 0  1.891739130434782 0 0  1.9 0 0  1.908260869565217 0 0  1.916521739130435 0 0  1.924782608695652 0 0  1.933043478260869 0 0  1.941304347826087 0 0  1.949565217391304 0 0  1.957826086956522 0 0  1.966086956521739 0 0  1.974347826086956 0 0  1.982608695652174 0 0  1.990869565217391 0 0  1.999130434782608 0 0  2.007391304347826 0 0  2.015652173913043 0 0  2.023913043478261 0 0  2.032173913043478 0 0  2.040434782608695 0 0  2.048695652173913 0 0  2.05695652173913 0 0  2.065217391304348 0 0  2.073478260869565 0 0  2.081739130434782 0 0  2.09 0 0  2.098260869565217 0 0  2.106521739130435 0 0  2.114782608695652 0 0  2.12304347826087 0 0  2.131304347826087 0 0  2.139565217391304 0 0  2.147826086956522 0 0  2.156086956521739 0 0  2.164347826086956 0 0  2.172608695652174 0 0  2.180869565217391 0 0  2.189130434782609 0 0  2.197391304347826 0 0  2.205652173913043 0 0  2.213913043478261 0 0  2.222173913043478 0 0  2.230434782608695 0 0  2.238695652173913 0 0  2.24695652173913 0 0  2.255217391304348 0 0  2.263478260869565 0 0  2.271739130434783 0 0  2.28 0 0  2.288260869565217 0 0  2.296521739130434 0 0  2.304782608695652 0 0  2.31304347826087 0 0  2.321304347826087 0 0  2.329565217391304 0 0  2.337826086956521 0 0  2.346086956521739 0 0  2.354347826086956 0 0  2.362608695652174 0 0  2.370869565217391 0 0  2.379130434782609 0 0  2.387391304347826 0 0  2.395652173913044 0 0  2.403913043478261 0 0  2.412173913043478 0 0  2.420434782608695 0 0  2.428695652173913 0 0  2.43695652173913 0 0  2.445217391304348 0 0  2.453478260869565 0 0  2.461739130434782 0 0  2.47 0 0  2.478260869565217 0 0  2.486521739130435 0 0  2.494782608695652 0 0  2.503043478260869 0 0  2.511304347826087 0 0  2.519565217391305 0 0  2.527826086956522 0 0  2.536086956521739 0 0  2.544347826086956 0 0  2.552608695652174 0 0  2.560869565217391 0 0  2.569130434782608 0 0  2.577391304347826 0 0  2.585652173913043 0 0  2.593913043478261 0 0  2.602173913043478 0 0  2.610434782608696 0 0  2.618695652173913 0 0  2.62695652173913 0 0  2.635217391304348 0 0  2.643478260869565 0 0  2.651739130434783 0 0  2.66 0 0  2.668260869565217 0 0  2.676521739130435 0 0  2.684782608695652 0 0  2.693043478260869 0 0  2.701304347826087 0 0  2.709565217391304 0 0  2.717826086956522 0 0  2.726086956521739 0 0  2.734347826086956 0 0  2.742608695652174 0 0  2.750869565217391 0 0  2.759130434782609 0 0  2.767391304347826 0 0  2.775652173913044 0 0  2.783913043478261 0 0  2.792173913043478 0 0  2.800434782608696 0 0  2.808695652173913 0 0  2.81695652173913 0 0  2.825217391304347 0 0  2.833478260869565 0 0  2.841739130434783 0 0  2.85 0 0  2.858260869565217 0 0  2.866521739130435 0 0  2.874782608695652 0 0  2.88304347826087 0 0  2.891304347826087 0 0  2.899565217391304 0 0  2.907826086956522 0 0  2.916086956521739 0 0  2.924347826086957 0 0  2.932608695652174 0 0  2.940869565217391 0 0  2.949130434782608 0 0  2.957391304347826 0 0  2.965652173913043 0 0  2.973913043478261 0 0  2.982173913043478 0 0  2.990434782608696 0 0  2.998695652173913 0 0  3.006956521739131 0 0  3.015217391304348 0 0  3.023478260869565 0 0  3.031739130434782 0 0  3.04 0 0  3.048260869565218 0 0  3.056521739130435 0 0  3.064782608695652 0 0  3.073043478260869 0 0  3.081304347826087 0 0  3.089565217391304 0 0  3.097826086956522 0 0  3.106086956521739 0 0  3.114347826086956 0 0  3.122608695652174 0 0  3.130869565217391 0 0  3.139130434782609 0 0  3.147391304347826 0 0  3.155652173913043 0 0  3.163913043478261 0 0  3.172173913043478 0 0  3.180434782608696 0 0  3.188695652173913 0 0  3.19695652173913 0 0  3.205217391304347 0 0  3.213478260869565 0 0  3.221739130434782 0 0  3.23 0 0  3.238260869565217 0 0  3.246521739130435 0 0  3.254782608695652 0 0  3.26304347826087 0 0  3.271304347826087 0 0  3.279565217391304 0 0  3.287826086956521 0 0  3.296086956521739 0 0  3.304347826086957 0 0  3.312608695652174 0 0  3.320869565217391 0 0  3.329130434782608 0 0  3.337391304347826 0 0  3.345652173913043 0 0  3.353913043478261 0 0  3.362173913043478 0 0  3.370434782608696 0 0  3.378695652173913 0 0  3.386956521739131 0 0  3.395217391304348 0 0  3.403478260869565 0 0  3.411739130434782 0 0  3.419999999999999 0 0  3.428260869565217 0 0  3.436521739130435 0 0  3.444782608695652 0 0  3.453043478260869 0 0  3.461304347826087 0 0  3.469565217391304 0 0  3.477826086956522 0 0  3.486086956521739 0 0  3.494347826086956 0 0  3.502608695652174 0 0  3.510869565217391 0 0  3.519130434782609 0 0  3.527391304347826 0 0  3.535652173913043 0 0  3.54391304347826
[...]
<PointData  Scalars="rho_bar"> 
<DataArray  type="Float64"  Name="rho_bar"  format="ascii">8.3645878933417483e-01  8.3562392107287153e-01  8.3481884176782128e-01  8.3380825950004922e-01  8.3252753988617323e-01  8.3096091553136198e-01  8.2911213374555115e-01  8.2699611560208353e-01  8.2463659879428708e-01  8.2206456233601011e-01  8.1931708330601660e-01  8.1643577661003608e-01  8.1346539474068746e-01  8.1045244591793431e-01  8.0744453249527715e-01  8.0448957903363083e-01  8.0163566548546628e-01  7.9893038841709163e-01  7.9642040741899012e-01  7.9415027987824305e-01  7.9216126580905788e-01  7.9048899719817489e-01  7.8916149010149095e-01  7.8819690124126685e-01  7.8760323770842855e-01  7.8737920690878183e-01  7.8751666116788022e-01  7.8800273430288792e-01  7.8882139439414833e-01  7.8995310705126032e-01  7.9137439504434970e-01  7.9305697597249125e-01  7.9496854935248273e-01  7.9707394979373192e-01  7.9933675361486156e-01  8.0171941675814085e-01  8.0418238702294476e-01  8.0668168238089255e-01  8.0916717205586197e-01  8.1158105949858816e-01  8.1385843686229431e-01  8.1592871064346650e-01  8.1771823657675025e-01  8.1915266426650113e-01  8.2015961780583502e-01  8.2067102377314982e-01  8.2062674004299430e-01  8.1997852756753187e-01  8.1869568423253380e-01  8.1677057971664713e-01  8.1422379050097049e-01  8.1110674146778772e-01  8.0750153480815356e-01  8.0351215532820019e-01  7.9924209752731090e-01  7.9478657054916013e-01  7.9023459272077179e-01  7.8567107918483114e-01  7.8117501873665407e-01  7.7681600247166405e-01  7.7265282753875619e-01  7.6873260231372353e-01  7.6509058792300588e-01  7.6174925701783891e-01  7.5871848941343201e-01  7.5599628007121156e-01  7.5357136232254440e-01  7.5142641977267977e-01  7.4954136268264437e-01  7.4789473878866120e-01  7.4646464592700834e-01  7.4522854250715809e-01  7.4416367561851671e-01  7.4324717090296799e-01  7.4245665996074284e-01  7.4177056398378438e-01  7.4116884320402932e-01  7.4063312170457940e-01  7.4014734008651506e-01  7.3969748455312523e-01  7.3927173811779590e-01  7.3886001380429689e-01  7.3845403715393554e-01  7.3804713667876387e-01  7.3763432926137029e-01  7.3721174433121206e-01  7.3677655107734952e-01  7.3632626768072140e-01  7.3585877719164239e-01  7.3537199690228772e-01  7.3486405455234638e-01  7.3433316872960608e-01  7.3377807037783815e-01  7.3319793595379967e-01  7.3259302709042884e-01  7.3196462175336685e-01  7.3131555279660021e-01  7.3065007536172866e-01  7.2997395637293994e-01  7.2929393010180821e-01  7.2861731148722153e-01  7.2795087597399688e-01  7.2730018501671412e-01  7.2666834253501578e-01  7.2605585280000196e-01  7.2546094943178363e-01  7.2488131766988972e-01  7.2431565872200820e-01  7.2376498778989684e-01  7.2323238129456868e-01  7.2272266075942104e-01  7.2224105525726701e-01  7.2179254087949540e-01  7.2138084954494108e-01  7.2100818979329595e-01  7.2067489018970698e-01  7.2037975272236021e-01  7.2012012213168464e-01  7.1989258808636269e-01  7.1969290677317932e-01  7.1951648532345802e-01  7.1935884613092083e-01  7.1921726976717992e-01  7.1909209200709157e-01  7.1898678166697860e-01  7.1890471120824884e-01  7.1884562601580027e-01  7.1880330861895458e-01  7.1876629609482434e-01  7.1871952508183401e-01  7.1864678450412878e-01  7.1853241619379549e-01  7.1836270979553274e-01  7.1812604845147487e-01  7.1781316071274315e-01  7.1741657855365581e-01  7.1693074917091826e-01  7.1635173508390870e-01  7.1567734434474273e-01  7.1490687636577011e-01  7.1404132405714293e-01  7.1308306110036435e-01  7.1203622584542225e-01  7.1090649813734474e-01  7.0970169174680664e-01  7.0843198054015799e-01  7.0711057562108104e-01  7.0575361038297679e-01  7.0437939108169112e-01  7.0300577393392316e-01  7.0164790009000733e-01  7.0031645734777259e-01  6.9901793959648884e-01  6.9775521968162846e-01  6.9652877165327420e-01  6.9533740660603138e-01  6.9417917987217970e-01  6.9305152417885385e-01  6.9195181122979377e-01  6.9087717009227878e-01  6.8982493080926655e-01  6.8879258348266426e-01  6.8777816259967017e-01  6.8678024587181119e-01  6.8579841963612487e-01  6.8483317005318189e-01  6.8388622446317737e-01  6.8295986533958508e-01  6.8205658246978917e-01  6.8117813714195241e-01  6.8032524277224760e-01  6.7949718964361261e-01  6.7869218621970795e-01  6.7790739694906577e-01  6.7713959775095656e-01  6.7638508131733821e-01  6.7563995371317609e-01  6.7489985727134871e-01  6.7416058074971952e-01  6.7341941347742329e-01  6.7267736330883365e-01  6.7193937630040468e-01  6.7121304261394465e-01  6.7050568001936506e-01  6.6982287629094261e-01  6.6916772163040172e-01  6.6854126931458879e-01  6.6794292424302482e-01  6.6737124248197044e-01  6.6682407426727675e-01  6.6629901101160183e-01  6.6579283740933326e-01  6.6530117669112099e-01  6.6481737042043987e-01  6.6433164777249554e-01  6.6382997150838330e-01  6.6329368322754767e-01  6.6269943949489285e-01  6.6202124120178396e-01  6.6123357710308672e-01  6.6031661442322043e-01  6.5926135287731180e-01  6.5807433694220774e-01  6.5677813397615337e-01  6.5540591884424348e-01  6.5399395597177379e-01  6.5257944435724236e-01  6.5119927514981502e-01  6.4988576537772058e-01  6.4866053533696777e-01  6.4753301250143691e-01  6.4650221023308052e-01  6.4556028646548236e-01  6.4469533350517394e-01  6.4389394667410316e-01  6.4314217168117382e-01  6.4242629744094037e-01  6.4173262625229932e-01  6.4104745425062915e-01  6.4035665817556153e-01  6.3964582870511399e-01  6.3890016534536154e-01  6.3810524197164775e-01  6.3724758146463856e-01  6.3631656899159950e-01  6.3530716893977957e-01  6.3422479960059286e-01  6.3309101605387197e-01  6.3194500718584490e-01  6.3083090258681151e-01  6.2978042978085191e-01  6.2880670469661470e-01  6.2790690820568229e-01  6.2706720839749075e-01  6.2626793212290777e-01  6.2548705136891403e-01  6.2470271907860397e-01  6.2389460578158451e-01  6.2304616192624007e-01  6.2214789573275842e-01  6.2120122533357980e-01  6.2021485532156650e-01  6.1919683420273186e-01  6.1815225023161369e-01  6.1708392489708708e-01  6.1599272186315845e-01  6.1487806118264965e-01  6.1373750008048000e-01  6.1256697143379935e-01  6.1136106825560721e-01  6.1011522962404818e-01  6.0883144724787064e-01  6.0753194433309765e-01  6.0625474139768754e-01  6.0499324220732653e-01  6.0373334315046834e-01  6.0247164617670024e-01  6.0121050737815629e-01  5.9995374470296103e-01  5.9870228970223172e-01  5.9745374585766542e-01  5.9620505544920399e-01  5.9495309617430381e-01  5.9369374700186683e-01  5.9242164581039325e-01  5.9112966927532762e-01  5.8980898994469855e-01  5.8844901342571565e-01  5.8703819691180381e-01  5.8556533778761699e-01  5.8402367556487500e-01  5.8241683477602935e-01  5.8075498829531491e-01  5.7904103170729171e-01  5.7727341175331359e-01  5.7545536403227981e-01  5.7361045744598194e-01  5.7178790404905155e-01  5.7002008606148535e-01  5.6831885834939999e-01  5.6668777023423300e-01  5.6512846722821308e-01  5.6364369099696177e-01  5.6223800933205303e-01  5.6091783825474639e-01  5.5969038075292554e-01  5.5856213449317260e-01  5.5753178581751783e-01  5.5657095429008818e-01  5.5561740313143970e-01  5.5464434094256132e-01  5.5365694373813668e-01  5.5265561369519878e-01  5.5160016875235041e-01  5.5042709549880720e-01  5.4911056031096062e-01  5.4766444300999362e-01  5.4613826593136794e-01  5.4459960304982824e-01  5.4308417916274321e-01  5.4158472136122437e-01  5.4007448931614876e-01  5.3854016597499466e-01  5.3698736895656374e-01  5.3543465851624505e-01  5.3390516482423511e-01  5.3242062100012222e-01  5.3099696197623236e-01  5.2964264552984142e-01  5.2836290082471349e-01  5.2716727063616886e-01  5.2607221144420557e-01  5.2510061707970868e-01  5.2427803955974439e-01  5.2362475842625000e-01  5.2313840645675458e-01  5.2277649186951103e-01  5.2248485201721240e-01  5.2222052831391563e-01  5.2195184259176486e-01  5.2166017688937394e-01  5.2133189127873092e-01  5.2095046403653922e-01  5.2049244701099684e-01  5.1991962360809896e-01  5.1917093401634751e-01  5.1819073968810425e-01  5.1692839775228394e-01  5.1534963189885941e-01  5.1345785929520538e-01  5.1128141215860445e-01  5.0884617197355753e-01  5.0616630651673500e-01  5.0325724323637799e-01  5.0017014887059741e-01  4.9702928883463987e-01  4.9401012456271443e-01  4.9124786220351552e-01  4.8878430592158417e-01  4.8658103109894474e-01  4.8455138945219228e-01  4.8259249658145742e-01  4.8061606241151111e-01  4.7857886789696341e-01  4.7651573165487493e-01  4.7455438159780389e-01  4.7287884377170758e-01  4.7161709251193940e-01  4.7068496788393849e-01  4.6988688440341658e-01  4.6901393794274432e-01  4.6788075694159914e-01  4.6633518365997284e-01  4.6425846325520820e-01  4.6156535480596933e-01  4.5820998786161249e-01  4.5420475079107409e-01  4.4963488857558376e-01  4.4461610291732179e-01  4.3923349394469668e-01  4.3357115670036733e-01  4.2779179843055087e-01  4.2210389195972653e-01  4.1663207052697482e-01  4.1144664380976559e-01  4.0653392575402514e-01  4.0182835674038569e-01  3.9724960992412350e-01  3.9271790764653630e-01  3.8815981474283723e-01  3.8351078261241001e-01  3.7871623636768942e-01  3.7373280184938107e-01  3.6852994049217391e-01  3.6309357624592631e-01  3.5743247324155381e-01  3.5158670216321258e-01  3.4562770654800729e-01  3.3963122793183426e-01  3.3363187682265033e-01  3.2762252358478350e-01  3.2156603998566824e-01  3.1540029131728886e-01  3.0903482016045658e-01  3.0234580356635882e-01  2.9518363469796122e-01  2.8738470010474970e-01  2.7877972454946603e-01  2.6921092042673600e-01  2.5855991694286762e-01  2.4677424535297179e-01  2.3384970257507534e-01  2.1987996276334912e-01  2.0523669961597893e-01  1.9048338372013804e-01  1.7605399248577083e-01  1.6220913559683631e-01  1.4909114378136024e-01  1.3676332434540911e-01  1.2523960606996082e-01  1.1450482866129012e-01  1.0452653092579886e-01  9.5262980641733996e-02  8.6669052443183167e-02  7.8700053751813909e-02  7.1314059151452211e-02  6.4473365570116112e-02  5.8145031770170288e-02  5.2300666751463123e-02  4.6915613437456490e-02  4.1967942828508041e-02  3.7437431972872970e-02  3.3304632852255038e-02  2.9550102810011924e-02  2.6153846907278098e-02  2.3094992239348387e-02  2.0351741554801132e-02  1.7901508964046194e-02  1.5721246736631264e-02  1.3787830360154584e-02  1.2078490091773926e-02  1.0571192352370810e-02  9.2449749743399572e-03  8.0801913205382648e-03  7.0586750666236531e-03  6.1638181342470967e-03  5.3805913720680462e-03  4.6955050002977505e-03  4.0965353216511095e-03  3.5730259367714600e-03  3.1155706192365668e-03  2.7159009070125781e-03  2.3667608762256678e-03  2.0618003948955593e-03  1.7954646931278033e-03  1.5629003970313443e-03  1.3598674154170092e-03  1.1826632335096001e-03  1.0280529479968486e-03  8.9321092612773035e-04  7.7566707570573634e-04  6.7326330881583836e-04  5.8411227159875132e-04  5.0656426648281480e-04  4.3917663015922905e-04  3.8068929743027157e-04  3.3000140359555136e-04  2.8615277999804041e-04  2.4830670563792228e-04  2.1573623204849566e-04  1.8781114714484413e-04  1.6398730588369415e-04  1.4379747518030529e-04  1.2684347344459179e-04  1.1278966441680610e-04  1.0135694119526604e-04  9.2319380855598423e-05  8.5501665905840974e-05  8.0782076083266559e-05  7.8109269087695126e-05  7.7580283005013466e-05  8.3192749080200135e-01  8.3156570698111054e-01  8.3086711179896378e-01  8.2987115064724748e-01  8.2857478458512424e-01  8.2697761462867403e-01  8.2508768486220208e-01  8.2292190674467192e-01  8.2050521322176817e-01  8.1786994902403165e-01  8.1505458233005601e-01  8.1210228717982913e-01  8.0905918186965775e-01  8.0597311073611533e-01  8.0289266440927543e-01  7.9986689189244420e-01  7.9694475973731815e-01  7.9417494806139088e-01  7.9160508794082018e-01  7.8928105931017811e-01  7.8724532125058766e-01  7.8553506987229116e-01  7.8417929547281828e-01  7.8319682542754721e-01  7.8259532162119583e-01  7.8237275965936348e-01  7.8251994679367776e-01  7.8302350265407150e-01  7.8386708551619622e-01  7.8503140234190838e-01  7.8649271734741999e-01  7.8822236104885246e-01  7.9018694048487848e-01  7.9235031087593555e-01  7.9467521826182252e-01  7.9712403378033658e-01  7.9965716345246241e-01  8.0223082717153693e-01  8.0479432863843514e-01  8.0728898352275158e-01  8.0964810175265112e-01  8.1179912723727266e-01  8.1366620276699131e-01  8.1517304756991860e-01  8.1624510693940144e-01  8.1681233072652193e-01  8.1681208543653627e-01  8.1619381937478552e-01  8.1492439662431049e-01  8.1299455115115604e-01  8.1042421642443363e-01  8.0726582071387298e-01  8.0360279986808036e-01  7.9954079487652929e-01  7.9518744659735185e-01  7.9064145330303037e-01  7.8599338908442162e-01  7.8132937370174149e-01  7.7672995781149723e-01  7.7226658338875198e-01  7.6799973448821734e-01  7.6397870849706784e-01  7.6024067666478468e-01  7.5681010794761872e-01  7.5369798565175750e-01  7.5090278127629906e-01  7.4841272853713969e-01  7.4620990938948673e-01  7.4427351322963275e-01  7.4258180033128018e-01  7.4111227650861111e-01  7.3984202193578241e-01  7.3874756518492024e-01  7.3780545970149514e-01  7.3699257752670178e-01  7.3628684254874910e-01  7.3566749950485233e-01  7.3511586521656869e-01  7.3461534903377512e-01  7.3415184187029314e-01  7.3371321660475131e-01  7.3328924519984973e-01  7.3287132190957405e-01  7.3245271329467898e-01  7.3202822156401315e-01  7.3159410576761386e-01  7.3114737953827702e-01  7.3068568109361298e-01  7.3020673935474123e-01  7.2970847197033295e-01  7.2918880372118311e-01  7.2864595542820421e-01  7.2807837060793990e-01  7.2748525621913718e-01  7.2686658347817057e-01  7.2622370558627825e-01  7.2555932843022319e-01  7.2487787381527891e-01  7.2418520119151186e-01  7.2348844682019620e-01  7.2279517869941512e-01  7.2211277847729949e-01  7.2144709302134591e-01  7.2080163498730110e-01  7.2017671676493922e-01  7.1957017873297990e-01  7.1897902232036526e-01  7.1840174548985369e-01  7.1783924924447973e-01  7.1729508273931608e-01  7.1677432468668278e-01  7.1628278541079216e-01  7.1582568141548741e-01  7.1540708326752434e-01  7.1502924397067757e-01  7.1469262723679361e-01  7.1439584142321644e-01  7.1413630515671211e-01  7.1391042848073460e-01  7.1371409799277219e-01  7.1354241310811628e-01  7.1339041988813623e-01  7.1325460581933708e-01  7.1313521468345331e-01  7.1303627086912391e-01  7.1296238093945341e-01  7.1291355308580817e-01  7.1288334259677988e-01  7.1285929761916189e-01  7.1282544732981923e-01  7.1276462892727399e-01  7.1266070155621608e-01  7.1249950343735069e-01  7.1226944194934871e-01  7.1196103114755560e-01  7.1156688707578530e-01  7.1108128813345639e-01  7.1050032531308405e-01  7.0982168349238639e-01  7.0904478991083064e-01  7.0817052370234035e-01  7.0720147854506166e-01  7.0614169023547235e-01  7.0499704005547426e-01  7.0377523598200364e-01  7.0248653860278798e-01  7.0114417611548008e-01  6.9976486116628467e-01  6.9836768675807415e-01  6.9697170355465443e-01  6.9559252046270303e-01  6.9424112444085762e-01  6.9292376091576624e-01  6.9164314085063383e-01  6.9039941535259175e-01  6.8919134192480769e-01  6.8801673537511898e-01  6.8687312535270761e-01  6.8575767745026961e-01  6.8466760946822136e-01  6.8360006973501164e-01  6.8255255218979627e-01  6.8152290855336062e-01  6.8050975313336559e-01  6.7951246093187301e-01  6.7853169316564987e-01  6.7756916384702626e-01  6.7662757540770624e-01  6.7570959861634239e-01  6.7481728465362478e-01  6.7395131753569004e-01  6.7311102648681276e-01  6.7229432943834644e-01  6.7149836022429865e-01  6.7071961204924602e-01  6.6995448612953434e-01  6.6919903776189926e-01  6.6844892737855832e-01  6.6769938895236391e-01  6.6694718436784006e-01  6.6619297123305188e-01  6.6544238241396836e-01  6.6470370317804239e-01  6.6398499236833364e-01  6.6329190565694462e-01  6.6262753289739507e-01  6.6199264675786906e-01  6.6138657332039141e-01  6.6080759798393518e-01  6.6025366177856870e-01  6.5972226603484097e-01  6.5921052340166386e-01  6.5871424102428588e-01  6.5822716758316069e-01  6.5773974966671533e-01  6.5723829871021333e-01  6.5670399110895261e-01  6.5611317250208034e-01  6.5543863931753132e-01  6.5465356161788857e-01  6.5373637327214018e-01  6.5267672452324099e-01  6.5148066178417097e-01  6.5017238122395815e-01  6.4878706209786974e-01  6.4736173049239421e-01  6.4593345822581127e-01  6.4454044031921831e-01  6.4321667190815646e-01  6.4198443207975886e-01  6.4085255197274460e-01  6.3981929477460520e-01  6.3887587779955013e-01  6.3800999632305233e-01  6.3720778519739241e-01  6.3645535442067269e-01  6.3573892775012819e-01  6.3504498970750445e-01  6.3435984590364725e-01  6.3366956250615492e-01  6.3295965620153860e-01  6.3221552230208444e-01  6.3142264461424780e-01  6.3056767796614954e-01  6.2963967191687797e-01  6.2863294692716742e-01  6.2755143524737289e-01  6.2641581773686317e-01  6.2526722393580825e-01  6.2415392824456573e-01  6.2310878093525457e-01  6.2214433285137938e-01  6.2125633074157594e-01  6.2042983498657678e-01  6.1964433544418396e-01  6.1887765441517284e-01  6.1810789277072176e-01  6.1731496171086475e-01  6.1648186739491373e-01  6.1559817135930084e-01  6.1466452328759758e-01  6.1369042445225153e-01  6.1268398434471150e-01  6.1165027672943773e-01  6.1059203098589365e-01  6.0951055885328975e-01  6.0840563496375599e-01  6.0727566191274984e-01  6.0611736606643174e-01  6.0492656257685307e-01  6.0369989655502609e-01  6.0243962122218764e-01  6.0116124809602667e-01  5.9989283884953370e-01  5.9863660387078732e-01  5.9738086677393598e-01  5.9612247872751634e-01  5.9486387136111030e-01  5.9360865383031070e-01  5.9235825416779497e-01  5.9111031674828385e-01  5.8986196218405251e-01  5.8861008832972872e-01  5.8735091271551365e-01  5.8607919797144514e-01  5.8478818747719741e-01  5.8346934684209140e-01  5.8211271764686512e-01  5.8070732318368734e-01  5.7924289515863758e-01  5.7771265909342806e-01  5.7611865626568881e-01  5.7447114011536915e-01  5.7277476685685103e-01  5.7102981970209077e-01  5.6924133905719976e-01  5.6742959964897199e-01  5.6563481964434403e-01  5.6388972200715526e-01  5.6220815409191205e-01  5.6059466758177079e-01  5.5905154540768243e-01  5.5758154606928856e-01  5.5618894203829194e-01  5.5487879030414955e-01  5.5365591117838697e-01  5.5252278799549681e-01  5.5147473648446710e-01  5.5048793770516091e-01  5.4951460257116458e-01  5.4852558818342367e-01  5.4752132698914480e-01  5.4650153732009188e-01  5.4543476581316019e-01  5.4425996393503118e-01  5.4295046292856008e-01  5.4151902856368306e-01  5.4000951029384248e-01  5.3848443649440192e-01  5.3698144520356006e-01  5.3549331478739148e-01  5.3398958161793952e-01  5.3245600311446384e-01  5.3089957660317832e-01  5.2934033024606097e-01  5.2780275208351723e-01  5.2630913359795140e-01  5.2487534713333195e-01  5.2350814578114524e-01  5.2221048048429541e-01  5.2099029049098788e-01  5.1986310272148606e-01  5.1885036882598323e-01  5.1797570962843043e-01  5.1725724616860724e-01  5.1669525992806598e-01  5.1625823707461194e-01  5.1589609399455727e-01  5.1556598426669142e-01  5.1523472504896906e-01  5.1488299343178223e-01  5.1449722637913931e-01  5.1405970060712225e-01  5.1354522412139114e-01  5.1291829641532205e-01  5.1212688879382839e-01  5.1111647366798074e-01  5.0983358085227803e-01  5.0823821502262334e-01  5.0633525224451137e-01  5.0415943269340391e-01  5.0174076733448703e-01  4.9909351386043099e-01  4.9622948368104813e-01  4.9318999623020671e-01  4.9009146104619911e-01  4.8711496930241710e-01  4.8440273702065384e-01  4.8199547703846818e-01  4.7985249192452156e-01  4.7788626263005485e-01  4.7599479802127886e-01  4.7409176389851970e-01  4.7213719962281270e-01  4.7017106754408439e-01  4.6833316644887107e-01  4.6680165653005906e-01  4.6567192579901845e-01  4.6485274816619332e-01  4.6415321024903466e-01  4.6337195890011740e-01  4.6233073624764104e-01  4.6088284828235476e-01  4.5891391888184752e-01  4.5634146395498743e-01  4.5311967368606965e-01  4.4925607450996807e-01  4.4483725375929500e-01  4.3999243394519960e-01  4.3481329066643287e-01  4.2937844596636005e-01  4.2382512842870385e-01  4.1835652308582782e-01  4.1309605256504467e-01  4.0809511761918527e-01  4.0334468881414648e-01  3.9878608384132858e-01  3.9434415778397552e-01  3.89943064740