<?xml version="1.0"?>
<VTKFile type="UnstructuredGrid"  version="0.1"  >
<UnstructuredGrid>
<Piece  NumberOfPoints="28121" NumberOfCells="55200">
<Points>
<DataArray  type="Float64"  NumberOfComponents="3"  format="ascii">0 0 0  0.008260869565217391 0 0  0.01652173913043478 0 0  0.02478260869565217 0 0  0.03304347826086956 0 0  0.04130434782608695 0 0  0.04956521739130434 0 0  0.05782608695652174 0 0  0.06608695652173913 0 0  0.07434782608695652 0 0  0.08260869565217391 0 0  0.0908695652173913 0 0  0.09913043478260869 0 0  0.1073913043478261 0 0  0.1156521739130435 0 0  0.1239130434782609 0 0  0.1321739130434783 0 0  0.1404347826086956 0 0  0.148695652173913 0 0  0.1569565217391304 0 0  0.1652173913043478 0 0  0.1734782608695652 0 0  0.1817391304347826 0 0  0.19 0 0  0.1982608695652174 0 0  0.2065217391304348 0 0  0.2147826086956522 0 0  0.2230434782608696 0 0  0.2313043478260869 0 0  0.2395652173913043 0 0  0.2478260869565218 0 0  0.2560869565217391 0 0  0.2643478260869565 0 0  0.2726086956521739 0 0  0.2808695652173913 0 0  0.2891304347826087 0 0  0.2973913043478261 0 0  0.3056521739130434 0 0  0.3139130434782609 0 0  0.3221739130434783 0 0  0.3304347826086956 0 0  0.338695652173913 0 0  0.3469565217391304 0 0  0.3552173913043478 0 0  0.3634782608695652 0 0  0.3717391304347826 0 0  0.3799999999999999 0 0  0.3882608695652174 0 0  0.3965217391304348 0 0  0.4047826086956521 0 0  0.4130434782608696 0 0  0.4213043478260869 0 0  0.4295652173913043 0 0  0.4378260869565217 0 0  0.4460869565217391 0 0  0.4543478260869565 0 0  0.4626086956521739 0 0  0.4708695652173913 0 0  0.4791304347826086 0 0  0.4873913043478261 0 0  0.4956521739130435 0 0  0.5039130434782608 0 0  0.5121739130434783 0 0  0.5204347826086956 0 0  0.528695652173913 0 0  0.5369565217391304 0 0  0.5452173913043478 0 0  0.5534782608695652 0 0  0.5617391304347825 0 0  0.57 0 0  0.5782608695652174 0 0  0.5865217391304348 0 0  0.5947826086956521 0 0  0.6030434782608696 0 0  0.6113043478260869 0 0  0.6195652173913043 0 0  0.6278260869565218 0 0  0.6360869565217391 0 0  0.6443478260869565 0 0  0.6526086956521739 0 0  0.6608695652173913 0 0  0.6691304347826087 0 0  0.677391304347826 0 0  0.6856521739130435 0 0  0.6939130434782609 0 0  0.7021739130434783 0 0  0.7104347826086956 0 0  0.718695652173913 0 0  0.7269565217391304 0 0  0.7352173913043478 0 0  0.7434782608695653 0 0  0.7517391304347827 0 0  0.7599999999999999 0 0  0.7682608695652173 0 0  0.7765217391304348 0 0  0.7847826086956522 0 0  0.7930434782608695 0 0  0.8013043478260868 0 0  0.8095652173913043 0 0  0.8178260869565217 0 0  0.8260869565217391 0 0  0.8343478260869565 0 0  0.8426086956521739 0 0  0.8508695652173912 0 0  0.8591304347826086 0 0  0.8673913043478261 0 0  0.8756521739130434 0 0  0.8839130434782608 0 0  0.8921739130434783 0 0  0.9004347826086956 0 0  0.908695652173913 0 0  0.9169565217391303 0 0  0.9252173913043478 0 0  0.9334782608695652 0 0  0.9417391304347826 0 0  0.95 0 0  0.9582608695652173 0 0  0.9665217391304347 0 0  0.9747826086956521 0 0  0.9830434782608696 0 0  0.991304347826087 0 0  0.9995652173913042 0 0  1.007826086956522 0 0  1.016086956521739 0 0  1.024347826086957 0 0  1.032608695652174 0 0  1.040869565217391 0 0  1.049130434782609 0 0  1.057391304347826 0 0  1.065652173913043 0 0  1.073913043478261 0 0  1.082173913043478 0 0  1.090434782608696 0 0  1.098695652173913 0 0  1.10695652173913 0 0  1.115217391304348 0 0  1.123478260869565 0 0  1.131739130434783 0 0  1.14 0 0  1.148260869565217 0 0  1.156521739130435 0 0  1.164782608695652 0 0  1.17304347826087 0 0  1.181304347826087 0 0  1.189565217391304 0 0  1.197826086956522 0 0  1.206086956521739 0 0  1.214347826086956 0 0  1.222608695652174 0 0  1.230869565217391 0 0  1.239130434782609 0 0  1.247391304347826 0 0  1.255652173913044 0 0  1.263913043478261 0 0  1.272173913043478 0 0  1.280434782608696 0 0  1.288695652173913 0 0  1.296956521739131 0 0  1.305217391304348 0 0  1.313478260869565 0 0  1.321739130434783 0 0  1.33 0 0  1.338260869565217 0 0  1.346521739130435 0 0  1.354782608695652 0 0  1.36304347826087 0 0  1.371304347826087 0 0  1.379565217391304 0 0  1.387826086956522 0 0  1.396086956521739 0 0  1.404347826086957 0 0  1.412608695652174 0 0  1.420869565217391 0 0  1.429130434782609 0 0  1.437391304347826 0 0  1.445652173913043 0 0  1.453913043478261 0 0  1.462173913043478 0 0  1.470434782608696 0 0  1.478695652173913 0 0  1.486956521739131 0 0  1.495217391304348 0 0  1.503478260869565 0 0  1.511739130434782 0 0  1.52 0 0  1.528260869565217 0 0  1.536521739130435 0 0  1.544782608695652 0 0  1.55304347826087 0 0  1.561304347826087 0 0  1.569565217391304 0 0  1.577826086956522 0 0  1.586086956521739 0 0  1.594347826086957 0 0  1.602608695652174 0 0  1.610869565217391 0 0  1.619130434782609 0 0  1.627391304347826 0 0  1.635652173913043 0 0  1.643913043478261 0 0  1.652173913043478 0 0  1.660434782608696 0 0  1.668695652173913 0 0  1.67695652173913 0 0  1.685217391304348 0 0  1.693478260869565 0 0  1.701739130434782 0 0  1.71 0 0  1.718260869565217 0 0  1.726521739130435 0 0  1.734782608695652 0 0  1.743043478260869 0 0  1.751304347826087 0 0  1.759565217391304 0 0  1.767826086956522 0 0  1.776086956521739 0 0  1.784347826086957 0 0  1.792608695652174 0 0  1.800869565217391 0 0  1.809130434782608 0 0  1.817391304347826 0 0  1.825652173913043 0 0  1.833913043478261 0 0  1.842173913043478 0 0  1.850434782608696 0 0  1.858695652173913 0 0  1.86695652173913 0 0  1.875217391304348 0 0  1.883478260869565 0 0  1.891739130434782 0 0  1.9 0 0  1.908260869565217 0 0  1.916521739130435 0 0  1.924782608695652 0 0  1.933043478260869 0 0  1.941304347826087 0 0  1.949565217391304 0 0  1.957826086956522 0 0  1.966086956521739 0 0  1.974347826086956 0 0  1.982608695652174 0 0  1.990869565217391 0 0  1.999130434782608 0 0  2.007391304347826 0 0  2.015652173913043 0 0  2.023913043478261 0 0  2.032173913043478 0 0  2.040434782608695 0 0  2.048695652173913 0 0  2.05695652173913 0 0  2.065217391304348 0 0  2.073478260869565 0 0  2.081739130434782 0 0  2.09 0 0  2.098260869565217 0 0  2.106521739130435 0 0  2.114782608695652 0 0  2.12304347826087 0 0  2.131304347826087 0 0  2.139565217391304 0 0  2.147826086956522 0 0  2.156086956521739 0 0  2.164347826086956 0 0  2.172608695652174 0 0  2.180869565217391 0 0  2.189130434782609 0 0  2.197391304347826 0 0  2.205652173913043 0 0  2.213913043478261 0 0  2.222173913043478 0 0  2.230434782608695 0 0  2.238695652173913 0 0  2.24695652173913 0 0  2.255217391304348 0 0  2.263478260869565 0 0  2.271739130434783 0 0  2.28 0 0  2.288260869565217 0 0  2.296521739130434 0 0  2.304782608695652 0 0  2.31304347826087 0 0  2.321304347826087 0 0  2.329565217391304 0 0  2.337826086956521 0 0  2.346086956521739 0 0  2.354347826086956 0 0  2.362608695652174 0 0  2.370869565217391 0 0  2.379130434782609 0 0  2.387391304347826 0 0  2.395652173913044 0 0  2.403913043478261 0 0  2.412173913043478 0 0  2.420434782608695 0 0  2.428695652173913 0 0  2.43695652173913 0 0  2.445217391304348 0 0  2.453478260869565 0 0  2.461739130434782 0 0  2.47 0 0  2.478260869565217 0 0  2.486521739130435 0 0  2.494782608695652 0 0  2.503043478260869 0 0  2.511304347826087 0 0  2.519565217391305 0 0  2.527826086956522 0 0  2.536086956521739 0 0  2.544347826086956 0 0  2.552608695652174 0 0  2.560869565217391 0 0  2.569130434782608 0 0  2.577391304347826 0 0  2.585652173913043 0 0  2.593913043478261 0 0  2.602173913043478 0 0  2.610434782608696 0 0  2.618695652173913 0 0  2.62695652173913 0 0  2.635217391304348 0 0  2.643478260869565 0 0  2.651739130434783 0 0  2.66 0 0  2.668260869565217 0 0  2.676521739130435 0 0  2.684782608695652 0 0  2.693043478260869 0 0  2.701304347826087 0 0  2.709565217391304 0 0  2.717826086956522 0 0  2.726086956521739 0 0  2.734347826086956 0 0  2.742608695652174 0 0  2.750869565217391 0 0  2.759130434782609 0 0  2.767391304347826 0 0  2.775652173913044 0 0  2.783913043478261 0 0  2.792173913043478 0 0  2.800434782608696 0 0  2.808695652173913 0 0  2.81695652173913 0 0  2.825217391304347 0 0  2.833478260869565 0 0  2.841739130434783 0 0  2.85 0 0  2.858260869565217 0 0  2.866521739130435 0 0  2.874782608695652 0 0  2.88304347826087 0 0  2.891304347826087 0 0  2.899565217391304 0 0  2.907826086956522 0 0  2.916086956521739 0 0  2.924347826086957 0 0  2.932608695652174 0 0  2.940869565217391 0 0  2.949130434782608 0 0  2.957391304347826 0 0  2.965652173913043 0 0  2.973913043478261 0 0  2.982173913043478 0 0  2.990434782608696 0 0  2.998695652173913 0 0  3.006956521739131 0 0  3.015217391304348 0 0  3.023478260869565 0 0  3.031739130434782 0 0  3.04 0 0  3.048260869565218 0 0  3.056521739130435 0 0  3.064782608695652 0 0  3.073043478260869 0 0  3.081304347826087 0 0  3.089565217391304 0 0  3.097826086956522 0 0  3.106086956521739 0 0  3.114347826086956 0 0  3.122608695652174 0 0  3.130869565217391 0 0  3.139130434782609 0 0  3.147391304347826 0 0  3.155652173913043 0 0  3.163913043478261 0 0  3.172173913043478 0 0  3.180434782608696 0 0  3.188695652173913 0 0  3.19695652173913 0 0  3.205217391304347 0 0  3.213478260869565 0 0  3.221739130434782 0 0  3.23 0 0  3.238260869565217 0 0  3.246521739130435 0 0  3.254782608695652 0 0  3.26304347826087 0 0  3.271304347826087 0 0  3.279565217391304 0 0  3.287826086956521 0 0  3.296086956521739 0 0  3.304347826086957 0 0  3.312608695652174 0 0  3.320869565217391 0 0  3.329130434782608 0 0  3.337391304347826 0 0  3.345652173913043 0 0  3.353913043478261 0 0  3.362173913043478 0 0  3.370434782608696 0 0  3.378695652173913 0 0  3.386956521739131 0 0  3.395217391304348 0 0  3.403478260869565 0 0  3.411739130434782 0 0  3.419999999999999 0 0  3.428260869565217 0 0  3.436521739130435 0 0  3.444782608695652 0 0  3.453043478260869 0 0  3.461304347826087 0 0  3.469565217391304 0 0  3.477826086956522 0 0  3.486086956521739 0 0  3.494347826086956 0 0  3.502608695652174 0 0  3.510869565217391 0 0  3.519130434782609 0 0  3.527391304347826 0 0  3.535652173913043 0 0  3.54391304347826
[...]
<PointData  Scalars="rho_bar"> 
<DataArray  type="Float64"  Name="rho_bar"  format="ascii">8.3862201418505422e-01  8.3775390859611487e-01  8.3683714294727163e-01  8.3564122506691851e-01  8.3410637244687336e-01  8.3222242820752268e-01  8.2999966512944734e-01  8.2746019185731667e-01  8.2463510028559039e-01  8.2156219971741207e-01  8.1828459258664421e-01  8.1484955372047452e-01  8.1130860175846076e-01  8.0771798545223505e-01  8.0413969383612216e-01  8.0064093371396072e-01  7.9729245738089005e-01  7.9416467757885989e-01  7.9132338606303931e-01  7.8882524570515056e-01  7.8671518709105570e-01  7.8502503426151593e-01  7.8377463151418325e-01  7.8297314138294882e-01  7.8262126379840724e-01  7.8271237537902594e-01  7.8323344695775554e-01  7.8416477727121858e-01  7.8547986789506141e-01  7.8714478940245436e-01  7.8911896441480500e-01  7.9135588778998234e-01  7.9380498724621396e-01  7.9641265894895874e-01  7.9912324915175648e-01  8.0187882819274225e-01  8.0461891169829081e-01  8.0727905207221806e-01  8.0978991164313785e-01  8.1207545321849006e-01  8.1405242987205662e-01  8.1563042491839899e-01  8.1671413876352672e-01  8.1720717212756655e-01  8.1701866695285108e-01  8.1607212567431575e-01  8.1431877130448682e-01  8.1175199907317475e-01  8.0841488628976343e-01  8.0439864700140673e-01  7.9984390242725389e-01  7.9493132369228248e-01  7.8982862649361762e-01  7.8463266422431732e-01  7.7942327613339857e-01  7.7427090851854452e-01  7.6923733361497859e-01  7.6437857149774502e-01  7.5974597970933133e-01  7.5538395157096128e-01  7.5132652504459319e-01  7.4759472731780874e-01  7.4419596137078514e-01  7.4112532830127453e-01  7.3837087353720576e-01  7.3591902499066220e-01  7.3375823320594091e-01  7.3187890127366351e-01  7.3027212369772143e-01  7.2892798464921460e-01  7.2783568642363350e-01  7.2698393284432961e-01  7.2636228277923887e-01  7.2596149370330409e-01  7.2577361090675974e-01  7.2579077231470368e-01  7.2600379990430197e-01  7.2639941648972095e-01  7.2695770342603183e-01  7.2764869158848922e-01  7.2843085987828526e-01  7.2925186483072146e-01  7.3005333696304575e-01  7.3077686285695354e-01  7.3136925293238586e-01  7.3178485759286283e-01  7.3198664348514975e-01  7.3194551114407680e-01  7.3164019420332083e-01  7.3105699690889991e-01  7.3019061150300868e-01  7.2904496588775203e-01  7.2763479034366751e-01  7.2598615806722666e-01  7.2413682873810792e-01  7.2213449368255811e-01  7.2003471073279979e-01  7.1789751646560496e-01  7.1578408785212544e-01  7.1375253809249617e-01  7.1185389234959884e-01  7.1012735911623825e-01  7.0859672552890574e-01  7.0726734607316477e-01  7.0612654793046503e-01  7.0514757351486845e-01  7.0429806090143565e-01  7.0354901699729910e-01  7.0288122636334727e-01  7.0228634585646210e-01  7.0176510879666176e-01  7.0132309575518970e-01  7.0096743100762537e-01  7.0070415848253309e-01  7.0053796341088603e-01  7.0047335301806357e-01  7.0051790971626082e-01  7.0068539947557340e-01  7.0099790267746920e-01  7.0148299141753867e-01  7.0216664630703218e-01  7.0306348215176973e-01  7.0416979114359823e-01  7.0546085049953000e-01  7.0689376348207100e-01  7.0841329242278761e-01  7.0995966554657253e-01  7.1147434523189002e-01  7.1290428698399166e-01  7.1420380064897859e-01  7.1533618486599504e-01  7.1627442340801761e-01  7.1700116024725624e-01  7.1750633224685600e-01  7.1778494319548980e-01  7.1783531671775835e-01  7.1765962131544525e-01  7.1726452277135488e-01  7.1666197518878771e-01  7.1586867599660087e-01  7.1490534685565799e-01  7.1379512818843749e-01  7.1256281161814050e-01  7.1123346166969881e-01  7.0983206350552241e-01  7.0838278918451858e-01  7.0690896555905003e-01  7.0543249149826237e-01  7.0397337087649270e-01  7.0254812950926104e-01  7.0116918139640350e-01  6.9984442322946672e-01  6.9857849251101112e-01  6.9737366427132996e-01  6.9623081844702339e-01  6.9514924744464779e-01  6.9412662130811753e-01  6.9315853103964475e-01  6.9223916269195018e-01  6.9136145619908262e-01  6.9051802472105606e-01  6.8970140574471872e-01  6.8890478380190856e-01  6.8812225612250233e-01  6.8734964982599800e-01  6.8658457004335782e-01  6.8582681449768079e-01  6.8507739642545828e-01  6.8433777798064888e-01  6.8360841886403212e-01  6.8288830838741621e-01  6.8217475487105295e-01  6.8146429772281736e-01  6.8075335184388230e-01  6.8003948117150492e-01  6.7932150799043589e-01  6.7859969484151828e-01  6.7787479504630521e-01  6.7714730996709571e-01  6.7641635415859869e-01  6.7567942970647510e-01  6.7493195543793483e-01  6.7416781237078516e-01  6.7337925305128032e-01  6.7255768172291697e-01  6.7169397182317636e-01  6.7077951289271875e-01  6.6980708970219927e-01  6.6877255861111051e-01  6.6767596395830031e-01  6.6652275669388472e-01  6.6532310321054189e-01  6.6409064319041899e-01  6.6283992806176717e-01  6.6158421043831217e-01  6.6033306408494552e-01  6.5909120510654540e-01  6.5785770825510237e-01  6.5662726471856014e-01  6.5539185637345510e-01  6.5414366940679114e-01  6.5287704908804500e-01  6.5159037585111390e-01  6.5028704137563476e-01  6.4897654863972376e-01  6.4767416477284323e-01  6.4639924600868814e-01  6.4517035121501476e-01  6.4400066324361649e-01  6.4289525720828766e-01  6.4185150480613973e-01  6.4086058768151288e-01  6.3991005478884000e-01  6.3898552806733155e-01  6.3807252242092949e-01  6.3715675639441760e-01  6.3622463053883060e-01  6.3526313683341251e-01  6.3426089047290202e-01  6.3320911347983311e-01  6.3210275641001712e-01  6.3094021256469712e-01  6.2972319051548797e-01  6.2845586506604378e-01  6.2714496348419235e-01  6.2579953868423144e-01  6.2443135598789090e-01  6.2305469917998235e-01  6.2168616297827084e-01  6.2034284789259597e-01  6.1904031079051791e-01  6.1778950796225507e-01  6.1659512510238057e-01  6.1545456883258431e-01  6.1435908960439944e-01  6.1329587815485453e-01  6.1225103083455701e-01  6.1121125816927879e-01  6.1016528420583405e-01  6.0910391316092227e-01  6.0802064531259270e-01  6.0691194817803085e-01  6.0577805543633934e-01  6.0462240368320019e-01  6.0344980865345998e-01  6.0226361394594341e-01  6.0106525489665663e-01  5.9985458341036191e-01  5.9863149387696701e-01  5.9739685695867317e-01  5.9615349606528878e-01  5.9490617560770964e-01  5.9366159798460205e-01  5.9242738868635347e-01  5.9121163694441137e-01  5.9002152227429450e-01  5.8886131694675869e-01  5.8772955460943588e-01  5.8661844562377119e-01  5.8551435199454216e-01  5.8439943664842930e-01  5.8325279852117740e-01  5.8205218414093829e-01  5.8077519238080055e-01  5.7940197551290673e-01  5.7791882883521051e-01  5.7632426735380526e-01  5.7463605128996742e-01  5.7289374444044583e-01  5.7114578148479167e-01  5.6943132458926604e-01  5.6777389685831348e-01  5.6618391589943384e-01  5.6466279110552620e-01  5.6320685371409596e-01  5.6180957490428785e-01  5.6046322383758285e-01  5.5915942116413864e-01  5.5789028760512815e-01  5.5664910735217266e-01  5.5543040469283100e-01  5.5422586364930704e-01  5.5302031895971460e-01  5.5179203970222224e-01  5.5051592155779305e-01  5.4916662670682592e-01  5.4772265299038658e-01  5.4616965783858318e-01  5.4450370447704433e-01  5.4273172310707418e-01  5.4086785860465592e-01  5.3892770631540765e-01  5.3692752271522248e-01  5.3488900608993661e-01  5.3284537456325187e-01  5.3082994216063228e-01  5.2885815246721646e-01  5.2693016725985364e-01  5.2504194271211857e-01  5.2318732936993839e-01  5.2134247320282490e-01  5.1947914784479710e-01  5.1760370984177106e-01  5.1574441976894558e-01  5.1393845476783473e-01  5.1222042795889411e-01  5.1061234838323488e-01  5.0911595351157979e-01  5.0771237392287571e-01  5.0637267165029520e-01  5.0507360651679523e-01  5.0380642632368178e-01  5.0258395684526302e-01  5.0145148951229424e-01  5.0048227818301316e-01  4.9970583869417412e-01  4.9908981815528136e-01  4.9858967734431153e-01  4.9814728664131785e-01  4.9769745277045674e-01  4.9719446025003583e-01  4.9660796117996475e-01  4.9590886058365119e-01  4.9506237437798400e-01  4.9403230366124201e-01  4.9278660979074668e-01  4.9130209953934872e-01  4.8957058030775613e-01  4.8760892913219156e-01  4.8546258157227007e-01  4.8318664969956249e-01  4.8081597085118605e-01  4.7835681790001860e-01  4.7579918040053931e-01  4.7314319807131044e-01  4.7043679862381138e-01  4.6780361964233896e-01  4.6539530581482519e-01  4.6330687394444864e-01  4.6156380144898396e-01  4.6013903095537262e-01  4.5897860426523157e-01  4.5803000761035051e-01  4.5726895072327844e-01  4.5671971080789026e-01  4.5642954282228743e-01  4.5634970562833921e-01  4.5625488046276486e-01  4.5586524619546176e-01  4.5499013808824018e-01  4.5353894132928496e-01  4.5148913026608611e-01  4.4887572577888696e-01  4.4577194843286777e-01  4.4225320740256585e-01  4.3839153290195493e-01  4.3424731200542732e-01  4.2987649654597132e-01  4.2530930893936647e-01  4.2051753026785038e-01  4.1549668176060106e-01  4.1037921358798096e-01  4.0539164803863575e-01  4.0068377902506103e-01  3.9636250267629997e-01  3.9241545729154109e-01  3.8874245347310837e-01  3.8521002848755342e-01  3.8167715714369937e-01  3.7800598746487585e-01  3.7406694585961009e-01  3.6974156087028942e-01  3.6492582114679495e-01  3.5953491881857369e-01  3.5351167893791857e-01  3.4684052754572370e-01  3.3956506268651004e-01  3.3179012407542180e-01  3.2363306339642578e-01  3.1513599574542084e-01  3.0625635706239518e-01  2.9689041827434032e-01  2.8689747893686318e-01  2.7613018398256151e-01  2.6448779711968834e-01  2.5200843170865977e-01  2.3889922426704790e-01  2.2543895906345660e-01  2.1192270431935065e-01  1.9861766845746162e-01  1.8569178712696061e-01  1.7317142959142559e-01  1.6101435288050400e-01  1.4919190848596273e-01  1.3771108759899758e-01  1.2660454773955601e-01  1.1592068688138321e-01  1.0571359608767543e-01  9.6033339345918123e-02  8.6920022857273821e-02  7.8401375134064907e-02  7.0492445220721484e-02  6.3196288777984638e-02  5.6505122312184845e-02  5.0401847187615943e-02  4.4861816152151054e-02  3.9854736489956799e-02  3.5346455160652913e-02  3.1300639048017019e-02  2.7680124753104676e-02  2.4448045042178523e-02  2.1568651928572709e-02  1.9007921932119493e-02  1.6733948744830387e-02  1.4717179112923856e-02  1.2930509784940663e-02  1.1349288933555725e-02  9.9512279663975748e-03  8.7162790100571864e-03  7.6264638842723611e-03  6.6657009119232401e-03  5.8196178494678997e-03  5.0753764179186861e-03  4.4215118321203530e-03  3.8477780821868468e-03  3.3450189363796222e-03  2.9050473521815695e-03  2.5205454888526679e-03  2.1849730946222764e-03  1.8924926339019001e-03  1.6378959334769033e-03  1.4165483686837453e-03  1.2243286306469093e-03  1.0575842666296776e-03  9.1308214443127744e-04  7.8796881853671823e-04  6.7973120784032344e-04  5.8616240733665235e-04  5.0532827729437028e-04  4.3553779318557869e-04  3.7531564819384027e-04  3.2337797583015937e-04  2.7860918398923528e-04  2.4004196963080219e-04  2.0683881541737732e-04  1.7827624017427486e-04  1.5373003209257416e-04  1.3266259627770134e-04  1.1461187522431006e-04  9.9181673391106098e-05  8.6033204166849410e-05  7.4877732729573070e-05  6.5470453455211336e-05  5.7605095681781842e-05  5.1109667393371214e-05  4.5842456010891922e-05  4.1689677472385815e-05  3.8563420278270305e-05  3.6402581635903030e-05  3.5180048267590437e-05  3.4938087013631614e-05  8.3417100222788176e-01  8.3376982463965166e-01  8.3295466149009167e-01  8.3176751447658193e-01  8.3020971194208149e-01  8.2828644953570307e-01  8.2601246780401538e-01  8.2341224402197088e-01  8.2051848277608452e-01  8.1737067297856458e-01  8.1401323973213713e-01  8.1049461104018838e-01  8.0686698850728267e-01  8.0318748416372443e-01  7.9951910947183880e-01  7.9593109868643230e-01  7.9249663687121241e-01  7.8928910180901357e-01  7.8637682102823514e-01  7.8381860536514159e-01  7.8166027164649010e-01  7.7993404359649687e-01  7.7865921080070399e-01  7.7784454089646404e-01  7.7749007651659274e-01  7.7758894997373007e-01  7.7812782678967429e-01  7.7908701833969984e-01  7.8043956428924555e-01  7.8215108239281184e-01  7.8417976600534678e-01  7.8647805089826039e-01  7.8899400633144445e-01  7.9167310263518920e-01  7.9445875996747639e-01  7.9729259608648828e-01  8.0011347663982302e-01  8.0285676995925115e-01  8.0545254671622490e-01  8.0782435974067990e-01  8.0988778698855923e-01  8.1155092900702142e-01  8.1271622436872260e-01  8.1328487159263763e-01  8.1316302721315270e-01  8.1227140194067793e-01  8.1055751894525474e-01  8.0801098034727004e-01  8.0467200792178029e-01  8.0063052809091484e-01  7.9602413799641580e-01  7.9102895929329220e-01  7.8581602903970804e-01  7.8049544707806418e-01  7.7515111404887671e-01  7.6985958249222575e-01  7.6468623509501965e-01  7.5969077706378341e-01  7.5492701840869081e-01  7.5044145399348661e-01  7.4626975954183561e-01  7.4243460051081067e-01  7.3894348421479217e-01  7.3579065745836481e-01  7.3296234919941916e-01  7.3044400181775404e-01  7.2822376104285058e-01  7.2629240974327025e-01  7.2464092905243649e-01  7.2325913032201439e-01  7.2213519152839556e-01  7.2125705542904217e-01  7.2061341821582414e-01  7.2019471171477401e-01  7.1999273465325253e-01  7.1999994202408679e-01  7.2020739559342051e-01  7.2060262287802601e-01  7.2116615750395108e-01  7.2186846781697345e-01  7.2266711064809741e-01  7.2350770588662960e-01  7.2432894008939686e-01  7.2507010832709218e-01  7.2567627928589440e-01  7.2610112890845535e-01  7.2630700675275384e-01  7.2626466775822296e-01  7.2595235971481975e-01  7.2535602720069770e-01  7.2446973216301103e-01  7.2329712893508535e-01  7.2185264785155312e-01  7.2016295346267190e-01  7.1826662920430984e-01  7.1621307855958782e-01  7.1405955334960647e-01  7.1186819478583752e-01  7.0970215731321173e-01  7.0762182343132496e-01  7.0568013703503918e-01  7.0391830275066980e-01  7.0236115607686722e-01  7.0101437222812280e-01  6.9986369690559058e-01  6.9887941046978896e-01  6.9802549966858762e-01  6.9727068996963770e-01  6.9659488721040907e-01  6.9599060768709531e-01  6.9545970508714783e-01  6.9500924643983786e-01  6.9464711089072284e-01  6.9437972097321654e-01  6.9421125632446889e-01  6.9414541201414592e-01  6.9418848420274770e-01  6.9435386995360904e-01  6.9466444709495567e-01  6.9515077407720172e-01  6.9584230217987408e-01  6.9675642532943116e-01  6.9789012076261436e-01  6.9921763656215430e-01  7.0069322117327815e-01  7.0225859795087242e-01  7.0385098991937489e-01  7.0541008818367223e-01  7.0688143070894394e-01  7.0821840939758496e-01  7.0938331075572236e-01  7.1034879135396078e-01  7.1109755889300430e-01  7.1162024095565168e-01  7.1191181342229581e-01  7.1197044446805691e-01  7.1179771294787775e-01  7.1140017024187741e-01  7.1078987726276677e-01  7.0998426934161885e-01  7.0900465553507397e-01  7.0787515050663785e-01  7.0662109941167051e-01  7.0526843408161155e-01  7.0384258909835384e-01  7.0236833503353135e-01  7.0086932135668445e-01  6.9936810290874729e-01  6.9788513474158775e-01  6.9643762134252463e-01  6.9503788980341696e-01  6.9369377411776090e-01  6.9240945547854316e-01  6.9118715440474354e-01  6.9002773674744455e-01  6.8893086117934244e-01  6.8789416059375208e-01  6.8691333589850057e-01  6.8598217414450835e-01  6.8509352336690232e-01  6.8423959486759311e-01  6.8341274989270817e-01  6.8260575235696419e-01  6.8181254419723458e-01  6.8102854222367160e-01  6.8025146328439590e-01  6.7948109611596852e-01  6.7871904368013702e-01  6.7796709689155177e-01  6.7722610070432576e-01  6.7649492986289672e-01  6.7577077840626854e-01  6.7504965041233822e-01  6.7432777166014457e-01  6.7360232178092816e-01  6.7287231850428975e-01  6.7213814337143485e-01  6.7140100241081813e-01  6.7066160022543198e-01  6.6991938573324561e-01  6.6917173243686989e-01  6.6841419079331654e-01  6.6764034536483496e-01  6.6684248526106193e-01  6.6601170073089766e-01  6.6513872786357953e-01  6.6421450639991875e-01  6.6323151834707728e-01  6.6218501016308795e-01  6.6107492849738336e-01  6.5990667627661570e-01  6.5869114215060154e-01  6.5744266188232470e-01  6.5617675375790974e-01  6.5490731082736686e-01  6.5364458289654515e-01  6.5239328449774514e-01  6.5115237423000283e-01  6.4991561670150566e-01  6.4867425874935214e-01  6.4741958580074133e-01  6.4614551493631134e-01  6.4484993509214894e-01  6.4353609631994679e-01  6.4221331336766918e-01  6.4089761953290780e-01  6.3960965019583516e-01  6.3836975512550898e-01  6.3719181667104186e-01  6.3608093421753142e-01  6.3503375077865876e-01  6.3404081156996428e-01  6.3308878669039126e-01  6.3216297239847530e-01  6.3124844278248260e-01  6.3033105493978747e-01  6.2939705771650678e-01  6.2843332423452869e-01  6.2742795412864216e-01  6.2637194769129501e-01  6.2525996293680397e-01  6.2409056902252336e-01  6.2286533316287018e-01  6.2158858515222293e-01  6.2026689516254419e-01  6.1890938152211239e-01  6.1752773196273925e-01  6.1613663145552555e-01  6.1475313948780408e-01  6.1339552688243726e-01  6.1208024965917962e-01  6.1081926797103359e-01  6.0961749824771916e-01  6.0847220076215169e-01  6.0737371116685712e-01  6.0630838373449025e-01  6.0526144275523475e-01  6.0421940048746192e-01  6.0317069578245830e-01  6.0210623783261541e-01  6.0101927253240706e-01  5.9990615743762499e-01  5.9876699794160260e-01  5.9760589226151406e-01  5.9642819953830195e-01  5.9523765690813168e-01  5.9403531299386914e-01  5.9282083308140976e-01  5.9159368441572946e-01  5.9035468546614611e-01  5.8910653265606017e-01  5.8785420918299902e-01  5.8660441707971789e-01  5.8536506560038770e-01  5.8414418385858546e-01  5.8294962304740372e-01  5.8178621658037577e-01  5.8065280315131929e-01  5.7954129110674968e-01  5.7843785369901424e-01  5.7732423760592233e-01  5.7617957764798677e-01  5.7498138643767294e-01  5.7370727859873949e-01  5.7233684387049477e-01  5.7085545328916254e-01  5.6925970052021080e-01  5.6756603947136941e-01  5.6581577245478165e-01  5.6406152468806370e-01  5.6234355638271494e-01  5.6068499595024091e-01  5.5909528131353803e-01  5.5757537105453769e-01  5.5612130835238771e-01  5.5472676476320915e-01  5.5338402646942098e-01  5.5208492731438996e-01  5.5082118662797808e-01  5.4958590109318251e-01  5.4837377403490561e-01  5.4717707448360975e-01  5.4597994231419045e-01  5.4475981033675469e-01  5.4349058014886398e-01  5.4214635218744367e-01  5.4070483983667139e-01  5.3915149492074532e-01  5.3748243870866652e-01  5.3570621675323760e-01  5.3383930324616979e-01  5.3189907103227008e-01  5.2990181289341320e-01  5.2786739764922408e-01  5.2582796242147223e-01  5.2381892689710774e-01  5.2185486682770910e-01  5.1993364758603533e-01  5.1804852753877284e-01  5.1619575127067652e-01  5.1435280654974191e-01  5.1248409767668801e-01  5.1059674725961901e-01  5.0872210468538359e-01  5.0690012082947089e-01  5.0516843449345394e-01  5.0355133611210945e-01  5.0205167083571267e-01  5.0064875731313507e-01  4.9931080176793835e-01  4.9801335852545459e-01  4.9674823507600774e-01  4.9552800275948161e-01  4.9439133755850773e-01  4.9339794711615848e-01  4.9258202793708206e-01  4.9192641873819698e-01  4.9139238946831665e-01  4.9092230259428776e-01  4.9044665337511301e-01  4.8991965663792053e-01  4.8931380175154848e-01  4.8860128484488002e-01  4.8774636200956589e-01  4.8671134074719558e-01  4.8546361411953781e-01  4.8397868396808208e-01  4.8224607445836282e-01  4.8028052255947318e-01  4.7813085315282911e-01  4.7585954326682084e-01  4.7350519715822759e-01  4.7107363530218282e-01  4.6855266939846490e-01  4.6593757936468916e-01  4.6326699587983089e-01  4.6066156509652006e-01  4.5828368186602608e-01  4.5623150680980823e-01  4.5452977312921322e-01  4.5314925416788121e-01  4.5203320091384863e-01  4.5112501004371774e-01  4.5039563262240534e-01  4.4986626082099834e-01  4.4959797414686320e-01  4.4956835062203876e-01  4.4955180388731919e-01  4.4925175277629015e-01  4.4847393056913193e-01  4.4713173053213989e-01  4.4520386935227130e-01  4.4271993934385678e-01  4.3975028910913394e-01  4.3636738856310098e-01  4.3263642295312538e-01  4.2861493983977694e-01  4.2436981034752835e-01  4.1995575951685710e-01  4.1535878277901145e-01  4.1057183854965745e-01  4.0569669293015981e-01  4.0095434215257758e-01  3.9649153816748645e-01  3.9238533887391536e-01  3.8862922801076016e-01  3.8513257547372914e-01  3.8176842717944026e-01  3.78400296524