<?xml version="1.0"?>
<VTKFile type="UnstructuredGrid"  version="0.1"  >
<UnstructuredGrid>
<Piece  NumberOfPoints="7161" NumberOfCells="13800">
<Points>
<DataArray  type="Float64"  NumberOfComponents="3"  format="ascii">0 0 0  0.01652173913043478 0 0  0.03304347826086956 0 0  0.04956521739130434 0 0  0.06608695652173913 0 0  0.08260869565217391 0 0  0.09913043478260869 0 0  0.1156521739130435 0 0  0.1321739130434783 0 0  0.148695652173913 0 0  0.1652173913043478 0 0  0.1817391304347826 0 0  0.1982608695652174 0 0  0.2147826086956522 0 0  0.2313043478260869 0 0  0.2478260869565218 0 0  0.2643478260869565 0 0  0.2808695652173913 0 0  0.2973913043478261 0 0  0.3139130434782609 0 0  0.3304347826086956 0 0  0.3469565217391304 0 0  0.3634782608695652 0 0  0.3799999999999999 0 0  0.3965217391304348 0 0  0.4130434782608696 0 0  0.4295652173913043 0 0  0.4460869565217391 0 0  0.4626086956521739 0 0  0.4791304347826086 0 0  0.4956521739130435 0 0  0.5121739130434783 0 0  0.528695652173913 0 0  0.5452173913043478 0 0  0.5617391304347825 0 0  0.5782608695652174 0 0  0.5947826086956521 0 0  0.6113043478260869 0 0  0.6278260869565218 0 0  0.6443478260869565 0 0  0.6608695652173913 0 0  0.677391304347826 0 0  0.6939130434782609 0 0  0.7104347826086956 0 0  0.7269565217391304 0 0  0.7434782608695653 0 0  0.7599999999999999 0 0  0.7765217391304348 0 0  0.7930434782608695 0 0  0.8095652173913043 0 0  0.8260869565217391 0 0  0.8426086956521739 0 0  0.8591304347826086 0 0  0.8756521739130434 0 0  0.8921739130434783 0 0  0.908695652173913 0 0  0.9252173913043478 0 0  0.9417391304347826 0 0  0.9582608695652173 0 0  0.9747826086956521 0 0  0.991304347826087 0 0  1.007826086956522 0 0  1.024347826086957 0 0  1.040869565217391 0 0  1.057391304347826 0 0  1.073913043478261 0 0  1.090434782608696 0 0  1.10695652173913 0 0  1.123478260869565 0 0  1.14 0 0  1.156521739130435 0 0  1.17304347826087 0 0  1.189565217391304 0 0  1.206086956521739 0 0  1.222608695652174 0 0  1.239130434782609 0 0  1.255652173913044 0 0  1.272173913043478 0 0  1.288695652173913 0 0  1.305217391304348 0 0  1.321739130434783 0 0  1.338260869565217 0 0  1.354782608695652 0 0  1.371304347826087 0 0  1.387826086956522 0 0  1.404347826086957 0 0  1.420869565217391 0 0  1.437391304347826 0 0  1.453913043478261 0 0  1.470434782608696 0 0  1.486956521739131 0 0  1.503478260869565 0 0  1.52 0 0  1.536521739130435 0 0  1.55304347826087 0 0  1.569565217391304 0 0  1.586086956521739 0 0  1.602608695652174 0 0  1.619130434782609 0 0  1.635652173913043 0 0  1.652173913043478 0 0  1.668695652173913 0 0  1.685217391304348 0 0  1.701739130434782 0 0  1.718260869565217 0 0  1.734782608695652 0 0  1.751304347826087 0 0  1.767826086956522 0 0  1.784347826086957 0 0  1.800869565217391 0 0  1.817391304347826 0 0  1.833913043478261 0 0  1.850434782608696 0 0  1.86695652173913 0 0  1.883478260869565 0 0  1.9 0 0  1.916521739130435 0 0  1.933043478260869 0 0  1.949565217391304 0 0  1.966086956521739 0 0  1.982608695652174 0 0  1.999130434782608 0 0  2.015652173913043 0 0  2.032173913043478 0 0  2.048695652173913 0 0  2.065217391304348 0 0  2.081739130434782 0 0  2.098260869565217 0 0  2.114782608695652 0 0  2.131304347826087 0 0  2.147826086956522 0 0  2.164347826086956 0 0  2.180869565217391 0 0  2.197391304347826 0 0  2.213913043478261 0 0  2.230434782608695 0 0  2.24695652173913 0 0  2.263478260869565 0 0  2.28 0 0  2.296521739130434 0 0  2.31304347826087 0 0  2.329565217391304 0 0  2.346086956521739 0 0  2.362608695652174 0 0  2.379130434782609 0 0  2.395652173913044 0 0  2.412173913043478 0 0  2.428695652173913 0 0  2.445217391304348 0 0  2.461739130434782 0 0  2.478260869565217 0 0  2.494782608695652 0 0  2.511304347826087 0 0  2.527826086956522 0 0  2.544347826086956 0 0  2.560869565217391 0 0  2.577391304347826 0 0  2.593913043478261 0 0  2.610434782608696 0 0  2.62695652173913 0 0  2.643478260869565 0 0  2.66 0 0  2.676521739130435 0 0  2.693043478260869 0 0  2.709565217391304 0 0  2.726086956521739 0 0  2.742608695652174 0 0  2.759130434782609 0 0  2.775652173913044 0 0  2.792173913043478 0 0  2.808695652173913 0 0  2.825217391304347 0 0  2.841739130434783 0 0  2.858260869565217 0 0  2.874782608695652 0 0  2.891304347826087 0 0  2.907826086956522 0 0  2.924347826086957 0 0  2.940869565217391 0 0  2.957391304347826 0 0  2.973913043478261 0 0  2.990434782608696 0 0  3.006956521739131 0 0  3.023478260869565 0 0  3.04 0 0  3.056521739130435 0 0  3.073043478260869 0 0  3.089565217391304 0 0  3.106086956521739 0 0  3.122608695652174 0 0  3.139130434782609 0 0  3.155652173913043 0 0  3.172173913043478 0 0  3.188695652173913 0 0  3.205217391304347 0 0  3.221739130434782 0 0  3.238260869565217 0 0  3.254782608695652 0 0  3.271304347826087 0 0  3.287826086956521 0 0  3.304347826086957 0 0  3.320869565217391 0 0  3.337391304347826 0 0  3.353913043478261 0 0  3.370434782608696 0 0  3.386956521739131 0 0  3.403478260869565 0 0  3.419999999999999 0 0  3.436521739130435 0 0  3.453043478260869 0 0  3.469565217391304 0 0  3.486086956521739 0 0  3.502608695652174 0 0  3.519130434782609 0 0  3.535652173913043 0 0  3.552173913043478 0 0  3.568695652173913 0 0  3.585217391304347 0 0  3.601739130434782 0 0  3.618260869565217 0 0  3.634782608695652 0 0  3.651304347826087 0 0  3.667826086956521 0 0  3.684347826086956 0 0  3.700869565217391 0 0  3.717391304347826 0 0  3.733913043478261 0 0  3.750434782608695 0 0  3.766956521739131 0 0  3.783478260869565 0 0  3.8 0 0  0 0.01666666666666667 0  0.01652173913043478 0.01666666666666667 0  0.03304347826086956 0.01666666666666667 0  0.04956521739130434 0.01666666666666667 0  0.06608695652173913 0.01666666666666667 0  0.08260869565217391 0.01666666666666667 0  0.09913043478260869 0.01666666666666667 0  0.1156521739130435 0.01666666666666667 0  0.1321739130434783 0.01666666666666667 0  0.148695652173913 0.01666666666666667 0  0.1652173913043478 0.01666666666666667 0  0.1817391304347826 0.01666666666666667 0  0.1982608695652174 0.01666666666666667 0  0.2147826086956522 0.01666666666666667 0  0.2313043478260869 0.01666666666666667 0  0.2478260869565218 0.01666666666666667 0  0.2643478260869565 0.01666666666666667 0  0.2808695652173913 0.01666666666666667 0  0.2973913043478261 0.01666666666666667 0  0.3139130434782609 0.01666666666666667 0  0.3304347826086956 0.01666666666666667 0  0.3469565217391304 0.01666666666666667 0  0.3634782608695652 0.01666666666666667 0  0.3799999999999999 0.01666666666666667 0  0.3965217391304348 0.01666666666666667 0  0.4130434782608696 0.01666666666666667 0  0.4295652173913043 0.01666666666666667 0  0.4460869565217391 0.01666666666666667 0  0.4626086956521739 0.01666666666666667 0  0.4791304347826086 0.01666666666666667 0  0.4956521739130435 0.01666666666666667 0  0.5121739130434783 0.01666666666666667 0  0.528695652173913 0.01666666666666667 0  0.5452173913043478 0.01666666666666667 0  0.5617391304347825 0.01666666666666667 0  0.5782608695652174 0.01666666666666667 0  0.5947826086956521 0.01666666666666667 0  0.6113043478260869 0.01666666666666667 0  0.6278260869565218 0.01666666666666667 0  0.6443478260869565 0.01666666666666667 0  0.6608695652173913 0.01666666666666667 0  0.677391304347826 0.01666666666666667 0  0.6939130434782609 0.01666666666666667 0  0.7104347826086956 0.01666666666666667 0  0.7269565217391304 0.01666666666666667 0  0.7434782608695653 0.01666666666666667 0  0.7599999999999999 0.01666666666666667 0  0.7765217391304348 0.01666666666666667 0  0.7930434782608695 0.01666666666666667 0  0.8095652173913043 0.01666666666666667 0  0.8260869565217391 0.01666666666666667 0  0.8426086956521739 0.01666666666666667 0  0.8591304347826086 0.01666666666666667 0  0.8756521739130434 0.01666666666666667 0  0.8921739130434783 0.01666666666666667 0  0.908695652173913 0.01666666666666667 0  0.9252173913043478 0.01666666666666667 0  0.9417391304347826 0.01666666666666667 0  0.9582608695652173 0.01666666666666667 0  0.9747826086956521 0.01666666666666667 0  0.991304347826087 0.01666666666666667 0  1.007826086956522 0.01666666666666667 0  1.024347826086957 0.01666666666666667 0  1.040869565217391 0.01666666666666667 0  1.057391304347826 0.01666666666666667 0  1.073913043478261 0.01666666666666667 0  1.090434782608696 0.01666666666666667 0  1.10695652173913 0.01666666666666667 0  1.123478260869565 0.01666666666666667 0  1.14 0.01666666666666667 0  1.156521739130435 0.01666666666666667 0  1.17304347826087 0.01666666666666667 0  1.189565217391304 0.01666666666666667 0  1.206086956521739 0.01666666666666667 0  1.222608695652174 0.01666666666666667 0  1.239130434782609 0.01666666666666667 0  1.255652173913044 0.01666666666666667 0  1.272173913043478 0.01666666666666667 0  1.288695652173913 0.01666666666666667 0  1.305217391304348 0.01666666666666667 0  1.321739130434783 0.01666666666666667 0  1.338260869565217 0.01666666666666667 0  1.354782608695652 0.01666666666666667 0  1.371304347826087 0.01666666666666667 0  1.387826086956522 0.01666666666666667 0  1.404347826086957 0.01666666666666667 0  1.420869565217391 0.01666666666666667 0  1.437391304347826 0.01666666666666667 0  1.453913043478261 0.01666666666666667 0  1.470434782608696 0.01666666666666667 0  1.486956521739131 0.01666666666666667 0  1.503478260869565 0.01666666666666667 0  1.52 0.01666666666666667 0  1.536521739130435 0.01666666666666667 0  1.55304347826087 0.01666666666666667 0  1.569565217391304 0.01666666666666667 0  1.586086956521739 0.01666666666666667 0  1.602608695652174 0.01666666666666667 0  1.619130434782609 0.01666666666666667 0  1.635652173913043 0.01666666666666667 0  1.652173913043478 0.01666666666666667 0  1.668695652173913 0.01666666666666667 0  1.685217391304348 0.01666666666666667 0  1.701739130434782 0.01666666666666667 0  1.718260869565217 0.01666666666666667 0  1.734782608695652 0.01666666666666667 0  1.751304347826087 0.01666666666666667 0  1.767826086956522 0.01666666666666667 0  1.784347826086957 0.01666666666666667 0  1.800869565217391 0.0166666666666666
[...]
<PointData  Scalars="rho"> 
<DataArray  type="Float64"  Name="rho"  format="ascii">9.9885740744214568e-01  9.9817218972495736e-01  9.9787540658474205e-01  9.9738373370719524e-01  9.9565744804248624e-01  9.7535724774246169e-01  9.9469436501961384e-01  9.9365421054426473e-01  9.9272644415867217e-01  9.9232098927138379e-01  9.9240315077844754e-01  9.8042032226776166e-01  9.9366685078310157e-01  9.9452756163197198e-01  9.9536254875768149e-01  9.9610173637498023e-01  9.9671647226379023e-01  9.9719492238645913e-01  9.9755782829693751e-01  9.9783492551399766e-01  9.9804122463980971e-01  9.9819174934414312e-01  9.9829391632869280e-01  9.9834854245093752e-01  9.9835078713082603e-01  9.9828818748136117e-01  9.9813649547114336e-01  9.6355620577858081e-01  9.5932176400312053e-01  9.6066682068948461e-01  9.4727543278511450e-01  9.3970188648606046e-01  8.4701660329488382e-01  8.8949335141926511e-01  9.2935989260420282e-01  9.5318938364424310e-01  9.8619454016124919e-01  9.5697837905139926e-01  9.8644640604072031e-01  9.8648167265060838e-01  9.8626164464260113e-01  9.8586718188238542e-01  9.8550352887745851e-01  9.8534638299781863e-01  9.8552016285041777e-01  9.8596109557361100e-01  9.8653383522607663e-01  9.8713448464338727e-01  9.8770131452175136e-01  9.8819628621150224e-01  9.8860025086916847e-01  9.8891222816635038e-01  9.8914305908709432e-01  9.8930808465489972e-01  9.8942067289299263e-01  9.8949091811688861e-01  9.8952842326679269e-01  9.8954313591800780e-01  9.8954525083348921e-01  9.8954363618074748e-01  9.8954257980325799e-01  9.8954250015256806e-01  9.8954425211818875e-01  9.8955028069081263e-01  9.8956370520754955e-01  9.8958714586595053e-01  9.8962154665954216e-01  9.8966477910976369e-01  9.8971175881236473e-01  9.8975763282108076e-01  9.8980029031226069e-01  9.8983869861421159e-01  9.8987120957760089e-01  9.8989596669379953e-01  9.8991235225680718e-01  9.8992334337983445e-01  9.8993611087470923e-01  9.8995964367506817e-01  9.9000118857604646e-01  9.9006334077658342e-01  9.9014270210418875e-01  9.9022796982157402e-01  9.9029436824119299e-01  9.9029650077407272e-01  9.9016395724134254e-01  9.8980320564903923e-01  9.8913790843075045e-01  9.3748028334061917e-01  9.4570514133783723e-01  8.4951634739781368e-01  8.4971736570588585e-01  9.6535316389088943e-01  9.7287886296872006e-01  9.8989287701087592e-01  9.9428209731694828e-01  9.9487944795501837e-01  9.9496124243839645e-01  9.9456916942686302e-01  9.9374265274229645e-01  9.9253297981532074e-01  9.9102383185536302e-01  9.8937211938177494e-01  9.8785265622413543e-01  9.8681698519690753e-01  9.8653284956428111e-01  9.8703788104618195e-01  9.8814238063990867e-01  9.8956303901237075e-01  9.8553422283811554e-01  9.8695299663952707e-01  9.7018729219197319e-01  9.0596065401605597e-01  9.0308806408090159e-01  8.9120997926236700e-01  7.0266715886326547e-01  7.6753196201539498e-01  7.3698801545064263e-01  7.4736783666603979e-01  7.6186869888611686e-01  7.9435685636304965e-01  9.8730150858601540e-01  9.8707259966309702e-01  9.8656948497915731e-01  9.8565161756774011e-01  9.8456779981712361e-01  9.8404716917256130e-01  9.3246460021930933e-01  9.6090571012098136e-01  9.3432592239775580e-01  9.4789655971252029e-01  9.7421600029012034e-01  9.7922845399606584e-01  9.9884542240753826e-01  9.9655938998910343e-01  9.8795455796271725e-01  9.8162253659341114e-01  9.6049910433187191e-01  9.8445234426962491e-01  9.8275507333228251e-01  9.8225257727266202e-01  9.8276978267050430e-01  9.8408088678331362e-01  9.8603278413563011e-01  9.6629006593884426e-01  9.7096529126455378e-01  9.1433208961206458e-01  9.2567064442062930e-01  9.4177426479982029e-01  9.3033004822104926e-01  8.1600349412665329e-01  7.8094696148879006e-01  7.5925367462954096e-01  7.7715934483643756e-01  8.0114955923459530e-01  8.3926766805125308e-01  8.8943345420482534e-01  8.2947159843876039e-01  9.8350216394681889e-01  9.8434669426268695e-01  9.8476505696235928e-01  9.8479208065754331e-01  9.8462975783599660e-01  9.8433507008541477e-01  9.8407237825911931e-01  9.8391471879178527e-01  9.8388978216576661e-01  9.8399278476805574e-01  9.8418678341034416e-01  9.8441084629198905e-01  9.8460798079016176e-01  9.8474510868220733e-01  9.8481730578259530e-01  9.8483975373329824e-01  9.8483088107968919e-01  9.8481123287348737e-01  9.8476374607775263e-01  9.8461962196923314e-01  9.8424794133372440e-01  9.8348900619571322e-01  9.8226947660590025e-01  9.8078605875718117e-01  9.3641240945151161e-01  9.4244101865770280e-01  9.0447667704821944e-01  8.9274857637708882e-01  6.5250565016027573e-01  6.3753000259240433e-01  6.1506345958546005e-01  5.4167070154237218e-01  4.9098773544279800e-01  4.1789828073292190e-01  3.6525333302058144e-01  2.6515799525039674e-01  2.3940023657274784e-01  4.2778801995793266e-02  2.7222668781564468e-02  1.9255739111615405e-02  2.2242555437800293e-02  2.1637643286460589e-02  1.6380287952588075e-02  1.6663490777791681e-02  1.1388877029116749e-02  8.8682441074841925e-03  7.9096378790938001e-03  5.6519817841098347e-03  3.8229113389546625e-03  2.4096343868562214e-03  1.6954077945984883e-03  1.5183471320883628e-04  1.0903903666656719e-04  7.8003801427079788e-05  5.5571948469248535e-05  3.9407171849200557e-05  2.7794057700836837e-05  1.9083513466557104e-05  1.3271243825050410e-05  9.1428225081281398e-06  6.2240548548988741e-06  4.1710578729061493e-06  2.7580937020474340e-06  1.7545253994615174e-06  1.0625977585297682e-06  5.9015064959022103e-07  2.7147051843700220e-07  5.9788023595601312e-08  7.5023303030305327e-09  5.8080140136976619e-09  4.6546471416642273e-09  4.7093694524378531e-09  4.2549668924293462e-09  1.3795584392457029e-09  9.9818967488595367e-01  9.9626679602911006e-01  9.9571108269902286e-01  9.9473822433898706e-01  9.8595322984607603e-01  9.4747099081696051e-01  9.8566708667792990e-01  9.6778867306525529e-01  9.6543618865810577e-01  9.8228695109899122e-01  9.8327988392380927e-01  9.2764447983581810e-01  9.8611540654375440e-01  9.8804985379095300e-01  9.8990954044981672e-01  9.9154288899569665e-01  9.9289294315297494e-01  9.9393703039773862e-01  9.9472312357966675e-01  9.9532084172055524e-01  9.9576745426924573e-01  9.9609881921706211e-01  9.9633171228361550e-01  9.9646859771481566e-01  9.9650271907184185e-01  9.9641395932210852e-01  9.9615808004367534e-01  9.6034587305080188e-01  9.4536460319276006e-01  9.4710491703268362e-01  9.1960970540698816e-01  9.2390377321937700e-01  8.8202374406347661e-01  7.0282419622809011e-01  7.8634487969855404e-01  8.0651051758879211e-01  9.5041046209712754e-01  9.4897955229970132e-01  9.7168866236882190e-01  9.7188104980732748e-01  9.7136835170914715e-01  9.7033086541302926e-01  9.6927086319066846e-01  9.6869883872158258e-01  9.6899226935820948e-01  9.6996628310044908e-01  9.7123691096050713e-01  9.7255584157833663e-01  9.7379688213583149e-01  9.7487785546701766e-01  9.7575379065614853e-01  9.7642382245692205e-01  9.7691481313251882e-01  9.7726444834323190e-01  9.7750311538811419e-01  9.7765063970174226e-01  9.7772685752738508e-01  9.7775283025200155e-01  9.7775135309366923e-01  9.7774441050807182e-01  9.7774133838808386e-01  9.7773960788621761e-01  9.7773968005986611e-01  9.7774723906718708e-01  9.7776999457406932e-01  9.7781504798977070e-01  9.7788659361358865e-01  9.7798128401227635e-01  9.7808633842431114e-01  9.7818902264792729e-01  9.7828560492468741e-01  9.7837488480627577e-01  9.7845259324840339e-01  9.7851305764205398e-01  9.7855223557754756e-01  9.7857513896089821e-01  9.7859875621002512e-01  9.7864608721081747e-01  9.7873716817909728e-01  9.7888174246237092e-01  9.7907773279310462e-01  9.7931002850107185e-01  9.7953707571737891e-01  9.7967087347871662e-01  9.7956297174856621e-01  9.7898182009212331e-01  9.0029655825234534e-01  9.7554595305680980e-01  8.5073113821475377e-01  7.2505646433462723e-01  7.0462236764410413e-01  9.3174296165357406e-01  9.4498549028763701e-01  9.7885240078549707e-01  9.8799489021487941e-01  9.8953887260223461e-01  9.8980584665657201e-01  9.8897784709453018e-01  9.8730156510235378e-01  9.8477031936632542e-01  9.8151644339266442e-01  9.7781596733603926e-01  9.2489613109857127e-01  9.0841496579689207e-01  9.0278997802815530e-01  9.7194155032100282e-01  9.7437118949265988e-01  9.3059642261911879e-01  9.4184368337133229e-01  9.1182149117336408e-01  9.3523526572541471e-01  8.7853323028996166e-01  8.7545373945516569e-01  8.7577796314619893e-01  8.1331371533124996e-01  7.2575072438550992e-01  6.6353028256780078e-01  6.6275743208209892e-01  6.8929178375679012e-01  6.4381208479782204e-01  8.0076549967938015e-01  9.7346442502489339e-01  9.7275608793604595e-01  9.7100372461920215e-01  9.6855467500395787e-01  9.1130387411709557e-01  8.5937473274542919e-01  8.1511407411482339e-01  8.2208160869225211e-01  9.0025422442440972e-01  9.4743807225723409e-01  9.7832981580290146e-01  9.7370723924744640e-01  9.8855702072601603e-01  9.8571037876826562e-01  9.5938042117196509e-01  8.9723845217226605e-01  8.7442882824152701e-01  9.6409233098375891e-01  9.6277714850722551e-01  9.6366807785978481e-01  9.6623637889811431e-01  9.7010578731668684e-01  8.8194348398116518e-01  9.0723668444155381e-01  8.9113771774796258e-01  9.1179121122999185e-01  9.4470785033986671e-01  9.3073208413581676e-01  8.9232775662300323e-01  7.3303852058722530e-01  7.0037160201365378e-01  6.7882299339977792e-01  7.1138810110984030e-01  7.5289424795353843e-01  8.1996459343721539e-01  7.5885856272424468e-01  9.6632146690743814e-01  9.6811438311647269e-01  9.6894765906162439e-01  9.6900732114478672e-01  9.6842369571752929e-01  9.6765944033096685e-01  9.6697261494452236e-01  9.6653871050832441e-01  9.6641709918782992e-01  9.6660091431587392e-01  9.6701360787597712e-01  9.6751225580974209e-01  9.6796112752199437e-01  9.6828193130244933e-01  9.6846424987478241e-01  9.6854654444862565e-01  9.6858534517918582e-01  9.6864558749888374e-01  9.6869997747508552e-01  9.6864538200487404e-01  9.6821979932335012e-01  9.6707250539710277e-01  9.6500116876222808e-01  9.6233122387152725e-01  8.7160830360529151e-01  7.5972775925807390e-01  6.7248778823214039e-01  6.5681972705012726e-01  6.5901848312404399e-01  6.3555225412323901e-01  6.2750050370517829e-01  5.8474498967669086e-01  4.6322465666322232e-01  4.5307384458309363e-01  4.2209490722772247e-01  3.3054257573488721e-01  2.5831713100824233e-01  1.6548497261555886e-01  7.4510623455110295e-02  4.4347032651610108e-02  4.1186897650241486e-02  4.2203961906373072e-02  3.1806734573490321e-02  2.7479017256583832e-02  2.2693866173450213e-02  1.7953828578497630e-02  1.3623007950750044e-02  1.1878370120669524e-02  8.2240967559397866e-03  5.3459923487454734e-03  3.6806612286055256e-03  5.6796510509540008e-04  2.3625313858794525e-04  1.6911995069095415e-04  1.2053643955998213e-04  8.5491598293803604e-05  6.0296132698286509e-05  4.1388200398577064e-05  2.8770191370055870e-05  1.9807857327428303e-05  1.3472794723408212e-05  9.0184449875604535e-06  5.9543742701397733e-06  3.7790418621771711e-06  2.2802480721312805e-06  1.2578149241142171e-06  5.6909205667949445e-07  1.1251625650548646e-07  1.6280413170771325e-08  1.2565544234021691e-08  1.0019253406724360e-08  1.0055220094962906e-08  8.9718212938222679e-09  4.2633410988371241e-09  9.9794088695406125e-01  9.9580749329047813e-01  9.9518636107490921e-01  9.9404513283289564e-01  9.5583285747600244e-01  9.6521594357122076e-01  9.0341532577020878e-01  8.4547292916364436e-01  8.0870199157578271e-01  8.0834842546804886e-01  8.4417989285872641e-01  9.1061929323925339e-01  9.7665207694070366e-01  9.1152979364877651e-01  9.8777992769004230e-01  9.8988188874457050e-01  9.9152983647461956e-01  9.9277433865848719e-01  9.9369321307631653e-01  9.9436411140646075e-01  9.9486772579174776e-01  9.9525510202313561e-01  9.9554014984600303e-01  9.9571951734986242e-01  9.9579064540072382e-01  9.9499912212455743e-01  9.9553237434890807e-01  9.8047812442528492e-01  9.5910637436998969e-01  9.6308709010434412e-01  9.5264807676027652e-01  9.0318259517662425e-01  7.4198267902782511e-01  3.6884055610947519e-01  3.8950048648810776e-01  5.1735823126095237e-01  6.6342424493819963e-01  7.3036293086834225e-01  8.4487042186365802e-01  9.1758706538197321e-01  8.8007983582773019e-01  9.6358942088071620e-01  9.6152694281610707e-01  9.6037846005100913e-01  9.4374073377257883e-01  9.3948556862608379e-01  9.3884048727082658e-01  9.3779614397497635e-01  9.4002439459775122e-01  9.4410602883160988e-01  9.4381906330229193e-01  9.4130174578402859e-01  9.3651675946234758e-01  8.9502444131273240e-01  8.9337623105821351e-01  8.8736009619109735e-01  8.8261094996582068e-01  8.7930972585403933e-01  8.7726262031140800e-01  8.7603747282613298e-01  8.7522228971918137e-01  8.6548624684095143e-01  8.6517085361228474e-01  8.6511438690341902e-01  8.7426089663682793e-01  8.7519193913077586e-01  8.7711542580918878e-01  8.8033849465650371e-01  8.8506757192017316e-01  8.8429549880326952e-01  9.3292957074679550e-01  9.4122092802377522e-01  9.4625052395830311e-01  9.4676527808299027e-01  9.4323421149530762e-01  9.3765631332841060e-01  9.3242397314526904e-01  9.2940280444198486e-01  9.2977261604220718e-01  9.7385684514927673e-01  9.7413006746771746e-01  9.7449406746155653e-01  9.7492313451931800e-01  9.7532308774317700e-01  9.7550848727107364e-01  7.5138602490831707e-01  9.1171104762685684e-01  6.6538034319754835e-01  5.9223774848563104e-01  4.0531900715797164e-01  4.1671276582944161e-01  9.2051644756186202e-01  9.0044158372865679e-01  9.7633111803690287e-01  9.8669609496575206e-01  9.8850414249925900e-01  9.8868439228551586e-01  9.8759262903244782e-01  9.8525515035806965e-01  9.8191711967904982e-01  8.9613337835833984e-01  8.4494500677982776e-01  8.0993888193284225e-01  7.6389841629171495e-01  7.4931172800998391e-01  7.3722784018061138e-01  7.6052787643087816e-01  7.5136279623519342e-01  7.7713031249199216e-01  7.9550802321199776e-01  8.3718648092948889e-01  8.7313203423854702e-01  8.8678442896555698e-01  9.0596024988847090e-01  9.0010696040113336e-01  7.8513713169255650e-01  7.6827874945811747e-01  6.7537968781313129e-01  6.8626449799181832e-01  6.3642061278464968e-01  6.2557100799481125e-01  6.5973940433004907e-01  6.5112464807230797e-01  6.5032400905224363e-01  5.7536963155384213e-01  5.6886859023871006e-01  4.9110511296384118e-01  5.1953056154984201e-01  5.4450969123279247e-01  8.1154184400802754e-01  8.9582149409444711e-01  9.8011238095026298e-01  9.7154879863427035e-01  9.5637678506294632e-01  9.0334138787694407e-01  8.2094755158336985e-01  6.4222773439035408e-01  6.5430104119796484e-01  6.8799331073178382e-01  6.8460142237278587e-01  7.5957722320368304e-01  7.7993863639465111e-01  7.9031481308762330e-01  7.8896193486224897e-01  8.0830443387693351e-01  9.0908409521374389e-01  9.4041461456397191e-01  9.6293219869112945e-01  9.7420191552193247e-01  9.7356205022255526e-01  9.1369976267162956e-01  7.6270724735388074e-01  7.3673539766674501e-01  5.7454645433220475e-01  5.3837967030152889e-01  6.3375890790963685e-01  7.2142427865623837e-01  6.2153362532006939e-01  6.6847203656058207e-01  7.2074609858751326e-01  8.0170924344595107e-01  8.1281810557231304e-01  9.5310965602528464e-01  8.0261062983640286e-01  9.1609936902301081e-01  9.2272206124206313e-01  8.0393972929206048e-01  7.9093647669331668e-01  7.9983628007539054e-01  8.1241906732867675e-01  8.2196150432245241e-01  8.1295487683114065e-01  8.1165107217144394e-01  8.1979297961019293e-01  7.0907402641386774e-01  6.9183400333392675e-01  7.2889799157662616e-01  6.7925572156723235e-01  6.0780304861115431e-01  4.9688819293775033e-01  4.4571674371463588e-01  4.1364425536482680e-01  3.7567133033187056e-01  3.6940890795847525e-01  3.8565125767023828e-01  4.1345813791498515e-01  4.3937382061572428e-01  4.3182636640625655e-01  4.6723494972437285e-01  5.0470455360223854e-01  5.0297748904429351e-01  4.7991623105315245e-01  5.3147985431474243e-01  4.5756599493507050e-01  2.8660564240784253e-01  2.8379570353271638e-01  1.3036728574538176e-01  8.9172028076107801e-02  4.8325308067358741e-02  4.1221690535508039e-02  3.4055052947758777e-02  2.7212179431258893e-02  2.0997691200714999e-02  1.5578798779137626e-02  1.3368342426277187e-02  9.1944392390950307e-03  5.7104063622496785e-03  3.7824726718963080e-03  3.5906759711566683e-04  2.5741307471870275e-04  1.8378517181760304e-04  1.3061004042796094e-04  9.2319812799557770e-05  6.3521742830611113e-05  4.4279481663642044e-05  3.0589910406832646e-05  2.0899570840670097e-05  1.4076999404391332e-05  9.3761105928581945e-06  6.0336342711052502e-06  3.7249472496015440e-06  2.1447719655040956e-06  1.0758953342872038e-06  3.6400626462026157e-07  2.3919663501944029e-08  1.8124503149704040e-08  1.4038877110192003e-08  1.3489124258302423e-08  1.1327794310726472e-08  1.0135885546301607e-08  4.7533589246101195e-09  9.9752736165289746e-01  9.9503280262973426e-01  9.9434389520568933e-01  9.9301800014160435e-01  9.3661063131896583e-01  8.7186602479955511e-01  7.4763902719058861e-01  6.1420751327172352e-01  5.1078504705669381e-01  4.9084826625314848e-01  5.1527437678393406e-01  6.0546018399353063e-01  7.4225898284058855e-01  8.7273592507122133e-01  8.5833910970548954e-01  9.8699752295074350e-01  9.8915890185738242e-01  9.9072665412068772e-01  9.9183272752467833e-01  9.9260721656548268e-01  9.9320110139831919e-01  9.9369560314709859e-01  9.9408374310615255e-01  9.5151647712876930e-01  9.6077219038223172e-01  9.8566199499185125e-01  9.9438621284978657e-01  9.9273002709818481e-01  9.9326281680180284e-01  9.9171290488929209e-01  9.8891717839366478e-01  9.5046827964778180e-01  7.8053354639340700e-01  3.2624531400955292e-01  0.0000000000000000e+00  0.0000000000000000e+00  2.0804652078814207e-06  1.2781327734535419e-01  1.2945419936311953e-01  3.1533585857656504e-01  4.7566644201400632e-01  4.8597535305758160e-01  6.1000391858276437e-01  6.3145973762298591e-01  7.8320134231701710e-01  6.4804178748965480e-01  6.6169527303988696e-01  5.6924613435328875e-01  5.8483491571746227e-01  7.2488532293128316e-01  6.2417336794828993e-01  6.3815958272588635e-01  6.5227173833142216e-01  6.1792159931175739e-01  7.4378679482294729e-01  7.4604258318392880e-01  7.4863742663275046e-01  7.5059676694767574e-01  7.5010429227050701e-01  6.4759951516872771e-01  7.4443040217652967e-01  7.3839139016123490e-01  7.3266278306654042e-01  7.2828729604136189e-01  7.2583760574998646e-01  7.2529867917632407e-01  7.2884684393319987e-01  7.3051502416625702e-01  7.7850368438981632e-01  7.7985556611059759e-01  6.6468982969619494e-01  6.5868683393458771e-01  6.1258229096094441e-01  6.0666247921884719e-01  6.2485626989727761e-01  6.2014697487170833e-01  6.2094085172509439e-01  6.2916548612466594e-01  6.4054742182025326e-01  6.6290302210252050e-01  6.5732691708931479e-01  6.7427422393512615e-01  6.8819428948312256e-01  6.6459159473361717e-01  6.1080854996945566e-01  4.9798925881615952e-01  2.2292725400573751e-01  0.0000000000000000e+00  0.0000000000000000e+00  0.0000000000000000e+00  1.0839792811597233e-01  7.2579330151600663e-01  8.7053832704518441e-01  9.7790042217759077e-01  9.8501076426688361e-01  9.8696551627336693e-01  9.8684685438499897e-01  9.8529111736232056e-01  9.8236177289007831e-01  9.1715431823107163e-01  7.3672842002880157e-01  5.8546141223138704e-01  4.0675546655550632e-01  2.9081521075987155e-01  2.1847423001566890e-01  2.3046516744146289e-01  3.1188245868315490e-01  4.8436408248589946e-01  6.3800769729399631e-01  6.9611460197210562e-01  7.5546722799755828e-01  8.6005926310877712e-01  8.9991396411234781e-01  9.5617731628502356e-01  9.7410066463286826e-01  9.1048446790830029e-01  7.6867733571543895e-01  6.0125318091903279e-01  3.8191128656950540e-01  3.2138590230190717e-01  1.3575087137312591e-01  1.8015940638493882e-01  1.9429587058236406e-01  1.6816249884411086e-01  4.7665397665767141e-02  0.0000000000000000e+00  0.0000000000000000e+00  0.0000000000000000e+00  1.8669478288210628e-01  8.5532149715964279e-01  9.3695287512956649e-01  8.5663193158460527e-01  7.8562646056375496e-01  7.4104107834064104e-01  6.5202497301309414e-01  4.5752710878965552e-01  5.3688894556844995e-0