<?xml version="1.0"?>
<VTKFile type="UnstructuredGrid"  version="0.1"  >
<UnstructuredGrid>
<Piece  NumberOfPoints="7161" NumberOfCells="13800">
<Points>
<DataArray  type="Float64"  NumberOfComponents="3"  format="ascii">0 0 0  0.01652173913043478 0 0  0.03304347826086956 0 0  0.04956521739130434 0 0  0.06608695652173913 0 0  0.08260869565217391 0 0  0.09913043478260869 0 0  0.1156521739130435 0 0  0.1321739130434783 0 0  0.148695652173913 0 0  0.1652173913043478 0 0  0.1817391304347826 0 0  0.1982608695652174 0 0  0.2147826086956522 0 0  0.2313043478260869 0 0  0.2478260869565218 0 0  0.2643478260869565 0 0  0.2808695652173913 0 0  0.2973913043478261 0 0  0.3139130434782609 0 0  0.3304347826086956 0 0  0.3469565217391304 0 0  0.3634782608695652 0 0  0.3799999999999999 0 0  0.3965217391304348 0 0  0.4130434782608696 0 0  0.4295652173913043 0 0  0.4460869565217391 0 0  0.4626086956521739 0 0  0.4791304347826086 0 0  0.4956521739130435 0 0  0.5121739130434783 0 0  0.528695652173913 0 0  0.5452173913043478 0 0  0.5617391304347825 0 0  0.5782608695652174 0 0  0.5947826086956521 0 0  0.6113043478260869 0 0  0.6278260869565218 0 0  0.6443478260869565 0 0  0.6608695652173913 0 0  0.677391304347826 0 0  0.6939130434782609 0 0  0.7104347826086956 0 0  0.7269565217391304 0 0  0.7434782608695653 0 0  0.7599999999999999 0 0  0.7765217391304348 0 0  0.7930434782608695 0 0  0.8095652173913043 0 0  0.8260869565217391 0 0  0.8426086956521739 0 0  0.8591304347826086 0 0  0.8756521739130434 0 0  0.8921739130434783 0 0  0.908695652173913 0 0  0.9252173913043478 0 0  0.9417391304347826 0 0  0.9582608695652173 0 0  0.9747826086956521 0 0  0.991304347826087 0 0  1.007826086956522 0 0  1.024347826086957 0 0  1.040869565217391 0 0  1.057391304347826 0 0  1.073913043478261 0 0  1.090434782608696 0 0  1.10695652173913 0 0  1.123478260869565 0 0  1.14 0 0  1.156521739130435 0 0  1.17304347826087 0 0  1.189565217391304 0 0  1.206086956521739 0 0  1.222608695652174 0 0  1.239130434782609 0 0  1.255652173913044 0 0  1.272173913043478 0 0  1.288695652173913 0 0  1.305217391304348 0 0  1.321739130434783 0 0  1.338260869565217 0 0  1.354782608695652 0 0  1.371304347826087 0 0  1.387826086956522 0 0  1.404347826086957 0 0  1.420869565217391 0 0  1.437391304347826 0 0  1.453913043478261 0 0  1.470434782608696 0 0  1.486956521739131 0 0  1.503478260869565 0 0  1.52 0 0  1.536521739130435 0 0  1.55304347826087 0 0  1.569565217391304 0 0  1.586086956521739 0 0  1.602608695652174 0 0  1.619130434782609 0 0  1.635652173913043 0 0  1.652173913043478 0 0  1.668695652173913 0 0  1.685217391304348 0 0  1.701739130434782 0 0  1.718260869565217 0 0  1.734782608695652 0 0  1.751304347826087 0 0  1.767826086956522 0 0  1.784347826086957 0 0  1.800869565217391 0 0  1.817391304347826 0 0  1.833913043478261 0 0  1.850434782608696 0 0  1.86695652173913 0 0  1.883478260869565 0 0  1.9 0 0  1.916521739130435 0 0  1.933043478260869 0 0  1.949565217391304 0 0  1.966086956521739 0 0  1.982608695652174 0 0  1.999130434782608 0 0  2.015652173913043 0 0  2.032173913043478 0 0  2.048695652173913 0 0  2.065217391304348 0 0  2.081739130434782 0 0  2.098260869565217 0 0  2.114782608695652 0 0  2.131304347826087 0 0  2.147826086956522 0 0  2.164347826086956 0 0  2.180869565217391 0 0  2.197391304347826 0 0  2.213913043478261 0 0  2.230434782608695 0 0  2.24695652173913 0 0  2.263478260869565 0 0  2.28 0 0  2.296521739130434 0 0  2.31304347826087 0 0  2.329565217391304 0 0  2.346086956521739 0 0  2.362608695652174 0 0  2.379130434782609 0 0  2.395652173913044 0 0  2.412173913043478 0 0  2.428695652173913 0 0  2.445217391304348 0 0  2.461739130434782 0 0  2.478260869565217 0 0  2.494782608695652 0 0  2.511304347826087 0 0  2.527826086956522 0 0  2.544347826086956 0 0  2.560869565217391 0 0  2.577391304347826 0 0  2.593913043478261 0 0  2.610434782608696 0 0  2.62695652173913 0 0  2.643478260869565 0 0  2.66 0 0  2.676521739130435 0 0  2.693043478260869 0 0  2.709565217391304 0 0  2.726086956521739 0 0  2.742608695652174 0 0  2.759130434782609 0 0  2.775652173913044 0 0  2.792173913043478 0 0  2.808695652173913 0 0  2.825217391304347 0 0  2.841739130434783 0 0  2.858260869565217 0 0  2.874782608695652 0 0  2.891304347826087 0 0  2.907826086956522 0 0  2.924347826086957 0 0  2.940869565217391 0 0  2.957391304347826 0 0  2.973913043478261 0 0  2.990434782608696 0 0  3.006956521739131 0 0  3.023478260869565 0 0  3.04 0 0  3.056521739130435 0 0  3.073043478260869 0 0  3.089565217391304 0 0  3.106086956521739 0 0  3.122608695652174 0 0  3.139130434782609 0 0  3.155652173913043 0 0  3.172173913043478 0 0  3.188695652173913 0 0  3.205217391304347 0 0  3.221739130434782 0 0  3.238260869565217 0 0  3.254782608695652 0 0  3.271304347826087 0 0  3.287826086956521 0 0  3.304347826086957 0 0  3.320869565217391 0 0  3.337391304347826 0 0  3.353913043478261 0 0  3.370434782608696 0 0  3.386956521739131 0 0  3.403478260869565 0 0  3.419999999999999 0 0  3.436521739130435 0 0  3.453043478260869 0 0  3.469565217391304 0 0  3.486086956521739 0 0  3.502608695652174 0 0  3.519130434782609 0 0  3.535652173913043 0 0  3.552173913043478 0 0  3.568695652173913 0 0  3.585217391304347 0 0  3.601739130434782 0 0  3.618260869565217 0 0  3.634782608695652 0 0  3.651304347826087 0 0  3.667826086956521 0 0  3.684347826086956 0 0  3.700869565217391 0 0  3.717391304347826 0 0  3.733913043478261 0 0  3.750434782608695 0 0  3.766956521739131 0 0  3.783478260869565 0 0  3.8 0 0  0 0.01666666666666667 0  0.01652173913043478 0.01666666666666667 0  0.03304347826086956 0.01666666666666667 0  0.04956521739130434 0.01666666666666667 0  0.06608695652173913 0.01666666666666667 0  0.08260869565217391 0.01666666666666667 0  0.09913043478260869 0.01666666666666667 0  0.1156521739130435 0.01666666666666667 0  0.1321739130434783 0.01666666666666667 0  0.148695652173913 0.01666666666666667 0  0.1652173913043478 0.01666666666666667 0  0.1817391304347826 0.01666666666666667 0  0.1982608695652174 0.01666666666666667 0  0.2147826086956522 0.01666666666666667 0  0.2313043478260869 0.01666666666666667 0  0.2478260869565218 0.01666666666666667 0  0.2643478260869565 0.01666666666666667 0  0.2808695652173913 0.01666666666666667 0  0.2973913043478261 0.01666666666666667 0  0.3139130434782609 0.01666666666666667 0  0.3304347826086956 0.01666666666666667 0  0.3469565217391304 0.01666666666666667 0  0.3634782608695652 0.01666666666666667 0  0.3799999999999999 0.01666666666666667 0  0.3965217391304348 0.01666666666666667 0  0.4130434782608696 0.01666666666666667 0  0.4295652173913043 0.01666666666666667 0  0.4460869565217391 0.01666666666666667 0  0.4626086956521739 0.01666666666666667 0  0.4791304347826086 0.01666666666666667 0  0.4956521739130435 0.01666666666666667 0  0.5121739130434783 0.01666666666666667 0  0.528695652173913 0.01666666666666667 0  0.5452173913043478 0.01666666666666667 0  0.5617391304347825 0.01666666666666667 0  0.5782608695652174 0.01666666666666667 0  0.5947826086956521 0.01666666666666667 0  0.6113043478260869 0.01666666666666667 0  0.6278260869565218 0.01666666666666667 0  0.6443478260869565 0.01666666666666667 0  0.6608695652173913 0.01666666666666667 0  0.677391304347826 0.01666666666666667 0  0.6939130434782609 0.01666666666666667 0  0.7104347826086956 0.01666666666666667 0  0.7269565217391304 0.01666666666666667 0  0.7434782608695653 0.01666666666666667 0  0.7599999999999999 0.01666666666666667 0  0.7765217391304348 0.01666666666666667 0  0.7930434782608695 0.01666666666666667 0  0.8095652173913043 0.01666666666666667 0  0.8260869565217391 0.01666666666666667 0  0.8426086956521739 0.01666666666666667 0  0.8591304347826086 0.01666666666666667 0  0.8756521739130434 0.01666666666666667 0  0.8921739130434783 0.01666666666666667 0  0.908695652173913 0.01666666666666667 0  0.9252173913043478 0.01666666666666667 0  0.9417391304347826 0.01666666666666667 0  0.9582608695652173 0.01666666666666667 0  0.9747826086956521 0.01666666666666667 0  0.991304347826087 0.01666666666666667 0  1.007826086956522 0.01666666666666667 0  1.024347826086957 0.01666666666666667 0  1.040869565217391 0.01666666666666667 0  1.057391304347826 0.01666666666666667 0  1.073913043478261 0.01666666666666667 0  1.090434782608696 0.01666666666666667 0  1.10695652173913 0.01666666666666667 0  1.123478260869565 0.01666666666666667 0  1.14 0.01666666666666667 0  1.156521739130435 0.01666666666666667 0  1.17304347826087 0.01666666666666667 0  1.189565217391304 0.01666666666666667 0  1.206086956521739 0.01666666666666667 0  1.222608695652174 0.01666666666666667 0  1.239130434782609 0.01666666666666667 0  1.255652173913044 0.01666666666666667 0  1.272173913043478 0.01666666666666667 0  1.288695652173913 0.01666666666666667 0  1.305217391304348 0.01666666666666667 0  1.321739130434783 0.01666666666666667 0  1.338260869565217 0.01666666666666667 0  1.354782608695652 0.01666666666666667 0  1.371304347826087 0.01666666666666667 0  1.387826086956522 0.01666666666666667 0  1.404347826086957 0.01666666666666667 0  1.420869565217391 0.01666666666666667 0  1.437391304347826 0.01666666666666667 0  1.453913043478261 0.01666666666666667 0  1.470434782608696 0.01666666666666667 0  1.486956521739131 0.01666666666666667 0  1.503478260869565 0.01666666666666667 0  1.52 0.01666666666666667 0  1.536521739130435 0.01666666666666667 0  1.55304347826087 0.01666666666666667 0  1.569565217391304 0.01666666666666667 0  1.586086956521739 0.01666666666666667 0  1.602608695652174 0.01666666666666667 0  1.619130434782609 0.01666666666666667 0  1.635652173913043 0.01666666666666667 0  1.652173913043478 0.01666666666666667 0  1.668695652173913 0.01666666666666667 0  1.685217391304348 0.01666666666666667 0  1.701739130434782 0.01666666666666667 0  1.718260869565217 0.01666666666666667 0  1.734782608695652 0.01666666666666667 0  1.751304347826087 0.01666666666666667 0  1.767826086956522 0.01666666666666667 0  1.784347826086957 0.01666666666666667 0  1.800869565217391 0.0166666666666666
[...]
<PointData  Scalars="rho_bar"> 
<DataArray  type="Float64"  Name="rho_bar"  format="ascii">1.0009912599123509e+00  1.0013324340824561e+00  1.0016594861617591e+00  1.0001011144343472e+00  9.9655532841553729e-01  9.9383094438300468e-01  9.9597330464309586e-01  1.0008496429860700e+00  1.0033957848987902e+00  1.0026938701119099e+00  9.9940211175025162e-01  9.9535977874942938e-01  9.9420236264088580e-01  9.9639534708742661e-01  9.9902897994717710e-01  1.0006882950087821e+00  1.0015401507783825e+00  1.0015073870830726e+00  1.0008693816878622e+00  1.0001992125278858e+00  9.9973543964948119e-01  9.9961773254181607e-01  9.9983823646521963e-01  1.0000441036761905e+00  1.0000369432860170e+00  9.9999484023553098e-01  9.9998744768414949e-01  1.0000049624544076e+00  1.0000572371816059e+00  9.9977021993987503e-01  1.0003033092691997e+00  1.0007229294927160e+00  9.9714222296931510e-01  9.9714666904947979e-01  1.0085502352732345e+00  1.0200748707934078e+00  1.0228353039893772e+00  1.0220772568811700e+00  1.0218075755671197e+00  1.0212192907908197e+00  1.0198623953617107e+00  1.0184130366454913e+00  1.0175126592072128e+00  1.0173898103340981e+00  1.0178420222922251e+00  1.0184484514320320e+00  1.0188638021427150e+00  1.0190227265202281e+00  1.0190896028127163e+00  1.0191609897804363e+00  1.0191781374995075e+00  1.0190650686267038e+00  1.0188030796690399e+00  1.0184921717876205e+00  1.0182870711270913e+00  1.0182544057102889e+00  1.0183729454831130e+00  1.0185442980629911e+00  1.0186296877278631e+00  1.0186024743809723e+00  1.0185370601541832e+00  1.0184575343726265e+00  1.0183314148005469e+00  1.0181308404217391e+00  1.0178446881268941e+00  1.0174852898103843e+00  1.0171259516892490e+00  1.0169143657014486e+00  1.0169503869706380e+00  1.0171792330655038e+00  1.0174816464726104e+00  1.0177665253028281e+00  1.0179819970082349e+00  1.0181222112850192e+00  1.0181704048578928e+00  1.0180575363846185e+00  1.0177315601138195e+00  1.0172355513349296e+00  1.0167126554935866e+00  1.0163693392205080e+00  1.0164573925082618e+00  1.0172682023554496e+00  1.0189595965391050e+00  1.0209641521412833e+00  1.0219304542172307e+00  1.0222977588979401e+00  1.0213573458183547e+00  1.0126642860832751e+00  1.0006510539821181e+00  9.9811614290270223e-01  1.0004079623250755e+00  1.0001860022627753e+00  9.9986065867778651e-01  9.9971474974142915e-01  1.0001931082267770e+00  1.0015063476040555e+00  9.9980219440490403e-01  9.9508003988547289e-01  9.9519777623835126e-01  1.0051073161258253e+00  1.0186661289830234e+00  1.0225479626129343e+00  1.0143005517918144e+00  1.0082082075744279e+00  1.0130299026352239e+00  1.0204877892910931e+00  1.0181368432610425e+00  1.0062831770393670e+00  9.9649098664801739e-01  9.9608447220212315e-01  9.9992645341279218e-01  1.0007637353026002e+00  9.9972545665167178e-01  1.0000025560763695e+00  1.0009899658005050e+00  9.9797182959939557e-01  9.9587493312067843e-01  1.0088541848212107e+00  1.0211671578784338e+00  1.0084284573931777e+00  9.8358958720398915e-01  9.6228010929905083e-01  9.4645846024637847e-01  9.4063359201617869e-01  9.5128776400292103e-01  9.8481894484011301e-01  1.0110505573063528e+00  1.0045877777819485e+00  9.9717199765783282e-01  1.0006435485823328e+00  1.0012347614158501e+00  9.9760789257960081e-01  9.9474984794235777e-01  1.0054076219470096e+00  1.0206363337919677e+00  1.0127871694063026e+00  9.8603250761394057e-01  9.6381626344769389e-01  9.5404855253590115e-01  9.5751873152452083e-01  9.7076644430817050e-01  9.9105258633288795e-01  1.0131554727425838e+00  1.0165404306617583e+00  1.0023648673159467e+00  9.9672149195069315e-01  9.9974010871078034e-01  1.0010131043002037e+00  9.9980639806408189e-01  9.9559719859836593e-01  1.0044600545386528e+00  1.0192409035596532e+00  1.0006128802601719e+00  9.5781299346753968e-01  9.3116620881310264e-01  9.2690497151635409e-01  9.2910820024938290e-01  9.3032457232162535e-01  9.3215531789114836e-01  9.3551414971267211e-01  9.3958069655801313e-01  9.4280075631020988e-01  9.4419357473155185e-01  9.4381761916097739e-01  9.4198772404165643e-01  9.3940145930187380e-01  9.3710895051148213e-01  9.3565134946239104e-01  9.3510174258786427e-01  9.3541946968866863e-01  9.3637654279075277e-01  9.3742821698710654e-01  9.3780723097534990e-01  9.3706703350897935e-01  9.3535502653939984e-01  9.3294500467323771e-01  9.3046190187058764e-01  9.2964280906348828e-01  9.3197112079605837e-01  9.3487274302432866e-01  9.3302544864552950e-01  9.4138494215825674e-01  9.7902277275158012e-01  1.0064859088158906e+00  1.0013354953993141e+00  9.9835107284418145e-01  1.0006905187414854e+00  1.0003503524817945e+00  9.9999930151509941e-01  1.0047749475738037e+00  9.7657898425684597e-01  1.0444607711341394e+00  6.4827110729906044e-03  1.5116093989182698e-02  -8.1964347539079385e-03  3.8084984347841293e-03  -1.1383383162272736e-03  1.2488156241682958e-04  6.9264694267296003e-05  -4.8518551937556747e-05  1.6818747361017606e-05  -3.3017025977456754e-06  -1.2922911415280905e-07  4.4576486317818180e-07  -2.3880083320034722e-07  8.8788909817609805e-08  -2.6026440529400405e-08  5.8993163746874638e-09  -7.8581531155052139e-10  -1.2986929860024688e-10  1.5097463253581217e-10  -7.4053408686796115e-11  2.8127969778732978e-11  -9.2030461615995217e-12  2.6950217401001786e-12  -6.9821616831790480e-13  1.5314490780286335e-13  -1.8564857066662336e-14  -2.6668513935670855e-15  4.9041247631670655e-15  -1.4963636312093240e-15  1.2401906967232523e-15  1.0270452134018484e-16  3.4051776565599860e-16  2.1470481354652542e-16  1.7089070044551388e-16  1.4907204797809593e-16  1.0822184510694028e-16  1.0937780161555712e-16  1.1133962643284957e-16  1.1109475696590981e-16  9.9853500738185808e-01  9.9808375930956017e-01  9.9659356516570918e-01  9.9771120172822214e-01  1.0028780470161500e+00  1.0104899368545712e+00  1.0117529096417615e+00  1.0029868720079202e+00  9.9477962537915499e-01  9.9326119869057206e-01  9.9725813506042116e-01  1.0055085788898905e+00  1.0116097412058160e+00  1.0099055395504843e+00  1.0042927114913165e+00  1.0000785102113041e+00  9.9757203141085593e-01  9.9670967152623979e-01  9.9756339924326276e-01  9.9897515502414524e-01  1.0001247962800905e+00  1.0007604120012352e+00  1.0005995521875903e+00  1.0000548202360768e+00  9.9987527881874028e-01  9.9999441934310696e-01  1.0000088644500740e+00  1.0000288911421336e+00  9.9993387905351605e-01  1.0000068181963098e+00  1.0005022487474469e+00  9.9834124870551721e-01  1.0007671966184084e+00  1.0088713347480789e+00  9.9684242498801123e-01  9.6889606069113232e-01  9.5518627872227801e-01  9.5523053737093155e-01  9.5621319504475111e-01  9.5671089527936737e-01  9.5879056318834566e-01  9.6180069495008802e-01  9.6426800437312477e-01  9.6528862005658422e-01  9.6486110604749065e-01  9.6369043901952245e-01  9.6260810422602405e-01  9.6206166664159709e-01  9.6189013032677217e-01  9.6174579917319347e-01  9.6163389773566865e-01  9.6171516442898197e-01  9.6209552499648876e-01  9.6271315630547327e-01  9.6326186127735003e-01  9.6350032453739864e-01  9.6340320387663081e-01  9.6307539772872564e-01  9.6278718651405615e-01  9.6274714564941244e-01  9.6285882641510900e-01  9.6299676078071261e-01  9.6319319216060362e-01  9.6351520959283643e-01  9.6400111035866765e-01  9.6465373070595339e-01  9.6540214277104008e-01  9.6601733365407350e-01  9.6619864405463707e-01  9.6590069571090875e-01  9.6534290376059062e-01  9.6473656824140663e-01  9.6422927075420839e-01  9.6387753943421217e-01  9.6367673193759285e-01  9.6371924083229654e-01  9.6415421388192069e-01  9.6500163147935281e-01  9.6606673476887839e-01  9.6699005558303663e-01  9.6731415872955162e-01  9.6649213625388197e-01  9.6399187102104222e-01  9.6000994781440829e-01  9.5664877526717984e-01  9.5592428169076149e-01  9.5553316826577861e-01  9.6290858492062059e-01  9.8809085130378971e-01  1.0045643368534338e+00  1.0005573833974086e+00  9.9906760222332880e-01  1.0002400725771079e+00  1.0002275739399193e+00  1.0006012929461279e+00  9.9820883345140721e-01  9.9727447214836196e-01  1.0050257503591031e+00  1.0122341429826811e+00  1.0020788428026433e+00  9.7566721504522713e-01  9.5450651925668584e-01  9.6136500763100352e-01  9.8035042694782171e-01  9.8134782603251702e-01  9.6519730135380111e-01  9.5774133426806685e-01  9.7445467850200074e-01  9.9937876246362733e-01  1.0099634831451696e+00  1.0035741149421151e+00  9.9822235140419757e-01  9.9966046823222088e-01  1.0007800095897936e+00  9.9885460782592561e-01  9.9918829935204190e-01  1.0084637580622233e+00  1.0004984198933089e+00  9.6441787785863309e-01  9.6343842109667543e-01  1.0088903286676976e+00  1.0549410615534267e+00  1.0930096341021875e+00  1.1156650970466166e+00  1.1127211421693211e+00  1.0698381151456731e+00  9.9406778619659264e-01  9.7794392433514610e-01  1.0041601492703591e+00  1.0017056858229545e+00  9.9715996392256656e-01  1.0000099611070716e+00  1.0091740217742580e+00  1.0050686327312519e+00  9.7101527853456104e-01  9.5797762085885751e-01  1.0003216025987316e+00  1.0532487619660176e+00  1.0851313792551733e+00  1.0917241013040306e+00  1.0728275471098372e+00  1.0401593546094119e+00  9.9447692831546430e-01  9.6216345307335083e-01  9.8042719749405915e-01  1.0058408832730823e+00  1.0029408613280899e+00  9.9897123506809171e-01  9.9821611649419073e-01  1.0040594935753810e+00  1.0070156267182853e+00  9.7218495840011498e-01  9.6755432607418135e-01  1.0420634410439193e+00  1.1184580069506447e+00  1.1448911804405637e+00  1.1419849771507122e+00  1.1382099189865162e+00  1.1356456966576411e+00  1.1307314974955176e+00  1.1233427515204604e+00  1.1159471708533597e+00  1.1114675957115192e+00  1.1106511035959516e+00  1.1129423551642206e+00  1.1176129701536628e+00  1.1226437797405413e+00  1.1263220492350814e+00  1.1282311217974168e+00  1.1283757707998359e+00  1.1269920935967370e+00  1.1248259667722473e+00  1.1232232075827275e+00  1.1235664826051264e+00  1.1260520996404011e+00  1.1300695247705310e+00  1.1349586890308434e+00  1.1383954120693720e+00  1.1363064257875768e+00  1.1287464981687416e+00  1.1258991890252992e+00  1.1287596991669844e+00  1.0854447961893741e+00  1.0012006965518268e+00  9.8860115629658096e-01  1.0048865175279496e+00  9.9903440477962446e-01  9.9954032483075061e-01  9.9906178285228853e-01  9.9837211611705456e-01  9.9891462986733115e-01  1.0368838542252463e+00  3.3605691293483142e-01  -5.7252931647808876e-02  2.2930594063223949e-02  -7.6720819370498456e-03  9.1758361526487358e-04  5.3091447039660541e-04  -3.7100951059286925e-04  1.2503530993335341e-04  -2.2521163803446935e-05  -2.0249071937922592e-06  3.5852678245757350e-06  -1.7696074916170190e-06  6.1632959661148836e-07  -1.6720314818417056e-07  3.3250511095222475e-08  -2.5150316120818731e-09  -1.7766174647823059e-09  1.2494546727717608e-09  -5.4234703943373732e-10  1.9144088289132368e-10  -5.8791085701504617e-11  1.6065503145722225e-11  -3.8454102063775617e-12  7.2784391154134411e-13  -4.4461398653267588e-14  -4.6830864709152408e-14  3.4769979736716282e-14  -1.4188692902456370e-14  5.9622855645568922e-15  -1.1401936838231499e-15  7.8098640768840232e-16  2.1521929195178191e-16  2.2997098247000686e-16  1.8772772145238817e-16  1.6148810220085712e-16  9.5342267199342341e-17  1.1690108745812060e-16  1.1131858670042312e-16  1.1056006948540467e-16  1.0036019384894574e+00  1.0040146187997843e+00  1.0100305577409729e+00  1.0116211683161385e+00  1.0008794051523549e+00  9.7699472236445173e-01  9.5504839695060217e-01  9.7115296954243058e-01  1.0075698674396665e+00  1.0232575763728837e+00  1.0190453948270342e+00  9.9653731401227874e-01  9.6677947678984633e-01  9.5858478515687362e-01  9.7548137091809706e-01  9.9335380799740114e-01  1.0045930446614879e+00  1.0109581119808728e+00  1.0106008787818783e+00  1.0059571252671653e+00  1.0014351524186078e+00  9.9814584950919194e-01  9.9721415722436213e-01  9.9891732809518474e-01  1.0003965791760721e+00  1.0002214612802396e+00  9.9989609581913708e-01  1.0000451190430650e+00  9.9984638043832663e-01  1.0004524362443314e+00  9.9924306962718490e-01  9.9932184171881722e-01  1.0083349816927114e+00  9.8198410071190967e-01  9.7288933861334614e-01  1.0625908732490290e+00  1.1433664439664342e+00  1.1584103849245513e+00  1.1537238604293372e+00  1.1529344403136137e+00  1.1485415349167214e+00  1.1389385705167048e+00  1.1287838523153064e+00  1.1224837802589578e+00  1.1216602296649816e+00  1.1248760435785687e+00  1.1291350624723289e+00  1.1320613805542876e+00  1.1330887269051504e+00  1.1335523177028621e+00  1.1340978613868204e+00  1.1341970625093789e+00  1.1334377510439531e+00  1.1315927224967655e+00  1.1293789787289052e+00  1.1279640216398237e+00  1.1277370398753346e+00  1.1285512809719491e+00  1.1297988909550867e+00  1.1303904689433915e+00  1.1301566774324747e+00  1.1297152256995928e+00  1.1291667115974986e+00  1.1282837307728550e+00  1.1268810566950200e+00  1.1248832691578985e+00  1.1223800768054801e+00  1.1198474853302383e+00  1.1183334652723222e+00  1.1186200043115042e+00  1.1202330321466465e+00  1.1223384081733354e+00  1.1243464143977373e+00  1.1258371045235678e+00  1.1268067000410928e+00  1.1271609925548511e+00  1.1263815723362485e+00  1.1241011627280970e+00  1.1206217886784808e+00  1.1169624428870399e+00  1.1145620525754889e+00  1.1151726721917390e+00  1.1207679581460641e+00  1.1324647776015844e+00  1.1468001714440257e+00  1.1543201357014685e+00  1.1534971523833111e+00  1.1505515824625150e+00  1.0941666659562095e+00  9.9644094513172898e-01  9.8874947411899061e-01  1.0057495119864814e+00  9.9845339736916983e-01  1.0007643229375589e+00  9.9745345780745542e-01  1.0005945183160809e+00  1.0105772591205824e+00  1.0012327800266201e+00  9.6422185922459835e-01  9.6499081085019256e-01  1.0343290997885954e+00  1.1313027282689867e+00  1.1633552289448592e+00  1.0964020225325699e+00  1.0552100223037939e+00  1.0884541722570982e+00  1.1467886509821137e+00  1.1281191904982459e+00  1.0435145790510896e+00  9.7299930037747429e-01  9.7168733952046260e-01  1.0026704271109346e+00  1.0040705317451302e+00  9.9847506523008767e-01  9.9860177317103638e-01  1.0073097381995055e+00  9.9128028525604395e-01  9.6440358214502064e-01  1.0549936726144560e+00  1.1645083034072601e+00  1.0513957711549498e+00  8.7953468645975708e-01  7.1563104604768935e-01  5.6499577275212531e-01  5.0085997265061377e-01  5.9327048437083085e-01  8.7002187314681001e-01  1.1083520259364379e+00  1.0091764953139508e+00  9.8440727867454769e-01  1.0062198237460764e+00  1.0072259935397270e+00  9.8753741718150045e-01  9.5998184505793394e-01  1.0292582464327609e+00  1.1555444485689146e+00  1.0915699950669366e+00  8.9305444458327432e-01  7.3033068844433102e-01  6.3570971276671284e-01  6.6480786063872266e-01  7.7997701569381483e-01  9.2426102822076595e-01  1.0951278049162354e+00  1.1259327826970031e+00  1.0044047151306232e+00  9.7807235413277283e-01  1.0030056522384405e+00  1.0012561411508660e+00  1.0055966815114692e+00  9.6941069341392361e-01  1.0121919870146119e+00  1.1563888984288653e+00  1.0029419371504362e+00  6.7689677910337909e-01  3.9003611714913633e-01  2.6924091315820381e-01  2.4965879966685364e-01  2.8122607950603551e-01  3.3951808735314909e-01  4.0688828497724655e-01  4.6790305119373565e-01  5.1022485163185494e-01  5.2735916401352978e-01  5.2544480007575556e-01  5.0641708114664685e-01  4.7608824944338096e-01  4.4668961168211263e-01  4.2535961352442586e-01  4.1532051548880045e-01  4.1805327489178384e-01  4.3049579275421224e-01  4.4455711737805581e-01  4.4990731486852975e-01  4.3953565226801822e-01  4.1433944346390150e-01  3.7380273261265018e-01  3.1510226027229127e-01  2.4538924043681784e-01  1.8427422181314232e-01  1.5585898134096865e-01  1.8960371890337308e-01  3.8109660283251429e-01  8.2682119953587518e-01  1.0711692772225021e+00  9.8085539327710403e-01  1.0023390711977107e+00  9.9996548324084156e-01  1.0036478050459490e+00  1.0037074431813608e+00  1.0032161747403303e+00  9.8297600948719244e-01  1.0510295878194205e+00  2.8126597404419490e-01  -1.0021412914889748e-01  2.3180357358493064e-02  3.4424574337696403e-03  -4.4752124045281299e-03  1.7567035682726235e-03  -3.8073458410439493e-04  3.3082338184016817e-06  4.0508321193655629e-05  -2.2939986364747456e-05  8.6538383160831250e-06  -2.5543217379812612e-06  5.8619295579990748e-07  -8.2541112350948680e-08  -1.0005588726128209e-08  1.3749414738273825e-08  -6.9373683472777257e-09  2.6754707471130697e-09  -8.8326193100263361e-10  2.5892531097011794e-10  -6.7692562291444132e-11  1.5061023732081024e-11  -2.2364737806252787e-12  -2.0928543339570267e-13  3.6168129336033651e-13  -1.8922884144314348e-13  7.5453265039646151e-14  -2.3562407807495745e-14  7.2441726842791104e-15  -1.0291343205368372e-15  4.8851743436344375e-16  3.3327381164120075e-16  1.5548254578551278e-16  1.8282284979209915e-16  1.5446597707388449e-16  1.0291910922882299e-16  1.0368149495041172e-16  1.1249602940533826e-16  9.8991409126630225e-01  9.9095500881355569e-01  9.7470600160807352e-01  9.5479751360184550e-01  9.7026066911626174e-01  1.0352574018553626e+00  1.1334758276184180e+00  1.1658152280149956e+00  1.0296169278045726e+00  9.3107104635072047e-01  9.1059583370909225e-01  9.6078303954494759e-01  1.0695270343247678e+00  1.1570267900572209e+00  1.1275701236494453e+00  1.0533792065131069e+00  1.0020463963401012e+00  9.6843133868403808e-01  9.5634391191406320e-01  9.6886235932448794e-01  9.8682025081859837e-01  1.0013658886872803e+00  1.0102244885166425e+00  1.0080674231822844e+00  1.0001634981180314e+00  9.9838813784478497e-01  1.0001207210733216e+00  1.0002328397766749e+00  9.9971621404593647e-01  1.0007451777868230e+00  9.9751005736586074e-01  1.0067481798099129e+00  9.9089922013620235e-01  9.7867647339235353e-01  1.1385507417233789e+00  9.7288548865056190e-01  5.3513396560080861e-01  2.4925569095628095e-01  1.7456696387602028e-01  1.8441101260362794e-01  2.4292727038855572e-01  3.2603821147381989e-01  4.0555657415629986e-01  4.5942065793402520e-01  4.8133783522012874e-01  4.7383234094332449e-01  4.5158254332670056e-01  4.2902991226167192e-01  4.1721934307081321e-01  4.1402423399407928e-01  4.1022664028887118e-01  4.0767990099122281e-01  4.0937384308026131e-01  4.1715069998603932e-01  4.3083167928781768e-01  4.4240616856936127e-01  4.4746276805346258e-01  4.4586409057271970e-01  4.3931337275781279e-01  4.3277001036085155e-01  4.3227738858662068e-01  4.3453973250758188e-01  4.3729015969723961e-01  4.4132719684987354e-01  4.4789637596996945e-01  4.5764723977937927e-01  4.7046468001524416e-01  4.8488290354180075e-01  4.9687426646223853e-01  5.0056365448996454e-01  4.9494870471432667e-01  4.8476708902312093e-01  4.7303273208163471e-01  4.6298060560648913e-01  4.5596124383418291e-01  4.5164959429977414e-01  4.5203001994617514e-01  4.6033590015128645e-01  4.7657625025082379e-01  4.9662239182455648e-01  5.1340985917234860e-01  5.1929909905203853e-01  5.0462608360236549e-01  4.5826134458633860e-01  3.7310142682432162e-01  2.6670149019103595e-01  1.8990353127192228e-01  1.8044095104950372e-01  3.4262858978568889e-01  8.4653864874564000e-01  1.0883538168613924e+00  9.7169181841216401e-01  1.0069815728698068e+00  9.9647647195764799e-01  1.0025630809528987e+00  1.0105284605863023e+00  9.7906358088247569e-01  9.6016223544334123e-01  1.0553414448556855e+00  1.1758368704539610e+00  1.0210974418332859e+00  6.8933678464152692e-01  2.4710850841284021e-01  4.9231448187338309e-02  -2.7351275683017911e-02  -2.7185727197783109e-02  5.1067221579184363e-02  2.5184637443289948e-01  6.4958519405012516e-01  9.8658039665756481e-01  1.1486881424767337e+00  1.0318270057898835e+00  9.7458449078645759e-01  1.0019628643455596e+00  1.0040737609646213e+00  9.9889608179471423e-01  9.6932029335279457e-01  1.1036280170936830e+00  1.0542740183144452e+00  4.8526978414671307e-01  4.5027820774214224e-02  -1.2224080056921260e-01  -1.5778223356032459e-01  -1.3952041248536576e-01  -1.1865638769932699e-01  -1.1711793501599629e-01  -1.5392183466036818e-01  -1.8682838170326371e-02  7.5718533631789564e-01  1.0889823482452599e+00  9.8308284280258118e-01  9.8909041875919079e-01  9.7662372687846954e-01  1.1217507041306982e+00  1.0870