<?xml version="1.0"?>
<VTKFile type="UnstructuredGrid"  version="0.1"  >
<UnstructuredGrid>
<Piece  NumberOfPoints="7161" NumberOfCells="13800">
<Points>
<DataArray  type="Float64"  NumberOfComponents="3"  format="ascii">0 0 0  0.01652173913043478 0 0  0.03304347826086956 0 0  0.04956521739130434 0 0  0.06608695652173913 0 0  0.08260869565217391 0 0  0.09913043478260869 0 0  0.1156521739130435 0 0  0.1321739130434783 0 0  0.148695652173913 0 0  0.1652173913043478 0 0  0.1817391304347826 0 0  0.1982608695652174 0 0  0.2147826086956522 0 0  0.2313043478260869 0 0  0.2478260869565218 0 0  0.2643478260869565 0 0  0.2808695652173913 0 0  0.2973913043478261 0 0  0.3139130434782609 0 0  0.3304347826086956 0 0  0.3469565217391304 0 0  0.3634782608695652 0 0  0.3799999999999999 0 0  0.3965217391304348 0 0  0.4130434782608696 0 0  0.4295652173913043 0 0  0.4460869565217391 0 0  0.4626086956521739 0 0  0.4791304347826086 0 0  0.4956521739130435 0 0  0.5121739130434783 0 0  0.528695652173913 0 0  0.5452173913043478 0 0  0.5617391304347825 0 0  0.5782608695652174 0 0  0.5947826086956521 0 0  0.6113043478260869 0 0  0.6278260869565218 0 0  0.6443478260869565 0 0  0.6608695652173913 0 0  0.677391304347826 0 0  0.6939130434782609 0 0  0.7104347826086956 0 0  0.7269565217391304 0 0  0.7434782608695653 0 0  0.7599999999999999 0 0  0.7765217391304348 0 0  0.7930434782608695 0 0  0.8095652173913043 0 0  0.8260869565217391 0 0  0.8426086956521739 0 0  0.8591304347826086 0 0  0.8756521739130434 0 0  0.8921739130434783 0 0  0.908695652173913 0 0  0.9252173913043478 0 0  0.9417391304347826 0 0  0.9582608695652173 0 0  0.9747826086956521 0 0  0.991304347826087 0 0  1.007826086956522 0 0  1.024347826086957 0 0  1.040869565217391 0 0  1.057391304347826 0 0  1.073913043478261 0 0  1.090434782608696 0 0  1.10695652173913 0 0  1.123478260869565 0 0  1.14 0 0  1.156521739130435 0 0  1.17304347826087 0 0  1.189565217391304 0 0  1.206086956521739 0 0  1.222608695652174 0 0  1.239130434782609 0 0  1.255652173913044 0 0  1.272173913043478 0 0  1.288695652173913 0 0  1.305217391304348 0 0  1.321739130434783 0 0  1.338260869565217 0 0  1.354782608695652 0 0  1.371304347826087 0 0  1.387826086956522 0 0  1.404347826086957 0 0  1.420869565217391 0 0  1.437391304347826 0 0  1.453913043478261 0 0  1.470434782608696 0 0  1.486956521739131 0 0  1.503478260869565 0 0  1.52 0 0  1.536521739130435 0 0  1.55304347826087 0 0  1.569565217391304 0 0  1.586086956521739 0 0  1.602608695652174 0 0  1.619130434782609 0 0  1.635652173913043 0 0  1.652173913043478 0 0  1.668695652173913 0 0  1.685217391304348 0 0  1.701739130434782 0 0  1.718260869565217 0 0  1.734782608695652 0 0  1.751304347826087 0 0  1.767826086956522 0 0  1.784347826086957 0 0  1.800869565217391 0 0  1.817391304347826 0 0  1.833913043478261 0 0  1.850434782608696 0 0  1.86695652173913 0 0  1.883478260869565 0 0  1.9 0 0  1.916521739130435 0 0  1.933043478260869 0 0  1.949565217391304 0 0  1.966086956521739 0 0  1.982608695652174 0 0  1.999130434782608 0 0  2.015652173913043 0 0  2.032173913043478 0 0  2.048695652173913 0 0  2.065217391304348 0 0  2.081739130434782 0 0  2.098260869565217 0 0  2.114782608695652 0 0  2.131304347826087 0 0  2.147826086956522 0 0  2.164347826086956 0 0  2.180869565217391 0 0  2.197391304347826 0 0  2.213913043478261 0 0  2.230434782608695 0 0  2.24695652173913 0 0  2.263478260869565 0 0  2.28 0 0  2.296521739130434 0 0  2.31304347826087 0 0  2.329565217391304 0 0  2.346086956521739 0 0  2.362608695652174 0 0  2.379130434782609 0 0  2.395652173913044 0 0  2.412173913043478 0 0  2.428695652173913 0 0  2.445217391304348 0 0  2.461739130434782 0 0  2.478260869565217 0 0  2.494782608695652 0 0  2.511304347826087 0 0  2.527826086956522 0 0  2.544347826086956 0 0  2.560869565217391 0 0  2.577391304347826 0 0  2.593913043478261 0 0  2.610434782608696 0 0  2.62695652173913 0 0  2.643478260869565 0 0  2.66 0 0  2.676521739130435 0 0  2.693043478260869 0 0  2.709565217391304 0 0  2.726086956521739 0 0  2.742608695652174 0 0  2.759130434782609 0 0  2.775652173913044 0 0  2.792173913043478 0 0  2.808695652173913 0 0  2.825217391304347 0 0  2.841739130434783 0 0  2.858260869565217 0 0  2.874782608695652 0 0  2.891304347826087 0 0  2.907826086956522 0 0  2.924347826086957 0 0  2.940869565217391 0 0  2.957391304347826 0 0  2.973913043478261 0 0  2.990434782608696 0 0  3.006956521739131 0 0  3.023478260869565 0 0  3.04 0 0  3.056521739130435 0 0  3.073043478260869 0 0  3.089565217391304 0 0  3.106086956521739 0 0  3.122608695652174 0 0  3.139130434782609 0 0  3.155652173913043 0 0  3.172173913043478 0 0  3.188695652173913 0 0  3.205217391304347 0 0  3.221739130434782 0 0  3.238260869565217 0 0  3.254782608695652 0 0  3.271304347826087 0 0  3.287826086956521 0 0  3.304347826086957 0 0  3.320869565217391 0 0  3.337391304347826 0 0  3.353913043478261 0 0  3.370434782608696 0 0  3.386956521739131 0 0  3.403478260869565 0 0  3.419999999999999 0 0  3.436521739130435 0 0  3.453043478260869 0 0  3.469565217391304 0 0  3.486086956521739 0 0  3.502608695652174 0 0  3.519130434782609 0 0  3.535652173913043 0 0  3.552173913043478 0 0  3.568695652173913 0 0  3.585217391304347 0 0  3.601739130434782 0 0  3.618260869565217 0 0  3.634782608695652 0 0  3.651304347826087 0 0  3.667826086956521 0 0  3.684347826086956 0 0  3.700869565217391 0 0  3.717391304347826 0 0  3.733913043478261 0 0  3.750434782608695 0 0  3.766956521739131 0 0  3.783478260869565 0 0  3.8 0 0  0 0.01666666666666667 0  0.01652173913043478 0.01666666666666667 0  0.03304347826086956 0.01666666666666667 0  0.04956521739130434 0.01666666666666667 0  0.06608695652173913 0.01666666666666667 0  0.08260869565217391 0.01666666666666667 0  0.09913043478260869 0.01666666666666667 0  0.1156521739130435 0.01666666666666667 0  0.1321739130434783 0.01666666666666667 0  0.148695652173913 0.01666666666666667 0  0.1652173913043478 0.01666666666666667 0  0.1817391304347826 0.01666666666666667 0  0.1982608695652174 0.01666666666666667 0  0.2147826086956522 0.01666666666666667 0  0.2313043478260869 0.01666666666666667 0  0.2478260869565218 0.01666666666666667 0  0.2643478260869565 0.01666666666666667 0  0.2808695652173913 0.01666666666666667 0  0.2973913043478261 0.01666666666666667 0  0.3139130434782609 0.01666666666666667 0  0.3304347826086956 0.01666666666666667 0  0.3469565217391304 0.01666666666666667 0  0.3634782608695652 0.01666666666666667 0  0.3799999999999999 0.01666666666666667 0  0.3965217391304348 0.01666666666666667 0  0.4130434782608696 0.01666666666666667 0  0.4295652173913043 0.01666666666666667 0  0.4460869565217391 0.01666666666666667 0  0.4626086956521739 0.01666666666666667 0  0.4791304347826086 0.01666666666666667 0  0.4956521739130435 0.01666666666666667 0  0.5121739130434783 0.01666666666666667 0  0.528695652173913 0.01666666666666667 0  0.5452173913043478 0.01666666666666667 0  0.5617391304347825 0.01666666666666667 0  0.5782608695652174 0.01666666666666667 0  0.5947826086956521 0.01666666666666667 0  0.6113043478260869 0.01666666666666667 0  0.6278260869565218 0.01666666666666667 0  0.6443478260869565 0.01666666666666667 0  0.6608695652173913 0.01666666666666667 0  0.677391304347826 0.01666666666666667 0  0.6939130434782609 0.01666666666666667 0  0.7104347826086956 0.01666666666666667 0  0.7269565217391304 0.01666666666666667 0  0.7434782608695653 0.01666666666666667 0  0.7599999999999999 0.01666666666666667 0  0.7765217391304348 0.01666666666666667 0  0.7930434782608695 0.01666666666666667 0  0.8095652173913043 0.01666666666666667 0  0.8260869565217391 0.01666666666666667 0  0.8426086956521739 0.01666666666666667 0  0.8591304347826086 0.01666666666666667 0  0.8756521739130434 0.01666666666666667 0  0.8921739130434783 0.01666666666666667 0  0.908695652173913 0.01666666666666667 0  0.9252173913043478 0.01666666666666667 0  0.9417391304347826 0.01666666666666667 0  0.9582608695652173 0.01666666666666667 0  0.9747826086956521 0.01666666666666667 0  0.991304347826087 0.01666666666666667 0  1.007826086956522 0.01666666666666667 0  1.024347826086957 0.01666666666666667 0  1.040869565217391 0.01666666666666667 0  1.057391304347826 0.01666666666666667 0  1.073913043478261 0.01666666666666667 0  1.090434782608696 0.01666666666666667 0  1.10695652173913 0.01666666666666667 0  1.123478260869565 0.01666666666666667 0  1.14 0.01666666666666667 0  1.156521739130435 0.01666666666666667 0  1.17304347826087 0.01666666666666667 0  1.189565217391304 0.01666666666666667 0  1.206086956521739 0.01666666666666667 0  1.222608695652174 0.01666666666666667 0  1.239130434782609 0.01666666666666667 0  1.255652173913044 0.01666666666666667 0  1.272173913043478 0.01666666666666667 0  1.288695652173913 0.01666666666666667 0  1.305217391304348 0.01666666666666667 0  1.321739130434783 0.01666666666666667 0  1.338260869565217 0.01666666666666667 0  1.354782608695652 0.01666666666666667 0  1.371304347826087 0.01666666666666667 0  1.387826086956522 0.01666666666666667 0  1.404347826086957 0.01666666666666667 0  1.420869565217391 0.01666666666666667 0  1.437391304347826 0.01666666666666667 0  1.453913043478261 0.01666666666666667 0  1.470434782608696 0.01666666666666667 0  1.486956521739131 0.01666666666666667 0  1.503478260869565 0.01666666666666667 0  1.52 0.01666666666666667 0  1.536521739130435 0.01666666666666667 0  1.55304347826087 0.01666666666666667 0  1.569565217391304 0.01666666666666667 0  1.586086956521739 0.01666666666666667 0  1.602608695652174 0.01666666666666667 0  1.619130434782609 0.01666666666666667 0  1.635652173913043 0.01666666666666667 0  1.652173913043478 0.01666666666666667 0  1.668695652173913 0.01666666666666667 0  1.685217391304348 0.01666666666666667 0  1.701739130434782 0.01666666666666667 0  1.718260869565217 0.01666666666666667 0  1.734782608695652 0.01666666666666667 0  1.751304347826087 0.01666666666666667 0  1.767826086956522 0.01666666666666667 0  1.784347826086957 0.01666666666666667 0  1.800869565217391 0.0166666666666666
[...]
<PointData  Scalars="rho_bar"> 
<DataArray  type="Float64"  Name="rho_bar"  format="ascii">1.0010554342106810e+00  1.0013563759043898e+00  1.0016481475584895e+00  1.0000098974352696e+00  9.9640739380292653e-01  9.9381633111486245e-01  9.9628758609369228e-01  1.0014364691520656e+00  1.0041445302846763e+00  1.0036979229610496e+00  1.0006958348127895e+00  9.9629958317290956e-01  9.9409641376297730e-01  9.9564519444290767e-01  9.9836795483265073e-01  1.0002710518436495e+00  1.0013693864478026e+00  1.0016020993887134e+00  1.0010657794861910e+00  1.0003411137264893e+00  9.9979890329672316e-01  9.9961804449730773e-01  9.9981319201146179e-01  1.0000340805802712e+00  1.0000406895218217e+00  9.9999597644240579e-01  9.9998689124828499e-01  1.0000044497935112e+00  1.0000574434886502e+00  9.9977237697780519e-01  1.0003000694220294e+00  1.0007226830341236e+00  9.9714989411288579e-01  9.9716774257621976e-01  1.0086192189759768e+00  1.0201520858113993e+00  1.0228340502294977e+00  1.0220229618499026e+00  1.0218047037367610e+00  1.0213311321557932e+00  1.0200842963718471e+00  1.0187083508278039e+00  1.0178494299172265e+00  1.0177508683939911e+00  1.0182165715715010e+00  1.0188285810686142e+00  1.0192484455192525e+00  1.0194164165918569e+00  1.0194940682459428e+00  1.0195743455888091e+00  1.0196005655464417e+00  1.0194998045979073e+00  1.0192536628982072e+00  1.0189579020374311e+00  1.0187620265164685e+00  1.0187315828036032e+00  1.0188461198064096e+00  1.0190090565157668e+00  1.0190853534408082e+00  1.0190492726322695e+00  1.0189725083015111e+00  1.0188781364621602e+00  1.0187349440377804e+00  1.0185164947424008e+00  1.0182126834598799e+00  1.0178363264090711e+00  1.0174611133513700e+00  1.0172356564075435e+00  1.0172613587291548e+00  1.0174847871129131e+00  1.0177869283129690e+00  1.0180761330694394e+00  1.0182997020948965e+00  1.0184504833669328e+00  1.0185109213906767e+00  1.0184128604696907e+00  1.0181055318464247e+00  1.0176319244024943e+00  1.0171335488640156e+00  1.0168130983788206e+00  1.0169148244684154e+00  1.0177149624041835e+00  1.0193385232706182e+00  1.0211819624115084e+00  1.0219579100704337e+00  1.0222717916925392e+00  1.0212425048877931e+00  1.0123489804459718e+00  1.0004695819293865e+00  9.9816621203713252e-01  1.0004166953201519e+00  1.0001735453323568e+00  9.9986846288391695e-01  9.9971214136761288e-01  1.0001959862898189e+00  1.0015062970171358e+00  9.9978409967860127e-01  9.9505090943693830e-01  9.9523560770781583e-01  1.0052764607707430e+00  1.0188808426301399e+00  1.0224132439992726e+00  1.0134819481610773e+00  1.0067053075510786e+00  1.0112863006075246e+00  1.0197844091643937e+00  1.0190247105418395e+00  1.0074597279239688e+00  9.9687958656004583e-01  9.9600971534939320e-01  9.9987298048907847e-01  1.0007622377262433e+00  9.9972697633779772e-01  1.0000074145909810e+00  1.0009904423737350e+00  9.9789847770087303e-01  9.9597849466715005e-01  1.0095735637762833e+00  1.0209998441158286e+00  1.0058646767250417e+00  9.7867856259145947e-01  9.5467977563298045e-01  9.3780755993223130e-01  9.3178890458329977e-01  9.3792626197988238e-01  9.6933776616206058e-01  1.0063288607717802e+00  1.0079989531028200e+00  9.9756480860259689e-01  1.0004667385377162e+00  1.0008735437308667e+00  9.9556185354993643e-01  9.9597600544452314e-01  1.0111755833596028e+00  1.0215541237816572e+00  1.0039022128975548e+00  9.7286237269709741e-01  9.4907773188640454e-01  9.3978439301338668e-01  9.4493274575209063e-01  9.6019501408792296e-01  9.8357992685076012e-01  1.0094829310619606e+00  1.0169319436332740e+00  1.0034613897733768e+00  9.9669112601735477e-01  9.9966558371529068e-01  1.0009443823637787e+00  1.0000418660377912e+00  9.9574933990085912e-01  1.0027664587123635e+00  1.0185109574149556e+00  1.0060834549050377e+00  9.6679706700765500e-01  9.3705450423746028e-01  9.2838229119487581e-01  9.2902841819607529e-01  9.3070128797519391e-01  9.3310196621604968e-01  9.3683134166636972e-01  9.4110359200795735e-01  9.4443826144581444e-01  9.4589455956963497e-01  9.4554484246310522e-01  9.4368683756539218e-01  9.4100495114274441e-01  9.3857725842768391e-01  9.3699120068644204e-01  9.3635991705904242e-01  9.3666176746211194e-01  9.3764750897079285e-01  9.3872361218427247e-01  9.3909267224739323e-01  9.3832964391008700e-01  9.3662834374811577e-01  9.3424054494758024e-01  9.3156874601513140e-01  9.2984125402224738e-01  9.3008675687761000e-01  9.3050664697453822e-01  9.3243901244185490e-01  9.5423742905816000e-01  9.9309654120878632e-01  1.0074831749651618e+00  9.9972031939601746e-01  9.9891708846250915e-01  1.0004665050914647e+00  1.0002330216880342e+00  9.9989204328972492e-01  1.0049116468486692e+00  9.7315740501441339e-01  1.0720626541236078e+00  2.9453501956007398e-02  1.5664345322925627e-02  -9.3096547085918351e-03  4.1199521410051274e-03  -1.1709764174167589e-03  1.1725598263390328e-04  7.3863346770588353e-05  -4.9821380294664049e-05  1.7116285260370775e-05  -3.3797669168986995e-06  -1.0254783247843903e-07  4.3661986552196784e-07  -2.3634457560598972e-07  8.8435452496555221e-08  -2.6115837855570362e-08  5.9967693749637384e-09  -8.3513890705622393e-10  -1.1064135535324130e-10  1.4462818117032212e-10  -7.2234739306691812e-11  2.7676649501392788e-11  -9.1105860056204164e-12  2.6833023588777582e-12  -7.0044931893881197e-13  1.5582142291137322e-13  -2.0071621982303589e-14  -2.0203866875466003e-15  4.6560430693749895e-15  -1.4151769643572568e-15  1.2196925221436365e-15  1.0805039740536519e-16  3.3938200291415177e-16  2.1545872675056990e-16  1.7267957718487081e-16  1.4845391491818370e-16  1.0836388665661746e-16  1.0935548019853531e-16  1.1134290737180502e-16  1.1109547252302808e-16  9.9839040152626335e-01  9.9801574272405524e-01  9.9656333842744693e-01  9.9780908184827710e-01  1.0031334544681261e+00  1.0107312482903721e+00  1.0114722643336846e+00  1.0020385656262887e+00  9.9343593684974862e-01  9.9156320316251045e-01  9.9492272065997600e-01  1.0029908714253737e+00  1.0107141250234069e+00  1.0110241599880880e+00  1.0058080267203680e+00  1.0011299637247717e+00  9.9818820007504883e-01  9.9676706037946683e-01  9.9720905633579948e-01  9.9862199760076975e-01  9.9992231929919750e-01  1.0007013914226275e+00  1.0006384272833895e+00  1.0000959340622868e+00  9.9987488338466113e-01  9.9998801951203375e-01  1.0000102607594075e+00  1.0000288523667875e+00  9.9993563087558557e-01  1.0000036252643136e+00  1.0005004873354466e+00  9.9835177436896771e-01  1.0007551946815105e+00  1.0088499097145112e+00  9.9676230195749560e-01  9.6872008757617778e-01  9.5509673491234681e-01  9.5531234716870150e-01  9.5629623216687198e-01  9.5660752189682530e-01  9.5844867321103477e-01  9.6127307482907409e-01  9.6363013495709138e-01  9.6458780102187991e-01  9.6412291394376803e-01  9.6293421501475385e-01  9.6184416125987615e-01  9.6128457371049503e-01  9.6109138569993058e-01  9.6092739528370008e-01  9.6079854424146338e-01  9.6085893384282250e-01  9.6121078119522152e-01  9.6179565447156201e-01  9.6231914264823604e-01  9.6254646783159670e-01  9.6245121366892372e-01  9.6213664926051168e-01  9.6186699258027164e-01  9.6184431747070254e-01  9.6197545837413145e-01  9.6213984494895077e-01  9.6236858245339507e-01  9.6272588458009700e-01  9.6324750570852036e-01  9.6393481570711159e-01  9.6471619817060272e-01  9.6536147435668795e-01  9.6556742287019759e-01  9.6528544737982525e-01  9.6473323651941789e-01  9.6412268319245420e-01  9.6360271018811072e-01  9.6323191025967136e-01  9.6300829233737650e-01  9.6302418373251097e-01  9.6342589946198254e-01  9.6423202317565848e-01  9.6524963113115181e-01  9.6612425309912087e-01  9.6640936078997564e-01  9.6557921466540930e-01  9.6314615924896529e-01  9.5938640236502903e-01  9.5641548156544798e-01  9.5597904891222008e-01  9.5559977594028167e-01  9.6335700684471826e-01  9.8873648668979153e-01  1.0045957617199908e+00  1.0004621340011088e+00  9.9911784947869942e-01  1.0002189279848608e+00  1.0002328386482664e+00  1.0005985122455370e+00  9.9820430945213279e-01  9.9728675624630769e-01  1.0050823409637584e+00  1.0122550753524273e+00  1.0018744088505884e+00  9.7523794166095834e-01  9.5427443100920639e-01  9.6230313902209985e-01  9.8268660432033139e-01  9.8480042172605209e-01  9.6807675890564493e-01  9.5739796012150002e-01  9.7189670481989987e-01  9.9776838833009818e-01  1.0098570263345921e+00  1.0037372476039577e+00  9.9825775842049647e-01  9.9965552935244595e-01  1.0007787086926012e+00  9.9884033498088387e-01  9.9923538912634446e-01  1.0085847048176475e+00  9.9974377423311833e-01  9.6304625376478092e-01  9.6623405637655646e-01  1.0163236123239456e+00  1.0673098011859918e+00  1.1101538012207068e+00  1.1324623620316090e+00  1.1329660770962131e+00  1.1012213439608407e+00  1.0177629140578206e+00  9.7431508451489934e-01  9.9969606166952762e-01  1.0033711375883034e+00  9.9600873525524380e-01  1.0033561764512366e+00  1.0115334082722109e+00  9.9716975486326642e-01  9.6053813009296485e-01  9.6725902301831856e-01  1.0238154136309683e+00  1.0810421734437654e+00  1.1151301699202483e+00  1.1178541644835838e+00  1.0964499713267228e+00  1.0579573898950898e+00  1.0060631754880835e+00  9.6508536259921784e-01  9.7760754429840158e-01  1.0051885334531927e+00  1.0031730593460533e+00  9.9901212636829495e-01  9.9830091738827653e-01  1.0032265812599941e+00  1.0081211861387671e+00  9.7644912820578289e-01  9.6359191272931899e-01  1.0254923252327597e+00  1.1024477370023975e+00  1.1382610188890436e+00  1.1419281439671414e+00  1.1385049345715188e+00  1.1346637169767464e+00  1.1286772415381197e+00  1.1206456859985987e+00  1.1128898882831213e+00  1.1082115594645379e+00  1.1072930802927226e+00  1.1095745716951371e+00  1.1143739331681546e+00  1.1196549006165193e+00  1.1236168958892154e+00  1.1257526875390667e+00  1.1259996537496624e+00  1.1245917285611611e+00  1.1223559534254235e+00  1.1207333361162140e+00  1.1211227718784540e+00  1.1236413469077611e+00  1.1276323867209705e+00  1.1326605333914845e+00  1.1371604066222214e+00  1.1382627063880668e+00  1.1361773670374367e+00  1.1354615804690467e+00  1.1200463460345278e+00  1.0516026483218852e+00  9.8717189379908188e-01  9.9372197656260430e-01  1.0038762014673257e+00  9.9927243005897937e-01  9.9975122910949510e-01  9.9936917411650517e-01  9.9837851343538664e-01  1.0002910261229958e+00  1.0345099726853151e+00  3.9560416617090616e-01  -7.0840052071178439e-02  2.6118360143679797e-02  -7.9311815591738277e-03  8.1557906783940974e-04  5.7892875744424202e-04  -3.8212693635868969e-04  1.2682100408140852e-04  -2.2846466700664593e-05  -1.9017715955812661e-06  3.5342155785747702e-06  -1.7549944420136541e-06  6.1458276560681277e-07  -1.6807586468256944e-07  3.4000168179575035e-08  -2.8684951904015631e-09  -1.6461527675634906e-09  1.2086200370141010e-09  -5.3136141727585181e-10  1.8897116624434438e-10  -5.8378561085102848e-11  1.6051367886021717e-11  -3.8771422926106957e-12  7.4958410610335313e-13  -5.5056622263376830e-14  -4.2435114954403079e-14  3.3165163828151239e-14  -1.3679026827705600e-14  5.8330388847460831e-15  -1.1202170703826934e-15  7.7923804652816899e-16  2.1174699357720528e-16  2.3380067443551160e-16  1.8130973287599520e-16  1.6247157048711302e-16  9.5247738948306093e-17  1.1688971829859228e-16  1.1132425886670058e-16  1.1055535743221267e-16  1.0040325380310671e+00  1.0042690660054321e+00  1.0102709264701928e+00  1.0115196931778827e+00  1.0002709742703288e+00  9.7597066802165722e-01  9.5481236612079601e-01  9.7348018769707623e-01  1.0116556583306899e+00  1.0285444386837512e+00  1.0258723247312511e+00  1.0056401385420213e+00  9.7377985037932902e-01  9.5752302562974834e-01  9.7006766989432858e-01  9.8891666609600282e-01  1.0016682289211378e+00  1.0096650728774930e+00  1.0113638078943123e+00  1.0073249107836100e+00  1.0024048317901963e+00  9.9859784494201032e-01  9.9721611144047251e-01  9.9872476250803321e-01  1.0003390496729201e+00  1.0002529262433746e+00  9.9989714652012007e-01  1.0000415493193362e+00  9.9984810377829070e-01  1.0004437400323389e+00  9.9926856967537858e-01  9.9930066021938402e-01  1.0083102588632564e+00  9.8208430982425154e-01  9.7298105934218271e-01  1.0630872081539602e+00  1.1439490131994774e+00  1.1583806837413233e+00  1.1533175982342077e+00  1.1529104495125322e+00  1.1493244387748021e+00  1.1404946019479889e+00  1.1308483208327367e+00  1.1248364979490393e+00  1.1241849692973651e+00  1.1274962753209212e+00  1.1317935934287571e+00  1.1347482934235174e+00  1.1358411915545654e+00  1.1363814757385879e+00  1.1369866943174192e+00  1.1371500787184579e+00  1.1364756897851769e+00  1.1347422967065848e+00  1.1326364326267340e+00  1.1312847497289247e+00  1.1310734793948090e+00  1.1318605869106428e+00  1.1330478374464674e+00  1.1335752669298762e+00  1.1332813983311902e+00  1.1327598580630616e+00  1.1321074853387787e+00  1.1311051603600120e+00  1.1295776004741478e+00  1.1274565731941719e+00  1.1248350794631712e+00  1.1221916638024156e+00  1.1205806260372022e+00  1.1207948452746901e+00  1.1223700281902862e+00  1.1244736660532939e+00  1.1265115815617002e+00  1.1280590055603867e+00  1.1291027856588716e+00  1.1295423256056141e+00  1.1288661411206706e+00  1.1267163898097254e+00  1.1233938706994384e+00  1.1199058502268340e+00  1.1176655390943186e+00  1.1183702771928108e+00  1.1238885992365266e+00  1.1351226939445580e+00  1.1483576031607103e+00  1.1544752142403099e+00  1.1531660864307625e+00  1.1501115582127726e+00  1.0916330806882000e+00  9.9511924915081751e-01  9.8946408641948469e-01  1.0054659684905993e+00  9.9855557935266703e-01  1.0007381497424712e+00  9.9746677230517911e-01  1.0005968776578298e+00  1.0105897129251142e+00  1.0011127003678693e+00  9.6401640395392441e-01  9.6520981341628642e-01  1.0355380514852082e+00  1.1327218523105433e+00  1.1627366814583044e+00  1.0902135124942258e+00  1.0451939341943881e+00  1.0755701121980890e+00  1.1415601158943824e+00  1.1348290835448529e+00  1.0520224504189231e+00  9.7524917103492548e-01  9.7120901021576267e-01  1.0023691568484381e+00  1.0040561255366491e+00  9.9848497491301524e-01  9.9861250211328767e-01  1.0073335222482471e+00  9.9094016363984094e-01  9.6469536491958485e-01  1.0596573553443041e+00  1.1654754484056127e+00  1.0301715354344889e+00  8.4653190711457904e-01  6.5012713162978841e-01  4.7318513167351528e-01  3.8811086249836829e-01  4.5149161770083157e-01  7.3523302965327697e-01  1.0754006295277556e+00  1.0445362550237673e+00  9.7391981903650482e-01  1.0121090159024513e+00  1.0037698369142172e+00  9.7211508588729723e-01  9.6661994936650308e-01  1.0711348000704441e+00  1.1684365824540093e+00  1.0175104851004779e+00  8.0585517986636179e-01  5.9577979434398121e-01  4.9808193653146504e-01  5.4228875491830220e-01  6.8921025526590951e-01  8.7101652390248552e-01  1.0646006536358636e+00  1.1327739227574642e+00  1.0106585276447557e+00  9.7724877715040603e-01  1.0031520159886946e+00  1.0006906583385731e+00  1.0062786466873310e+00  9.7214827752594979e-01  1.0009316807710258e+00  1.1473573073567549e+00  1.0437996632031044e+00  7.5010019226155500e-01  4.6874807303853827e-01  3.2593141662584335e-01  2.9160059891304196e-01  3.1394794119232328e-01  3.6607373438964080e-01  4.2946529788014143e-01  4.8819025596316590e-01  5.2943228652532104e-01  5.4632537155890726e-01  5.4462099929610308e-01  5.2595047958009833e-01  4.9586460115568681e-01  4.6644164313210584e-01  4.4485892437737273e-01  4.3448514783162223e-01  4.3691318943115270e-01  4.4902779695926875e-01  4.6264339410456168e-01  4.6759960201378559e-01  4.5749880897844653e-01  4.3410907912950614e-01  3.9777010919749400e-01  3.4622111233095632e-01  2.8661801270913356e-01  2.3903937114185189e-01  2.3162557969078315e-01  3.0829333410639498e-01  5.6986455513141354e-01  9.6190045577387628e-01  1.0552591163853564e+00  9.8312235458140995e-01  1.0019083113845471e+00  9.9943437319467443e-01  1.0027121826122083e+00  1.0028097315943592e+00  1.0023890533722815e+00  9.8219635540763783e-01  1.0615828857957350e+00  3.2386727968700468e-01  -1.0311865998176875e-01  2.1752245594156561e-02  4.1459458358020290e-03  -4.6343055450293828e-03  1.7810996436561008e-03  -3.8519903449230140e-04  5.2054298131924313e-06  3.9659403438793340e-05  -2.2673000707698292e-05  8.6068004889945145e-06  -2.5596994305677277e-06  5.9500003469789388e-07  -8.7217521767751024e-08  -8.1580887963055958e-09  1.3134517826933214e-08  -6.7590913715847616e-09  2.6308464853219009e-09  -8.7412878973849724e-10  2.5773992548929833e-10  -6.7865929462410961e-11  1.5297177045403712e-11  -2.3706500864750326e-12  -1.4933689990030376e-13  3.3864837376383986e-13  -1.8154683832697262e-13  7.3318509095699083e-14  -2.3149968735905863e-14  7.2444660303028673e-15  -1.0789807985047450e-15  5.1432304227180225e-16  3.2201054985169674e-16  1.5403979227076047e-16  1.8223856410054249e-16  1.5449122619589015e-16  1.0296502199654224e-16  1.0367293309196567e-16  1.1250567995690634e-16  9.8851167582246258e-01  9.9018227312695273e-01  9.7349370731432705e-01  9.5451286494272147e-01  9.7145457166559512e-01  1.0384862966370263e+00  1.1367387365028763e+00  1.1627010645335425e+00  1.0160969673625608e+00  9.1436167417341452e-01  8.8648120088569149e-01  9.3206152577041468e-01  1.0338039449334973e+00  1.1458503621303766e+00  1.1432460996433955e+00  1.0730374303694910e+00  1.0147799127356016e+00  9.7730858312034607e-01  9.5671304617253139e-01  9.6413780397956994e-01  9.8231296780834443e-01  9.9879094324237327e-01  1.0093773234054118e+00  1.0086635779723025e+00  1.0006983229901425e+00  9.9831887214669845e-01  1.0000644710332633e+00  1.0002598938832437e+00  9.9970644670254438e-01  1.0007551579770773e+00  9.9752647216745416e-01  1.0066135967719760e+00  9.9115135069147287e-01  9.7849512823403939e-01  1.1380971855547193e+00  9.7227571317322048e-01  5.3159260312710632e-01  2.4489716954226065e-01  1.6997970334539464e-01  1.7829653992930541e-01  2.3425323972262435e-01  3.1490831611716563e-01  3.9304645011223727e-01  4.4625430335471677e-01  4.6755885465922792e-01  4.5917278734878242e-01  4.3590852204015318e-01  4.1239150861496382e-01  3.9975613293418771e-01  3.9585219214085615e-01  3.9140770876254571e-01  3.8830904773671071e-01  3.8957473872354320e-01  3.9707323097345620e-01  4.1066163146382245e-01  4.2224378267525792e-01  4.2731115654385460e-01  4.2570102606083932e-01  4.1915039867970955e-01  4.1271490181235326e-01  4.1255085074756692e-01  4.1533819015402912e-01  4.1878727800364896e-01  4.2369273553440467e-01  4.3127107063559544e-01  4.4211147272489010e-01  4.5603441200505712e-01  4.7150032524392871e-01  4.8437203059621453e-01  4.8863408607162007e-01  4.8323169788895221e-01  4.7296210811395889e-01  4.6089518113657113e-01  4.5034818096551965e-01  4.4274917392396368e-01  4.3783461804795387e-01  4.3765804479857856e-01  4.4550503091088284e-01  4.6137173816127192e-01  4.8104495978750339e-01  4.9736073636267414e-01  5.0268556177294199e-01  4.8748455252271083e-01  4.4096815716839910e-01  3.5706085328103615e-01  2.5475629971510949e-01  1.8312620822432224e-01  1.7769035266344282e-01  3.4954173344212264e-01  8.6056384648686857e-01  1.0843730966688787e+00  9.7307246667171887e-01  1.0065305934594930e+00  9.9659497949559350e-01  1.0025019965667132e+00  1.0105309880095494e+00  9.7902843396490002e-01  9.6023262002114806e-01  1.0561156630944781e+00  1.1761187862567279e+00  1.0186727632203614e+00  6.8308502792394254e-01  2.3944521801003996e-01  4.3256073892087132e-02  -3.6428079476091599e-02  -4.0114237734725472e-02  3.3099276244673813e-02  2.1400637422796406e-01  6.0529830697725551e-01  9.6743107080730406e-01  1.1475230929556048e+00  1.0338334663694160e+00  9.7467890536207846e-01  1.0022157444461159e+00  1.0037713396973449e+00  9.9911601042514286e-01  9.6925423679918299e-01  1.1052510655435521e+00  1.0471698890420749e+00  4.6003102589860406e-01  2.5172866574577551e-02  -1.3784519199507350e-01  -1.5541082345688559e-01  -1.2702686479103420e-01  -9.9010916441596097e-02  -9.2809772875131313e-02  -1.3033127432180588e-01  -1.1921302101209824e-01  5.1057452191569197e-01  1.1212290854408913e+00  9.7465971000725482e-01  9.7558336979116567e-01  1.0181981352723619e+00  1.1637946218469994e+00  9.8365