<?xml version="1.0"?>
<VTKFile type="UnstructuredGrid"  version="0.1"  >
<UnstructuredGrid>
<Piece  NumberOfPoints="7161" NumberOfCells="13800">
<Points>
<DataArray  type="Float64"  NumberOfComponents="3"  format="ascii">0 0 0  0.01652173913043478 0 0  0.03304347826086956 0 0  0.04956521739130434 0 0  0.06608695652173913 0 0  0.08260869565217391 0 0  0.09913043478260869 0 0  0.1156521739130435 0 0  0.1321739130434783 0 0  0.148695652173913 0 0  0.1652173913043478 0 0  0.1817391304347826 0 0  0.1982608695652174 0 0  0.2147826086956522 0 0  0.2313043478260869 0 0  0.2478260869565218 0 0  0.2643478260869565 0 0  0.2808695652173913 0 0  0.2973913043478261 0 0  0.3139130434782609 0 0  0.3304347826086956 0 0  0.3469565217391304 0 0  0.3634782608695652 0 0  0.3799999999999999 0 0  0.3965217391304348 0 0  0.4130434782608696 0 0  0.4295652173913043 0 0  0.4460869565217391 0 0  0.4626086956521739 0 0  0.4791304347826086 0 0  0.4956521739130435 0 0  0.5121739130434783 0 0  0.528695652173913 0 0  0.5452173913043478 0 0  0.5617391304347825 0 0  0.5782608695652174 0 0  0.5947826086956521 0 0  0.6113043478260869 0 0  0.6278260869565218 0 0  0.6443478260869565 0 0  0.6608695652173913 0 0  0.677391304347826 0 0  0.6939130434782609 0 0  0.7104347826086956 0 0  0.7269565217391304 0 0  0.7434782608695653 0 0  0.7599999999999999 0 0  0.7765217391304348 0 0  0.7930434782608695 0 0  0.8095652173913043 0 0  0.8260869565217391 0 0  0.8426086956521739 0 0  0.8591304347826086 0 0  0.8756521739130434 0 0  0.8921739130434783 0 0  0.908695652173913 0 0  0.9252173913043478 0 0  0.9417391304347826 0 0  0.9582608695652173 0 0  0.9747826086956521 0 0  0.991304347826087 0 0  1.007826086956522 0 0  1.024347826086957 0 0  1.040869565217391 0 0  1.057391304347826 0 0  1.073913043478261 0 0  1.090434782608696 0 0  1.10695652173913 0 0  1.123478260869565 0 0  1.14 0 0  1.156521739130435 0 0  1.17304347826087 0 0  1.189565217391304 0 0  1.206086956521739 0 0  1.222608695652174 0 0  1.239130434782609 0 0  1.255652173913044 0 0  1.272173913043478 0 0  1.288695652173913 0 0  1.305217391304348 0 0  1.321739130434783 0 0  1.338260869565217 0 0  1.354782608695652 0 0  1.371304347826087 0 0  1.387826086956522 0 0  1.404347826086957 0 0  1.420869565217391 0 0  1.437391304347826 0 0  1.453913043478261 0 0  1.470434782608696 0 0  1.486956521739131 0 0  1.503478260869565 0 0  1.52 0 0  1.536521739130435 0 0  1.55304347826087 0 0  1.569565217391304 0 0  1.586086956521739 0 0  1.602608695652174 0 0  1.619130434782609 0 0  1.635652173913043 0 0  1.652173913043478 0 0  1.668695652173913 0 0  1.685217391304348 0 0  1.701739130434782 0 0  1.718260869565217 0 0  1.734782608695652 0 0  1.751304347826087 0 0  1.767826086956522 0 0  1.784347826086957 0 0  1.800869565217391 0 0  1.817391304347826 0 0  1.833913043478261 0 0  1.850434782608696 0 0  1.86695652173913 0 0  1.883478260869565 0 0  1.9 0 0  1.916521739130435 0 0  1.933043478260869 0 0  1.949565217391304 0 0  1.966086956521739 0 0  1.982608695652174 0 0  1.999130434782608 0 0  2.015652173913043 0 0  2.032173913043478 0 0  2.048695652173913 0 0  2.065217391304348 0 0  2.081739130434782 0 0  2.098260869565217 0 0  2.114782608695652 0 0  2.131304347826087 0 0  2.147826086956522 0 0  2.164347826086956 0 0  2.180869565217391 0 0  2.197391304347826 0 0  2.213913043478261 0 0  2.230434782608695 0 0  2.24695652173913 0 0  2.263478260869565 0 0  2.28 0 0  2.296521739130434 0 0  2.31304347826087 0 0  2.329565217391304 0 0  2.346086956521739 0 0  2.362608695652174 0 0  2.379130434782609 0 0  2.395652173913044 0 0  2.412173913043478 0 0  2.428695652173913 0 0  2.445217391304348 0 0  2.461739130434782 0 0  2.478260869565217 0 0  2.494782608695652 0 0  2.511304347826087 0 0  2.527826086956522 0 0  2.544347826086956 0 0  2.560869565217391 0 0  2.577391304347826 0 0  2.593913043478261 0 0  2.610434782608696 0 0  2.62695652173913 0 0  2.643478260869565 0 0  2.66 0 0  2.676521739130435 0 0  2.693043478260869 0 0  2.709565217391304 0 0  2.726086956521739 0 0  2.742608695652174 0 0  2.759130434782609 0 0  2.775652173913044 0 0  2.792173913043478 0 0  2.808695652173913 0 0  2.825217391304347 0 0  2.841739130434783 0 0  2.858260869565217 0 0  2.874782608695652 0 0  2.891304347826087 0 0  2.907826086956522 0 0  2.924347826086957 0 0  2.940869565217391 0 0  2.957391304347826 0 0  2.973913043478261 0 0  2.990434782608696 0 0  3.006956521739131 0 0  3.023478260869565 0 0  3.04 0 0  3.056521739130435 0 0  3.073043478260869 0 0  3.089565217391304 0 0  3.106086956521739 0 0  3.122608695652174 0 0  3.139130434782609 0 0  3.155652173913043 0 0  3.172173913043478 0 0  3.188695652173913 0 0  3.205217391304347 0 0  3.221739130434782 0 0  3.238260869565217 0 0  3.254782608695652 0 0  3.271304347826087 0 0  3.287826086956521 0 0  3.304347826086957 0 0  3.320869565217391 0 0  3.337391304347826 0 0  3.353913043478261 0 0  3.370434782608696 0 0  3.386956521739131 0 0  3.403478260869565 0 0  3.419999999999999 0 0  3.436521739130435 0 0  3.453043478260869 0 0  3.469565217391304 0 0  3.486086956521739 0 0  3.502608695652174 0 0  3.519130434782609 0 0  3.535652173913043 0 0  3.552173913043478 0 0  3.568695652173913 0 0  3.585217391304347 0 0  3.601739130434782 0 0  3.618260869565217 0 0  3.634782608695652 0 0  3.651304347826087 0 0  3.667826086956521 0 0  3.684347826086956 0 0  3.700869565217391 0 0  3.717391304347826 0 0  3.733913043478261 0 0  3.750434782608695 0 0  3.766956521739131 0 0  3.783478260869565 0 0  3.8 0 0  0 0.01666666666666667 0  0.01652173913043478 0.01666666666666667 0  0.03304347826086956 0.01666666666666667 0  0.04956521739130434 0.01666666666666667 0  0.06608695652173913 0.01666666666666667 0  0.08260869565217391 0.01666666666666667 0  0.09913043478260869 0.01666666666666667 0  0.1156521739130435 0.01666666666666667 0  0.1321739130434783 0.01666666666666667 0  0.148695652173913 0.01666666666666667 0  0.1652173913043478 0.01666666666666667 0  0.1817391304347826 0.01666666666666667 0  0.1982608695652174 0.01666666666666667 0  0.2147826086956522 0.01666666666666667 0  0.2313043478260869 0.01666666666666667 0  0.2478260869565218 0.01666666666666667 0  0.2643478260869565 0.01666666666666667 0  0.2808695652173913 0.01666666666666667 0  0.2973913043478261 0.01666666666666667 0  0.3139130434782609 0.01666666666666667 0  0.3304347826086956 0.01666666666666667 0  0.3469565217391304 0.01666666666666667 0  0.3634782608695652 0.01666666666666667 0  0.3799999999999999 0.01666666666666667 0  0.3965217391304348 0.01666666666666667 0  0.4130434782608696 0.01666666666666667 0  0.4295652173913043 0.01666666666666667 0  0.4460869565217391 0.01666666666666667 0  0.4626086956521739 0.01666666666666667 0  0.4791304347826086 0.01666666666666667 0  0.4956521739130435 0.01666666666666667 0  0.5121739130434783 0.01666666666666667 0  0.528695652173913 0.01666666666666667 0  0.5452173913043478 0.01666666666666667 0  0.5617391304347825 0.01666666666666667 0  0.5782608695652174 0.01666666666666667 0  0.5947826086956521 0.01666666666666667 0  0.6113043478260869 0.01666666666666667 0  0.6278260869565218 0.01666666666666667 0  0.6443478260869565 0.01666666666666667 0  0.6608695652173913 0.01666666666666667 0  0.677391304347826 0.01666666666666667 0  0.6939130434782609 0.01666666666666667 0  0.7104347826086956 0.01666666666666667 0  0.7269565217391304 0.01666666666666667 0  0.7434782608695653 0.01666666666666667 0  0.7599999999999999 0.01666666666666667 0  0.7765217391304348 0.01666666666666667 0  0.7930434782608695 0.01666666666666667 0  0.8095652173913043 0.01666666666666667 0  0.8260869565217391 0.01666666666666667 0  0.8426086956521739 0.01666666666666667 0  0.8591304347826086 0.01666666666666667 0  0.8756521739130434 0.01666666666666667 0  0.8921739130434783 0.01666666666666667 0  0.908695652173913 0.01666666666666667 0  0.9252173913043478 0.01666666666666667 0  0.9417391304347826 0.01666666666666667 0  0.9582608695652173 0.01666666666666667 0  0.9747826086956521 0.01666666666666667 0  0.991304347826087 0.01666666666666667 0  1.007826086956522 0.01666666666666667 0  1.024347826086957 0.01666666666666667 0  1.040869565217391 0.01666666666666667 0  1.057391304347826 0.01666666666666667 0  1.073913043478261 0.01666666666666667 0  1.090434782608696 0.01666666666666667 0  1.10695652173913 0.01666666666666667 0  1.123478260869565 0.01666666666666667 0  1.14 0.01666666666666667 0  1.156521739130435 0.01666666666666667 0  1.17304347826087 0.01666666666666667 0  1.189565217391304 0.01666666666666667 0  1.206086956521739 0.01666666666666667 0  1.222608695652174 0.01666666666666667 0  1.239130434782609 0.01666666666666667 0  1.255652173913044 0.01666666666666667 0  1.272173913043478 0.01666666666666667 0  1.288695652173913 0.01666666666666667 0  1.305217391304348 0.01666666666666667 0  1.321739130434783 0.01666666666666667 0  1.338260869565217 0.01666666666666667 0  1.354782608695652 0.01666666666666667 0  1.371304347826087 0.01666666666666667 0  1.387826086956522 0.01666666666666667 0  1.404347826086957 0.01666666666666667 0  1.420869565217391 0.01666666666666667 0  1.437391304347826 0.01666666666666667 0  1.453913043478261 0.01666666666666667 0  1.470434782608696 0.01666666666666667 0  1.486956521739131 0.01666666666666667 0  1.503478260869565 0.01666666666666667 0  1.52 0.01666666666666667 0  1.536521739130435 0.01666666666666667 0  1.55304347826087 0.01666666666666667 0  1.569565217391304 0.01666666666666667 0  1.586086956521739 0.01666666666666667 0  1.602608695652174 0.01666666666666667 0  1.619130434782609 0.01666666666666667 0  1.635652173913043 0.01666666666666667 0  1.652173913043478 0.01666666666666667 0  1.668695652173913 0.01666666666666667 0  1.685217391304348 0.01666666666666667 0  1.701739130434782 0.01666666666666667 0  1.718260869565217 0.01666666666666667 0  1.734782608695652 0.01666666666666667 0  1.751304347826087 0.01666666666666667 0  1.767826086956522 0.01666666666666667 0  1.784347826086957 0.01666666666666667 0  1.800869565217391 0.0166666666666666
[...]
<PointData  Scalars="rho_bar"> 
<DataArray  type="Float64"  Name="rho_bar"  format="ascii">8.0601916021611997e-01  8.0443201497608541e-01  8.0381117820601022e-01  8.0348861140245331e-01  8.0321601053070102e-01  8.0288057094392407e-01  8.0243272281547207e-01  8.0185950623947955e-01  8.0116955498922182e-01  8.0038230666731813e-01  7.9952176468283986e-01  7.9861532385905953e-01  7.9769685629151343e-01  7.9680749346635960e-01  7.9599048417785245e-01  7.9528210664101351e-01  7.9470519283232122e-01  7.9426560907417765e-01  7.9395191765541306e-01  7.9373644674546784e-01  7.9357763649412716e-01  7.9342250471121667e-01  7.9321046287264252e-01  7.9287834041840699e-01  7.9236953507498575e-01  7.9164529634930836e-01  7.9069303576775452e-01  7.8952721517387281e-01  7.8817699712333056e-01  7.8667360721898749e-01  7.8504522707242241e-01  7.8331573163187895e-01  7.8150543226232072e-01  7.7963178336372274e-01  7.7771035341056360e-01  7.7575510727840546e-01  7.7377892082834043e-01  7.7179331195970746e-01  7.6980855140238391e-01  7.6783318014406476e-01  7.6587382745060617e-01  7.6393453151463797e-01  7.6201637749996709e-01  7.6011667138156702e-01  7.5822884398412904e-01  7.5634245329132677e-01  7.5444481940839636e-01  7.5252289069269906e-01  7.5056514050438994e-01  7.4856215998675590e-01  7.4650691129427293e-01  7.4439408837204335e-01  7.4221974282451586e-01  7.3998020102226214e-01  7.3767154090582387e-01  7.3528905202577410e-01  7.3282875018905480e-01  7.3029180509413893e-01  7.2768814882229349e-01  7.2503307018699104e-01  7.2234407960853642e-01  7.1963868153079569e-01  7.1693358776207550e-01  7.1424387969933611e-01  7.1158273697470242e-01  7.0896086966977845e-01  7.0638643422156211e-01  7.0386462739457389e-01  7.0139792522556277e-01  6.9898595491181303e-01  6.9662613234317716e-01  6.9431405135521229e-01  6.9204447188307372e-01  6.8981194169982762e-01  6.8761170828184082e-01  6.8543982871850428e-01  6.8329335643910294e-01  6.8116963647479967e-01  6.7906631476881574e-01  6.7698081180568259e-01  6.7491057104130603e-01  6.7285275366779129e-01  6.7080448018534833e-01  6.6876271055321401e-01  6.6672459176781862e-01  6.6468752889476856e-01  6.6264973455670650e-01  6.6061027166612574e-01  6.5856935525564742e-01  6.5652774166310390e-01  6.5448629121401924e-01  6.5244520745867440e-01  6.5040423209716614e-01  6.4836277291994304e-01  6.4632005045252727e-01  6.4427459981115598e-01  6.4222432612019409e-01  6.4016632703441034e-01  6.3809753885411913e-01  6.3601520512140064e-01  6.3391771799864405e-01  6.3180477774675159e-01  6.2967732501412821e-01  6.2753647407899571e-01  6.2538266228471273e-01  6.2321454408605037e-01  6.2102892299774903e-01  6.1882089081139657e-01  6.1658488196175176e-01  6.1431581801402346e-01  6.1201086261829563e-01  6.0967064775262314e-01  6.0730021783013510e-01  6.0490813834256985e-01  6.0250458690933328e-01  6.0009818644245327e-01  5.9769336862345046e-01  5.9528842326554066e-01  5.9287556418174625e-01  5.9044272483599658e-01  5.8797757626378633e-01  5.8547120299748756e-01  5.8292039679035701e-01  5.8032711449807095e-01  5.7769668042889932e-01  5.7503534795359823e-01  5.7234858518253717e-01  5.6963948967048983e-01  5.6690801321612083e-01  5.6415043677809551e-01  5.6136071691151168e-01  5.5853320845032972e-01  5.5566629847908300e-01  5.5276429904352786e-01  5.4983806871463503e-01  5.4690396280826148e-01  5.4398235119509242e-01  5.4109485437403060e-01  5.3826060540296028e-01  5.3549192740019280e-01  5.3279144367490816e-01  5.3014850658901602e-01  5.2752999557169555e-01  5.2486087189234221e-01  5.2201073498365302e-01  5.1880708868931236e-01  5.1505594191976867e-01  5.1053286309736212e-01  5.0501969629750176e-01  4.9844907109745362e-01  4.9100790317414755e-01  4.8335344305449229e-01  4.7652012454762793e-01  4.7090703401521489e-01  4.6638138695990078e-01  4.6262992124871311e-01  4.5933715732974789e-01  4.5625232580819586e-01  4.5320564034571764e-01  4.5010023884615596e-01  4.4689464059874101e-01  4.4358280128324201e-01  4.4017871480311799e-01  4.3671117193327763e-01  4.3322217887482395e-01  4.2975400077562242e-01  4.2633089827173648e-01  4.2295033846180174e-01  4.1956877594806502e-01  4.1610987653891113e-01  4.1254350072573598e-01  4.0887540701464048e-01  4.0512004559945103e-01  4.0128843858439667e-01  3.9738548762405540e-01  3.9341038860115213e-01  3.8935813366782163e-01  3.8522066346891365e-01  3.8098786447071481e-01  3.7664786365912151e-01  3.7218721983326825e-01  3.6759052973420236e-01  3.6284042602737482e-01  3.5791741759655199e-01  3.5280032082590790e-01  3.4746644532901261e-01  3.4189204525890254e-01  3.3605262781373163e-01  3.2992369129770815e-01  3.2348156321201543e-01  3.1670477483951198e-01  3.0957563580775654e-01  3.0208216810685723e-01  2.9421918701341482e-01  2.8598786167125001e-01  2.7739075473453789e-01  2.6842134235735149e-01  2.5906322430209222e-01  2.4930649632419169e-01  2.3913739783046903e-01  2.2852029294340331e-01  2.1741530142737672e-01  2.0579006416840115e-01  1.9361490929680536e-01  1.8087262715891098e-01  1.6758326272322044e-01  1.5381563204731896e-01  1.3970071362380534e-01  1.2542736110699351e-01  1.1123334520624846e-01  9.7411634595222521e-02  8.4306520316172473e-02  7.2262131961740403e-02  6.1533884506329982e-02  5.2172755874480566e-02  4.4090349542042259e-02  3.7147577873732608e-02  3.1199871086801806e-02  2.6115249052229325e-02  2.1779595592568344e-02  1.8096292321123295e-02  1.4983811431001784e-02  1.2372988949300097e-02  1.0204707310615336e-02  8.4282247630691060e-03  7.0001532868327384e-03  5.8840076766508058e-03  5.0502415114467777e-03  4.4769274061171021e-03  4.1520523732458854e-03  4.0822386423999234e-03  7.9433596075340229e-01  7.9395477243308621e-01  7.9366275740727843e-01  7.9345652725549565e-01  7.9323402598887194e-01  7.9291921841551904e-01  7.9247470101629702e-01  7.9189438007943780e-01  7.9119205719255770e-01  7.9039121560800640e-01  7.8951838847213218e-01  7.8860225604601419e-01  7.8767770286354455e-01  7.8678858735503254e-01  7.8598114119489204e-01  7.8529406461737461e-01  7.8475100479592164e-01  7.8435760932216814e-01  7.8410115806459291e-01  7.8395226060026080e-01  7.8386707605451811e-01  7.8379052451022024e-01  7.8365969930850121e-01  7.8340936512414661e-01  7.8298062664969770e-01  7.8233390196548658e-01  7.8145657544802638e-01  7.8036062858013588e-01  7.7907225153589654e-01  7.7762082683966538e-01  7.7603322154169707e-01  7.7433277747444096e-01  7.7253954459842156e-01  7.7067124351366145e-01  7.6874374185733130e-01  7.6677173023618628e-01  7.6476868476448234e-01  7.6274708518026724e-01  7.6071799356847825e-01  7.5869099181031452e-01  7.5667361635834440e-01  7.5467104353639125e-01  7.5268526333572572e-01  7.5071464608258776e-01  7.4875317406992203e-01  7.4679083229467114e-01  7.4481487469890162e-01  7.4281252206271975e-01  7.4077269595743722e-01  7.3868693596641788e-01  7.3654910359359926e-01  7.3435514927868917e-01  7.3210221689559629e-01  7.2978812166344309e-01  7.2741039092725035e-01  7.2496620096225495e-01  7.2245319900873761e-01  7.1987330878535860e-01  7.1723658933069856e-01  7.1455877754103803e-01  7.1185747890483342e-01  7.0915043226677543e-01  7.0645421729270153e-01  7.0378380930573614e-01  7.0115190923517778e-01  6.9856873222396043e-01  6.9604151605600839e-01  6.9357460009607652e-01  6.9116920080685251e-01  6.8882384474765423e-01  6.8653454532594071e-01  6.8429569893170572e-01  6.8210075401531411e-01  6.7994331549148868e-01  6.7781768998845437e-01  6.7571947260122267e-01  6.7364507944173158e-01  6.7159151094088232e-01  6.6955561583377532e-01  6.6753425753564732e-01  6.6552403008017302e-01  6.6352154528342178e-01  6.6152325930738409e-01  6.5952578094757897e-01  6.5752589087122137e-01  6.5552101898385495e-01  6.5350940337448060e-01  6.5149063778940819e-01  6.4946548332470477e-01  6.4743565292404393e-01  6.4540269134111672e-01  6.4336736031925779e-01  6.4132954057681835e-01  6.3928893422040367e-01  6.3724482038284780e-01  6.3519594607077445e-01  6.3314011003504789e-01  6.3107450434279289e-01  6.2899598957175851e-01  6.2690207144019772e-01  6.2479152638992330e-01  6.2266496286168072e-01  6.2052428003261384e-01  6.1837177425932310e-01  6.1620854222499077e-01  6.1403367469293657e-01  6.1184374420594723e-01  6.0963343588450292e-01  6.0739642833358032e-01  6.0512707394420295e-01  6.0282202932403606e-01  6.0048219270948400e-01  5.9811342218789443e-01  5.9572604124087469e-01  5.9333204751629309e-01  5.9094170186047157e-01  5.8856008398378201e-01  5.8618517370316092e-01  5.8380744658314132e-01  5.8141238193088463e-01  5.7898495211952028e-01  5.7651475038433408e-01  5.7399822853725890e-01  5.7143816356850041e-01  5.6884094944099828e-01  5.6621406614883718e-01  5.6356387625127768e-01  5.6089433823919388e-01  5.5820567363780849e-01  5.5549392759153793e-01  5.5275174512804959e-01  5.4997202901524911e-01  5.4715189350278526e-01  5.4429510676743742e-01  5.4141206988505086e-01  5.3851883660926869e-01  5.3563525150488656e-01  5.3278249795962962e-01  5.2997863708922488e-01  5.2723410726474174e-01  5.2454905402480367e-01  5.2191247306303334e-01  5.1929503713728298e-01  5.1662654592062185e-01  5.1377658934917347e-01  5.1057503582011654e-01  5.0684907555453285e-01  5.0240644986249949e-01  4.9704257321619211e-01  4.9072739223705775e-01  4.8369560738700584e-01  4.7647835945484185e-01  4.6997478413632254e-01  4.6460603711903053e-01  4.6026282448597527e-01  4.5664945285597597e-01  4.5346423418126963e-01  4.5046623959898396e-01  4.4749273765382147e-01  4.4445229383834528e-01  4.4130747022800643e-01  4.3805478042118295e-01  4.3470759868951531e-01  4.3129244092357588e-01  4.2785061750078390e-01  4.2442548503235650e-01  4.2103965469687232e-01  4.1768760971539071e-01  4.1433670895889613e-01  4.1092159335598549e-01  4.0740983876712600e-01  4.0380458187619539e-01  4.0011792773179827e-01  3.9635933648111682e-01  3.9253292020195318e-01  3.8863804330956159e-01  3.8467034038192865e-01  3.8062283525385504e-01  3.7648649317762450e-01  3.7225063600033570e-01  3.6790271269188141e-01  3.6342814855429845e-01  3.5880992273373630e-01  3.5402884123308809e-01  3.4906379766139883e-01  3.4389237633968739e-01  3.3849110880523758e-01  3.3283596501552015e-01  3.2690288791518352e-01  3.2066874456658412e-01  3.1411235678283567e-01  3.0721619929296923e-01  2.9996795568916756e-01  2.9236149150379159e-01  2.8439586966063329e-01  2.7607144864158906e-01  2.6738066898187984e-01  2.5830423101917310e-01  2.4882618900980308e-01  2.3893240029266591e-01  2.2858773246602221e-01  2.1774780170782207e-01  2.0637614492326120e-01  1.9444279987910965e-01  1.8192734632731414e-01  1.6885106156221369e-01  1.5528039632650903e-01  1.4133840791251007e-01  1.2720660402388884e-01  1.1311697719854029e-01  9.9352741657021570e-02  8.6249819004311223e-02  7.4150191023066955e-02  6.3308103589364589e-02  5.3798792731132930e-02  4.5552639137008119e-02  3.8441725000721162e-02  3.2328966292720203e-02  2.7087501555098772e-02  2.2606685753559667e-02  1.8792083447181623e-02  1.5563337226563931e-02  1.2851663804473274e-02  1.0597723811195324e-02  8.7501183856662813e-03  7.2645240397897475e-03  6.1033462995903828e-03  5.2357625479033882e-03  4.6379612738195004e-03  4.2931258533509386e-03  4.1888408836386381e-03  7.6295949088580572e-01  7.6296765562876978e-01  7.6299385612057335e-01  7.6299074360405494e-01  7.6288618133219754e-01  7.6262754237545705e-01  7.6219557304256502e-01  7.6160001492132978e-01  7.6086912558858377e-01  7.6003830977124287e-01  7.5914252826616790e-01  7.5821474788710030e-01  7.5729326025616395e-01  7.5642879185708300e-01  7.5567638539349336e-01  7.5508058556536017e-01  7.5466708735869026e-01  7.5444014769033718e-01  7.5438334051762712e-01  7.5446171760299763e-01  7.5462496116866873e-01  7.5481101766615388e-01  7.5495061117108808e-01  7.5497251300644119e-01  7.5481207835419417e-01  7.5442429857360405e-01  7.5379388854888896e-01  7.5292790374465135e-01  7.5184566066538583e-01  7.5057055064838196e-01  7.4912568822343151e-01  7.4753231788517416e-01  7.4580994397278266e-01  7.4397664747066761e-01  7.4204959651882141e-01  7.4004516061695036e-01  7.3797905055154467e-01  7.3586608578867763e-01  7.3372004966043936e-01  7.3155322487305985e-01  7.2937612897307058e-01  7.2719687193864269e-01  7.2502058068352515e-01  7.2284835100139155e-01  7.2067634274696746e-01  7.1849530495062597e-01  7.1629257711745098e-01  7.1405582998927863e-01  7.1177581070991447e-01  7.0944665965773446e-01  7.0706552222767705e-01  7.0463171887649823e-01  7.0214615032190919e-01  6.9961049163578026e-01  6.9702668886744401e-01  6.9439661676406095e-01  6.9172295349514767e-01  6.8901134936334851e-01  6.8627339810272814e-01  6.8352541860005533e-01  6.8078557194321621e-01  6.7807180710203474e-01  6.7540079550359777e-01  6.7278696288840634e-01  6.7024200022189795e-01  6.6777429945074729e-01  6.6538881407435913e-01  6.6308685357786623e-01  6.6086630828540216e-01  6.5872186878777583e-01  6.5664570947846401e-01  6.5462821709089314e-01  6.5265921222474810e-01  6.5072904073169369e-01  6.4882971229879050e-01  6.4695512769388297e-01  6.4510056269821148e-01  6.4326144345543701e-01  6.4143288882913130e-01  6.3960949260465716e-01  6.3778567990078439e-01  6.3595585220616269e-01  6.3411470257468838e-01  6.3225730485131693e-01  6.3037950733243397e-01  6.2847823698933147e-01  6.2655212718067033e-01  6.2460185113605415e-01  6.2263029126243186e-01  6.2064175064704774e-01  6.1864043361771748e-01  6.1662858473663973e-01  6.1460679751836977e-01  6.1257530474803379e-01  6.1053395902128971e-01  6.0848160686732833e-01  6.0641599657796530e-01  6.0433396455899813e-01  6.0223230440312792e-01  6.0010881795519100e-01  5.9796366754627917e-01  5.9579993034924106e-01  5.9362309607919905e-01  5.9143895462936813e-01  5.8925125968948922e-01  5.8706006945031819e-01  5.8486158505833785e-01  5.8264883189885863e-01  5.8041331180481659e-01  5.7814702843139953e-01  5.7584521455472237e-01  5.7350894487147663e-01  5.7114700210109204e-01  5.6877500202758968e-01  5.6641137325111623e-01  5.6407150360387770e-01  5.6176305073365329e-01  5.5948287575593247e-01  5.5721643375246277e-01  5.5494074921711734e-01  5.5263228914731866e-01  5.5027542367984694e-01  5.4786609076597159e-01  5.4540956388650641e-01  5.4291587557964383e-01  5.4039582691559340e-01  5.3785874610792439e-01  5.3531085745421325e-01  5.3275374156880040e-01  5.3018245497363958e-01  5.2758584632589012e-01  5.2495175102289726e-01  5.2227392658802352e-01  5.1955444916787974e-01  5.1680306694576605e-01  5.1403490045489308e-01  5.1126874387514964e-01  5.0852488994310019e-01  5.0581958197237620e-01  5.0315812954358419e-01  5.0053370336810554e-01  4.9793324776616654e-01  4.9534065871378108e-01  4.9270426097587416e-01  4.8989621290787250e-01  4.8674534127112612e-01  4.8312781793506454e-01  4.7894805095445925e-01  4.7404763165790970e-01  4.6841258722762985e-01  4.6235973745196912e-01  4.5630313798887495e-01  4.5080144141424516e-01  4.4617723020678063e-01  4.4237088084207754e-01  4.3915248546917562e-01  4.3627027860352013e-01  4.3351562908194224e-01  4.3074824223615882e-01  4.2789238503575638e-01  4.2492179105651245e-01  4.2184016836803701e-01  4.1866023509979733e-01  4.1540121997118146e-01  4.1210201282192233e-01  4.0880739650598807e-01  4.0554270357913497e-01  4.0229835821348481e-01  3.9905353937991761e-01  3.9577095153694214e-01  3.9242453480610195e-01  3.8901034986505206e-01  3.8553212926221359e-01  3.8199336696248221e-01  3.7839569694575159e-01  3.7473874113569550e-01  3.7102034281642587e-01  3.6723665128223038e-01  3.6338223893638855e-01  3.5944985963191795e-01  3.5543004736994571e-01  3.5131038966649153e-01  3.4707517951514882e-01  3.4270563321220887e-01  3.3818091502373376e-01  3.3347903234404741e-01  3.2857742934179290e-01  3.2345322246197988e-01  3.1808383716239086e-01  3.1244764222826471e-01  3.0652469940119120e-01  3.0029813382315640e-01  2.9375565514433921e-01  2.8688956592845760e-01  2.7969455069316235e-01  2.7216422633600684e-01  2.6428519427044594e-01  2.5603147583539171e-01  2.4737583496485582e-01  2.3829479737967676e-01  2.2875199275652972e-01  2.1869487793549985e-01  2.0807505230429257e-01  1.9685943569850345e-01  1.8502453288757031e-01  1.7258647150113718e-01  1.5960668927988772e-01  1.4619091090454248e-01  1.3249817565314748e-01  1.1873920635633758e-01  1.0517221257373950e-01  9.2104422369285996e-02  7.9862507742961553e-02  6.8716965580449679e-02  5.8790825540814898e-02  5.0066250868824706e-02  4.2452584134907996e-02  3.5839269939535498e-02  3.0117782447895591e-02  2.5189891627501720e-02  2.0969037678035162e-02  1.7379223504678725e-02  1.4353340491350432e-02  1.1831691078443935e-02  9.7610663239828498e-03  8.0943906313869444e-03  6.7908265357661457e-03  5.8161317063109607e-03  5.1430777141969692e-03  4.7515285988104713e-03  4.6277214449695356e-03  7.1038476022921559e-01  7.1070991900979463e-01  7.1107247368447324e-01  7.1133062764301591e-01  7.1140003995963330e-01  7.1123970928973379e-01  7.1084863621908312e-01  7.1025752162308331e-01  7.0951667325535916e-01  7.0868099849564614e-01  7.0780171215291077e-01  7.0692351867493752e-01  7.0609124788604649e-01  7.0536296664283471e-01  7.0480259883154361e-01  7.0446057188548628e-01  7.0436352360692489e-01  7.0451249889850742e-01  7.0488465796809330e-01  7.0543606469660580e-01  7.0610545944962189e-01  7.0681931676453680e-01  7.0749773758594248e-01  7.0806089571071518e-01  7.0843697367143432e-01  7.0857273255293196e-01  7.0844187023525163e-01  7.0804050779624128e-01  7.0737758369405612e-01  7.0646827932117273e-01  7.0533022098321130e-01  7.0398185173939754e-01  7.0244184927980202e-01  7.0072915454028317e-01  6.9886294069033494e-01  6.9686248804659512e-01  6.9474696804865954e-01  6.9253511945615276e-01  6.9024487241031218e-01  6.8789298407051513e-01  6.8549454048829783e-01  6.8306253938738426e-01  6.8060705478203476e-01  6.7813393687617052e-01  6.7564312341316868e-01  6.7312724281109659e-01  6.7057359149003093e-01  6.6797087240281594e-01  6.6531327402744156e-01  6.6260006002585004e-01  6.5983410691661848e-01  6.5702081327349615e-01  6.5416731256457061e-01  6.5128180000867497e-01  6.4837296209141027e-01  6.4544975439723629e-01  6.4252175426010627e-01  6.3960053534761896e-01  6.3670109517536078e-01  6.3384148160353349e-01  6.3104099685248294e-01  6.2831849925156635e-01  6.2569100116267817e-01  6.2317252392355271e-01  6.2077312695707276e-01  6.1849847088168197e-01  6.1634957321362271e-01  6.1432288575579319e-01  6.1241058487004207e-01  6.1060111694278685e-01  6.0888003886034070e-01  6.0723120557535326e-01  6.0563823072870737e-01  6.0408627579985819e-01  6.0256362042356548e-01  6.0106218935308442e-01  5.9957588659953953e-01  5.9809813604165230e-01  5.9662098285973775e-01  5.9513531994929159e-01  5.9363155481325514e-01  5.9210028679777071e-01  5.9053280709114175e-01  5.8892147703773623e-01  5.8726009510877597e-01  5.8554456520035181e-01  5.8377368891569958e-01  5.8194993921740357e-01  5.8007966458967897e-01  5.7817201319671496e-01  5.7623616000062094e-01  5.7427756762598769e-01  5.7229777434976259e-01  5.7029796059873616e-01  5.6827852586675665e-01  5.6623824056511762e-01  5.6417412668460976e-01  5.6208202947637509e-01  5.5995786677624770e-01  5.5779956127098396e-01  5.5560916470552302e-01  5.5339433979156138e-01  5.5116734813898483e-01  5.4894107433382966e-01  5.4672421591272624e-01  5.4451865700377777e-01  5.4231951373042486e-01  5.4011674182958158e-01  5.3789747642226748e-01  5.3564921337166194e-01  5.3336376520165008e-01  5.3104193474295047e-01  5.2869734995168693e-01  5.2635594034698707e-01  5.2404853029192200e-01  5.2180049144912333e-01  5.1962435437351961e-01  5.1751568327361119e-01  5.1545090370477886e-01  5.1339083778094963e-01  5.1129490248101561e-01  5.0913798981411762e-01  5.0691594902383974e-01  5.0463974837915004e-01  5.0232594506573491e-01  4.9999086823286826e-01  4.9764826076135038e-01  4.9530817178387421e-01  4.9297485573729677e-01  4.9064245564444686e-01  4.8829259181266960e-01  4.8590348797962712e-01  4.8346345697281679e-01  4.8097285418811297e-01  4.7844107680338793e-01  4.7588218540826827e-01  4.73313151991