<?xml version="1.0"?>
<VTKFile type="UnstructuredGrid"  version="0.1"  >
<UnstructuredGrid>
<Piece  NumberOfPoints="7161" NumberOfCells="13800">
<Points>
<DataArray  type="Float64"  NumberOfComponents="3"  format="ascii">0 0 0  0.01652173913043478 0 0  0.03304347826086956 0 0  0.04956521739130434 0 0  0.06608695652173913 0 0  0.08260869565217391 0 0  0.09913043478260869 0 0  0.1156521739130435 0 0  0.1321739130434783 0 0  0.148695652173913 0 0  0.1652173913043478 0 0  0.1817391304347826 0 0  0.1982608695652174 0 0  0.2147826086956522 0 0  0.2313043478260869 0 0  0.2478260869565218 0 0  0.2643478260869565 0 0  0.2808695652173913 0 0  0.2973913043478261 0 0  0.3139130434782609 0 0  0.3304347826086956 0 0  0.3469565217391304 0 0  0.3634782608695652 0 0  0.3799999999999999 0 0  0.3965217391304348 0 0  0.4130434782608696 0 0  0.4295652173913043 0 0  0.4460869565217391 0 0  0.4626086956521739 0 0  0.4791304347826086 0 0  0.4956521739130435 0 0  0.5121739130434783 0 0  0.528695652173913 0 0  0.5452173913043478 0 0  0.5617391304347825 0 0  0.5782608695652174 0 0  0.5947826086956521 0 0  0.6113043478260869 0 0  0.6278260869565218 0 0  0.6443478260869565 0 0  0.6608695652173913 0 0  0.677391304347826 0 0  0.6939130434782609 0 0  0.7104347826086956 0 0  0.7269565217391304 0 0  0.7434782608695653 0 0  0.7599999999999999 0 0  0.7765217391304348 0 0  0.7930434782608695 0 0  0.8095652173913043 0 0  0.8260869565217391 0 0  0.8426086956521739 0 0  0.8591304347826086 0 0  0.8756521739130434 0 0  0.8921739130434783 0 0  0.908695652173913 0 0  0.9252173913043478 0 0  0.9417391304347826 0 0  0.9582608695652173 0 0  0.9747826086956521 0 0  0.991304347826087 0 0  1.007826086956522 0 0  1.024347826086957 0 0  1.040869565217391 0 0  1.057391304347826 0 0  1.073913043478261 0 0  1.090434782608696 0 0  1.10695652173913 0 0  1.123478260869565 0 0  1.14 0 0  1.156521739130435 0 0  1.17304347826087 0 0  1.189565217391304 0 0  1.206086956521739 0 0  1.222608695652174 0 0  1.239130434782609 0 0  1.255652173913044 0 0  1.272173913043478 0 0  1.288695652173913 0 0  1.305217391304348 0 0  1.321739130434783 0 0  1.338260869565217 0 0  1.354782608695652 0 0  1.371304347826087 0 0  1.387826086956522 0 0  1.404347826086957 0 0  1.420869565217391 0 0  1.437391304347826 0 0  1.453913043478261 0 0  1.470434782608696 0 0  1.486956521739131 0 0  1.503478260869565 0 0  1.52 0 0  1.536521739130435 0 0  1.55304347826087 0 0  1.569565217391304 0 0  1.586086956521739 0 0  1.602608695652174 0 0  1.619130434782609 0 0  1.635652173913043 0 0  1.652173913043478 0 0  1.668695652173913 0 0  1.685217391304348 0 0  1.701739130434782 0 0  1.718260869565217 0 0  1.734782608695652 0 0  1.751304347826087 0 0  1.767826086956522 0 0  1.784347826086957 0 0  1.800869565217391 0 0  1.817391304347826 0 0  1.833913043478261 0 0  1.850434782608696 0 0  1.86695652173913 0 0  1.883478260869565 0 0  1.9 0 0  1.916521739130435 0 0  1.933043478260869 0 0  1.949565217391304 0 0  1.966086956521739 0 0  1.982608695652174 0 0  1.999130434782608 0 0  2.015652173913043 0 0  2.032173913043478 0 0  2.048695652173913 0 0  2.065217391304348 0 0  2.081739130434782 0 0  2.098260869565217 0 0  2.114782608695652 0 0  2.131304347826087 0 0  2.147826086956522 0 0  2.164347826086956 0 0  2.180869565217391 0 0  2.197391304347826 0 0  2.213913043478261 0 0  2.230434782608695 0 0  2.24695652173913 0 0  2.263478260869565 0 0  2.28 0 0  2.296521739130434 0 0  2.31304347826087 0 0  2.329565217391304 0 0  2.346086956521739 0 0  2.362608695652174 0 0  2.379130434782609 0 0  2.395652173913044 0 0  2.412173913043478 0 0  2.428695652173913 0 0  2.445217391304348 0 0  2.461739130434782 0 0  2.478260869565217 0 0  2.494782608695652 0 0  2.511304347826087 0 0  2.527826086956522 0 0  2.544347826086956 0 0  2.560869565217391 0 0  2.577391304347826 0 0  2.593913043478261 0 0  2.610434782608696 0 0  2.62695652173913 0 0  2.643478260869565 0 0  2.66 0 0  2.676521739130435 0 0  2.693043478260869 0 0  2.709565217391304 0 0  2.726086956521739 0 0  2.742608695652174 0 0  2.759130434782609 0 0  2.775652173913044 0 0  2.792173913043478 0 0  2.808695652173913 0 0  2.825217391304347 0 0  2.841739130434783 0 0  2.858260869565217 0 0  2.874782608695652 0 0  2.891304347826087 0 0  2.907826086956522 0 0  2.924347826086957 0 0  2.940869565217391 0 0  2.957391304347826 0 0  2.973913043478261 0 0  2.990434782608696 0 0  3.006956521739131 0 0  3.023478260869565 0 0  3.04 0 0  3.056521739130435 0 0  3.073043478260869 0 0  3.089565217391304 0 0  3.106086956521739 0 0  3.122608695652174 0 0  3.139130434782609 0 0  3.155652173913043 0 0  3.172173913043478 0 0  3.188695652173913 0 0  3.205217391304347 0 0  3.221739130434782 0 0  3.238260869565217 0 0  3.254782608695652 0 0  3.271304347826087 0 0  3.287826086956521 0 0  3.304347826086957 0 0  3.320869565217391 0 0  3.337391304347826 0 0  3.353913043478261 0 0  3.370434782608696 0 0  3.386956521739131 0 0  3.403478260869565 0 0  3.419999999999999 0 0  3.436521739130435 0 0  3.453043478260869 0 0  3.469565217391304 0 0  3.486086956521739 0 0  3.502608695652174 0 0  3.519130434782609 0 0  3.535652173913043 0 0  3.552173913043478 0 0  3.568695652173913 0 0  3.585217391304347 0 0  3.601739130434782 0 0  3.618260869565217 0 0  3.634782608695652 0 0  3.651304347826087 0 0  3.667826086956521 0 0  3.684347826086956 0 0  3.700869565217391 0 0  3.717391304347826 0 0  3.733913043478261 0 0  3.750434782608695 0 0  3.766956521739131 0 0  3.783478260869565 0 0  3.8 0 0  0 0.01666666666666667 0  0.01652173913043478 0.01666666666666667 0  0.03304347826086956 0.01666666666666667 0  0.04956521739130434 0.01666666666666667 0  0.06608695652173913 0.01666666666666667 0  0.08260869565217391 0.01666666666666667 0  0.09913043478260869 0.01666666666666667 0  0.1156521739130435 0.01666666666666667 0  0.1321739130434783 0.01666666666666667 0  0.148695652173913 0.01666666666666667 0  0.1652173913043478 0.01666666666666667 0  0.1817391304347826 0.01666666666666667 0  0.1982608695652174 0.01666666666666667 0  0.2147826086956522 0.01666666666666667 0  0.2313043478260869 0.01666666666666667 0  0.2478260869565218 0.01666666666666667 0  0.2643478260869565 0.01666666666666667 0  0.2808695652173913 0.01666666666666667 0  0.2973913043478261 0.01666666666666667 0  0.3139130434782609 0.01666666666666667 0  0.3304347826086956 0.01666666666666667 0  0.3469565217391304 0.01666666666666667 0  0.3634782608695652 0.01666666666666667 0  0.3799999999999999 0.01666666666666667 0  0.3965217391304348 0.01666666666666667 0  0.4130434782608696 0.01666666666666667 0  0.4295652173913043 0.01666666666666667 0  0.4460869565217391 0.01666666666666667 0  0.4626086956521739 0.01666666666666667 0  0.4791304347826086 0.01666666666666667 0  0.4956521739130435 0.01666666666666667 0  0.5121739130434783 0.01666666666666667 0  0.528695652173913 0.01666666666666667 0  0.5452173913043478 0.01666666666666667 0  0.5617391304347825 0.01666666666666667 0  0.5782608695652174 0.01666666666666667 0  0.5947826086956521 0.01666666666666667 0  0.6113043478260869 0.01666666666666667 0  0.6278260869565218 0.01666666666666667 0  0.6443478260869565 0.01666666666666667 0  0.6608695652173913 0.01666666666666667 0  0.677391304347826 0.01666666666666667 0  0.6939130434782609 0.01666666666666667 0  0.7104347826086956 0.01666666666666667 0  0.7269565217391304 0.01666666666666667 0  0.7434782608695653 0.01666666666666667 0  0.7599999999999999 0.01666666666666667 0  0.7765217391304348 0.01666666666666667 0  0.7930434782608695 0.01666666666666667 0  0.8095652173913043 0.01666666666666667 0  0.8260869565217391 0.01666666666666667 0  0.8426086956521739 0.01666666666666667 0  0.8591304347826086 0.01666666666666667 0  0.8756521739130434 0.01666666666666667 0  0.8921739130434783 0.01666666666666667 0  0.908695652173913 0.01666666666666667 0  0.9252173913043478 0.01666666666666667 0  0.9417391304347826 0.01666666666666667 0  0.9582608695652173 0.01666666666666667 0  0.9747826086956521 0.01666666666666667 0  0.991304347826087 0.01666666666666667 0  1.007826086956522 0.01666666666666667 0  1.024347826086957 0.01666666666666667 0  1.040869565217391 0.01666666666666667 0  1.057391304347826 0.01666666666666667 0  1.073913043478261 0.01666666666666667 0  1.090434782608696 0.01666666666666667 0  1.10695652173913 0.01666666666666667 0  1.123478260869565 0.01666666666666667 0  1.14 0.01666666666666667 0  1.156521739130435 0.01666666666666667 0  1.17304347826087 0.01666666666666667 0  1.189565217391304 0.01666666666666667 0  1.206086956521739 0.01666666666666667 0  1.222608695652174 0.01666666666666667 0  1.239130434782609 0.01666666666666667 0  1.255652173913044 0.01666666666666667 0  1.272173913043478 0.01666666666666667 0  1.288695652173913 0.01666666666666667 0  1.305217391304348 0.01666666666666667 0  1.321739130434783 0.01666666666666667 0  1.338260869565217 0.01666666666666667 0  1.354782608695652 0.01666666666666667 0  1.371304347826087 0.01666666666666667 0  1.387826086956522 0.01666666666666667 0  1.404347826086957 0.01666666666666667 0  1.420869565217391 0.01666666666666667 0  1.437391304347826 0.01666666666666667 0  1.453913043478261 0.01666666666666667 0  1.470434782608696 0.01666666666666667 0  1.486956521739131 0.01666666666666667 0  1.503478260869565 0.01666666666666667 0  1.52 0.01666666666666667 0  1.536521739130435 0.01666666666666667 0  1.55304347826087 0.01666666666666667 0  1.569565217391304 0.01666666666666667 0  1.586086956521739 0.01666666666666667 0  1.602608695652174 0.01666666666666667 0  1.619130434782609 0.01666666666666667 0  1.635652173913043 0.01666666666666667 0  1.652173913043478 0.01666666666666667 0  1.668695652173913 0.01666666666666667 0  1.685217391304348 0.01666666666666667 0  1.701739130434782 0.01666666666666667 0  1.718260869565217 0.01666666666666667 0  1.734782608695652 0.01666666666666667 0  1.751304347826087 0.01666666666666667 0  1.767826086956522 0.01666666666666667 0  1.784347826086957 0.01666666666666667 0  1.800869565217391 0.0166666666666666
[...]
<PointData  Scalars="rho_bar"> 
<DataArray  type="Float64"  Name="rho_bar"  format="ascii">8.7070772223233639e-01  8.6896577051102497e-01  8.6775635440123411e-01  8.6651397103019401e-01  8.6507516316650301e-01  8.6340599631406745e-01  8.6153369166295468e-01  8.5952626095853957e-01  8.5748065545382468e-01  8.5550993028403921e-01  8.5373060480882845e-01  8.5225154178671458e-01  8.5116539232021293e-01  8.5054255920281074e-01  8.5042899049158482e-01  8.5084630199322453e-01  8.5179521509253442e-01  8.5326012148876462e-01  8.5521247520055610e-01  8.5760869842728393e-01  8.6038312031636022e-01  8.6343867897950677e-01  8.6663992436669102e-01  8.6981129077993202e-01  8.7274426979455988e-01  8.7521279167036015e-01  8.7699586366773297e-01  8.7790377985345547e-01  8.7780315423721700e-01  8.7663021472402913e-01  8.7439448351874760e-01  8.7118565923684765e-01  8.6717457678055354e-01  8.6259782173356170e-01  8.5772824780103629e-01  8.5283739868141883e-01  8.4815997162553736e-01  8.4386808386909118e-01  8.4006708447939704e-01  8.3681142017349919e-01  8.3411353167078339e-01  8.3193820790570328e-01  8.3020451237923498e-01  8.2879900330540657e-01  8.2758744254286631e-01  8.2641994068117863e-01  8.2513893406154504e-01  8.2359148234585011e-01  8.2164450937170896e-01  8.1919957907219387e-01  8.1620699025996379e-01  8.1267618757016302e-01  8.0868130496990820e-01  8.0435891675112869e-01  7.9989599922992494e-01  7.9550549562506012e-01  7.9139541972534633e-01  7.8774171957361871e-01  7.8467430668480398e-01  7.8227476443912558e-01  7.8058240882530072e-01  7.7960268357317264e-01  7.7931582495294094e-01  7.7968389247063918e-01  7.8065657533551380e-01  7.8217459332319139e-01  7.8417147902697970e-01  7.8657110084318571e-01  7.8927831270237314e-01  7.9215998922208397e-01  7.9503157910657485e-01  7.9767149408805949e-01  7.9985413618777312e-01  8.0136662797354474e-01  8.0200067748546666e-01  8.0155823244935254e-01  7.9989128329208292e-01  7.9696207945022812e-01  7.9288230677191840e-01  7.8791976305525291e-01  7.8246382393852010e-01  7.7694718211215219e-01  7.7177920081438600e-01  7.6730622831305662e-01  7.6378430796164853e-01  7.6135406225379365e-01  7.6001860537076549e-01  7.5963767618990607e-01  7.5994537137591134e-01  7.6059356192456684e-01  7.6122703548497883e-01  7.6154415393385977e-01  7.6132484955234436e-01  7.6043271642094346e-01  7.5880681634682023e-01  7.5645271970863104e-01  7.5343463212265804e-01  7.4986741089452469e-01  7.4590898963533214e-01  7.4174899309012343e-01  7.3759427675401146e-01  7.3365121169216918e-01  7.3010703830043799e-01  7.2711081879040129e-01  7.2475698161735314e-01  7.2307240228685432e-01  7.2201104388120885e-01  7.2145799711408165e-01  7.2124781061314014e-01  7.2119130361842598e-01  7.2110122722142511e-01  7.2081635615282236e-01  7.2020854807717505e-01  7.1917390712898688e-01  7.1762976675428614e-01  7.1552233993253311e-01  7.1284047307314569e-01  7.0963173239570088e-01  7.0600802747429414e-01  7.0212850501311674e-01  6.9817174254067538e-01  6.9430744964473690e-01  6.9067148238393494e-01  6.8734970197506806e-01  6.8437954850155303e-01  6.8175574376081283e-01  6.7942670365913660e-01  6.7729065288060819e-01  6.7520286740969682e-01  6.7300023236296291e-01  6.7055085577966356e-01  6.6782473117842256e-01  6.6493836200688594e-01  6.6207046147952076e-01  6.5933108603949986e-01  6.5673806885485120e-01  6.5425301698174421e-01  6.5182483979757766e-01  6.4941418355123759e-01  6.4698462308958105e-01  6.4447941178932089e-01  6.4182366523565526e-01  6.3896044498995341e-01  6.3588728665520222e-01  6.3264922392804079e-01  6.2931692742813850e-01  6.2598897209097171e-01  6.2273464177264459e-01  6.1950481439712735e-01  6.1612830751272440e-01  6.1239259959970593e-01  6.0821422096189537e-01  6.0380684219040459e-01  5.9950613451213886e-01  5.9542390272143231e-01  5.9150338877950093e-01  5.8766971096180898e-01  5.8388024697207419e-01  5.8009693896986969e-01  5.7628026318296000e-01  5.7238305003335466e-01  5.6833911138564364e-01  5.6407566647053609e-01  5.5957713035922962e-01  5.5499733030716247e-01  5.5065224025327841e-01  5.4678928322612652e-01  5.4335885804171824e-01  5.4006892187215971e-01  5.3666691267919497e-01  5.3296517175456659e-01  5.2886016921931289e-01  5.2447963139240428e-01  5.2018186259314059e-01  5.1629333934463673e-01  5.1302603935194047e-01  5.1036334443506648e-01  5.0782767129254969e-01  5.0467884928402329e-01  5.0051035830667545e-01  4.9516279092027754e-01  4.8863175779287088e-01  4.8128358626865164e-01  4.7365409395486868e-01  4.6552841541862799e-01  4.5598767512413135e-01  4.4463206056567101e-01  4.3097541996830419e-01  4.1443194792720500e-01  3.9475619300650194e-01  3.7206555630861221e-01  3.4649723225384677e-01  3.1832016469637886e-01  2.8799297057898049e-01  2.5611518891440122e-01  2.2378333189215902e-01  1.9236069152212787e-01  1.6327885534228853e-01  1.3755530136859856e-01  1.1540517930809757e-01  9.6572416728082311e-02  8.0648088677728741e-02  6.7223468155612073e-02  5.5934082995146961e-02  4.6464629542294203e-02  3.8542250292381730e-02  3.1930170104866082e-02  2.6423286143195907e-02  2.1844880638398324e-02  1.8043796861726896e-02  1.4891704857607633e-02  1.2280342689214871e-02  1.0118804278640111e-02  8.3309927279193608e-03  6.8533498338710841e-03  5.6328875673048642e-03  4.6255243542156401e-03  3.7946657068840582e-03  3.1100150435666991e-03  2.5465497129619204e-03  2.0836631453913768e-03  1.7044357206969418e-03  1.3950225984364021e-03  1.1441484712050804e-03  9.4268928253889216e-04  7.8334087147485516e-04  6.6035743362964985e-04  5.6936800123959404e-04  5.0729427490502424e-04  4.7250158542746443e-04  4.6580051133630586e-04  8.5980583314417869e-01  8.5912789144704005e-01  8.5814675898495063e-01  8.5691469319639013e-01  8.5540763986928281e-01  8.5362785101816818e-01  8.5161581037959566e-01  8.4945012310398693e-01  8.4723919014928628e-01  8.4510800025477328e-01  8.4318427748508185e-01  8.4158675255066717e-01  8.4041571572914753e-01  8.3974711583331119e-01  8.3962979855514108e-01  8.4008635238544949e-01  8.4111658597520433e-01  8.4270363883681143e-01  8.4481843569783344e-01  8.4741799313808153e-01  8.5043653871951697e-01  8.5377481812415834e-01  8.5729066936386500e-01  8.6079690885947713e-01  8.6406893355000414e-01  8.6686225125219396e-01  8.6893675664299219e-01  8.7008266544007673e-01  8.7014365512682190e-01  8.6903321168077230e-01  8.6674467016814671e-01  8.6336464939185531e-01  8.5907510629282646e-01  8.5413496997559368e-01  8.4884588044221687e-01  8.4351031414603495e-01  8.3839282280730476e-01  8.3369217903793913e-01  8.2953213248813762e-01  8.2597385840740922e-01  8.2302988171997460e-01  8.2066098868203119e-01  8.1877730954144401e-01  8.1725428573857817e-01  8.1594590301768166e-01  8.1468950327740375e-01  8.1331313534962191e-01  8.1164967065309446e-01  8.0955328811728200e-01  8.0691576789575559e-01  8.0368159052274968e-01  7.9986026698544299e-01  7.9553225246020176e-01  7.9084794641220124e-01  7.8601462724722482e-01  7.8126903048500285e-01  7.7684004431283060e-01  7.7291739365640466e-01  7.6963701746422053e-01  7.6708139106236206e-01  7.6528745203458637e-01  7.6425742863310664e-01  7.6396780641316864e-01  7.6437752393847769e-01  7.6543388405204538e-01  7.6707685468022246e-01  7.6924090776115173e-01  7.7185337241868024e-01  7.7482408381182466e-01  7.7802332434193977e-01  7.8126099893749079e-01  7.8429909271152298e-01  7.8688940691395937e-01  7.8879080625833331e-01  7.8976370817373220e-01  7.8957450243291960e-01  7.8803847047684372e-01  7.8509235713366021e-01  7.8084252863924175e-01  7.7557624786007007e-01  7.6972243604157964e-01  7.6375425417075793e-01  7.5811408716099604e-01  7.5317830495807370e-01  7.4923351073571098e-01  7.4645217997131519e-01  7.4486609413642668e-01  7.4434898911437564e-01  7.4461866212136940e-01  7.4528221027678920e-01  7.4593513683739254e-01  7.4624374367087210e-01  7.4597153009660611e-01  7.4497592832435400e-01  7.4319508627120789e-01  7.4063808177565948e-01  7.3737569401483471e-01  7.3353239754663491e-01  7.2927833207837101e-01  7.2481772736855488e-01  7.2037284497204213e-01  7.1616556313333990e-01  7.1239705059047798e-01  7.0922829479560279e-01  7.0676214751670619e-01  7.0503033880419264e-01  7.0398725638545323e-01  7.0351401641249944e-01  7.0343391742020955e-01  7.0354082590539857e-01  7.0363050684415851e-01  7.0352881642216647e-01  7.0309765045451322e-01  7.0222187003115011e-01  7.0080572193547686e-01  6.9878328153780778e-01  6.9613422897453625e-01  6.9290381059194661e-01  6.8921033086492201e-01  6.8522322185391016e-01  6.8113206388043745e-01  6.7711804721179147e-01  6.7332508555728299e-01  6.6984084749063733e-01  6.6670199376023764e-01  6.6390608377197480e-01  6.6140442927736209e-01  6.5909563239560665e-01  6.5683056579282295e-01  6.5443580522666933e-01  6.5176171179372688e-01  6.4876768660370954e-01  6.4559862329971873e-01  6.4248468852755602e-01  6.3954995364953060e-01  6.3680295964264333e-01  6.3419192958504933e-01  6.3165780537976923e-01  6.2916039571243554e-01  6.2666725423938840e-01  6.2411982620025130e-01  6.2142990844964552e-01  6.1852420933268981e-01  6.1539850961145648e-01  6.1210474188806108e-01  6.0871419453763986e-01  6.0534288309153594e-01  6.0209054103615978e-01  5.9891512653249268e-01  5.9563418174243477e-01  5.9200765087324025e-01  5.8790112615998091e-01  5.8351730029768756e-01  5.7925120201640379e-01  5.7521113181369021e-01  5.7131026473831470e-01  5.6746181046308530e-01  5.6363436273790213e-01  5.5979881325337566e-01  5.5592416656739196e-01  5.5197348139029956e-01  5.4788822020215178e-01  5.4359798595374809e-01  5.3907934498532395e-01  5.3445550651353235e-01  5.3002753084949106e-01  5.2606136500310119e-01  5.2255689867111443e-01  5.1924064402050218e-01  5.1586675764980161e-01  5.1226409791052141e-01  5.0832569614877077e-01  5.0412953011374528e-01  5.0001581463878886e-01  4.9631168491409305e-01  4.9322653401024763e-01  4.9077507681010474e-01  4.8859600407184706e-01  4.8598859847953368e-01  4.8253938570170657e-01  4.7810397027317092e-01  4.7266617272509714e-01  4.6646716404241018e-01  4.5999483925197893e-01  4.5316048902762146e-01  4.4517286375826165e-01  4.3539867700912921e-01  4.2338270829409058e-01  4.0860332251095083e-01  3.9075936628003205e-01  3.6991295396423696e-01  3.4612209542572747e-01  3.1955768920836858e-01  2.9068408647031346e-01  2.6009983407008985e-01  2.2872948983830929e-01  1.9782276302517787e-01  1.6878259868303902e-01  1.4274744466595851e-01  1.2010441619418871e-01  1.0070975493041419e-01  8.4216535767808257e-02  7.0254904542500246e-02  5.8481583897838585e-02  4.8590163679205906e-02  4.0307911747735875e-02  3.3393233284899716e-02  2.7634068502931392e-02  2.2846293773001514e-02  1.8871808464837009e-02  1.5576197681262987e-02  1.2846060658274417e-02  1.0586214341505069e-02  8.7170207486420084e-03  7.1719847337961447e-03  5.8956921345392193e-03  4.8420533656051857e-03  3.9728300680301259e-03  3.2563721870835084e-03  2.6665563898716372e-03  2.1818743845559542e-03  1.7846705138666664e-03  1.4605008999442367e-03  1.1975996311755918e-03  9.8644530678318487e-04  8.1940901233368084e-04  6.9048085234551734e-04  5.9506021221826045e-04  5.2979967477329991e-04  4.9245227302213452e-04  4.8143194240650596e-04  8.2893246110571528e-01  8.2847761156022048e-01  8.2757735525326892e-01  8.2624184471978912e-01  8.2449226916217755e-01  8.2235855960666959e-01  8.1990544468956361e-01  8.1724070049959685e-01  8.1450863166938492e-01  8.1187186601334249e-01  8.0949343055221412e-01  8.0752263900676158e-01  8.0608406427563650e-01  8.0527018789299776e-01  8.0513951958925889e-01  8.0571740588329521e-01  8.0700140310663049e-01  8.0897069443034109e-01  8.1159561148671411e-01  8.1483653698007730e-01  8.1863028753939249e-01  8.2287279883636766e-01  8.2740274893809806e-01  8.3199556740502090e-01  8.3637496002210043e-01  8.4023664758511274e-01  8.4327853214341086e-01  8.4522684345858845e-01  8.4585406669623719e-01  8.4499919509762322e-01  8.4259892320750773e-01  8.3872713560834755e-01  8.3360279920050295e-01  8.2755669243376340e-01  8.2098301361227799e-01  8.1427953345029014e-01  8.0779995181627862e-01  8.0181859522049814e-01  7.9651466202396504e-01  7.9197921799313209e-01  7.8823060863707128e-01  7.8521912426400653e-01  7.8283113164149276e-01  7.8090867966684752e-01  7.7926890411862293e-01  7.7770828694944205e-01  7.7601019689817297e-01  7.7396291919940863e-01  7.7138184613279814e-01  7.6812813412651781e-01  7.6412852255264763e-01  7.5939220329060508e-01  7.5401988811170562e-01  7.4820487159114468e-01  7.4221970512996016e-01  7.3637739859244977e-01  7.3097312974804096e-01  7.2623591997437853e-01  7.2231609926077178e-01  7.1929407020961844e-01  7.1719698179437230e-01  7.1601508119095725e-01  7.1571327299335319e-01  7.1624066512572360e-01  7.1753864396328793e-01  7.1954621832124688e-01  7.2220482293910515e-01  7.2545692918942406e-01  7.2923275166721224e-01  7.3341468556304479e-01  7.3779481908919586e-01  7.4208382767483883e-01  7.4596658291825058e-01  7.4912305394446366e-01  7.5121925041599014e-01  7.5190743377989677e-01  7.5088236297341837e-01  7.4799417900404486e-01  7.4332605332736423e-01  7.3722107736270059e-01  7.3023810656831656e-01  7.2297292701929405e-01  7.1596018646964266e-01  7.0965988502124144e-01  7.0444738465546008e-01  7.0058637338657015e-01  6.9819552921104455e-01  6.9720203894850064e-01  6.9729392169774274e-01  6.9794847526820913e-01  6.9860522010935688e-01  6.9883476983877502e-01  6.9835599694839934e-01  6.9701012336726687e-01  6.9473441403040881e-01  6.9154864663069926e-01  6.8754462930404592e-01  6.8287510157414388e-01  6.7774688944891248e-01  6.7240642346145729e-01  6.6712053729347465e-01  6.6215424689740665e-01  6.5774784270298736e-01  6.5409448775557888e-01  6.5132059235260253e-01  6.4947040144233337e-01  6.4849977492764210e-01  6.4827982813713458e-01  6.4860736068275704e-01  6.4922608900833867e-01  6.4987637750378358e-01  6.5035043130791348e-01  6.5048708818522316e-01  6.5013969884571499e-01  6.4917392323303613e-01  6.4748615019348044e-01  6.4502648389990513e-01  6.4183086889827201e-01  6.3803531579127815e-01  6.3383681063219655e-01  6.2945370763774111e-01  6.2509813568677020e-01  6.2093692078487306e-01  6.1705801321849263e-01  6.1349116675561155e-01  6.1024324474347924e-01  6.0727714918126652e-01  6.0449512349590973e-01  6.0173988906818487e-01  5.9881558128755052e-01  5.9553384169355883e-01  5.9181533203074654e-01  5.8786828916583000e-01  5.8408057428838245e-01  5.8061646928843713e-01  5.7745506837232596e-01  5.7450836690622720e-01  5.7169672059694421e-01  5.6898329864980568e-01  5.6635109647666682e-01  5.6374323477095745e-01  5.6103419951297306e-01  5.5809584052912142e-01  5.5491267053318838e-01  5.5156502755330861e-01  5.4811513545320212e-01  5.4471415832990133e-01  5.4155495819941168e-01  5.3861837850650429e-01  5.3570074968613823e-01  5.3252464996273707e-01  5.2888152765796359e-01  5.2486796025248439e-01  5.2094338223955183e-01  5.1720983143281685e-01  5.1352543460411215e-01  5.0978206511577839e-01  5.0598049929020550e-01  5.0212286437443709e-01  4.9820093793981229e-01  4.9420528846088368e-01  4.9009923632085339e-01  4.8581976221453721e-01  4.8133808016603108e-01  4.7674784144988464e-01  4.7227602374032535e-01  4.6818288034670047e-01  4.6453339389467402e-01  4.6116874563762472e-01  4.5789675747628239e-01  4.5458679201511665e-01  4.5113994134611873e-01  4.4756941834375441e-01  4.4411924919252516e-01  4.4108887006470476e-01  4.3868737728176460e-01  4.3696998903323375e-01  4.3573956370693306e-01  4.3454085971716933e-01  4.3301997496810285e-01  4.3103969605221309e-01  4.2857186922093299e-01  4.2571043956395460e-01  4.2266379073343341e-01  4.1932600063457115e-01  4.1511726939333371e-01  4.0939176356261375e-01  4.0164056894761652e-01  3.9145246249545573e-01  3.7850719987518439e-01  3.6267532659761131e-01  3.4383592482524772e-01  3.2194277003873778e-01  2.9731429520019970e-01  2.7054624602156496e-01  2.4227777054883942e-01  2.1335457935331736e-01  1.8498135310336897e-01  1.5845399423936188e-01  1.3457209324670746e-01  1.1358577390018984e-01  9.5393867050606609e-02  7.9787104481802068e-02  6.6510982723667747e-02  5.5300002857605571e-02  4.5887968734969531e-02  3.8021028040076489e-02  3.1466678769607626e-02  2.6018181027781691e-02  2.1495926342761994e-02  1.7746558987169363e-02  1.4640630257769953e-02  1.2069577331222298e-02  9.9426356340070604e-03  8.1840696309507816e-03  6.7307978958397680e-03  5.5304041711898887e-03  4.5394416450132554e-03  3.7220003619538697e-03  3.0484674609775400e-03  2.4944901999828521e-03  2.0400857474277864e-03  1.6689097115170466e-03  1.3676444331177542e-03  1.1255032655859707e-03  9.3383025394525910e-04  7.8578531657239883e-04  6.7609882188788520e-04  6.0087482995800948e-04  5.5740510763309739e-04  5.4393529893880660e-04  7.7161121120164744e-01  7.7130364588212641e-01  7.7039951784377503e-01  7.6883072101756511e-01  7.6664092385956428e-01  7.6388656051537374e-01  7.6066605078684968e-01  7.5713525935908277e-01  7.5350227681753923e-01  7.4999590584295373e-01  7.4683968049179095e-01  7.4423474044004390e-01  7.4234627677808740e-01  7.4129401099078585e-01  7.4115236304982457e-01  7.4195227225594029e-01  7.4368905516946826e-01  7.4633717616548390e-01  7.4986809651577735e-01  7.5425381682783044e-01  7.5944495990002692e-01  7.6534053845973615e-01  7.7175239122295969e-01  7.7838925971612016e-01  7.8487795712385144e-01  7.9080307582359277e-01  7.9574797828095822e-01  7.9931637067361472e-01  8.0114452026630978e-01  8.0092841409174687e-01  7.9848677924926603e-01  7.9386481177176138e-01  7.8735940620991607e-01  7.7944077402668843e-01  7.7068028470524030e-01  7.6164790355170953e-01  7.5284939107790660e-01  7.4467875123423033e-01  7.3739430216347746e-01  7.3112982715302999e-01  7.2591561576551533e-01  7.2169125863729811e-01  7.1831481496604976e-01  7.1558263276734646e-01  7.1325006370169719e-01  7.1104465647401771e-01  7.0867628799314386e-01  7.0586142621938230e-01  7.0235495973932160e-01  6.9797155698119107e-01  6.9261043134267342e-01  6.8628266450629405e-01  6.7912532911924040e-01  6.7140603691535328e-01  6.6351067575229317e-01  6.5588744364484575e-01  6.4894344180250541e-01  6.4295866101832200e-01  6.3808520641834465e-01  6.3438251142046043e-01  6.3184971819961877e-01  6.3045154604297615e-01  6.3013212799097928e-01  6.3082594256395352e-01  6.3246856039754262e-01  6.3500452112745553e-01  6.3839657216524459e-01  6.4262824736762869e-01  6.4768382620353770e-01  6.5348473945394336e-01  6.5979586913884669e-01  6.6623376372040921e-01  6.7237641678821836e-01  6.7779056110390123e-01  6.8200371646454572e-01  6.8448115361007300e-01  6.8469029513290136e-01  6.8230364143636135e-01  6.7733495091071372e-01  6.7018790006547579e-01  6.6165859085038170e-01  6.5255421576400130e-01  6.4353953856043011e-01  6.3519112833326563e-01  6.2801637466164828e-01  6.2241581715791550e-01  6.1864635557144276e-01  6.1673983808652055e-01  6.1637520046394034e-01  6.1684080111248973e-01  6.1731461760698780e-01  6.1723217513781203e-01  6.1626330205012048e-01  6.1423560954680501e-01  6.1109164741323752e-01  6.0687201429351967e-01  6.0170530191794624e-01  5.9579040808190065e-01  5.8938873561143568e-01  5.8280594984468492e-01  5.7636690150748660e-01  5.7038946811944802e-01  5.6515872863083061e-01  5.6090351471414857e-01  5.5777618020296915e-01  5.5583567302911263e-01  5.5504086865267166e-01  5.5525640161407752e-01  5.5625624505341920e-01  5.5772300449729417e-01  5.5930998250242248e-01  5.6076515534741678e-01  5.6190835713795784e-01  5.6255004552295884e-01  5.6249797775989774e-01  5.6159169587465185e-01  5.5973657953958456e-01  5.5694529865427234e-01  5.5336716768113881e-01  5.4922677081144489e-01  5.4476713417074096e-01  5.4023635662488756e-01  5.3583422376612266e-01  5.3164300863763847e-01  5.2766599397999070e-01  5.2392789548866869e-01  5.2041717548947319e-01  5.1705377926349794e-01  5.1368874305903900e-01  5.1012556180852675e-01  5.0617097454021776e-01  5.0172458351542781e-01  4.9697659196452326e-01  4.9247646874296380e-01  4.8845721852162388e-01  4.8487330666932416e-01  4.81603577746