<?xml version="1.0"?>
<VTKFile type="UnstructuredGrid"  version="0.1"  >
<UnstructuredGrid>
<Piece  NumberOfPoints="7161" NumberOfCells="13800">
<Points>
<DataArray  type="Float64"  NumberOfComponents="3"  format="ascii">0 0 0  0.01652173913043478 0 0  0.03304347826086956 0 0  0.04956521739130434 0 0  0.06608695652173913 0 0  0.08260869565217391 0 0  0.09913043478260869 0 0  0.1156521739130435 0 0  0.1321739130434783 0 0  0.148695652173913 0 0  0.1652173913043478 0 0  0.1817391304347826 0 0  0.1982608695652174 0 0  0.2147826086956522 0 0  0.2313043478260869 0 0  0.2478260869565218 0 0  0.2643478260869565 0 0  0.2808695652173913 0 0  0.2973913043478261 0 0  0.3139130434782609 0 0  0.3304347826086956 0 0  0.3469565217391304 0 0  0.3634782608695652 0 0  0.3799999999999999 0 0  0.3965217391304348 0 0  0.4130434782608696 0 0  0.4295652173913043 0 0  0.4460869565217391 0 0  0.4626086956521739 0 0  0.4791304347826086 0 0  0.4956521739130435 0 0  0.5121739130434783 0 0  0.528695652173913 0 0  0.5452173913043478 0 0  0.5617391304347825 0 0  0.5782608695652174 0 0  0.5947826086956521 0 0  0.6113043478260869 0 0  0.6278260869565218 0 0  0.6443478260869565 0 0  0.6608695652173913 0 0  0.677391304347826 0 0  0.6939130434782609 0 0  0.7104347826086956 0 0  0.7269565217391304 0 0  0.7434782608695653 0 0  0.7599999999999999 0 0  0.7765217391304348 0 0  0.7930434782608695 0 0  0.8095652173913043 0 0  0.8260869565217391 0 0  0.8426086956521739 0 0  0.8591304347826086 0 0  0.8756521739130434 0 0  0.8921739130434783 0 0  0.908695652173913 0 0  0.9252173913043478 0 0  0.9417391304347826 0 0  0.9582608695652173 0 0  0.9747826086956521 0 0  0.991304347826087 0 0  1.007826086956522 0 0  1.024347826086957 0 0  1.040869565217391 0 0  1.057391304347826 0 0  1.073913043478261 0 0  1.090434782608696 0 0  1.10695652173913 0 0  1.123478260869565 0 0  1.14 0 0  1.156521739130435 0 0  1.17304347826087 0 0  1.189565217391304 0 0  1.206086956521739 0 0  1.222608695652174 0 0  1.239130434782609 0 0  1.255652173913044 0 0  1.272173913043478 0 0  1.288695652173913 0 0  1.305217391304348 0 0  1.321739130434783 0 0  1.338260869565217 0 0  1.354782608695652 0 0  1.371304347826087 0 0  1.387826086956522 0 0  1.404347826086957 0 0  1.420869565217391 0 0  1.437391304347826 0 0  1.453913043478261 0 0  1.470434782608696 0 0  1.486956521739131 0 0  1.503478260869565 0 0  1.52 0 0  1.536521739130435 0 0  1.55304347826087 0 0  1.569565217391304 0 0  1.586086956521739 0 0  1.602608695652174 0 0  1.619130434782609 0 0  1.635652173913043 0 0  1.652173913043478 0 0  1.668695652173913 0 0  1.685217391304348 0 0  1.701739130434782 0 0  1.718260869565217 0 0  1.734782608695652 0 0  1.751304347826087 0 0  1.767826086956522 0 0  1.784347826086957 0 0  1.800869565217391 0 0  1.817391304347826 0 0  1.833913043478261 0 0  1.850434782608696 0 0  1.86695652173913 0 0  1.883478260869565 0 0  1.9 0 0  1.916521739130435 0 0  1.933043478260869 0 0  1.949565217391304 0 0  1.966086956521739 0 0  1.982608695652174 0 0  1.999130434782608 0 0  2.015652173913043 0 0  2.032173913043478 0 0  2.048695652173913 0 0  2.065217391304348 0 0  2.081739130434782 0 0  2.098260869565217 0 0  2.114782608695652 0 0  2.131304347826087 0 0  2.147826086956522 0 0  2.164347826086956 0 0  2.180869565217391 0 0  2.197391304347826 0 0  2.213913043478261 0 0  2.230434782608695 0 0  2.24695652173913 0 0  2.263478260869565 0 0  2.28 0 0  2.296521739130434 0 0  2.31304347826087 0 0  2.329565217391304 0 0  2.346086956521739 0 0  2.362608695652174 0 0  2.379130434782609 0 0  2.395652173913044 0 0  2.412173913043478 0 0  2.428695652173913 0 0  2.445217391304348 0 0  2.461739130434782 0 0  2.478260869565217 0 0  2.494782608695652 0 0  2.511304347826087 0 0  2.527826086956522 0 0  2.544347826086956 0 0  2.560869565217391 0 0  2.577391304347826 0 0  2.593913043478261 0 0  2.610434782608696 0 0  2.62695652173913 0 0  2.643478260869565 0 0  2.66 0 0  2.676521739130435 0 0  2.693043478260869 0 0  2.709565217391304 0 0  2.726086956521739 0 0  2.742608695652174 0 0  2.759130434782609 0 0  2.775652173913044 0 0  2.792173913043478 0 0  2.808695652173913 0 0  2.825217391304347 0 0  2.841739130434783 0 0  2.858260869565217 0 0  2.874782608695652 0 0  2.891304347826087 0 0  2.907826086956522 0 0  2.924347826086957 0 0  2.940869565217391 0 0  2.957391304347826 0 0  2.973913043478261 0 0  2.990434782608696 0 0  3.006956521739131 0 0  3.023478260869565 0 0  3.04 0 0  3.056521739130435 0 0  3.073043478260869 0 0  3.089565217391304 0 0  3.106086956521739 0 0  3.122608695652174 0 0  3.139130434782609 0 0  3.155652173913043 0 0  3.172173913043478 0 0  3.188695652173913 0 0  3.205217391304347 0 0  3.221739130434782 0 0  3.238260869565217 0 0  3.254782608695652 0 0  3.271304347826087 0 0  3.287826086956521 0 0  3.304347826086957 0 0  3.320869565217391 0 0  3.337391304347826 0 0  3.353913043478261 0 0  3.370434782608696 0 0  3.386956521739131 0 0  3.403478260869565 0 0  3.419999999999999 0 0  3.436521739130435 0 0  3.453043478260869 0 0  3.469565217391304 0 0  3.486086956521739 0 0  3.502608695652174 0 0  3.519130434782609 0 0  3.535652173913043 0 0  3.552173913043478 0 0  3.568695652173913 0 0  3.585217391304347 0 0  3.601739130434782 0 0  3.618260869565217 0 0  3.634782608695652 0 0  3.651304347826087 0 0  3.667826086956521 0 0  3.684347826086956 0 0  3.700869565217391 0 0  3.717391304347826 0 0  3.733913043478261 0 0  3.750434782608695 0 0  3.766956521739131 0 0  3.783478260869565 0 0  3.8 0 0  0 0.01666666666666667 0  0.01652173913043478 0.01666666666666667 0  0.03304347826086956 0.01666666666666667 0  0.04956521739130434 0.01666666666666667 0  0.06608695652173913 0.01666666666666667 0  0.08260869565217391 0.01666666666666667 0  0.09913043478260869 0.01666666666666667 0  0.1156521739130435 0.01666666666666667 0  0.1321739130434783 0.01666666666666667 0  0.148695652173913 0.01666666666666667 0  0.1652173913043478 0.01666666666666667 0  0.1817391304347826 0.01666666666666667 0  0.1982608695652174 0.01666666666666667 0  0.2147826086956522 0.01666666666666667 0  0.2313043478260869 0.01666666666666667 0  0.2478260869565218 0.01666666666666667 0  0.2643478260869565 0.01666666666666667 0  0.2808695652173913 0.01666666666666667 0  0.2973913043478261 0.01666666666666667 0  0.3139130434782609 0.01666666666666667 0  0.3304347826086956 0.01666666666666667 0  0.3469565217391304 0.01666666666666667 0  0.3634782608695652 0.01666666666666667 0  0.3799999999999999 0.01666666666666667 0  0.3965217391304348 0.01666666666666667 0  0.4130434782608696 0.01666666666666667 0  0.4295652173913043 0.01666666666666667 0  0.4460869565217391 0.01666666666666667 0  0.4626086956521739 0.01666666666666667 0  0.4791304347826086 0.01666666666666667 0  0.4956521739130435 0.01666666666666667 0  0.5121739130434783 0.01666666666666667 0  0.528695652173913 0.01666666666666667 0  0.5452173913043478 0.01666666666666667 0  0.5617391304347825 0.01666666666666667 0  0.5782608695652174 0.01666666666666667 0  0.5947826086956521 0.01666666666666667 0  0.6113043478260869 0.01666666666666667 0  0.6278260869565218 0.01666666666666667 0  0.6443478260869565 0.01666666666666667 0  0.6608695652173913 0.01666666666666667 0  0.677391304347826 0.01666666666666667 0  0.6939130434782609 0.01666666666666667 0  0.7104347826086956 0.01666666666666667 0  0.7269565217391304 0.01666666666666667 0  0.7434782608695653 0.01666666666666667 0  0.7599999999999999 0.01666666666666667 0  0.7765217391304348 0.01666666666666667 0  0.7930434782608695 0.01666666666666667 0  0.8095652173913043 0.01666666666666667 0  0.8260869565217391 0.01666666666666667 0  0.8426086956521739 0.01666666666666667 0  0.8591304347826086 0.01666666666666667 0  0.8756521739130434 0.01666666666666667 0  0.8921739130434783 0.01666666666666667 0  0.908695652173913 0.01666666666666667 0  0.9252173913043478 0.01666666666666667 0  0.9417391304347826 0.01666666666666667 0  0.9582608695652173 0.01666666666666667 0  0.9747826086956521 0.01666666666666667 0  0.991304347826087 0.01666666666666667 0  1.007826086956522 0.01666666666666667 0  1.024347826086957 0.01666666666666667 0  1.040869565217391 0.01666666666666667 0  1.057391304347826 0.01666666666666667 0  1.073913043478261 0.01666666666666667 0  1.090434782608696 0.01666666666666667 0  1.10695652173913 0.01666666666666667 0  1.123478260869565 0.01666666666666667 0  1.14 0.01666666666666667 0  1.156521739130435 0.01666666666666667 0  1.17304347826087 0.01666666666666667 0  1.189565217391304 0.01666666666666667 0  1.206086956521739 0.01666666666666667 0  1.222608695652174 0.01666666666666667 0  1.239130434782609 0.01666666666666667 0  1.255652173913044 0.01666666666666667 0  1.272173913043478 0.01666666666666667 0  1.288695652173913 0.01666666666666667 0  1.305217391304348 0.01666666666666667 0  1.321739130434783 0.01666666666666667 0  1.338260869565217 0.01666666666666667 0  1.354782608695652 0.01666666666666667 0  1.371304347826087 0.01666666666666667 0  1.387826086956522 0.01666666666666667 0  1.404347826086957 0.01666666666666667 0  1.420869565217391 0.01666666666666667 0  1.437391304347826 0.01666666666666667 0  1.453913043478261 0.01666666666666667 0  1.470434782608696 0.01666666666666667 0  1.486956521739131 0.01666666666666667 0  1.503478260869565 0.01666666666666667 0  1.52 0.01666666666666667 0  1.536521739130435 0.01666666666666667 0  1.55304347826087 0.01666666666666667 0  1.569565217391304 0.01666666666666667 0  1.586086956521739 0.01666666666666667 0  1.602608695652174 0.01666666666666667 0  1.619130434782609 0.01666666666666667 0  1.635652173913043 0.01666666666666667 0  1.652173913043478 0.01666666666666667 0  1.668695652173913 0.01666666666666667 0  1.685217391304348 0.01666666666666667 0  1.701739130434782 0.01666666666666667 0  1.718260869565217 0.01666666666666667 0  1.734782608695652 0.01666666666666667 0  1.751304347826087 0.01666666666666667 0  1.767826086956522 0.01666666666666667 0  1.784347826086957 0.01666666666666667 0  1.800869565217391 0.0166666666666666
[...]
<PointData  Scalars="rho_bar"> 
<DataArray  type="Float64"  Name="rho_bar"  format="ascii">9.9870106819047288e-01  9.9863263341850517e-01  9.9863721378362180e-01  9.9857674195282808e-01  9.9841004060429084e-01  9.9807143002064569e-01  9.9756352079814858e-01  9.9695653814261798e-01  9.9635222569841864e-01  9.9583155234373577e-01  9.9543165051205806e-01  9.9517490019198418e-01  9.9509652454614217e-01  9.9522126056663685e-01  9.9553149652708128e-01  9.9597015140878531e-01  9.9646027497930445e-01  9.9692687592524898e-01  9.9732317817226179e-01  9.9764306258571422e-01  9.9790688125565596e-01  9.9814169449291612e-01  9.9837026707635856e-01  9.9859604058639351e-01  9.9879854191424655e-01  9.9895984002510407e-01  9.9908066826980813e-01  9.9916469136824315e-01  9.9920776447180970e-01  9.9918506319397771e-01  9.9909027528901528e-01  9.9892667933767609e-01  9.9850689298032458e-01  9.9760466553375560e-01  9.9636760604848451e-01  9.9504997392033856e-01  9.9361772900196521e-01  9.9200754505607680e-01  9.9038575905757054e-01  9.8899805307646205e-01  9.8797954106756403e-01  9.8734248864289109e-01  9.8703162562744529e-01  9.8695768603887746e-01  9.8701344123618628e-01  9.8709756111621350e-01  9.8714405781562020e-01  9.8714133985553165e-01  9.8712729825365331e-01  9.8714423939331986e-01  9.8721252131403392e-01  9.8732903984685894e-01  9.8747004663843108e-01  9.8761328314290320e-01  9.8774453935239226e-01  9.8785293418401676e-01  9.8794213077525517e-01  9.8802043172821075e-01  9.8808319583993764e-01  9.8813045034788183e-01  9.8817619345054686e-01  9.8823267528858139e-01  9.8830564944126653e-01  9.8838597081779411e-01  9.8845375729433760e-01  9.8850171584001167e-01  9.8854187633244339e-01  9.8859213560761794e-01  9.8865384180679250e-01  9.8870028412166033e-01  9.8870014561535757e-01  9.8864471368460582e-01  9.8856094573386843e-01  9.8850520280373522e-01  9.8851557522826927e-01  9.8857265789271254e-01  9.8862931718314184e-01  9.8865596175139348e-01  9.8863612260457867e-01  9.8854822497819339e-01  9.8837608101090646e-01  9.8812873826545822e-01  9.8784554156644222e-01  9.8758459476725391e-01  9.8741875457343620e-01  9.8747388993681939e-01  9.8799840581425757e-01  9.8927593366760480e-01  9.9125890109610282e-01  9.9341816494869339e-01  9.9520345355277129e-01  9.9641810734826630e-01  9.9717063453033183e-01  9.9763434119732641e-01  9.9776610880990813e-01  9.9736959934093228e-01  9.9649801584054054e-01  9.9552244792749767e-01  9.9473158652279803e-01  9.9404939677756343e-01  9.9319663142265213e-01  9.9200815042092461e-01  9.9054946672152022e-01  9.8904021139559462e-01  9.8774195958847644e-01  9.8687023676848085e-01  9.8653291740716820e-01  9.8672626321781010e-01  9.8739805702983607e-01  9.8847040904689010e-01  9.8976636517102956e-01  9.9098779867190356e-01  9.9185878744297296e-01  9.9221650519254712e-01  9.9190212112766363e-01  9.9078300413133802e-01  9.8883432658286197e-01  9.8572946069186773e-01  9.8069686244428089e-01  9.7355638849374282e-01  9.6541505902841362e-01  9.5776143851303353e-01  9.5173900942281986e-01  9.4838834659586391e-01  9.4866047361488948e-01  9.5284091392758430e-01  9.5990587884129952e-01  9.6788300666477178e-01  9.7497921954470168e-01  9.8024977655637968e-01  9.8356686371261226e-01  9.8534097513365848e-01  9.8603010586580486e-01  9.8559954575965059e-01  9.8345781352127593e-01  9.7906307045469476e-01  9.7283437702556963e-01  9.6635826682175474e-01  9.6156043593940055e-01  9.5959126754419766e-01  9.6031070554606801e-01  9.6274518514288532e-01  9.6589183915564159e-01  9.6904713658690678e-01  9.7181465446878346e-01  9.7402666717954189e-01  9.7555669766238018e-01  9.7609553071116595e-01  9.7512500374018651e-01  9.7183286267153346e-01  9.6499262849782241e-01  9.5348345956900615e-01  9.3750166174590699e-01  9.1924364999550223e-01  9.0197066550350269e-01  8.8816404682171757e-01  8.7931303355600976e-01  8.7641628136481275e-01  8.7859082259478960e-01  8.8393029786247912e-01  8.9061013449146698e-01  8.9710229122546570e-01  9.0238688371890952e-01  9.0598981650510935e-01  9.0784168373213792e-01  9.0808925967496179e-01  9.0725039523809081e-01  9.0606219571666247e-01  9.0513239331509987e-01  9.0479250869512451e-01  9.0507233947795129e-01  9.0574117936275800e-01  9.0647217378510037e-01  9.0710710912900516e-01  9.0784287149157428e-01  9.0916063651512991e-01  9.1157074077660627e-01  9.1551518717357572e-01  9.2120943674929157e-01  9.2837817369778608e-01  9.3620855722906882e-01  9.4370474506330337e-01  9.5009280542281938e-01  9.5480904043491244e-01  9.5726973854794650e-01  9.5678723646001240e-01  9.5251085911711386e-01  9.4238731320815317e-01  9.2154956919541653e-01  8.7936540088216797e-01  7.9370344325688924e-01  6.2635094661374213e-01  3.7732294114393650e-01  1.6634543257069201e-01  6.3498577030281389e-02  2.5240085400665021e-02  1.1166356144129537e-02  5.5251093444086330e-03  3.0245374320885922e-03  1.7936476908908306e-03  1.1348249948061719e-03  7.5430469645017804e-04  5.2079073529668805e-04  3.7023494035746994e-04  2.6910633312247407e-04  1.9896715826707887e-04  1.4903694640746023e-04  1.1275874625608425e-04  8.5971842965428940e-05  6.5942340307139361e-05  5.0818433746060770e-05  3.9311076861133388e-05  3.0502824954785219e-05  2.3728046993853206e-05  1.8496778498795902e-05  1.4443991850252739e-05  1.1295386976188047e-05  8.8434698043192419e-06  6.9304112427807624e-06  5.4356897759262519e-06  4.2669105193076545e-06  3.3531024005093255e-06  2.6395951203325191e-06  2.0842951497828369e-06  1.6548102816803048e-06  1.3263405954629703e-06  1.0801158153055421e-06  9.0225818750283885e-07  7.8308809988879209e-07  7.1698781274094146e-07  7.0401831294995930e-07  9.9807093622624243e-01  9.9809055398192870e-01  9.9785905061822544e-01  9.9759108406481234e-01  9.9732256181974688e-01  9.9716847537785036e-01  9.9716901734955921e-01  9.9723539554788143e-01  9.9720396011573587e-01  9.9695184307823981e-01  9.9650235435595347e-01  9.9600959847135639e-01  9.9562495728275391e-01  9.9540725025149424e-01  9.9534335811979802e-01  9.9539755098544558e-01  9.9554820109217612e-01  9.9580734493671286e-01  9.9619352302373920e-01  9.9668466732253747e-01  9.9721542628901960e-01  9.9771330211271725e-01  9.9812145610465131e-01  9.9841407178904318e-01  9.9861979470456086e-01  9.9879231584955785e-01  9.9894480639303207e-01  9.9905733492384974e-01  9.9911202009027911e-01  9.9909915093927415e-01  9.9901980666874335e-01  9.9874240299745054e-01  9.9819139775541865e-01  9.9760583558627214e-01  9.9670248682501261e-01  9.9457281206320658e-01  9.9113961762470948e-01  9.8733920569440359e-01  9.8402587927651708e-01  9.8156372418247728e-01  9.7999913815177142e-01  9.7921985726347383e-01  9.7900787158396518e-01  9.7907588749812979e-01  9.7916570472117626e-01  9.7914752472375366e-01  9.7904600133983022e-01  9.7897314169493910e-01  9.7901858062884983e-01  9.7919297255933369e-01  9.7945555439981602e-01  9.7975017144492182e-01  9.8003773225885582e-01  9.8030450076557452e-01  9.8053855241905019e-01  9.8073885417348761e-01  9.8091180770895892e-01  9.8104938046455203e-01  9.8116534308396341e-01  9.8130271378887712e-01  9.8148338303388505e-01  9.8169560838081682e-01  9.8191126817047047e-01  9.8210584797563627e-01  9.8229226412320869e-01  9.8250027466469625e-01  9.8272740371357559e-01  9.8291922076205962e-01  9.8299478268935103e-01  9.8292070808843024e-01  9.8275608893612287e-01  9.8262276012609462e-01  9.8263639978647688e-01  9.8281931931299649e-01  9.8307291901385563e-01  9.8327127247241863e-01  9.8334266830708705e-01  9.8324579632724696e-01  9.8294590598962672e-01  9.8245140584754642e-01  9.8183327861727421e-01  9.8119737331389023e-01  9.8064905346477582e-01  9.8029617206831443e-01  9.8030570265920869e-01  9.8095892348738589e-01  9.8256565595133194e-01  9.8516310685556596e-01  9.8835900235823837e-01  9.9149116417739691e-01  9.9400903808098640e-01  9.9571676752158456e-01  9.9670668599415346e-01  9.9704551055823987e-01  9.9689914706050198e-01  9.9679318428945218e-01  9.9701763363982832e-01  9.9701854895255781e-01  9.9589882509399918e-01  9.9334090795407826e-01  9.8980691446483293e-01  9.8602965992744029e-01  9.8257465418826651e-01  9.7980494713070188e-01  9.7798847902464092e-01  9.7734151018618709e-01  9.7798145443793594e-01  9.7980502505686573e-01  9.8239959823027867e-01  9.8511145310825465e-01  9.8735061043489314e-01  9.8892984738724798e-01  9.8998207136972238e-01  9.9052139046207399e-01  9.9036377874968551e-01  9.8924206383781266e-01  9.8634813193553261e-01  9.8050424196391639e-01  9.7170871094515820e-01  9.6140890250594202e-01  9.5119481062868927e-01  9.4205471907055416e-01  9.3458368073193188e-01  9.2971538381900609e-01  9.2871281823941121e-01  9.3257693928638297e-01  9.4130922368317482e-01  9.5322490006367788e-01  9.6494934857434123e-01  9.7361586838640712e-01  9.7872274230079215e-01  9.8082318043332484e-01  9.8009840232982015e-01  9.7669786620797661e-01  9.7136944123315749e-01  9.6525490105877387e-01  9.5892569323025800e-01  9.5223155656142267e-01  9.4596674056653374e-01  9.4213831824863548e-01  9.4181987603899653e-01  9.4424442719563173e-01  9.4816750202975941e-01  9.5279233846919609e-01  9.5761133339906435e-01  9.6204811207674712e-01  9.6542623012553519e-01  9.6704224591604382e-01  9.6615601079106206e-01  9.6182558575864174e-01  9.5304146657554678e-01  9.3911743003015546e-01  9.1983928628777278e-01  8.9656147935855801e-01  8.7314023045766731e-01  8.5349925885507805e-01  8.4006442767405054e-01  8.3475208389648059e-01  8.3723778055838960e-01  8.4473755584311971e-01  8.5442401594892470e-01  8.6395124729832318e-01  8.7178080473274333e-01  8.7721498938014608e-01  8.8028101652921364e-01  8.8099359799483690e-01  8.7985849295738694e-01  8.7798295726692932e-01  8.7636917737757469e-01  8.7556880217097743e-01  8.7569509813904300e-01  8.7647896807266701e-01  8.7740771871569467e-01  8.7807973782823889e-01  8.7861172139810961e-01  8.7969669977270826e-01  8.8204194769325717e-01  8.8624684395659747e-01  8.9274179033413348e-01  9.0153903233746668e-01  9.1202657275656085e-01  9.2301966832940419e-01  9.3307877184211518e-01  9.4098851982852227e-01  9.4584559772309895e-01  9.4693124406715323e-01  9.4347839487595964e-01  9.3374122710076868e-01  9.1344037685494206e-01  8.7342265363794791e-01  7.9550827606544450e-01  6.4953719653567965e-01  4.2406076247022445e-01  2.0294778540752587e-01  8.0127039585816573e-02  3.1720337747993321e-02  1.3644249943385445e-02  6.5771318266134799e-03  3.5016048140059926e-03  2.0360074051809442e-03  1.2667707915500555e-03  8.3103839737232285e-04  5.6829841638020013e-04  4.0086495741592325e-04  2.8967913811302133e-04  2.1319626307740109e-04  1.5912397872195157e-04  1.2005300529590381e-04  9.1330101512769254e-05  6.9930147793008900e-05  5.3818018466927347e-05  4.1587649559026690e-05  3.2243597413365728e-05  2.5067536090997378e-05  1.9532773163291577e-05  1.5248549293400651e-05  1.1922166050223907e-05  9.3328220304196823e-06  7.3130268733512329e-06  5.7350873256055066e-06  4.5013085451958158e-06  3.5366708056800775e-06  2.7834836580610295e-06  2.1973032780255448e-06  1.7439560129608232e-06  1.3972732405495934e-06  1.1374263501319343e-06  9.4972007220243638e-07  8.2369394557276220e-07  7.5245335892018631e-07  7.3159031972480678e-07  9.9790372804413352e-01  9.9759661979872150e-01  9.9785416301368290e-01  9.9804416044089128e-01  9.9806903361094723e-01  9.9747409912457907e-01  9.9585658005289612e-01  9.9325048610415123e-01  9.9015798218773932e-01  9.8728088724189833e-01  9.8515994785401506e-01  9.8397196789278896e-01  9.8370891574059893e-01  9.8437234506395943e-01  9.8587642428050748e-01  9.8796356848447098e-01  9.9030121223516143e-01  9.9253865698355848e-01  9.9433989255229571e-01  9.9552949730564322e-01  9.9618284364246867e-01  9.9652157317288947e-01  9.9677591626969020e-01  9.9713144008370280e-01  9.9762759194423745e-01  9.9810746594392019e-01  9.9843537275289085e-01  9.9864193131680923e-01  9.9876449549311719e-01  9.9880146690791194e-01  9.9867169589214344e-01  9.9826012830290511e-01  9.9782157116013936e-01  9.9620613183106133e-01  9.9147276545379215e-01  9.8509114266811004e-01  9.7963782471152183e-01  9.7497526642836718e-01  9.7030058080702197e-01  9.6606967651462028e-01  9.6294192640622644e-01  9.6107262823138584e-01  9.6029259377094656e-01  9.6025357393350852e-01  9.6061001004757141e-01  9.6101597756870361e-01  9.6128151880588897e-01  9.6132075732344380e-01  9.6123315261930020e-01  9.6123099248061361e-01  9.6139174400158400e-01  9.6175157709572368e-01  9.6225266608911153e-01  9.6276829737993375e-01  9.6323826231647691e-01  9.6362359357848515e-01  9.6389563603771400e-01  9.6410731534264871e-01  9.6431323359242749e-01  9.6446033513936680e-01  9.6457894378469056e-01  9.6471562882337902e-01  9.6489218639364982e-01  9.6512869175904470e-01  9.6537283610421831e-01  9.6553278022905520e-01  9.6561772519619016e-01  9.6568339655033020e-01  9.6580027650548117e-01  9.6595561988424150e-01  9.6602148009175570e-01  9.6591883004718326e-01  9.6565657101858005e-01  9.6536740773506358e-01  9.6526615833734064e-01  9.6542023859712833e-01  9.6565152668033261e-01  9.6577764404243382e-01  9.6576406478360755e-01  9.6558716315172932e-01  9.6515922146504807e-01  9.6442781921822973e-01  9.6344500689070767e-01  9.6237619743894165e-01  9.6143750300584818e-01  9.6095332140995082e-01  9.6169188259484040e-01  9.6505035173180531e-01  9.7218140847361034e-01  9.8117207757534675e-01  9.8840433321273069e-01  9.9261017635515714e-01  9.9461493487099084e-01  9.9555026462420759e-01  9.9636576901098695e-01  9.9631036088645286e-01  9.9349248522015210e-01  9.8809201694573812e-01  9.8273871539821245e-01  9.7947716307350130e-01  9.7774599628367298e-01  9.7563837961070587e-01  9.7206391095496891e-01  9.6735735919069965e-01  9.6267587974658875e-01  9.5927687504354997e-01  9.5797242285944029e-01  9.5869440719287902e-01  9.6085078327620066e-01  9.6410129838922864e-01  9.6848979371369992e-01  9.7367439953274515e-01  9.7837911441337755e-01  9.8127906322408254e-01  9.8190993040565666e-01  9.7970309541916645e-01  9.7375773669418353e-01  9.6417314376772312e-01  9.4934503292108496e-01  9.2437645122558776e-01  8.8886765124711875e-01  8.5019620893598991e-01  8.1669016677202466e-01  7.9458530493111135e-01  7.8909722633530599e-01  8.0412182496146956e-01  8.3834875805208442e-01  8.8119705445619900e-01  9.1741011945384321e-01  9.4066785013418219e-01  9.5348118742511490e-01  9.5896848958961678e-01  9.6008623570809570e-01  9.5865514510590366e-01  9.5297712724481243e-01  9.3789859122686459e-01  9.0924745164972887e-01  8.7163305341501396e-01  8.4025199511200455e-01  8.2788980713686533e-01  8.3416153599888720e-01  8.4987328841488285e-01  8.6817120690887295e-01  8.8604540939790910e-01  9.0183741542061846e-01  9.1445757485342771e-01  9.2372700877252079e-01  9.2938031549253353e-01  9.3010155428746566e-01  9.2361912725543216e-01  9.0615710029441721e-01  8.7159101442935316e-01  8.1578042878111634e-01  7.4520061503771773e-01  6.7568383533846899e-01  6.1882014066245938e-01  5.7790250969797796e-01  5.5426455288528209e-01  5.4877911714587557e-01  5.5795193231853835e-01  5.7579657645043247e-01  5.9617428138384509e-01  6.1402917496569953e-01  6.2603039697009366e-01  6.3203121210661239e-01  6.3120214425964261e-01  6.2510451846204163e-01  6.1810608446219084e-01  6.1333759893410367e-01  6.1205940860670927e-01  6.1441818853999852e-01  6.1932543685252239e-01  6.2467464964233121e-01  6.2895433651625920e-01  6.3270062321302356e-01  6.3877465730815108e-01  6.4960043844005999e-01  6.6715700590260285e-01  6.9325810049958303e-01  7.2822601333495673e-01  7.6917273641792538e-01  8.1044713496832821e-01  8.4655910217078345e-01  8.7470871165916886e-01  8.9400978500115613e-01  9.0444400904708111e-01  9.0641481980851224e-01  8.9970726193525885e-01  8.8230094026411188e-01  8.4914278363198870e-01  7.9073733851634598e-01  6.9057642464138869e-01  5.2961608992003617e-01  3.2296480226681940e-01  1.5119941672627885e-01  6.1317474275996660e-02  2.5155688946853598e-02  1.1122657660164214e-02  5.5131352822217752e-03  2.9987260255736042e-03  1.7682702492840823e-03  1.1155597328854848e-03  7.3827875826188718e-04  5.0854483182396115e-04  3.6064899773700714e-04  2.6161331425880534e-04  1.9308858252572081e-04  1.4439943652018878e-04  1.0909906048631003e-04  8.3085611437050833e-05  6.3674395990921803e-05  4.9045366486007607e-05  3.7933027997545143e-05  2.9437618808486230e-05  2.2908185722712655e-05  1.7867125891706399e-05  1.3960363502426088e-05  1.0923021585932062e-05  8.5555972861403453e-06  6.7068854311539519e-06  5.2616807795152779e-06  4.1318292097246235e-06  3.2496315619358526e-06  2.5630402166230445e-06  2.0320275912446113e-06  1.6259471926719288e-06  1.3215528726056304e-06  1.1015534388113397e-06  9.5354329023332208e-07  8.6916832075833085e-07  8.4339298593491422e-07  9.9157471798539165e-01  9.9209342419878210e-01  9.9059424250157913e-01  9.8840573969722423e-01  9.8550754735410884e-01  9.8278535088499963e-01  9.8168028465982216e-01  9.8261455057699476e-01  9.8430260078638354e-01  9.8453399234930938e-01  9.8183075467513614e-01  9.7706814335649983e-01  9.7299626786011051e-01  9.7144723204299643e-01  9.7200824639169747e-01  9.7334623294842382e-01  9.7459846979416809e-01  9.7571291787154757e-01  9.7726860660990100e-01  9.7988051502752516e-01  9.8355306547875399e-01  9.8763173794262082e-01  9.9135437445640762e-01  9.9413989560767657e-01  9.9566963877837034e-01  9.9632543557385511e-01  9.9687515576220731e-01  9.9749138626097200e-01  9.9790142081501021e-01  9.9806650539942832e-01  9.9787281414592077e-01  9.9746796282368755e-01  9.9589684353070862e-01  9.9041060501030398e-01  9.8377776945908102e-01  9.7032595524188991e-01  9.3588475573880681e-01  8.8456205978535030e-01  8.3291896778751107e-01  7.9365817796485461e-01  7.6977951705173120e-01  7.5892980850891056e-01  7.5806905152394977e-01  7.6272369577695143e-01  7.6801780499674077e-01  7.6972238910641910e-01  7.6759670389157908e-01  7.6362945308975594e-01  7.6138071961180376e-01  7.6273916973545131e-01  7.6649796001715309e-01  7.7152506022052536e-01  7.7620512713107170e-01  7.7992271398574586e-01  7.8307896966267554e-01  7.8550665781810680e-01  7.8743292763528272e-01  7.8929646423546684e-01  7.9067095246896024e-01  7.9156542906452976e-01  7.9346515019015929e-01  7.9638496523870062e-01  7.9985724139837766e-01  8.0320173696026875e-01  8.0575171075860230e-01  8.0808084130490909e-01  8.1130344281141187e-01  8.1521459070241420e-01  8.1853392072615339e-01  8.1915693292515424e-01  8.1647549018120380e-01  8.1245104827767933e-01  8.0991777014858113e-01  8.1138963703891465e-01  8.1675483054458475e-01  8.2270465208934307e-01  8.2618609369641949e-01  8.2665762366854023e-01  8.2413939585081597e-01  8.1811598651144757e-01  8.0891241071839970e-01  7.9829584219031480e-01  7.8846341119311680e-01  7.8120541655285602e-01  7.7775021762699048e-01  7.8046531514260709e-01  7.9475407568322876e-01  8.2752300782978350e-01  8.7875707131782888e-01  9.3106563015986921e-01  9.6516160806611451e-01  9.8162102795592565e-01  9.8850200639102248e-01  9.9123937746470225e-01  9.8998753373328019e-01  9.8479396973140676e-01  9.8172231539495869e-01  9.8388510172903532e-01  9.8233649267174605e-01  9.6369091179382849e-01  9.2299461152634998e-01  8.6795413703852220e-01  8.1096688034066555e-01  7.6219456134868768e-01  7.2824040993493577e-01  7.1328482063789533e-01  7.1952689342507825e-01  7.4588926768375841e-01  7.8731325465720026e-01  8.3554602977674719e-01  8.8028931092426310e-01  9.1378547259516429e-01  9.3485252050191525e-01  9.4719528373663298e-01  9.5292220483030965e-01  9.5058815485930082e-01  9.3702842620138960e-01  9.0003352777340018e-01  8.1834778598386648e-01  6.9346088257705130e-01  5.6034567923729606e-01  4.5173910991030625e-01  3.7759337721269853e-01  3.3557784967858673e-01  3.2337421405644179e-01  3.4362115122863873e-01  4.0454472934416263e-01  5.1384425313186410e-01  6.5276793229553220e-01  7.6931898727585435e-01  8.3576942828234457e-01  8.6159884769618256e-01  8.5644555471753736e-01  8.1778802158725539e-01  7.4122302827355369e-01  6.3337995623341914e-01  5.13831521233