<?xml version="1.0"?>
<VTKFile type="UnstructuredGrid"  version="0.1"  >
<UnstructuredGrid>
<Piece  NumberOfPoints="7161" NumberOfCells="13800">
<Points>
<DataArray  type="Float64"  NumberOfComponents="3"  format="ascii">0 0 0  0.01652173913043478 0 0  0.03304347826086956 0 0  0.04956521739130434 0 0  0.06608695652173913 0 0  0.08260869565217391 0 0  0.09913043478260869 0 0  0.1156521739130435 0 0  0.1321739130434783 0 0  0.148695652173913 0 0  0.1652173913043478 0 0  0.1817391304347826 0 0  0.1982608695652174 0 0  0.2147826086956522 0 0  0.2313043478260869 0 0  0.2478260869565218 0 0  0.2643478260869565 0 0  0.2808695652173913 0 0  0.2973913043478261 0 0  0.3139130434782609 0 0  0.3304347826086956 0 0  0.3469565217391304 0 0  0.3634782608695652 0 0  0.3799999999999999 0 0  0.3965217391304348 0 0  0.4130434782608696 0 0  0.4295652173913043 0 0  0.4460869565217391 0 0  0.4626086956521739 0 0  0.4791304347826086 0 0  0.4956521739130435 0 0  0.5121739130434783 0 0  0.528695652173913 0 0  0.5452173913043478 0 0  0.5617391304347825 0 0  0.5782608695652174 0 0  0.5947826086956521 0 0  0.6113043478260869 0 0  0.6278260869565218 0 0  0.6443478260869565 0 0  0.6608695652173913 0 0  0.677391304347826 0 0  0.6939130434782609 0 0  0.7104347826086956 0 0  0.7269565217391304 0 0  0.7434782608695653 0 0  0.7599999999999999 0 0  0.7765217391304348 0 0  0.7930434782608695 0 0  0.8095652173913043 0 0  0.8260869565217391 0 0  0.8426086956521739 0 0  0.8591304347826086 0 0  0.8756521739130434 0 0  0.8921739130434783 0 0  0.908695652173913 0 0  0.9252173913043478 0 0  0.9417391304347826 0 0  0.9582608695652173 0 0  0.9747826086956521 0 0  0.991304347826087 0 0  1.007826086956522 0 0  1.024347826086957 0 0  1.040869565217391 0 0  1.057391304347826 0 0  1.073913043478261 0 0  1.090434782608696 0 0  1.10695652173913 0 0  1.123478260869565 0 0  1.14 0 0  1.156521739130435 0 0  1.17304347826087 0 0  1.189565217391304 0 0  1.206086956521739 0 0  1.222608695652174 0 0  1.239130434782609 0 0  1.255652173913044 0 0  1.272173913043478 0 0  1.288695652173913 0 0  1.305217391304348 0 0  1.321739130434783 0 0  1.338260869565217 0 0  1.354782608695652 0 0  1.371304347826087 0 0  1.387826086956522 0 0  1.404347826086957 0 0  1.420869565217391 0 0  1.437391304347826 0 0  1.453913043478261 0 0  1.470434782608696 0 0  1.486956521739131 0 0  1.503478260869565 0 0  1.52 0 0  1.536521739130435 0 0  1.55304347826087 0 0  1.569565217391304 0 0  1.586086956521739 0 0  1.602608695652174 0 0  1.619130434782609 0 0  1.635652173913043 0 0  1.652173913043478 0 0  1.668695652173913 0 0  1.685217391304348 0 0  1.701739130434782 0 0  1.718260869565217 0 0  1.734782608695652 0 0  1.751304347826087 0 0  1.767826086956522 0 0  1.784347826086957 0 0  1.800869565217391 0 0  1.817391304347826 0 0  1.833913043478261 0 0  1.850434782608696 0 0  1.86695652173913 0 0  1.883478260869565 0 0  1.9 0 0  1.916521739130435 0 0  1.933043478260869 0 0  1.949565217391304 0 0  1.966086956521739 0 0  1.982608695652174 0 0  1.999130434782608 0 0  2.015652173913043 0 0  2.032173913043478 0 0  2.048695652173913 0 0  2.065217391304348 0 0  2.081739130434782 0 0  2.098260869565217 0 0  2.114782608695652 0 0  2.131304347826087 0 0  2.147826086956522 0 0  2.164347826086956 0 0  2.180869565217391 0 0  2.197391304347826 0 0  2.213913043478261 0 0  2.230434782608695 0 0  2.24695652173913 0 0  2.263478260869565 0 0  2.28 0 0  2.296521739130434 0 0  2.31304347826087 0 0  2.329565217391304 0 0  2.346086956521739 0 0  2.362608695652174 0 0  2.379130434782609 0 0  2.395652173913044 0 0  2.412173913043478 0 0  2.428695652173913 0 0  2.445217391304348 0 0  2.461739130434782 0 0  2.478260869565217 0 0  2.494782608695652 0 0  2.511304347826087 0 0  2.527826086956522 0 0  2.544347826086956 0 0  2.560869565217391 0 0  2.577391304347826 0 0  2.593913043478261 0 0  2.610434782608696 0 0  2.62695652173913 0 0  2.643478260869565 0 0  2.66 0 0  2.676521739130435 0 0  2.693043478260869 0 0  2.709565217391304 0 0  2.726086956521739 0 0  2.742608695652174 0 0  2.759130434782609 0 0  2.775652173913044 0 0  2.792173913043478 0 0  2.808695652173913 0 0  2.825217391304347 0 0  2.841739130434783 0 0  2.858260869565217 0 0  2.874782608695652 0 0  2.891304347826087 0 0  2.907826086956522 0 0  2.924347826086957 0 0  2.940869565217391 0 0  2.957391304347826 0 0  2.973913043478261 0 0  2.990434782608696 0 0  3.006956521739131 0 0  3.023478260869565 0 0  3.04 0 0  3.056521739130435 0 0  3.073043478260869 0 0  3.089565217391304 0 0  3.106086956521739 0 0  3.122608695652174 0 0  3.139130434782609 0 0  3.155652173913043 0 0  3.172173913043478 0 0  3.188695652173913 0 0  3.205217391304347 0 0  3.221739130434782 0 0  3.238260869565217 0 0  3.254782608695652 0 0  3.271304347826087 0 0  3.287826086956521 0 0  3.304347826086957 0 0  3.320869565217391 0 0  3.337391304347826 0 0  3.353913043478261 0 0  3.370434782608696 0 0  3.386956521739131 0 0  3.403478260869565 0 0  3.419999999999999 0 0  3.436521739130435 0 0  3.453043478260869 0 0  3.469565217391304 0 0  3.486086956521739 0 0  3.502608695652174 0 0  3.519130434782609 0 0  3.535652173913043 0 0  3.552173913043478 0 0  3.568695652173913 0 0  3.585217391304347 0 0  3.601739130434782 0 0  3.618260869565217 0 0  3.634782608695652 0 0  3.651304347826087 0 0  3.667826086956521 0 0  3.684347826086956 0 0  3.700869565217391 0 0  3.717391304347826 0 0  3.733913043478261 0 0  3.750434782608695 0 0  3.766956521739131 0 0  3.783478260869565 0 0  3.8 0 0  0 0.01666666666666667 0  0.01652173913043478 0.01666666666666667 0  0.03304347826086956 0.01666666666666667 0  0.04956521739130434 0.01666666666666667 0  0.06608695652173913 0.01666666666666667 0  0.08260869565217391 0.01666666666666667 0  0.09913043478260869 0.01666666666666667 0  0.1156521739130435 0.01666666666666667 0  0.1321739130434783 0.01666666666666667 0  0.148695652173913 0.01666666666666667 0  0.1652173913043478 0.01666666666666667 0  0.1817391304347826 0.01666666666666667 0  0.1982608695652174 0.01666666666666667 0  0.2147826086956522 0.01666666666666667 0  0.2313043478260869 0.01666666666666667 0  0.2478260869565218 0.01666666666666667 0  0.2643478260869565 0.01666666666666667 0  0.2808695652173913 0.01666666666666667 0  0.2973913043478261 0.01666666666666667 0  0.3139130434782609 0.01666666666666667 0  0.3304347826086956 0.01666666666666667 0  0.3469565217391304 0.01666666666666667 0  0.3634782608695652 0.01666666666666667 0  0.3799999999999999 0.01666666666666667 0  0.3965217391304348 0.01666666666666667 0  0.4130434782608696 0.01666666666666667 0  0.4295652173913043 0.01666666666666667 0  0.4460869565217391 0.01666666666666667 0  0.4626086956521739 0.01666666666666667 0  0.4791304347826086 0.01666666666666667 0  0.4956521739130435 0.01666666666666667 0  0.5121739130434783 0.01666666666666667 0  0.528695652173913 0.01666666666666667 0  0.5452173913043478 0.01666666666666667 0  0.5617391304347825 0.01666666666666667 0  0.5782608695652174 0.01666666666666667 0  0.5947826086956521 0.01666666666666667 0  0.6113043478260869 0.01666666666666667 0  0.6278260869565218 0.01666666666666667 0  0.6443478260869565 0.01666666666666667 0  0.6608695652173913 0.01666666666666667 0  0.677391304347826 0.01666666666666667 0  0.6939130434782609 0.01666666666666667 0  0.7104347826086956 0.01666666666666667 0  0.7269565217391304 0.01666666666666667 0  0.7434782608695653 0.01666666666666667 0  0.7599999999999999 0.01666666666666667 0  0.7765217391304348 0.01666666666666667 0  0.7930434782608695 0.01666666666666667 0  0.8095652173913043 0.01666666666666667 0  0.8260869565217391 0.01666666666666667 0  0.8426086956521739 0.01666666666666667 0  0.8591304347826086 0.01666666666666667 0  0.8756521739130434 0.01666666666666667 0  0.8921739130434783 0.01666666666666667 0  0.908695652173913 0.01666666666666667 0  0.9252173913043478 0.01666666666666667 0  0.9417391304347826 0.01666666666666667 0  0.9582608695652173 0.01666666666666667 0  0.9747826086956521 0.01666666666666667 0  0.991304347826087 0.01666666666666667 0  1.007826086956522 0.01666666666666667 0  1.024347826086957 0.01666666666666667 0  1.040869565217391 0.01666666666666667 0  1.057391304347826 0.01666666666666667 0  1.073913043478261 0.01666666666666667 0  1.090434782608696 0.01666666666666667 0  1.10695652173913 0.01666666666666667 0  1.123478260869565 0.01666666666666667 0  1.14 0.01666666666666667 0  1.156521739130435 0.01666666666666667 0  1.17304347826087 0.01666666666666667 0  1.189565217391304 0.01666666666666667 0  1.206086956521739 0.01666666666666667 0  1.222608695652174 0.01666666666666667 0  1.239130434782609 0.01666666666666667 0  1.255652173913044 0.01666666666666667 0  1.272173913043478 0.01666666666666667 0  1.288695652173913 0.01666666666666667 0  1.305217391304348 0.01666666666666667 0  1.321739130434783 0.01666666666666667 0  1.338260869565217 0.01666666666666667 0  1.354782608695652 0.01666666666666667 0  1.371304347826087 0.01666666666666667 0  1.387826086956522 0.01666666666666667 0  1.404347826086957 0.01666666666666667 0  1.420869565217391 0.01666666666666667 0  1.437391304347826 0.01666666666666667 0  1.453913043478261 0.01666666666666667 0  1.470434782608696 0.01666666666666667 0  1.486956521739131 0.01666666666666667 0  1.503478260869565 0.01666666666666667 0  1.52 0.01666666666666667 0  1.536521739130435 0.01666666666666667 0  1.55304347826087 0.01666666666666667 0  1.569565217391304 0.01666666666666667 0  1.586086956521739 0.01666666666666667 0  1.602608695652174 0.01666666666666667 0  1.619130434782609 0.01666666666666667 0  1.635652173913043 0.01666666666666667 0  1.652173913043478 0.01666666666666667 0  1.668695652173913 0.01666666666666667 0  1.685217391304348 0.01666666666666667 0  1.701739130434782 0.01666666666666667 0  1.718260869565217 0.01666666666666667 0  1.734782608695652 0.01666666666666667 0  1.751304347826087 0.01666666666666667 0  1.767826086956522 0.01666666666666667 0  1.784347826086957 0.01666666666666667 0  1.800869565217391 0.0166666666666666
[...]
<PointData  Scalars="rho_bar"> 
<DataArray  type="Float64"  Name="rho_bar"  format="ascii">9.9988898336074161e-01  1.0005271989216638e+00  1.0013821767328119e+00  1.0016295967637456e+00  9.9981727144878707e-01  9.9646963230814134e-01  9.9397826867150607e-01  9.9402460551413763e-01  9.9500532887471471e-01  9.9467223000705729e-01  9.9392084405124781e-01  9.9487528108831091e-01  9.9743841472456962e-01  9.9992017298318092e-01  1.0013409861053824e+00  1.0016608349975737e+00  1.0012080569721089e+00  1.0005250851740641e+00  9.9996243386379802e-01  9.9962268421697464e-01  9.9959468111512606e-01  9.9982697600179904e-01  1.0000374699214949e+00  1.0000539010100804e+00  9.9999731472597087e-01  9.9999202819299771e-01  1.0000050075411326e+00  9.9998291178795984e-01  1.0000496546488988e+00  9.9994675089588292e-01  9.9982058062642321e-01  1.0007822865928320e+00  9.9987775569478254e-01  9.9600548227909624e-01  9.9748363081352087e-01  1.0055478161391633e+00  1.0115214207343233e+00  1.0126567586311463e+00  1.0110507024339748e+00  1.0084660117400437e+00  1.0062621840156112e+00  1.0048779278981490e+00  1.0042463093141243e+00  1.0042078048081808e+00  1.0045661191771049e+00  1.0050539102524152e+00  1.0054139805907099e+00  1.0055648519458742e+00  1.0056350405853447e+00  1.0057084107298033e+00  1.0057256982602620e+00  1.0056199021345973e+00  1.0053851561255929e+00  1.0051213312989928e+00  1.0049593987890484e+00  1.0049384701313704e+00  1.0050355781186333e+00  1.0051762016262515e+00  1.0052453714116318e+00  1.0052195298198940e+00  1.0051629668663475e+00  1.0050946776548229e+00  1.0049876130730853e+00  1.0048236103933721e+00  1.0046010886077479e+00  1.0043380124975327e+00  1.0040902911877179e+00  1.0039532910394873e+00  1.0039836590208484e+00  1.0041402990276171e+00  1.0043482973069073e+00  1.0045490817088696e+00  1.0047025474185021e+00  1.0047998007900407e+00  1.0048230135649667e+00  1.0047162401724035e+00  1.0044487550616272e+00  1.0040721492244762e+00  1.0036997762081623e+00  1.0034622808158755e+00  1.0035039534987236e+00  1.0039951924613768e+00  1.0052415308980178e+00  1.0075778094892207e+00  1.0106068308493208e+00  1.0118707236812774e+00  1.0073583898751830e+00  9.9997685431328909e-01  9.9813540348285690e-01  1.0000474709627303e+00  1.0001809471208896e+00  9.9993012592538777e-01  1.0000980323292530e+00  9.9981114221884959e-01  9.9972558975595061e-01  1.0008232527272576e+00  1.0015373868571249e+00  9.9847082837364121e-01  9.9410449790176481e-01  9.9604509984813938e-01  1.0055108273154063e+00  1.0159954644422304e+00  1.0216785213324868e+00  1.0225585768090120e+00  1.0204040476316003e+00  1.0139064279590866e+00  1.0037887610839231e+00  9.9588447413373837e-01  9.9541409096544964e-01  9.9939121427871624e-01  1.0008667317827804e+00  1.0000563204742039e+00  9.9988151186186158e-01  9.9982282265733502e-01  1.0005833958145687e+00  1.0004387000438790e+00  9.9620897805999920e-01  9.9745857243555747e-01  1.0111107897047256e+00  1.0222213190762046e+00  1.0177537316292125e+00  1.0047851822190077e+00  9.9470006447845338e-01  9.9238095623349443e-01  1.0033972818855408e+00  1.0148101204579441e+00  1.0071116040572183e+00  9.9793095070882254e-01  9.9953756448147169e-01  1.0002281648576083e+00  1.0006634567274364e+00  1.0004948355825776e+00  9.9572100200469293e-01  9.9586663988117263e-01  1.0089252889045983e+00  1.0218882694004461e+00  1.0180822599268311e+00  1.0045136261926679e+00  9.9790003714609721e-01  1.0011057964934098e+00  1.0109803759000988e+00  1.0206255681344631e+00  1.0172901188256096e+00  1.0031998528316901e+00  9.9635405690146939e-01  9.9927272673569745e-01  1.0005578901642649e+00  9.9982170117058122e-01  1.0007684647302155e+00  9.9849067067193076e-01  9.9628957564602227e-01  1.0087466574006547e+00  1.0199908435944547e+00  1.0055954360519410e+00  9.8329227125019125e-01  9.7248279504364732e-01  9.7067800936482851e-01  9.7385293382965588e-01  9.7889723237001680e-01  9.8379112616652220e-01  9.8771358305078538e-01  9.9015799347259137e-01  9.9101491259348728e-01  9.9060868603629926e-01  9.8917318126531895e-01  9.8710345666020805e-01  9.8511718482687982e-01  9.8370365130385062e-01  9.8310700145327090e-01  9.8342807406862576e-01  9.8442107170034510e-01  9.8548215235233827e-01  9.8590441101601922e-01  9.8529947552341013e-01  9.8368978596945345e-01  9.8091437289443684e-01  9.7648956218635430e-01  9.7030373236688605e-01  9.6422208911045237e-01  9.6217432458518104e-01  9.7222816802513112e-01  9.9557684114914591e-01  1.0077801416113970e+00  1.0016036394663219e+00  9.9896796521005293e-01  1.0002169207030940e+00  9.9963325466296094e-01  9.9967330432537915e-01  9.9973889939378535e-01  1.0003007999091291e+00  9.9252885028523852e-01  1.0498668380328389e+00  6.2266866999972992e-01  -3.3197332770999670e-02  -1.1830730926718773e-03  -6.1615171782733097e-05  1.5414675383857393e-03  -9.1328595979944045e-04  2.6813979142523381e-04  -2.3289140859724303e-05  -2.0561839900815501e-05  1.4022487865016567e-05  -5.4233769835570102e-06  1.4755784659507973e-06  -2.4347043448972955e-07  -1.8556550484633647e-08  3.5947985220128038e-08  -1.8697410369164044e-08  7.1381604157033488e-09  -2.2621332801843943e-09  6.0823431021062277e-10  -1.3234992113967269e-10  1.8701565620781778e-11  1.8138760116336132e-12  -2.6722739693600400e-12  1.5042562166520116e-12  -5.5665704291515048e-13  2.4296028999333408e-13  -4.2404080144713648e-14  3.5857731976026558e-14  1.0280103210133267e-14  1.1289474275959555e-14  8.5349225336504710e-15  6.4709813282546924e-15  5.1972869408401986e-15  4.0613404581334492e-15  3.3097068791231575e-15  2.7150691586653790e-15  2.3413508407010665e-15  2.1315472935737689e-15  2.0756669838391717e-15  1.0007904867676627e+00  9.9956319042840125e-01  9.9821963275002656e-01  9.9655543919405321e-01  9.9795604639684099e-01  1.0035425246607639e+00  1.0101508081987280e+00  1.0126672664379646e+00  1.0107671170691386e+00  1.0098684759094132e+00  1.0116517432208705e+00  1.0118119639266452e+00  1.0078825590809435e+00  1.0024044669213519e+00  9.9844531223029909e-01  9.9674122475359028e-01  9.9700174838929678e-01  9.9828112045847106e-01  9.9955837853011886e-01  1.0004804351477601e+00  1.0008729546937700e+00  1.0006181718418632e+00  1.0000848246291882e+00  9.9986232709745904e-01  9.9995857754688977e-01  1.0000265136726629e+00  9.9999624061416659e-01  1.0000012667715261e+00  1.0000226667692360e+00  9.9986353794180438e-01  1.0003610917324219e+00  9.9981264764300060e-01  9.9799132441468641e-01  1.0039815240464676e+00  1.0093213356992730e+00  9.9745112107843403e-01  9.8140289337481246e-01  9.7493050779216461e-01  9.7581303011347076e-01  9.8047327729149836e-01  9.8547201258336636e-01  9.8906924575829458e-01  9.9104253378947971e-01  9.9167550990715492e-01  9.9129471866748486e-01  9.9037593350125486e-01  9.8947215581625969e-01  9.8897638949849553e-01  9.8880440870475983e-01  9.8865369945033510e-01  9.8854055775364047e-01  9.8861804852317492e-01  9.8896667537085259e-01  9.8950709851929297e-01  9.8995649187492807e-01  9.9013527603599205e-01  9.9005169279574101e-01  9.8978410612039625e-01  9.8954668359428744e-01  9.8951920525731996e-01  9.8961790444729358e-01  9.8973595963726013e-01  9.8990458672595438e-01  9.9017330095922140e-01  9.9056139035897250e-01  9.9105440888565921e-01  9.9158574399785426e-01  9.9199761487513438e-01  9.9210542456725115e-01  9.9189669328112140e-01  9.9151632204145201e-01  9.9109398522856618e-01  9.9073323464159591e-01  9.9048456647624306e-01  9.9035313270253122e-01  9.9041968632842670e-01  9.9079558844386972e-01  9.9146383222164614e-01  9.9224533740322429e-01  9.9288800490389928e-01  9.9312317594246136e-01  9.9263611455335388e-01  9.9100544801503943e-01  9.8748332729361532e-01  9.8185890866762593e-01  9.7659614367906378e-01  9.7880885588576638e-01  9.9319197406301674e-01  1.0041304234209714e+00  1.0014511449822170e+00  9.9924825285086194e-01  1.0002201051077664e+00  9.9985002706857085e-01  9.9998524181254178e-01  1.0006695204704714e+00  9.9983651277844909e-01  9.9706224072213645e-01  9.9867855813430362e-01  1.0080880142968316e+00  1.0123405275815049e+00  9.9971650858754968e-01  9.7773071756339847e-01  9.6068816404163671e-01  9.5499905465934853e-01  9.5628344547892885e-01  9.6427120950452228e-01  9.8191250617034043e-01  1.0018254344816773e+00  1.0109195902011567e+00  1.0052002531639916e+00  9.9848568181250652e-01  9.9919035262306877e-01  1.0002665633402441e+00  1.0001493292420747e+00  1.0001497488201516e+00  9.9796930228025571e-01  1.0023184104744396e+00  1.0101060184751582e+00  9.9385837616644468e-01  9.6296927202060201e-01  9.5593420414166119e-01  9.7729949297320839e-01  1.0021105228349509e+00  1.0151861146574870e+00  1.0085881016637968e+00  9.7758981178556847e-01  9.7270630098805655e-01  9.9958291927273157e-01  1.0032987754574181e+00  9.9900887105265779e-01  1.0002061105235411e+00  9.9744201621491313e-01  1.0028812462568029e+00  1.0117750081872265e+00  9.9830192133293116e-01  9.6604472863403945e-01  9.5478649114887992e-01  9.7776454224685549e-01  1.0006981094053315e+00  1.0027785595545144e+00  9.8944408655194160e-01  9.6673165130477956e-01  9.5724640970617969e-01  9.7896658188124652e-01  1.0046106350008817e+00  1.0050906454269544e+00  9.9863514818731614e-01  1.0001439559799823e+00  9.9972775971242622e-01  9.9881065837035121e-01  1.0071883070774228e+00  1.0003242937881616e+00  9.6529546171985192e-01  9.6756028233634750e-01  1.0140057362844561e+00  1.0470459933413525e+00  1.0584278240318739e+00  1.0562125619544647e+00  1.0472558123070943e+00  1.0370575741317190e+00  1.0281202430076717e+00  1.0216498178977866e+00  1.0184183266707061e+00  1.0180723891060017e+00  1.0199315350888085e+00  1.0236165144194951e+00  1.0278467596497667e+00  1.0313091914513135e+00  1.0333703945138020e+00  1.0336386371854993e+00  1.0322056522102376e+00  1.0299688175968611e+00  1.0283169933135645e+00  1.0284753277578962e+00  1.0307231401461880e+00  1.0349860781493743e+00  1.0420494438410004e+00  1.0527110003652407e+00  1.0658116751791726e+00  1.0750063970983148e+00  1.0699090766331600e+00  1.0341985934367262e+00  9.8883750138268256e-01  9.8913596075993548e-01  1.0026561851605158e+00  9.9952607850653030e-01  1.0005220255666727e+00  1.0006329755822898e+00  1.0006609559563879e+00  1.0001350676588543e+00  1.0028246111777983e+00  9.9410007651783161e-01  9.6327325423233390e-01  -1.9993867037066217e-02  1.7159003017930392e-02  6.2392601433638745e-03  -6.1450419899496955e-03  2.0123373879506390e-03  -1.7696827211012887e-04  -1.5912951584509051e-04  1.0521314224965944e-04  -3.8893221081018633e-05  9.8186593594055926e-06  -1.2974604231741576e-06  -2.9580905075183417e-07  2.9772988887968011e-07  -1.3828784072841154e-07  4.9077513126952237e-08  -1.4524132592244539e-08  3.5922382865607394e-09  -6.7708979299287013e-10  5.1010598980036898e-11  3.3573024485071805e-11  -2.3672237351009979e-11  1.0765275501755815e-11  -3.9945552915502652e-12  1.4088596279443232e-12  -3.7454316860989714e-13  1.2716188978991711e-13  2.6823228364245928e-16  1.5628287118823453e-14  1.2809242917037649e-14  7.9812105182802667e-15  7.2745390515520857e-15  5.2917191724168885e-15  4.3192148983703011e-15  3.4466308877286959e-15  2.8542256876152915e-15  2.4621374180018077e-15  2.2416171577438567e-15  2.1776069521415614e-15  9.9563542430929053e-01  1.0003031454114053e+00  1.0028914101748947e+00  1.0097627879800706e+00  1.0117171240742266e+00  9.9900176511239980e-01  9.7534932734352298e-01  9.5708812658524989e-01  9.5798745705891508e-01  9.6584411058188335e-01  9.6284851609602262e-01  9.5696739975579781e-01  9.6383030897833577e-01  9.8234416784976886e-01  9.9954255349667542e-01  1.0093787152107623e+00  1.0117250517645349e+00  1.0083732196023589e+00  1.0036467881098357e+00  9.9975386585460591e-01  9.9734707185509852e-01  9.9709922761208691e-01  9.9881230487237926e-01  1.0003338024772095e+00  1.0003574618236653e+00  9.9995101638514794e-01  9.9994574049673668e-01  1.0000519996386166e+00  9.9993357301875785e-01  1.0000330552147418e+00  1.0004055530868357e+00  9.9798437940913209e-01  1.0041844513572147e+00  1.0034133880973046e+00  9.6950156796420850e-01  9.7964862136938347e-01  1.0418884662363823e+00  1.0802405061577576e+00  1.0887753934895625e+00  1.0772255474625587e+00  1.0591237356821321e+00  1.0437660000383784e+00  1.0341581841542367e+00  1.0297131634527035e+00  1.0294386321200450e+00  1.0319641746843535e+00  1.0353897912226080e+00  1.0379533679384003e+00  1.0389290201374610e+00  1.0394105358361410e+00  1.0399747567399260e+00  1.0400718981678649e+00  1.0393628367004786e+00  1.0377028331172604e+00  1.0358209782535091e+00  1.0347131703815327e+00  1.0345654327341518e+00  1.0352273364978251e+00  1.0362542097177447e+00  1.0367370951024937e+00  1.0365144417454493e+00  1.0361367320285078e+00  1.0356636696146602e+00  1.0349136109308363e+00  1.0337658201030939e+00  1.0322099825874174e+00  1.0303740251872928e+00  1.0286280333459854e+00  1.0276485124127741e+00  1.0278847517128562e+00  1.0289864643944100e+00  1.0304333530249674e+00  1.0318527254355498e+00  1.0329144970708302e+00  1.0335860969255586e+00  1.0337646758887165e+00  1.0330258436520767e+00  1.0311487687400154e+00  1.0285031793199035e+00  1.0258979574321081e+00  1.0242404962651679e+00  1.0245271838163359e+00  1.0280253046239356e+00  1.0365823300526018e+00  1.0528294854986335e+00  1.0737465017723120e+00  1.0835220681688591e+00  1.0545967904721223e+00  9.9596931639338748e-01  9.8649036039073801e-01  1.0032408876802923e+00  9.9936989976262802e-01  1.0001001143121271e+00  1.0005662178109886e+00  9.9909360915841283e-01  9.9753078141870732e-01  1.0051695381968806e+00  1.0115813068857948e+00  9.9118887368473740e-01  9.5668862598548154e-01  9.7131406416133215e-01  1.0387594643932623e+00  1.1129429580128347e+00  1.1525101395735682e+00  1.1562434152108010e+00  1.1437633111688754e+00  1.0980635776317138e+00  1.0266545669689440e+00  9.6988349792512252e-01  9.6627384312331166e-01  9.9831389249161484e-01  1.0061234328454822e+00  9.9905914745061575e-01  1.0000639566483629e+00  9.9891942059698702e-01  1.0016572360453793e+00  1.0070366943396800e+00  9.7432983978603049e-01  9.7518965222379017e-01  1.0800141103212777e+00  1.1590226551579881e+00  1.1249092009869783e+00  1.0295480636479135e+00  9.6209740331723592e-01  9.4182172348054594e-01  1.0107164194093188e+00  1.1209192173451181e+00  1.0431866852507243e+00  9.7822975585592020e-01  1.0059154130430332e+00  9.9676061801203264e-01  1.0046601919669798e+00  1.0064420541959715e+00  9.7083759515570545e-01  9.6574149154552380e-01  1.0618346861043686e+00  1.1579843911799610e+00  1.1293774370700811e+00  1.0250351767432262e+00  9.8516304999343807e-01  1.0054667689654206e+00  1.0737583398769757e+00  1.1464826478810921e+00  1.1261289176697797e+00  1.0176691397052049e+00  9.7104818059852027e-01  9.9953443379345197e-01  1.0035893321414469e+00  9.9680440806788972e-01  1.0052842433232798e+00  9.9567659106594875e-01  9.6727829241374663e-01  1.0532543754861756e+00  1.1583000530521328e+00  1.0304511836692434e+00  8.7447377739449528e-01  7.9247567270660968e-01  7.7636842453938115e-01  8.0221430486308154e-01  8.4144053312320732e-01  8.7895326079448355e-01  9.0847181631570262e-01  9.2694158081805511e-01  9.3302368752998754e-01  9.3042381579198996e-01  9.2003205663800036e-01  9.0463313659874267e-01  8.8995554032309021e-01  8.7934027880117449e-01  8.7468787716117802e-01  8.7700269946710308e-01  8.8439952886399520e-01  8.9231702242176858e-01  8.9552740994922875e-01  8.9079070611995126e-01  8.7859065940184455e-01  8.5761842546014433e-01  8.2332490484300069e-01  7.7446149257736752e-01  7.2168159403062915e-01  7.0340319873331092e-01  7.7035604612343134e-01  9.5908808161385573e-01  1.0696121127753093e+00  9.9321323191759969e-01  1.0015156243319348e+00  9.9895811045625116e-01  9.9789966768048088e-01  9.9781262428725337e-01  9.9804090550907931e-01  9.9761963018079036e-01  9.9821641914359305e-01  1.0089013958356543e+00  9.4199470964602006e-01  8.4355974150572485e-02  -7.8055853365625302e-02  3.2091084963277769e-02  -4.9096120814857537e-03  -1.4682447061636625e-03  1.3221878557626856e-03  -5.4048230704406498e-04  1.5108135045458352e-04  -2.6213481190204488e-05  -1.1065976535799948e-06  3.3164261219783912e-06  -1.7738956477315985e-06  6.8366812306458277e-07  -2.1812385022682845e-07  5.9230123508605265e-08  -1.3189312651014632e-08  1.9655231485365469e-09  1.1079141917931374e-10  -2.4697368016235175e-10  1.3349198390418281e-10  -5.5091012424841349e-11  1.9939654069913091e-11  -6.2872710107701160e-12  1.7806945409386120e-12  -3.5477237149964506e-13  7.2845287161949985e-14  2.5512218520455660e-14  3.6336118709461353e-15  1.5128968166903628e-14  6.2246325774252612e-15  6.8722212352330493e-15  4.8504243005087621e-15  4.0206049499955869e-15  3.3148072908731984e-15  2.8437575159333624e-15  2.5901974697638042e-15  2.4892569228613731e-15  1.0199157941135251e+00  1.0024374409105650e+00  9.9686317437586902e-01  9.7793960691433546e-01  9.5410005584897473e-01  9.7232114640132072e-01  1.0451031324137814e+00  1.1330165365763714e+00  1.1682879353626112e+00  1.1373505202189600e+00  1.1259436349549456e+00  1.1524680006422412e+00  1.1555084387273700e+00  1.1024820421647410e+00  1.0297882416160329e+00  9.8038273165001066e-01  9.5689059385803021e-01  9.6126412501213609e-01  9.7784183026225557e-01  9.9431085059821267e-01  1.0061332784796555e+00  1.0115778062702776e+00  1.0081763244754565e+00  1.0008138196010332e+00  9.9806644705983638e-01  9.9968305846901939e-01  1.0003225496702075e+00  9.9997723703393415e-01  9.9983394423034400e-01  1.0004556292607667e+00  9.9912070863144731e-01  1.0002039085431433e+00  1.0071260711431183e+00  9.6856547998527553e-01  1.0352951064248632e+00  1.1512921840376806e+00  9.5106999353762023e-01  7.4420475364387395e-01  6.4559047578798623e-01  6.6049616614533291e-01  7.3085105776079196e-01  8.0246917104635307e-01  8.5240942763193583e-01  8.7942826658666551e-01  8.8846066018309178e-01  8.8316967517003331e-01  8.7085057079660422e-01  8.5825416373905117e-01  8.5149574903218384e-01  8.4956500840472182e-01  8.4716899219737196e-01  8.4565034278870377e-01  8.4673021936950621e-01  8.5133217604895550e-01  8.5904501787677390e-01  8.6513682164768790e-01  8.6755591365777485e-01  8.6648235979560062e-01  8.6285807327786213e-01  8.5932718089573146e-01  8.5921799305366020e-01  8.6053449305611540e-01  8.6209869477931766e-01  8.6439513003707336e-01  8.6805960361427736e-01  8.7334120908300072e-01  8.8003378794710796e-01  8.8723923170244223e-01  8.9293286272069861e-01  8.9442697405476868e-01  8.9147472488218105e-01  8.8642903062745393e-01  8.8063239444843033e-01  8.7570726448800562e-01  8.7237554647933480e-01  8.7052906440173949e-01  8.7131565641855147e-01  8.7640126766835635e-01  8.8546220872477377e-01  8.9606055842280408e-01  9.0466777556111100e-01  9.0784231669844295e-01  9.0121172842438335e-01  8.7895378286045045e-01  8.3178775869438704e-01  7.5209570034107565e-01  6.7352130387337061e-01  6.9081376487130386e-01  8.9496455521359408e-01  1.0825181757627600e+00  9.9329150716204861e-01  1.0006975830547158e+00  1.0002735899505357e+00  9.9911947193074191e-01  9.9845422853492305e-01  1.0082323548601735e+00  1.0018137758069454e+00  9.6115815218728318e-01  9.7725478358466966e-01  1.1005751818254943e+00  1.1763511035212191e+00  9.8785657804749127e-01  7.0790366974696306e-01  3.9652369534623916e-01  2.5704959100889990e-01  2.7647514019625141e-01  4.5378232855201900e-01  7.5843791354639989e-01  1.0169385693128721e+00  1.1568896236016581e+00  1.0610604362714904e+00  9.7296674016889328e-01  9.9524311540653576e-01  1.0047576478650302e+00  9.9646414343914036e-01  1.0079990582539806e+00  9.7798235005930023e-01  1.0035225077983223e+00  1.1558297007255331e+00  9.3298621175553997e-01  4.3873138268690887e-01  1.1528681139910023e-01  -1.0915158858835684e-02  -8.8377802128745256e-02  -1.1253951910794820e-01  -9.6815374795418851e-02  1.1456018568385500e-02  4.9946594214498308e-01  1.0960520863204817e+00  9.8156912416200792e-01  1.0056310419242300e+00  1.0040143016925851e+00  9.6717363639365639e-01  1.0183526120097774e+00  1.16977295799225