<?xml version="1.0"?>
<VTKFile type="UnstructuredGrid"  version="0.1"  >
<UnstructuredGrid>
<Piece  NumberOfPoints="7161" NumberOfCells="13800">
<Points>
<DataArray  type="Float64"  NumberOfComponents="3"  format="ascii">0 0 0  0.01652173913043478 0 0  0.03304347826086956 0 0  0.04956521739130434 0 0  0.06608695652173913 0 0  0.08260869565217391 0 0  0.09913043478260869 0 0  0.1156521739130435 0 0  0.1321739130434783 0 0  0.148695652173913 0 0  0.1652173913043478 0 0  0.1817391304347826 0 0  0.1982608695652174 0 0  0.2147826086956522 0 0  0.2313043478260869 0 0  0.2478260869565218 0 0  0.2643478260869565 0 0  0.2808695652173913 0 0  0.2973913043478261 0 0  0.3139130434782609 0 0  0.3304347826086956 0 0  0.3469565217391304 0 0  0.3634782608695652 0 0  0.3799999999999999 0 0  0.3965217391304348 0 0  0.4130434782608696 0 0  0.4295652173913043 0 0  0.4460869565217391 0 0  0.4626086956521739 0 0  0.4791304347826086 0 0  0.4956521739130435 0 0  0.5121739130434783 0 0  0.528695652173913 0 0  0.5452173913043478 0 0  0.5617391304347825 0 0  0.5782608695652174 0 0  0.5947826086956521 0 0  0.6113043478260869 0 0  0.6278260869565218 0 0  0.6443478260869565 0 0  0.6608695652173913 0 0  0.677391304347826 0 0  0.6939130434782609 0 0  0.7104347826086956 0 0  0.7269565217391304 0 0  0.7434782608695653 0 0  0.7599999999999999 0 0  0.7765217391304348 0 0  0.7930434782608695 0 0  0.8095652173913043 0 0  0.8260869565217391 0 0  0.8426086956521739 0 0  0.8591304347826086 0 0  0.8756521739130434 0 0  0.8921739130434783 0 0  0.908695652173913 0 0  0.9252173913043478 0 0  0.9417391304347826 0 0  0.9582608695652173 0 0  0.9747826086956521 0 0  0.991304347826087 0 0  1.007826086956522 0 0  1.024347826086957 0 0  1.040869565217391 0 0  1.057391304347826 0 0  1.073913043478261 0 0  1.090434782608696 0 0  1.10695652173913 0 0  1.123478260869565 0 0  1.14 0 0  1.156521739130435 0 0  1.17304347826087 0 0  1.189565217391304 0 0  1.206086956521739 0 0  1.222608695652174 0 0  1.239130434782609 0 0  1.255652173913044 0 0  1.272173913043478 0 0  1.288695652173913 0 0  1.305217391304348 0 0  1.321739130434783 0 0  1.338260869565217 0 0  1.354782608695652 0 0  1.371304347826087 0 0  1.387826086956522 0 0  1.404347826086957 0 0  1.420869565217391 0 0  1.437391304347826 0 0  1.453913043478261 0 0  1.470434782608696 0 0  1.486956521739131 0 0  1.503478260869565 0 0  1.52 0 0  1.536521739130435 0 0  1.55304347826087 0 0  1.569565217391304 0 0  1.586086956521739 0 0  1.602608695652174 0 0  1.619130434782609 0 0  1.635652173913043 0 0  1.652173913043478 0 0  1.668695652173913 0 0  1.685217391304348 0 0  1.701739130434782 0 0  1.718260869565217 0 0  1.734782608695652 0 0  1.751304347826087 0 0  1.767826086956522 0 0  1.784347826086957 0 0  1.800869565217391 0 0  1.817391304347826 0 0  1.833913043478261 0 0  1.850434782608696 0 0  1.86695652173913 0 0  1.883478260869565 0 0  1.9 0 0  1.916521739130435 0 0  1.933043478260869 0 0  1.949565217391304 0 0  1.966086956521739 0 0  1.982608695652174 0 0  1.999130434782608 0 0  2.015652173913043 0 0  2.032173913043478 0 0  2.048695652173913 0 0  2.065217391304348 0 0  2.081739130434782 0 0  2.098260869565217 0 0  2.114782608695652 0 0  2.131304347826087 0 0  2.147826086956522 0 0  2.164347826086956 0 0  2.180869565217391 0 0  2.197391304347826 0 0  2.213913043478261 0 0  2.230434782608695 0 0  2.24695652173913 0 0  2.263478260869565 0 0  2.28 0 0  2.296521739130434 0 0  2.31304347826087 0 0  2.329565217391304 0 0  2.346086956521739 0 0  2.362608695652174 0 0  2.379130434782609 0 0  2.395652173913044 0 0  2.412173913043478 0 0  2.428695652173913 0 0  2.445217391304348 0 0  2.461739130434782 0 0  2.478260869565217 0 0  2.494782608695652 0 0  2.511304347826087 0 0  2.527826086956522 0 0  2.544347826086956 0 0  2.560869565217391 0 0  2.577391304347826 0 0  2.593913043478261 0 0  2.610434782608696 0 0  2.62695652173913 0 0  2.643478260869565 0 0  2.66 0 0  2.676521739130435 0 0  2.693043478260869 0 0  2.709565217391304 0 0  2.726086956521739 0 0  2.742608695652174 0 0  2.759130434782609 0 0  2.775652173913044 0 0  2.792173913043478 0 0  2.808695652173913 0 0  2.825217391304347 0 0  2.841739130434783 0 0  2.858260869565217 0 0  2.874782608695652 0 0  2.891304347826087 0 0  2.907826086956522 0 0  2.924347826086957 0 0  2.940869565217391 0 0  2.957391304347826 0 0  2.973913043478261 0 0  2.990434782608696 0 0  3.006956521739131 0 0  3.023478260869565 0 0  3.04 0 0  3.056521739130435 0 0  3.073043478260869 0 0  3.089565217391304 0 0  3.106086956521739 0 0  3.122608695652174 0 0  3.139130434782609 0 0  3.155652173913043 0 0  3.172173913043478 0 0  3.188695652173913 0 0  3.205217391304347 0 0  3.221739130434782 0 0  3.238260869565217 0 0  3.254782608695652 0 0  3.271304347826087 0 0  3.287826086956521 0 0  3.304347826086957 0 0  3.320869565217391 0 0  3.337391304347826 0 0  3.353913043478261 0 0  3.370434782608696 0 0  3.386956521739131 0 0  3.403478260869565 0 0  3.419999999999999 0 0  3.436521739130435 0 0  3.453043478260869 0 0  3.469565217391304 0 0  3.486086956521739 0 0  3.502608695652174 0 0  3.519130434782609 0 0  3.535652173913043 0 0  3.552173913043478 0 0  3.568695652173913 0 0  3.585217391304347 0 0  3.601739130434782 0 0  3.618260869565217 0 0  3.634782608695652 0 0  3.651304347826087 0 0  3.667826086956521 0 0  3.684347826086956 0 0  3.700869565217391 0 0  3.717391304347826 0 0  3.733913043478261 0 0  3.750434782608695 0 0  3.766956521739131 0 0  3.783478260869565 0 0  3.8 0 0  0 0.01666666666666667 0  0.01652173913043478 0.01666666666666667 0  0.03304347826086956 0.01666666666666667 0  0.04956521739130434 0.01666666666666667 0  0.06608695652173913 0.01666666666666667 0  0.08260869565217391 0.01666666666666667 0  0.09913043478260869 0.01666666666666667 0  0.1156521739130435 0.01666666666666667 0  0.1321739130434783 0.01666666666666667 0  0.148695652173913 0.01666666666666667 0  0.1652173913043478 0.01666666666666667 0  0.1817391304347826 0.01666666666666667 0  0.1982608695652174 0.01666666666666667 0  0.2147826086956522 0.01666666666666667 0  0.2313043478260869 0.01666666666666667 0  0.2478260869565218 0.01666666666666667 0  0.2643478260869565 0.01666666666666667 0  0.2808695652173913 0.01666666666666667 0  0.2973913043478261 0.01666666666666667 0  0.3139130434782609 0.01666666666666667 0  0.3304347826086956 0.01666666666666667 0  0.3469565217391304 0.01666666666666667 0  0.3634782608695652 0.01666666666666667 0  0.3799999999999999 0.01666666666666667 0  0.3965217391304348 0.01666666666666667 0  0.4130434782608696 0.01666666666666667 0  0.4295652173913043 0.01666666666666667 0  0.4460869565217391 0.01666666666666667 0  0.4626086956521739 0.01666666666666667 0  0.4791304347826086 0.01666666666666667 0  0.4956521739130435 0.01666666666666667 0  0.5121739130434783 0.01666666666666667 0  0.528695652173913 0.01666666666666667 0  0.5452173913043478 0.01666666666666667 0  0.5617391304347825 0.01666666666666667 0  0.5782608695652174 0.01666666666666667 0  0.5947826086956521 0.01666666666666667 0  0.6113043478260869 0.01666666666666667 0  0.6278260869565218 0.01666666666666667 0  0.6443478260869565 0.01666666666666667 0  0.6608695652173913 0.01666666666666667 0  0.677391304347826 0.01666666666666667 0  0.6939130434782609 0.01666666666666667 0  0.7104347826086956 0.01666666666666667 0  0.7269565217391304 0.01666666666666667 0  0.7434782608695653 0.01666666666666667 0  0.7599999999999999 0.01666666666666667 0  0.7765217391304348 0.01666666666666667 0  0.7930434782608695 0.01666666666666667 0  0.8095652173913043 0.01666666666666667 0  0.8260869565217391 0.01666666666666667 0  0.8426086956521739 0.01666666666666667 0  0.8591304347826086 0.01666666666666667 0  0.8756521739130434 0.01666666666666667 0  0.8921739130434783 0.01666666666666667 0  0.908695652173913 0.01666666666666667 0  0.9252173913043478 0.01666666666666667 0  0.9417391304347826 0.01666666666666667 0  0.9582608695652173 0.01666666666666667 0  0.9747826086956521 0.01666666666666667 0  0.991304347826087 0.01666666666666667 0  1.007826086956522 0.01666666666666667 0  1.024347826086957 0.01666666666666667 0  1.040869565217391 0.01666666666666667 0  1.057391304347826 0.01666666666666667 0  1.073913043478261 0.01666666666666667 0  1.090434782608696 0.01666666666666667 0  1.10695652173913 0.01666666666666667 0  1.123478260869565 0.01666666666666667 0  1.14 0.01666666666666667 0  1.156521739130435 0.01666666666666667 0  1.17304347826087 0.01666666666666667 0  1.189565217391304 0.01666666666666667 0  1.206086956521739 0.01666666666666667 0  1.222608695652174 0.01666666666666667 0  1.239130434782609 0.01666666666666667 0  1.255652173913044 0.01666666666666667 0  1.272173913043478 0.01666666666666667 0  1.288695652173913 0.01666666666666667 0  1.305217391304348 0.01666666666666667 0  1.321739130434783 0.01666666666666667 0  1.338260869565217 0.01666666666666667 0  1.354782608695652 0.01666666666666667 0  1.371304347826087 0.01666666666666667 0  1.387826086956522 0.01666666666666667 0  1.404347826086957 0.01666666666666667 0  1.420869565217391 0.01666666666666667 0  1.437391304347826 0.01666666666666667 0  1.453913043478261 0.01666666666666667 0  1.470434782608696 0.01666666666666667 0  1.486956521739131 0.01666666666666667 0  1.503478260869565 0.01666666666666667 0  1.52 0.01666666666666667 0  1.536521739130435 0.01666666666666667 0  1.55304347826087 0.01666666666666667 0  1.569565217391304 0.01666666666666667 0  1.586086956521739 0.01666666666666667 0  1.602608695652174 0.01666666666666667 0  1.619130434782609 0.01666666666666667 0  1.635652173913043 0.01666666666666667 0  1.652173913043478 0.01666666666666667 0  1.668695652173913 0.01666666666666667 0  1.685217391304348 0.01666666666666667 0  1.701739130434782 0.01666666666666667 0  1.718260869565217 0.01666666666666667 0  1.734782608695652 0.01666666666666667 0  1.751304347826087 0.01666666666666667 0  1.767826086956522 0.01666666666666667 0  1.784347826086957 0.01666666666666667 0  1.800869565217391 0.0166666666666666
[...]
<PointData  Vectors="Displacement"> 
<DataArray  type="Float64"  Name="Displacement"  NumberOfComponents="3" format="ascii">0.0000000000000000e+00 0.0000000000000000e+00 0.0000000000000000e+00  5.2302891528190700e-06 3.1604632260521453e-06 0.0000000000000000e+00  1.0007136640017768e-05 6.6383907492814937e-06 0.0000000000000000e+00  1.4663329762591355e-05 1.1555911637497746e-05 0.0000000000000000e+00  1.9210432035298102e-05 1.8044529338146926e-05 0.0000000000000000e+00  2.3642669099423404e-05 2.6085277048407522e-05 0.0000000000000000e+00  2.7968946823784971e-05 3.5648385863717133e-05 0.0000000000000000e+00  3.2184032155689002e-05 4.6737280495030289e-05 0.0000000000000000e+00  3.6263531772819357e-05 5.9332851967401277e-05 0.0000000000000000e+00  4.0169996992948073e-05 7.3382011975547761e-05 0.0000000000000000e+00  4.3875192882502887e-05 8.8780424848345361e-05 0.0000000000000000e+00  4.7362886655809617e-05 1.0541366892578435e-04 0.0000000000000000e+00  5.0615520017750753e-05 1.2314376009218525e-04 0.0000000000000000e+00  5.3615485352366283e-05 1.4183860376342427e-04 0.0000000000000000e+00  5.6346705560219142e-05 1.6133538805680257e-04 0.0000000000000000e+00  5.8790509442085425e-05 1.8145014947359682e-04 0.0000000000000000e+00  6.0938440067468229e-05 2.0198202136417390e-04 0.0000000000000000e+00  6.2791768183647107e-05 2.2272787948499843e-04 0.0000000000000000e+00  6.4359604350244001e-05 2.4349482673069280e-04 0.0000000000000000e+00  6.5663025820762342e-05 2.6411116973223383e-04 0.0000000000000000e+00  6.6724414991276660e-05 2.8444320393747970e-04 0.0000000000000000e+00  6.7567212466936093e-05 3.0438625352958049e-04 0.0000000000000000e+00  6.8216461407430952e-05 3.2386299174286232e-04 0.0000000000000000e+00  6.8672168126868678e-05 3.4283144787147492e-04 0.0000000000000000e+00  6.8920337766312530e-05 3.6120420168551313e-04 0.0000000000000000e+00  6.8965498956106047e-05 3.7884992834008694e-04 0.0000000000000000e+00  6.8840702947884293e-05 3.9564867652974641e-04 0.0000000000000000e+00  6.8595112882836640e-05 4.1153602135643658e-04 0.0000000000000000e+00  6.8284199737141119e-05 4.2650230693771796e-04 0.0000000000000000e+00  6.7960536483855665e-05 4.4059249178454550e-04 0.0000000000000000e+00  6.7662030112439198e-05 4.5389189084371227e-04 0.0000000000000000e+00  6.7406287583162143e-05 4.6649898047357167e-04 0.0000000000000000e+00  6.7214943334036994e-05 4.7847587989282669e-04 0.0000000000000000e+00  6.7126888957780997e-05 4.8988280248806219e-04 0.0000000000000000e+00  6.7196822849383437e-05 5.0079717426430067e-04 0.0000000000000000e+00  6.7498731351229953e-05 5.1130758347860171e-04 0.0000000000000000e+00  6.8125674040175579e-05 5.2152994137407717e-04 0.0000000000000000e+00  6.9167202866134668e-05 5.3164573151380555e-04 0.0000000000000000e+00  7.0679056542923398e-05 5.4189914511274906e-04 0.0000000000000000e+00  7.2666498819188698e-05 5.5256399644611383e-04 0.0000000000000000e+00  7.5072803665336918e-05 5.6392330466879966e-04 0.0000000000000000e+00  7.7794342726246208e-05 5.7619775617079219e-04 0.0000000000000000e+00  8.0725245298907336e-05 5.8951543901524894e-04 0.0000000000000000e+00  8.3785908062122510e-05 6.0393918879568607e-04 0.0000000000000000e+00  8.6921417991113229e-05 6.1951440619886094e-04 0.0000000000000000e+00  9.0101212435328453e-05 6.3627981546372607e-04 0.0000000000000000e+00  9.3286631490258740e-05 6.5428169176107609e-04 0.0000000000000000e+00  9.6437253010271979e-05 6.7353284345774507e-04 0.0000000000000000e+00  9.9527707105617993e-05 6.9400700772829767e-04 0.0000000000000000e+00  1.0254630380533392e-04 7.1565091842895493e-04 0.0000000000000000e+00  1.0548480913755017e-04 7.3845061781673254e-04 0.0000000000000000e+00  1.0832982657956410e-04 7.6236546515472245e-04 0.0000000000000000e+00  1.1106216159628339e-04 7.8734712218253772e-04 0.0000000000000000e+00  1.1366831533433522e-04 8.1331845654917796e-04 0.0000000000000000e+00  1.1614022088200065e-04 8.4018961262537109e-04 0.0000000000000000e+00  1.1847467244663482e-04 8.6787390173692083e-04 0.0000000000000000e+00  1.2066598872258019e-04 8.9628036982649067e-04 0.0000000000000000e+00  1.2270672927695755e-04 9.2531544444002137e-04 0.0000000000000000e+00  1.2458649016547981e-04 9.5487141685406704e-04 0.0000000000000000e+00  1.2629561189359903e-04 9.8482492213762150e-04 0.0000000000000000e+00  1.2783073286762428e-04 1.0150443434527570e-03 0.0000000000000000e+00  1.2919176573140650e-04 1.0453985716298009e-03 0.0000000000000000e+00  1.3038011817802025e-04 1.0757594017204524e-03 0.0000000000000000e+00  1.3139787893132242e-04 1.1060007679542974e-03 0.0000000000000000e+00  1.3224791741590867e-04 1.1359979330817247e-03 0.0000000000000000e+00  1.3293535035285750e-04 1.1656279917567243e-03 0.0000000000000000e+00  1.3347041493950426e-04 1.1947737204484085e-03 0.0000000000000000e+00  1.3387176242991822e-04 1.2233339843346761e-03 0.0000000000000000e+00  1.3416306619039840e-04 1.2512415957482985e-03 0.0000000000000000e+00  1.3435960137336692e-04 1.2784679936768773e-03 0.0000000000000000e+00  1.3446207964147317e-04 1.3049947575283810e-03 0.0000000000000000e+00  1.3446424897139436e-04 1.3307865133611793e-03 0.0000000000000000e+00  1.3435707003525571e-04 1.3557956018353588e-03 0.0000000000000000e+00  1.3412857536477729e-04 1.3799624269656555e-03 0.0000000000000000e+00  1.3376583923623724e-04 1.4032082329352824e-03 0.0000000000000000e+00  1.3325717690558950e-04 1.4254369232723529e-03 0.0000000000000000e+00  1.3259585896178156e-04 1.4465380588829170e-03 0.0000000000000000e+00  1.3178488279634703e-04 1.4663972962106124e-03 0.0000000000000000e+00  1.3083639929148538e-04 1.4849153905196202e-03 0.0000000000000000e+00  1.2976099431377477e-04 1.5020176177730194e-03 0.0000000000000000e+00  1.2855916206425230e-04 1.5176366154576637e-03 0.0000000000000000e+00  1.2723188710776813e-04 1.5316833442015206e-03 0.0000000000000000e+00  1.2581751346349096e-04 1.5440701392348795e-03 0.0000000000000000e+00  1.2439461178031117e-04 1.5547972121974750e-03 0.0000000000000000e+00  1.2301532964761915e-04 1.5640018606734780e-03 0.0000000000000000e+00  1.2168791700355882e-04 1.5718471156478699e-03 0.0000000000000000e+00  1.2044555427560510e-04 1.5783883911380291e-03 0.0000000000000000e+00  1.1935122609332935e-04 1.5837402892022155e-03 0.0000000000000000e+00  1.1844951474647867e-04 1.5881028530974972e-03 0.0000000000000000e+00  1.1775927132071405e-04 1.5916674864010049e-03 0.0000000000000000e+00  1.1730875036404986e-04 1.5945689846525650e-03 0.0000000000000000e+00  1.1716526508783444e-04 1.5969049446033176e-03 0.0000000000000000e+00  1.1743833608332624e-04 1.5987970249921710e-03 0.0000000000000000e+00  1.1824795024300023e-04 1.6004510137359095e-03 0.0000000000000000e+00  1.1969524640845089e-04 1.6021441843202871e-03 0.0000000000000000e+00  1.2184935395219932e-04 1.6042007272839387e-03 0.0000000000000000e+00  1.2474454884839079e-04 1.6069757435866207e-03 0.0000000000000000e+00  1.2837851918606213e-04 1.6108526699536530e-03 0.0000000000000000e+00  1.3270915909180479e-04 1.6162289627239871e-03 0.0000000000000000e+00  1.3766320938605274e-04 1.6234760971793336e-03 0.0000000000000000e+00  1.4315560584159137e-04 1.6329169839306207e-03 0.0000000000000000e+00  1.4909822285847892e-04 1.6448418006052897e-03 0.0000000000000000e+00  1.5542867497065179e-04 1.6594935125568532e-03 0.0000000000000000e+00  1.6212854618247142e-04 1.6770966586483018e-03 0.0000000000000000e+00  1.6914600399295474e-04 1.6979771479247426e-03 0.0000000000000000e+00  1.7644861941569574e-04 1.7223381138989087e-03 0.0000000000000000e+00  1.8405461358038898e-04 1.7503880320281228e-03 0.0000000000000000e+00  1.9192816088956448e-04 1.7824641661328131e-03 0.0000000000000000e+00  1.9997462267695680e-04 1.8188070916085688e-03 0.0000000000000000e+00  2.0813407445125675e-04 1.8594902628127088e-03 0.0000000000000000e+00  2.1637828962207069e-04 1.9045924966801734e-03 0.0000000000000000e+00  2.2466601571277827e-04 1.9542141503516874e-03 0.0000000000000000e+00  2.3294601366423290e-04 2.0083991864953666e-03 0.0000000000000000e+00  2.4117600361485289e-04 2.0671310827778617e-03 0.0000000000000000e+00  2.4933076676268836e-04 2.1303634496058184e-03 0.0000000000000000e+00  2.5740112545226624e-04 2.1980424870333293e-03 0.0000000000000000e+00  2.6538440061016464e-04 2.2701194610716202e-03 0.0000000000000000e+00  2.7328165151917336e-04 2.3465517018190427e-03 0.0000000000000000e+00  2.8107975195215760e-04 2.4272828874925358e-03 0.0000000000000000e+00  2.8879415988522782e-04 2.5122157391276041e-03 0.0000000000000000e+00  2.9653069118941216e-04 2.6013052079074334e-03 0.0000000000000000e+00  3.0444316382366530e-04 2.6946854810614134e-03 0.0000000000000000e+00  3.1260571105551371e-04 2.7928051433125508e-03 0.0000000000000000e+00  3.2098031614059797e-04 2.8960461819556513e-03 0.0000000000000000e+00  3.2955802072500990e-04 3.0046097371195595e-03 0.0000000000000000e+00  3.3853552689253193e-04 3.1187011284971923e-03 0.0000000000000000e+00  3.4809374228989763e-04 3.2390263726676635e-03 0.0000000000000000e+00  3.5821157330746399e-04 3.3665617609244690e-03 0.0000000000000000e+00  3.6877591884526404e-04 3.5021076621868127e-03 0.0000000000000000e+00  3.7952917192192519e-04 3.6458315182076955e-03 0.0000000000000000e+00  3.9071467795243590e-04 3.7979123947232828e-03 0.0000000000000000e+00  4.0253096956791820e-04 3.9603357692916223e-03 0.0000000000000000e+00  4.1463779043493683e-04 4.1340266049994879e-03 0.0000000000000000e+00  4.2699945860209674e-04 4.3190494248134224e-03 0.0000000000000000e+00  4.3977238748387962e-04 4.5163633865560066e-03 0.0000000000000000e+00  4.5317008658334322e-04 4.7281372499777584e-03 0.0000000000000000e+00  4.6690253585951724e-04 4.9560496761448577e-03 0.0000000000000000e+00  4.8052735991028367e-04 5.2000336129426148e-03 0.0000000000000000e+00  4.9397852768868621e-04 5.4598436036294761e-03 0.0000000000000000e+00  5.0720364175700823e-04 5.7352072685141345e-03 0.0000000000000000e+00  5.2019669201014169e-04 6.0258383459267789e-03 0.0000000000000000e+00  5.3296593860176612e-04 6.3314812718403184e-03 0.0000000000000000e+00  5.4552031743672911e-04 6.6519586986473755e-03 0.0000000000000000e+00  5.5785083368091318e-04 6.9871370418792475e-03 0.0000000000000000e+00  5.6990585477115988e-04 7.3367379898397426e-03 0.0000000000000000e+00  5.8164550019449237e-04 7.7002924757447674e-03 0.0000000000000000e+00  5.9308196044967777e-04 8.0773849142590799e-03 0.0000000000000000e+00  6.0413733329495449e-04 8.4677341104849903e-03 0.0000000000000000e+00  6.1479797361777379e-04 8.8709398511436707e-03 0.0000000000000000e+00  6.2486368464521793e-04 9.2859853226172680e-03 0.0000000000000000e+00  6.3419147663382419e-04 9.7111500782980434e-03 0.0000000000000000e+00  6.4293305478658970e-04 1.0145138282215834e-02 0.0000000000000000e+00  6.5123593042023696e-04 1.0587172947309981e-02 0.0000000000000000e+00  6.5918187940790165e-04 1.1036832223273941e-02 0.0000000000000000e+00  6.6685828054152457e-04 1.1493901638827740e-02 0.0000000000000000e+00  6.7411713322747854e-04 1.1957985868631036e-02 0.0000000000000000e+00  6.8089626830048378e-04 1.2428149785536446e-02 0.0000000000000000e+00  6.8720482138289168e-04 1.2903644306056932e-02 0.0000000000000000e+00  6.9313061993222765e-04 1.3383750220766245e-02 0.0000000000000000e+00  6.9881984482437066e-04 1.3868265947410478e-02 0.0000000000000000e+00  7.0431207978310960e-04 1.4357052442085905e-02 0.0000000000000000e+00  7.0963499960648505e-04 1.4850004629183153e-02 0.0000000000000000e+00  7.1477516155382746e-04 1.5347014689039779e-02 0.0000000000000000e+00  7.1969815147748838e-04 1.5847931257920528e-02 0.0000000000000000e+00  7.2434736417792552e-04 1.6352524667756014e-02 0.0000000000000000e+00  7.2871969131200879e-04 1.6860465525054252e-02 0.0000000000000000e+00  7.3285218961447406e-04 1.7371492737754089e-02 0.0000000000000000e+00  7.3672161815474524e-04 1.7885436335510645e-02 0.0000000000000000e+00  7.4028348275793779e-04 1.8402048503616233e-02 0.0000000000000000e+00  7.4354635996400379e-04 1.8920954076929390e-02 0.0000000000000000e+00  7.4656484647212505e-04 1.9441848895367691e-02 0.0000000000000000e+00  7.4937728309449063e-04 1.9964584576660699e-02 0.0000000000000000e+00  7.5198108967266673e-04 2.0489028097944204e-02 0.0000000000000000e+00  7.5436920453243132e-04 2.1014974341746633e-02 0.0000000000000000e+00  7.5656296001832396e-04 2.1542214764020955e-02 0.0000000000000000e+00  7.5860392397320735e-04 2.2070593816835470e-02 0.0000000000000000e+00  7.6052688018730453e-04 2.2600037282482863e-02 0.0000000000000000e+00  7.6235209704619887e-04 2.3130497014681867e-02 0.0000000000000000e+00  7.6408614366770900e-04 2.3661930437269500e-02 0.0000000000000000e+00  7.6572908080811393e-04 2.4194291478905814e-02 0.0000000000000000e+00  7.6727611668305818e-04 2.4727529396634581e-02 0.0000000000000000e+00  7.6872001086391109e-04 2.5261584853979478e-02 0.0000000000000000e+00  7.7005861890498423e-04 2.5796387694279700e-02 0.0000000000000000e+00  7.7128944272458690e-04 2.6331873354004540e-02 0.0000000000000000e+00  7.7240503085207566e-04 2.6867974973869647e-02 0.0000000000000000e+00  7.7340381397610763e-04 2.7404609217361021e-02 0.0000000000000000e+00  7.7428819905763380e-04 2.7941696997511201e-02 0.0000000000000000e+00  7.7506085451572505e-04 2.8479167019848640e-02 0.0000000000000000e+00  7.7572765850905678e-04 2.9016951344783971e-02 0.0000000000000000e+00  7.7629368929820093e-04 2.9554992856895900e-02 0.0000000000000000e+00  7.7676301536433988e-04 3.0093238704426151e-02 0.0000000000000000e+00  7.7713936897814788e-04 3.0631640267748832e-02 0.0000000000000000e+00  7.7742341391413990e-04 3.1170151248446437e-02 0.0000000000000000e+00  7.7762338527103899e-04 3.1708734797463785e-02 0.0000000000000000e+00  7.7769624933116252e-04 3.2247292008878714e-02 0.0000000000000000e+00  7.7772767886552800e-04 3.2785839721920063e-02 0.0000000000000000e+00  7.4980616980098056e-04 3.3307321192827276e-02 0.0000000000000000e+00  1.2453637070534900e-03 3.4178010367549812e-02 0.0000000000000000e+00  3.3012507935701887e-03 3.5592902501049010e-02 0.0000000000000000e+00  5.4447994172471684e-03 3.6923719312023505e-02 0.0000000000000000e+00  7.7897343200579172e-03 3.8523287759216047e-02 0.0000000000000000e+00  1.0364102585095071e-02 4.0307359421714858e-02 0.0000000000000000e+00  1.3200051011822386e-02 4.2343099859580312e-02 0.0000000000000000e+00  1.6277901057079148e-02 4.4772655214541268e-02 0.0000000000000000e+00  1.9522141657072042e-02 4.7725285996075888e-02 0.0000000000000000e+00  2.2821996532851895e-02 5.1277327318473447e-02 0.0000000000000000e+00  2.6055978625551719e-02 5.5442746043243354e-02 0.0000000000000000e+00  2.9106251988413497e-02 6.0189716832880602e-02 0.0000000000000000e+00  3.1871549411584890e-02 6.5441192483123828e-02 0.0000000000000000e+00  3.4275584420822763e-02 7.1090309347276462e-02 0.0000000000000000e+00  3.6270908178790813e-02 7.7013252422482609e-02 0.0000000000000000e+00  3.7839153343532127e-02 8.3081940313469549e-02 0.0000000000000000e+00  3.8987933065243625e-02 8.9175519746013801e-02 0.0000000000000000e+00  3.9745479745764388e-02 9.5188621577711269e-02 0.0000000000000000e+00  4.0154483230758570e-02 1.0103582027269332e-01 0.0000000000000000e+00  4.0266278801168939e-02 1.0665293071822575e-01 0.0000000000000000e+00  4.0136011265956555e-02 1.1199616707671098e-01 0.0000000000000000e+00  3.9818968566213489e-02 1.1704010415060961e-01 0.0000000000000000e+00  3.9368014301823497e-02 1.2177513607729996e-01 0.0000000000000000e+00  3.8831924583725905e-02 1.2620487989829327e-01 0.0000000000000000e+00  3.8254398582947963e-02 1.3034377695572374e-01 0.0000000000000000e+00  3.7673521348210580e-02 1.3421500793300511e-01 0.0000000000000000e+00  3.7121484277665442e-02 1.3784874517502638e-01 0.0000000000000000e+00  3.6624397577837843e-02 1.4128070220940375e-01 0.0000000000000000e+00  3.6202052943149807e-02 1.4455088772802363e-01 0.0000000000000000e+00  3.5867512105731615e-02 1.4770240993645445e-01 0.0000000000000000e+00  3.5626411748004058e-02 1.5078007867345081e-01 0.0000000000000000e+00  3.5475900160792002e-02 1.5382836392180840e-01 0.0000000000000000e+00  3.5403189996973214e-02 1.5688787393528070e-01 0.0000000000000000e+00  3.5383944920934544e-02 1.5998868713935041e-01 0.0000000000000000e+00  3.5382359389676973e-02 1.6313863536122522e-01 0.0000000000000000e+00  0.0000000000000000e+00 0.0000000000000000e+00 0.0000000000000000e+00  2.7359200502260375e-06 1.5157296475042142e-06 0.0000000000000000e+00  5.9468017585175153e-06 4.9518415349509417e-06 0.0000000000000000e+00  9.0444884430045029e-06 9.9041167812396523e-06 0.0000000000000000e+00  1.2022365559375682e-05 1.6439934277712723e-05 0.0000000000000000e+00  1.4899054321821458e-05 2.4524403471692330e-05 0.0000000000000000e+00  1.7695423094925423e-05 3.4123525632233741e-05 0.0000000000000000e+00  2.0411411595242191e-05 4.5250112665550550e-05 0.0000000000000000e+00  2.3044051744891163e-05 5.7892894017779018e-05 0.0000000000000000e+00  2.5580271682769522e-05 7.2000159280409217e-05 0.0000000000000000e+00  2.8019780976926433e-05 8.7462829704954898e-05 0.0000000000000000e+00  3.0357325138009114e-05 1.0416507341495635e-04 0.0000000000000000e+00  3.2592845393758004e-05 1.2196195579407624e-04 0.0000000000000000e+00  3.4733819536632697e-05 1.4073316805153074e-04 0.0000000000000000e+00  3.6770549797251381e-05 1.6031038051953986e-04 0.0000000000000000e+00  3.8703554424252451e-05 1.8051200870470893e-04 0.0000000000000000e+00  4.0530518705166791e-05 2.0113458455711252e-04 0.0000000000000000e+00  4.2247956465128742e-05 2.2197265022622439e-04 0.0000000000000000e+00  4.3850425284452289e-05 2.4282942181330332e-04 0.0000000000000000e+00  4.5338824826006702e-05 2.6353033566839547e-04 0.0000000000000000e+00  4.6708284674326823e-05 2.8394299281632159e-04 0.0000000000000000e+00  4.7952884926462048e-05 3.0395611361462734e-04 0.0000000000000000e+00  4.9087278613661404e-05 3.2349257661734582e-04 0.0000000000000000e+00  5.0111185404829268e-05 3.4252626876398639e-04 0.0000000000000000e+00  5.1021700362087205e-05 3.6097480336949112e-04 0.0000000000000000e+00  5.1817854390116614e-05 3.7869442345954120e-04 0.0000000000000000e+00  5.2511331521346338e-05 3.9555499928514861e-04 0.0000000000000000e+00  5.3113844855480082e-05 4.1148922348894292e-04 0.0000000000000000e+00  5.3638243046648227e-05 4.2648354535700371e-04 0.0000000000000000e+00  5.4101905538298340e-05 4.4058324617275187e-04 0.0000000000000000e+00  5.4522089498086985e-05 4.5388162359087235e-04 0.0000000000000000e+00  5.4906897637006797e-05 4.6648621667571855e-04 0.0000000000000000e+00  5.5273495429186829e-05 4.7845104844379679e-04 0.0000000000000000e+00  5.5651956117349667e-05 4.8982868786141658e-04 0.0000000000000000e+00  5.6081715978208023e-05 5.0069153808999514e-04 0.0000000000000000e+00  5.6616734257385153e-05 5.1111917726921286e-04 0.0000000000000000e+00  5.7325548817881722e-05 5.2121932301260956e-04 0.0000000000000000e+00  5.8271137017818320e-05 5.3117940637365272e-04 0.0000000000000000e+00  5.9489882911887704e-05 5.4126133943941800e-04 0.0000000000000000e+00  6.0982013809887844e-05 5.5176091768378355e-04 0.0000000000000000e+00  6.2700342535119836e-05 5.6298728238835384e-04 0.0000000000000000e+00  6.4573510701569203e-05 5.7517354719660704e-04 0.0000000000000000e+00  6.6534665612411471e-05 5.8844317837960245e-04 0.0000000000000000e+00  6.8531684777708047e-05 6.0284059462779405e-04 0.0000000000000000e+00  7.0538419360853058e-05 6.1840217288260330e-04 0.0000000000000000e+00  7.2541783149522427e-05 6.3516050763665337e-04 0.0000000000000000e+00  7.4524209505648419e-05 6.5316508327305624e-04 0.0000000000000000e+00  7.6477007913671325e-05 6.7243554395851200e-04 0.0000000000000000e+00  7.8380806060820838e-05 6.9293467850691957e-04 0.0000000000000000e+00  8.0241325421813513e-05 7.1459914932551344e-04 0.0000000000000000e+00  8.2057666841339557e-05 7.3742616501488046e-04 0.0000000000000000e+00  8.3823100977045817e-05 7.6136864422758231e-04 0.0000000000000000e+00  8.5541829483425644e-05 7.8638670312551899e-04 0.0000000000000000e+