<?xml version="1.0"?>
<VTKFile type="UnstructuredGrid"  version="0.1"  >
<UnstructuredGrid>
<Piece  NumberOfPoints="7161" NumberOfCells="13800">
<Points>
<DataArray  type="Float64"  NumberOfComponents="3"  format="ascii">0 0 0  0.01652173913043478 0 0  0.03304347826086956 0 0  0.04956521739130434 0 0  0.06608695652173913 0 0  0.08260869565217391 0 0  0.09913043478260869 0 0  0.1156521739130435 0 0  0.1321739130434783 0 0  0.148695652173913 0 0  0.1652173913043478 0 0  0.1817391304347826 0 0  0.1982608695652174 0 0  0.2147826086956522 0 0  0.2313043478260869 0 0  0.2478260869565218 0 0  0.2643478260869565 0 0  0.2808695652173913 0 0  0.2973913043478261 0 0  0.3139130434782609 0 0  0.3304347826086956 0 0  0.3469565217391304 0 0  0.3634782608695652 0 0  0.3799999999999999 0 0  0.3965217391304348 0 0  0.4130434782608696 0 0  0.4295652173913043 0 0  0.4460869565217391 0 0  0.4626086956521739 0 0  0.4791304347826086 0 0  0.4956521739130435 0 0  0.5121739130434783 0 0  0.528695652173913 0 0  0.5452173913043478 0 0  0.5617391304347825 0 0  0.5782608695652174 0 0  0.5947826086956521 0 0  0.6113043478260869 0 0  0.6278260869565218 0 0  0.6443478260869565 0 0  0.6608695652173913 0 0  0.677391304347826 0 0  0.6939130434782609 0 0  0.7104347826086956 0 0  0.7269565217391304 0 0  0.7434782608695653 0 0  0.7599999999999999 0 0  0.7765217391304348 0 0  0.7930434782608695 0 0  0.8095652173913043 0 0  0.8260869565217391 0 0  0.8426086956521739 0 0  0.8591304347826086 0 0  0.8756521739130434 0 0  0.8921739130434783 0 0  0.908695652173913 0 0  0.9252173913043478 0 0  0.9417391304347826 0 0  0.9582608695652173 0 0  0.9747826086956521 0 0  0.991304347826087 0 0  1.007826086956522 0 0  1.024347826086957 0 0  1.040869565217391 0 0  1.057391304347826 0 0  1.073913043478261 0 0  1.090434782608696 0 0  1.10695652173913 0 0  1.123478260869565 0 0  1.14 0 0  1.156521739130435 0 0  1.17304347826087 0 0  1.189565217391304 0 0  1.206086956521739 0 0  1.222608695652174 0 0  1.239130434782609 0 0  1.255652173913044 0 0  1.272173913043478 0 0  1.288695652173913 0 0  1.305217391304348 0 0  1.321739130434783 0 0  1.338260869565217 0 0  1.354782608695652 0 0  1.371304347826087 0 0  1.387826086956522 0 0  1.404347826086957 0 0  1.420869565217391 0 0  1.437391304347826 0 0  1.453913043478261 0 0  1.470434782608696 0 0  1.486956521739131 0 0  1.503478260869565 0 0  1.52 0 0  1.536521739130435 0 0  1.55304347826087 0 0  1.569565217391304 0 0  1.586086956521739 0 0  1.602608695652174 0 0  1.619130434782609 0 0  1.635652173913043 0 0  1.652173913043478 0 0  1.668695652173913 0 0  1.685217391304348 0 0  1.701739130434782 0 0  1.718260869565217 0 0  1.734782608695652 0 0  1.751304347826087 0 0  1.767826086956522 0 0  1.784347826086957 0 0  1.800869565217391 0 0  1.817391304347826 0 0  1.833913043478261 0 0  1.850434782608696 0 0  1.86695652173913 0 0  1.883478260869565 0 0  1.9 0 0  1.916521739130435 0 0  1.933043478260869 0 0  1.949565217391304 0 0  1.966086956521739 0 0  1.982608695652174 0 0  1.999130434782608 0 0  2.015652173913043 0 0  2.032173913043478 0 0  2.048695652173913 0 0  2.065217391304348 0 0  2.081739130434782 0 0  2.098260869565217 0 0  2.114782608695652 0 0  2.131304347826087 0 0  2.147826086956522 0 0  2.164347826086956 0 0  2.180869565217391 0 0  2.197391304347826 0 0  2.213913043478261 0 0  2.230434782608695 0 0  2.24695652173913 0 0  2.263478260869565 0 0  2.28 0 0  2.296521739130434 0 0  2.31304347826087 0 0  2.329565217391304 0 0  2.346086956521739 0 0  2.362608695652174 0 0  2.379130434782609 0 0  2.395652173913044 0 0  2.412173913043478 0 0  2.428695652173913 0 0  2.445217391304348 0 0  2.461739130434782 0 0  2.478260869565217 0 0  2.494782608695652 0 0  2.511304347826087 0 0  2.527826086956522 0 0  2.544347826086956 0 0  2.560869565217391 0 0  2.577391304347826 0 0  2.593913043478261 0 0  2.610434782608696 0 0  2.62695652173913 0 0  2.643478260869565 0 0  2.66 0 0  2.676521739130435 0 0  2.693043478260869 0 0  2.709565217391304 0 0  2.726086956521739 0 0  2.742608695652174 0 0  2.759130434782609 0 0  2.775652173913044 0 0  2.792173913043478 0 0  2.808695652173913 0 0  2.825217391304347 0 0  2.841739130434783 0 0  2.858260869565217 0 0  2.874782608695652 0 0  2.891304347826087 0 0  2.907826086956522 0 0  2.924347826086957 0 0  2.940869565217391 0 0  2.957391304347826 0 0  2.973913043478261 0 0  2.990434782608696 0 0  3.006956521739131 0 0  3.023478260869565 0 0  3.04 0 0  3.056521739130435 0 0  3.073043478260869 0 0  3.089565217391304 0 0  3.106086956521739 0 0  3.122608695652174 0 0  3.139130434782609 0 0  3.155652173913043 0 0  3.172173913043478 0 0  3.188695652173913 0 0  3.205217391304347 0 0  3.221739130434782 0 0  3.238260869565217 0 0  3.254782608695652 0 0  3.271304347826087 0 0  3.287826086956521 0 0  3.304347826086957 0 0  3.320869565217391 0 0  3.337391304347826 0 0  3.353913043478261 0 0  3.370434782608696 0 0  3.386956521739131 0 0  3.403478260869565 0 0  3.419999999999999 0 0  3.436521739130435 0 0  3.453043478260869 0 0  3.469565217391304 0 0  3.486086956521739 0 0  3.502608695652174 0 0  3.519130434782609 0 0  3.535652173913043 0 0  3.552173913043478 0 0  3.568695652173913 0 0  3.585217391304347 0 0  3.601739130434782 0 0  3.618260869565217 0 0  3.634782608695652 0 0  3.651304347826087 0 0  3.667826086956521 0 0  3.684347826086956 0 0  3.700869565217391 0 0  3.717391304347826 0 0  3.733913043478261 0 0  3.750434782608695 0 0  3.766956521739131 0 0  3.783478260869565 0 0  3.8 0 0  0 0.01666666666666667 0  0.01652173913043478 0.01666666666666667 0  0.03304347826086956 0.01666666666666667 0  0.04956521739130434 0.01666666666666667 0  0.06608695652173913 0.01666666666666667 0  0.08260869565217391 0.01666666666666667 0  0.09913043478260869 0.01666666666666667 0  0.1156521739130435 0.01666666666666667 0  0.1321739130434783 0.01666666666666667 0  0.148695652173913 0.01666666666666667 0  0.1652173913043478 0.01666666666666667 0  0.1817391304347826 0.01666666666666667 0  0.1982608695652174 0.01666666666666667 0  0.2147826086956522 0.01666666666666667 0  0.2313043478260869 0.01666666666666667 0  0.2478260869565218 0.01666666666666667 0  0.2643478260869565 0.01666666666666667 0  0.2808695652173913 0.01666666666666667 0  0.2973913043478261 0.01666666666666667 0  0.3139130434782609 0.01666666666666667 0  0.3304347826086956 0.01666666666666667 0  0.3469565217391304 0.01666666666666667 0  0.3634782608695652 0.01666666666666667 0  0.3799999999999999 0.01666666666666667 0  0.3965217391304348 0.01666666666666667 0  0.4130434782608696 0.01666666666666667 0  0.4295652173913043 0.01666666666666667 0  0.4460869565217391 0.01666666666666667 0  0.4626086956521739 0.01666666666666667 0  0.4791304347826086 0.01666666666666667 0  0.4956521739130435 0.01666666666666667 0  0.5121739130434783 0.01666666666666667 0  0.528695652173913 0.01666666666666667 0  0.5452173913043478 0.01666666666666667 0  0.5617391304347825 0.01666666666666667 0  0.5782608695652174 0.01666666666666667 0  0.5947826086956521 0.01666666666666667 0  0.6113043478260869 0.01666666666666667 0  0.6278260869565218 0.01666666666666667 0  0.6443478260869565 0.01666666666666667 0  0.6608695652173913 0.01666666666666667 0  0.677391304347826 0.01666666666666667 0  0.6939130434782609 0.01666666666666667 0  0.7104347826086956 0.01666666666666667 0  0.7269565217391304 0.01666666666666667 0  0.7434782608695653 0.01666666666666667 0  0.7599999999999999 0.01666666666666667 0  0.7765217391304348 0.01666666666666667 0  0.7930434782608695 0.01666666666666667 0  0.8095652173913043 0.01666666666666667 0  0.8260869565217391 0.01666666666666667 0  0.8426086956521739 0.01666666666666667 0  0.8591304347826086 0.01666666666666667 0  0.8756521739130434 0.01666666666666667 0  0.8921739130434783 0.01666666666666667 0  0.908695652173913 0.01666666666666667 0  0.9252173913043478 0.01666666666666667 0  0.9417391304347826 0.01666666666666667 0  0.9582608695652173 0.01666666666666667 0  0.9747826086956521 0.01666666666666667 0  0.991304347826087 0.01666666666666667 0  1.007826086956522 0.01666666666666667 0  1.024347826086957 0.01666666666666667 0  1.040869565217391 0.01666666666666667 0  1.057391304347826 0.01666666666666667 0  1.073913043478261 0.01666666666666667 0  1.090434782608696 0.01666666666666667 0  1.10695652173913 0.01666666666666667 0  1.123478260869565 0.01666666666666667 0  1.14 0.01666666666666667 0  1.156521739130435 0.01666666666666667 0  1.17304347826087 0.01666666666666667 0  1.189565217391304 0.01666666666666667 0  1.206086956521739 0.01666666666666667 0  1.222608695652174 0.01666666666666667 0  1.239130434782609 0.01666666666666667 0  1.255652173913044 0.01666666666666667 0  1.272173913043478 0.01666666666666667 0  1.288695652173913 0.01666666666666667 0  1.305217391304348 0.01666666666666667 0  1.321739130434783 0.01666666666666667 0  1.338260869565217 0.01666666666666667 0  1.354782608695652 0.01666666666666667 0  1.371304347826087 0.01666666666666667 0  1.387826086956522 0.01666666666666667 0  1.404347826086957 0.01666666666666667 0  1.420869565217391 0.01666666666666667 0  1.437391304347826 0.01666666666666667 0  1.453913043478261 0.01666666666666667 0  1.470434782608696 0.01666666666666667 0  1.486956521739131 0.01666666666666667 0  1.503478260869565 0.01666666666666667 0  1.52 0.01666666666666667 0  1.536521739130435 0.01666666666666667 0  1.55304347826087 0.01666666666666667 0  1.569565217391304 0.01666666666666667 0  1.586086956521739 0.01666666666666667 0  1.602608695652174 0.01666666666666667 0  1.619130434782609 0.01666666666666667 0  1.635652173913043 0.01666666666666667 0  1.652173913043478 0.01666666666666667 0  1.668695652173913 0.01666666666666667 0  1.685217391304348 0.01666666666666667 0  1.701739130434782 0.01666666666666667 0  1.718260869565217 0.01666666666666667 0  1.734782608695652 0.01666666666666667 0  1.751304347826087 0.01666666666666667 0  1.767826086956522 0.01666666666666667 0  1.784347826086957 0.01666666666666667 0  1.800869565217391 0.0166666666666666
[...]
<PointData  Vectors="Displacement"> 
<DataArray  type="Float64"  Name="Displacement"  NumberOfComponents="3" format="ascii">0.0000000000000000e+00 0.0000000000000000e+00 0.0000000000000000e+00  6.7026502653912510e-06 3.8751814220282032e-06 0.0000000000000000e+00  1.2895459644283151e-05 8.8625892888245575e-06 0.0000000000000000e+00  1.8953326607911167e-05 1.6260836817656036e-05 0.0000000000000000e+00  2.4849097070920453e-05 2.6161995119387489e-05 0.0000000000000000e+00  3.0595901738840655e-05 3.8511686088285425e-05 0.0000000000000000e+00  3.6217967283622254e-05 5.3266859096506161e-05 0.0000000000000000e+00  4.1693192211464575e-05 7.0481137609003583e-05 0.0000000000000000e+00  4.6966197992366491e-05 9.0118058450995827e-05 0.0000000000000000e+00  5.2013468365921389e-05 1.1203062023373795e-04 0.0000000000000000e+00  5.6838294982339140e-05 1.3608420995050530e-04 0.0000000000000000e+00  6.1423349064978688e-05 1.6218927255284946e-04 0.0000000000000000e+00  6.5733982408426435e-05 1.9024275286960254e-04 0.0000000000000000e+00  6.9729475653812584e-05 2.2004824599306959e-04 0.0000000000000000e+00  7.3367128602799421e-05 2.5136909272292714e-04 0.0000000000000000e+00  7.6616787494893500e-05 2.8390828043313687e-04 0.0000000000000000e+00  7.9464134502564384e-05 3.1735069276102432e-04 0.0000000000000000e+00  8.1900758180965234e-05 3.5137266016460438e-04 0.0000000000000000e+00  8.3927063431279921e-05 3.8564884284813644e-04 0.0000000000000000e+00  8.5547753552994458e-05 4.1985410258827625e-04 0.0000000000000000e+00  8.6781880365061228e-05 4.5366409793703408e-04 0.0000000000000000e+00  8.7676661952870453e-05 4.8679509771190849e-04 0.0000000000000000e+00  8.8281224574260125e-05 5.1905209231716725e-04 0.0000000000000000e+00  8.8650328066000608e-05 5.5029504582824150e-04 0.0000000000000000e+00  8.8837336336692604e-05 5.8045450860856531e-04 0.0000000000000000e+00  8.8844879297754080e-05 6.0954177262340591e-04 0.0000000000000000e+00  8.8653325057344397e-05 6.3749667834433143e-04 0.0000000000000000e+00  8.8297554409108193e-05 6.6419957055153178e-04 0.0000000000000000e+00  8.7839327123202560e-05 6.8964500711266670e-04 0.0000000000000000e+00  8.7311296356668567e-05 7.1392383433248959e-04 0.0000000000000000e+00  8.6752658114628060e-05 7.3706567205218242e-04 0.0000000000000000e+00  8.6226065879608366e-05 7.5912964034720624e-04 0.0000000000000000e+00  8.5788440927927443e-05 7.8024792157499326e-04 0.0000000000000000e+00  8.5477080078804707e-05 8.0057475471737613e-04 0.0000000000000000e+00  8.5345292241581632e-05 8.2021795648292556e-04 0.0000000000000000e+00  8.5485241522028328e-05 8.3928389465661097e-04 0.0000000000000000e+00  8.6030935295472365e-05 8.5791286982036380e-04 0.0000000000000000e+00  8.7127683342408952e-05 8.7633872447164635e-04 0.0000000000000000e+00  8.8865689461211956e-05 8.9493282685211280e-04 0.0000000000000000e+00  9.1225694734347452e-05 9.1414549779873181e-04 0.0000000000000000e+00  9.4078596798817982e-05 9.3438681860903792e-04 0.0000000000000000e+00  9.7275389213038622e-05 9.5587876784462139e-04 0.0000000000000000e+00  1.0069844548742633e-04 9.7875264435857891e-04 0.0000000000000000e+00  1.0426221474229954e-04 1.0031103497618727e-03 0.0000000000000000e+00  1.0790989006008083e-04 1.0290275683676436e-03 0.0000000000000000e+00  1.1159227930507620e-04 1.0565512776777480e-03 0.0000000000000000e+00  1.1527329932518052e-04 1.0857309240165890e-03 0.0000000000000000e+00  1.1894643364384437e-04 1.1165828049959630e-03 0.0000000000000000e+00  1.2260565876656557e-04 1.1491333436075952e-03 0.0000000000000000e+00  1.2623261966339952e-04 1.1834513251135737e-03 0.0000000000000000e+00  1.2980205188367860e-04 1.2195448430032774e-03 0.0000000000000000e+00  1.3327530591487541e-04 1.2573984040823037e-03 0.0000000000000000e+00  1.3661143549903055e-04 1.2969140130904117e-03 0.0000000000000000e+00  1.3981611029660607e-04 1.3379720163780699e-03 0.0000000000000000e+00  1.4286897385713311e-04 1.3804750329242110e-03 0.0000000000000000e+00  1.4576882949548687e-04 1.4242657613268337e-03 0.0000000000000000e+00  1.4852363389550880e-04 1.4692558754338027e-03 0.0000000000000000e+00  1.5109921684983025e-04 1.5152791789785310e-03 0.0000000000000000e+00  1.5348851053830002e-04 1.5621588821313787e-03 0.0000000000000000e+00  1.5568147252055230e-04 1.6096938953629061e-03 0.0000000000000000e+00  1.5767290998786886e-04 1.6576752310663635e-03 0.0000000000000000e+00  1.5946333728170472e-04 1.7059027376284093e-03 0.0000000000000000e+00  1.6105436276990750e-04 1.7541836790749017e-03 0.0000000000000000e+00  1.6244743247489229e-04 1.8023292221084398e-03 0.0000000000000000e+00  1.6364389476557716e-04 1.8501527208389134e-03 0.0000000000000000e+00  1.6464547549072407e-04 1.8974691884204782e-03 0.0000000000000000e+00  1.6545538926936919e-04 1.9440963103563239e-03 0.0000000000000000e+00  1.6608293280905993e-04 1.9898640835955429e-03 0.0000000000000000e+00  1.6654922592266056e-04 2.0346470109213863e-03 0.0000000000000000e+00  1.6687665076356399e-04 2.0783933435149756e-03 0.0000000000000000e+00  1.6706830930903301e-04 2.1210807457552505e-03 0.0000000000000000e+00  1.6711341174717153e-04 2.1626421686174713e-03 0.0000000000000000e+00  1.6700470690694265e-04 2.2029742134106849e-03 0.0000000000000000e+00  1.6673658871311082e-04 2.2419713650169621e-03 0.0000000000000000e+00  1.6629758028616543e-04 2.2795086134368347e-03 0.0000000000000000e+00  1.6567617316662705e-04 2.3154235648356444e-03 0.0000000000000000e+00  1.6486739546728941e-04 2.3495359578435894e-03 0.0000000000000000e+00  1.6387407994460622e-04 2.3816657145684689e-03 0.0000000000000000e+00  1.6270775321320627e-04 2.4116420840349416e-03 0.0000000000000000e+00  1.6141122640370742e-04 2.4393624428831360e-03 0.0000000000000000e+00  1.6003260973395620e-04 2.4648900736158755e-03 0.0000000000000000e+00  1.5855650232021674e-04 2.4883002343568865e-03 0.0000000000000000e+00  1.5696754128554456e-04 2.5094849391017189e-03 0.0000000000000000e+00  1.5532815629383688e-04 2.5283379979901877e-03 0.0000000000000000e+00  1.5373137842176980e-04 2.5449189378945426e-03 0.0000000000000000e+00  1.5226377253364003e-04 2.5594285613318051e-03 0.0000000000000000e+00  1.5099029433140657e-04 2.5721747370569580e-03 0.0000000000000000e+00  1.4992986231006144e-04 2.5834963355099113e-03 0.0000000000000000e+00  1.4907187785464016e-04 2.5936901518211035e-03 0.0000000000000000e+00  1.4841213635182089e-04 2.6029412312843624e-03 0.0000000000000000e+00  1.4797319422906003e-04 2.6113886817331474e-03 0.0000000000000000e+00  1.4783883195433804e-04 2.6191258714194266e-03 0.0000000000000000e+00  1.4819665418996326e-04 2.6262162723793038e-03 0.0000000000000000e+00  1.4931448222061454e-04 2.6328556329194936e-03 0.0000000000000000e+00  1.5144228018042913e-04 2.6394833283115544e-03 0.0000000000000000e+00  1.5473872028518530e-04 2.6467062215302698e-03 0.0000000000000000e+00  1.5924996387272185e-04 2.6552142201756099e-03 0.0000000000000000e+00  1.6492505256326733e-04 2.6657037252407305e-03 0.0000000000000000e+00  1.7166954808522992e-04 2.6787922344380950e-03 0.0000000000000000e+00  1.7939542741209123e-04 2.6950727711283233e-03 0.0000000000000000e+00  1.8801748366755280e-04 2.7151708101639900e-03 0.0000000000000000e+00  1.9745021298816695e-04 2.7396973051051492e-03 0.0000000000000000e+00  2.0766019781643381e-04 2.7692180398121696e-03 0.0000000000000000e+00  2.1852425439195818e-04 2.8044125762438140e-03 0.0000000000000000e+00  2.2981754081883503e-04 2.8458157894628001e-03 0.0000000000000000e+00  2.4146859288611905e-04 2.8936123545568056e-03 0.0000000000000000e+00  2.5356201860636117e-04 2.9480980268261916e-03 0.0000000000000000e+00  2.6610761928876834e-04 3.0100255126244879e-03 0.0000000000000000e+00  2.7896715945828303e-04 3.0800348384478599e-03 0.0000000000000000e+00  2.9193407527284318e-04 3.1584274586444177e-03 0.0000000000000000e+00  3.0486187002291680e-04 3.2451857933266455e-03 0.0000000000000000e+00  3.1767105905795601e-04 3.3402081048452422e-03 0.0000000000000000e+00  3.3032781663201315e-04 3.4433791653932146e-03 0.0000000000000000e+00  3.4281669366291234e-04 3.5545807032152789e-03 0.0000000000000000e+00  3.5513410375938753e-04 3.6736891038833485e-03 0.0000000000000000e+00  3.6727956439115971e-04 3.8005696445993068e-03 0.0000000000000000e+00  3.7927277104886939e-04 3.9350637662669092e-03 0.0000000000000000e+00  3.9121524654667152e-04 4.0770353130973880e-03 0.0000000000000000e+00  4.0335763452677159e-04 4.2265476950307836e-03 0.0000000000000000e+00  4.1596310164542953e-04 4.3841439964072493e-03 0.0000000000000000e+00  4.2908913285679686e-04 4.5507210928297384e-03 0.0000000000000000e+00  4.4276759076427040e-04 4.7270443852006558e-03 0.0000000000000000e+00  4.5685240119260252e-04 4.9138485440142019e-03 0.0000000000000000e+00  4.7124066473896466e-04 5.1115512099481480e-03 0.0000000000000000e+00  4.8580216468514196e-04 5.3202115827590216e-03 0.0000000000000000e+00  5.0091908862173078e-04 5.5402323631421040e-03 0.0000000000000000e+00  5.1694182295225553e-04 5.7742193029984993e-03 0.0000000000000000e+00  5.3348149952513950e-04 6.0231639656706040e-03 0.0000000000000000e+00  5.5087108693029335e-04 6.2877527418305802e-03 0.0000000000000000e+00  5.6971333841982223e-04 6.5715410834099831e-03 0.0000000000000000e+00  5.9010503015283059e-04 6.8791740249207738e-03 0.0000000000000000e+00  6.1108751852888233e-04 7.2141084776445224e-03 0.0000000000000000e+00  6.3474423680274486e-04 7.5798281799979057e-03 0.0000000000000000e+00  6.5876401252760108e-04 7.9860176123656389e-03 0.0000000000000000e+00  6.8234165407958611e-04 8.4352065153353532e-03 0.0000000000000000e+00  7.0575824927373134e-04 8.9265102565874496e-03 0.0000000000000000e+00  7.2879714560494465e-04 9.4616213504060322e-03 0.0000000000000000e+00  7.5135259096187573e-04 1.0042947304965149e-02 0.0000000000000000e+00  7.7346765079148072e-04 1.0672685124889357e-02 0.0000000000000000e+00  7.9500895737423494e-04 1.1352495817732646e-02 0.0000000000000000e+00  8.1598805669336498e-04 1.2083291662892282e-02 0.0000000000000000e+00  8.3642557575849656e-04 1.2866162141144969e-02 0.0000000000000000e+00  8.5637870484714688e-04 1.3702224507723560e-02 0.0000000000000000e+00  8.7604720371941603e-04 1.4591603585140320e-02 0.0000000000000000e+00  8.9571438463503729e-04 1.5532341372509613e-02 0.0000000000000000e+00  9.1513109563682812e-04 1.6519752385067255e-02 0.0000000000000000e+00  9.3416376779181353e-04 1.7547901864510707e-02 0.0000000000000000e+00  9.5279262542897027e-04 1.8612426921981791e-02 0.0000000000000000e+00  9.7071751749087584e-04 1.9710474164208663e-02 0.0000000000000000e+00  9.8817299650278941e-04 2.0839783642967454e-02 0.0000000000000000e+00  1.0051159561110879e-03 2.1999271921524829e-02 0.0000000000000000e+00  1.0218988920031871e-03 2.3188262980438138e-02 0.0000000000000000e+00  1.0381726393351727e-03 2.4405695291262339e-02 0.0000000000000000e+00  1.0531555048436596e-03 2.5647769093109212e-02 0.0000000000000000e+00  1.0666201837639569e-03 2.6909679703396652e-02 0.0000000000000000e+00  1.0794605391344599e-03 2.8188644112161047e-02 0.0000000000000000e+00  1.0914821975615968e-03 2.9483986059667278e-02 0.0000000000000000e+00  1.1026457398664842e-03 3.0794013216102607e-02 0.0000000000000000e+00  1.1129331101661199e-03 3.2116704000790135e-02 0.0000000000000000e+00  1.1225769720781314e-03 3.3451024247722123e-02 0.0000000000000000e+00  1.1316139801260743e-03 3.4796088822684382e-02 0.0000000000000000e+00  1.1399002951589063e-03 3.6150366527362462e-02 0.0000000000000000e+00  1.1475601999510012e-03 3.7512477840464173e-02 0.0000000000000000e+00  1.1547377710159059e-03 3.8881608334940400e-02 0.0000000000000000e+00  1.1615436944766631e-03 4.0257213342713274e-02 0.0000000000000000e+00  1.1680714702060665e-03 4.1639034375181329e-02 0.0000000000000000e+00  1.1743327924821077e-03 4.3026872356264650e-02 0.0000000000000000e+00  1.1803022855328604e-03 4.4420511965871573e-02 0.0000000000000000e+00  1.1859065291082364e-03 4.5819538147049900e-02 0.0000000000000000e+00  1.1910363497264372e-03 4.7223186137202326e-02 0.0000000000000000e+00  1.1957364161335709e-03 4.8630653762194845e-02 0.0000000000000000e+00  1.2001177012589334e-03 5.0041558889770174e-02 0.0000000000000000e+00  1.2042008778909395e-03 5.1455720880348020e-02 0.0000000000000000e+00  1.2079698938907554e-03 5.2872869384788468e-02 0.0000000000000000e+00  1.2114042137489674e-03 5.4292656596091268e-02 0.0000000000000000e+00  1.2145014557359926e-03 5.5714758924037253e-02 0.0000000000000000e+00  1.2172901461336590e-03 5.7138822726685683e-02 0.0000000000000000e+00  1.2198259871745894e-03 5.8564568684851784e-02 0.0000000000000000e+00  1.2221686750408457e-03 5.9991824211655345e-02 0.0000000000000000e+00  1.2243576498281417e-03 6.1420488962970379e-02 0.0000000000000000e+00  1.2264149479559799e-03 6.2850486179616777e-02 0.0000000000000000e+00  1.2283493085410843e-03 6.4281747423094671e-02 0.0000000000000000e+00  1.2301508474738380e-03 6.5714200376921592e-02 0.0000000000000000e+00  1.2317956729701489e-03 6.7147743929010822e-02 0.0000000000000000e+00  1.2332710136095336e-03 6.8582228722274499e-02 0.0000000000000000e+00  1.2345849389607190e-03 7.0017500672689637e-02 0.0000000000000000e+00  1.2357481497996109e-03 7.1453449888518053e-02 0.0000000000000000e+00  1.2367594962577183e-03 7.2889986113545982e-02 0.0000000000000000e+00  1.2376158895938650e-03 7.4327001108094232e-02 0.0000000000000000e+00  1.2383241214354232e-03 7.5764383963366280e-02 0.0000000000000000e+00  1.2388954902086923e-03 7.7202043740374177e-02 0.0000000000000000e+00  1.2393368955974260e-03 7.8639909189731641e-02 0.0000000000000000e+00  1.2396495848011810e-03 8.0077913741132670e-02 0.0000000000000000e+00  1.2397999147819227e-03 8.1515942536203159e-02 0.0000000000000000e+00  1.2398533242021471e-03 8.2953944031826002e-02 0.0000000000000000e+00  1.2418174354632133e-03 8.4396418555573713e-02 0.0000000000000000e+00  1.9160837533405207e-03 8.6276841586771916e-02 0.0000000000000000e+00  6.7882094145297759e-03 9.0149401966365977e-02 0.0000000000000000e+00  1.1568186620824603e-02 9.4109071040458014e-02 0.0000000000000000e+00  1.6871747653009101e-02 9.8497972815156806e-02 0.0000000000000000e+00  2.2414308130548219e-02 1.0331607506131882e-01 0.0000000000000000e+00  2.8102766087361293e-02 1.0837585387925522e-01 0.0000000000000000e+00  3.3962888051864204e-02 1.1359017497615347e-01 0.0000000000000000e+00  4.0036141708431137e-02 1.1906436835104965e-01 0.0000000000000000e+00  4.6361900285186573e-02 1.2494364229740799e-01 0.0000000000000000e+00  5.2790601913710392e-02 1.3172049664445243e-01 0.0000000000000000e+00  5.8996877832641417e-02 1.3971052267847298e-01 0.0000000000000000e+00  6.4630352567845176e-02 1.4891073016442577e-01 0.0000000000000000e+00  6.9428452709539304e-02 1.5908631553966393e-01 0.0000000000000000e+00  7.3254899772592585e-02 1.6989959564680032e-01 0.0000000000000000e+00  7.6088226033232634e-02 1.8100605475579640e-01 0.0000000000000000e+00  7.7989994884863481e-02 1.9210683162033615e-01 0.0000000000000000e+00  7.9071385245597522e-02 2.0296878489769801e-01 0.0000000000000000e+00  7.9466273886154459e-02 2.1342557230367154e-01 0.0000000000000000e+00  7.9312646658447991e-02 2.2336966668487918e-01 0.0000000000000000e+00  7.8741316277280815e-02 2.3274132216788287e-01 0.0000000000000000e+00  7.7870062113884961e-02 2.4151764460832187e-01 0.0000000000000000e+00  7.6801366942935920e-02 2.4970315516510946e-01 0.0000000000000000e+00  7.5622305725865369e-02 2.5732226159693755e-01 0.0000000000000000e+00  7.4405559185497877e-02 2.6441357088283174e-01 0.0000000000000000e+00  7.3210872032783147e-02 2.7102577472940126e-01 0.0000000000000000e+00  7.2086527569527034e-02 2.7721478055159771e-01 0.0000000000000000e+00  7.1070576196472002e-02 2.8304176363672323e-01 0.0000000000000000e+00  7.0191654461806169e-02 2.8857183385709245e-01 0.0000000000000000e+00  6.9469283513152860e-02 2.9387301199531674e-01 0.0000000000000000e+00  6.8913559293561827e-02 2.9901516935899691e-01 0.0000000000000000e+00  6.8524161268092340e-02 3.0406846017285100e-01 0.0000000000000000e+00  6.8288643583348657e-02 3.0910049039742205e-01 0.0000000000000000e+00  6.8180103584485355e-02 3.1417084804559325e-01 0.0000000000000000e+00  6.8154785391862815e-02 3.1932038073724839e-01 0.0000000000000000e+00  6.8153235324867376e-02 3.2455296058690375e-01 0.0000000000000000e+00  0.0000000000000000e+00 0.0000000000000000e+00 0.0000000000000000e+00  3.1068480419652141e-06 1.8215047332816659e-06 0.0000000000000000e+00  6.8331562917828795e-06 6.7673371342103452e-06 0.0000000000000000e+00  1.0399185986107738e-05 1.4209495303987134e-05 0.0000000000000000e+00  1.3825343146570575e-05 2.4176997969827623e-05 0.0000000000000000e+00  1.7116679890527500e-05 3.6585386326797053e-05 0.0000000000000000e+00  2.0292321767975533e-05 5.1372687744111845e-05 0.0000000000000000e+00  2.3368631071804857e-05 6.8634916390447284e-05 0.0000000000000000e+00  2.6332873589046867e-05 8.8341491605126358e-05 0.0000000000000000e+00  2.9187148241215825e-05 1.1033098754117696e-04 0.0000000000000000e+00  3.1916579908195680e-05 1.3444607345262078e-04 0.0000000000000000e+00  3.4539047441990023e-05 1.6061502188582298e-04 0.0000000000000000e+00  3.7052478563919426e-05 1.8874770465790791e-04 0.0000000000000000e+00  3.9461297530993672e-05 2.1864438598215259e-04 0.0000000000000000e+00  4.1760041217675323e-05 2.5006714872444062e-04 0.0000000000000000e+00  4.3960792728239482e-05 2.8271591539292981e-04 0.0000000000000000e+00  4.6063700552778219e-05 3.1627017221512980e-04 0.0000000000000000e+00  4.8071695012148284e-05 3.5040631520549511e-04 0.0000000000000000e+00  4.9984586063941505e-05 3.8479944037706556e-04 0.0000000000000000e+00  5.1796235757346381e-05 4.1912417234452802e-04 0.0000000000000000e+00  5.3503741431536777e-05 4.5305370565437545e-04 0.0000000000000000e+00  5.5096630653350853e-05 4.8628554229569369e-04 0.0000000000000000e+00  5.6578172574418554e-05 5.1863611902971756e-04 0.0000000000000000e+00  5.7933888545868823e-05 5.4995152016583339e-04 0.0000000000000000e+00  5.9182388710995964e-05 5.8016499900591097e-04 0.0000000000000000e+00  6.0313777810409027e-05 6.0932315960640626e-04 0.0000000000000000e+00  6.1297377591500336e-05 6.3736853380759852e-04 0.0000000000000000e+00  6.2126879107364007e-05 6.6413760524352422e-04 0.0000000000000000e+00  6.2830461106926384e-05 6.8962593587613096e-04 0.0000000000000000e+00  6.3413312399383066e-05 7.1394862399241910e-04 0.0000000000000000e+00  6.3895326397197014e-05 7.3711772169838879e-04 0.0000000000000000e+00  6.4310899873137837e-05 7.5918066120866750e-04 0.0000000000000000e+00  6.4692148770483600e-05 7.8028045479889890e-04 0.0000000000000000e+00  6.5059315169649210e-05 8.0058098456288365e-04 0.0000000000000000e+00  6.5451914923927101e-05 8.2017473651596628e-04 0.0000000000000000e+00  6.5939880435194457e-05 8.3914953979808099e-04 0.0000000000000000e+00  6.6623405441487135e-05 8.5762786431979588e-04 0.0000000000000000e+00  6.7607742527777822e-05 8.7584434965986982e-04 0.0000000000000000e+00  6.8949168917288787e-05 8.9420533602444137e-04 0.0000000000000000e+00  7.0619598236840514e-05 9.1321299765763711e-04 0.0000000000000000e+00  7.2518086146942809e-05 9.3331754856946407e-04 0.0000000000000000e+00  7.4551257342106851e-05 9.5472470999859844e-04 0.0000000000000000e+00  7.6654772387239333e-05 9.7754684445715951e-04 0.0000000000000000e+00  7.8781306930541370e-05 1.0018791577448350e-03 0.0000000000000000e+00  8.0891579395603566e-05 1.0277862340180976e-03 0.0000000000000000e+00  8.2971989227390963e-05 1.0553041394422463e-03 0.0000000000000000e+00  8.5021870927431801e-05 1.0844989514279674e-03 0.0000000000000000e+00  8.7010068699757304e-05 1.1153614188471874e-03 0.0000000000000000e+00  8.8947854591910069e-05 1.1479145812030357e-03 0.0000000000000000e+00  9.0836616336121905e-05 1.1822438750153581e-03 0.0000000000000000e+00  9.2680387723760596e-05 1.2183559309923602e-03 0.0000000000000000e+00  9.4471965112225906e-05 1.2562414983419666e-03 0.0000000000000000e+00  9.6219127078848944e-05 1.2957994541116478e-03 0.0000000000000000e+