<?xml version="1.0"?>
<VTKFile type="UnstructuredGrid"  version="0.1"  >
<UnstructuredGrid>
<Piece  NumberOfPoints="7161" NumberOfCells="13800">
<Points>
<DataArray  type="Float64"  NumberOfComponents="3"  format="ascii">0 0 0  0.01652173913043478 0 0  0.03304347826086956 0 0  0.04956521739130434 0 0  0.06608695652173913 0 0  0.08260869565217391 0 0  0.09913043478260869 0 0  0.1156521739130435 0 0  0.1321739130434783 0 0  0.148695652173913 0 0  0.1652173913043478 0 0  0.1817391304347826 0 0  0.1982608695652174 0 0  0.2147826086956522 0 0  0.2313043478260869 0 0  0.2478260869565218 0 0  0.2643478260869565 0 0  0.2808695652173913 0 0  0.2973913043478261 0 0  0.3139130434782609 0 0  0.3304347826086956 0 0  0.3469565217391304 0 0  0.3634782608695652 0 0  0.3799999999999999 0 0  0.3965217391304348 0 0  0.4130434782608696 0 0  0.4295652173913043 0 0  0.4460869565217391 0 0  0.4626086956521739 0 0  0.4791304347826086 0 0  0.4956521739130435 0 0  0.5121739130434783 0 0  0.528695652173913 0 0  0.5452173913043478 0 0  0.5617391304347825 0 0  0.5782608695652174 0 0  0.5947826086956521 0 0  0.6113043478260869 0 0  0.6278260869565218 0 0  0.6443478260869565 0 0  0.6608695652173913 0 0  0.677391304347826 0 0  0.6939130434782609 0 0  0.7104347826086956 0 0  0.7269565217391304 0 0  0.7434782608695653 0 0  0.7599999999999999 0 0  0.7765217391304348 0 0  0.7930434782608695 0 0  0.8095652173913043 0 0  0.8260869565217391 0 0  0.8426086956521739 0 0  0.8591304347826086 0 0  0.8756521739130434 0 0  0.8921739130434783 0 0  0.908695652173913 0 0  0.9252173913043478 0 0  0.9417391304347826 0 0  0.9582608695652173 0 0  0.9747826086956521 0 0  0.991304347826087 0 0  1.007826086956522 0 0  1.024347826086957 0 0  1.040869565217391 0 0  1.057391304347826 0 0  1.073913043478261 0 0  1.090434782608696 0 0  1.10695652173913 0 0  1.123478260869565 0 0  1.14 0 0  1.156521739130435 0 0  1.17304347826087 0 0  1.189565217391304 0 0  1.206086956521739 0 0  1.222608695652174 0 0  1.239130434782609 0 0  1.255652173913044 0 0  1.272173913043478 0 0  1.288695652173913 0 0  1.305217391304348 0 0  1.321739130434783 0 0  1.338260869565217 0 0  1.354782608695652 0 0  1.371304347826087 0 0  1.387826086956522 0 0  1.404347826086957 0 0  1.420869565217391 0 0  1.437391304347826 0 0  1.453913043478261 0 0  1.470434782608696 0 0  1.486956521739131 0 0  1.503478260869565 0 0  1.52 0 0  1.536521739130435 0 0  1.55304347826087 0 0  1.569565217391304 0 0  1.586086956521739 0 0  1.602608695652174 0 0  1.619130434782609 0 0  1.635652173913043 0 0  1.652173913043478 0 0  1.668695652173913 0 0  1.685217391304348 0 0  1.701739130434782 0 0  1.718260869565217 0 0  1.734782608695652 0 0  1.751304347826087 0 0  1.767826086956522 0 0  1.784347826086957 0 0  1.800869565217391 0 0  1.817391304347826 0 0  1.833913043478261 0 0  1.850434782608696 0 0  1.86695652173913 0 0  1.883478260869565 0 0  1.9 0 0  1.916521739130435 0 0  1.933043478260869 0 0  1.949565217391304 0 0  1.966086956521739 0 0  1.982608695652174 0 0  1.999130434782608 0 0  2.015652173913043 0 0  2.032173913043478 0 0  2.048695652173913 0 0  2.065217391304348 0 0  2.081739130434782 0 0  2.098260869565217 0 0  2.114782608695652 0 0  2.131304347826087 0 0  2.147826086956522 0 0  2.164347826086956 0 0  2.180869565217391 0 0  2.197391304347826 0 0  2.213913043478261 0 0  2.230434782608695 0 0  2.24695652173913 0 0  2.263478260869565 0 0  2.28 0 0  2.296521739130434 0 0  2.31304347826087 0 0  2.329565217391304 0 0  2.346086956521739 0 0  2.362608695652174 0 0  2.379130434782609 0 0  2.395652173913044 0 0  2.412173913043478 0 0  2.428695652173913 0 0  2.445217391304348 0 0  2.461739130434782 0 0  2.478260869565217 0 0  2.494782608695652 0 0  2.511304347826087 0 0  2.527826086956522 0 0  2.544347826086956 0 0  2.560869565217391 0 0  2.577391304347826 0 0  2.593913043478261 0 0  2.610434782608696 0 0  2.62695652173913 0 0  2.643478260869565 0 0  2.66 0 0  2.676521739130435 0 0  2.693043478260869 0 0  2.709565217391304 0 0  2.726086956521739 0 0  2.742608695652174 0 0  2.759130434782609 0 0  2.775652173913044 0 0  2.792173913043478 0 0  2.808695652173913 0 0  2.825217391304347 0 0  2.841739130434783 0 0  2.858260869565217 0 0  2.874782608695652 0 0  2.891304347826087 0 0  2.907826086956522 0 0  2.924347826086957 0 0  2.940869565217391 0 0  2.957391304347826 0 0  2.973913043478261 0 0  2.990434782608696 0 0  3.006956521739131 0 0  3.023478260869565 0 0  3.04 0 0  3.056521739130435 0 0  3.073043478260869 0 0  3.089565217391304 0 0  3.106086956521739 0 0  3.122608695652174 0 0  3.139130434782609 0 0  3.155652173913043 0 0  3.172173913043478 0 0  3.188695652173913 0 0  3.205217391304347 0 0  3.221739130434782 0 0  3.238260869565217 0 0  3.254782608695652 0 0  3.271304347826087 0 0  3.287826086956521 0 0  3.304347826086957 0 0  3.320869565217391 0 0  3.337391304347826 0 0  3.353913043478261 0 0  3.370434782608696 0 0  3.386956521739131 0 0  3.403478260869565 0 0  3.419999999999999 0 0  3.436521739130435 0 0  3.453043478260869 0 0  3.469565217391304 0 0  3.486086956521739 0 0  3.502608695652174 0 0  3.519130434782609 0 0  3.535652173913043 0 0  3.552173913043478 0 0  3.568695652173913 0 0  3.585217391304347 0 0  3.601739130434782 0 0  3.618260869565217 0 0  3.634782608695652 0 0  3.651304347826087 0 0  3.667826086956521 0 0  3.684347826086956 0 0  3.700869565217391 0 0  3.717391304347826 0 0  3.733913043478261 0 0  3.750434782608695 0 0  3.766956521739131 0 0  3.783478260869565 0 0  3.8 0 0  0 0.01666666666666667 0  0.01652173913043478 0.01666666666666667 0  0.03304347826086956 0.01666666666666667 0  0.04956521739130434 0.01666666666666667 0  0.06608695652173913 0.01666666666666667 0  0.08260869565217391 0.01666666666666667 0  0.09913043478260869 0.01666666666666667 0  0.1156521739130435 0.01666666666666667 0  0.1321739130434783 0.01666666666666667 0  0.148695652173913 0.01666666666666667 0  0.1652173913043478 0.01666666666666667 0  0.1817391304347826 0.01666666666666667 0  0.1982608695652174 0.01666666666666667 0  0.2147826086956522 0.01666666666666667 0  0.2313043478260869 0.01666666666666667 0  0.2478260869565218 0.01666666666666667 0  0.2643478260869565 0.01666666666666667 0  0.2808695652173913 0.01666666666666667 0  0.2973913043478261 0.01666666666666667 0  0.3139130434782609 0.01666666666666667 0  0.3304347826086956 0.01666666666666667 0  0.3469565217391304 0.01666666666666667 0  0.3634782608695652 0.01666666666666667 0  0.3799999999999999 0.01666666666666667 0  0.3965217391304348 0.01666666666666667 0  0.4130434782608696 0.01666666666666667 0  0.4295652173913043 0.01666666666666667 0  0.4460869565217391 0.01666666666666667 0  0.4626086956521739 0.01666666666666667 0  0.4791304347826086 0.01666666666666667 0  0.4956521739130435 0.01666666666666667 0  0.5121739130434783 0.01666666666666667 0  0.528695652173913 0.01666666666666667 0  0.5452173913043478 0.01666666666666667 0  0.5617391304347825 0.01666666666666667 0  0.5782608695652174 0.01666666666666667 0  0.5947826086956521 0.01666666666666667 0  0.6113043478260869 0.01666666666666667 0  0.6278260869565218 0.01666666666666667 0  0.6443478260869565 0.01666666666666667 0  0.6608695652173913 0.01666666666666667 0  0.677391304347826 0.01666666666666667 0  0.6939130434782609 0.01666666666666667 0  0.7104347826086956 0.01666666666666667 0  0.7269565217391304 0.01666666666666667 0  0.7434782608695653 0.01666666666666667 0  0.7599999999999999 0.01666666666666667 0  0.7765217391304348 0.01666666666666667 0  0.7930434782608695 0.01666666666666667 0  0.8095652173913043 0.01666666666666667 0  0.8260869565217391 0.01666666666666667 0  0.8426086956521739 0.01666666666666667 0  0.8591304347826086 0.01666666666666667 0  0.8756521739130434 0.01666666666666667 0  0.8921739130434783 0.01666666666666667 0  0.908695652173913 0.01666666666666667 0  0.9252173913043478 0.01666666666666667 0  0.9417391304347826 0.01666666666666667 0  0.9582608695652173 0.01666666666666667 0  0.9747826086956521 0.01666666666666667 0  0.991304347826087 0.01666666666666667 0  1.007826086956522 0.01666666666666667 0  1.024347826086957 0.01666666666666667 0  1.040869565217391 0.01666666666666667 0  1.057391304347826 0.01666666666666667 0  1.073913043478261 0.01666666666666667 0  1.090434782608696 0.01666666666666667 0  1.10695652173913 0.01666666666666667 0  1.123478260869565 0.01666666666666667 0  1.14 0.01666666666666667 0  1.156521739130435 0.01666666666666667 0  1.17304347826087 0.01666666666666667 0  1.189565217391304 0.01666666666666667 0  1.206086956521739 0.01666666666666667 0  1.222608695652174 0.01666666666666667 0  1.239130434782609 0.01666666666666667 0  1.255652173913044 0.01666666666666667 0  1.272173913043478 0.01666666666666667 0  1.288695652173913 0.01666666666666667 0  1.305217391304348 0.01666666666666667 0  1.321739130434783 0.01666666666666667 0  1.338260869565217 0.01666666666666667 0  1.354782608695652 0.01666666666666667 0  1.371304347826087 0.01666666666666667 0  1.387826086956522 0.01666666666666667 0  1.404347826086957 0.01666666666666667 0  1.420869565217391 0.01666666666666667 0  1.437391304347826 0.01666666666666667 0  1.453913043478261 0.01666666666666667 0  1.470434782608696 0.01666666666666667 0  1.486956521739131 0.01666666666666667 0  1.503478260869565 0.01666666666666667 0  1.52 0.01666666666666667 0  1.536521739130435 0.01666666666666667 0  1.55304347826087 0.01666666666666667 0  1.569565217391304 0.01666666666666667 0  1.586086956521739 0.01666666666666667 0  1.602608695652174 0.01666666666666667 0  1.619130434782609 0.01666666666666667 0  1.635652173913043 0.01666666666666667 0  1.652173913043478 0.01666666666666667 0  1.668695652173913 0.01666666666666667 0  1.685217391304348 0.01666666666666667 0  1.701739130434782 0.01666666666666667 0  1.718260869565217 0.01666666666666667 0  1.734782608695652 0.01666666666666667 0  1.751304347826087 0.01666666666666667 0  1.767826086956522 0.01666666666666667 0  1.784347826086957 0.01666666666666667 0  1.800869565217391 0.0166666666666666
[...]
<PointData  Scalars="rho"> 
<DataArray  type="Float64"  Name="rho"  format="ascii">9.9533727983537279e-01  9.9290642756102676e-01  9.9262649454721841e-01  9.9222097377815954e-01  9.9168997227275080e-01  9.9104540730395685e-01  9.9030417113483815e-01  9.8948484384984625e-01  9.8860574562606851e-01  9.8603521260464655e-01  9.8641561295073033e-01  9.8280636241267583e-01  9.7778778718766479e-01  9.7292205524193909e-01  9.6837793170541486e-01  9.6435356023202357e-01  9.6103987478100772e-01  9.5857409780938096e-01  8.7069119753453084e-01  8.5772073720064401e-01  8.4535847822931054e-01  8.3346522006887525e-01  8.2188779306682591e-01  8.1047390645402895e-01  7.9910065142638798e-01  7.8770397422188876e-01  7.7630254109523289e-01  7.6500986481230338e-01  7.5573177564150118e-01  7.4521391207269794e-01  7.3475396804763771e-01  7.2599438630910129e-01  7.1754778647970907e-01  7.0963101006697293e-01  7.0180333352387769e-01  6.9557607165543023e-01  6.9088725275101170e-01  6.8815515401016658e-01  6.8773202729262917e-01  6.8976145114889098e-01  6.9471632423327112e-01  7.0252754049695432e-01  7.1268476209620146e-01  7.2632136651273738e-01  7.3844602294084327e-01  7.5241782031656357e-01  7.6599142399684583e-01  7.7855312413545918e-01  7.8783569766880401e-01  7.9737360435036853e-01  8.0042442830092930e-01  8.0718923063381320e-01  8.1210178167154423e-01  8.1654212532511816e-01  8.1984837837322633e-01  8.2197526162085510e-01  9.7808712204359893e-01  9.7567124222279045e-01  9.7279599448832077e-01  9.7290472875015888e-01  9.7299707764432353e-01  9.7544434753819242e-01  9.7495435559534926e-01  9.6902292832027648e-01  9.6234288535997115e-01  9.5132186428088972e-01  9.4303090545477075e-01  9.3408388139653642e-01  9.2445290384546386e-01  9.1685548034165809e-01  7.7839718619829812e-01  7.7144532998120896e-01  7.6347360702921352e-01  7.5450934814017079e-01  7.4458927032517708e-01  7.3381725759621264e-01  7.2237392765013331e-01  7.1052430926732091e-01  7.0082671302481769e-01  6.8847786770914388e-01  6.7685742539457083e-01  6.6711884670661215e-01  6.5625371267558619e-01  6.4666891446969521e-01  6.3867169838738957e-01  6.3309911539449848e-01  6.2910121078882508e-01  6.2789253966735736e-01  6.3592456620543536e-01  6.4390891617515622e-01  6.5560402483404856e-01  6.7039545247361754e-01  6.8555886348649631e-01  7.0366366790240864e-01  7.2251108516150975e-01  7.3784384749194909e-01  7.4926885127164622e-01  7.5639855195224093e-01  7.6700538777104821e-01  7.7152290153357950e-01  8.9691294252668208e-01  8.9904583454975273e-01  8.9617327477235043e-01  8.9586096190154618e-01  8.9508201735693727e-01  8.9402090436515047e-01  8.9267457544691298e-01  8.9060440372617822e-01  8.8751321959229967e-01  8.8315048937948237e-01  8.7725468222214753e-01  8.6983063070538325e-01  8.6069200615167540e-01  8.5038704602843429e-01  8.3841916589937038e-01  8.2540717339233904e-01  8.1100377738784302e-01  7.9578988216574253e-01  7.7973988541332662e-01  7.4255920904076722e-01  7.2711862397437366e-01  7.1093762394949056e-01  6.9481986295607623e-01  6.8149377849499160e-01  6.6990805809239606e-01  6.5906024455532242e-01  6.3418404910464798e-01  6.2701197569150724e-01  6.2421275220104733e-01  6.2533039527609535e-01  6.2951380525306666e-01  6.3573494190565072e-01  6.4935640227717095e-01  6.5500254363602639e-01  6.5962419780629100e-01  6.6300187528196297e-01  6.6621130207742052e-01  6.6845270280437552e-01  6.6881955801418658e-01  6.6884287621930505e-01  6.6897458567541623e-01  6.6268135156382146e-01  6.6016589732788400e-01  6.6033916046979335e-01  6.5997519144059125e-01  6.7192544700430434e-01  6.7283796146937580e-01  6.7414926529192254e-01  6.6591563646652774e-01  6.6921279304636594e-01  6.7233703225871000e-01  6.7502716542907581e-01  6.7708664794261886e-01  6.7834696669726435e-01  6.7865348429861494e-01  6.7787183831459441e-01  6.5983117581051587e-01  6.5547383129694003e-01  6.5063485874121496e-01  6.6440130801979513e-01  6.5989540375461486e-01  6.5676616691531176e-01  6.5589635262351309e-01  6.5756387018738693e-01  6.6229627651405243e-01  6.7024486850825060e-01  6.8075828308335884e-01  6.9367915194294449e-01  7.0622902219412054e-01  6.1866518207933840e-01  6.2618633573513427e-01  6.3070865555600575e-01  6.3225985202836454e-01  6.3131859613758856e-01  6.3201282385485646e-01  6.4247564685064262e-01  6.3816687224343582e-01  6.3345031117896899e-01  6.2659495671699739e-01  6.2083326218000878e-01  6.1424541096432472e-01  6.0666968893296569e-01  5.9803378306261823e-01  5.8759433113097326e-01  5.7697201855904923e-01  5.6540805428113883e-01  5.5284166560290238e-01  5.3138094466372754e-01  5.0523461285460636e-01  4.8835246715052227e-01  4.6521804606045974e-01  4.4498203033680450e-01  4.2887409976654556e-01  3.9121875394061861e-01  3.5430484762275061e-01  3.1935727161842525e-01  2.8322724993119563e-01  2.4946955400372584e-01  2.1742256820817024e-01  1.8322963537289089e-01  1.4802942149630841e-01  1.1150455497594230e-01  7.3250617142021482e-02  2.7230521814910015e-02  1.0966626395458801e-04  5.5954751326996169e-05  2.3533374434709160e-05  4.5784385266758513e-06  0.0000000000000000e+00  0.0000000000000000e+00  0.0000000000000000e+00  0.0000000000000000e+00  0.0000000000000000e+00  0.0000000000000000e+00  1.1567455509713329e-04  7.2349678242643222e-05  4.2119484439071053e-05  2.1705849417152982e-05  8.4935964359894219e-06  4.2576692697700031e-07  1.1790919506803102e-05  6.0089198455761553e-06  2.5830458432632985e-06  6.6319879966346137e-07  0.0000000000000000e+00  0.0000000000000000e+00  0.0000000000000000e+00  6.7782931178845297e-06  6.0273370090063542e-06  5.6480467616115388e-06  1.8481733396025859e-06  9.9227323978662918e-01  9.8489090938229817e-01  9.8435322798543901e-01  9.8352382307697606e-01  9.8241450215472714e-01  9.8105576132292827e-01  9.7948716165929062e-01  9.7775157454474670e-01  9.7531289720408443e-01  9.7292840417167170e-01  9.6461298493883985e-01  9.5640000199351738e-01  9.4838745414877013e-01  9.4318483515259632e-01  9.3606082182464367e-01  9.2992568532097020e-01  9.2507281167728106e-01  9.2546446547963057e-01  9.1064023813690487e-01  8.9704532105428103e-01  8.8448685477014777e-01  8.6987912441404081e-01  8.5837034817475866e-01  8.4715531620985807e-01  8.3605395589056086e-01  8.2498017111198108e-01  8.1397473368989204e-01  8.0551161675535354e-01  7.9485657888427341e-01  7.8708060204439112e-01  7.7621638257043735e-01  7.7166935266857783e-01  7.6639355001645293e-01  7.5880106775045453e-01  7.5246205554603474e-01  7.4718264891338415e-01  7.4360865721477643e-01  7.3966901107626526e-01  7.3727199848238223e-01  7.3679971516286413e-01  7.3763910288573598e-01  7.4305806123180285e-01  7.5149549095616375e-01  7.6566269414899912e-01  7.8020013995396542e-01  7.9586410713394751e-01  8.0894406142034203e-01  8.2258128477284875e-01  8.3262219793118342e-01  8.4178219466183068e-01  8.5047607625565214e-01  8.5597998861571789e-01  8.5982623119917345e-01  8.6408714183243718e-01  8.6784265028177454e-01  8.7050178100679931e-01  8.7145570597922339e-01  8.7239918508451897e-01  8.6634043430136631e-01  8.6633486253969005e-01  8.6595874971846298e-01  8.6543913165589981e-01  8.6410333755806912e-01  8.6217263509989761e-01  8.5959041037164940e-01  8.5634550259592201e-01  8.4804796454293419e-01  8.4321090667699261e-01  8.3774485330374937e-01  8.3761479202450984e-01  8.3073699603224860e-01  8.2282708587707543e-01  8.1373836765903251e-01  8.0344412800265286e-01  7.9201823716300568e-01  7.7962707905882200e-01  7.6653928115822123e-01  7.5313592065813317e-01  7.3990821522159334e-01  7.2946226758715682e-01  7.1883073831701505e-01  7.0980900375628986e-01  6.9917127304681659e-01  6.8882090847476707e-01  6.8181477823444903e-01  6.7738245092296356e-01  6.7616376132561873e-01  6.7484577118986433e-01  6.8914559651348228e-01  6.9845492419580268e-01  7.1421975508805824e-01  7.3379041102130704e-01  7.5522615605805232e-01  7.7889335294902906e-01  8.0189447387234136e-01  8.2059936819976464e-01  8.3967873475199206e-01  8.4655968445509489e-01  8.5678940495269540e-01  8.6087750323650603e-01  8.6376488951991948e-01  8.6620015247893400e-01  8.6875516695956756e-01  9.9126344426421409e-01  9.8875383091536595e-01  9.9036467374772941e-01  9.9196519380624026e-01  9.9264317123475432e-01  9.9192051346608368e-01  9.8920179956834586e-01  9.8422821235784952e-01  9.7673805672860214e-01  9.6645742409638202e-01  9.5449752984429159e-01  9.3988299973876122e-01  9.2356443934342658e-01  9.0491344797209139e-01  8.8499729883559086e-01  8.6372025955928733e-01  8.0493648128452144e-01  7.8540582574514617e-01  7.6435436266070689e-01  7.4303521640150649e-01  7.2438492202719051e-01  7.0890384396127670e-01  6.9444141144153593e-01  6.7306057949743081e-01  6.5585801387340514e-01  6.5386364607816871e-01  6.5694953402440270e-01  6.6358575220132554e-01  6.7216200908227608e-01  6.8069674140467928e-01  6.9638640509703653e-01  6.9999606726616603e-01  7.0108585007537316e-01  7.0167344991578962e-01  7.0110469619846860e-01  6.9766809185450529e-01  6.9398641322856103e-01  6.9065485075223010e-01  6.8666321802950359e-01  6.7670934271927630e-01  6.7254790987619639e-01  6.7195131480546322e-01  6.9652744395647259e-01  6.9760891458795182e-01  6.9902483075503763e-01  6.8562267602937366e-01  6.9346645999455458e-01  7.0145263979372907e-01  7.0906881998739757e-01  7.1594082556146055e-01  7.2174770384197617e-01  7.2618902862604151e-01  7.2899287898776555e-01  7.0491005621176994e-01  7.0187759386272419e-01  6.9794637169395013e-01  7.2246766010019892e-01  7.1890823619580690e-01  7.1667811801241565e-01  7.1661180873883012e-01  7.1947756611745428e-01  7.2599087851039057e-01  7.3650359829028844e-01  7.5072849038645240e-01  7.6705631961265919e-01  6.7598995924697958e-01  6.9508529503258076e-01  7.1120149939498056e-01  7.1951947748943312e-01  7.2387518500764614e-01  7.2786150002092309e-01  7.2645466914754298e-01  7.3882674319978325e-01  7.3461156458185739e-01  7.2985192414965361e-01  7.2101014532626106e-01  7.1518662640586217e-01  7.0854487620273299e-01  6.9973325497655836e-01  6.9112950688243824e-01  6.8151047644302309e-01  6.7120262919479146e-01  6.5982872463847764e-01  6.4761620969993017e-01  6.2609888711346895e-01  5.9284543000211154e-01  5.7646838814861723e-01  5.5083960975287427e-01  5.3033072900354927e-01  5.1035182416907166e-01  4.6918945490664155e-01  4.2238146895646800e-01  3.7494556921495648e-01  3.2779538812208148e-01  2.8500606785225474e-01  2.4496509915819151e-01  2.0071462318429076e-01  1.5859727860856909e-01  1.1320252473766211e-01  6.4946310036637159e-02  1.5656663753922835e-02  2.2725438620455231e-04  1.1417211896666829e-04  4.6045269906752666e-05  6.3795318232912417e-06  0.0000000000000000e+00  0.0000000000000000e+00  0.0000000000000000e+00  0.0000000000000000e+00  0.0000000000000000e+00  0.0000000000000000e+00  2.5217382145542247e-04  1.5726132954662543e-04  9.1069422626335707e-05  4.6448011268020716e-05  1.7669221609223190e-05  2.0678299592285874e-07  2.5265354064953567e-05  1.2856675762535482e-05  5.5764243653433235e-06  1.5531811391803806e-06  0.0000000000000000e+00  0.0000000000000000e+00  0.0000000000000000e+00  1.5069835084244288e-05  1.3353397223142770e-05  1.2407454154681550e-05  5.8994398658770339e-06  9.9031816471133549e-01  9.8146453116746202e-01  9.8082930152409831e-01  9.7978582261887859e-01  9.7837616193646992e-01  9.7611225117418721e-01  9.6828136563815059e-01  9.5817355980198149e-01  9.5164688462190050e-01  9.3659599981200381e-01  9.1253613940688305e-01  8.8938155105411021e-01  8.6795875738913342e-01  8.4837339507442389e-01  8.3185434865225383e-01  8.1628434571639408e-01  8.0185745597199942e-01  7.9059935477815058e-01  7.8127511429425256e-01  7.7357374409729718e-01  8.0914791965301469e-01  8.0248147650132207e-01  7.9577986021153746e-01  7.8861724616189455e-01  7.7784790350651822e-01  7.7298802600368643e-01  7.6265904532880113e-01  7.5179251867962005e-01  7.4087582392557494e-01  7.3053001572273513e-01  7.2068757347752943e-01  7.1884012221542493e-01  7.0939940622272812e-01  7.0271299178123481e-01  7.0007788788123593e-01  6.9549216591092999e-01  6.8998310853717604e-01  6.8306823019527652e-01  6.7628860047604311e-01  6.6830602684667595e-01  6.6349339069465518e-01  6.6193431827309601e-01  6.6423647735513003e-01  6.7324282826073212e-01  6.8340446562029344e-01  6.9329552126713279e-01  7.0464062612366085e-01  7.1403953197576231e-01  7.2113969442143555e-01  7.2449977542253530e-01  7.2702173224013500e-01  7.3108878028030588e-01  7.3456179658214482e-01  7.3765150892952058e-01  7.4027542070972974e-01  7.4232076477488018e-01  7.4382275356463745e-01  7.3516592224694566e-01  7.3588879159621212e-01  7.3663772997764454e-01  7.3630792521553101e-01  7.3459089942225841e-01  7.3496029721210920e-01  7.3512233798581905e-01  7.3497575850234043e-01  7.3445466802877324e-01  7.3351388147743768e-01  7.3210211801709046e-01  7.2647651650374157e-01  7.2341738450745208e-01  7.2697955194107289e-01  7.2221627183780834e-01  7.1805604487331742e-01  7.1074960273146670e-01  7.0221623776757114e-01  6.9259748402190313e-01  6.8215463717160896e-01  6.7127835658828949e-01  6.6333857422798426e-01  6.5240578649643310e-01  6.4274093066163829e-01  6.3353877152252158e-01  6.2898608493136909e-01  6.2140193063856575e-01  6.1628592935276272e-01  6.1234594965259637e-01  6.1052937421634346e-01  6.0755504397514981e-01  6.2137141237032056e-01  6.3130619969197121e-01  6.4606323956878886e-01  6.6287010825579906e-01  6.8440719460055843e-01  7.0790296637094596e-01  7.3146758985308047e-01  7.4536916490326977e-01  7.6744545102091455e-01  7.6829375155601742e-01  7.6810078221621636e-01  7.6659464536519883e-01  7.7033229673401704e-01  7.6956015351474172e-01  7.6810685889017816e-01  7.6946669551698643e-01  7.7166051806027891e-01  7.7473630401135352e-01  7.7847954444450596e-01  7.7920948223989694e-01  7.8146408424909442e-01  7.8218164685416125e-01  7.8118258654289974e-01  7.7815573247611880e-01  7.7330713187276823e-01  7.6622155856045271e-01  7.5734210894377363e-01  7.4689648889482396e-01  7.3401008203888252e-01  7.1977846111803911e-01  6.6703983313097936e-01  6.5245627329550204e-01  6.3852540007731551e-01  6.2181466772523464e-01  6.0378544197965911e-01  5.8492430254380445e-01  5.6886122360645708e-01  5.5642832347162274e-01  5.8282032194882682e-01  5.6632140694643340e-01  5.6349455111157287e-01  5.5320607560386659e-01  5.5612656844525143e-01  5.6036667641749538e-01  5.6472301355612409e-01  5.6741687339088553e-01  5.7764935937508199e-01  5.7739451499780770e-01  5.7282873690770675e-01  5.6987140833532957e-01  5.6544587365169841e-01  5.6310384623470844e-01  5.5821231913708147e-01  5.5142120898251745e-01  5.4637422407339320e-01  5.4345422558161494e-01  5.4296584114740798e-01  5.6989127203722978e-01  5.7236380139982646e-01  5.7229078717370585e-01  5.5645893258172829e-01  5.6477245329320591e-01  5.7354789339812773e-01  5.8219659016458702e-01  5.9039382132404650e-01  5.9783522279839807e-01  6.0419046294771439e-01  5.9089435990981987e-01  5.9129203532686014e-01  5.9087640106811801e-01  5.8930860609087787e-01  5.8725759451993498e-01  6.1083267048246670e-01  6.1061202395796921e-01  6.1229268919616198e-01  6.1664072648099499e-01  6.2464612069667302e-01  6.3557056796909905e-01  6.4986428863304457e-01  5.7774447277846774e-01  5.9259692551106347e-01  6.1248883176570790e-01  6.2416102526084716e-01  6.3165630936125228e-01  6.4288192471818473e-01  6.5935692948643798e-01  6.5858654382736048e-01  6.5630151807554749e-01  6.5205201647622302e-01  6.4880153364870041e-01  6.4097827857389156e-01  6.3739910998378246e-01  6.3346081956760258e-01  6.2905914935386709e-01  6.2419430851249091e-01  6.1897191532110452e-01  6.1386829671213605e-01  6.0844959380580155e-01  6.0319468917559715e-01  5.7320676534026016e-01  5.6753681916555121e-01  5.6058625944240337e-01  5.5091442894594023e-01  5.3334767637504421e-01  5.1795536972754008e-01  5.0001405958293021e-01  4.6152590147597872e-01  4.1853209986455542e-01  3.7245031448157145e-01  3.2958600736608601e-01  2.8581189527742007e-01  2.4678222144809056e-01  2.0411012438249279e-01  1.5936281366250837e-01  1.1188776574616162e-01  6.1577837927663706e-02  5.4165139018593766e-03  7.5857950043646213e-05  1.5272210650495953e-05  0.0000000000000000e+00  0.0000000000000000e+00  0.0000000000000000e+00  0.0000000000000000e+00  0.0000000000000000e+00  0.0000000000000000e+00  4.1167469387734648e-04  2.6214302012322226e-04  1.5651310493952817e-04  8.4236273460969863e-05  3.6791275464571550e-05  7.3665914538359463e-06  0.0000000000000000e+00  2.1991935396948903e-05  1.0240075645402621e-05  3.8022305816025348e-06  5.8937245701622932e-07  0.0000000000000000e+00  9.3101819732159258e-07  6.1088537783218853e-07  1.8835957059137018e-05  1.6846901646529944e-05  1.5732760930011852e-05  7.3228853091285226e-06  7.4116128357342492e-01  8.6783430909987003e-01  8.6152455070308764e-01  8.4801791368234791e-01  8.3138917408116986e-01  8.0688617595909085e-01  7.8107471539519158e-01  7.5419786930954935e-01  7.2753403664022753e-01  7.0095128071288881e-01  6.7661088111847079e-01  6.5482108047173571e-01  6.3581798605591289e-01  6.2820203924003115e-01  6.1638143384466615e-01  6.0543668220356983e-01  6.0083185204947986e-01  5.9965550590024452e-01  6.0137547338544728e-01  6.0528278685033121e-01  6.0907144655203704e-01  6.1308875413859232e-01  6.1681192029420295e-01  6.1961104897672170e-01  6.2103299744069729e-01  6.2084659632588313e-01  6.1908948212112325e-01  6.1609341576614651e-01  6.1017843433718888e-01  6.0898980940927205e-01  6.0572603100146394e-01  6.0396493394535467e-01  6.0602530438515945e-01  6.0841241139646773e-01  6.0825100715824565e-01  6.2004840132982053e-01  6.1272101435409909e-01  6.0184976324865358e-01  5.9017186830818447e-01  5.7343557963001623e-01  5.5816935230584142e-01  5.4575128994127453e-01  5.3941782076658074e-01  5.4104565043711716e-01  5.4397668735710669e-01  5.5066688225935922e-01  5.5757052752516267e-01  5.5987039773183478e-01  5.5963162751610018e-01  5.5496126253371258e-01  5.5268363957343414e-01  5.5067606929999735e-01  5.4707084731530731e-01  5.4571571007525643e-01  5.4474008712337607e-01  5.4404161583665689e-01  5.4365848731192568e-01  5.3455547500169487e-01  5.3517855224849398e-01  5.3649915669711368e-01  5.3862045763520028e-01  5.4149752940257356e-01  5.4496010866299649e-01  5.4880622655838862e-01  5.5199730590205565e-01  5.5444051341130718e-01  5.5541724068557796e-01  5.5791549803844587e-01  5.6005579986609533e-01  5.6162802268366840e-01  5.6838822601960937e-01  5.6792524391981969e-01  5.6634034650818521e-01  5.6352693111378793e-01  5.5947550892194786e-01  5.5429390721551819e-01  5.4822493830057739e-01  5.4302419782758349e-01  5.3873294529565319e-01  5.3206017928931981e-01  5.2663905744366080e-01  5.2194244077893348e-01  5.2202691022312309e-01  5.2127937263414714e-01  5.1788258981868784e-01  5.1562956965892104e-01  5.1456426817690459e-01  5.0997934746456697e-01  5.2403008742592949e-01  5.3364326940558293e-01  5.4863846886971446e-01  5.5115759915474027e-01  5.7665485781513393e-01  5.9803310837348234e-01  6.1643961789582180e-01  6.3512653546033215e-01  6.5546093406941219e-01  6.4904923476055920e-01  6.4045606600214522e-01  6.4347032775610946e-01  6.3481160251035595e-01  6.2801768238584343e-01  6.2336962933226681e-01  6.2092048202899830e-01  6.1992678160608150e-01  6.1787418846389830e-01  6.1929871197401720e-01  6.2026695516675789e-01  6.2155932722614371e-01  6.2207404596595794e-01  6.2149802767496698e-01  6.1949368015523854e-01  6.1652361554263890e-01  6.1350778943654949e-01  6.0867001325983427e-01  6.0273329016293653e-01  5.9439758714934776e-01  5.8497107214293342e-01  5.4162332664507407e-01  5.3399082702984624e-01  5.2358132017833836e-01  5.1097336980821173e-01  4.9539840929822798e-01  4.7878198679921402e-01  4.6108194078119913e-01  4.4634811452401474e-01  4.3946513128040998e-01  4.3701542760609069e-01  4.3864372572805543e-01  4.2719871697341266e-01  4.2743979074418847e-01  4.1375821493757398e-01  4.1337163752763834e-01  4.1236030389468620e-01  4.1137474666886426e-01  4.0685800193043337e-01  4.0319268966583799e-0