<?xml version="1.0"?>
<VTKFile type="UnstructuredGrid"  version="0.1"  >
<UnstructuredGrid>
<Piece  NumberOfPoints="7161" NumberOfCells="13800">
<Points>
<DataArray  type="Float64"  NumberOfComponents="3"  format="ascii">0 0 0  0.01652173913043478 0 0  0.03304347826086956 0 0  0.04956521739130434 0 0  0.06608695652173913 0 0  0.08260869565217391 0 0  0.09913043478260869 0 0  0.1156521739130435 0 0  0.1321739130434783 0 0  0.148695652173913 0 0  0.1652173913043478 0 0  0.1817391304347826 0 0  0.1982608695652174 0 0  0.2147826086956522 0 0  0.2313043478260869 0 0  0.2478260869565218 0 0  0.2643478260869565 0 0  0.2808695652173913 0 0  0.2973913043478261 0 0  0.3139130434782609 0 0  0.3304347826086956 0 0  0.3469565217391304 0 0  0.3634782608695652 0 0  0.3799999999999999 0 0  0.3965217391304348 0 0  0.4130434782608696 0 0  0.4295652173913043 0 0  0.4460869565217391 0 0  0.4626086956521739 0 0  0.4791304347826086 0 0  0.4956521739130435 0 0  0.5121739130434783 0 0  0.528695652173913 0 0  0.5452173913043478 0 0  0.5617391304347825 0 0  0.5782608695652174 0 0  0.5947826086956521 0 0  0.6113043478260869 0 0  0.6278260869565218 0 0  0.6443478260869565 0 0  0.6608695652173913 0 0  0.677391304347826 0 0  0.6939130434782609 0 0  0.7104347826086956 0 0  0.7269565217391304 0 0  0.7434782608695653 0 0  0.7599999999999999 0 0  0.7765217391304348 0 0  0.7930434782608695 0 0  0.8095652173913043 0 0  0.8260869565217391 0 0  0.8426086956521739 0 0  0.8591304347826086 0 0  0.8756521739130434 0 0  0.8921739130434783 0 0  0.908695652173913 0 0  0.9252173913043478 0 0  0.9417391304347826 0 0  0.9582608695652173 0 0  0.9747826086956521 0 0  0.991304347826087 0 0  1.007826086956522 0 0  1.024347826086957 0 0  1.040869565217391 0 0  1.057391304347826 0 0  1.073913043478261 0 0  1.090434782608696 0 0  1.10695652173913 0 0  1.123478260869565 0 0  1.14 0 0  1.156521739130435 0 0  1.17304347826087 0 0  1.189565217391304 0 0  1.206086956521739 0 0  1.222608695652174 0 0  1.239130434782609 0 0  1.255652173913044 0 0  1.272173913043478 0 0  1.288695652173913 0 0  1.305217391304348 0 0  1.321739130434783 0 0  1.338260869565217 0 0  1.354782608695652 0 0  1.371304347826087 0 0  1.387826086956522 0 0  1.404347826086957 0 0  1.420869565217391 0 0  1.437391304347826 0 0  1.453913043478261 0 0  1.470434782608696 0 0  1.486956521739131 0 0  1.503478260869565 0 0  1.52 0 0  1.536521739130435 0 0  1.55304347826087 0 0  1.569565217391304 0 0  1.586086956521739 0 0  1.602608695652174 0 0  1.619130434782609 0 0  1.635652173913043 0 0  1.652173913043478 0 0  1.668695652173913 0 0  1.685217391304348 0 0  1.701739130434782 0 0  1.718260869565217 0 0  1.734782608695652 0 0  1.751304347826087 0 0  1.767826086956522 0 0  1.784347826086957 0 0  1.800869565217391 0 0  1.817391304347826 0 0  1.833913043478261 0 0  1.850434782608696 0 0  1.86695652173913 0 0  1.883478260869565 0 0  1.9 0 0  1.916521739130435 0 0  1.933043478260869 0 0  1.949565217391304 0 0  1.966086956521739 0 0  1.982608695652174 0 0  1.999130434782608 0 0  2.015652173913043 0 0  2.032173913043478 0 0  2.048695652173913 0 0  2.065217391304348 0 0  2.081739130434782 0 0  2.098260869565217 0 0  2.114782608695652 0 0  2.131304347826087 0 0  2.147826086956522 0 0  2.164347826086956 0 0  2.180869565217391 0 0  2.197391304347826 0 0  2.213913043478261 0 0  2.230434782608695 0 0  2.24695652173913 0 0  2.263478260869565 0 0  2.28 0 0  2.296521739130434 0 0  2.31304347826087 0 0  2.329565217391304 0 0  2.346086956521739 0 0  2.362608695652174 0 0  2.379130434782609 0 0  2.395652173913044 0 0  2.412173913043478 0 0  2.428695652173913 0 0  2.445217391304348 0 0  2.461739130434782 0 0  2.478260869565217 0 0  2.494782608695652 0 0  2.511304347826087 0 0  2.527826086956522 0 0  2.544347826086956 0 0  2.560869565217391 0 0  2.577391304347826 0 0  2.593913043478261 0 0  2.610434782608696 0 0  2.62695652173913 0 0  2.643478260869565 0 0  2.66 0 0  2.676521739130435 0 0  2.693043478260869 0 0  2.709565217391304 0 0  2.726086956521739 0 0  2.742608695652174 0 0  2.759130434782609 0 0  2.775652173913044 0 0  2.792173913043478 0 0  2.808695652173913 0 0  2.825217391304347 0 0  2.841739130434783 0 0  2.858260869565217 0 0  2.874782608695652 0 0  2.891304347826087 0 0  2.907826086956522 0 0  2.924347826086957 0 0  2.940869565217391 0 0  2.957391304347826 0 0  2.973913043478261 0 0  2.990434782608696 0 0  3.006956521739131 0 0  3.023478260869565 0 0  3.04 0 0  3.056521739130435 0 0  3.073043478260869 0 0  3.089565217391304 0 0  3.106086956521739 0 0  3.122608695652174 0 0  3.139130434782609 0 0  3.155652173913043 0 0  3.172173913043478 0 0  3.188695652173913 0 0  3.205217391304347 0 0  3.221739130434782 0 0  3.238260869565217 0 0  3.254782608695652 0 0  3.271304347826087 0 0  3.287826086956521 0 0  3.304347826086957 0 0  3.320869565217391 0 0  3.337391304347826 0 0  3.353913043478261 0 0  3.370434782608696 0 0  3.386956521739131 0 0  3.403478260869565 0 0  3.419999999999999 0 0  3.436521739130435 0 0  3.453043478260869 0 0  3.469565217391304 0 0  3.486086956521739 0 0  3.502608695652174 0 0  3.519130434782609 0 0  3.535652173913043 0 0  3.552173913043478 0 0  3.568695652173913 0 0  3.585217391304347 0 0  3.601739130434782 0 0  3.618260869565217 0 0  3.634782608695652 0 0  3.651304347826087 0 0  3.667826086956521 0 0  3.684347826086956 0 0  3.700869565217391 0 0  3.717391304347826 0 0  3.733913043478261 0 0  3.750434782608695 0 0  3.766956521739131 0 0  3.783478260869565 0 0  3.8 0 0  0 0.01666666666666667 0  0.01652173913043478 0.01666666666666667 0  0.03304347826086956 0.01666666666666667 0  0.04956521739130434 0.01666666666666667 0  0.06608695652173913 0.01666666666666667 0  0.08260869565217391 0.01666666666666667 0  0.09913043478260869 0.01666666666666667 0  0.1156521739130435 0.01666666666666667 0  0.1321739130434783 0.01666666666666667 0  0.148695652173913 0.01666666666666667 0  0.1652173913043478 0.01666666666666667 0  0.1817391304347826 0.01666666666666667 0  0.1982608695652174 0.01666666666666667 0  0.2147826086956522 0.01666666666666667 0  0.2313043478260869 0.01666666666666667 0  0.2478260869565218 0.01666666666666667 0  0.2643478260869565 0.01666666666666667 0  0.2808695652173913 0.01666666666666667 0  0.2973913043478261 0.01666666666666667 0  0.3139130434782609 0.01666666666666667 0  0.3304347826086956 0.01666666666666667 0  0.3469565217391304 0.01666666666666667 0  0.3634782608695652 0.01666666666666667 0  0.3799999999999999 0.01666666666666667 0  0.3965217391304348 0.01666666666666667 0  0.4130434782608696 0.01666666666666667 0  0.4295652173913043 0.01666666666666667 0  0.4460869565217391 0.01666666666666667 0  0.4626086956521739 0.01666666666666667 0  0.4791304347826086 0.01666666666666667 0  0.4956521739130435 0.01666666666666667 0  0.5121739130434783 0.01666666666666667 0  0.528695652173913 0.01666666666666667 0  0.5452173913043478 0.01666666666666667 0  0.5617391304347825 0.01666666666666667 0  0.5782608695652174 0.01666666666666667 0  0.5947826086956521 0.01666666666666667 0  0.6113043478260869 0.01666666666666667 0  0.6278260869565218 0.01666666666666667 0  0.6443478260869565 0.01666666666666667 0  0.6608695652173913 0.01666666666666667 0  0.677391304347826 0.01666666666666667 0  0.6939130434782609 0.01666666666666667 0  0.7104347826086956 0.01666666666666667 0  0.7269565217391304 0.01666666666666667 0  0.7434782608695653 0.01666666666666667 0  0.7599999999999999 0.01666666666666667 0  0.7765217391304348 0.01666666666666667 0  0.7930434782608695 0.01666666666666667 0  0.8095652173913043 0.01666666666666667 0  0.8260869565217391 0.01666666666666667 0  0.8426086956521739 0.01666666666666667 0  0.8591304347826086 0.01666666666666667 0  0.8756521739130434 0.01666666666666667 0  0.8921739130434783 0.01666666666666667 0  0.908695652173913 0.01666666666666667 0  0.9252173913043478 0.01666666666666667 0  0.9417391304347826 0.01666666666666667 0  0.9582608695652173 0.01666666666666667 0  0.9747826086956521 0.01666666666666667 0  0.991304347826087 0.01666666666666667 0  1.007826086956522 0.01666666666666667 0  1.024347826086957 0.01666666666666667 0  1.040869565217391 0.01666666666666667 0  1.057391304347826 0.01666666666666667 0  1.073913043478261 0.01666666666666667 0  1.090434782608696 0.01666666666666667 0  1.10695652173913 0.01666666666666667 0  1.123478260869565 0.01666666666666667 0  1.14 0.01666666666666667 0  1.156521739130435 0.01666666666666667 0  1.17304347826087 0.01666666666666667 0  1.189565217391304 0.01666666666666667 0  1.206086956521739 0.01666666666666667 0  1.222608695652174 0.01666666666666667 0  1.239130434782609 0.01666666666666667 0  1.255652173913044 0.01666666666666667 0  1.272173913043478 0.01666666666666667 0  1.288695652173913 0.01666666666666667 0  1.305217391304348 0.01666666666666667 0  1.321739130434783 0.01666666666666667 0  1.338260869565217 0.01666666666666667 0  1.354782608695652 0.01666666666666667 0  1.371304347826087 0.01666666666666667 0  1.387826086956522 0.01666666666666667 0  1.404347826086957 0.01666666666666667 0  1.420869565217391 0.01666666666666667 0  1.437391304347826 0.01666666666666667 0  1.453913043478261 0.01666666666666667 0  1.470434782608696 0.01666666666666667 0  1.486956521739131 0.01666666666666667 0  1.503478260869565 0.01666666666666667 0  1.52 0.01666666666666667 0  1.536521739130435 0.01666666666666667 0  1.55304347826087 0.01666666666666667 0  1.569565217391304 0.01666666666666667 0  1.586086956521739 0.01666666666666667 0  1.602608695652174 0.01666666666666667 0  1.619130434782609 0.01666666666666667 0  1.635652173913043 0.01666666666666667 0  1.652173913043478 0.01666666666666667 0  1.668695652173913 0.01666666666666667 0  1.685217391304348 0.01666666666666667 0  1.701739130434782 0.01666666666666667 0  1.718260869565217 0.01666666666666667 0  1.734782608695652 0.01666666666666667 0  1.751304347826087 0.01666666666666667 0  1.767826086956522 0.01666666666666667 0  1.784347826086957 0.01666666666666667 0  1.800869565217391 0.0166666666666666
[...]
<PointData  Scalars="rho"> 
<DataArray  type="Float64"  Name="rho"  format="ascii">3.2348887960011835e-01  3.3789207905737584e-01  3.3744761329197698e-01  3.3691324145777479e-01  3.3635405501434101e-01  3.3580490368497518e-01  3.3527751686178758e-01  3.3477102588275881e-01  3.3427909178608506e-01  3.3379394456148831e-01  3.3330839231796594e-01  3.3281663351486951e-01  3.3231443818102058e-01  3.3179901101948411e-01  3.3126874971687781e-01  3.3072296646477667e-01  3.3016164500278744e-01  3.2958522662228862e-01  3.2899444964710733e-01  3.2839022159097170e-01  3.2777353528353204e-01  3.2714540135108600e-01  3.2650681596579328e-01  3.2585873349138239e-01  3.2520206300908100e-01  3.2453766261790590e-01  3.2386634909806872e-01  3.2318890255287847e-01  3.2250608248590301e-01  3.2181863317833048e-01  3.2112730009801954e-01  3.2043283495993991e-01  3.1973600841773286e-01  3.1903761054791885e-01  3.1833845821591145e-01  3.1763939039813888e-01  3.1694127155067664e-01  3.1624498053295180e-01  3.1555140892467504e-01  3.1486144777325376e-01  3.1417598191428087e-01  3.1349587354849423e-01  3.1282195490918541e-01  3.1215501119255873e-01  3.1149577444207910e-01  3.1084490631879075e-01  3.1020299296508019e-01  3.0957053176636651e-01  3.0894792827598916e-01  3.0833548538494354e-01  3.0773340365626645e-01  3.0714177430998918e-01  3.0656058453942830e-01  3.0598971360667288e-01  3.0542894177463675e-01  3.0487795231952197e-01  3.0433634387712288e-01  3.0380363547133332e-01  3.0327928207285776e-01  3.0276268234751086e-01  3.0225319704138431e-01  3.0175015679317335e-01  3.0125288012361556e-01  3.0076068220046176e-01  3.0027289066981189e-01  2.9978885151018086e-01  2.9930794202527133e-01  2.9882957358967827e-01  2.9835320220880895e-01  2.9787832673624642e-01  2.9740449581246214e-01  2.9693130465087675e-01  2.9645839887791436e-01  2.9598546831162231e-01  2.9551224908482004e-01  2.9503851639413275e-01  2.9456408667332556e-01  2.9408880764514511e-01  2.9361256063908636e-01  2.9313525169903160e-01  2.9265681374647451e-01  2.9217719822025023e-01  2.9169637619332561e-01  2.9121433210244763e-01  2.9073106517596270e-01  2.9024658288695010e-01  2.8976090307317598e-01  2.8927404815312030e-01  2.8878604835050525e-01  2.8829693570698489e-01  2.8780674714018600e-01  2.8731552028049850e-01  2.8682329640082260e-01  2.8633011595438679e-01  2.8583602179218143e-01  2.8534105504367241e-01  2.8484525922119286e-01  2.8434867555061405e-01  2.8385134672449014e-01  2.8335331366002642e-01  2.8285461891677327e-01  2.8235530301651152e-01  2.8185540785881735e-01  2.8135497324244513e-01  2.8085404095743544e-01  2.8035265063944848e-01  2.7985084346028916e-01  2.7934865921230717e-01  2.7884613960902999e-01  2.7834332491963604e-01  2.7784025718696886e-01  2.7733697702868199e-01  2.7683352742754036e-01  2.7632994991693166e-01  2.7582628796980235e-01  2.7532258428470430e-01  2.7481888381567249e-01  2.7431523065675001e-01  2.7381167096493902e-01  2.7330825002302261e-01  2.7280501565047344e-01  2.7230201475001026e-01  2.7179929633740285e-01  2.7129690904833509e-01  2.7079490384800320e-01  2.7029333120206189e-01  2.6979224368175125e-01  2.6929169338787956e-01  2.6879173498172809e-01  2.6829242241257212e-01  2.6779381186122814e-01  2.6729595906930670e-01  2.6679892224503721e-01  2.6630275912146140e-01  2.6580752950938630e-01  2.6531329296470896e-01  2.6482011125068133e-01  2.6432804602062487e-01  2.6383716084537162e-01  2.6334751921742328e-01  2.6285918680750581e-01  2.6237222899254259e-01  2.6188671305990641e-01  2.6140270630239382e-01  2.6092027803856011e-01  2.6043949759172130e-01  2.5996043607560665e-01  2.5948316458409143e-01  2.5900775619186134e-01  2.5853428385587174e-01  2.5806282224987015e-01  2.5759344613519713e-01  2.5712623205947011e-01  2.5666125660138939e-01  2.5619859788594523e-01  2.5573833405399898e-01  2.5528054487606933e-01  2.5482531006075287e-01  2.5437271068969969e-01  2.5392282785265624e-01  2.5347574399297007e-01  2.5303154145798512e-01  2.5259030364699325e-01  2.5215211378295049e-01  2.5171705605748373e-01  2.5128521432404283e-01  2.5085667307699566e-01  2.5043151629101063e-01  2.5000982837508229e-01  2.4959169297805733e-01  2.4917719368615165e-01  2.4876641304145281e-01  2.4835943314186298e-01  2.4795633466492070e-01  2.4755719732740766e-01  2.4716209884234072e-01  2.4677111543978475e-01  2.4638432082282100e-01  2.4600178652721486e-01  2.4562358105015827e-01  2.4524977002441886e-01  2.4488041564187712e-01  2.4451557666400575e-01  2.4415530787522519e-01  2.4379966015259269e-01  2.4344868012191201e-01  2.4310241044427019e-01  2.4276088947879454e-01  2.4242415187670216e-01  2.4209222878618947e-01  2.4176514850028191e-01  2.4144293730793226e-01  2.4112562031105553e-01  2.4081322295248372e-01  2.4050577247241367e-01  2.4020329965430656e-01  2.3990584102269946e-01  2.3961344127453019e-01  2.3932615572974955e-01  2.3904405340344012e-01  2.3876721929547451e-01  2.3849575772509848e-01  2.3822979446358464e-01  2.3796947901557408e-01  2.3771498602554106e-01  2.3746651636403396e-01  2.3722429653986463e-01  2.3698857783490626e-01  2.3675963270824599e-01  2.3653775143628009e-01  2.3632323570685881e-01  2.3611639184285466e-01  2.3591752223290946e-01  2.3572691702279142e-01  2.3554484476672891e-01  2.3537154530164145e-01  2.3520722278067285e-01  2.3505204414102493e-01  2.3490614028782014e-01  2.3476961478964156e-01  2.3464255925662744e-01  2.3452507885208640e-01  2.3441732618769620e-01  2.3431954666973373e-01  2.3423213018687053e-01  2.3415566922258052e-01  2.3409101079638428e-01  2.3403928911612557e-01  2.3400190868309384e-01  2.3398043790697101e-01  2.4417269861299215e-01  3.3691702835827614e-01  3.6071079498170822e-01  3.6036442682843989e-01  3.5989044199658277e-01  3.5936366367210598e-01  3.5882859853084903e-01  3.5830378477166142e-01  3.5779277968563128e-01  3.5729196042037237e-01  3.5679513854078360e-01  3.5629597612340530e-01  3.5578908580634355e-01  3.5527038684792661e-01  3.5473709503091261e-01  3.5418753704867911e-01  3.5362092630183589e-01  3.5303713198108605e-01  3.5243648784630927e-01  3.5181962820070417e-01  3.5118737128889327e-01  3.5054062589864110e-01  3.4988033461392054e-01  3.4920742765843044e-01  3.4852280596694568e-01  3.4782732601422883e-01  3.4712180338744791e-01  3.4640701239501465e-01  3.4568370019415168e-01  3.4495259343040602e-01  3.4421441525626684e-01  3.4346989147300716e-01  3.4271976682186006e-01  3.4196480969836762e-01  3.4120582334647492e-01  3.4044364455536552e-01  3.3967915015972083e-01  3.3891325059584071e-01  3.3814689075482773e-01  3.3738103702502070e-01  3.3661667374212068e-01  3.3585478772154975e-01  3.3509636019817213e-01  3.3434234788382483e-01  3.3359367436278481e-01  3.3285121113261906e-01  3.3211576923093461e-01  3.3138808035168626e-01  3.3066879062299720e-01  3.2995844588797801e-01  3.2925748740812122e-01  3.2856623967674592e-01  3.2788491105713435e-01  3.2721358651613863e-01  3.2655223282673385e-01  3.2590069516979503e-01  3.2525870760058789e-01  3.2462589619109244e-01  3.2400179304247823e-01  3.2338584263352299e-01  3.2277742035728202e-01  3.2217584219330953e-01  3.2158038493962704e-01  3.2099029570126436e-01  3.2040481211848043e-01  3.1982317215850248e-01  3.1924463103986006e-01  3.1866846709237168e-01  3.1809399609474248e-01  3.1752057383929538e-01  3.1694760649187559e-01  3.1637454819552735e-01  3.1580090831325397e-01  3.1522624728933385e-01  3.1465018014137169e-01  3.1407236899720897e-01  3.1349252585848419e-01  3.1291040419136856e-01  3.1232580086185890e-01  3.1173854520563249e-01  3.1114850190946830e-01  3.1055556172989263e-01  3.0995964325246106e-01  3.0936068375248099e-01  3.0875864112964124e-01  3.0815348691363625e-01  3.0754520792617157e-01  3.0693379883438526e-01  3.0631926527171821e-01  3.0570161759080916e-01  3.0508087417716834e-01  3.0445705489088437e-01  3.0383018499242359e-01  3.0320029039717356e-01  3.0256740096172918e-01  3.0193154513935450e-01  3.0129275432924085e-01  3.0065105826886923e-01  3.0000648939352642e-01  2.9935907754236851e-01  2.9870885466497665e-01  2.9805585100998044e-01  2.9740009896143438e-01  2.9674162843956098e-01  2.9608047151077715e-01  2.9541665835706032e-01  2.9475022172988757e-01  2.9408119211691264e-01  2.9340960244373554e-01  2.9273548454978970e-01  2.9205887297757627e-01  2.9137980065029778e-01  2.9069830330926216e-01  2.9001441571761766e-01  2.8932817590130050e-01  2.8863962057850767e-01  2.8794878960565934e-01  2.8725572262121457e-01  2.8656046262465507e-01  2.8586305188301225e-01  2.8516353607617079e-01  2.8446196073857738e-01  2.8375837520195885e-01  2.8305282832820677e-01  2.8234537261686110e-01  2.8163606102934946e-01  2.8092495030978010e-01  2.8021209721967749e-01  2.7949756235920226e-01  2.7878140686179353e-01  2.7806369610952020e-01  2.7734449542453976e-01  2.7662387429339669e-01  2.7590190294010725e-01  2.7517865592745056e-01  2.7445420827015732e-01  2.7372863908821821e-01  2.7300202871413831e-01  2.7227446177229531e-01  2.7154602392223715e-01  2.7081680504760475e-01  2.7008689650136569e-01  2.6935639407763795e-01  2.6862539472489955e-01  2.6789399978701817e-01  2.6716231247549949e-01  2.6643044055100773e-01  2.6569849338967816e-01  2.6496658484998831e-01  2.6423483080557786e-01  2.6350335182865942e-01  2.6277227027662969e-01  2.6204171312608487e-01  2.6131180970808904e-01  2.6058269405672102e-01  2.5985450231313784e-01  2.5912737520459006e-01  2.5840145589702457e-01  2.5767689225506735e-01  2.5695383435744418e-01  2.5623243682235797e-01  2.5551285682022618e-01  2.5479525599880393e-01  2.5407979824871929e-01  2.5336665162447447e-01  2.5265598652810894e-01  2.5194797737637775e-01  2.5124280050142406e-01  2.5054063581449953e-01  2.4984166502684640e-01  2.4914607299590510e-01  2.4845404575034843e-01  2.4776577166361768e-01  2.4708143985596517e-01  2.4640124109779588e-01  2.4572536596972730e-01  2.4505400569278468e-01  2.4438735032109937e-01  2.4372558947244644e-01  2.4306891045035836e-01  2.4241749878605584e-01  2.4177153664253911e-01  2.4113120312655636e-01  2.4049667297893595e-01  2.3986811659314991e-01  2.3924569885048544e-01  2.3862957942956234e-01  2.3801991192356250e-01  2.3741684443051725e-01  2.3682051903054863e-01  2.3623107290042381e-01  2.3564863872192771e-01  2.3507334600271992e-01  2.3450532258904078e-01  2.3394469675072899e-01  2.3339159986819355e-01  2.3284616958855500e-01  2.3230855326763913e-01  2.3177891238551726e-01  2.3125742722849035e-01  2.3074430158912054e-01  2.3023976825160572e-01  2.2974409363153703e-01  2.2925758318249240e-01  2.2878058506351764e-01  2.2831349340125567e-01  2.2785674990479449e-01  2.2741084427962974e-01  2.2697631122914280e-01  2.2655372636945165e-01  2.2614369776925108e-01  2.2574685669293423e-01  2.2536384365919307e-01  2.2499529371618346e-01  2.2464181948340162e-01  2.2430399532864814e-01  2.2398234090341410e-01  2.2367731006049357e-01  2.2338928290482998e-01  2.2311856844940850e-01  2.2286541478567068e-01  2.2263003402001652e-01  2.2241264032726510e-01  2.2221350571405485e-01  2.2203302899449098e-01  2.2187182077678921e-01  2.2173079285092523e-01  2.2161124414452538e-01  2.2151491067510146e-01  2.2144392988115838e-01  2.2140059600840939e-01  2.3397728359448566e-01  3.3419108889743770e-01  3.5824833723766636e-01  3.5804967378504987e-01  3.5771720415758251e-01  3.5730462068370833e-01  3.5685278032231016e-01  3.5638418076309336e-01  3.5590825768102879e-01  3.5542700628321661e-01  3.5493889383015143e-01  3.5444118036231015e-01  3.5393113271393184e-01  3.5340656804631609e-01  3.5286601348753488e-01  3.5230868159579404e-01  3.5173435503884576e-01  3.5114325623482662e-01  3.5053591633595216e-01  3.4991306831914959e-01  3.4927555708997049e-01  3.4862427908389532e-01  3.4796013447683249e-01  3.4728400268572196e-01  3.4659672254515339e-01  3.4589909138921360e-01  3.4519186388599898e-01  3.4447576168025967e-01  3.4375147968867775e-01  3.4301970144821753e-01  3.4228110792294880e-01  3.4153639273845388e-01  3.4078626831769071e-01  3.4003147868940636e-01  3.3927280278471178e-01  3.3851106107140511e-01  3.3774711268505403e-01  3.3698185723760876e-01  3.3621622699898424e-01  3.3545118292554016e-01  3.3468770084237037e-01  3.3392676431849561e-01  3.3316934860095831e-01  3.3241641011694056e-01  3.3166886840349241e-01  3.3092759577786324e-01  3.3019340045875933e-01  3.2946701684998103e-01  3.2874908939830694e-01  3.2804016634326733e-01  3.2734068768351249e-01  3.2665098148714483e-01  3.2597125526328596e-01  3.2530159726386010e-01  3.2464197332645389e-01  3.2399223249053311e-01  3.2335210772468981e-01  3.2272122742403947e-01  3.2209912189146195e-01  3.2148523817397784e-01  3.2087894962213748e-01  3.2027957423438369e-01  3.1968638686649631e-01  3.1909863780960407e-01  3.1851556363773725e-01  3.1793640534521250e-01  3.1736041793570946e-01  3.1678688456458509e-01  3.1621512195544044e-01  3.1564449130054972e-01  3.1507440048041674e-01  3.1450431054239164e-01  3.1393373317568912e-01  3.1336223493177040e-01  3.1278943294042888e-01  3.1221499609909514e-01  3.1163863805805830e-01  3.1106011802544176e-01  3.1047923347475642e-01  3.0989581997076771e-01  3.0930974240970055e-01  3.0872089596318036e-01  3.0812919908472691e-01  3.0753459337008138e-01  3.0693703640134590e-01  3.0633650267799317e-01  3.0573297811474681e-01  3.0512646079067501e-01  3.0451695528609224e-01  3.0390447466972947e-01  3.0328903619238606e-01  3.0267066304522328e-01  3.0204937954297106e-01  3.0142521403441025e-01  3.0079819529001844e-01  3.0016835488986560e-01  2.9953572331843448e-01  2.9890033311655001e-01  2.9826221589690599e-01  2.9762140505952861e-01  2.9697793204789741e-01  2.9633182988119999e-01  2.9568313037324334e-01  2.9503186690500877e-01  2.9437807113863818e-01  2.9372177637900371e-01  2.9306301501134108e-01  2.9240182133216458e-01  2.9173822814576844e-01  2.9107227028649363e-01  2.9040398205403195e-01  2.8973339994546687e-01  2.8906055955084076e-01  2.8838549879794140e-01  2.8770825552394408e-01  2.8702887017008616e-01  2.8634738256934272e-01  2.8566383525263611e-01  2.8497827101649997e-01  2.8429073548884770e-01  2.8360127416048586e-01  2.8290993545130838e-01  2.8221676840023729e-01  2.8152182519440699e-01  2.8082515812359593e-01  2.8012682266744876e-01  2.7942687514771308e-01  2.7872537516392104e-01  2.7802238282497782e-01  2.7731796156929739e-01  2.7661217597439280e-01  2.7590509419640147e-01  2.7519678483510823e-01  2.7448732015877214e-01  2.7377677363684400e-01  2.7306522245368836e-01  2.7235274466536263e-01  2.7163942196113788e-01  2.7092533771401756e-01  2.7021057902276180e-01  2.6949523432034794e-01  2.6877939579432569e-01  2.6806315741287312e-01  2.6734661704915796e-01  2.6662987406863992e-01  2.6591303175995512e-01  2.6519619554161539e-01  2.6447947483329054e-01  2.6376298083732830e-01  2.6304682876540542e-01  2.6233113609395081e-01  2.6161602441155568e-01  2.6090161730340550e-01  2.6018804244874733e-01  2.5947542999457679e-01  2.5876391423283496e-01  2.5805363157659994e-01  2.5734472252190721e-01  2.5663733008540673e-01  2.5593160136923515e-01  2.5522768572931742e-01  2.5452573647419258e-01  2.5382590942713901e-01  2.5312836427765861e-01  2.5243326276706507e-01  2.5174077024370961e-01  2.5105105425529523e-01  2.5036428568499264e-01  2.4968063718374850e-01  2.4900028429647234e-01  2.4832340418439139e-01  2.4765017645618728e-01  2.4698078147982752e-01  2.4631540139061761e-01  2.4565421870148113e-01  2.4499741697472494e-01  2.4434517914868009e-01  2.4369768824878285e-01  2.4305512578906580e-01  2.4241767235412559e-01  2.4178550583482974e-01  2.4115880210982582e-01  2.4053773347608431e-01  2.3992246922918500e-01  2.3931317401472549e-01  2.3871000841571741e-01  2.3811312767304815e-01  2.3752268237763419e-01  2.3693881776759221e-01  2.3636167450838860e-01  2.3579138858426663e-01  2.3522809257600222e-01  2.3467191604444651e-01  2.3412298744717430e-01  2.3358143548985311e-01  2.3304739175697489e-01  2.3252099329171369e-01  2.3200238571341283e-01  2.3149172658760231e-01  2.3098918940596302e-01  2.3049496725782881e-01  2.3000927709839306e-01  2.2953236344247691e-01  2.2906450198931252e-01  2.2860600268637876e-01  2.2815721129362421e-01  2.2771851006006902e-01  2.2729031670755936e-01  2.2687308149441784e-01  2.2646728233027183e-01  2.2607341784592877e-01  2.2569199845240132e-01  2.2532353642088013e-01  2.2496853384598708e-01  2.2462747137797959e-01  2.2430079750700488e-01  2.2398892059956269e-01  2.2369220463066883e-01  2.2341097108435354e-01  2.2314550806937261e-01  2.2289608976949318e-01  2.2266300478439702e-01  2.2244659765269820e-01  2.2224732084396701e-01  2.2206579886662087e-01  2.2190289930695470e-01  2.2175980717410834e-01  2.2163808738130183e-01  2.2153971095923208e-01  2.2146698746335280e-01  2.2142230098034607e-01  2.3398648168884092e-01  3.3025170859398073e-01  3.5444378824420991e-01  3.5437825818673024e-01  3.5421248292096552e-01  3.5395654130526610e-01  3.5363122011188058e-01  3.5325540819783230e-01  3.5284229747382889e-01  3.5239994413516995e-01  3.5193288642556420e-01  3.5144358993852759e-01  3.5093344893196876e-01  3.5040339129108100e-01  3.4985420694585406e-01  3.4928669715021343e-01  3.4870172725664156e-01  3.4810022388892398e-01  3.4748315419173798e-01  3.4685149592543585e-01  3.4620621083216352e-01  3.4554822241654043e-01  3.4487840548472071e-01  3.4419757776822307e-01  3.4350650183830905e-01  3.4280588710163934e-01  3.4209640145313658e-01  3.4137868079253514e-01  3.4065334226705435e-01  3.3992099537942627e-01  3.3918225736972352e-01  3.3843776278010212e-01  3.3768817569117188e-01  3.3693419491581617e-01  3.3617656318903427e-01  3.3541606858715750e-01  3.3465354585059071e-01  3.3388987222854793e-01  3.3312596450267223e-01  3.3236276936492409e-01  3.3160125489017006e-01  3.3084239562831397e-01  3.3008716285095419e-01  3.2933650841221324e-01  3.2859135150259478e-01  3.2785256232311588e-01  3.2712095045192513e-01  3.2639724986657898e-01  3.2568210841898465e-01  3.2497607427939434e-01  3.2427959049196559e-01  3.2359298596667901e-01  3.2291647183460037e-01  3.2225013694193139e-01  3.2159394993970952e-01  3.2094775976735418e-01  3.2031130193268870e-01  3.1968420295506594e-01  3.1906599345320275e-01  3.1845611800401130e-01  3.1785394996947608e-01  3.1725880445412247e-01  3.1666995620527971e-01  3.1608665344623599e-01  3.1550813464114752e-01  3.1493363989574003e-01  3.1436242719733087e-01  3.1379378153769405e-01  3.1322702536055425e-01  3.1266152378405121e-01  3.1209669195201828e-01  3.1153199650548219e-01  3.1096695831792787e-01  3.1040114969505639e-01  3.0983419635469733e-01  3.0926577315566256e-01  3.0869560259120138e-01  3.0812344874391429e-01  3.0754911638284949e-01  3.0697244516594208e-01  3.0639330698637951e-01  3.0581159976439748e-01  3.0522724698156950e-01  3.0464019243539614e-01  3.0405039843347270e-01  3.0345784040265400e-01  3.0286250742482351e-01  3.0226439830869772e-01  3.0166352085248277e-01  3.0105988840170061e-01  3.0045352079962589e-01  2.9984444150739109e-01  2.9923267802327980e-01  2.9861825842942125e-01  2.9800121385648370e-01  2.9738157609201399e-01  2.9675937850133710e-01  2.9613465393246136e-01  2.9550743670392782e-01  2.9487776083235723e-01  2.9424566124904900e-01  2.9361117128815889e-01  2.9297432557590752e-01  2.9233515833354196e-01  2.9169370459282534e-01  2.9104999855894731e-01  2.9040407578146371e-01  2.8975597168933015e-01  2.8910572292600367e-01  2.8845336508484609e-01  2.8779893556774439e-01  2.8714247201460269e-01  2.8648401353829894e-01  2.8582359915136213e-01  2.8516126987282714e-01  2.8449706734506736e-01  2.8383103508617014e-01  2.8316321636947073e-01  2.8249365688906675e-01  2.8182240323702051e-01  2.8114950408792000e-01  2.8047500864158026e-01  2.7979896866058501e-01  2.7912143710376791e-01  2.7844246935270284e-01  2.7776212114175031e-01  2.7708045107664686e-01  2.7639751909227922e-01  2.7571338767376097e-01  2.7502812027061724e-01  2.7434178320955505e-01  2.7365444450132381e-01  2.7296617487232916e-01  2.7227704583818230e-01  2.7158713219292302e-01  2.7089651029338102e-01  2.7020525945023982e-01  2.6951346012542610e-0