<?xml version="1.0"?>
<VTKFile type="UnstructuredGrid"  version="0.1"  >
<UnstructuredGrid>
<Piece  NumberOfPoints="7161" NumberOfCells="13800">
<Points>
<DataArray  type="Float64"  NumberOfComponents="3"  format="ascii">0 0 0  0.01652173913043478 0 0  0.03304347826086956 0 0  0.04956521739130434 0 0  0.06608695652173913 0 0  0.08260869565217391 0 0  0.09913043478260869 0 0  0.1156521739130435 0 0  0.1321739130434783 0 0  0.148695652173913 0 0  0.1652173913043478 0 0  0.1817391304347826 0 0  0.1982608695652174 0 0  0.2147826086956522 0 0  0.2313043478260869 0 0  0.2478260869565218 0 0  0.2643478260869565 0 0  0.2808695652173913 0 0  0.2973913043478261 0 0  0.3139130434782609 0 0  0.3304347826086956 0 0  0.3469565217391304 0 0  0.3634782608695652 0 0  0.3799999999999999 0 0  0.3965217391304348 0 0  0.4130434782608696 0 0  0.4295652173913043 0 0  0.4460869565217391 0 0  0.4626086956521739 0 0  0.4791304347826086 0 0  0.4956521739130435 0 0  0.5121739130434783 0 0  0.528695652173913 0 0  0.5452173913043478 0 0  0.5617391304347825 0 0  0.5782608695652174 0 0  0.5947826086956521 0 0  0.6113043478260869 0 0  0.6278260869565218 0 0  0.6443478260869565 0 0  0.6608695652173913 0 0  0.677391304347826 0 0  0.6939130434782609 0 0  0.7104347826086956 0 0  0.7269565217391304 0 0  0.7434782608695653 0 0  0.7599999999999999 0 0  0.7765217391304348 0 0  0.7930434782608695 0 0  0.8095652173913043 0 0  0.8260869565217391 0 0  0.8426086956521739 0 0  0.8591304347826086 0 0  0.8756521739130434 0 0  0.8921739130434783 0 0  0.908695652173913 0 0  0.9252173913043478 0 0  0.9417391304347826 0 0  0.9582608695652173 0 0  0.9747826086956521 0 0  0.991304347826087 0 0  1.007826086956522 0 0  1.024347826086957 0 0  1.040869565217391 0 0  1.057391304347826 0 0  1.073913043478261 0 0  1.090434782608696 0 0  1.10695652173913 0 0  1.123478260869565 0 0  1.14 0 0  1.156521739130435 0 0  1.17304347826087 0 0  1.189565217391304 0 0  1.206086956521739 0 0  1.222608695652174 0 0  1.239130434782609 0 0  1.255652173913044 0 0  1.272173913043478 0 0  1.288695652173913 0 0  1.305217391304348 0 0  1.321739130434783 0 0  1.338260869565217 0 0  1.354782608695652 0 0  1.371304347826087 0 0  1.387826086956522 0 0  1.404347826086957 0 0  1.420869565217391 0 0  1.437391304347826 0 0  1.453913043478261 0 0  1.470434782608696 0 0  1.486956521739131 0 0  1.503478260869565 0 0  1.52 0 0  1.536521739130435 0 0  1.55304347826087 0 0  1.569565217391304 0 0  1.586086956521739 0 0  1.602608695652174 0 0  1.619130434782609 0 0  1.635652173913043 0 0  1.652173913043478 0 0  1.668695652173913 0 0  1.685217391304348 0 0  1.701739130434782 0 0  1.718260869565217 0 0  1.734782608695652 0 0  1.751304347826087 0 0  1.767826086956522 0 0  1.784347826086957 0 0  1.800869565217391 0 0  1.817391304347826 0 0  1.833913043478261 0 0  1.850434782608696 0 0  1.86695652173913 0 0  1.883478260869565 0 0  1.9 0 0  1.916521739130435 0 0  1.933043478260869 0 0  1.949565217391304 0 0  1.966086956521739 0 0  1.982608695652174 0 0  1.999130434782608 0 0  2.015652173913043 0 0  2.032173913043478 0 0  2.048695652173913 0 0  2.065217391304348 0 0  2.081739130434782 0 0  2.098260869565217 0 0  2.114782608695652 0 0  2.131304347826087 0 0  2.147826086956522 0 0  2.164347826086956 0 0  2.180869565217391 0 0  2.197391304347826 0 0  2.213913043478261 0 0  2.230434782608695 0 0  2.24695652173913 0 0  2.263478260869565 0 0  2.28 0 0  2.296521739130434 0 0  2.31304347826087 0 0  2.329565217391304 0 0  2.346086956521739 0 0  2.362608695652174 0 0  2.379130434782609 0 0  2.395652173913044 0 0  2.412173913043478 0 0  2.428695652173913 0 0  2.445217391304348 0 0  2.461739130434782 0 0  2.478260869565217 0 0  2.494782608695652 0 0  2.511304347826087 0 0  2.527826086956522 0 0  2.544347826086956 0 0  2.560869565217391 0 0  2.577391304347826 0 0  2.593913043478261 0 0  2.610434782608696 0 0  2.62695652173913 0 0  2.643478260869565 0 0  2.66 0 0  2.676521739130435 0 0  2.693043478260869 0 0  2.709565217391304 0 0  2.726086956521739 0 0  2.742608695652174 0 0  2.759130434782609 0 0  2.775652173913044 0 0  2.792173913043478 0 0  2.808695652173913 0 0  2.825217391304347 0 0  2.841739130434783 0 0  2.858260869565217 0 0  2.874782608695652 0 0  2.891304347826087 0 0  2.907826086956522 0 0  2.924347826086957 0 0  2.940869565217391 0 0  2.957391304347826 0 0  2.973913043478261 0 0  2.990434782608696 0 0  3.006956521739131 0 0  3.023478260869565 0 0  3.04 0 0  3.056521739130435 0 0  3.073043478260869 0 0  3.089565217391304 0 0  3.106086956521739 0 0  3.122608695652174 0 0  3.139130434782609 0 0  3.155652173913043 0 0  3.172173913043478 0 0  3.188695652173913 0 0  3.205217391304347 0 0  3.221739130434782 0 0  3.238260869565217 0 0  3.254782608695652 0 0  3.271304347826087 0 0  3.287826086956521 0 0  3.304347826086957 0 0  3.320869565217391 0 0  3.337391304347826 0 0  3.353913043478261 0 0  3.370434782608696 0 0  3.386956521739131 0 0  3.403478260869565 0 0  3.419999999999999 0 0  3.436521739130435 0 0  3.453043478260869 0 0  3.469565217391304 0 0  3.486086956521739 0 0  3.502608695652174 0 0  3.519130434782609 0 0  3.535652173913043 0 0  3.552173913043478 0 0  3.568695652173913 0 0  3.585217391304347 0 0  3.601739130434782 0 0  3.618260869565217 0 0  3.634782608695652 0 0  3.651304347826087 0 0  3.667826086956521 0 0  3.684347826086956 0 0  3.700869565217391 0 0  3.717391304347826 0 0  3.733913043478261 0 0  3.750434782608695 0 0  3.766956521739131 0 0  3.783478260869565 0 0  3.8 0 0  0 0.01666666666666667 0  0.01652173913043478 0.01666666666666667 0  0.03304347826086956 0.01666666666666667 0  0.04956521739130434 0.01666666666666667 0  0.06608695652173913 0.01666666666666667 0  0.08260869565217391 0.01666666666666667 0  0.09913043478260869 0.01666666666666667 0  0.1156521739130435 0.01666666666666667 0  0.1321739130434783 0.01666666666666667 0  0.148695652173913 0.01666666666666667 0  0.1652173913043478 0.01666666666666667 0  0.1817391304347826 0.01666666666666667 0  0.1982608695652174 0.01666666666666667 0  0.2147826086956522 0.01666666666666667 0  0.2313043478260869 0.01666666666666667 0  0.2478260869565218 0.01666666666666667 0  0.2643478260869565 0.01666666666666667 0  0.2808695652173913 0.01666666666666667 0  0.2973913043478261 0.01666666666666667 0  0.3139130434782609 0.01666666666666667 0  0.3304347826086956 0.01666666666666667 0  0.3469565217391304 0.01666666666666667 0  0.3634782608695652 0.01666666666666667 0  0.3799999999999999 0.01666666666666667 0  0.3965217391304348 0.01666666666666667 0  0.4130434782608696 0.01666666666666667 0  0.4295652173913043 0.01666666666666667 0  0.4460869565217391 0.01666666666666667 0  0.4626086956521739 0.01666666666666667 0  0.4791304347826086 0.01666666666666667 0  0.4956521739130435 0.01666666666666667 0  0.5121739130434783 0.01666666666666667 0  0.528695652173913 0.01666666666666667 0  0.5452173913043478 0.01666666666666667 0  0.5617391304347825 0.01666666666666667 0  0.5782608695652174 0.01666666666666667 0  0.5947826086956521 0.01666666666666667 0  0.6113043478260869 0.01666666666666667 0  0.6278260869565218 0.01666666666666667 0  0.6443478260869565 0.01666666666666667 0  0.6608695652173913 0.01666666666666667 0  0.677391304347826 0.01666666666666667 0  0.6939130434782609 0.01666666666666667 0  0.7104347826086956 0.01666666666666667 0  0.7269565217391304 0.01666666666666667 0  0.7434782608695653 0.01666666666666667 0  0.7599999999999999 0.01666666666666667 0  0.7765217391304348 0.01666666666666667 0  0.7930434782608695 0.01666666666666667 0  0.8095652173913043 0.01666666666666667 0  0.8260869565217391 0.01666666666666667 0  0.8426086956521739 0.01666666666666667 0  0.8591304347826086 0.01666666666666667 0  0.8756521739130434 0.01666666666666667 0  0.8921739130434783 0.01666666666666667 0  0.908695652173913 0.01666666666666667 0  0.9252173913043478 0.01666666666666667 0  0.9417391304347826 0.01666666666666667 0  0.9582608695652173 0.01666666666666667 0  0.9747826086956521 0.01666666666666667 0  0.991304347826087 0.01666666666666667 0  1.007826086956522 0.01666666666666667 0  1.024347826086957 0.01666666666666667 0  1.040869565217391 0.01666666666666667 0  1.057391304347826 0.01666666666666667 0  1.073913043478261 0.01666666666666667 0  1.090434782608696 0.01666666666666667 0  1.10695652173913 0.01666666666666667 0  1.123478260869565 0.01666666666666667 0  1.14 0.01666666666666667 0  1.156521739130435 0.01666666666666667 0  1.17304347826087 0.01666666666666667 0  1.189565217391304 0.01666666666666667 0  1.206086956521739 0.01666666666666667 0  1.222608695652174 0.01666666666666667 0  1.239130434782609 0.01666666666666667 0  1.255652173913044 0.01666666666666667 0  1.272173913043478 0.01666666666666667 0  1.288695652173913 0.01666666666666667 0  1.305217391304348 0.01666666666666667 0  1.321739130434783 0.01666666666666667 0  1.338260869565217 0.01666666666666667 0  1.354782608695652 0.01666666666666667 0  1.371304347826087 0.01666666666666667 0  1.387826086956522 0.01666666666666667 0  1.404347826086957 0.01666666666666667 0  1.420869565217391 0.01666666666666667 0  1.437391304347826 0.01666666666666667 0  1.453913043478261 0.01666666666666667 0  1.470434782608696 0.01666666666666667 0  1.486956521739131 0.01666666666666667 0  1.503478260869565 0.01666666666666667 0  1.52 0.01666666666666667 0  1.536521739130435 0.01666666666666667 0  1.55304347826087 0.01666666666666667 0  1.569565217391304 0.01666666666666667 0  1.586086956521739 0.01666666666666667 0  1.602608695652174 0.01666666666666667 0  1.619130434782609 0.01666666666666667 0  1.635652173913043 0.01666666666666667 0  1.652173913043478 0.01666666666666667 0  1.668695652173913 0.01666666666666667 0  1.685217391304348 0.01666666666666667 0  1.701739130434782 0.01666666666666667 0  1.718260869565217 0.01666666666666667 0  1.734782608695652 0.01666666666666667 0  1.751304347826087 0.01666666666666667 0  1.767826086956522 0.01666666666666667 0  1.784347826086957 0.01666666666666667 0  1.800869565217391 0.0166666666666666
[...]
<PointData  Scalars="rho_bar"> 
<DataArray  type="Float64"  Name="rho_bar"  format="ascii">9.9387392492797100e-01  9.9405240952388396e-01  9.9357359432865822e-01  9.9331032290042698e-01  9.9293823898995837e-01  9.9253663181224649e-01  9.9208398084284588e-01  9.9155375356273623e-01  9.9089916289270163e-01  9.9007713722153790e-01  9.8907094803388063e-01  9.8790484555924052e-01  9.8664495005459441e-01  9.8538613087134719e-01  9.8423291253861434e-01  9.8328007959086217e-01  9.8259422103248573e-01  9.8220386011206107e-01  9.8210860975612702e-01  9.8229324162789489e-01  9.8271089365537079e-01  9.8329565799721907e-01  9.8398985571524089e-01  9.8475207919312002e-01  9.8555602764296391e-01  9.8638514628032836e-01  9.8722566205217666e-01  9.8805838879081254e-01  9.8885225053555426e-01  9.8956510702919842e-01  9.9015353254134508e-01  9.9058388862412794e-01  9.9083414921353885e-01  9.9088801489850875e-01  9.9072914739910045e-01  9.9034013583717961e-01  9.8971009412708943e-01  9.8885033389462140e-01  9.8781196117657666e-01  9.8669026506618096e-01  9.8560572092214638e-01  9.8466492890509960e-01  9.8392108231269060e-01  9.8335741004233190e-01  9.8290109391406311e-01  9.8245194589484286e-01  9.8190311994980661e-01  9.8114623187510297e-01  9.8007040297698989e-01  9.7857321879310699e-01  9.7658902008204518e-01  9.7412377554685092e-01  9.7127459674685657e-01  9.6822313427822793e-01  9.6519884995431948e-01  9.6241373009402387e-01  9.5997003666595737e-01  9.5780524190329230e-01  9.5587657096756118e-01  9.5420147930783850e-01  9.5283331795226589e-01  9.5184648968330432e-01  9.5131462841265824e-01  9.5127616995325304e-01  9.5171183016873295e-01  9.5254522357842253e-01  9.5366017493431876e-01  9.5491536772706853e-01  9.5616392020438556e-01  9.5728744828131207e-01  9.5824723313901472e-01  9.5911259132418580e-01  9.5988820928594576e-01  9.6051262181257702e-01  9.6091877502303280e-01  9.6105576606943999e-01  9.6088553165721513e-01  9.6036788962325215e-01  9.5944336906730388e-01  9.5802106336437631e-01  9.5598267500112832e-01  9.5319337793131920e-01  9.4953553536995461e-01  9.4498965557039616e-01  9.3974435700320502e-01  9.3430604767932868e-01  9.2956127499879149e-01  9.2667305221028984e-01  9.2672203970480405e-01  9.3020738357729704e-01  9.3669972984485239e-01  9.4494365559010141e-01  9.5340450052884351e-01  9.6086468345301246e-01  9.6670252175500415e-01  9.7081941972130070e-01  9.7340947607559924e-01  9.7474020538837769e-01  9.7501614030042016e-01  9.7432262016403481e-01  9.7262122125033790e-01  9.6977561923357303e-01  9.6569317470957650e-01  9.6030969585793702e-01  9.5358251792030391e-01  9.4567045786582526e-01  9.3695062866364709e-01  9.2796746077117265e-01  9.1936995222903584e-01  9.1182392381889876e-01  9.0590843664674192e-01  9.0201605398453510e-01  9.0029033584119422e-01  9.0061831145601778e-01  9.0267616202960543e-01  9.0600063211510284e-01  9.1006530532480212e-01  9.1434595306967481e-01  9.1836580471584195e-01  9.2171347940473780e-01  9.2403621561941462e-01  9.2500914930689038e-01  9.2428376206006246e-01  9.2140953227928868e-01  9.1573774268829788e-01  9.0635969957879847e-01  8.9220218280117869e-01  8.7245057339897369e-01  8.4708079271788606e-01  8.1736334466402749e-01  7.8616110520097415e-01  7.5740473569239142e-01  7.3479844801887861e-01  7.2041280393343488e-01  7.1439742569956777e-01  7.1558487521793013e-01  7.2207727582573245e-01  7.3168588363773945e-01  7.4232555541598177e-01  7.5229444717551430e-01  7.6037920329810815e-01  7.6587593805041732e-01  7.6857664176076390e-01  7.6857223140666897e-01  7.6607392618708126e-01  7.6141436882953528e-01  7.5507046262188116e-01  7.4756991663300287e-01  7.3936010214963688e-01  7.3076717021504112e-01  7.2201150042909201e-01  7.1320274400675443e-01  7.0435959222714661e-01  6.9545596290381662e-01  6.8645794309240848e-01  6.7735084972047566e-01  6.6817281626370839e-01  6.5904422819860964e-01  6.5019674070498090e-01  6.4196763110263788e-01  6.3470417871836926e-01  6.2857128695737408e-01  6.2329872751864102e-01  6.1793927029746298e-01  6.1083123820470009e-01  5.9985525001832407e-01  5.8298158606373374e-01  5.5961081830685833e-01  5.3251705732197607e-01  5.0692497362559619e-01  4.8689070686909491e-01  4.7269731399819731e-01  4.6251512147811008e-01  4.5440252348592874e-01  4.4707550159231152e-01  4.3981873430879365e-01  4.3235659864908405e-01  4.2544753419607817e-01  4.2030160546560741e-01  4.1792119223064561e-01  4.1879905734498807e-01  4.2284395526189950e-01  4.2936829820806899e-01  4.3707915128055780e-01  4.4415968341938411e-01  4.4839078083693912e-01  4.4744120894634881e-01  4.3929745136004000e-01  4.2219808971659151e-01  3.9399423043017445e-01  3.5272201533836728e-01  2.9790553377816981e-01  2.3235656319239659e-01  1.6385033040008135e-01  1.0343936322002074e-01  5.9044611136058259e-02  3.1417207810602192e-02  1.6256164766235190e-02  8.5149664721481510e-03  4.6456000936483180e-03  2.6782672778049598e-03  1.6361648307140957e-03  1.0545189223649129e-03  7.1158682587445449e-04  4.9856006705001885e-04  3.5984135973597691e-04  2.6576505817653531e-04  1.9978383721123928e-04  1.5223545484159806e-04  1.1722339411698472e-04  9.0999775939011747e-05  7.1093578841948743e-05  5.5822069766896235e-05  4.4006867814462454e-05  3.4803157301409805e-05  2.7593375623133670e-05  2.1919086340471436e-05  1.7435726602086144e-05  1.3881989538368725e-05  1.1058213679415336e-05  8.8110527379392301e-06  7.0222222417672356e-06  5.6001588258067102e-06  4.4738464277530972e-06  3.5881427256392637e-06  2.9004014540675138e-06  2.3779372630054611e-06  1.9963318894362150e-06  1.7384417232197358e-06  1.5945929201207398e-06  1.5663973511355553e-06  9.9567862207867008e-01  9.9403821004176263e-01  9.9422072035903741e-01  9.9380930779300281e-01  9.9320468096840098e-01  9.9224473089397203e-01  9.9086706233134203e-01  9.8905919711826062e-01  9.8687866787927714e-01  9.8444183192127888e-01  9.8189210767732260e-01  9.7937492752235966e-01  9.7702325450058380e-01  9.7495521264728791e-01  9.7327513927239606e-01  9.7207000123363929e-01  9.7139892904486147e-01  9.7128419175207592e-01  9.7171171453186989e-01  9.7264150741436162e-01  9.7398603960681407e-01  9.7561453036744239e-01  9.7739757170362707e-01  9.7922389509467000e-01  9.8100149961094907e-01  9.8265672960370487e-01  9.8413399837661975e-01  9.8540046369903356e-01  9.8644995043143957e-01  9.8730041475273800e-01  9.8797722860955073e-01  9.8849110048030808e-01  9.8882628899834291e-01  9.8894797777906152e-01  9.8881803863369144e-01  9.8840514407778668e-01  9.8769172113480574e-01  9.8668504732439022e-01  9.8543100370206660e-01  9.8402121143009358e-01  9.8258649264247133e-01  9.8126220932921615e-01  9.8012650727478989e-01  9.7915285868709256e-01  9.7821160547449282e-01  9.7711301426882691e-01  9.7566201804510422e-01  9.7370720064060701e-01  9.7117486427211552e-01  9.6808298676201099e-01  9.6452716176757669e-01  9.6064906722059373e-01  9.5660857126056209e-01  9.5257771349789433e-01  9.4874218252014642e-01  9.4528100307554308e-01  9.4229013077881196e-01  9.3968973007594414e-01  9.3738222734097609e-01  9.3536139514506811e-01  9.3367486137854760e-01  9.3239855655720683e-01  9.3162066477641414e-01  9.3141060810503395e-01  9.3177960147383243e-01  9.3266779670282385e-01  9.3396004071573047e-01  9.3550686382197235e-01  9.3713986886333744e-01  9.3871214809481363e-01  9.4015213807260667e-01  9.4151035553900220e-01  9.4280045648612365e-01  9.4394480767952393e-01  9.4485475155910359e-01  9.4546496337928687e-01  9.4572682900762151e-01  9.4558743343116425e-01  9.4496526635895983e-01  9.4373669848217789e-01  9.4174314486789179e-01  9.3881115659542425e-01  9.3478987424998228e-01  9.2964207318857295e-01  9.2357880860705133e-01  9.1718717598574595e-01  9.1150877474631520e-01  9.0794027211559980e-01  9.0783400275146120e-01  9.1190414687187049e-01  9.1976917348747544e-01  9.2998935225932522e-01  9.4066146932187977e-01  9.5016970268507617e-01  9.5761095426667886e-01  9.6274513472667367e-01  9.6570547610338231e-01  9.6673363597884954e-01  9.6605847608873574e-01  9.6388817175589869e-01  9.6043431969304316e-01  9.5587054763953871e-01  9.5034111634735641e-01  9.4388001892080464e-01  9.3624809668703379e-01  9.2724146396764184e-01  9.1693197629712264e-01  9.0578265342508424e-01  8.9462918846649075e-01  8.8449531926802583e-01  8.7633481569911520e-01  8.7081392365350052e-01  8.6819682705805346e-01  8.6835017361712385e-01  8.7083886383039300e-01  8.7505618308307054e-01  8.8033474242655818e-01  8.8602964062350464e-01  8.9156025889885371e-01  8.9641471572733833e-01  9.0012759477820770e-01  9.0224735980114856e-01  9.0229278329716711e-01  8.9968777487567109e-01  8.9366511442411589e-01  8.8319566960268636e-01  8.6702218872296943e-01  8.4405860101234742e-01  8.1414201907538097e-01  7.7868268695476461e-01  7.4109954371486786e-01  7.0613299407920749e-01  6.7823754411913528e-01  6.5994356274198174e-01  6.5143463472536867e-01  6.5137438270678649e-01  6.5766693718910640e-01  6.6786344556341282e-01  6.7955936064783795e-01  6.9073611386112532e-01  6.9989174598479986e-01  7.0608431398136484e-01  7.0894335909741601e-01  7.0853632038971393e-01  7.0513335081029072e-01  6.9916637928697623e-01  6.9125604285869369e-01  6.8210789276392192e-01  6.7230562813990113e-01  6.6226098265125222e-01  6.5225685951697865e-01  6.4242743601205909e-01  6.3278135948106495e-01  6.2328093149976471e-01  6.1387996914070919e-01  6.0454836256165945e-01  5.9530344070347230e-01  5.8623770375460726e-01  5.7754664043784498e-01  5.6953287720918100e-01  5.6250343025515737e-01  5.5657962631127589e-01  5.5145077876890458e-01  5.4610479928905453e-01  5.3881183445945813e-01  5.2754080132516301e-01  5.1052465533538560e-01  4.8763959780461141e-01  4.6193127109848475e-01  4.3849171772030460e-01  4.2051323129132190e-01  4.0802182248190122e-01  3.9921226682911765e-01  3.9222863642333405e-01  3.8586901059802858e-01  3.7967419768235983e-01  3.7357346036354921e-01  3.6830399570270017e-01  3.6500342586167628e-01  3.6460248902504533e-01  3.6755269276475472e-01  3.7376715670998828e-01  3.8261780922806976e-01  3.9290751087793446e-01  4.0292204807945015e-01  4.1055305410406606e-01  4.1355908150624154e-01  4.0997280847013789e-01  3.9812879197186868e-01  3.7600393720635061e-01  3.4157553953258873e-01  2.9393209602129189e-01  2.3484556787614116e-01  1.7048938025479254e-01  1.1095986795080040e-01  6.5054989932529603e-02  3.5268068856603212e-02  1.8412845381909286e-02  9.6480329861700111e-03  5.2349863634870266e-03  2.9931167551375672e-03  1.8123807322731273e-03  1.1585800068486538e-03  7.7634049043120686e-04  5.4078488803485517e-04  3.8848804883297568e-04  2.8583574137017360e-04  2.1421132198665670e-04  1.6282054352413300e-04  1.2511787317486119e-04  9.6966723153378846e-05  7.5653539211750122e-05  5.9338802098226244e-05  4.6739707226575155e-05  3.6940056437467156e-05  2.9272573817613919e-05  2.3243479012540815e-05  1.8482900427718623e-05  1.4711034984411332e-05  1.1714723337791521e-05  9.3305850281323417e-06  7.4328349331537769e-06  5.9242710864232697e-06  4.7295391904071504e-06  3.7901879493213172e-06  3.0609558967067034e-06  2.5071382719087280e-06  2.1026631584785996e-06  1.8287895293849132e-06  1.6730610620519897e-06  1.6273074819031091e-06  9.7700877630250960e-01  9.8210007192056192e-01  9.8021366850364733e-01  9.7919953044443842e-01  9.7779331621754639e-01  9.7632585566609220e-01  9.7489433751569821e-01  9.7350991529283404e-01  9.7200715243463998e-01  9.7009317353808144e-01  9.6749057739382216e-01  9.6408414116367980e-01  9.6000314583852764e-01  9.5560573508614266e-01  9.5137475615536293e-01  9.4780343193736205e-01  9.4528311249636754e-01  9.4400884210419456e-01  9.4397141556318120e-01  9.4502990898158978e-01  9.4692176900407699e-01  9.4928953274704175e-01  9.5187892072223146e-01  9.5455926119166057e-01  9.5728778443805496e-01  9.6007818074224338e-01  9.6296496459576642e-01  9.6596943527872281e-01  9.6904913492838674e-01  9.7206395306919535e-01  9.7479497161693118e-01  9.7702687277295308e-01  9.7862877883803379e-01  9.7956044302682532e-01  9.7981672875878467e-01  9.7937080272124177e-01  9.7816229479982109e-01  9.7614121406816123e-01  9.7334461010774198e-01  9.6996130441840511e-01  9.6633334384821612e-01  9.6284768578685909e-01  9.5977860972339968e-01  9.5718568428907647e-01  9.5492794566036010e-01  9.5275346417259665e-01  9.5037870500493060e-01  9.4749643652366744e-01  9.4372931123243220e-01  9.3860081653911398e-01  9.3161969557388857e-01  9.2248317031073779e-01  9.1129132050692385e-01  8.9864044439013768e-01  8.8549169762871627e-01  8.7285924332060283e-01  8.6143176967360258e-01  8.5135399667617062e-01  8.4253941757594142e-01  8.3499482412456016e-01  8.2885957847379110e-01  8.2441307582513745e-01  8.2205562014187816e-01  8.2208921069041663e-01  8.2449570433972708e-01  8.2894114819983922e-01  8.3489051342509391e-01  8.4171431705079469e-01  8.4878371770766547e-01  8.5561323399092892e-01  8.6194168554839001e-01  8.6773076190643628e-01  8.7292434595080826e-01  8.7736980333670156e-01  8.8094590207453527e-01  8.8361373453738967e-01  8.8538578999432738e-01  8.8626896518248721e-01  8.8620324321108046e-01  8.8502963864270934e-01  8.8252167331546993e-01  8.7840703507242868e-01  8.7241928585943196e-01  8.6443538385642182e-01  8.5474725868329027e-01  8.4428283328001719e-01  8.3475790335134936e-01  8.2853572434999478e-01  8.2799473845455573e-01  8.3458862203094908e-01  8.4802113501824417e-01  8.6611398819563268e-01  8.8556392270025330e-01  9.0321267004725758e-01  9.1710869052264687e-01  9.2665448616837576e-01  9.3215859851812499e-01  9.3426181244903306e-01  9.3350904061267559e-01  9.3003914794369047e-01  9.2343540094444909e-01  9.1279501172050859e-01  8.9717148801083213e-01  8.7596310780661313e-01  8.4893593173904469e-01  8.1691264271764430e-01  7.8215078890190581e-01  7.4772049103923366e-01  7.1672603397056234e-01  6.9165128210791416e-01  6.7405929388775510e-01  6.6457986933446256e-01  6.6303384590581893e-01  6.6861198296462354e-01  6.8009143083171364e-01  6.9598966009547725e-01  7.1465657916911873e-01  7.3440914142766123e-01  7.5366513797813239e-01  7.7104291784589130e-01  7.8541223546481109e-01  7.9587448208586242e-01  8.0166143534051715e-01  8.0195224920654862e-01  7.9565874575745865e-01  7.8130570612447225e-01  7.5707921566659331e-01  7.2142908145471163e-01  6.7489838466735741e-01  6.2095272157956205e-01  5.6568980677742553e-01  5.1577091510742346e-01  4.7617961780139140e-01  4.4894434251201792e-01  4.3355396683256725e-01  4.2807753460958153e-01  4.3018757245621281e-01  4.3734094528653583e-01  4.4694994823068662e-01  4.5670868834238293e-01  4.6469198085235641e-01  4.6949621853837986e-01  4.7041870312446016e-01  4.6746856820453458e-01  4.6117097360490311e-01  4.5233230256697787e-01  4.4193505961232937e-01  4.3097059627885614e-01  4.2015428869414073e-01  4.0990815786359397e-01  4.0051485220524813e-01  3.9203186711079341e-01  3.8434809979757539e-01  3.7734830903639183e-01  3.7092386774916225e-01  3.6496354406254244e-01  3.5938417724405147e-01  3.5413988668403068e-01  3.4924704567945325e-01  3.4481853334364287e-01  3.4097613358330203e-01  3.3771629733649755e-01  3.3476683568895271e-01  3.3129544145445450e-01  3.2589617415848426e-01  3.1736001086325233e-01  3.0508082017851690e-01  2.8947529433830671e-01  2.7329698008942083e-01  2.5953631786703069e-01  2.4960960345137800e-01  2.4305023215217408e-01  2.3860622389623859e-01  2.3517700214081444e-01  2.3208141406824379e-01  2.2926692437417076e-01  2.2703927698617074e-01  2.2605134830164189e-01  2.2711770983036775e-01  2.3090739614260516e-01  2.3779602542536976e-01  2.4781884071653806e-01  2.6064235867476671e-01  2.7549920413416473e-01  2.9114976392716185e-01  3.0593515279042161e-01  3.1797497427550020e-01  3.2552210436807760e-01  3.2706517100312338e-01  3.2074637292114005e-01  3.0441974815642947e-01  2.7623082745833405e-01  2.3561721939661626e-01  1.8498504609108529e-01  1.3113615145091928e-01  8.3362193381857297e-02  4.8138866480270368e-02  2.6085265878745035e-02  1.3824869658197521e-02  7.4402020944973144e-03  4.1715136011443452e-03  2.4661321273863009e-03  1.5394103855376966e-03  1.0096133087943249e-03  6.9045739446869025e-04  4.8847972130990026e-04  3.5492723259717047e-04  2.6328507139104258e-04  1.9846376594022359e-04  1.5148078287264757e-04  1.1675839302202355e-04  9.0696278072137284e-05  7.0889871802627653e-05  5.5685193833970772e-05  4.3915950751792706e-05  3.4742555822768034e-05  2.7550456309362510e-05  2.1883697056721131e-05  1.7400504343188261e-05  1.3842462635530282e-05  1.1012942313657311e-05  8.7613864036957931e-06  6.9719564504321779e-06  5.5551199708731188e-06  4.4414826892402515e-06  3.5773005730067109e-06  2.9212270511934679e-06  2.4420484574563093e-06  2.1170304575173720e-06  1.9306744196828712e-06  1.8734924943081883e-06  9.7813738133387340e-01  9.6279488050933093e-01  9.6399855866235040e-01  9.6127946482590176e-01  9.5592202266497361e-01  9.4665945960528930e-01  9.3225490753479445e-01  9.1169920884783073e-01  8.8476211913369374e-01  8.5248947914821016e-01  8.1694731416947663e-01  7.8078903291445700e-01  7.4677996059944962e-01  7.1737077866535837e-01  6.9441827751576823e-01  6.7923259612241293e-01  6.7250702855098310e-01  6.7419914761578337e-01  6.8365520213432152e-01  6.9981133956206232e-01  7.2118470151013958e-01  7.4588837371731309e-01  7.7221257377603603e-01  7.9884364609631142e-01  8.2470674753552231e-01  8.4892888668820021e-01  8.7081285447606549e-01  8.8984286767621412e-01  9.0573255349276960e-01  9.1850443942447324e-01  9.2849933086240399e-01  9.3624050509885615e-01  9.4215259060531020e-01  9.4636790591348297e-01  9.4875743138185098e-01  9.4908394911441729e-01  9.4708483377212538e-01  9.4253855398062603e-01  9.3539143532660585e-01  9.2583427798038687e-01  9.1436073083757063e-01  9.0178827387856986e-01  8.8900791414137648e-01  8.7638739524468590e-01  8.6337494946143623e-01  8.4855937104747992e-01  8.3002538041015350e-01  8.0583620621040475e-01  7.7457833825035727e-01  7.3590358526369759e-01  6.9091249694270418e-01  6.4207615195373424e-01  5.9265444067731565e-01  5.4587766891964484e-01  5.0419352723199296e-01  4.6888530493634739e-01  4.4004757542330730e-01  4.1689897201992615e-01  3.9843100350613331e-01  3.8385803478641339e-01  3.7272327538436884e-01  3.6503149678444968e-01  3.6132733289995900e-01  3.6220163350611795e-01  3.6772724534696410e-01  3.7756135963938448e-01  3.9113320347114366e-01  4.0771304020634086e-01  4.2645575829719273e-01  4.4660565377222761e-01  4.6751953850078981e-01  4.8852169201797524e-01  5.0887680091621657e-01  5.2805119794974131e-01  5.4582116906014189e-01  5.6222885111028476e-01  5.7743537311972448e-01  5.9152661438541698e-01  6.0430257409927313e-01  6.1520029695913769e-01  6.2343666587408575e-01  6.2815607118069638e-01  6.2860957917775473e-01  6.2443020647943903e-01  6.1606775033712768e-01  6.0509093523431701e-01  5.9433987822071310e-01  5.8758109838627937e-01  5.8862505313386748e-01  6.0041838690396321e-01  6.2399761122745323e-01  6.5770700198836829e-01  6.9708054009289733e-01  7.3565654921800838e-01  7.6743116184599924e-01  7.8865729659513917e-01  7.9771069369050540e-01  7.9393451505002022e-01  7.7677828093609425e-01  7.4579511870698667e-01  7.0120717419748391e-01  6.4477992155893837e-01  5.8017070817977823e-01  5.1216212817955364e-01  4.4539164534188957e-01  3.8394627170425361e-01  3.3108182640756439e-01  2.8857602239693192e-01  2.5675306818760496e-01  2.3496472562365267e-01  2.2215600615842551e-01  2.1728748239945697e-01  2.1952606421361806e-01  2.2826082961075414e-01  2.4309439702426139e-01  2.6375126560428586e-01  2.8983717249420832e-01  3.2067933482516620e-01  3.5517779326418547e-01  3.9167590305420008e-01  4.2791474303929894e-01  4.6112584324324624e-01  4.8825750947674212e-01  5.0623877828588615e-01  5.1218573997470596e-01  5.0377838338743619e-01  4.7976582808409357e-01  4.4078982678561285e-01  3.9078207030126305e-01  3.3651364193257272e-01  2.8530596007416770e-01  2.4237095792724661e-01  2.0985970516873778e-01  1.8728296811538800e-01  1.7296979268409327e-01  1.6499275211835829e-01  1.61622941056