<?xml version="1.0"?>
<VTKFile type="UnstructuredGrid"  version="0.1"  >
<UnstructuredGrid>
<Piece  NumberOfPoints="7161" NumberOfCells="13800">
<Points>
<DataArray  type="Float64"  NumberOfComponents="3"  format="ascii">0 0 0  0.01652173913043478 0 0  0.03304347826086956 0 0  0.04956521739130434 0 0  0.06608695652173913 0 0  0.08260869565217391 0 0  0.09913043478260869 0 0  0.1156521739130435 0 0  0.1321739130434783 0 0  0.148695652173913 0 0  0.1652173913043478 0 0  0.1817391304347826 0 0  0.1982608695652174 0 0  0.2147826086956522 0 0  0.2313043478260869 0 0  0.2478260869565218 0 0  0.2643478260869565 0 0  0.2808695652173913 0 0  0.2973913043478261 0 0  0.3139130434782609 0 0  0.3304347826086956 0 0  0.3469565217391304 0 0  0.3634782608695652 0 0  0.3799999999999999 0 0  0.3965217391304348 0 0  0.4130434782608696 0 0  0.4295652173913043 0 0  0.4460869565217391 0 0  0.4626086956521739 0 0  0.4791304347826086 0 0  0.4956521739130435 0 0  0.5121739130434783 0 0  0.528695652173913 0 0  0.5452173913043478 0 0  0.5617391304347825 0 0  0.5782608695652174 0 0  0.5947826086956521 0 0  0.6113043478260869 0 0  0.6278260869565218 0 0  0.6443478260869565 0 0  0.6608695652173913 0 0  0.677391304347826 0 0  0.6939130434782609 0 0  0.7104347826086956 0 0  0.7269565217391304 0 0  0.7434782608695653 0 0  0.7599999999999999 0 0  0.7765217391304348 0 0  0.7930434782608695 0 0  0.8095652173913043 0 0  0.8260869565217391 0 0  0.8426086956521739 0 0  0.8591304347826086 0 0  0.8756521739130434 0 0  0.8921739130434783 0 0  0.908695652173913 0 0  0.9252173913043478 0 0  0.9417391304347826 0 0  0.9582608695652173 0 0  0.9747826086956521 0 0  0.991304347826087 0 0  1.007826086956522 0 0  1.024347826086957 0 0  1.040869565217391 0 0  1.057391304347826 0 0  1.073913043478261 0 0  1.090434782608696 0 0  1.10695652173913 0 0  1.123478260869565 0 0  1.14 0 0  1.156521739130435 0 0  1.17304347826087 0 0  1.189565217391304 0 0  1.206086956521739 0 0  1.222608695652174 0 0  1.239130434782609 0 0  1.255652173913044 0 0  1.272173913043478 0 0  1.288695652173913 0 0  1.305217391304348 0 0  1.321739130434783 0 0  1.338260869565217 0 0  1.354782608695652 0 0  1.371304347826087 0 0  1.387826086956522 0 0  1.404347826086957 0 0  1.420869565217391 0 0  1.437391304347826 0 0  1.453913043478261 0 0  1.470434782608696 0 0  1.486956521739131 0 0  1.503478260869565 0 0  1.52 0 0  1.536521739130435 0 0  1.55304347826087 0 0  1.569565217391304 0 0  1.586086956521739 0 0  1.602608695652174 0 0  1.619130434782609 0 0  1.635652173913043 0 0  1.652173913043478 0 0  1.668695652173913 0 0  1.685217391304348 0 0  1.701739130434782 0 0  1.718260869565217 0 0  1.734782608695652 0 0  1.751304347826087 0 0  1.767826086956522 0 0  1.784347826086957 0 0  1.800869565217391 0 0  1.817391304347826 0 0  1.833913043478261 0 0  1.850434782608696 0 0  1.86695652173913 0 0  1.883478260869565 0 0  1.9 0 0  1.916521739130435 0 0  1.933043478260869 0 0  1.949565217391304 0 0  1.966086956521739 0 0  1.982608695652174 0 0  1.999130434782608 0 0  2.015652173913043 0 0  2.032173913043478 0 0  2.048695652173913 0 0  2.065217391304348 0 0  2.081739130434782 0 0  2.098260869565217 0 0  2.114782608695652 0 0  2.131304347826087 0 0  2.147826086956522 0 0  2.164347826086956 0 0  2.180869565217391 0 0  2.197391304347826 0 0  2.213913043478261 0 0  2.230434782608695 0 0  2.24695652173913 0 0  2.263478260869565 0 0  2.28 0 0  2.296521739130434 0 0  2.31304347826087 0 0  2.329565217391304 0 0  2.346086956521739 0 0  2.362608695652174 0 0  2.379130434782609 0 0  2.395652173913044 0 0  2.412173913043478 0 0  2.428695652173913 0 0  2.445217391304348 0 0  2.461739130434782 0 0  2.478260869565217 0 0  2.494782608695652 0 0  2.511304347826087 0 0  2.527826086956522 0 0  2.544347826086956 0 0  2.560869565217391 0 0  2.577391304347826 0 0  2.593913043478261 0 0  2.610434782608696 0 0  2.62695652173913 0 0  2.643478260869565 0 0  2.66 0 0  2.676521739130435 0 0  2.693043478260869 0 0  2.709565217391304 0 0  2.726086956521739 0 0  2.742608695652174 0 0  2.759130434782609 0 0  2.775652173913044 0 0  2.792173913043478 0 0  2.808695652173913 0 0  2.825217391304347 0 0  2.841739130434783 0 0  2.858260869565217 0 0  2.874782608695652 0 0  2.891304347826087 0 0  2.907826086956522 0 0  2.924347826086957 0 0  2.940869565217391 0 0  2.957391304347826 0 0  2.973913043478261 0 0  2.990434782608696 0 0  3.006956521739131 0 0  3.023478260869565 0 0  3.04 0 0  3.056521739130435 0 0  3.073043478260869 0 0  3.089565217391304 0 0  3.106086956521739 0 0  3.122608695652174 0 0  3.139130434782609 0 0  3.155652173913043 0 0  3.172173913043478 0 0  3.188695652173913 0 0  3.205217391304347 0 0  3.221739130434782 0 0  3.238260869565217 0 0  3.254782608695652 0 0  3.271304347826087 0 0  3.287826086956521 0 0  3.304347826086957 0 0  3.320869565217391 0 0  3.337391304347826 0 0  3.353913043478261 0 0  3.370434782608696 0 0  3.386956521739131 0 0  3.403478260869565 0 0  3.419999999999999 0 0  3.436521739130435 0 0  3.453043478260869 0 0  3.469565217391304 0 0  3.486086956521739 0 0  3.502608695652174 0 0  3.519130434782609 0 0  3.535652173913043 0 0  3.552173913043478 0 0  3.568695652173913 0 0  3.585217391304347 0 0  3.601739130434782 0 0  3.618260869565217 0 0  3.634782608695652 0 0  3.651304347826087 0 0  3.667826086956521 0 0  3.684347826086956 0 0  3.700869565217391 0 0  3.717391304347826 0 0  3.733913043478261 0 0  3.750434782608695 0 0  3.766956521739131 0 0  3.783478260869565 0 0  3.8 0 0  0 0.01666666666666667 0  0.01652173913043478 0.01666666666666667 0  0.03304347826086956 0.01666666666666667 0  0.04956521739130434 0.01666666666666667 0  0.06608695652173913 0.01666666666666667 0  0.08260869565217391 0.01666666666666667 0  0.09913043478260869 0.01666666666666667 0  0.1156521739130435 0.01666666666666667 0  0.1321739130434783 0.01666666666666667 0  0.148695652173913 0.01666666666666667 0  0.1652173913043478 0.01666666666666667 0  0.1817391304347826 0.01666666666666667 0  0.1982608695652174 0.01666666666666667 0  0.2147826086956522 0.01666666666666667 0  0.2313043478260869 0.01666666666666667 0  0.2478260869565218 0.01666666666666667 0  0.2643478260869565 0.01666666666666667 0  0.2808695652173913 0.01666666666666667 0  0.2973913043478261 0.01666666666666667 0  0.3139130434782609 0.01666666666666667 0  0.3304347826086956 0.01666666666666667 0  0.3469565217391304 0.01666666666666667 0  0.3634782608695652 0.01666666666666667 0  0.3799999999999999 0.01666666666666667 0  0.3965217391304348 0.01666666666666667 0  0.4130434782608696 0.01666666666666667 0  0.4295652173913043 0.01666666666666667 0  0.4460869565217391 0.01666666666666667 0  0.4626086956521739 0.01666666666666667 0  0.4791304347826086 0.01666666666666667 0  0.4956521739130435 0.01666666666666667 0  0.5121739130434783 0.01666666666666667 0  0.528695652173913 0.01666666666666667 0  0.5452173913043478 0.01666666666666667 0  0.5617391304347825 0.01666666666666667 0  0.5782608695652174 0.01666666666666667 0  0.5947826086956521 0.01666666666666667 0  0.6113043478260869 0.01666666666666667 0  0.6278260869565218 0.01666666666666667 0  0.6443478260869565 0.01666666666666667 0  0.6608695652173913 0.01666666666666667 0  0.677391304347826 0.01666666666666667 0  0.6939130434782609 0.01666666666666667 0  0.7104347826086956 0.01666666666666667 0  0.7269565217391304 0.01666666666666667 0  0.7434782608695653 0.01666666666666667 0  0.7599999999999999 0.01666666666666667 0  0.7765217391304348 0.01666666666666667 0  0.7930434782608695 0.01666666666666667 0  0.8095652173913043 0.01666666666666667 0  0.8260869565217391 0.01666666666666667 0  0.8426086956521739 0.01666666666666667 0  0.8591304347826086 0.01666666666666667 0  0.8756521739130434 0.01666666666666667 0  0.8921739130434783 0.01666666666666667 0  0.908695652173913 0.01666666666666667 0  0.9252173913043478 0.01666666666666667 0  0.9417391304347826 0.01666666666666667 0  0.9582608695652173 0.01666666666666667 0  0.9747826086956521 0.01666666666666667 0  0.991304347826087 0.01666666666666667 0  1.007826086956522 0.01666666666666667 0  1.024347826086957 0.01666666666666667 0  1.040869565217391 0.01666666666666667 0  1.057391304347826 0.01666666666666667 0  1.073913043478261 0.01666666666666667 0  1.090434782608696 0.01666666666666667 0  1.10695652173913 0.01666666666666667 0  1.123478260869565 0.01666666666666667 0  1.14 0.01666666666666667 0  1.156521739130435 0.01666666666666667 0  1.17304347826087 0.01666666666666667 0  1.189565217391304 0.01666666666666667 0  1.206086956521739 0.01666666666666667 0  1.222608695652174 0.01666666666666667 0  1.239130434782609 0.01666666666666667 0  1.255652173913044 0.01666666666666667 0  1.272173913043478 0.01666666666666667 0  1.288695652173913 0.01666666666666667 0  1.305217391304348 0.01666666666666667 0  1.321739130434783 0.01666666666666667 0  1.338260869565217 0.01666666666666667 0  1.354782608695652 0.01666666666666667 0  1.371304347826087 0.01666666666666667 0  1.387826086956522 0.01666666666666667 0  1.404347826086957 0.01666666666666667 0  1.420869565217391 0.01666666666666667 0  1.437391304347826 0.01666666666666667 0  1.453913043478261 0.01666666666666667 0  1.470434782608696 0.01666666666666667 0  1.486956521739131 0.01666666666666667 0  1.503478260869565 0.01666666666666667 0  1.52 0.01666666666666667 0  1.536521739130435 0.01666666666666667 0  1.55304347826087 0.01666666666666667 0  1.569565217391304 0.01666666666666667 0  1.586086956521739 0.01666666666666667 0  1.602608695652174 0.01666666666666667 0  1.619130434782609 0.01666666666666667 0  1.635652173913043 0.01666666666666667 0  1.652173913043478 0.01666666666666667 0  1.668695652173913 0.01666666666666667 0  1.685217391304348 0.01666666666666667 0  1.701739130434782 0.01666666666666667 0  1.718260869565217 0.01666666666666667 0  1.734782608695652 0.01666666666666667 0  1.751304347826087 0.01666666666666667 0  1.767826086956522 0.01666666666666667 0  1.784347826086957 0.01666666666666667 0  1.800869565217391 0.0166666666666666
[...]
<PointData  Vectors="Displacement"> 
<DataArray  type="Float64"  Name="Displacement"  NumberOfComponents="3" format="ascii">0.0000000000000000e+00 0.0000000000000000e+00 0.0000000000000000e+00  5.7109524925245811e-06 3.3897598791640940e-06 0.0000000000000000e+00  1.0967440625083534e-05 7.2954206517912864e-06 0.0000000000000000e+00  1.6151883165400365e-05 1.2924216649892926e-05 0.0000000000000000e+00  2.1281877781617793e-05 2.0493696956974089e-05 0.0000000000000000e+00  2.6328125034115669e-05 3.0060882653147661e-05 0.0000000000000000e+00  3.1245468837221497e-05 4.1617613532711870e-05 0.0000000000000000e+00  3.5992571484996299e-05 5.5098932990146173e-05 0.0000000000000000e+00  4.0553477052776008e-05 7.0406676367718577e-05 0.0000000000000000e+00  4.4924612078616190e-05 8.7432155071483092e-05 0.0000000000000000e+00  4.9088393024424124e-05 1.0611241730213426e-04 0.0000000000000000e+00  5.3012915330213243e-05 1.2634063047478893e-04 0.0000000000000000e+00  5.6667623715345428e-05 1.4796142859859236e-04 0.0000000000000000e+00  6.0035741379845682e-05 1.7078699628637377e-04 0.0000000000000000e+00  6.3102427625620522e-05 1.9462067217268888e-04 0.0000000000000000e+00  6.5859272513925265e-05 2.1925880205239776e-04 0.0000000000000000e+00  6.8302424165308520e-05 2.4449015717361639e-04 0.0000000000000000e+00  7.0430090960982549e-05 2.7010165818331565e-04 0.0000000000000000e+00  7.2244498570274917e-05 2.9588131708007748e-04 0.0000000000000000e+00  7.3751141715953147e-05 3.2162186323142033e-04 0.0000000000000000e+00  7.4961283651636321e-05 3.4712623647408522e-04 0.0000000000000000e+00  7.5885330502917239e-05 3.7221720359348993e-04 0.0000000000000000e+00  7.6524123725287734e-05 3.9672316048582252e-04 0.0000000000000000e+00  7.6894673698157658e-05 4.2045528979135381e-04 0.0000000000000000e+00  7.7053086455384161e-05 4.4326653701791255e-04 0.0000000000000000e+00  7.7057132357469566e-05 4.6513244029033418e-04 0.0000000000000000e+00  7.6919798343459293e-05 4.8609114968283673e-04 0.0000000000000000e+00  7.6629206944874419e-05 5.0612119745574544e-04 0.0000000000000000e+00  7.6206954133962792e-05 5.2512525047351832e-04 0.0000000000000000e+00  7.5717253576166216e-05 5.4305433163462521e-04 0.0000000000000000e+00  7.5231144411137547e-05 5.5996326070458164e-04 0.0000000000000000e+00  7.4795451764049392e-05 5.7597218903727672e-04 0.0000000000000000e+00  7.4435295609673622e-05 5.9120062587268935e-04 0.0000000000000000e+00  7.4182973788428639e-05 6.0573306089857677e-04 0.0000000000000000e+00  7.4094552522143149e-05 6.1965188228071705e-04 0.0000000000000000e+00  7.4256691770741535e-05 6.3305211788772708e-04 0.0000000000000000e+00  7.4787830069318850e-05 6.4606064698709493e-04 0.0000000000000000e+00  7.5806755765295763e-05 6.5889385427467684e-04 0.0000000000000000e+00  7.7386537159366853e-05 6.7186140327836746e-04 0.0000000000000000e+00  7.9524096648517985e-05 6.8532089346128001e-04 0.0000000000000000e+00  8.2126851715587102e-05 6.9962634421645185e-04 0.0000000000000000e+00  8.5059007840669669e-05 7.1501488479423032e-04 0.0000000000000000e+00  8.8207994278906825e-05 7.3159748544954380e-04 0.0000000000000000e+00  9.1498818596583744e-05 7.4945493237761444e-04 0.0000000000000000e+00  9.4866632452424182e-05 7.6865976363417357e-04 0.0000000000000000e+00  9.8251418723584633e-05 7.8925911822576831e-04 0.0000000000000000e+00  1.0162844265114424e-04 8.1124473277579211e-04 0.0000000000000000e+00  1.0498634443412550e-04 8.3461051968976806e-04 0.0000000000000000e+00  1.0829674532185508e-04 8.5939882263050987e-04 0.0000000000000000e+00  1.1153068144706507e-04 8.8558708404756162e-04 0.0000000000000000e+00  1.1467270246312150e-04 9.1310679982547431e-04 0.0000000000000000e+00  1.1772860205958618e-04 9.4190646491467398e-04 0.0000000000000000e+00  1.2069067991839444e-04 9.7195785137589000e-04 0.0000000000000000e+00  1.2354276346926101e-04 1.0032183677848542e-03 0.0000000000000000e+00  1.2627335351508335e-04 1.0356194931346186e-03 0.0000000000000000e+00  1.2886897205037368e-04 1.0690653057424061e-03 0.0000000000000000e+00  1.3131606506586757e-04 1.1034629126578693e-03 0.0000000000000000e+00  1.3360271862458749e-04 1.1386904233131579e-03 0.0000000000000000e+00  1.3572346860578149e-04 1.1746180774068725e-03 0.0000000000000000e+00  1.3767477398796168e-04 1.2111126746359939e-03 0.0000000000000000e+00  1.3945548317519124e-04 1.2480413058707004e-03 0.0000000000000000e+00  1.4106516647953378e-04 1.2852713226697756e-03 0.0000000000000000e+00  1.4250368063255706e-04 1.3226701793154826e-03 0.0000000000000000e+00  1.4377098787669130e-04 1.3601053809159875e-03 0.0000000000000000e+00  1.4486707292826425e-04 1.3974444500343148e-03 0.0000000000000000e+00  1.4579192018131994e-04 1.4345548571849268e-03 0.0000000000000000e+00  1.4654545500651463e-04 1.4713037828535227e-03 0.0000000000000000e+00  1.4712779994976462e-04 1.5075577988458812e-03 0.0000000000000000e+00  1.4754005600897988e-04 1.5431832510101554e-03 0.0000000000000000e+00  1.4778629251961976e-04 1.5780487541015131e-03 0.0000000000000000e+00  1.4787233589331361e-04 1.6120325460137579e-03 0.0000000000000000e+00  1.4780324876603642e-04 1.6450224955729151e-03 0.0000000000000000e+00  1.4758219254267118e-04 1.6769121752731437e-03 0.0000000000000000e+00  1.4720574676338114e-04 1.7075989372063313e-03 0.0000000000000000e+00  1.4666349831659497e-04 1.7369677509103938e-03 0.0000000000000000e+00  1.4594600119877005e-04 1.7648796589220437e-03 0.0000000000000000e+00  1.4505063163413616e-04 1.7911827396209711e-03 0.0000000000000000e+00  1.4398193474899137e-04 1.8157248936352774e-03 0.0000000000000000e+00  1.4275938761114393e-04 1.8383589994864914e-03 0.0000000000000000e+00  1.4142970149019950e-04 1.8589728053418878e-03 0.0000000000000000e+00  1.4003535030025787e-04 1.8775476521033136e-03 0.0000000000000000e+00  1.3861224784566820e-04 1.8941146539878980e-03 0.0000000000000000e+00  1.3721732989179134e-04 1.9087164173562552e-03 0.0000000000000000e+00  1.3588002713344402e-04 1.9215006411537907e-03 0.0000000000000000e+00  1.3459268977179033e-04 1.9326490389789013e-03 0.0000000000000000e+00  1.3337672715657610e-04 1.9422480458805452e-03 0.0000000000000000e+00  1.3227614516611396e-04 1.9504343715804713e-03 0.0000000000000000e+00  1.3132577751422597e-04 1.9574310728476480e-03 0.0000000000000000e+00  1.3055234130821198e-04 1.9634232190392795e-03 0.0000000000000000e+00  1.2997385377607823e-04 1.9685873083978961e-03 0.0000000000000000e+00  1.2962421849466139e-04 1.9730596725678769e-03 0.0000000000000000e+00  1.2958415867018105e-04 1.9769356485071520e-03 0.0000000000000000e+00  1.2999978369056505e-04 1.9803173030615981e-03 0.0000000000000000e+00  1.3105477737833729e-04 1.9834113831829533e-03 0.0000000000000000e+00  1.3291451213555733e-04 1.9865649493035851e-03 0.0000000000000000e+00  1.3568819380993765e-04 1.9902235290993752e-03 0.0000000000000000e+00  1.3941572068880306e-04 1.9948883498625202e-03 0.0000000000000000e+00  1.4406704992841855e-04 2.0010875471232446e-03 0.0000000000000000e+00  1.4956583241273715e-04 2.0093136873300674e-03 0.0000000000000000e+00  1.5582615942573303e-04 2.0199963961030206e-03 0.0000000000000000e+00  1.6276858232927504e-04 2.0335596847074889e-03 0.0000000000000000e+00  1.7033302551594965e-04 2.0504195005187553e-03 0.0000000000000000e+00  1.7845801409553346e-04 2.0710091210161883e-03 0.0000000000000000e+00  1.8711988609344045e-04 2.0957070828373191e-03 0.0000000000000000e+00  1.9631557424645472e-04 2.1249611771003252e-03 0.0000000000000000e+00  2.0597064547082938e-04 2.1592826027531471e-03 0.0000000000000000e+00  2.1593033909945178e-04 2.1990881628103183e-03 0.0000000000000000e+00  2.2601911310907619e-04 2.2445657492382665e-03 0.0000000000000000e+00  2.3610162286932508e-04 2.2957137743640408e-03 0.0000000000000000e+00  2.4610483830930010e-04 2.3524529067773452e-03 0.0000000000000000e+00  2.5599664014908612e-04 2.4146911357051039e-03 0.0000000000000000e+00  2.6577070198043615e-04 2.4823418535772131e-03 0.0000000000000000e+00  2.7543589725210923e-04 2.5553313001707295e-03 0.0000000000000000e+00  2.8501503386384994e-04 2.6336048389112576e-03 0.0000000000000000e+00  2.9455587230166222e-04 2.7171500162249578e-03 0.0000000000000000e+00  3.0410915715740010e-04 2.8060224778389460e-03 0.0000000000000000e+00  3.1371029743990645e-04 2.9003355808986573e-03 0.0000000000000000e+00  3.2342018063473486e-04 3.0002493669694444e-03 0.0000000000000000e+00  3.3332120858798860e-04 3.1059768243829004e-03 0.0000000000000000e+00  3.4339367455327071e-04 3.2179121631781466e-03 0.0000000000000000e+00  3.5353891882363391e-04 3.3362871406663356e-03 0.0000000000000000e+00  3.6378375647618774e-04 3.4610715525347862e-03 0.0000000000000000e+00  3.7431456479100405e-04 3.5924022649499680e-03 0.0000000000000000e+00  3.8532935662907264e-04 3.7308673349596513e-03 0.0000000000000000e+00  3.9688735226604057e-04 3.8773134306685181e-03 0.0000000000000000e+00  4.0900638028262587e-04 4.0324820419859221e-03 0.0000000000000000e+00  4.2150184415114055e-04 4.1971055651176129e-03 0.0000000000000000e+00  4.3439497397052316e-04 4.3713532165749946e-03 0.0000000000000000e+00  4.4790469621684844e-04 4.5564866868254700e-03 0.0000000000000000e+00  4.6213764231318967e-04 4.7540886019207182e-03 0.0000000000000000e+00  4.7692769867947347e-04 4.9649730655311804e-03 0.0000000000000000e+00  4.9267277804673293e-04 5.1908293194012842e-03 0.0000000000000000e+00  5.1001617328571105e-04 5.4357037352653365e-03 0.0000000000000000e+00  5.2816030778393155e-04 5.7033309995065482e-03 0.0000000000000000e+00  5.4681933463608928e-04 5.9954438323075350e-03 0.0000000000000000e+00  5.6522770927042360e-04 6.3120303115409915e-03 0.0000000000000000e+00  5.8380230867906367e-04 6.6528506126475933e-03 0.0000000000000000e+00  6.0249206799809461e-04 7.0189131944440302e-03 0.0000000000000000e+00  6.2102085736060939e-04 7.4110686650200059e-03 0.0000000000000000e+00  6.3933939528976495e-04 7.8292800092857381e-03 0.0000000000000000e+00  6.5743520030621904e-04 8.2733701602720772e-03 0.0000000000000000e+00  6.7530847922710885e-04 8.7433025757471267e-03 0.0000000000000000e+00  6.9291857595009073e-04 9.2390312491619376e-03 0.0000000000000000e+00  7.1019726883192751e-04 9.7603037790081094e-03 0.0000000000000000e+00  7.2717243364714662e-04 1.0306594034514739e-02 0.0000000000000000e+00  7.4341620082138610e-04 1.0876822668168300e-02 0.0000000000000000e+00  7.5871881674616844e-04 1.1468812417892762e-02 0.0000000000000000e+00  7.7345111809985550e-04 1.2080534446184659e-02 0.0000000000000000e+00  7.8769299753622863e-04 1.2711084172011944e-02 0.0000000000000000e+00  8.0153621134996221e-04 1.3360010477509890e-02 0.0000000000000000e+00  8.1489117164643382e-04 1.4026846899777255e-02 0.0000000000000000e+00  8.2781791510949697e-04 1.4711195073764975e-02 0.0000000000000000e+00  8.3998235399223697e-04 1.5412190026265775e-02 0.0000000000000000e+00  8.5123568380505890e-04 1.6127858695097797e-02 0.0000000000000000e+00  8.6158283198261394e-04 1.6856189623646788e-02 0.0000000000000000e+00  8.7107906119065939e-04 1.7595427576274848e-02 0.0000000000000000e+00  8.7969445691484503e-04 1.8343492261947539e-02 0.0000000000000000e+00  8.8775630900240229e-04 1.9099213307722226e-02 0.0000000000000000e+00  8.9548000597688493e-04 1.9862259825605567e-02 0.0000000000000000e+00  9.0290551858274691e-04 2.0632422390255353e-02 0.0000000000000000e+00  9.1005286449878848e-04 2.1409478386864557e-02 0.0000000000000000e+00  9.1683645153149826e-04 2.2193033829638917e-02 0.0000000000000000e+00  9.2317353378110168e-04 2.2982345659068319e-02 0.0000000000000000e+00  9.2911643946962802e-04 2.3776788954054388e-02 0.0000000000000000e+00  9.3466688329043993e-04 2.4575848759462532e-02 0.0000000000000000e+00  9.3988715865838790e-04 2.5378988755823770e-02 0.0000000000000000e+00  9.4488393367454435e-04 2.6186011417185007e-02 0.0000000000000000e+00  9.4968673799259167e-04 2.6996796580443599e-02 0.0000000000000000e+00  9.5428059690928324e-04 2.7811248402743644e-02 0.0000000000000000e+00  9.5859240764938807e-04 2.8629191141741145e-02 0.0000000000000000e+00  9.6256194676377655e-04 2.9450259811708013e-02 0.0000000000000000e+00  9.6616694676122375e-04 3.0274061787777345e-02 0.0000000000000000e+00  9.6941904692066083e-04 3.1100208209049129e-02 0.0000000000000000e+00  9.7238210276685648e-04 3.1928347529125579e-02 0.0000000000000000e+00  9.7512346856465522e-04 3.2758267194121705e-02 0.0000000000000000e+00  9.7767223409771665e-04 3.3589850207234026e-02 0.0000000000000000e+00  9.8003270429331620e-04 3.4422966931670566e-02 0.0000000000000000e+00  9.8221378181835941e-04 3.5257446894190150e-02 0.0000000000000000e+00  9.8422638516864149e-04 3.6093145917012327e-02 0.0000000000000000e+00  9.8608286586298276e-04 3.6929946094587211e-02 0.0000000000000000e+00  9.8780234218232162e-04 3.7767727536937350e-02 0.0000000000000000e+00  9.8940621418807523e-04 3.8606405425851857e-02 0.0000000000000000e+00  9.9090663609971734e-04 3.9445931487663788e-02 0.0000000000000000e+00  9.9230744082341900e-04 4.0286254345395275e-02 0.0000000000000000e+00  9.9360062463653073e-04 4.1127327187472258e-02 0.0000000000000000e+00  9.9477161152467007e-04 4.1969080682351778e-02 0.0000000000000000e+00  9.9580763392734099e-04 4.2811424614147775e-02 0.0000000000000000e+00  9.9670337481433087e-04 4.3654255948372446e-02 0.0000000000000000e+00  9.9746347477859369e-04 4.4497474561102146e-02 0.0000000000000000e+00  9.9809908641424177e-04 4.5340995835695654e-02 0.0000000000000000e+00  9.9861888474439922e-04 4.6184754784637704e-02 0.0000000000000000e+00  9.9902903518033653e-04 4.7028694049014219e-02 0.0000000000000000e+00  9.9932348082704949e-04 4.7872753638096267e-02 0.0000000000000000e+00  9.9951232162678785e-04 4.8716876574295603e-02 0.0000000000000000e+00  9.9956942783047229e-04 4.9560951594805981e-02 0.0000000000000000e+00  9.9962704407138012e-04 5.0405070664438570e-02 0.0000000000000000e+00  9.8661685209979312e-04 5.1240823232571515e-02 0.0000000000000000e+00  3.9137249365283813e-03 5.3846913747907559e-02 0.0000000000000000e+00  6.6464702823801017e-03 5.5042942082848552e-02 0.0000000000000000e+00  9.6774363867703980e-03 5.6744336255082926e-02 0.0000000000000000e+00  1.3067099587927991e-02 5.9175225857424775e-02 0.0000000000000000e+00  1.6697324587494813e-02 6.2395248736352618e-02 0.0000000000000000e+00  2.0526796987844237e-02 6.6124504881940924e-02 0.0000000000000000e+00  2.4544981200994190e-02 7.0349830635695262e-02 0.0000000000000000e+00  2.8687741573268730e-02 7.5174357119528620e-02 0.0000000000000000e+00  3.2828763990456790e-02 8.0700643946585215e-02 0.0000000000000000e+00  3.6806693306454683e-02 8.6965044228269880e-02 0.0000000000000000e+00  4.0457229440863510e-02 9.3924306552911202e-02 0.0000000000000000e+00  4.3644796996744083e-02 1.0145403613940947e-01 0.0000000000000000e+00  4.6282618039610840e-02 1.0937830291555702e-01 0.0000000000000000e+00  4.8336477056494000e-02 1.1750612837601611e-01 0.0000000000000000e+00  4.9817094834449668e-02 1.2565895047355508e-01 0.0000000000000000e+00  5.0767807282952312e-02 1.3368595383766260e-01 0.0000000000000000e+00  5.1252179721409948e-02 1.4146977987385267e-01 0.0000000000000000e+00  5.1343782663623473e-02 1.4892618835145946e-01 0.0000000000000000e+00  5.1118733947957622e-02 1.5600058650298343e-01 0.0000000000000000e+00  5.0650780856929568e-02 1.6266336365383485e-01 0.0000000000000000e+00  5.0008383642263461e-02 1.6890515377054327e-01 0.0000000000000000e+00  4.9253223578749603e-02 1.7473258833672711e-01 0.0000000000000000e+00  4.8439636501167060e-02 1.8016475859385725e-01 0.0000000000000000e+00  4.7614581543112787e-02 1.8523041362732801e-01 0.0000000000000000e+00  4.6817855354722715e-02 1.8996582126683512e-01 0.0000000000000000e+00  4.6082340453574691e-02 1.9441316994616176e-01 0.0000000000000000e+00  4.5434130609450257e-02 1.9861936221013504e-01 0.0000000000000000e+00  4.4892409428011114e-02 2.0263502234092365e-01 0.0000000000000000e+00  4.4468976365511885e-02 2.0651348927883550e-01 0.0000000000000000e+00  4.4167326748110233e-02 2.1030945874627560e-01 0.0000000000000000e+00  4.3981218238381255e-02 2.1407671107096701e-01 0.0000000000000000e+00  4.3892743100136633e-02 2.1786387211973568e-01 0.0000000000000000e+00  4.3870237543897697e-02 2.2170614020608637e-01 0.0000000000000000e+00  4.3868526443434114e-02 2.2561080930893587e-01 0.0000000000000000e+00  0.0000000000000000e+00 0.0000000000000000e+00 0.0000000000000000e+00  2.8778398607160698e-06 1.6186093700766166e-06 0.0000000000000000e+00  6.2669617319398030e-06 5.4751996152826791e-06 0.0000000000000000e+00  9.5510127714588720e-06 1.1118102671264070e-05 0.0000000000000000e+00  1.2732959549463132e-05 1.8711835385915260e-05 0.0000000000000000e+00  1.5825521649330860e-05 2.8314659398183317e-05 0.0000000000000000e+00  1.8823201087326480e-05 3.9919227554024480e-05 0.0000000000000000e+00  2.1723335425818911e-05 5.3461212360148450e-05 0.0000000000000000e+00  2.4516626687334815e-05 6.8832262570986405e-05 0.0000000000000000e+00  2.7207287929344249e-05 8.5911618739784910e-05 0.0000000000000000e+00  2.9799632848848196e-05 1.0465591878048672e-04 0.0000000000000000e+00  3.2284219654406742e-05 1.2495689756133891e-04 0.0000000000000000e+00  3.4664604244192793e-05 1.4666112130661259e-04 0.0000000000000000e+00  3.6935430487183469e-05 1.6957242838821170e-04 0.0000000000000000e+00  3.9098786847583465e-05 1.9349411987724634e-04 0.0000000000000000e+00  4.1157442637527230e-05 2.1822352122148877e-04 0.0000000000000000e+00  4.3109515155132416e-05 2.4354685648539745e-04 0.0000000000000000e+00  4.4955559996930350e-05 2.6925126984717171e-04 0.0000000000000000e+00  4.6694645206571334e-05 2.9512475930342771e-04 0.0000000000000000e+00  4.8323131355006677e-05 3.2095758712994549e-04 0.0000000000000000e+00  4.9841953440150560e-05 3.4654915965253244e-04 0.0000000000000000e+00  5.1254739487208400e-05 3.7172854373819308e-04 0.0000000000000000e+00  5.2549614539744397e-05 3.9633327901402544e-04 0.0000000000000000e+00  5.3709438554800917e-05 4.2016175443708112e-04 0.0000000000000000e+00  5.4734787102473471e-05 4.4304235659777447e-04 0.0000000000000000e+00  5.5640815921356902e-05 4.6495632618917375e-04 0.0000000000000000e+00  5.6433383967651788e-05 4.8597069270335703e-04 0.0000000000000000e+00  5.7103880116419697e-05 5.0607005284885286e-04 0.0000000000000000e+00  5.7662176500745447e-05 5.2513199749958561e-04 0.0000000000000000e+00  5.8133978802975683e-05 5.4308985143270794e-04 0.0000000000000000e+00  5.8547109479178138e-05 5.6000240159764802e-04 0.0000000000000000e+00  5.8919603704345327e-05 5.7600408919358077e-04 0.0000000000000000e+00  5.9263483004341213e-05 5.9122108222481079e-04 0.0000000000000000e+00  5.9602697852497200e-05 6.0572865751565524e-04 0.0000000000000000e+00  5.9978515690316859e-05 6.1959834075580764e-04 0.0000000000000000e+00  6.0454315481830622e-05 6.3291169095041721e-04 0.0000000000000000e+00  6.1117302662382113e-05 6.4578154556248289e-04 0.0000000000000000e+00  6.2051653475801905e-05 6.5843024591897897e-04 0.0000000000000000e+00  6.3304882841530149e-05 6.7119350663369620e-04 0.0000000000000000e+00  6.4867087733994861e-05 6.8446297390308236e-04 0.0000000000000000e+00  6.6665056458354809e-05 6.9862966102713340e-04 0.0000000000000000e+00  6.8606009941350613e-05 7.1393564101649451e-04 0.0000000000000000e+00  7.0622991297975959e-05 7.3046767482105716e-04 0.0000000000000000e+00  7.2676940640867681e-05 7.4829357234198514e-04 0.0000000000000000e+00  7.4738063173965301e-05 7.6748337546793226e-04 0.0000000000000000e+00  7.6782399193208286e-05 7.8809128644356850e-04 0.0000000000000000e+00  7.8786907230329152e-05 8.1008863648239873e-04 0.0000000000000000e+00  8.0754017116329343e-05 8.3345689001602225e-04 0.0000000000000000e+00  8.2687648291248486e-05 8.5826477181615186e-04 0.0000000000000000e+00  8.4572435916700376e-05 8.8448229709688184e-04 0.0000000000000000e+00  8.6409983474740088e-05 9.1203174081479004e-04 0.0000000000000000e+00  8.8199622166787870e-05 9.4085816696950521e-04 0.0000000000000000e+00  8.9935771295556312e-05 9.7093267781685536e-04 0.0000000000000000e+