<?xml version="1.0"?>
<VTKFile type="UnstructuredGrid"  version="0.1"  >
<UnstructuredGrid>
<Piece  NumberOfPoints="7161" NumberOfCells="13800">
<Points>
<DataArray  type="Float64"  NumberOfComponents="3"  format="ascii">0 0 0  0.01652173913043478 0 0  0.03304347826086956 0 0  0.04956521739130434 0 0  0.06608695652173913 0 0  0.08260869565217391 0 0  0.09913043478260869 0 0  0.1156521739130435 0 0  0.1321739130434783 0 0  0.148695652173913 0 0  0.1652173913043478 0 0  0.1817391304347826 0 0  0.1982608695652174 0 0  0.2147826086956522 0 0  0.2313043478260869 0 0  0.2478260869565218 0 0  0.2643478260869565 0 0  0.2808695652173913 0 0  0.2973913043478261 0 0  0.3139130434782609 0 0  0.3304347826086956 0 0  0.3469565217391304 0 0  0.3634782608695652 0 0  0.3799999999999999 0 0  0.3965217391304348 0 0  0.4130434782608696 0 0  0.4295652173913043 0 0  0.4460869565217391 0 0  0.4626086956521739 0 0  0.4791304347826086 0 0  0.4956521739130435 0 0  0.5121739130434783 0 0  0.528695652173913 0 0  0.5452173913043478 0 0  0.5617391304347825 0 0  0.5782608695652174 0 0  0.5947826086956521 0 0  0.6113043478260869 0 0  0.6278260869565218 0 0  0.6443478260869565 0 0  0.6608695652173913 0 0  0.677391304347826 0 0  0.6939130434782609 0 0  0.7104347826086956 0 0  0.7269565217391304 0 0  0.7434782608695653 0 0  0.7599999999999999 0 0  0.7765217391304348 0 0  0.7930434782608695 0 0  0.8095652173913043 0 0  0.8260869565217391 0 0  0.8426086956521739 0 0  0.8591304347826086 0 0  0.8756521739130434 0 0  0.8921739130434783 0 0  0.908695652173913 0 0  0.9252173913043478 0 0  0.9417391304347826 0 0  0.9582608695652173 0 0  0.9747826086956521 0 0  0.991304347826087 0 0  1.007826086956522 0 0  1.024347826086957 0 0  1.040869565217391 0 0  1.057391304347826 0 0  1.073913043478261 0 0  1.090434782608696 0 0  1.10695652173913 0 0  1.123478260869565 0 0  1.14 0 0  1.156521739130435 0 0  1.17304347826087 0 0  1.189565217391304 0 0  1.206086956521739 0 0  1.222608695652174 0 0  1.239130434782609 0 0  1.255652173913044 0 0  1.272173913043478 0 0  1.288695652173913 0 0  1.305217391304348 0 0  1.321739130434783 0 0  1.338260869565217 0 0  1.354782608695652 0 0  1.371304347826087 0 0  1.387826086956522 0 0  1.404347826086957 0 0  1.420869565217391 0 0  1.437391304347826 0 0  1.453913043478261 0 0  1.470434782608696 0 0  1.486956521739131 0 0  1.503478260869565 0 0  1.52 0 0  1.536521739130435 0 0  1.55304347826087 0 0  1.569565217391304 0 0  1.586086956521739 0 0  1.602608695652174 0 0  1.619130434782609 0 0  1.635652173913043 0 0  1.652173913043478 0 0  1.668695652173913 0 0  1.685217391304348 0 0  1.701739130434782 0 0  1.718260869565217 0 0  1.734782608695652 0 0  1.751304347826087 0 0  1.767826086956522 0 0  1.784347826086957 0 0  1.800869565217391 0 0  1.817391304347826 0 0  1.833913043478261 0 0  1.850434782608696 0 0  1.86695652173913 0 0  1.883478260869565 0 0  1.9 0 0  1.916521739130435 0 0  1.933043478260869 0 0  1.949565217391304 0 0  1.966086956521739 0 0  1.982608695652174 0 0  1.999130434782608 0 0  2.015652173913043 0 0  2.032173913043478 0 0  2.048695652173913 0 0  2.065217391304348 0 0  2.081739130434782 0 0  2.098260869565217 0 0  2.114782608695652 0 0  2.131304347826087 0 0  2.147826086956522 0 0  2.164347826086956 0 0  2.180869565217391 0 0  2.197391304347826 0 0  2.213913043478261 0 0  2.230434782608695 0 0  2.24695652173913 0 0  2.263478260869565 0 0  2.28 0 0  2.296521739130434 0 0  2.31304347826087 0 0  2.329565217391304 0 0  2.346086956521739 0 0  2.362608695652174 0 0  2.379130434782609 0 0  2.395652173913044 0 0  2.412173913043478 0 0  2.428695652173913 0 0  2.445217391304348 0 0  2.461739130434782 0 0  2.478260869565217 0 0  2.494782608695652 0 0  2.511304347826087 0 0  2.527826086956522 0 0  2.544347826086956 0 0  2.560869565217391 0 0  2.577391304347826 0 0  2.593913043478261 0 0  2.610434782608696 0 0  2.62695652173913 0 0  2.643478260869565 0 0  2.66 0 0  2.676521739130435 0 0  2.693043478260869 0 0  2.709565217391304 0 0  2.726086956521739 0 0  2.742608695652174 0 0  2.759130434782609 0 0  2.775652173913044 0 0  2.792173913043478 0 0  2.808695652173913 0 0  2.825217391304347 0 0  2.841739130434783 0 0  2.858260869565217 0 0  2.874782608695652 0 0  2.891304347826087 0 0  2.907826086956522 0 0  2.924347826086957 0 0  2.940869565217391 0 0  2.957391304347826 0 0  2.973913043478261 0 0  2.990434782608696 0 0  3.006956521739131 0 0  3.023478260869565 0 0  3.04 0 0  3.056521739130435 0 0  3.073043478260869 0 0  3.089565217391304 0 0  3.106086956521739 0 0  3.122608695652174 0 0  3.139130434782609 0 0  3.155652173913043 0 0  3.172173913043478 0 0  3.188695652173913 0 0  3.205217391304347 0 0  3.221739130434782 0 0  3.238260869565217 0 0  3.254782608695652 0 0  3.271304347826087 0 0  3.287826086956521 0 0  3.304347826086957 0 0  3.320869565217391 0 0  3.337391304347826 0 0  3.353913043478261 0 0  3.370434782608696 0 0  3.386956521739131 0 0  3.403478260869565 0 0  3.419999999999999 0 0  3.436521739130435 0 0  3.453043478260869 0 0  3.469565217391304 0 0  3.486086956521739 0 0  3.502608695652174 0 0  3.519130434782609 0 0  3.535652173913043 0 0  3.552173913043478 0 0  3.568695652173913 0 0  3.585217391304347 0 0  3.601739130434782 0 0  3.618260869565217 0 0  3.634782608695652 0 0  3.651304347826087 0 0  3.667826086956521 0 0  3.684347826086956 0 0  3.700869565217391 0 0  3.717391304347826 0 0  3.733913043478261 0 0  3.750434782608695 0 0  3.766956521739131 0 0  3.783478260869565 0 0  3.8 0 0  0 0.01666666666666667 0  0.01652173913043478 0.01666666666666667 0  0.03304347826086956 0.01666666666666667 0  0.04956521739130434 0.01666666666666667 0  0.06608695652173913 0.01666666666666667 0  0.08260869565217391 0.01666666666666667 0  0.09913043478260869 0.01666666666666667 0  0.1156521739130435 0.01666666666666667 0  0.1321739130434783 0.01666666666666667 0  0.148695652173913 0.01666666666666667 0  0.1652173913043478 0.01666666666666667 0  0.1817391304347826 0.01666666666666667 0  0.1982608695652174 0.01666666666666667 0  0.2147826086956522 0.01666666666666667 0  0.2313043478260869 0.01666666666666667 0  0.2478260869565218 0.01666666666666667 0  0.2643478260869565 0.01666666666666667 0  0.2808695652173913 0.01666666666666667 0  0.2973913043478261 0.01666666666666667 0  0.3139130434782609 0.01666666666666667 0  0.3304347826086956 0.01666666666666667 0  0.3469565217391304 0.01666666666666667 0  0.3634782608695652 0.01666666666666667 0  0.3799999999999999 0.01666666666666667 0  0.3965217391304348 0.01666666666666667 0  0.4130434782608696 0.01666666666666667 0  0.4295652173913043 0.01666666666666667 0  0.4460869565217391 0.01666666666666667 0  0.4626086956521739 0.01666666666666667 0  0.4791304347826086 0.01666666666666667 0  0.4956521739130435 0.01666666666666667 0  0.5121739130434783 0.01666666666666667 0  0.528695652173913 0.01666666666666667 0  0.5452173913043478 0.01666666666666667 0  0.5617391304347825 0.01666666666666667 0  0.5782608695652174 0.01666666666666667 0  0.5947826086956521 0.01666666666666667 0  0.6113043478260869 0.01666666666666667 0  0.6278260869565218 0.01666666666666667 0  0.6443478260869565 0.01666666666666667 0  0.6608695652173913 0.01666666666666667 0  0.677391304347826 0.01666666666666667 0  0.6939130434782609 0.01666666666666667 0  0.7104347826086956 0.01666666666666667 0  0.7269565217391304 0.01666666666666667 0  0.7434782608695653 0.01666666666666667 0  0.7599999999999999 0.01666666666666667 0  0.7765217391304348 0.01666666666666667 0  0.7930434782608695 0.01666666666666667 0  0.8095652173913043 0.01666666666666667 0  0.8260869565217391 0.01666666666666667 0  0.8426086956521739 0.01666666666666667 0  0.8591304347826086 0.01666666666666667 0  0.8756521739130434 0.01666666666666667 0  0.8921739130434783 0.01666666666666667 0  0.908695652173913 0.01666666666666667 0  0.9252173913043478 0.01666666666666667 0  0.9417391304347826 0.01666666666666667 0  0.9582608695652173 0.01666666666666667 0  0.9747826086956521 0.01666666666666667 0  0.991304347826087 0.01666666666666667 0  1.007826086956522 0.01666666666666667 0  1.024347826086957 0.01666666666666667 0  1.040869565217391 0.01666666666666667 0  1.057391304347826 0.01666666666666667 0  1.073913043478261 0.01666666666666667 0  1.090434782608696 0.01666666666666667 0  1.10695652173913 0.01666666666666667 0  1.123478260869565 0.01666666666666667 0  1.14 0.01666666666666667 0  1.156521739130435 0.01666666666666667 0  1.17304347826087 0.01666666666666667 0  1.189565217391304 0.01666666666666667 0  1.206086956521739 0.01666666666666667 0  1.222608695652174 0.01666666666666667 0  1.239130434782609 0.01666666666666667 0  1.255652173913044 0.01666666666666667 0  1.272173913043478 0.01666666666666667 0  1.288695652173913 0.01666666666666667 0  1.305217391304348 0.01666666666666667 0  1.321739130434783 0.01666666666666667 0  1.338260869565217 0.01666666666666667 0  1.354782608695652 0.01666666666666667 0  1.371304347826087 0.01666666666666667 0  1.387826086956522 0.01666666666666667 0  1.404347826086957 0.01666666666666667 0  1.420869565217391 0.01666666666666667 0  1.437391304347826 0.01666666666666667 0  1.453913043478261 0.01666666666666667 0  1.470434782608696 0.01666666666666667 0  1.486956521739131 0.01666666666666667 0  1.503478260869565 0.01666666666666667 0  1.52 0.01666666666666667 0  1.536521739130435 0.01666666666666667 0  1.55304347826087 0.01666666666666667 0  1.569565217391304 0.01666666666666667 0  1.586086956521739 0.01666666666666667 0  1.602608695652174 0.01666666666666667 0  1.619130434782609 0.01666666666666667 0  1.635652173913043 0.01666666666666667 0  1.652173913043478 0.01666666666666667 0  1.668695652173913 0.01666666666666667 0  1.685217391304348 0.01666666666666667 0  1.701739130434782 0.01666666666666667 0  1.718260869565217 0.01666666666666667 0  1.734782608695652 0.01666666666666667 0  1.751304347826087 0.01666666666666667 0  1.767826086956522 0.01666666666666667 0  1.784347826086957 0.01666666666666667 0  1.800869565217391 0.0166666666666666
[...]
<PointData  Scalars="rho_bar"> 
<DataArray  type="Float64"  Name="rho_bar"  format="ascii">9.8864419271911330e-01  9.9449784851640144e-01  9.9202293445134970e-01  9.9208100630546103e-01  9.9503621794265606e-01  1.0008987623313004e+00  1.0036790282760906e+00  1.0029022215117827e+00  1.0046028188484286e+00  1.0116126966813987e+00  1.0183589712292742e+00  1.0220823002837793e+00  1.0250387694618863e+00  1.0270632919640448e+00  1.0274057251162858e+00  1.0273378479057702e+00  1.0273369827077399e+00  1.0274432315343884e+00  1.0270796659494232e+00  1.0250019989087118e+00  1.0220484911943100e+00  1.0180558823068608e+00  1.0110957536524241e+00  1.0043917619260996e+00  1.0033354279523921e+00  1.0027376915961166e+00  9.9692119423877545e-01  9.9240140190596271e-01  9.9407291854851509e-01  9.9866307796615028e-01  1.0015265325357070e+00  1.0008792016111154e+00  9.9968869450610987e-01  9.9985542192322552e-01  1.0001291592894563e+00  9.9999173023854049e-01  9.9967056127269549e-01  1.0000907586910224e+00  1.0012520118220620e+00  1.0007350968029127e+00  9.9721875735213017e-01  9.9313840041103141e-01  9.9286352091601060e-01  9.9797358194278063e-01  1.0022672674223094e+00  1.0039387940271898e+00  1.0097975344593901e+00  1.0178914405336770e+00  1.0229145191834732e+00  1.0260124908071575e+00  1.0279073076874861e+00  1.0272189341990832e+00  1.0288380267940898e+00  1.0259675754574027e+00  1.0140759415795042e+00  1.0084856385775662e+00  1.0038777504819898e+00  9.9505762308955847e-01  9.9040801464762396e-01  9.8891694597447100e-01  9.8831474579146816e-01  9.8806628292287890e-01  9.8802723223894229e-01  9.8816524525837690e-01  9.8856430406496809e-01  9.8946466682905410e-01  9.9213516096590826e-01  9.9843425486709247e-01  1.0060681801413489e+00  1.0102472396118718e+00  1.0116857323915052e+00  1.0133074160901216e+00  1.0142626529611494e+00  1.0135220744911233e+00  1.0122586279553512e+00  1.0117693746967067e+00  1.0113170967222083e+00  1.0122662376218339e+00  1.0194488985202594e+00  1.0275282377531711e+00  1.0284489330826692e+00  1.0267708007821761e+00  1.0233382200155738e+00  1.0148833237359509e+00  1.0042378919403756e+00  9.9535044301405318e-01  9.9449438436157656e-01  9.9944442193386118e-01  1.0008457397011084e+00  9.9986510632932357e-01  9.9992203061780116e-01  1.0000291107764576e+00  1.0000653381413240e+00  1.0000303845672502e+00  9.9960505318187876e-01  9.9974185900122636e-01  1.0010868918777924e+00  1.0015808719277892e+00  1.0004556512675977e+00  9.9888115517693454e-01  9.9631397732905791e-01  9.9386436720924598e-01  9.9249958487889889e-01  9.9203471722033365e-01  9.9493848431357357e-01  9.9988643568803826e-01  1.0028560829107820e+00  1.0036684837707006e+00  1.0035778924501035e+00  1.0034904187381344e+00  1.0035350310147364e+00  1.0035268939022055e+00  1.0035127908414536e+00  1.0035575832471488e+00  1.0035139718344488e+00  1.0032877607256425e+00  1.0041174443199476e+00  1.0085776624161189e+00  1.0157602852411391e+00  1.0203952607529452e+00  1.0236496541809292e+00  1.0262631533873001e+00  1.0304496050542675e+00  1.0254193353389538e+00  9.9996077442840059e-01  9.8748066089240716e-01  9.8740256646768598e-01  9.6422340053562450e-01  9.2698586014152151e-01  9.0182436056502568e-01  8.9628412131950652e-01  9.6419692201992446e-01  1.0434211873371155e+00  1.0490829752475617e+00  1.0554633307618231e+00  1.0853599068871633e+00  1.1161299201922610e+00  1.1437996817585450e+00  1.1644469299310454e+00  1.1801618840149364e+00  1.1991654989021727e+00  1.2177890235415509e+00  1.2273309850321459e+00  1.2174728126944923e+00  1.1755707040121040e+00  1.1225281700939518e+00  1.0895100410154683e+00  1.0653858984991840e+00  1.0502418836759115e+00  1.0485764333126095e+00  1.0520491575510769e+00  1.0353388969683412e+00  9.7500659548297552e-01  9.0676267036418345e-01  8.8913148387677310e-01  9.0613354880281161e-01  9.2065762931853523e-01  9.2759181902776999e-01  9.3113490388725562e-01  9.5050858356230306e-01  9.7160244554067121e-01  9.8128482630342861e-01  9.8638675270655418e-01  9.8734486262908294e-01  9.8670889783175408e-01  9.8635389770729009e-01  9.8911203940894077e-01  1.0039228113121472e+00  1.0223827396475427e+00  1.0292060618577819e+00  1.0273248955673158e+00  1.0238410603478836e+00  1.0206366850802175e+00  1.0150137131341288e+00  1.0077650132865097e+00  1.0040573580372767e+00  1.0033827881233313e+00  1.0035084518356172e+00  1.0035130524655054e+00  1.0035662363509130e+00  1.0038199661984795e+00  1.0020488404667620e+00  9.9721038245377602e-01  9.9292501512981779e-01  9.9258199754779108e-01  9.9583524370386667e-01  1.0000028161215717e+00  1.0016406674553004e+00  1.0005267124546797e+00  9.9950434110258901e-01  1.0005659864623371e+00  9.9997167215204630e-01  9.8220944882881134e-01  1.1512817618171620e+00  2.9317405664194596e-01  9.7913109828049964e-03  -1.2761882065074295e-02  3.3290163061353499e-03  -5.4794779925827557e-04  5.0378400631315284e-05  -3.1378671529780989e-06  4.6679466678033309e-06  -3.8647916814475286e-06  1.8827503990836957e-06  -6.6517984103711511e-07  1.8079000385644807e-07  -3.6818267395770409e-08  4.4983995119042481e-09  3.1808466142496174e-10  -3.8112415602466484e-10  1.3145066530084219e-10  -3.0225805162236734e-11  4.6550717657464647e-12  -2.2572794418222612e-13  -1.4133896399136551e-13  6.1299914678429950e-14  -1.5357922518066498e-14  2.6677705084569189e-15  -2.7019783763221711e-16  -1.2297753229250041e-17  1.4546705090112656e-17  -4.6373547035693387e-18  7.3726392211440848e-19  6.1232118749535499e-20  -2.3853223410475078e-20  -1.8394470819683707e-20  5.6274114828803266e-21  3.3449035299513223e-21  -1.9986994801769628e-21  -1.2111336876666962e-22  6.0256850820672334e-22  1.0284800114681474e+00  1.0112226845694909e+00  1.0149502062960649e+00  1.0156915629389462e+00  1.0145358419476591e+00  1.0038656199059826e+00  9.9408046999073396e-01  9.9298195325944472e-01  9.9417045864294051e-01  9.8476362571517451e-01  9.6891738920176818e-01  9.5915819862781182e-01  9.5289603017526225e-01  9.4741486531515795e-01  9.4517301150361366e-01  9.4540924321261366e-01  9.4520585915805466e-01  9.4539265299863728e-01  9.4506932806960653e-01  9.4746905886056643e-01  9.5296086584142270e-01  9.5936471996785377e-01  9.6989551068818813e-01  9.8559340623805025e-01  9.9401571718123605e-01  9.9241327220047237e-01  9.9924534191558390e-01  1.0124215286170424e+00  1.0148772092714167e+00  1.0073717951469729e+00  9.9883924541245617e-01  9.9681001719178230e-01  9.9994476445395530e-01  1.0006218402605356e+00  9.9990296707199566e-01  9.9978597897874522e-01  1.0003389700245491e+00  1.0006081016925741e+00  9.9865833568697238e-01  9.9717270109986555e-01  1.0013866239042912e+00  1.0100203554323377e+00  1.0155233042004896e+00  1.0103301418745638e+00  9.9818371812792461e-01  9.9405829162015458e-01  9.8809292535741911e-01  9.7159935398396902e-01  9.5837029759355929e-01  9.5093417918559409e-01  9.4561743495744688e-01  9.4404492947696561e-01  9.4592560068498899e-01  9.4096706410449049e-01  9.5967322533649557e-01  9.8087234290749914e-01  9.8469389532904594e-01  1.0019012223914159e+00  1.0157830257750973e+00  1.0210056457500070e+00  1.0228821361070282e+00  1.0236820120698855e+00  1.0239481501462637e+00  1.0238543890462746e+00  1.0233541070266310e+00  1.0221380247347434e+00  1.0191182422626512e+00  1.0105268139915431e+00  9.9506875085354374e-01  9.8238596148291923e-01  9.7799536341503324e-01  9.7517011155944899e-01  9.7193344749385147e-01  9.7186384833206974e-01  9.7430928773630243e-01  9.7626910380372134e-01  9.7663490976737311e-01  9.7739599390672505e-01  9.7042229560653148e-01  9.5133377114518214e-01  9.4213259979383401e-01  9.4537108169047734e-01  9.4842293941386480e-01  9.6073533828034252e-01  9.8082663453382501e-01  1.0013428062700398e+00  1.0132397265368183e+00  1.0058796879044862e+00  9.9811698426258033e-01  9.9969103250249591e-01  1.0003297633500705e+00  9.9995703624362897e-01  9.9996194704742991e-01  9.9981229085673751e-01  1.0002613597799030e+00  1.0010373588902155e+00  9.9939109157626316e-01  9.9668686732584355e-01  9.9779924531808750e-01  1.0006027873267516e+00  1.0043689328441114e+00  1.0103163739756185e+00  1.0136837432926573e+00  1.0158679598558500e+00  1.0143088538869045e+00  1.0049151167181825e+00  9.9652829260551901e-01  9.9312599893275777e-01  9.9265156207469174e-01  9.9303530932057316e-01  9.9293697273259718e-01  9.9294927790301746e-01  9.9294612946226202e-01  9.9297325943869308e-01  9.9284060948190422e-01  9.9319480302834595e-01  9.9312620671752005e-01  9.8858874875174774e-01  9.7573939921934427e-01  9.6249328347269925e-01  9.5661596455742526e-01  9.4910586582965761e-01  9.4505504439083832e-01  9.3775489608322526e-01  9.7078190815857068e-01  1.0228857704405396e+00  1.0209905764341891e+00  1.0409496934487288e+00  1.1091858916397870e+00  1.1768326473853141e+00  1.2060592801890868e+00  1.1720777145599131e+00  9.6547886505194946e-01  8.9761762428493419e-01  9.0569118822567696e-01  8.6069722591161857e-01  7.9742355116775521e-01  7.3958828253803033e-01  6.8867147790208982e-01  6.5591456658800074e-01  6.2165620489398932e-01  5.8166293534777547e-01  5.5140273150770902e-01  5.4857285814693280e-01  5.9723555088764380e-01  7.0590670718953075e-01  7.9392902723482717e-01  8.4357587070084938e-01  8.9038914692773907e-01  9.0190386204381234e-01  9.0122130034285552e-01  9.0067356062769133e-01  9.7978187188989452e-01  1.1241475579932738e+00  1.2234953912342705e+00  1.2026620475519028e+00  1.1740427494420023e+00  1.1471216786870919e+00  1.1442065976266966e+00  1.1233384894164922e+00  1.0737670851826246e+00  1.0455288732624888e+00  1.0316220487036025e+00  1.0249028487104714e+00  1.0265147381331163e+00  1.0265091882034263e+00  1.0265186500543473e+00  1.0110068772091039e+00  9.7147729932620563e-01  9.4481004514619304e-01  9.4271795167302463e-01  9.4878380052218525e-01  9.5571222811038803e-01  9.6295032990794549e-01  9.7780768150629416e-01  9.8936174304846602e-01  9.9289228213477598e-01  9.9317644855877585e-01  9.9285027563994621e-01  9.9307322287026489e-01  9.9256155874499663e-01  9.9317100425071947e-01  1.0001673000228595e+00  1.0107146248175141e+00  1.0156141397922414e+00  1.0122597381475353e+00  1.0039421239061757e+00  9.9731147214951732e-01  9.9750176119644784e-01  1.0003455971605586e+00  1.0005950300731581e+00  9.9796900391250543e-01  1.0107282619857727e+00  9.6701667454318074e-01  9.4126688294766470e-01  -2.0447246833153654e-01  3.4892614237069103e-02  -3.1671316863163702e-03  -1.6500229992352065e-04  1.1914834431498797e-04  5.2592869966886349e-06  -2.3368859187314293e-05  1.2866348601117104e-05  -4.5473220902178924e-06  1.1640566542091855e-06  -2.0028733256788817e-07  8.9163752149997052e-09  8.8942252881369735e-09  -4.1393324566772509e-09  1.1264407944625595e-09  -2.0783598975145740e-10  1.9158974442385734e-11  3.4655725110301529e-12  -2.2050212550603082e-12  6.2533868672941067e-13  -1.1910778000341414e-13  1.3556479222842025e-14  5.3344573791344910e-16  -7.2269708543510700e-16  2.0555422071790537e-16  -4.0835394759104157e-17  5.6628334551761840e-18  6.0724614941830720e-19  -5.3097662335166614e-19  -9.4250822489116153e-21  5.9565928515411020e-20  4.7303899074375076e-21  -1.4087840711212299e-20  2.2387741200066187e-21  2.1454292399319035e-21  -1.0840236476467768e-21  9.0018481616062307e-01  9.5892277658619063e-01  9.4716885699712516e-01  9.4969487475028525e-01  9.4256575861549208e-01  9.6354478260549459e-01  1.0087102057462483e+00  1.0253816105365205e+00  1.0218944914852526e+00  1.0278321373222612e+00  1.0842827450121417e+00  1.1283194275235842e+00  1.1544766898194490e+00  1.1744529954403307e+00  1.1908867095639031e+00  1.1907820958063027e+00  1.1916400012342798e+00  1.1916481169926196e+00  1.1909405635457584e+00  1.1912588586935744e+00  1.1738149293738531e+00  1.1545356066461596e+00  1.1263153235159260e+00  1.0802018501897475e+00  1.0268389689339943e+00  1.0233328596615643e+00  1.0228533284902641e+00  9.7718093336381584e-01  9.4484474760218073e-01  9.5962435255081890e-01  9.8969242536879487e-01  1.0129006793158448e+00  1.0050494735202176e+00  9.9728218618649678e-01  9.9959492429499286e-01  1.0005948728210687e+00  1.0003264266819061e+00  9.9758338098823507e-01  1.0000093831810706e+00  1.0089170293915632e+00  1.0060146957929965e+00  9.8051865009399886e-01  9.5209213144402105e-01  9.4841562471908369e-01  9.8505939884631666e-01  1.0212090095263171e+00  1.0219585358179015e+00  1.0700899379468720e+00  1.1261617402052557e+00  1.1602769813466662e+00  1.1812032009981219e+00  1.1961932820999848e+00  1.1928678635092080e+00  1.1905095778062214e+00  1.2032836092938457e+00  1.0767941146382760e+00  1.0710431270941090e+00  1.0256565465731360e+00  9.6352382440266826e-01  9.3340551506813085e-01  9.2257048792759944e-01  9.1821734584438819e-01  9.1647926676864933e-01  9.1620191607577672e-01  9.1717701497635351e-01  9.1997637975949043e-01  9.2669415164873503e-01  9.4433172825409939e-01  9.8775097884743901e-01  1.0444213055483851e+00  1.0718833915322894e+00  1.0806553829317547e+00  1.0934019883210326e+00  1.1003932977730568e+00  1.0943961495520889e+00  1.0858344694478199e+00  1.0815787075741099e+00  1.0818602646922826e+00  1.0831232321494093e+00  1.1338980930173912e+00  1.1985672484377121e+00  1.1959551291277744e+00  1.1860431076568096e+00  1.1672038150914206e+00  1.1009130375273004e+00  1.0329277950430338e+00  9.6536067131164660e-01  9.5813364791728206e-01  1.0012927075609557e+00  1.0041445048216036e+00  9.9855170652032865e-01  1.0000345076859891e+00  9.9998042306046908e-01  1.0003841186367952e+00  1.0004231066868601e+00  9.9752364713763320e-01  9.9725283598179215e-01  1.0078476374655414e+00  1.0121730578794574e+00  1.0017052923640295e+00  9.9317299906872059e-01  9.7449911005823808e-01  9.5537162541296916e-01  9.4997762891146298e-01  9.4228771267463585e-01  9.6410288589599002e-01  1.0007443473008719e+00  1.0193022628162420e+00  1.0262373222255101e+00  1.0244456208521946e+00  1.0246856772288317e+00  1.0246824493991145e+00  1.0246768560709709e+00  1.0246841450700797e+00  1.0246191852649837e+00  1.0250975402949445e+00  1.0229650927754521e+00  1.0290889100937339e+00  1.0578178847228394e+00  1.1123257400793778e+00  1.1442036493135628e+00  1.1604564991056481e+00  1.1933244893999022e+00  1.1927717239006073e+00  1.2089930066573964e+00  9.8029476810005267e-01  9.0317668934313267e-01  9.3216116080165157e-01  7.4033823894230322e-01  4.9552018185380270e-01  2.0448506556683835e-01  6.6427648719179472e-02  -4.0321570155718509e-02  -2.1799973134487405e-01  -1.8609058246351790e-01  -1.9036935178625927e-01  -1.8301608499601060e-01  -1.7532059142371673e-01  -1.6689308934507049e-01  -1.5961237623623728e-01  -1.5423313886244849e-01  -1.4791244482336915e-01  -1.4167495934255331e-01  -1.3831802857448539e-01  -1.4207460413848902e-01  -1.5653343999238709e-01  -1.7252399514843075e-01  -1.8245157526906408e-01  -1.8784481836484002e-01  -1.9036681678764975e-01  -1.9023102789355764e-01  -1.8691761023621023e-01  -2.0605805909800959e-01  -6.0429618947815671e-02  6.1914455864732237e-02  7.6324793867717372e-02  1.7341625197574073e-01  4.3823379992960693e-01  5.0393676998457493e-01  5.0144605085664429e-01  6.5889813846219958e-01  8.0752055351560981e-01  8.6102978129395835e-01  9.1113462468095241e-01  9.0757988085211849e-01  9.0786589297305120e-01  9.0698279407980631e-01  9.2092330306533599e-01  1.0220046335783908e+00  1.1670090971493767e+00  1.1983465794688963e+00  1.1952209073994706e+00  1.1624801537687905e+00  1.1470346017106434e+00  1.1060931110106413e+00  1.0519700005745314e+00  1.0293372061698096e+00  1.0233307632536723e+00  1.0249767476599909e+00  1.0246504227701603e+00  1.0244191168068777e+00  1.0265811010527564e+00  1.0157952080098172e+00  9.8005613986424300e-01  9.4973927383196810e-01  9.4809451177191584e-01  9.7037355439278483e-01  1.0005644320476557e+00  1.0124793663757370e+00  1.0026856172255076e+00  9.9711295498425434e-01  1.0009319359387947e+00  9.9939308991284848e-01  9.8907053873596318e-01  1.1233430584034483e+00  9.1553244843313841e-02  8.4965592083906510e-03  -7.2420735306830365e-03  9.5011747037491382e-04  3.0681116429051689e-04  -3.6438881862665691e-04  1.8981307804051412e-04  -6.9255638029259295e-05  1.9170572713732593e-05  -3.9350041453878451e-06  4.8070308487189133e-07  3.2437718291907788e-08  -3.8514598762832243e-08  1.2692072159553613e-08  -2.6932276754190512e-09  3.4479084967205020e-10  6.2988106555620823e-12  -1.8107100208054767e-11  5.9304453510384939e-12  -1.2205728400005635e-12  1.5973666286138006e-13  -3.9460994802183741e-15  -4.7604337516958183e-15  1.4161291964177181e-15  -2.1651931326317628e-16  2.9222060011409100e-17  2.3243025092692015e-18  -5.9825050171837789e-18  1.1072620703043548e-18  6.8228056177229322e-19  -1.9169826878163316e-19  -1.1875491573920102e-19  5.7661547827180591e-20  1.0924017399817415e-20  -1.3760454698351117e-20  1.8529416353434692e-21  1.3118706148576036e+00  1.1703474617690568e+00  1.1890595095184029e+00  1.1931368062968055e+00  1.1883175603538425e+00  1.2128208257108093e+00  1.0362330524408234e+00  9.2463323004294418e-01  9.0540998625624103e-01  9.2285690507105500e-01  8.2503895011864992e-01  5.5943190131974541e-01  5.0352050410822680e-01  3.1090133568443645e-01  1.6916532116350086e-01  1.3972953999782523e-01  1.2117531481698181e-01  1.1590315273338586e-01  1.1987399115619564e-01  1.3643982624118994e-01  1.6716861164497421e-01  3.1652846263613083e-01  5.0239224425922979e-01  5.7545221267307312e-01  8.3469328304737878e-01  9.2112906999954691e-01  9.0275248522505180e-01  9.6795513669191902e-01  1.1895943165001046e+00  1.1772331740837099e+00  1.1082345332220023e+00  9.7487484213912423e-01  9.5732992047254539e-01  1.0054355912580615e+00  1.0056602890932473e+00  9.9836829879668898e-01  9.9845216724925556e-01  1.0012860698467021e+00  1.0119307626437795e+00  9.8224609051044398e-01  9.6239661737926840e-01  1.0135202033730273e+00  1.1338540894893245e+00  1.1991151874006318e+00  1.1473860879194715e+00  9.6411902475473055e-01  9.0936697367506025e-01  8.8543164696519550e-01  5.8621611782841965e-01  4.9607243954764696e-01  2.5600053727221084e-01  1.0933351772250149e-01  8.8236316576190119e-02  9.1844291151112506e-02  9.4261060604574537e-02  1.7151612264621831e-02  -7.5205615728456784e-02  -8.5775262832764695e-02  -1.3756891259570889e-01  -1.6933811806387306e-01  -1.7935235161247784e-01  -1.8359966112988563e-01  -1.8536302360591947e-01  -1.8595601307514967e-01  -1.8574589680655101e-01  -1.8465520051343140e-01  -1.8199071646672735e-01  -1.7572114895215465e-01  -1.5915736325756161e-01  -1.1523785479634455e-01  -8.1149555304814172e-02  -7.3937956809030647e-02  -6.1102418953969964e-02  -4.6677999563145951e-02  -4.6575813271973361e-02  -5.7427812682626450e-02  -6.6320652511910563e-02  -6.9514042166388221e-02  -6.6392484334306515e-02  -3.6981757301769766e-02  6.1138339414276821e-02  9.4909520954874968e-02  7.0535847153141873e-02  2.2251473670317637e-01  4.8678983166836404e-01  7.6597261337866152e-01  9.8801746660613454e-01  1.2141745297568021e+00  1.0512507894255942e+00  9.7471814030271020e-01  1.0027623999212987e+00  1.0017275525965612e+00  9.9924647211299800e-01  1.0005333799103353e+00  9.9698414061738849e-01  1.0024958028503723e+00  1.0133876529850505e+00  9.9729559605453266e-01  9.5011472638885486e-01  9.7280788386088846e-01  1.0132122723619053e+00  1.0465736106326309e+00  1.1432017977165123e+00  1.1760915935676879e+00  1.1968315917274102e+00  1.2051848036745585e+00  1.0479418503688978e+00  9.6274350778992890e-01  9.0480695424795143e-01  9.0824366772309251e-01  9.0847273631412717e-01  9.0831284800839507e-01  9.0834367166149177e-01  9.0833319007819924e-01  9.0834650926439953e-01  9.0834282486005957e-01  9.0745224281951120e-01  9.1424974039251550e-01  8.4871886604099089e-01  6.9863101932303540e-01  4.8715653701233519e-01  4.5269947722406556e-01  1.8042221125387939e-01  7.6838330576718267e-02  9.5263439661469176e-02  1.4467613148814319e-02  -2.1510431395714005e-01  -1.9373918836990142e-01  -1.8108115934144778e-01  -1.6448800319893109e-01  -9.2360435482385803e-02  -3.2283926148193788e-02  -5.28327