<?xml version="1.0"?>
<VTKFile type="UnstructuredGrid"  version="0.1"  >
<UnstructuredGrid>
<Piece  NumberOfPoints="639" NumberOfCells="1175">
<Points>
<DataArray  type="Float64"  NumberOfComponents="3"  format="ascii">1.321739130434783 0 0  1.338260869565217 0 0  1.338260869565217 0.01666666666666667 0  1.354782608695652 0 0  1.354782608695652 0.01666666666666667 0  1.371304347826087 0 0  1.371304347826087 0.01666666666666667 0  1.387826086956522 0 0  1.387826086956522 0.01666666666666667 0  1.404347826086957 0 0  1.404347826086957 0.01666666666666667 0  1.420869565217391 0 0  1.420869565217391 0.01666666666666667 0  1.437391304347826 0 0  1.437391304347826 0.01666666666666667 0  1.453913043478261 0 0  1.453913043478261 0.01666666666666667 0  1.470434782608696 0 0  1.470434782608696 0.01666666666666667 0  1.486956521739131 0 0  1.486956521739131 0.01666666666666667 0  1.503478260869565 0 0  1.503478260869565 0.01666666666666667 0  1.52 0 0  1.52 0.01666666666666667 0  1.536521739130435 0 0  1.536521739130435 0.01666666666666667 0  1.55304347826087 0 0  1.55304347826087 0.01666666666666667 0  1.569565217391304 0 0  1.569565217391304 0.01666666666666667 0  1.586086956521739 0 0  1.586086956521739 0.01666666666666667 0  1.602608695652174 0 0  1.602608695652174 0.01666666666666667 0  1.619130434782609 0 0  1.619130434782609 0.01666666666666667 0  1.635652173913043 0 0  1.635652173913043 0.01666666666666667 0  1.652173913043478 0 0  1.652173913043478 0.01666666666666667 0  1.668695652173913 0 0  1.668695652173913 0.01666666666666667 0  1.685217391304348 0 0  1.685217391304348 0.01666666666666667 0  1.701739130434782 0 0  1.701739130434782 0.01666666666666667 0  1.718260869565217 0 0  1.718260869565217 0.01666666666666667 0  1.734782608695652 0 0  1.734782608695652 0.01666666666666667 0  1.751304347826087 0 0  1.751304347826087 0.01666666666666667 0  1.767826086956522 0 0  1.767826086956522 0.01666666666666667 0  1.784347826086957 0 0  1.784347826086957 0.01666666666666667 0  1.800869565217391 0 0  1.800869565217391 0.01666666666666667 0  1.817391304347826 0 0  1.817391304347826 0.01666666666666667 0  1.833913043478261 0 0  1.833913043478261 0.01666666666666667 0  1.850434782608696 0 0  1.850434782608696 0.01666666666666667 0  1.86695652173913 0 0  1.86695652173913 0.01666666666666667 0  1.883478260869565 0 0  1.883478260869565 0.01666666666666667 0  1.354782608695652 0.03333333333333333 0  1.371304347826087 0.03333333333333333 0  1.387826086956522 0.03333333333333333 0  1.404347826086957 0.03333333333333333 0  1.420869565217391 0.03333333333333333 0  1.437391304347826 0.03333333333333333 0  1.453913043478261 0.03333333333333333 0  1.470434782608696 0.03333333333333333 0  1.486956521739131 0.03333333333333333 0  1.503478260869565 0.03333333333333333 0  1.52 0.03333333333333333 0  1.536521739130435 0.03333333333333333 0  1.55304347826087 0.03333333333333333 0  1.569565217391304 0.03333333333333333 0  1.586086956521739 0.03333333333333333 0  1.602608695652174 0.03333333333333333 0  1.619130434782609 0.03333333333333333 0  1.635652173913043 0.03333333333333333 0  1.652173913043478 0.03333333333333333 0  1.668695652173913 0.03333333333333333 0  1.685217391304348 0.03333333333333333 0  1.701739130434782 0.03333333333333333 0  1.718260869565217 0.03333333333333333 0  1.734782608695652 0.03333333333333333 0  1.751304347826087 0.03333333333333333 0  1.767826086956522 0.03333333333333333 0  1.784347826086957 0.03333333333333333 0  1.800869565217391 0.03333333333333333 0  1.817391304347826 0.03333333333333333 0  1.833913043478261 0.03333333333333333 0  1.850434782608696 0.03333333333333333 0  1.86695652173913 0.03333333333333333 0  1.883478260869565 0.03333333333333333 0  1.371304347826087 0.05 0  1.387826086956522 0.05 0  1.404347826086957 0.05 0  1.420869565217391 0.05 0  1.437391304347826 0.05 0  1.453913043478261 0.05 0  1.470434782608696 0.05 0  1.486956521739131 0.05 0  1.503478260869565 0.05 0  1.52 0.05 0  1.536521739130435 0.05 0  1.55304347826087 0.05 0  1.569565217391304 0.05 0  1.586086956521739 0.05 0  1.602608695652174 0.05 0  1.619130434782609 0.05 0  1.635652173913043 0.05 0  1.652173913043478 0.05 0  1.668695652173913 0.05 0  1.685217391304348 0.05 0  1.701739130434782 0.05 0  1.718260869565217 0.05 0  1.734782608695652 0.05 0  1.751304347826087 0.05 0  1.767826086956522 0.05 0  1.784347826086957 0.05 0  1.800869565217391 0.05 0  1.817391304347826 0.05 0  1.833913043478261 0.05 0  1.850434782608696 0.05 0  1.86695652173913 0.05 0  1.883478260869565 0.05 0  1.387826086956522 0.06666666666666667 0  1.404347826086957 0.06666666666666667 0  1.420869565217391 0.06666666666666667 0  1.437391304347826 0.06666666666666667 0  1.453913043478261 0.06666666666666667 0  1.470434782608696 0.06666666666666667 0  1.486956521739131 0.06666666666666667 0  1.503478260869565 0.06666666666666667 0  1.52 0.06666666666666667 0  1.536521739130435 0.06666666666666667 0  1.55304347826087 0.06666666666666667 0  1.569565217391304 0.06666666666666667 0  1.586086956521739 0.06666666666666667 0  1.602608695652174 0.06666666666666667 0  1.619130434782609 0.06666666666666667 0  1.635652173913043 0.06666666666666667 0  1.652173913043478 0.06666666666666667 0  1.668695652173913 0.06666666666666667 0  1.685217391304348 0.06666666666666667 0  1.701739130434782 0.06666666666666667 0  1.718260869565217 0.06666666666666667 0  1.734782608695652 0.06666666666666667 0  1.751304347826087 0.06666666666666667 0  1.767826086956522 0.06666666666666667 0  1.784347826086957 0.06666666666666667 0  1.800869565217391 0.06666666666666667 0  1.817391304347826 0.06666666666666667 0  1.833913043478261 0.06666666666666667 0  1.850434782608696 0.06666666666666667 0  1.86695652173913 0.06666666666666667 0  1.883478260869565 0.06666666666666667 0  1.404347826086957 0.08333333333333333 0  1.420869565217391 0.08333333333333333 0  1.437391304347826 0.08333333333333333 0  1.453913043478261 0.08333333333333333 0  1.470434782608696 0.08333333333333333 0  1.486956521739131 0.08333333333333333 0  1.503478260869565 0.08333333333333333 0  1.52 0.08333333333333333 0  1.536521739130435 0.08333333333333333 0  1.55304347826087 0.08333333333333333 0  1.569565217391304 0.08333333333333333 0  1.586086956521739 0.08333333333333333 0  1.602608695652174 0.08333333333333333 0  1.619130434782609 0.08333333333333333 0  1.635652173913043 0.08333333333333333 0  1.652173913043478 0.08333333333333333 0  1.668695652173913 0.08333333333333333 0  1.685217391304348 0.08333333333333333 0  1.701739130434782 0.08333333333333333 0  1.718260869565217 0.08333333333333333 0  1.734782608695652 0.08333333333333333 0  1.751304347826087 0.08333333333333333 0  1.767826086956522 0.08333333333333333 0  1.784347826086957 0.08333333333333333 0  1.800869565217391 0.08333333333333333 0  1.817391304347826 0.08333333333333333 0  1.833913043478261 0.08333333333333333 0  1.850434782608696 0.08333333333333333 0  1.86695652173913 0.08333333333333333 0  1.883478260869565 0.08333333333333333 0  1.420869565217391 0.1 0  1.437391304347826 0.1 0  1.453913043478261 0.1 0  1.470434782608696 0.1 0  1.486956521739131 0.1 0  1.503478260869565 0.1 0  1.52 0.1 0  1.536521739130435 0.1 0  1.55304347826087 0.1 0  1.569565217391304 0.1 0  1.586086956521739 0.1 0  1.602608695652174 0.1 0  1.619130434782609 0.1 0  1.635652173913043 0.1 0  1.652173913043478 0.1 0  1.668695652173913 0.1 0  1.685217391304348 0.1 0  1.701739130434782 0.1 0  1.718260869565217 0.1 0  1.734782608695652 0.1 0  1.751304347826087 0.1 0  1.767826086956522 0.1 0  1.784347826086957 0.1 0  1.800869565217391 0.1 0  1.817391304347826 0.1 0  1.833913043478261 0.1 0  1.850434782608696 0.1 0  1.86695652173913 0.1 0  1.883478260869565 0.1 0  1.437391304347826 0.1166666666666667 0  1.453913043478261 0.1166666666666667 0  1.470434782608696 0.1166666666666667 0  1.486956521739131 0.1166666666666667 0  1.503478260869565 0.1166666666666667 0  1.52 0.1166666666666667 0  1.536521739130435 0.1166666666666667 0  1.55304347826087 0.1166666666666667 0  1.569565217391304 0.1166666666666667 0  1.586086956521739 0.1166666666666667 0  1.602608695652174 0.1166666666666667 0  1.619130434782609 0.1166666666666667 0  1.635652173913043 0.1166666666666667 0  1.652173913043478 0.1166666666666667 0  1.668695652173913 0.1166666666666667 0  1.685217391304348 0.1166666666666667 0  1.701739130434782 0.1166666666666667 0  1.718260869565217 0.1166666666666667 0  1.734782608695652 0.1166666666666667 0  1.751304347826087 0.1166666666666667 0  1.767826086956522 0.1166666666666667 0  1.784347826086957 0.1166666666666667 0  1.800869565217391 0.1166666666666667 0  1.817391304347826 0.1166666666666667 0  1.833913043478261 0.1166666666666667 0  1.850434782608696 0.1166666666666667 0  1.86695652173913 0.1166666666666667 0  1.883478260869565 0.1166666666666667 0  1.453913043478261 0.1333333333333333 0  1.470434782608696 0.1333333333333333 0  1.486956521739131 0.1333333333333333 0  1.503478260869565 0.1333333333333333 0  1.52 0.1333333333333333 0  1.536521739130435 0.1333333333333333 0  1.55304347826087 0.1333333333333333 0  1.569565217391304 0.1333333333333333 0  1.586086956521739 0.1333333333333333 0  1.602608695652174 0.1333333333333333 0  1.619130434782609 0.1333333333333333 0  1.635652173913043 0.1333333333333333 0  1.652173913043478 0.1333333333333333 0  1.668695652173913 0.1333333333333333 0  1.685217391304348 0.1333333333333333 0  1.701739130434782 0.1333333333333333 0  1.718260869565217 0.1333333333333333 0  1.734782608695652 0.1333333333333333 0  1.751304347826087 0.1333333333333333 0  1.767826086956522 0.1333333333333333 0  1.784347826086957 0.1333333333333333 0  1.800869565217391 0.1333333333333333 0  1.817391304347826 0.1333333333333333 0  1.833913043478261 0.1333333333333333 0  1.850434782608696 0.1333333333333333 0  1.86695652173913 0.1333333333333333 0  1.883478260869565 0.1333333333333333 0  1.470434782608696 0.15 0  1.486956521739131 0.15 0  1.503478260869565 0.15 0  1.52 0.15 0  1.5365217391304
[...]
<PointData  Vectors="Displacement"> 
<DataArray  type="Float64"  Name="Displacement"  NumberOfComponents="3" format="ascii">1.5862312012595006e-04 1.3301155826056055e-03 0.0000000000000000e+00  1.6015821926233242e-04 1.3452651408441291e-03 0.0000000000000000e+00  1.4502920596726383e-04 1.3447048990078787e-03 0.0000000000000000e+00  1.6167322616438180e-04 1.3601771611053107e-03 0.0000000000000000e+00  1.4682162428918084e-04 1.3596138149762386e-03 0.0000000000000000e+00  1.6315860030542386e-04 1.3747944498270475e-03 0.0000000000000000e+00  1.4864740497566841e-04 1.3742335408718791e-03 0.0000000000000000e+00  1.6461227017085730e-04 1.3890352034458780e-03 0.0000000000000000e+00  1.5050622400509427e-04 1.3884780472490572e-03 0.0000000000000000e+00  1.6603862769678661e-04 1.4028364088888997e-03 0.0000000000000000e+00  1.5238785066655372e-04 1.4022828068502679e-03 0.0000000000000000e+00  1.6744398275309933e-04 1.4161571952298782e-03 0.0000000000000000e+00  1.5428262409979162e-04 1.4156063141693204e-03 0.0000000000000000e+00  1.6883263088835095e-04 1.4289729859681955e-03 0.0000000000000000e+00  1.5618378055521324e-04 1.4284259112672954e-03 0.0000000000000000e+00  1.7020736528665489e-04 1.4412621158448728e-03 0.0000000000000000e+00  1.5808588014977696e-04 1.4407224453582737e-03 0.0000000000000000e+00  1.7156807724429745e-04 1.4529992312008022e-03 0.0000000000000000e+00  1.5997862987349306e-04 1.4524838126042212e-03 0.0000000000000000e+00  1.7293457455189117e-04 1.4641683104062917e-03 0.0000000000000000e+00  1.6181709059971873e-04 1.4636799554692112e-03 0.0000000000000000e+00  1.7435242928308547e-04 1.4748596435768784e-03 0.0000000000000000e+00  1.6355198201743106e-04 1.4743846672058286e-03 0.0000000000000000e+00  1.7587874194149698e-04 1.4852905799016291e-03 0.0000000000000000e+00  1.6516568593827110e-04 1.4847975670336886e-03 0.0000000000000000e+00  1.7753534408409803e-04 1.4957643643368323e-03 0.0000000000000000e+00  1.6669087407245896e-04 1.4952425071039744e-03 0.0000000000000000e+00  1.7928850263142885e-04 1.5065202428996614e-03 0.0000000000000000e+00  1.6816446444912632e-04 1.5059882707606925e-03 0.0000000000000000e+00  1.8109733572213441e-04 1.5176438022674026e-03 0.0000000000000000e+00  1.6960484913809218e-04 1.5171156216247962e-03 0.0000000000000000e+00  1.8296974375327373e-04 1.5291231139145159e-03 0.0000000000000000e+00  1.7104439031014482e-04 1.5285902947452890e-03 0.0000000000000000e+00  1.8498154230633810e-04 1.5409431164741087e-03 0.0000000000000000e+00  1.7254408530912181e-04 1.5403721396442815e-03 0.0000000000000000e+00  1.8722999027787573e-04 1.5532030772270806e-03 0.0000000000000000e+00  1.7415713992776732e-04 1.5525646139038353e-03 0.0000000000000000e+00  1.8978491116756165e-04 1.5661013552840173e-03 0.0000000000000000e+00  1.7590754827384223e-04 1.5653808993190642e-03 0.0000000000000000e+00  1.9266005125465613e-04 1.5799010265492195e-03 0.0000000000000000e+00  1.7777794638037221e-04 1.5791055950281662e-03 0.0000000000000000e+00  1.9582280924796775e-04 1.5948599098544404e-03 0.0000000000000000e+00  1.7972684060535204e-04 1.5940044019082408e-03 0.0000000000000000e+00  1.9919817044956802e-04 1.6112357684333785e-03 0.0000000000000000e+00  1.8168822815845963e-04 1.6103485549197889e-03 0.0000000000000000e+00  2.0272189897019502e-04 1.6291815935140300e-03 0.0000000000000000e+00  1.8363563388582377e-04 1.6282676342499907e-03 0.0000000000000000e+00  2.0626922165772538e-04 1.6489458030668927e-03 0.0000000000000000e+00  1.8547479776018789e-04 1.6480618236990414e-03 0.0000000000000000e+00  2.0977310498168303e-04 1.6705296632210495e-03 0.0000000000000000e+00  1.8719034578697815e-04 1.6696506927979834e-03 0.0000000000000000e+00  2.1319905071725390e-04 1.6940024469872747e-03 0.0000000000000000e+00  1.8883805185338428e-04 1.6930987022480883e-03 0.0000000000000000e+00  2.1632233391430546e-04 1.7195584732499205e-03 0.0000000000000000e+00  1.9034707728412563e-04 1.7187458654347339e-03 0.0000000000000000e+00  2.1900158247996500e-04 1.7466766985329148e-03 0.0000000000000000e+00  1.9177567997681353e-04 1.7459455091276585e-03 0.0000000000000000e+00  2.2117402950707217e-04 1.7748845206348842e-03 0.0000000000000000e+00  1.9316675272974067e-04 1.7742431891150097e-03 0.0000000000000000e+00  2.2280592651484812e-04 1.8036363609947894e-03 0.0000000000000000e+00  1.9454636575259995e-04 1.8030935368017280e-03 0.0000000000000000e+00  2.2388491354671754e-04 1.8323551716054067e-03 0.0000000000000000e+00  1.9591524490387719e-04 1.8319241595035358e-03 0.0000000000000000e+00  2.2442361577465773e-04 1.8604842936224230e-03 0.0000000000000000e+00  1.9723585603565729e-04 1.8601701100665702e-03 0.0000000000000000e+00  2.2443702961855670e-04 1.8875228909613713e-03 0.0000000000000000e+00  1.9846616480482301e-04 1.8873682727669826e-03 0.0000000000000000e+00  2.2400821110383872e-04 1.9130067811259966e-03 0.0000000000000000e+00  1.9949452896456682e-04 1.9130029135851357e-03 0.0000000000000000e+00  1.3189970015694771e-04 1.3589490044288771e-03 0.0000000000000000e+00  1.3404449237042126e-04 1.3735408513269988e-03 0.0000000000000000e+00  1.3633714859844642e-04 1.3877742880911452e-03 0.0000000000000000e+00  1.3869764993294125e-04 1.4015690426256147e-03 0.0000000000000000e+00  1.4110385855296221e-04 1.4148884098641253e-03 0.0000000000000000e+00  1.4352626277713780e-04 1.4277027821620175e-03 0.0000000000000000e+00  1.4597387050879030e-04 1.4399999106875080e-03 0.0000000000000000e+00  1.4842922907903083e-04 1.4517720411740284e-03 0.0000000000000000e+00  1.5089558405823386e-04 1.4630686107892385e-03 0.0000000000000000e+00  1.5302465904322161e-04 1.4738647438341825e-03 0.0000000000000000e+00  1.5475191474070306e-04 1.4843591509016893e-03 0.0000000000000000e+00  1.5599437442066077e-04 1.4947917625385710e-03 0.0000000000000000e+00  1.5708162182220890e-04 1.5055751264789242e-03 0.0000000000000000e+00  1.5805947658623020e-04 1.5167721906222335e-03 0.0000000000000000e+00  1.5896365648396691e-04 1.5282984516637476e-03 0.0000000000000000e+00  1.5986558422727875e-04 1.5400576217252614e-03 0.0000000000000000e+00  1.6080879851096931e-04 1.5521850764849774e-03 0.0000000000000000e+00  1.6178863256720394e-04 1.5649272796874540e-03 0.0000000000000000e+00  1.6274473745148051e-04 1.5786111837864389e-03 0.0000000000000000e+00  1.6360760615951168e-04 1.5934977331541035e-03 0.0000000000000000e+00  1.6427385281660018e-04 1.6098872959774406e-03 0.0000000000000000e+00  1.6476461863410932e-04 1.6277850521111757e-03 0.0000000000000000e+00  1.6498823131190575e-04 1.6477193998854717e-03 0.0000000000000000e+00  1.6497332793356223e-04 1.6693458522573938e-03 0.0000000000000000e+00  1.6480812800490243e-04 1.6926293915187948e-03 0.0000000000000000e+00  1.6456506152572137e-04 1.7183914085350293e-03 0.0000000000000000e+00  1.6466413227679685e-04 1.7455509090716053e-03 0.0000000000000000e+00  1.6518635816074217e-04 1.7737668200507291e-03 0.0000000000000000e+00  1.6629382388122656e-04 1.8025352304655623e-03 0.0000000000000000e+00  1.6798119268595548e-04 1.8312929088069492e-03 0.0000000000000000e+00  1.7020313373334732e-04 1.8595379188733308e-03 0.0000000000000000e+00  1.7266455727427580e-04 1.8867383766991432e-03 0.0000000000000000e+00  1.7548209993203522e-04 1.9126570849903116e-03 0.0000000000000000e+00  1.1932472337242763e-04 1.3728268631364123e-03 0.0000000000000000e+00  1.2197915071759588e-04 1.3870110800274498e-03 0.0000000000000000e+00  1.2478258362712719e-04 1.4007832643234716e-03 0.0000000000000000e+00  1.2767884953202293e-04 1.4140875783416871e-03 0.0000000000000000e+00  1.3124639446542420e-04 1.4269588498158168e-03 0.0000000000000000e+00  1.3462885680198098e-04 1.4395162108226532e-03 0.0000000000000000e+00  1.3703451711899800e-04 1.4510619012339434e-03 0.0000000000000000e+00  1.3950072358000061e-04 1.4622476786611360e-03 0.0000000000000000e+00  1.4285609187926910e-04 1.4731929637954576e-03 0.0000000000000000e+00  1.4488712546844909e-04 1.4840015269418415e-03 0.0000000000000000e+00  1.4575659501618103e-04 1.4945412800805786e-03 0.0000000000000000e+00  1.4617302668048411e-04 1.5053497204693242e-03 0.0000000000000000e+00  1.4655704086651412e-04 1.5166670396824643e-03 0.0000000000000000e+00  1.4687876903506935e-04 1.5283042261669728e-03 0.0000000000000000e+00  1.4719203232909980e-04 1.5400227895829319e-03 0.0000000000000000e+00  1.4752485946100479e-04 1.5520427168873331e-03 0.0000000000000000e+00  1.4784261616401824e-04 1.5646745164780288e-03 0.0000000000000000e+00  1.4801336473999351e-04 1.5783318102156930e-03 0.0000000000000000e+00  1.4792710401654785e-04 1.5932405592134281e-03 0.0000000000000000e+00  1.4740794295430940e-04 1.6098007240020647e-03 0.0000000000000000e+00  1.4654390816411667e-04 1.6276376775821221e-03 0.0000000000000000e+00  1.4515488050623803e-04 1.6477543676583165e-03 0.0000000000000000e+00  1.4391056252128096e-04 1.6693119615179815e-03 0.0000000000000000e+00  1.4265612245751292e-04 1.6924142218723342e-03 0.0000000000000000e+00  1.3922221771722819e-04 1.7184227284980408e-03 0.0000000000000000e+00  1.3768736237468329e-04 1.7454684655457552e-03 0.0000000000000000e+00  1.3684249060726914e-04 1.7735720634688636e-03 0.0000000000000000e+00  1.3727353378773568e-04 1.8021665784945110e-03 0.0000000000000000e+00  1.3897224831671792e-04 1.8307311675193956e-03 0.0000000000000000e+00  1.4171104803194990e-04 1.8587981815946669e-03 0.0000000000000000e+00  1.4584380322618342e-04 1.8858743470553075e-03 0.0000000000000000e+00  1.5090848882173726e-04 1.9116176130843316e-03 0.0000000000000000e+00  1.1670957160747894e-04 1.3866305052463691e-03 0.0000000000000000e+00  1.1892178713674859e-04 1.4004514600274907e-03 0.0000000000000000e+00  1.2122170690160517e-04 1.4138146857668717e-03 0.0000000000000000e+00  1.2360268017704587e-04 1.4266842133475205e-03 0.0000000000000000e+00  1.2595576001785960e-04 1.4392641383059752e-03 0.0000000000000000e+00  1.2813776789454053e-04 1.4512451447514685e-03 0.0000000000000000e+00  1.3011562199559837e-04 1.4626211582789332e-03 0.0000000000000000e+00  1.3199756338298365e-04 1.4736078304787284e-03 0.0000000000000000e+00  1.3362619974646836e-04 1.4845659688875361e-03 0.0000000000000000e+00  1.3489192522288268e-04 1.4945601418651694e-03 0.0000000000000000e+00  1.3492296553841481e-04 1.5053462262179557e-03 0.0000000000000000e+00  1.3493484840006471e-04 1.5167977686276679e-03 0.0000000000000000e+00  1.3482207353071840e-04 1.5286232776050260e-03 0.0000000000000000e+00  1.3470108721988844e-04 1.5402284402418927e-03 0.0000000000000000e+00  1.3459931824170532e-04 1.5520472395053040e-03 0.0000000000000000e+00  1.3446767189914847e-04 1.5644743361177115e-03 0.0000000000000000e+00  1.3410146125788540e-04 1.5781176787713503e-03 0.0000000000000000e+00  1.3333412124055680e-04 1.5930143275277361e-03 0.0000000000000000e+00  1.3199341185492750e-04 1.6097795009408053e-03 0.0000000000000000e+00  1.3052032515219319e-04 1.6275458841773622e-03 0.0000000000000000e+00  1.2644055106503262e-04 1.6480189887665480e-03 0.0000000000000000e+00  1.2217909782734175e-04 1.6697256353240455e-03 0.0000000000000000e+00  1.2498596993454334e-04 1.6964849159091478e-03 0.0000000000000000e+00  1.2488514645911999e-04 1.7225097754577088e-03 0.0000000000000000e+00  1.2435593237705323e-04 1.7486606671360148e-03 0.0000000000000000e+00  1.2417660173027220e-04 1.7756024899212644e-03 0.0000000000000000e+00  1.2470687305003611e-04 1.8028369946856649e-03 0.0000000000000000e+00  1.2610804013417123e-04 1.8300431678704484e-03 0.0000000000000000e+00  1.2837269081717381e-04 1.8568761619968551e-03 0.0000000000000000e+00  1.3140276037650135e-04 1.8829345607167247e-03 0.0000000000000000e+00  1.3491315415334302e-04 1.9081046779268458e-03 0.0000000000000000e+00  1.1264324692795833e-04 1.4006810544748265e-03 0.0000000000000000e+00  1.1432586465901885e-04 1.4141466485834439e-03 0.0000000000000000e+00  1.1600166191980348e-04 1.4271495107970370e-03 0.0000000000000000e+00  1.1762963881362986e-04 1.4397731625627856e-03 0.0000000000000000e+00  1.1918063562517383e-04 1.4519040758268376e-03 0.0000000000000000e+00  1.2057883183064773e-04 1.4635244636052901e-03 0.0000000000000000e+00  1.2176523064066100e-04 1.4747633894862261e-03 0.0000000000000000e+00  1.2268801917278801e-04 1.4858232252075269e-03 0.0000000000000000e+00  1.2327034104301623e-04 1.4964465142366418e-03 0.0000000000000000e+00  1.2333380264568401e-04 1.5072611310707239e-03 0.0000000000000000e+00  1.2301266626452910e-04 1.5172030437306727e-03 0.0000000000000000e+00  1.2284825813696325e-04 1.5292022177992260e-03 0.0000000000000000e+00  1.2261090171865747e-04 1.5405611934860475e-03 0.0000000000000000e+00  1.2234731194817018e-04 1.5520348282826817e-03 0.0000000000000000e+00  1.2208250062527908e-04 1.5640809996515966e-03 0.0000000000000000e+00  1.2150542237491187e-04 1.5776521465768983e-03 0.0000000000000000e+00  1.2060625632769315e-04 1.5926229677192087e-03 0.0000000000000000e+00  1.1750889254692767e-04 1.6098375550287268e-03 0.0000000000000000e+00  1.1796682812255504e-04 1.6314854348394811e-03 0.0000000000000000e+00  1.1622252708135594e-04 1.6531734596670639e-03 0.0000000000000000e+00  1.1407170333815986e-04 1.6754842623793577e-03 0.0000000000000000e+00  1.1268535453248466e-04 1.6995881200717383e-03 0.0000000000000000e+00  1.1215409536601949e-04 1.7254147521624809e-03 0.0000000000000000e+00  1.1168789103285281e-04 1.7512449603022135e-03 0.0000000000000000e+00  1.1151144879671894e-04 1.7773575523451859e-03 0.0000000000000000e+00  1.1189967078957338e-04 1.8036002354281488e-03 0.0000000000000000e+00  1.1295366072067918e-04 1.8297644504570718e-03 0.0000000000000000e+00  1.1467492154812968e-04 1.8556259478357720e-03 0.0000000000000000e+00  1.1696350715987325e-04 1.8809551273413340e-03 0.0000000000000000e+00  1.1961623330495619e-04 1.9056839679790320e-03 0.0000000000000000e+00  1.0721001866671567e-04 1.4150316630993688e-03 0.0000000000000000e+00  1.0832456882750883e-04 1.4281725800253176e-03 0.0000000000000000e+00  1.0938021273489833e-04 1.4408839597274507e-03 0.0000000000000000e+00  1.1036300499791128e-04 1.4531280962454271e-03 0.0000000000000000e+00  1.1122634984214966e-04 1.4649228306985761e-03 0.0000000000000000e+00  1.1190414734853702e-04 1.4763758753389626e-03 0.0000000000000000e+00  1.1234223156741200e-04 1.4876124364730119e-03 0.0000000000000000e+00  1.1248813578371965e-04 1.4985753131028831e-03 0.0000000000000000e+00  1.1231778147926920e-04 1.5094966481180117e-03 0.0000000000000000e+00  1.1189534012258474e-04 1.5200044305656215e-03 0.0000000000000000e+00  1.1151162384443799e-04 1.5300522951035653e-03 0.0000000000000000e+00  1.1134600911902672e-04 1.5408754423974868e-03 0.0000000000000000e+00  1.1113742310061814e-04 1.5518505858325108e-03 0.0000000000000000e+00  1.1096482305810834e-04 1.5632048048465524e-03 0.0000000000000000e+00  1.1060195002625720e-04 1.5766062418005515e-03 0.0000000000000000e+00  1.0953307943164096e-04 1.5915870413741099e-03 0.0000000000000000e+00  1.0915900385483087e-04 1.6133194464606738e-03 0.0000000000000000e+00  1.0739999620128771e-04 1.6348063259596891e-03 0.0000000000000000e+00  1.0553543927427497e-04 1.6573137350600357e-03 0.0000000000000000e+00  1.0343986649079969e-04 1.6801114481148046e-03 0.0000000000000000e+00  1.0149374598398885e-04 1.7038131151309354e-03 0.0000000000000000e+00  1.0006028470660413e-04 1.7285932839902489e-03 0.0000000000000000e+00  9.9205313454635494e-05 1.7537879008632099e-03 0.0000000000000000e+00  9.8802145973051443e-05 1.7791568336856457e-03 0.0000000000000000e+00  9.8923427862950990e-05 1.8045597074467046e-03 0.0000000000000000e+00  9.9614181307138396e-05 1.8298647011268957e-03 0.0000000000000000e+00  1.0086044566141936e-04 1.8549285931903203e-03 0.0000000000000000e+00  1.0258516913879777e-04 1.8796246241141992e-03 0.0000000000000000e+00  1.0465483907213650e-04 1.9039170782806680e-03 0.0000000000000000e+00  1.0058506665899890e-04 1.4296886309792798e-03 0.0000000000000000e+00  1.0116876151146567e-04 1.4425030032325292e-03 0.0000000000000000e+00  1.0168350390032873e-04 1.4548425087758303e-03 0.0000000000000000e+00  1.0210976748999650e-04 1.4667484536232741e-03 0.0000000000000000e+00  1.0239588887626012e-04 1.4783544771643003e-03 0.0000000000000000e+00  1.0247107297574348e-04 1.4897517992833815e-03 0.0000000000000000e+00  1.0233591250795147e-04 1.5009503561558635e-03 0.0000000000000000e+00  1.0191005279588988e-04 1.5118624010701908e-03 0.0000000000000000e+00  1.0175346330265605e-04 1.5224207355406633e-03 0.0000000000000000e+00  1.0156012543051597e-04 1.5310906891834576e-03 0.0000000000000000e+00  1.0135584356286082e-04 1.5410632001160256e-03 0.0000000000000000e+00  1.0129815016669657e-04 1.5514313990355490e-03 0.0000000000000000e+00  1.0138572560988689e-04 1.5618060182136628e-03 0.0000000000000000e+00  1.0165475253757921e-04 1.5727600716096215e-03 0.0000000000000000e+00  1.0153861507138391e-04 1.5938807723827485e-03 0.0000000000000000e+00  9.9397117144913789e-05 1.6161659162432732e-03 0.0000000000000000e+00  9.7058787651799758e-05 1.6387469681248645e-03 0.0000000000000000e+00  9.4526246896527836e-05 1.6615102604405128e-03 0.0000000000000000e+00  9.2088175809113053e-05 1.6845111727951439e-03 0.0000000000000000e+00  8.9846209455046169e-05 1.7079914657317603e-03 0.0000000000000000e+00  8.8015441548531642e-05 1.7320738297641940e-03 0.0000000000000000e+00  8.6741031150336652e-05 1.7565109219954635e-03 0.0000000000000000e+00  8.6012577232491639e-05 1.7811264458344831e-03 0.0000000000000000e+00  8.5818269708968643e-05 1.8057620177919780e-03 0.0000000000000000e+00  8.6151454287861841e-05 1.8303078558217546e-03 0.0000000000000000e+00  8.6983677808983600e-05 1.8546686988864640e-03 0.0000000000000000e+00  8.8253046296608918e-05 1.8787729523176934e-03 0.0000000000000000e+00  8.9869184330984602e-05 1.9026058640578239e-03 0.0000000000000000e+00  9.2998997960104589e-05 1.4445693784572065e-03 0.0000000000000000e+00  9.3134663572075631e-05 1.4569734504798672e-03 0.0000000000000000e+00  9.3227803238097394e-05 1.4689219637209019e-03 0.0000000000000000e+00  9.3218653753432710e-05 1.4806076277251372e-03 0.0000000000000000e+00  9.3079098666055097e-05 1.4921613215517018e-03 0.0000000000000000e+00  9.2703410357338330e-05 1.5033586929135657e-03 0.0000000000000000e+00  9.2750552937712847e-05 1.5143979346708392e-03 0.0000000000000000e+00  9.2689800617308567e-05 1.5229019224342177e-03 0.0000000000000000e+00  9.2524964472379833e-05 1.5316424917372756e-03 0.0000000000000000e+00  9.2317246339853901e-05 1.5411254987410285e-03 0.0000000000000000e+00  9.2270099481615541e-05 1.5509492128867729e-03 0.0000000000000000e+00  9.2388083334246957e-05 1.5606798296126936e-03 0.0000000000000000e+00  9.2755380880625097e-05 1.5696134614595261e-03 0.0000000000000000e+00  9.1736026235348099e-05 1.5956469296313106e-03 0.0000000000000000e+00  8.9031196382004959e-05 1.6197427928464785e-03 0.0000000000000000e+00  8.5981930747491424e-05 1.6429715570507339e-03 0.0000000000000000e+00  8.2996941200402287e-05 1.6659646291430346e-03 0.0000000000000000e+00  8.0216621794862553e-05 1.6889425139208394e-03 0.0000000000000000e+00  7.7735671877646699e-05 1.7121438628406355e-03 0.0000000000000000e+00  7.5666207708021346e-05 1.7356624916520437e-03 0.0000000000000000e+00  7.4106239808324970e-05 1.7594134679221789e-03 0.0000000000000000e+00  7.3080645679154970e-05 1.7833004359671324e-03 0.0000000000000000e+00  7.2581922886709587e-05 1.8072110558379939e-03 0.0000000000000000e+00  7.2586312864331487e-05 1.8310548627975196e-03 0.0000000000000000e+00  7.3058231120487458e-05 1.8547631141773160e-03 0.0000000000000000e+00  7.3946100287589173e-05 1.8782927806224241e-03 0.0000000000000000e+00  7.5185795310772513e-05 1.9016402599821764e-03 0.0000000000000000e+00  8.4722196675027304e-05 1.4594690793879824e-03 0.0000000000000000e+00  8.4570157130823569e-05 1.4713458416168578e-03 0.0000000000000000e+00  8.4414841991262040e-05 1.4830752328485457e-03 0.0000000000000000e+00  8.4065318906637455e-05 1.4945719643597939e-03 0.0000000000000000e+00  8.4263179762739717e-05 1.5059516439787268e-03 0.0000000000000000e+