<?xml version="1.0"?>
<VTKFile type="UnstructuredGrid"  version="0.1"  >
<UnstructuredGrid>
<Piece  NumberOfPoints="608" NumberOfCells="1117">
<Points>
<DataArray  type="Float64"  NumberOfComponents="3"  format="ascii">0.08260869565217391 0 0  0.09913043478260869 0 0  0.09913043478260869 0.01666666666666667 0  0.1156521739130435 0 0  0.1156521739130435 0.01666666666666667 0  0.1321739130434783 0 0  0.1321739130434783 0.01666666666666667 0  0.148695652173913 0 0  0.148695652173913 0.01666666666666667 0  0.1652173913043478 0 0  0.1652173913043478 0.01666666666666667 0  0.1817391304347826 0 0  0.1817391304347826 0.01666666666666667 0  0.1982608695652174 0 0  0.1982608695652174 0.01666666666666667 0  0.2147826086956522 0 0  0.2147826086956522 0.01666666666666667 0  0.2313043478260869 0 0  0.2313043478260869 0.01666666666666667 0  0.2478260869565218 0 0  0.2478260869565218 0.01666666666666667 0  0.2643478260869565 0 0  0.2643478260869565 0.01666666666666667 0  0.2808695652173913 0 0  0.2808695652173913 0.01666666666666667 0  0.2973913043478261 0 0  0.2973913043478261 0.01666666666666667 0  0.3139130434782609 0 0  0.3139130434782609 0.01666666666666667 0  0.3304347826086956 0 0  0.3304347826086956 0.01666666666666667 0  0.3469565217391304 0 0  0.3469565217391304 0.01666666666666667 0  0.3634782608695652 0 0  0.3634782608695652 0.01666666666666667 0  0.3799999999999999 0 0  0.3799999999999999 0.01666666666666667 0  0.3965217391304348 0 0  0.3965217391304348 0.01666666666666667 0  0.4130434782608696 0 0  0.4130434782608696 0.01666666666666667 0  0.4295652173913043 0.01666666666666667 0  0.1156521739130435 0.03333333333333333 0  0.1321739130434783 0.03333333333333333 0  0.148695652173913 0.03333333333333333 0  0.1652173913043478 0.03333333333333333 0  0.1817391304347826 0.03333333333333333 0  0.1982608695652174 0.03333333333333333 0  0.2147826086956522 0.03333333333333333 0  0.2313043478260869 0.03333333333333333 0  0.2478260869565218 0.03333333333333333 0  0.2643478260869565 0.03333333333333333 0  0.2808695652173913 0.03333333333333333 0  0.2973913043478261 0.03333333333333333 0  0.3139130434782609 0.03333333333333333 0  0.3304347826086956 0.03333333333333333 0  0.3469565217391304 0.03333333333333333 0  0.3634782608695652 0.03333333333333333 0  0.3799999999999999 0.03333333333333333 0  0.3965217391304348 0.03333333333333333 0  0.4130434782608696 0.03333333333333333 0  0.4295652173913043 0.03333333333333333 0  0.4460869565217391 0.03333333333333333 0  0.1321739130434783 0.05 0  0.148695652173913 0.05 0  0.1652173913043478 0.05 0  0.1817391304347826 0.05 0  0.1982608695652174 0.05 0  0.2147826086956522 0.05 0  0.2313043478260869 0.05 0  0.2478260869565218 0.05 0  0.2643478260869565 0.05 0  0.2808695652173913 0.05 0  0.2973913043478261 0.05 0  0.3139130434782609 0.05 0  0.3304347826086956 0.05 0  0.3469565217391304 0.05 0  0.3634782608695652 0.05 0  0.3799999999999999 0.05 0  0.3965217391304348 0.05 0  0.4130434782608696 0.05 0  0.4295652173913043 0.05 0  0.4460869565217391 0.05 0  0.4626086956521739 0.05 0  0.148695652173913 0.06666666666666667 0  0.1652173913043478 0.06666666666666667 0  0.1817391304347826 0.06666666666666667 0  0.1982608695652174 0.06666666666666667 0  0.2147826086956522 0.06666666666666667 0  0.2313043478260869 0.06666666666666667 0  0.2478260869565218 0.06666666666666667 0  0.2643478260869565 0.06666666666666667 0  0.2808695652173913 0.06666666666666667 0  0.2973913043478261 0.06666666666666667 0  0.3139130434782609 0.06666666666666667 0  0.3304347826086956 0.06666666666666667 0  0.3469565217391304 0.06666666666666667 0  0.3634782608695652 0.06666666666666667 0  0.3799999999999999 0.06666666666666667 0  0.3965217391304348 0.06666666666666667 0  0.4130434782608696 0.06666666666666667 0  0.4295652173913043 0.06666666666666667 0  0.4460869565217391 0.06666666666666667 0  0.4626086956521739 0.06666666666666667 0  0.4791304347826086 0.06666666666666667 0  0.1652173913043478 0.08333333333333333 0  0.1817391304347826 0.08333333333333333 0  0.1982608695652174 0.08333333333333333 0  0.2147826086956522 0.08333333333333333 0  0.2313043478260869 0.08333333333333333 0  0.2478260869565218 0.08333333333333333 0  0.2643478260869565 0.08333333333333333 0  0.2808695652173913 0.08333333333333333 0  0.2973913043478261 0.08333333333333333 0  0.3139130434782609 0.08333333333333333 0  0.3304347826086956 0.08333333333333333 0  0.3469565217391304 0.08333333333333333 0  0.3634782608695652 0.08333333333333333 0  0.3799999999999999 0.08333333333333333 0  0.3965217391304348 0.08333333333333333 0  0.4130434782608696 0.08333333333333333 0  0.4295652173913043 0.08333333333333333 0  0.4460869565217391 0.08333333333333333 0  0.4626086956521739 0.08333333333333333 0  0.4791304347826086 0.08333333333333333 0  0.4956521739130435 0.08333333333333333 0  0.1817391304347826 0.1 0  0.1982608695652174 0.1 0  0.2147826086956522 0.1 0  0.2313043478260869 0.1 0  0.2478260869565218 0.1 0  0.2643478260869565 0.1 0  0.2808695652173913 0.1 0  0.2973913043478261 0.1 0  0.3139130434782609 0.1 0  0.3304347826086956 0.1 0  0.3469565217391304 0.1 0  0.3634782608695652 0.1 0  0.3799999999999999 0.1 0  0.3965217391304348 0.1 0  0.4130434782608696 0.1 0  0.4295652173913043 0.1 0  0.4460869565217391 0.1 0  0.4626086956521739 0.1 0  0.4791304347826086 0.1 0  0.4956521739130435 0.1 0  0.5121739130434783 0.1 0  0.1982608695652174 0.1166666666666667 0  0.2147826086956522 0.1166666666666667 0  0.2313043478260869 0.1166666666666667 0  0.2478260869565218 0.1166666666666667 0  0.2643478260869565 0.1166666666666667 0  0.2808695652173913 0.1166666666666667 0  0.2973913043478261 0.1166666666666667 0  0.3139130434782609 0.1166666666666667 0  0.3304347826086956 0.1166666666666667 0  0.3469565217391304 0.1166666666666667 0  0.3634782608695652 0.1166666666666667 0  0.3799999999999999 0.1166666666666667 0  0.3965217391304348 0.1166666666666667 0  0.4130434782608696 0.1166666666666667 0  0.4295652173913043 0.1166666666666667 0  0.4460869565217391 0.1166666666666667 0  0.4626086956521739 0.1166666666666667 0  0.4791304347826086 0.1166666666666667 0  0.4956521739130435 0.1166666666666667 0  0.5121739130434783 0.1166666666666667 0  0.528695652173913 0.1166666666666667 0  0.2147826086956522 0.1333333333333333 0  0.2313043478260869 0.1333333333333333 0  0.2478260869565218 0.1333333333333333 0  0.2643478260869565 0.1333333333333333 0  0.2808695652173913 0.1333333333333333 0  0.2973913043478261 0.1333333333333333 0  0.3139130434782609 0.1333333333333333 0  0.3304347826086956 0.1333333333333333 0  0.3469565217391304 0.1333333333333333 0  0.3634782608695652 0.1333333333333333 0  0.3799999999999999 0.1333333333333333 0  0.3965217391304348 0.1333333333333333 0  0.4130434782608696 0.1333333333333333 0  0.4295652173913043 0.1333333333333333 0  0.4460869565217391 0.1333333333333333 0  0.4626086956521739 0.1333333333333333 0  0.4791304347826086 0.1333333333333333 0  0.4956521739130435 0.1333333333333333 0  0.5121739130434783 0.1333333333333333 0  0.528695652173913 0.1333333333333333 0  0.5452173913043478 0.1333333333333333 0  0.2313043478260869 0.15 0  0.2478260869565218 0.15 0  0.2643478260869565 0.15 0  0.2808695652173913 0.15 0  0.2973913043478261 0.15 0  0.3139130434782609 0.15 0  0.3304347826086956 0.15 0  0.3469565217391304 0.15 0  0.3634782608695652 0.15 0  0.3799999999999999 0.15 0  0.3965217391304348 0.15 0  0.4130434782608696 0.15 0  0.4295652173913043 0.15 0  0.4460869565217391 0.15 0  0.4626086956521739 0.15 0  0.4791304347826086 0.15 0  0.4956521739130435 0.15 0  0.5121739130434783 0.15 0  0.528695652173913 0.15 0  0.5452173913043478 0.15 0  0.5617391304347825 0.15 0  0.2478260869565218 0.1666666666666667 0  0.2643478260869565 0.1666666666666667 0  0.2808695652173913 0.1666666666666667 0  0.2973913043478261 0.1666666666666667 0  0.3139130434782609 0.1666666666666667 0  0.3304347826086956 0.1666666666666667 0  0.3469565217391304 0.1666666666666667 0  0.3634782608695652 0.1666666666666667 0  0.3799999999999999 0.1666666666666667 0  0.3965217391304348 0.1666666666666667 0  0.4130434782608696 0.1666666666666667 0  0.4295652173913043 0.1666666666666667 0  0.4460869565217391 0.1666666666666667 0  0.4626086956521739 0.1666666666666667 0  0.4791304347826086 0.1666666666666667 0  0.4956521739130435 0.1666666666666667 0  0.5121739130434783 0.1666666666666667 0  0.528695652173913 0.1666666666666667 0  0.5452173913043478 0.1666666666666667 0  0.5617391304347825 0.1666666666666667 0  0.5782608695652174 0.1666666666666667 0  0.2643478260869565 0.1833333333333333 0  0.2808695652173913 0.1833333333333333 0  0.2973913043478261 0.1833333333333333 0  0.3139130434782609 0.1833333333333333 0  0.3304347826086956 0.1833333333333333 0  0.3469565217391304 0.1833333333333333 0  0.3634782608695652 0.1833333333333333 0  0.3799999999999999 0.1833333333333333 0  0.3965217391304348 0.1833333333333333 0  0.4130434782608696 0.1833333333333333 0  0.4295652173913043 0.1833333333333333 0  0.4460869565217391 0.1833333333333333 0  0.4626086956521739 0.1833333333333333 0  0.4791304347826086 0.1833333333333333 0  0.4956521739130435 0.1833333333333333 0  0.5121739130434783 0.1833333333333333 0  0.528695652173913 0.1833333333333333 0  0.5452173913043478 0.1833333333333333 0  0.5617391304347825 0.1833333333333333 0  0.5782608695652174 0.1833333333333333 0  0.2808695652173913 0.2 0  0.2973913043478261 0.2 0  0.3139130434782609 0.2 0  0.3304347826086956 0.2 0  0.3469565217391304 0.2 0  0.3634782608695652 0.2 0  0.3799999999999999 0.2 0  0.3965217391304348 0.2 0  0.4130434782608696 0.2 0  0.4295652173913043 0.2 0  0.4460869565217391 0.2 0  0.4626086956521739 0.2 0  0.4791304347826086 0.2 0  0.4956521739130435 0.2 0  0.5121739130434783 0.2 0  0.528695652173913 0.2 0  0.5452173913043478 0.2 0  0.5617391304347825 0.2 0  0.5782608695652174 0.2 0  0.2973913043478261 0.2166666666666667 0  0.3139130434782609 0.2166666666666667 0  0.3304347826086956 0.2166666666666667 0  0.3469565217391304 0.2166666666666667 0  0.36347826086956
[...]
<CellData  Scalars="rho_bar"> 
<DataArray  type="Float64"  Name="rho_bar"  format="ascii">7.0598353771643352e-01   7.0332465356330620e-01   7.0094755665977604e-01   7.0038488288980649e-01   6.9811425238982494e-01   6.9722909562905844e-01   6.9504042430597790e-01   6.9392207267777040e-01   6.9179204932515481e-01   6.9052340803516421e-01   6.8843094931337545e-01   6.8708634701429905e-01   6.8501305296296355e-01   6.8365586124531497e-01   6.8158640952231542e-01   6.8026867662679480e-01   6.7819097104551374e-01   6.7695233296112534e-01   6.7485754893833316e-01   6.7372588659344024e-01   6.7160831404378063e-01   6.7059965230204055e-01   6.6845651158854402e-01   6.6757666811687710e-01   6.6540761554435757e-01   6.6465331174529940e-01   6.6245999744971551e-01   6.6182109347851659e-01   6.5960669775571168e-01   6.5906756402002620e-01   6.5683624513910488e-01   6.5637839471857351e-01   6.5413484669058497e-01   6.5373819163802072e-01   6.5148714704235378e-01   6.5113232693184619e-01   6.4887824500560654e-01   6.4854747434567639e-01   6.4629401196265923e-01   6.4372299969392976e-01   6.8680817724246912e-01   6.8396751406492340e-01   6.7497487770839859e-01   6.8090093292538001e-01   6.7203643750742992e-01   6.7767372031167872e-01   6.6891059680070786e-01   6.7434711088758281e-01   6.6566083842139578e-01   6.7097520176288639e-01   6.6234430968885949e-01   6.6760482560072154e-01   6.5901118702257289e-01   6.6427407539172389e-01   6.5570334507991712e-01   6.6101203284732057e-01   6.5245390635737055e-01   6.5783816630037717e-01   6.4928595895062258e-01   6.5476360498269681e-01   6.4621372718010517e-01   6.5179116651552937e-01   6.4324273920727781e-01   6.4891717736037480e-01   6.4037132349135684e-01   6.4613271079120604e-01   6.3759183799434005e-01   6.4342535407963963e-01   6.3489288541984501e-01   6.4078034317639954e-01   6.3226010434128310e-01   6.3818253248893364e-01   6.2967841178207251e-01   6.3561667646181830e-01   6.2713228333890103e-01   6.3306912977288832e-01   6.2460723644320393e-01   6.3052848195765698e-01   6.2209046848939165e-01   6.1957225895834023e-01   6.4742723144417724e-01   6.4459765868880992e-01   6.2890172527570720e-01   6.4159055347995686e-01   6.2606554682097626e-01   6.3846773441338089e-01   6.2308686297616589e-01   6.3528578552186932e-01   6.2002464595510354e-01   6.3209387651137039e-01   6.1693138465621566e-01   6.2893358878936434e-01   6.1385259134664083e-01   6.2583649853779588e-01   6.1082449639346481e-01   6.2282383575998568e-01   6.0787275977307997e-01   6.1990683696929327e-01   6.0501198090972819e-01   6.1708853446377987e-01   6.0224779628645853e-01   6.1436447072502787e-01   5.9957773203643694e-01   6.1172533480026847e-01   5.9699366227861406e-01   6.0915829867548021e-01   5.9448356627885723e-01   6.0664886912853455e-01   5.9203348187252181e-01   6.0418147498027952e-01   5.8962803377156148e-01   6.0174055433922602e-01   5.8725156395428890e-01   5.9931074177678489e-01   5.8488790966880566e-01   5.9687914526986752e-01   5.8252246012917519e-01   5.9443564117836034e-01   5.8014331802800712e-01   5.7774198475506322e-01   5.8847735792430722e-01   5.8591101398483381e-01   5.6400196103509159e-01   5.8320862934835938e-01   5.6154327632873990e-01   5.8042691848170869e-01   5.5897956006455607e-01   5.7761800861264634e-01   5.5636474000599190e-01   5.7482705559008851e-01   5.5374722867881576e-01   5.7208964410320307e-01   5.5116758634622398e-01   5.6942858141349817e-01   5.4865386686065221e-01   5.6685528641897109e-01   5.4622125338403060e-01   5.6437145724795512e-01   5.4387385644585884e-01   5.6197194924034810e-01   5.4160810922801328e-01   5.5964655881960601e-01   5.3941481531705393e-01   5.5738275539364612e-01   5.3728209498125179e-01   5.5516641850435311e-01   5.3519646660860720e-01   5.5298250164064056e-01   5.3314362498103163e-01   5.5081425020700836e-01   5.3110724179514135e-01   5.4864419840392720e-01   5.2906936884012734e-01   5.4645612552188727e-01   5.2701173445515115e-01   5.4423810851081789e-01   5.2491982559931183e-01   5.4198191405451945e-01   5.2278377046063718e-01   5.2059788095761028e-01   5.1310315798570416e-01   5.1110877878373340e-01   4.8468757404268725e-01   5.0901252384599172e-01   4.8291541601875426e-01   5.0686570167964817e-01   4.8106765745132540e-01   5.0471706187475041e-01   4.7919412029515157e-01   5.0260583906623313e-01   4.7733894805306210e-01   5.0055652035482168e-01   4.7553282633563226e-01   4.9857899804904049e-01   4.7378971296569922e-01   4.9667296696945451e-01   4.7211134425118534e-01   4.9483132902478788e-01   4.7049149637124110e-01   4.9304366277390538e-01   4.6892028970086208e-01   4.9129793990885184e-01   4.6738615805136963e-01   4.8958188531638708e-01   4.6587763384966835e-01   4.8788176973395847e-01   4.6438238050415914e-01   4.8618042123951982e-01   4.6288509170415154e-01   4.8445653700444319e-01   4.6136483338466672e-01   4.8268986483303500e-01   4.5979882825665003e-01   4.8086571279989682e-01   4.5816871037602364e-01   4.7897593627150031e-01   4.5646410646111363e-01   4.7701657988358492e-01   4.5468023539363706e-01   4.5281591959465028e-01   4.2824508876594958e-01   4.2709087049810290e-01   3.9904116922507016e-01   4.2586112560471728e-01   3.9817486031491839e-01   4.2460531423138259e-01   3.9725789952467200e-01   4.2336645544938789e-01   3.9633750962009362e-01   4.2216863661209592e-01   3.9544522117296138e-01   4.2101877743574778e-01   3.9459195816658238e-01   4.1991269929313857e-01   3.9377473266456314e-01   4.1884111769274662e-01   3.9298430266119760e-01   4.1779302369388605e-01   3.9220939322683818e-01   4.1675810888979947e-01   3.9143969720994404e-01   4.1572686329038283e-01   3.9066637535389659e-01   4.1468915167527165e-01   3.8988127428513664e-01   4.1362860385573430e-01   3.8907178403952264e-01   4.1251969235406150e-01   3.8821510345978927e-01   4.1133611433979045e-01   3.8728187143270337e-01   4.1006114775681329e-01   3.8624996207108847e-01   4.0868720708578576e-01   3.8510907645657261e-01   4.0721244732862344e-01   3.8385674723679603e-01   4.0563742578811218e-01   3.8249366189587058e-01   3.8102175914701542e-01   3.4337124300105820e-01   3.4315979006790975e-01   3.1656582805550199e-01   3.4290110816791769e-01   3.1664323998980443e-01   3.4263953074417708e-01   3.1669856957480019e-01   3.4239736297918216e-01   3.1676274671349391e-01   3.4217588140912764e-01   3.1684116194510409e-01   3.4196617759362924e-01   3.1692527441097684e-01   3.4175601312420295e-01   3.1700202811642475e-01   3.4153404654555175e-01   3.1705906262140926e-01   3.4129139471306869e-01   3.1708669868793421e-01   3.4102202087137456e-01   3.1707880685405793e-01   3.4072027293135226e-01   3.1703113195172355e-01   3.4037383399346099e-01   3.1693626720178453e-01   3.3995498413157849e-01   3.1677321716094792e-01   3.3943096266566386e-01   3.1650822883047880e-01   3.3878249689131879e-01   3.1611447597894160e-01   3.3800380674528319e-01   3.1558250896437495e-01   3.3709508276224498e-01   3.1491185676144828e-01   3.3605866905883175e-01   3.1410496056441828e-01   3.3489694983387280e-01   3.1316447654967805e-01   3.1209274310049961e-01   2.6701374519937093e-01   2.6767126069823399e-01   2.4466717494502704e-01   2.6831054566060247e-01   2.4557070127125841e-01   2.6895006727522114e-01   2.4646647940245886e-01   2.6958572363106581e-01   2.4735504956387017e-01   2.7020379818547985e-01   2.4822312576882305e-01   2.7078957050196817e-01   2.4905495558038773e-01   2.7133089996327137e-01   2.4983683720964395e-01   2.7181992636811514e-01   2.5055943359419064e-01   2.7225257621206839e-01   2.5121771309428181e-01   2.7262641175346436e-01   2.5180948270721509e-01   2.7293398609418346e-01   2.5233081380297395e-01   2.7315257212825522e-01   2.5276752200711400e-01   2.7324818164361769e-01   2.5308997533304078e-01   2.7319876051385644e-01   2.5327001333729510e-01   2.7299869576138625e-01   2.5329687164209985e-01   2.7264921585940805e-01   2.5317025111095670e-01   2.7215276819791812e-01   2.5289206646938123e-01   2.7151174245738907e-01   2.5246441898046007e-01   2.7072790507456279e-01   2.5188887614838479e-01   2.5116681087405246e-01   2.0404592763882115e-01   2.0538754020887792e-01   1.8678704811743299e-01   2.0671438922426397e-01   1.8829781768993242e-01   2.0801831193247089e-01   1.8978595290861525e-01   2.0928289875117703e-01   1.9123560809395249e-01   2.1049151571889951e-01   1.9262907712389946e-01   2.1163135337010977e-01   1.9395163888273023e-01   2.1269465544852892e-01   1.9519361351181500e-01   2.1367826403266710e-01   1.9635056936687423e-01   2.1458079497279850e-01   1.9742109381159351e-01   2.1539785325189215e-01   1.9840303745653257e-01   2.1611468700394013e-01   1.9928781921769467e-01   2.1670569247793176e-01   2.0005616349926042e-01   2.1714969298093564e-01   2.0068524980470845e-01   2.1743889002476680e-01   2.0116295965750358e-01   2.1757238282759667e-01   2.0148600270174527e-01   2.1755083025570485e-01   2.0165375989644369e-01   2.1737482685533871e-01   2.0166594260280005e-01   2.1704494679757205e-01   2.0152245202949265e-01   2.1656168903075543e-01   2.0122320452584033e-01   2.0076870164994332e-01   1.5549312311257985e-01   1.5727911050628798e-01   1.4295006774785576e-01   1.5903194533536844e-01   1.4482071512467337e-01   1.6073293557934160e-01   1.4664435313472987e-01   1.6236372570559535e-01   1.4840111640973752e-01   1.6391040320576428e-01   1.5007455517241333e-01   1.6536531204492927e-01   1.5165467728311113e-01   1.6672598312969492e-01   1.5313768674179570e-01   1.6799240187632106e-01   1.5452374032412045e-01   1.6916256097037796e-01   1.5581293909513652e-01   1.7022803411644619e-01   1.5700111044527398e-01   1.7117293286254975e-01   1.5807704342266360e-01   1.7198120524131594e-01   1.5902544373945493e-01   1.7264317362839063e-01   1.5983444873295438e-01   1.7315419870509746e-01   1.6049733777017114e-01   1.7351153742297123e-01   1.6100972617847675e-01   1.7371320997037820e-01   1.6136844951266507e-01   1.7375760634012369e-01   1.6157090464966800e-01   1.7364379735240013e-01   1.6161530655491016e-01   1.7337171076223554e-01   1.6150074257907793e-01   1.6122774484538047e-01   1.1998240500045373e-01   1.2199526552612565e-01   1.1136822539311558e-01   1.2395218567564693e-01   1.1339979356065451e-01   1.2583167923145758e-01   1.1535992479411034e-01   1.2761823148211643e-01   1.1722959431883967e-01   1.2930436636608844e-01   1.1899832242590365e-01   1.3088935561631795e-01   1.2066399186814551e-01   1.3237583569466618e-01   1.2222963546210351e-01   1.3376558473461589e-01   1.2369934118542315e-01   1.3505520509271005e-01   1.2507351908126335e-01   1.3623526123090213e-01   1.2634630911664793e-01   1.3729367990205571e-01   1.2750692533799035e-01   1.3821998518581222e-01   1.2854402195843170e-01   1.3900618425820643e-01   1.2944806106489529e-01   1.3964610535390501e-01   1.3021133066718024e-01   1.4013487465728094e-01   1.3082757784831456e-01   1.4046868078534608e-01   1.3129189167524602e-01   1.4064481139904228e-01   1.3160052292648686e-01   1.4066198532540544e-01   1.3175124083295528e-01   1.4052061289946735e-01   1.3174348507098391e-01   9.5279885001616008e-02   9.7364409313944550e-02   8.9783154058492465e-02   9.9367203799703777e-02   9.1837719249180966e-02   1.0127040390167466e-01   9.3795419592655999e-02   1.0306723725761492e-01   9.5645574359282365e-02   1.0475988506791450e-01   9.7388671495507867e-02   1.0635562066358502e-01   9.9032479280819499e-02   1.0786171414086429e-01   1.0058701844455147e-01   1.0927978369836668e-01   1.0205843581980628e-01   1.1060403440706745e-01   1.0344463858437263e-01   1.1182395484706438e-01   1.0473659630203258e-01   1.1292780538489906e-01   1.0592217861032320e-01   1.1390482896717692e-01   1.0698931841029606e-01   1.1474587225707325e-01   1.0792735790266171e-01   1.1544345295759421e-01   1.0872744020568977e-01   1.1599165259441724e-01   1.0938244155769006e-01   1.1638616474741122e-01   1.0988697584603570e-01   1.1662443979478831e-01   1.1023745055464980e-01   1.1670600556334131e-01   1.1043235139388481e-01   7.9208367565613960e-02   8.1258016579129011e-02   7.6153244393082228e-02   8.3199984964025434e-02   7.8136391546922868e-02   8.5028123725399196e-02   8.0002833214204622e-02   8.6748297439645766e-02   8.1755685858271976e-02   8.8374505662982869e-02   8.3408718794330164e-02   8.9922278526908220e-02   8.4980913668689623e-02   9.1398941368504613e-02   8.6486213906948148e-02   9.2800870816508785e-02   8.7925916371690491e-02   9.4116988708659505e-02   8.9290694926476968e-02   9.5333511403984314e-02   9.0566366878878368e-02   9.6436941160283424e-02   9.1738117855790210e-02   9.7415536961215493e-02   9.2792669291991356e-02   9.8259607237428034e-02   9.3718937694561383e-02   9.8961486146067923e-02   9.4508051986000957e-02   9.9515466501321856e-02   9.5153222409946003e-02   9.9917886458463639e-02   9.5649747224998999e-02   1.0016741587606347e-01   9.5995190647777867e-02   7.0010443988266308e-02   6.6918852311401489e-02   7.1954896707016089e-02   6.8903024207655331e-02   7.3775639927526157e-02   7.0760880958627551e-02   7.5479960463048210e-02   7.2495050295056485e-02   7.7088630630626612e-02   7.4122586855282863e-02   7.8629123863932157e-02   7.5672975035358983e-02   8.0117112104939173e-02   7.7171953829642662e-02   8.1550493314972494e-02   7.8625206632010572e-02   8.2916379775285626e-02   8.0022174959064094e-02   8.4198151708129193e-02   8.1345789579615913e-02   8.5379708304288468e-02   8.2578536836859770e-02   8.6447086131477141e-02   8.3704937947032099e-02   8.7388918316796169e-02   8.4712272839216285e-02   8.8196200535744410e-02   8.5590425257161928e-02   8.8862168619659856e-02   8.6331616220479135e-02   8.9382229416483619e-02   8.6930270250575342e-02   8.9754244422327656e-02   8.7383131665726005e-02   6.4528796398458071e-02   6.3195593236166317e-02   6.6466298890819148e-02   6.5172398946254276e-02   6.8273902942169937e-02   6.7019849938164178e-02   6.9956890569571994e-02   6.8739054333121455e-02   7.1535925454933397e-02   7.0343589889629035e-02   7.3048260338592116e-02   7.1865621971250918e-02   7.4521598513909965e-02   7.3342360531188103e-02   7.5957320644376963e-02   7.4787152836635090e-02   7.7340701951741392e-02   7.6189431151314643e-02   7.8652655250053993e-02   7.7530112665960396e-02   7.9875000566787452e-02   7.8789883485400905e-02   8.0992384055024569e-02   7.9952094164013360e-02   8.1992394044798883e-02   8.1003211005365103e-02   8.2865321126567124e-02   8.1932579985307563e-02   8.3603710584496588e-02   8.2731927304805469e-02   8.4202296035066571e-02   8.3395122138827077e-02   8.4658099018422750e-02   8.3918159016441285e-02   8.4299547033674954e-02   6.4235500358216555e-02   6.6160599424120489e-02   6.6561732050014394e-02   6.7958232577938177e-02   6.8397407773682306e-02   6.9633009500425128e-02   7.0110487170486249e-02   7.1199907530667420e-02   7.1711165358255669e-02   7.2692850391763750e-02   7.3223263353222962e-02   7.4146637477847652e-02   7.4683396382904152e-02   7.5569402976310138e-02   7.6111630189977339e-02   7.6947686485599215e-02   7.7501206982124385e-02   7.8261946357207193e-02   7.8834035941141842e-02   7.9493720948759006e-02   8.0091423693534114e-02   8.0627465172643534e-02   8.1257152890342382e-02   8.1650782259555965e-02   8.2318117672316157e-02   8.2553876554371505e-02   8.3263907440677812e-02   8.3329163417051114e-02   8.4086364446773004e-02   8.3970933686511290e-02   8.4779147443403563e-02   8.4475447663297093e-02   8.5337678772566150e-02   8.4841281460357479e-02   8.5759312889971781e-02   8.6043952250797556e-02   7.1046819443145115e-02   7.2832453223364721e-02   7.5101943848950969e-02   7.4503988111449315e-02   7.6807540153473144e-02   7.6073135429768401e-02   7.8408838578220022e-02   7.7562884648943092e-02   7.9921463442410537e-02   7.9001977870676324e-02   8.1370658012144048e-02   8.0402540967651440e-02   8.2775421911069555e-02   8.1756122246290100e-02   8.4134198448207118e-02   8.3046392195231758e-02   8.5433567331206953e-02   8.4257002402603504e-02   8.6658101362627901e-02   8.5374007575455629e-02   8.7793972018724312e-02   8.6386057714305228e-02   8.8829676305197516e-02   8.7284129996039919e-02   8.9755972667083753e-02   8.8060965959311149e-02   9.0565359831971767e-02   8.8710805513227242e-02   9.1251737915591727e-02   8.9229215304086104e-02   9.1810123665609214e-02   8.9613353733621656e-02   9.2236722766210158e-02   8.9862432700634765e-02   9.2529217587429713e-02   9.2687391723990931e-02   8.3487026281854754e-02   8.5144333092428789e-02   8.9595881438797431e-02   8.6704261762151943e-02   9.1176976953359648e-02   8.8181847436915636e-02   9.2668897843037737e-02   8.9595369459945215e-02   9.4087100435551435e-02   9.0955054566311658e-02   9.5444661711658885e-02   9.2257510255980793e-02   9.6743088322934656e-02   9.3491825204276013e-02   9.7974562935394402e-02   9.4645811568715377e-02   9.9128498628098929e-02   9.5708403346789303e-02   1.0019455602744473e-01   9.6670382014202139e-02   1.0116384929426255e-01   9.7524120316434662e-02   1.0202893722660218e-01   9.8263284200992881e-02   1.0278358689728374e-01   9.8882361260153609e-02   1.0342229803420167e-01   9.9376488600992241e-02   1.0394001847899516e-01   9.9741319862000383e-02   1.0433187704780153e-01   9.9973258252084876e-02   1.0459318880574679e-01   1.0006985693259970e-01   1.0471963534121324e-01   1.0470789664350535e-01   1.0265206711728231e-01   1.0416224080624177e-01   1.1125174178990607e-01   1.0558473517845775e-01   1.1266983996858050e-01   1.0693112162713024e-01   1.1400469767010690e-01   1.0820864886026464e-01   1.1526495290731872e-01   1.0941696796942899e-01   1.1645317967217986e-01   1.1055025143604623e-01   1.1756609785322680e-01   1.1160080292494186e-01   1.1859765500241509e-01   1.1256110325247409e-01   1.1954136802038130e-01   1.1342454306007792e-01   1.2039126803574518e-01   1.1418550601990533e-01   1.2114224434798511e-01   1.1483894543626050e-01   1.2178968463817513e-01   1.1538007737942246e-01   1.2232916120244519e-01   1.1580386259439354e-01   1.2275588933464489e-01   1.1610469961115641e-01   1.2306428336765102e-01   1.1627599857728826e-01   1.2324734593976111e-01   1.1631024243661806e-01   1.2329634974288473e-01   1.1619973219914485e-01   1.2320123187606659e-01   1.2295211754197301e-01   1.2995681657938876e-01   1.3125087945184843e-01   1.4153851377292212e-01   1.3245885491082143e-01   1.4270796042115927e-01   1.3358636327192600e-01   1.4379269995969182e-01   1.3463485162398933e-01   1.4479586516214538e-01   1.3560229233555141e-01   1.4571722534285625e-01   1.3648492053027686e-01   1.4655447161698987e-01   1.3727860613686602e-01   1.4730453211568997e-01   1.3797955687578453e-01   1.4796441009471453e-01   1.3858434104742157e-01   1.4853134839036880e-01   1.3908965631204054e-01   1.4900272194161499e-01   1.3949175587699750e-01   1.4937547474764126e-01   1.3978598587055965e-01   1.4964563673629591e-01   1.3996586861179719e-01   1.4980740354065239e-01   1.4002215284152042e-01   1.4985201819069993e-01   1.3994167878700969e-01   1.4976617187717908e-01   1.3970861787084005e-01   1.4953209599712736e-01   1.3930747695822943e-01   1.4913065964278605e-01   1.4854495051413077e-01   1.6695096669714457e-01   1.6792015777706235e-01   1.8197944259771492e-01   1.6880190754170515e-01   1.8278189556079458e-01   1.6959882138628585e-01   1.8349805330977534e-01   1.7031146991406956e-01   1.8412963296711463e-01   1.7093915848780400e-01   1.8467700313790261e-01   1.7148073995837002e-01   1.8513991848880659e-01   1.7193497301738420e-01   1.8551791282288718e-01   1.7230067182290795e-01   1.8581051277446989e-01   1.7257633088546070e-01   1.8601697148409269e-01   1.7275971311188237e-01   1.8613592639147045e-01   1.7284698222356223e-01   1.8616458347179010e-01   1.7283167892580212e-01   1.8609777553603177e-01   1.7270262375595286e-01   1.8592594989955114e-01   1.7244082911511738e-01   1.8563173476520833e-01   1.7202044823183280e-01   1.8518813221137914e-01   1.7141624345967535e-01   1.8456506029207170e-01   1.7060737565553202e-01   1.8373699601127522e-01   1.8268483115100262e-01   2.14963450