<?xml version="1.0"?>
<VTKFile type="UnstructuredGrid"  version="0.1"  >
<UnstructuredGrid>
<Piece  NumberOfPoints="640" NumberOfCells="1175">
<Points>
<DataArray  type="Float64"  NumberOfComponents="3"  format="ascii">2.577391304347826 0 0  2.593913043478261 0 0  2.593913043478261 0.01666666666666667 0  2.577391304347826 0.01666666666666667 0  2.610434782608696 0 0  2.610434782608696 0.01666666666666667 0  2.62695652173913 0 0  2.62695652173913 0.01666666666666667 0  2.643478260869565 0 0  2.643478260869565 0.01666666666666667 0  2.66 0 0  2.66 0.01666666666666667 0  2.676521739130435 0 0  2.676521739130435 0.01666666666666667 0  2.693043478260869 0 0  2.693043478260869 0.01666666666666667 0  2.709565217391304 0 0  2.709565217391304 0.01666666666666667 0  2.726086956521739 0 0  2.726086956521739 0.01666666666666667 0  2.742608695652174 0 0  2.742608695652174 0.01666666666666667 0  2.759130434782609 0 0  2.759130434782609 0.01666666666666667 0  2.775652173913044 0 0  2.775652173913044 0.01666666666666667 0  2.792173913043478 0 0  2.792173913043478 0.01666666666666667 0  2.808695652173913 0 0  2.808695652173913 0.01666666666666667 0  2.825217391304347 0 0  2.825217391304347 0.01666666666666667 0  2.841739130434783 0 0  2.841739130434783 0.01666666666666667 0  2.858260869565217 0 0  2.858260869565217 0.01666666666666667 0  2.874782608695652 0 0  2.874782608695652 0.01666666666666667 0  2.891304347826087 0 0  2.891304347826087 0.01666666666666667 0  2.907826086956522 0 0  2.907826086956522 0.01666666666666667 0  2.924347826086957 0 0  2.924347826086957 0.01666666666666667 0  2.940869565217391 0 0  2.940869565217391 0.01666666666666667 0  2.957391304347826 0 0  2.957391304347826 0.01666666666666667 0  2.973913043478261 0 0  2.973913043478261 0.01666666666666667 0  2.593913043478261 0.03333333333333333 0  2.610434782608696 0.03333333333333333 0  2.62695652173913 0.03333333333333333 0  2.643478260869565 0.03333333333333333 0  2.66 0.03333333333333333 0  2.676521739130435 0.03333333333333333 0  2.693043478260869 0.03333333333333333 0  2.709565217391304 0.03333333333333333 0  2.726086956521739 0.03333333333333333 0  2.742608695652174 0.03333333333333333 0  2.759130434782609 0.03333333333333333 0  2.775652173913044 0.03333333333333333 0  2.792173913043478 0.03333333333333333 0  2.808695652173913 0.03333333333333333 0  2.825217391304347 0.03333333333333333 0  2.841739130434783 0.03333333333333333 0  2.858260869565217 0.03333333333333333 0  2.874782608695652 0.03333333333333333 0  2.891304347826087 0.03333333333333333 0  2.907826086956522 0.03333333333333333 0  2.924347826086957 0.03333333333333333 0  2.940869565217391 0.03333333333333333 0  2.957391304347826 0.03333333333333333 0  2.973913043478261 0.03333333333333333 0  2.610434782608696 0.05 0  2.62695652173913 0.05 0  2.643478260869565 0.05 0  2.66 0.05 0  2.676521739130435 0.05 0  2.693043478260869 0.05 0  2.709565217391304 0.05 0  2.726086956521739 0.05 0  2.742608695652174 0.05 0  2.759130434782609 0.05 0  2.775652173913044 0.05 0  2.792173913043478 0.05 0  2.808695652173913 0.05 0  2.825217391304347 0.05 0  2.841739130434783 0.05 0  2.858260869565217 0.05 0  2.874782608695652 0.05 0  2.891304347826087 0.05 0  2.907826086956522 0.05 0  2.924347826086957 0.05 0  2.940869565217391 0.05 0  2.957391304347826 0.05 0  2.973913043478261 0.05 0  2.990434782608696 0.05 0  2.62695652173913 0.06666666666666667 0  2.643478260869565 0.06666666666666667 0  2.66 0.06666666666666667 0  2.676521739130435 0.06666666666666667 0  2.693043478260869 0.06666666666666667 0  2.709565217391304 0.06666666666666667 0  2.726086956521739 0.06666666666666667 0  2.742608695652174 0.06666666666666667 0  2.759130434782609 0.06666666666666667 0  2.775652173913044 0.06666666666666667 0  2.792173913043478 0.06666666666666667 0  2.808695652173913 0.06666666666666667 0  2.825217391304347 0.06666666666666667 0  2.841739130434783 0.06666666666666667 0  2.858260869565217 0.06666666666666667 0  2.874782608695652 0.06666666666666667 0  2.891304347826087 0.06666666666666667 0  2.907826086956522 0.06666666666666667 0  2.924347826086957 0.06666666666666667 0  2.940869565217391 0.06666666666666667 0  2.957391304347826 0.06666666666666667 0  2.973913043478261 0.06666666666666667 0  2.990434782608696 0.06666666666666667 0  2.643478260869565 0.08333333333333333 0  2.66 0.08333333333333333 0  2.676521739130435 0.08333333333333333 0  2.693043478260869 0.08333333333333333 0  2.709565217391304 0.08333333333333333 0  2.726086956521739 0.08333333333333333 0  2.742608695652174 0.08333333333333333 0  2.759130434782609 0.08333333333333333 0  2.775652173913044 0.08333333333333333 0  2.792173913043478 0.08333333333333333 0  2.808695652173913 0.08333333333333333 0  2.825217391304347 0.08333333333333333 0  2.841739130434783 0.08333333333333333 0  2.858260869565217 0.08333333333333333 0  2.874782608695652 0.08333333333333333 0  2.891304347826087 0.08333333333333333 0  2.907826086956522 0.08333333333333333 0  2.924347826086957 0.08333333333333333 0  2.940869565217391 0.08333333333333333 0  2.957391304347826 0.08333333333333333 0  2.973913043478261 0.08333333333333333 0  2.990434782608696 0.08333333333333333 0  3.006956521739131 0.08333333333333333 0  2.66 0.1 0  2.676521739130435 0.1 0  2.693043478260869 0.1 0  2.709565217391304 0.1 0  2.726086956521739 0.1 0  2.742608695652174 0.1 0  2.759130434782609 0.1 0  2.775652173913044 0.1 0  2.792173913043478 0.1 0  2.808695652173913 0.1 0  2.825217391304347 0.1 0  2.841739130434783 0.1 0  2.858260869565217 0.1 0  2.874782608695652 0.1 0  2.891304347826087 0.1 0  2.907826086956522 0.1 0  2.924347826086957 0.1 0  2.940869565217391 0.1 0  2.957391304347826 0.1 0  2.973913043478261 0.1 0  2.990434782608696 0.1 0  3.006956521739131 0.1 0  2.676521739130435 0.1166666666666667 0  2.693043478260869 0.1166666666666667 0  2.709565217391304 0.1166666666666667 0  2.726086956521739 0.1166666666666667 0  2.742608695652174 0.1166666666666667 0  2.759130434782609 0.1166666666666667 0  2.775652173913044 0.1166666666666667 0  2.792173913043478 0.1166666666666667 0  2.808695652173913 0.1166666666666667 0  2.825217391304347 0.1166666666666667 0  2.841739130434783 0.1166666666666667 0  2.858260869565217 0.1166666666666667 0  2.874782608695652 0.1166666666666667 0  2.891304347826087 0.1166666666666667 0  2.907826086956522 0.1166666666666667 0  2.924347826086957 0.1166666666666667 0  2.940869565217391 0.1166666666666667 0  2.957391304347826 0.1166666666666667 0  2.973913043478261 0.1166666666666667 0  2.990434782608696 0.1166666666666667 0  3.006956521739131 0.1166666666666667 0  3.023478260869565 0.1166666666666667 0  2.693043478260869 0.1333333333333333 0  2.709565217391304 0.1333333333333333 0  2.726086956521739 0.1333333333333333 0  2.742608695652174 0.1333333333333333 0  2.759130434782609 0.1333333333333333 0  2.775652173913044 0.1333333333333333 0  2.792173913043478 0.1333333333333333 0  2.808695652173913 0.1333333333333333 0  2.825217391304347 0.1333333333333333 0  2.841739130434783 0.1333333333333333 0  2.858260869565217 0.1333333333333333 0  2.874782608695652 0.1333333333333333 0  2.891304347826087 0.1333333333333333 0  2.907826086956522 0.1333333333333333 0  2.924347826086957 0.1333333333333333 0  2.940869565217391 0.1333333333333333 0  2.957391304347826 0.1333333333333333 0  2.973913043478261 0.1333333333333333 0  2.990434782608696 0.1333333333333333 0  3.006956521739131 0.1333333333333333 0  3.023478260869565 0.1333333333333333 0  2.726086956521739 0.15 0  2.742608695652174 0.15 0  2.759130434782609 0.15 0  2.775652173913044 0.15 0  2.792173913043478 0.15 0  2.808695652173913 0.15 0  2.825217391304347 0.15 0  2.841739130434783 0.15 0  2.858260869565217 0.15 0  2.874782608695652 0.15 0  2.891304347826087 0.15 0  2.907826086956522 0.15 0  2.924347826086957 0.15 0  2.940869565217391 0.15 0  2.957391304347826 0.15 0  2.973913043478261 0.15 0  2.990434782608696 0.15 0  3.006956521739131 0.15 0  3.023478260869565 0.15 0  3.04 0.15 0  2.742608695652174 0.1666666666666667 0  2.759130434782609 0.1666666666666667 0  2.775652173913044 0.1666666666666667 0  2.792173913043478 0.1666666666666667 0  2.808695652173913 0.1666666666666667 0  2.825217391304347 0.1666666666666667 0  2.841739130434783 0.1666666666666667 0  2.858260869565217 0.1666666666666667 0  2.874782608695652 0.1666666666666667 0  2.891304347826087 0.1666666666666667 0  2.907826086956522 0.1666666666666667 0  2.924347826086957 0.1666666666666667 0  2.940869565217391 0.1666666666666667 0  2.957391304347826 0.1666666666666667 0  2.973913043478261 0.1666666666666667 0  2.990434782608696 0.1666666666666667 0  3.006956521739131 0.1666666666666667 0  3.023478260869565 0.1666666666666667 0  3.04 0.1666666666666667 0  3.056521739130435 0.1666666666666667 0  2.759130434782609 0.1833333333333333 0  2.775652173913044 0.1833333333333333 0  2.792173913043478 0.1833333333333333 0  2.808695652173913 0.1833333333333333 0  2.825217391304347 0.1833333333333333 0  2.841739130434783 0.1833333333333333 0  2.858260869565217 0.1833333333333333 0  2.874782608695652 0.1833333333333333 0  2.891304347826087 0.1833333333333333 0  2.907826086956522 0.1833333333333333 0  2.924347826086957 0.1833333333333333 0  2.940869565217391 0.1833333333333333 0  2.957391304347826 0.1833333333333333 0  2.973913043478261 0.1833333333333333 0  2.990434782608696 0.1833333333333333 0  3.006956521739131 0.1833333333333333 0  3.023478260869565 0.1833333333333333 0  3.04 0.1833333333333333 0  3.056521739130435 0.1833333333333333 0  3.073043478260869 0.1833333333333333 0  2.775652173913044 0.2 0  2.792173913043478 0.2 0  2.808695652173913 0.2 0  2.825217391304347 0.2 0  2.841739130434783 0.2 0  2.858260869565217 0.2 0  2.874782608695652 0.2 0  2.891304347826087 0.2 0  2.907826086956522 0.2 0  2.924347826086957 0.2 0  2.940869565217391 0.2 0  2.957391304347826 0.2 0  2.973913043478261 0.2 0  2.990434782608696 0.2 0  3.006956521739131 0.2 0  3.023478260869565 0.2 0  3.04 0.2 0  3.056521739130435 0.
[...]
<PointData  Vectors="Displacement"> 
<DataArray  type="Float64"  Name="Displacement"  NumberOfComponents="3" format="ascii">2.6605184512534303e-04 3.0316493389943495e-03 0.0000000000000000e+00  2.6687927749837560e-04 3.0633985290098847e-03 0.0000000000000000e+00  2.3502038459962191e-04 3.0630774405263697e-03 0.0000000000000000e+00  2.3393654271704745e-04 3.0313249978941650e-03 0.0000000000000000e+00  2.6768142663719836e-04 3.0948830690935994e-03 0.0000000000000000e+00  2.3610564102731745e-04 3.0945650648138653e-03 0.0000000000000000e+00  2.6845669461363119e-04 3.1260752087438836e-03 0.0000000000000000e+00  2.3719480944631093e-04 3.1257605763996472e-03 0.0000000000000000e+00  2.6920367997284656e-04 3.1569412959483361e-03 0.0000000000000000e+00  2.3829011800369438e-04 3.1566302024232116e-03 0.0000000000000000e+00  2.6992175153387789e-04 3.1874453104488373e-03 0.0000000000000000e+00  2.3939265014486535e-04 3.1871374722259654e-03 0.0000000000000000e+00  2.7061045687052195e-04 3.2175516817246905e-03 0.0000000000000000e+00  2.4050310789434229e-04 3.2172465161619825e-03 0.0000000000000000e+00  2.7126851390303093e-04 3.2472241815151093e-03 0.0000000000000000e+00  2.4162314122348787e-04 3.2469212883171872e-03 0.0000000000000000e+00  2.7189347220145154e-04 3.2764216258236549e-03 0.0000000000000000e+00  2.4275586374994810e-04 3.2761212002601877e-03 0.0000000000000000e+00  2.7248259599973860e-04 3.3050943671333491e-03 0.0000000000000000e+00  2.4390483211608619e-04 3.3047970634912456e-03 0.0000000000000000e+00  2.7303420781801428e-04 3.3331855038734601e-03 0.0000000000000000e+00  2.4507229455778061e-04 3.3328920305327422e-03 0.0000000000000000e+00  2.7354829085859039e-04 3.3606356487831139e-03 0.0000000000000000e+00  2.4625822628012166e-04 3.3603468400605361e-03 0.0000000000000000e+00  2.7402658365557170e-04 3.3873869741868051e-03 0.0000000000000000e+00  2.4746023147021248e-04 3.3871041212783924e-03 0.0000000000000000e+00  2.7447321783145357e-04 3.4133869836828028e-03 0.0000000000000000e+00  2.4867296997411716e-04 3.4131115250949119e-03 0.0000000000000000e+00  2.7489540222834074e-04 3.4385959318536524e-03 0.0000000000000000e+00  2.4988725454632772e-04 3.4383287665127474e-03 0.0000000000000000e+00  2.7530280029570720e-04 3.4629959276782289e-03 0.0000000000000000e+00  2.5109058996012251e-04 3.4627373023367659e-03 0.0000000000000000e+00  2.7570577452905488e-04 3.4865954628558434e-03 0.0000000000000000e+00  2.5226925823745085e-04 3.4863454664404870e-03 0.0000000000000000e+00  2.7611415394317005e-04 3.5094282196619976e-03 0.0000000000000000e+00  2.5341000211770150e-04 3.5091867229824383e-03 0.0000000000000000e+00  2.7653717671174250e-04 3.5315527762017330e-03 0.0000000000000000e+00  2.5450033150378846e-04 3.5313173450626945e-03 0.0000000000000000e+00  2.7698055870001108e-04 3.5530555003488078e-03 0.0000000000000000e+00  2.5553167652928439e-04 3.5528210028540935e-03 0.0000000000000000e+00  2.7744083123581754e-04 3.5740344530429983e-03 0.0000000000000000e+00  2.5650881127389324e-04 3.5737960270515656e-03 0.0000000000000000e+00  2.7790401109238844e-04 3.5945615816932253e-03 0.0000000000000000e+00  2.5745417900667835e-04 3.5943156843214284e-03 0.0000000000000000e+00  2.7834757015553170e-04 3.6146553125945410e-03 0.0000000000000000e+00  2.5840113092853349e-04 3.6144004677841450e-03 0.0000000000000000e+00  2.7874214661685170e-04 3.6342633056553695e-03 0.0000000000000000e+00  2.5938641773291419e-04 3.6340043094752433e-03 0.0000000000000000e+00  2.7905969325896820e-04 3.6532473297732552e-03 0.0000000000000000e+00  2.6043983000443899e-04 3.6529957771377262e-03 0.0000000000000000e+00  2.0308321410537181e-04 3.0627010190831454e-03 0.0000000000000000e+00  2.0443553953334871e-04 3.0941854880654086e-03 0.0000000000000000e+00  2.0581914397623723e-04 3.1253769377800737e-03 0.0000000000000000e+00  2.0724657085366522e-04 3.1562421076675312e-03 0.0000000000000000e+00  2.0872025623386740e-04 3.1867447808083165e-03 0.0000000000000000e+00  2.1023633906635693e-04 3.2168489156872739e-03 0.0000000000000000e+00  2.1179411848335709e-04 3.2465180004075875e-03 0.0000000000000000e+00  2.1340283327773933e-04 3.2757111454699800e-03 0.0000000000000000e+00  2.1507950981003158e-04 3.3043793955876565e-03 0.0000000000000000e+00  2.1683775467996167e-04 3.3324663587002879e-03 0.0000000000000000e+00  2.1868045978238790e-04 3.3599131148515453e-03 0.0000000000000000e+00  2.2060439924375349e-04 3.3866627241631933e-03 0.0000000000000000e+00  2.2260283430975423e-04 3.4126637307065580e-03 0.0000000000000000e+00  2.2465532453737192e-04 3.4378771914297160e-03 0.0000000000000000e+00  2.2672182737967358e-04 3.4622859519977409e-03 0.0000000000000000e+00  2.2875348688700510e-04 3.4858993541205473e-03 0.0000000000000000e+00  2.3070673838600979e-04 3.5087520407282549e-03 0.0000000000000000e+00  2.3253970040487007e-04 3.5309026437897475e-03 0.0000000000000000e+00  2.3419344784198257e-04 3.5524308915558206e-03 0.0000000000000000e+00  2.3564809658179853e-04 3.5734209217888413e-03 0.0000000000000000e+00  2.3698363079164254e-04 3.5939410893926194e-03 0.0000000000000000e+00  2.3830595972386940e-04 3.6140130055465330e-03 0.0000000000000000e+00  2.3971956613072523e-04 3.6335923670150908e-03 0.0000000000000000e+00  2.4136296840682450e-04 3.6525569396084305e-03 0.0000000000000000e+00  1.9549015443902151e-04 3.0887325879441511e-03 0.0000000000000000e+00  1.9689889014830772e-04 3.1201499193690332e-03 0.0000000000000000e+00  1.9831710920253069e-04 3.1512361936042246e-03 0.0000000000000000e+00  1.9974872671488065e-04 3.1819552434168463e-03 0.0000000000000000e+00  2.0119667921176203e-04 3.2122689114286967e-03 0.0000000000000000e+00  2.0266539504305300e-04 3.2421357610363999e-03 0.0000000000000000e+00  2.0416260135487611e-04 3.2715098792371771e-03 0.0000000000000000e+00  2.0569831228515155e-04 3.3003410321169047e-03 0.0000000000000000e+00  2.0728125282927758e-04 3.3285768582362535e-03 0.0000000000000000e+00  2.0891546130172897e-04 3.3561653788759353e-03 0.0000000000000000e+00  2.1059902251852747e-04 3.3830570653191642e-03 0.0000000000000000e+00  2.1232333837290787e-04 3.4092091247786499e-03 0.0000000000000000e+00  2.1407139314323564e-04 3.4345925009603719e-03 0.0000000000000000e+00  2.1581751400876221e-04 3.4591966828460882e-03 0.0000000000000000e+00  2.1753110664939331e-04 3.4830301691469484e-03 0.0000000000000000e+00  2.1918232954167797e-04 3.5061196557799449e-03 0.0000000000000000e+00  2.2074657949073775e-04 3.5285102370523143e-03 0.0000000000000000e+00  2.2220982180580530e-04 3.5502603486019160e-03 0.0000000000000000e+00  2.2358086590928381e-04 3.5714193213721374e-03 0.0000000000000000e+00  2.2490153198095726e-04 3.5920142705288087e-03 0.0000000000000000e+00  2.2623838856083804e-04 3.6120493218284367e-03 0.0000000000000000e+00  2.2766509450260607e-04 3.6314862656213263e-03 0.0000000000000000e+00  2.2924662451345750e-04 3.6502346711131343e-03 0.0000000000000000e+00  2.3101488451014021e-04 3.6681743568468426e-03 0.0000000000000000e+00  1.8746952243650996e-04 3.1150311231533919e-03 0.0000000000000000e+00  1.8887643238709682e-04 3.1463712255977421e-03 0.0000000000000000e+00  1.9027027687126946e-04 3.1773391015881953e-03 0.0000000000000000e+00  1.9165535402208207e-04 3.2078931248203106e-03 0.0000000000000000e+00  1.9303747940619968e-04 3.2379884895525892e-03 0.0000000000000000e+00  1.9442401478230969e-04 3.2675769776643678e-03 0.0000000000000000e+00  1.9582298723025754e-04 3.2966080737991763e-03 0.0000000000000000e+00  1.9724143302672043e-04 3.3250312209129329e-03 0.0000000000000000e+00  1.9868365703940705e-04 3.3527980543076453e-03 0.0000000000000000e+00  2.0014980116665515e-04 3.3798644708436143e-03 0.0000000000000000e+00  2.0163472383817073e-04 3.4061941009215502e-03 0.0000000000000000e+00  2.0312759896294944e-04 3.4317630130533973e-03 0.0000000000000000e+00  2.0461296896257149e-04 3.4565625625071765e-03 0.0000000000000000e+00  2.0607327978219899e-04 3.4805991736064075e-03 0.0000000000000000e+00  2.0749233529531491e-04 3.5038929538246714e-03 0.0000000000000000e+00  2.0885946131323456e-04 3.5264759820409245e-03 0.0000000000000000e+00  2.1017457981988417e-04 3.5483864430244805e-03 0.0000000000000000e+00  2.1145255196277805e-04 3.5696548244597043e-03 0.0000000000000000e+00  2.1272317708447399e-04 3.5902946850742642e-03 0.0000000000000000e+00  2.1402610619121443e-04 3.6103019958806104e-03 0.0000000000000000e+00  2.1540111115022438e-04 3.6296477816875833e-03 0.0000000000000000e+00  2.1687146560889819e-04 3.6482781525162492e-03 0.0000000000000000e+00  2.1843310925882662e-04 3.6661259811126348e-03 0.0000000000000000e+00  1.7894134687837087e-04 3.1416496756123996e-03 0.0000000000000000e+00  1.8029723363157020e-04 3.1728971572403185e-03 0.0000000000000000e+00  1.8162135929999487e-04 3.2037229325063781e-03 0.0000000000000000e+00  1.8291956872707775e-04 3.2340789549055301e-03 0.0000000000000000e+00  1.8419908135882703e-04 3.2639149347684165e-03 0.0000000000000000e+00  1.8546770482782575e-04 3.2931796708465843e-03 0.0000000000000000e+00  1.8673279100525096e-04 3.3218231556298994e-03 0.0000000000000000e+00  1.8800013264028340e-04 3.3497987671182051e-03 0.0000000000000000e+00  1.8927288028409750e-04 3.3770654586444114e-03 0.0000000000000000e+00  1.9055064488657431e-04 3.4035905546209197e-03 0.0000000000000000e+00  1.9182930857547349e-04 3.4293527423387747e-03 0.0000000000000000e+00  1.9310196504217708e-04 3.4543435814849309e-03 0.0000000000000000e+00  1.9436076178689908e-04 3.4785669302557862e-03 0.0000000000000000e+00  1.9559925384513826e-04 3.5020371249140283e-03 0.0000000000000000e+00  1.9681521633209317e-04 3.5247762433901486e-03 0.0000000000000000e+00  1.9801371111264596e-04 3.5468089746614508e-03 0.0000000000000000e+00  1.9920860093433998e-04 3.5681551756990876e-03 0.0000000000000000e+00  2.0042148995524112e-04 3.5888234112136140e-03 0.0000000000000000e+00  2.0167704837813311e-04 3.6088109825093834e-03 0.0000000000000000e+00  2.0299416444411099e-04 3.6281024433785320e-03 0.0000000000000000e+00  2.0436936214530805e-04 3.6466774770540170e-03 0.0000000000000000e+00  2.0577662458694509e-04 3.6644931648507537e-03 0.0000000000000000e+00  2.0718518422381275e-04 3.6815318282560805e-03 0.0000000000000000e+00  1.6983737388239102e-04 3.1686319857958585e-03 0.0000000000000000e+00  1.7110103655494164e-04 3.1997607271652029e-03 0.0000000000000000e+00  1.7231754854457951e-04 3.2304093487178103e-03 0.0000000000000000e+00  1.7349421117820939e-04 3.2605249032564097e-03 0.0000000000000000e+00  1.7463947921201212e-04 3.2900545247826350e-03 0.0000000000000000e+00  1.7576220735614125e-04 3.3189474571196915e-03 0.0000000000000000e+00  1.7687079894697578e-04 3.3471572558914911e-03 0.0000000000000000e+00  1.7797228325300841e-04 3.3746440235249537e-03 0.0000000000000000e+00  1.7907147428911056e-04 3.4013767734003809e-03 0.0000000000000000e+00  1.8017065041593788e-04 3.4273353683296711e-03 0.0000000000000000e+00  1.8127011453295628e-04 3.4525110773147168e-03 0.0000000000000000e+00  1.8236943965720484e-04 3.4769056334328472e-03 0.0000000000000000e+00  1.8346899146870916e-04 3.5005291506126223e-03 0.0000000000000000e+00  1.8457146950789032e-04 3.5233970934188284e-03 0.0000000000000000e+00  1.8568327683825007e-04 3.5455259837288504e-03 0.0000000000000000e+00  1.8681460484165586e-04 3.5669302064920746e-03 0.0000000000000000e+00  1.8798071056450892e-04 3.5876158732968413e-03 0.0000000000000000e+00  1.8919950921729786e-04 3.6075845344469464e-03 0.0000000000000000e+00  1.9048272631204397e-04 3.6268372968036177e-03 0.0000000000000000e+00  1.9180860423269946e-04 3.6453948031353670e-03 0.0000000000000000e+00  1.9313471055287614e-04 3.6632271284382685e-03 0.0000000000000000e+00  1.9439388018862455e-04 3.6802794445442897e-03 0.0000000000000000e+00  1.6009602633250303e-04 3.1960093073701685e-03 0.0000000000000000e+00  1.6123254534407776e-04 3.2269820986830212e-03 0.0000000000000000e+00  1.6231013913071621e-04 3.2574083360900068e-03 0.0000000000000000e+00  1.6333847666659916e-04 3.2872322376189668e-03 0.0000000000000000e+00  1.6432873018986329e-04 3.3164008579205004e-03 0.0000000000000000e+00  1.6529282152943144e-04 3.3448664165294131e-03 0.0000000000000000e+00  1.6624243207224521e-04 3.3725886460774256e-03 0.0000000000000000e+00  1.6718788536684845e-04 3.3995369983131816e-03 0.0000000000000000e+00  1.6813740327018003e-04 3.4256919005185966e-03 0.0000000000000000e+00  1.6909729491144436e-04 3.4510444522169001e-03 0.0000000000000000e+00  1.7007292272596175e-04 3.4755951057345563e-03 0.0000000000000000e+00  1.7106982543107710e-04 3.4993515434980377e-03 0.0000000000000000e+00  1.7209423112954874e-04 3.5223258555183681e-03 0.0000000000000000e+00  1.7315266512933972e-04 3.5445308188592696e-03 0.0000000000000000e+00  1.7424908631526802e-04 3.5659795875701544e-03 0.0000000000000000e+00  1.7539112426743353e-04 3.5866730298698517e-03 0.0000000000000000e+00  1.7659628843193724e-04 3.6066130166741289e-03 0.0000000000000000e+00  1.7788383320352266e-04 3.6258147755288531e-03 0.0000000000000000e+00  1.7922688326934351e-04 3.6443688980070110e-03 0.0000000000000000e+00  1.8057383009451603e-04 3.6622389947219081e-03 0.0000000000000000e+00  1.8187839363309041e-04 3.6793968196519749e-03 0.0000000000000000e+00  1.8291366862217137e-04 3.6955524665470106e-03 0.0000000000000000e+00  1.4966018531025911e-04 3.2238002474750636e-03 0.0000000000000000e+00  1.5064164195726612e-04 3.2545678398147072e-03 0.0000000000000000e+00  1.5155816793887024e-04 3.2847143203967011e-03 0.0000000000000000e+00  1.5242391307898268e-04 3.3141829145728907e-03 0.0000000000000000e+00  1.5325519695532191e-04 3.3429229131097357e-03 0.0000000000000000e+00  1.5406925947786013e-04 3.3708923922840472e-03 0.0000000000000000e+00  1.5488244269506709e-04 3.3980606659866387e-03 0.0000000000000000e+00  1.5570857052279297e-04 3.4244089639206975e-03 0.0000000000000000e+00  1.5655871901949295e-04 3.4499288296446951e-03 0.0000000000000000e+00  1.5744246672618354e-04 3.4746202003793723e-03 0.0000000000000000e+00  1.5836966003224080e-04 3.4984895190786308e-03 0.0000000000000000e+00  1.5935076589902286e-04 3.5215480946177899e-03 0.0000000000000000e+00  1.6039424242590109e-04 3.5438093463983867e-03 0.0000000000000000e+00  1.6149662303932926e-04 3.5652943207333298e-03 0.0000000000000000e+00  1.6265013704695619e-04 3.5859915328736538e-03 0.0000000000000000e+00  1.6386597902577320e-04 3.6058834383809663e-03 0.0000000000000000e+00  1.6519615094449496e-04 3.6249908677598816e-03 0.0000000000000000e+00  1.6660096324717491e-04 3.6435162750512104e-03 0.0000000000000000e+00  1.6810933442445755e-04 3.6614220773925426e-03 0.0000000000000000e+00  1.6960652085182929e-04 3.6785744525311007e-03 0.0000000000000000e+00  1.7143532178100541e-04 3.6951982741295713e-03 0.0000000000000000e+00  1.3928546678743122e-04 3.2825049455700167e-03 0.0000000000000000e+00  1.4003211990987053e-04 3.3122968054717398e-03 0.0000000000000000e+00  1.4073910572273969e-04 3.3413277532997566e-03 0.0000000000000000e+00  1.4143055825620201e-04 3.3695529127107005e-03 0.0000000000000000e+00  1.4212992533460528e-04 3.3969415548427565e-03 0.0000000000000000e+00  1.4285670383782281e-04 3.4234771779655215e-03 0.0000000000000000e+00  1.4362531627323423e-04 3.4491532800698704e-03 0.0000000000000000e+00  1.4444697131400626e-04 3.4739697365036549e-03 0.0000000000000000e+00  1.4533426386136673e-04 3.4979311143057698e-03 0.0000000000000000e+00  1.4630388192399780e-04 3.5210480578983083e-03 0.0000000000000000e+00  1.4737302605307776e-04 3.5433388616074838e-03 0.0000000000000000e+00  1.4853105268668946e-04 3.5648513055803136e-03 0.0000000000000000e+00  1.4975701359159067e-04 3.5855700208116768e-03 0.0000000000000000e+00  1.5100474792891582e-04 3.6054210068586366e-03 0.0000000000000000e+00  1.5232508716528376e-04 3.6243604109230600e-03 0.0000000000000000e+00  1.5370206623744207e-04 3.6429368499059909e-03 0.0000000000000000e+00  1.5496391201917856e-04 3.6608298179942062e-03 0.0000000000000000e+00  1.5639563724528796e-04 3.6786605017886335e-03 0.0000000000000000e+00  1.5586069208553511e-04 3.6952215321144487e-03 0.0000000000000000e+00  1.5541006067930346e-04 3.7114833372185879e-03 0.0000000000000000e+00  1.2713079915876524e-04 3.3107501891506525e-03 0.0000000000000000e+00  1.2771808267143735e-04 3.3400871125535705e-03 0.0000000000000000e+00  1.2829585046358725e-04 3.3685727536723583e-03 0.0000000000000000e+00  1.2889676126506873e-04 3.3961770940393252e-03 0.0000000000000000e+00  1.2954698484643839e-04 3.4228892348284758e-03 0.0000000000000000e+00  1.3026340509068019e-04 3.4487083753003936e-03 0.0000000000000000e+00  1.3105452948074977e-04 3.4736356454924144e-03 0.0000000000000000e+00  1.3192975612735935e-04 3.4976692532486179e-03 0.0000000000000000e+00  1.3291341581158771e-04 3.5208130233524509e-03 0.0000000000000000e+00  1.3404363194269102e-04 3.5430866621486991e-03 0.0000000000000000e+00  1.3531629352468987e-04 3.5646076884224553e-03 0.0000000000000000e+00  1.3669884142395786e-04 3.5853417074515697e-03 0.0000000000000000e+00  1.3818005508822566e-04 3.6052699756618923e-03 0.0000000000000000e+00  1.3946659591825887e-04 3.6239935302771645e-03 0.0000000000000000e+00  1.4043649244320684e-04 3.6425535980320160e-03 0.0000000000000000e+00  1.4183595725452463e-04 3.6611110586660962e-03 0.0000000000000000e+00  1.4097328712245702e-04 3.6784217334337923e-03 0.0000000000000000e+00  1.4061248201690466e-04 3.6950251063826737e-03 0.0000000000000000e+00  1.4020977710759187e-04 3.7113490344908625e-03 0.0000000000000000e+00  1.3992184215565320e-04 3.7272410092630717e-03 0.0000000000000000e+00  1.1415821819690760e-04 3.3392136670085722e-03 0.0000000000000000e+00  1.1462615126933593e-04 3.3679603743570967e-03 0.0000000000000000e+00  1.1513997658844612e-04 3.3957683462437363e-03 0.0000000000000000e+00  1.1573493861773691e-04 3.4226381488751093e-03 0.0000000000000000e+00  1.1643122591343193e-04 3.4485816408176815e-03 0.0000000000000000e+00  1.1723241859099461e-04 3.4736089115045498e-03 0.0000000000000000e+00  1.1813011175504072e-04 3.4977056829270320e-03 0.0000000000000000e+00  1.1914091578893624e-04 3.5208428938106459e-03 0.0000000000000000e+00  1.2035167517233631e-04 3.5430266277461202e-03 0.0000000000000000e+00  1.2175527306458637e-04 3.5644947658738627e-03 0.0000000000000000e+00  1.2343341756217738e-04 3.5852326496045033e-03 0.0000000000000000e+00  1.2522143007340420e-04 3.6050532661379051e-03 0.0000000000000000e+00  1.2769472144969155e-04 3.6244239224056448e-03 0.0000000000000000e+00  1.2648761503514561e-04 3.6430752399941456e-03 0.0000000000000000e+00  1.2559899202574927e-04 3.6610282591891304e-03 0.0000000000000000e+00  1.2516901689740406e-04 3.6782427317085514e-03 0.0000000000000000e+00  1.2482870093600906e-04 3.6949318822503958e-03 0.0000000000000000e+00  1.2457338113729545e-04 3.7112818901931387e-03 0.0000000000000000e+00  1.2442162906890606e-04 3.7272036155173928e-03 0.0000000000000000e+00  1.2436633861281037e-04 3.7427489602054661e-03 0.0000000000000000e+00  1.0037411978710979e-04 3.3677321662276970e-03 0.0000000000000000e+00  1.0080651479620219e-04 3.3957214482664018e-03 0.0000000000000000e+00  1.0136326998696254e-04 3.4227174194157344e-03 0.0000000000000000e+00  1.0207136712125460e-04 3.4487547659545034e-03 0.0000000000000000e+00  1.0292990892975705e-04 3.4738664367882336e-03 0.0000000000000000e+00  1.0391577189247105e-04 3.4980502368405571e-03 0.0000000000000000e+00  1.0496073391363863e-04 3.5211952972692582e-03 0.0000000000000000e+00  1.0615183254438359e-04 3.5431861211975071e-03 0.0000000000000000e+00  1.0754769478378039e-04 3.5646663662732220e-03 0.0000000000000000e+00  1.0898883473255941e-04 3.5852699456987384e-03 0.0000000000000000e+00  1.1097718655797713e-04 3.6059310630787125e-03 0.0000000000000000e+00  1.1033787434558279e-04 3.6246143245630491e-03 0.0000000000000000e+00  1.0973683360443470e-04 3.6429693454306696e-03 0.0000000000000000e+00  1.0924950178848824e-04 3.6608564009619534e-03 0.0000000000000000e+00  1.0889842580408969e-04 3.6781181160621557e-03 0.0000000000000000e+