<?xml version="1.0"?>
<VTKFile type="UnstructuredGrid"  version="0.1"  >
<UnstructuredGrid>
<Piece  NumberOfPoints="629" NumberOfCells="1162">
<Points>
<DataArray  type="Float64"  NumberOfComponents="3"  format="ascii">0.7104347826086956 0 0  0.7269565217391304 0 0  0.7269565217391304 0.01666666666666667 0  0.7104347826086956 0.01666666666666667 0  0.7434782608695653 0 0  0.7434782608695653 0.01666666666666667 0  0.7599999999999999 0 0  0.7599999999999999 0.01666666666666667 0  0.7765217391304348 0 0  0.7765217391304348 0.01666666666666667 0  0.7930434782608695 0 0  0.7930434782608695 0.01666666666666667 0  0.8095652173913043 0 0  0.8095652173913043 0.01666666666666667 0  0.8260869565217391 0 0  0.8260869565217391 0.01666666666666667 0  0.8426086956521739 0 0  0.8426086956521739 0.01666666666666667 0  0.8591304347826086 0 0  0.8591304347826086 0.01666666666666667 0  0.8756521739130434 0 0  0.8756521739130434 0.01666666666666667 0  0.8921739130434783 0 0  0.8921739130434783 0.01666666666666667 0  0.908695652173913 0 0  0.908695652173913 0.01666666666666667 0  0.9252173913043478 0 0  0.9252173913043478 0.01666666666666667 0  0.9417391304347826 0 0  0.9417391304347826 0.01666666666666667 0  0.9582608695652173 0 0  0.9582608695652173 0.01666666666666667 0  0.9747826086956521 0 0  0.9747826086956521 0.01666666666666667 0  0.991304347826087 0 0  0.991304347826087 0.01666666666666667 0  1.007826086956522 0 0  1.007826086956522 0.01666666666666667 0  1.024347826086957 0 0  1.024347826086957 0.01666666666666667 0  0.7269565217391304 0.03333333333333333 0  0.7104347826086956 0.03333333333333333 0  0.7434782608695653 0.03333333333333333 0  0.7599999999999999 0.03333333333333333 0  0.7765217391304348 0.03333333333333333 0  0.7930434782608695 0.03333333333333333 0  0.8095652173913043 0.03333333333333333 0  0.8260869565217391 0.03333333333333333 0  0.8426086956521739 0.03333333333333333 0  0.8591304347826086 0.03333333333333333 0  0.8756521739130434 0.03333333333333333 0  0.8921739130434783 0.03333333333333333 0  0.908695652173913 0.03333333333333333 0  0.9252173913043478 0.03333333333333333 0  0.9417391304347826 0.03333333333333333 0  0.9582608695652173 0.03333333333333333 0  0.9747826086956521 0.03333333333333333 0  0.991304347826087 0.03333333333333333 0  1.007826086956522 0.03333333333333333 0  1.024347826086957 0.03333333333333333 0  1.040869565217391 0.03333333333333333 0  0.7269565217391304 0.05 0  0.7434782608695653 0.05 0  0.7599999999999999 0.05 0  0.7765217391304348 0.05 0  0.7930434782608695 0.05 0  0.8095652173913043 0.05 0  0.8260869565217391 0.05 0  0.8426086956521739 0.05 0  0.8591304347826086 0.05 0  0.8756521739130434 0.05 0  0.8921739130434783 0.05 0  0.908695652173913 0.05 0  0.9252173913043478 0.05 0  0.9417391304347826 0.05 0  0.9582608695652173 0.05 0  0.9747826086956521 0.05 0  0.991304347826087 0.05 0  1.007826086956522 0.05 0  1.024347826086957 0.05 0  1.040869565217391 0.05 0  1.057391304347826 0.05 0  0.7434782608695653 0.06666666666666667 0  0.7599999999999999 0.06666666666666667 0  0.7765217391304348 0.06666666666666667 0  0.7930434782608695 0.06666666666666667 0  0.8095652173913043 0.06666666666666667 0  0.8260869565217391 0.06666666666666667 0  0.8426086956521739 0.06666666666666667 0  0.8591304347826086 0.06666666666666667 0  0.8756521739130434 0.06666666666666667 0  0.8921739130434783 0.06666666666666667 0  0.908695652173913 0.06666666666666667 0  0.9252173913043478 0.06666666666666667 0  0.9417391304347826 0.06666666666666667 0  0.9582608695652173 0.06666666666666667 0  0.9747826086956521 0.06666666666666667 0  0.991304347826087 0.06666666666666667 0  1.007826086956522 0.06666666666666667 0  1.024347826086957 0.06666666666666667 0  1.040869565217391 0.06666666666666667 0  1.057391304347826 0.06666666666666667 0  1.073913043478261 0.06666666666666667 0  0.7599999999999999 0.08333333333333333 0  0.7765217391304348 0.08333333333333333 0  0.7930434782608695 0.08333333333333333 0  0.8095652173913043 0.08333333333333333 0  0.8260869565217391 0.08333333333333333 0  0.8426086956521739 0.08333333333333333 0  0.8591304347826086 0.08333333333333333 0  0.8756521739130434 0.08333333333333333 0  0.8921739130434783 0.08333333333333333 0  0.908695652173913 0.08333333333333333 0  0.9252173913043478 0.08333333333333333 0  0.9417391304347826 0.08333333333333333 0  0.9582608695652173 0.08333333333333333 0  0.9747826086956521 0.08333333333333333 0  0.991304347826087 0.08333333333333333 0  1.007826086956522 0.08333333333333333 0  1.024347826086957 0.08333333333333333 0  1.040869565217391 0.08333333333333333 0  1.057391304347826 0.08333333333333333 0  1.073913043478261 0.08333333333333333 0  1.090434782608696 0.08333333333333333 0  0.7765217391304348 0.1 0  0.7930434782608695 0.1 0  0.8095652173913043 0.1 0  0.8260869565217391 0.1 0  0.8426086956521739 0.1 0  0.8591304347826086 0.1 0  0.8756521739130434 0.1 0  0.8921739130434783 0.1 0  0.908695652173913 0.1 0  0.9252173913043478 0.1 0  0.9417391304347826 0.1 0  0.9582608695652173 0.1 0  0.9747826086956521 0.1 0  0.991304347826087 0.1 0  1.007826086956522 0.1 0  1.024347826086957 0.1 0  1.040869565217391 0.1 0  1.057391304347826 0.1 0  1.073913043478261 0.1 0  1.090434782608696 0.1 0  1.10695652173913 0.1 0  0.7930434782608695 0.1166666666666667 0  0.8095652173913043 0.1166666666666667 0  0.8260869565217391 0.1166666666666667 0  0.8426086956521739 0.1166666666666667 0  0.8591304347826086 0.1166666666666667 0  0.8756521739130434 0.1166666666666667 0  0.8921739130434783 0.1166666666666667 0  0.908695652173913 0.1166666666666667 0  0.9252173913043478 0.1166666666666667 0  0.9417391304347826 0.1166666666666667 0  0.9582608695652173 0.1166666666666667 0  0.9747826086956521 0.1166666666666667 0  0.991304347826087 0.1166666666666667 0  1.007826086956522 0.1166666666666667 0  1.024347826086957 0.1166666666666667 0  1.040869565217391 0.1166666666666667 0  1.057391304347826 0.1166666666666667 0  1.073913043478261 0.1166666666666667 0  1.090434782608696 0.1166666666666667 0  1.10695652173913 0.1166666666666667 0  1.123478260869565 0.1166666666666667 0  0.8095652173913043 0.1333333333333333 0  0.8260869565217391 0.1333333333333333 0  0.8426086956521739 0.1333333333333333 0  0.8591304347826086 0.1333333333333333 0  0.8756521739130434 0.1333333333333333 0  0.8921739130434783 0.1333333333333333 0  0.908695652173913 0.1333333333333333 0  0.9252173913043478 0.1333333333333333 0  0.9417391304347826 0.1333333333333333 0  0.9582608695652173 0.1333333333333333 0  0.9747826086956521 0.1333333333333333 0  0.991304347826087 0.1333333333333333 0  1.007826086956522 0.1333333333333333 0  1.024347826086957 0.1333333333333333 0  1.040869565217391 0.1333333333333333 0  1.057391304347826 0.1333333333333333 0  1.073913043478261 0.1333333333333333 0  1.090434782608696 0.1333333333333333 0  1.10695652173913 0.1333333333333333 0  1.123478260869565 0.1333333333333333 0  1.14 0.1333333333333333 0  0.8260869565217391 0.15 0  0.8426086956521739 0.15 0  0.8591304347826086 0.15 0  0.8756521739130434 0.15 0  0.8921739130434783 0.15 0  0.908695652173913 0.15 0  0.9252173913043478 0.15 0  0.9417391304347826 0.15 0  0.9582608695652173 0.15 0  0.9747826086956521 0.15 0  0.991304347826087 0.15 0  1.007826086956522 0.15 0  1.024347826086957 0.15 0  1.040869565217391 0.15 0  1.057391304347826 0.15 0  1.073913043478261 0.15 0  1.090434782608696 0.15 0  1.10695652173913 0.15 0  1.123478260869565 0.15 0  1.14 0.15 0  1.156521739130435 0.15 0  0.8426086956521739 0.1666666666666667 0  0.8591304347826086 0.1666666666666667 0  0.8756521739130434 0.1666666666666667 0  0.8921739130434783 0.1666666666666667 0  0.908695652173913 0.1666666666666667 0  0.9252173913043478 0.1666666666666667 0  0.9417391304347826 0.1666666666666667 0  0.9582608695652173 0.1666666666666667 0  0.9747826086956521 0.1666666666666667 0  0.991304347826087 0.1666666666666667 0  1.007826086956522 0.1666666666666667 0  1.024347826086957 0.1666666666666667 0  1.040869565217391 0.1666666666666667 0  1.057391304347826 0.1666666666666667 0  1.073913043478261 0.1666666666666667 0  1.090434782608696 0.1666666666666667 0  1.10695652173913 0.1666666666666667 0  1.123478260869565 0.1666666666666667 0  1.14 0.1666666666666667 0  1.156521739130435 0.1666666666666667 0  1.17304347826087 0.1666666666666667 0  0.8591304347826086 0.1833333333333333 0  0.8756521739130434 0.1833333333333333 0  0.8921739130434783 0.1833333333333333 0  0.908695652173913 0.1833333333333333 0  0.9252173913043478 0.1833333333333333 0  0.9417391304347826 0.1833333333333333 0  0.9582608695652173 0.1833333333333333 0  0.9747826086956521 0.1833333333333333 0  0.991304347826087 0.1833333333333333 0  1.007826086956522 0.1833333333333333 0  1.024347826086957 0.1833333333333333 0  1.040869565217391 0.1833333333333333 0  1.057391304347826 0.1833333333333333 0  1.073913043478261 0.1833333333333333 0  1.090434782608696 0.1833333333333333 0  1.10695652173913 0.1833333333333333 0  1.123478260869565 0.1833333333333333 0  1.14 0.1833333333333333 0  1.156521739130435 0.1833333333333333 0  1.17304347826087 0.1833333333333333 0  1.189565217391304 0.1833333333333333 0  0.8756521739130434 0.2 0  0.8921739130434783 0.2 0  0.908695652173913 0.2 0  0.9252173913043478 0.2 0  0.9417391304347826 0.2 0  0.9582608695652173 0.2 0  0.9747826086956521 0.2 0  0.991304347826087 0.2 0  1.007826086956522 0.2 0  1.024347826086957 0.2 0  1.040869565217391 0.2 0  1.057391304347826 0.2 0  1.073913043478261 0.2 0  1.090434782608696 0.2 0  1.10695652173913 0.2 0  1.123478260869565 0.2 0  1.14 0.2 0  1.156521739130435 0.2 0  1.17304347826087 0.2 0  1.189565217391304 0.2 0  1.206086956521739 0.2 0  0.8921739130434783 0.2166666666666667 0  0.908695652173913 0.2166666666666667 0  0.9252173913043478 0.2166666666666667 0  0.9417391304347826 0.2166666666666667 0  0.9582608695652173 0.2166666666666667 0  0.9747826086956521 0.2166666666666667 0  0.991304347826087 0.2166666666666667 0  1.007826086956522 0.2166666666666667 0  1.02434782608
[...]
<PointData  Vectors="Displacement"> 
<DataArray  type="Float64"  Name="Displacement"  NumberOfComponents="3" format="ascii">9.3721323304087460e-05 7.1941360575977678e-04 0.0000000000000000e+00  9.5597946446115097e-05 7.3510370187694239e-04 0.0000000000000000e+00  7.9736777239811571e-05 7.3449250688379655e-04 0.0000000000000000e+00  7.7882003244852206e-05 7.1879884374853283e-04 0.0000000000000000e+00  9.7483737135139890e-05 7.5083445234556706e-04 0.0000000000000000e+00  8.1557042018204459e-05 7.5022226975374412e-04 0.0000000000000000e+00  9.9376506780019986e-05 7.6665892761229040e-04 0.0000000000000000e+00  8.3352248344227775e-05 7.6604682715814801e-04 0.0000000000000000e+00  1.0127196159044417e-04 7.8259593635601104e-04 0.0000000000000000e+00  8.5135541060622064e-05 7.8198396908351318e-04 0.0000000000000000e+00  1.0316630326545469e-04 7.9865328451655438e-04 0.0000000000000000e+00  8.6912576663589436e-05 7.9804192311268502e-04 0.0000000000000000e+00  1.0505623206876667e-04 8.1483170783222243e-04 0.0000000000000000e+00  8.8685761421275296e-05 8.1422150332349319e-04 0.0000000000000000e+00  1.0693937577526659e-04 8.3112699390281417e-04 0.0000000000000000e+00  9.0456409490955334e-05 8.3051828040027400e-04 0.0000000000000000e+00  1.0881430956958201e-04 8.4753240139656119e-04 0.0000000000000000e+00  9.2225269343681763e-05 8.4692535075194485e-04 0.0000000000000000e+00  1.1068031465739693e-04 8.6404005140964775e-04 0.0000000000000000e+00  9.3992751667778033e-05 8.6343471583897105e-04 0.0000000000000000e+00  1.1253708567619338e-04 8.8064172646898072e-04 0.0000000000000000e+00  9.5759075707424382e-05 8.8003809793640636e-04 0.0000000000000000e+00  1.1438446009909280e-04 8.9732918054477649e-04 0.0000000000000000e+00  9.7524349591127758e-05 8.9672726223167360e-04 0.0000000000000000e+00  1.1622228610242120e-04 9.1409403766740680e-04 0.0000000000000000e+00  9.9288634036507489e-05 9.1349385393563556e-04 0.0000000000000000e+00  1.1805041762638505e-04 9.3092768616817188e-04 0.0000000000000000e+00  1.0105197795116922e-04 9.3032926196956499e-04 0.0000000000000000e+00  1.1986873820560538e-04 9.4782131117097761e-04 0.0000000000000000e+00  1.0281442402042585e-04 9.4722466227566040e-04 0.0000000000000000e+00  1.2167716496332312e-04 9.6476597038794255e-04 0.0000000000000000e+00  1.0457600602056734e-04 9.6417110492485201e-04 0.0000000000000000e+00  1.2347563733369887e-04 9.8175264426132031e-04 0.0000000000000000e+00  1.0633674959932821e-04 9.8115956642808402e-04 0.0000000000000000e+00  1.2526410360338901e-04 9.9877225496996830e-04 0.0000000000000000e+00  1.0809667585438087e-04 9.9818096761834069e-04 0.0000000000000000e+00  1.2704251090819854e-04 1.0158156661812529e-03 0.0000000000000000e+00  1.0985580504930170e-04 1.0152261720975764e-03 0.0000000000000000e+00  1.2881079909934456e-04 1.0328736733562027e-03 0.0000000000000000e+00  1.1161415947081336e-04 1.0322859753643466e-03 0.0000000000000000e+00  6.3963536376426805e-05 7.3390266714464284e-04 0.0000000000000000e+00  6.2077066861802887e-05 7.1817967516109782e-04 0.0000000000000000e+00  6.5705292239665351e-05 7.4964574146925975e-04 0.0000000000000000e+00  6.7363380857365379e-05 7.6547245909224307e-04 0.0000000000000000e+00  6.9017316784947131e-05 7.8141031660259165e-04 0.0000000000000000e+00  7.0669495858253665e-05 7.9746894726015895e-04 0.0000000000000000e+00  7.2321929710199222e-05 8.1364897211216273e-04 0.0000000000000000e+00  7.3977890102367775e-05 8.2994565766374736e-04 0.0000000000000000e+00  7.5639548485721087e-05 8.4635222091007504e-04 0.0000000000000000e+00  7.7308006470026296e-05 8.6286078717960645e-04 0.0000000000000000e+00  7.8983662944685204e-05 8.7946315403147771e-04 0.0000000000000000e+00  8.0666679110838937e-05 8.9615120337768988e-04 0.0000000000000000e+00  8.2357273707167307e-05 9.1291664972310285e-04 0.0000000000000000e+00  8.4055706875098962e-05 9.2975088776269519e-04 0.0000000000000000e+00  8.5762190634121454e-05 9.4664508660408466e-04 0.0000000000000000e+00  8.7476868381158038e-05 9.6359029723573847e-04 0.0000000000000000e+00  8.9199839198613091e-05 9.8057750020143653e-04 0.0000000000000000e+00  9.0931186139734283e-05 9.9759761856335963e-04 0.0000000000000000e+00  9.2670995746126672e-05 1.0146415151353048e-03 0.0000000000000000e+00  9.4419369470754886e-05 1.0316999815198516e-03 0.0000000000000000e+00  9.6176430511564015e-05 1.0487637219945894e-03 0.0000000000000000e+00  4.8102791957110386e-05 7.3327443575706152e-04 0.0000000000000000e+00  4.9824854868316377e-05 7.4906585696072638e-04 0.0000000000000000e+00  5.1429268338755457e-05 7.6492090595015538e-04 0.0000000000000000e+00  5.3048750178212604e-05 7.8086380644356147e-04 0.0000000000000000e+00  5.4559723202581179e-05 7.9692360355315933e-04 0.0000000000000000e+00  5.6049925768288884e-05 8.1310200592386265e-04 0.0000000000000000e+00  5.7563887364098709e-05 8.2939694920453923e-04 0.0000000000000000e+00  5.9102760619014663e-05 8.4580136410376946e-04 0.0000000000000000e+00  6.0664267074680467e-05 8.6230756062908199e-04 0.0000000000000000e+00  6.2244538750689333e-05 8.7890744866484644e-04 0.0000000000000000e+00  6.3839912279721041e-05 8.9559282240983258e-04 0.0000000000000000e+00  6.5450636109478790e-05 9.1235544156788014e-04 0.0000000000000000e+00  6.7078342959111479e-05 9.2918677623305421e-04 0.0000000000000000e+00  6.8723761883546946e-05 9.4607801793886615e-04 0.0000000000000000e+00  7.0386904359671134e-05 9.6302022441892071e-04 0.0000000000000000e+00  7.2067643709644873e-05 9.8000438414129758e-04 0.0000000000000000e+00  7.3765920805709116e-05 9.9702142492909241e-04 0.0000000000000000e+00  7.5481767698569745e-05 1.0140622099390965e-03 0.0000000000000000e+00  7.7215288722384148e-05 1.0311175282007447e-03 0.0000000000000000e+00  7.8966633188539662e-05 1.0481780808485354e-03 0.0000000000000000e+00  8.0735930674874384e-05 1.0652344626412031e-03 0.0000000000000000e+00  4.0207933554326213e-05 7.4111400927936706e-04 0.0000000000000000e+00  4.2565111625941072e-05 7.5683137217191115e-04 0.0000000000000000e+00  4.4863662218687073e-05 7.7268566591862152e-04 0.0000000000000000e+00  4.7101673214286281e-05 7.8871905219960619e-04 0.0000000000000000e+00  4.9286378276383967e-05 8.0490325491043276e-04 0.0000000000000000e+00  5.1432459065568692e-05 8.2123532470216090e-04 0.0000000000000000e+00  5.3547586853876212e-05 8.3771161999896026e-04 0.0000000000000000e+00  5.5634315956135295e-05 8.5432149393154834e-04 0.0000000000000000e+00  5.7693955801232823e-05 8.7105276055697220e-04 0.0000000000000000e+00  5.9728002134972451e-05 8.8789292431070820e-04 0.0000000000000000e+00  6.1738848983050064e-05 9.0482955528833973e-04 0.0000000000000000e+00  6.3729540662541741e-05 9.2185121823554585e-04 0.0000000000000000e+00  6.5703003482079348e-05 9.3894739289516950e-04 0.0000000000000000e+00  6.7661615774762589e-05 9.5610799032670919e-04 0.0000000000000000e+00  6.9607155850571367e-05 9.7332311523386000e-04 0.0000000000000000e+00  7.1540870571988003e-05 9.9058296276144354e-04 0.0000000000000000e+00  7.3463564340057485e-05 1.0078777184920789e-03 0.0000000000000000e+00  7.5375699938032436e-05 1.0251974616794269e-03 0.0000000000000000e+00  7.7277506597251615e-05 1.0425320892646273e-03 0.0000000000000000e+00  7.9169085193737007e-05 1.0598712653381789e-03 0.0000000000000000e+00  8.1050509521855146e-05 1.0772043760923884e-03 0.0000000000000000e+00  3.4095086123929275e-05 7.4824600694921154e-04 0.0000000000000000e+00  3.6979956765137277e-05 7.6402221512584048e-04 0.0000000000000000e+00  3.9803764868743061e-05 7.8002687115227615e-04 0.0000000000000000e+00  4.2561951487251911e-05 7.9623926688316153e-04 0.0000000000000000e+00  4.5250286113288615e-05 8.1264364643161943e-04 0.0000000000000000e+00  4.7868858032785064e-05 8.2922740516038157e-04 0.0000000000000000e+00  5.0419630877668133e-05 8.4597495905577283e-04 0.0000000000000000e+00  5.2905357538136219e-05 8.6286923886261561e-04 0.0000000000000000e+00  5.5329730804403373e-05 8.7989339183708586e-04 0.0000000000000000e+00  5.7697179614532869e-05 8.9703162319570344e-04 0.0000000000000000e+00  6.0012393727961042e-05 9.1426989555068233e-04 0.0000000000000000e+00  6.2279855836743696e-05 9.3159589964283680e-04 0.0000000000000000e+00  6.4503436788893793e-05 9.4899850852347327e-04 0.0000000000000000e+00  6.6686155393883570e-05 9.6646725493389272e-04 0.0000000000000000e+00  6.8830136177217170e-05 9.8399195475806431e-04 0.0000000000000000e+00  7.0936708172735310e-05 1.0015624210519191e-03 0.0000000000000000e+00  7.3006581327597847e-05 1.0191682468985623e-03 0.0000000000000000e+00  7.5040056515590791e-05 1.0367986585559969e-03 0.0000000000000000e+00  7.7037238106193997e-05 1.0544424329603779e-03 0.0000000000000000e+00  7.8998228062513961e-05 1.0720878562150509e-03 0.0000000000000000e+00  8.0923288783185473e-05 1.0897227005820576e-03 0.0000000000000000e+00  2.9377955489517636e-05 7.5492058389587053e-04 0.0000000000000000e+00  3.2689635504911273e-05 7.7090722892339211e-04 0.0000000000000000e+00  3.5925305808327506e-05 7.8716389328311221e-04 0.0000000000000000e+00  3.9071525990939280e-05 8.0366433174390095e-04 0.0000000000000000e+00  4.2121217057918987e-05 8.2038402523864468e-04 0.0000000000000000e+00  4.5072874192062087e-05 8.3729863789982464e-04 0.0000000000000000e+00  4.7928645004051281e-05 8.5438448894097063e-04 0.0000000000000000e+00  5.0693005726855558e-05 8.7161964941853416e-04 0.0000000000000000e+00  5.3371703609264962e-05 8.8898475222582395e-04 0.0000000000000000e+00  5.5970816444707585e-05 9.0646335315631131e-04 0.0000000000000000e+00  5.8496051870294603e-05 9.2404165000301876e-04 0.0000000000000000e+00  6.0952266837734798e-05 9.4170776881680163e-04 0.0000000000000000e+00  6.3343193696830812e-05 9.5945097885302916e-04 0.0000000000000000e+00  6.5671385553837475e-05 9.7726102093691615e-04 0.0000000000000000e+00  6.7938346570133241e-05 9.9512758916247852e-04 0.0000000000000000e+00  7.0144779577684943e-05 1.0130399647926577e-03 0.0000000000000000e+00  7.2290885255850572e-05 1.0309867927129018e-03 0.0000000000000000e+00  7.4376660879690648e-05 1.0489559797093961e-03 0.0000000000000000e+00  7.6402160960557252e-05 1.0669346797833987e-03 0.0000000000000000e+00  7.8367694597744533e-05 1.0849093275099083e-03 0.0000000000000000e+00  8.0273945370689645e-05 1.1028656773631993e-03 0.0000000000000000e+00  2.5762402329639610e-05 7.6139778331836387e-04 0.0000000000000000e+00  2.9397911480426512e-05 7.7771640056389219e-04 0.0000000000000000e+00  3.2928310002695525e-05 7.9433483753067269e-04 0.0000000000000000e+00  3.6341287686657343e-05 8.1121583186930543e-04 0.0000000000000000e+00  3.9632106194537040e-05 8.2832418325294208e-04 0.0000000000000000e+00  4.2801798636077591e-05 8.4562777962062050e-04 0.0000000000000000e+00  4.5855174193775602e-05 8.6309864531512791e-04 0.0000000000000000e+00  4.8798994558638939e-05 8.8071348979097534e-04 0.0000000000000000e+00  5.1640496933474791e-05 8.9845359831338778e-04 0.0000000000000000e+00  5.4386357804805008e-05 9.1630408684028448e-04 0.0000000000000000e+00  5.7042065801267376e-05 9.3425279937143320e-04 0.0000000000000000e+00  5.9611635500707168e-05 9.5228916218568810e-04 0.0000000000000000e+00  6.2097603728491569e-05 9.7040318617103518e-04 0.0000000000000000e+00  6.4501241169681662e-05 9.8858469605288507e-04 0.0000000000000000e+00  6.6822898592074426e-05 1.0068228044843193e-03 0.0000000000000000e+00  6.9062407094088688e-05 1.0251056174469743e-03 0.0000000000000000e+00  7.1219464219791497e-05 1.0434201350548269e-03 0.0000000000000000e+00  7.3293955461588663e-05 1.0617522950539873e-03 0.0000000000000000e+00  7.5286178243962420e-05 1.0800871003873208e-03 0.0000000000000000e+00  7.7196950435093594e-05 1.0984087740438736e-03 0.0000000000000000e+00  7.9027595823301654e-05 1.1167008959979551e-03 0.0000000000000000e+00  2.2985388593086733e-05 7.6792514928666010e-04 0.0000000000000000e+00  2.6836094726208175e-05 7.8468579981721975e-04 0.0000000000000000e+00  3.0550718405399470e-05 8.0175410143787048e-04 0.0000000000000000e+00  3.4122315996183860e-05 8.1908239746071728e-04 0.0000000000000000e+00  3.7551420630330128e-05 8.3662867600307704e-04 0.0000000000000000e+00  4.0843535488256034e-05 8.5435806841017222e-04 0.0000000000000000e+00  4.4006634207849084e-05 8.7224317849077574e-04 0.0000000000000000e+00  4.7049138760577684e-05 8.9026334639131653e-04 0.0000000000000000e+00  4.9978552575322293e-05 9.0840320852553474e-04 0.0000000000000000e+00  5.2800706819632448e-05 9.2665098507187845e-04 0.0000000000000000e+00  5.5519497862242902e-05 9.4499683576352840e-04 0.0000000000000000e+00  5.8136989205245528e-05 9.6343147703848537e-04 0.0000000000000000e+00  6.0653761751257026e-05 9.8194514059723710e-04 0.0000000000000000e+00  6.3069404311173654e-05 1.0005268908323346e-03 0.0000000000000000e+00  6.5383045226692638e-05 1.0191642797774058e-03 0.0000000000000000e+00  6.7593842472919391e-05 1.0378432852196835e-03 0.0000000000000000e+00  6.9701372720611023e-05 1.0565484544797752e-03 0.0000000000000000e+00  7.1705883475043291e-05 1.0752631697426383e-03 0.0000000000000000e+00  7.3608391812058781e-05 1.0939699575998100e-03 0.0000000000000000e+00  7.5410627249058207e-05 1.1126507807059510e-03 0.0000000000000000e+00  7.7114828174947234e-05 1.1312872669650303e-03 0.0000000000000000e+00  2.0798148577436398e-05 7.7474182292569906e-04 0.0000000000000000e+00  2.4759103178010540e-05 7.9202656990049608e-04 0.0000000000000000e+00  2.8557258228001740e-05 8.0960253021511387e-04 0.0000000000000000e+00  3.2193843848919033e-05 8.2741637249093456e-04 0.0000000000000000e+00  3.5676064529351340e-05 8.4542576168899369e-04 0.0000000000000000e+00  3.9013776094266775e-05 8.6359940586181957e-04 0.0000000000000000e+00  4.2216887162220867e-05 8.8191542756292337e-04 0.0000000000000000e+00  4.5293709591276134e-05 9.0035893054911376e-04 0.0000000000000000e+00  4.8250158300041133e-05 9.1891944196516957e-04 0.0000000000000000e+00  5.1089593896466556e-05 9.3758862776673632e-04 0.0000000000000000e+00  5.3813106433626880e-05 9.5635846111953690e-04 0.0000000000000000e+00  5.6420073693423514e-05 9.7521989518480913e-04 0.0000000000000000e+00  5.8908853963187333e-05 9.9416203893963671e-04 0.0000000000000000e+00  6.1277491125214840e-05 1.0131717993325223e-03 0.0000000000000000e+00  6.3524334107927804e-05 1.0322339090590058e-03 0.0000000000000000e+00  6.5648505360058466e-05 1.0513312274935500e-03 0.0000000000000000e+00  6.7650184764687766e-05 1.0704451972292355e-03 0.0000000000000000e+00  6.9530698828622974e-05 1.0895563537237786e-03 0.0000000000000000e+00  7.1292419663226717e-05 1.1086448073749666e-03 0.0000000000000000e+00  7.2938489229006643e-05 1.1276906357926956e-03 0.0000000000000000e+00  7.4472397619470919e-05 1.1466741353418281e-03 0.0000000000000000e+00  1.8966388426607167e-05 7.8205786036549538e-04 0.0000000000000000e+00  2.2941275924565635e-05 7.9991239112867248e-04 0.0000000000000000e+00  2.6736428579353806e-05 8.1801961596593322e-04 0.0000000000000000e+00  3.0362344878030673e-05 8.3632948377214097e-04 0.0000000000000000e+00  3.3831867202545730e-05 8.5480762445474590e-04 0.0000000000000000e+00  3.7156927479873828e-05 8.7343229251660571e-04 0.0000000000000000e+00  4.0346706034799557e-05 8.9219051408889359e-04 0.0000000000000000e+00  4.3406926141751259e-05 9.1107442145519052e-04 0.0000000000000000e+00  4.6339933059968107e-05 9.3007819858839593e-04 0.0000000000000000e+00  4.9145266034305843e-05 9.4919575552069712e-04 0.0000000000000000e+00  5.1820510907221825e-05 9.6841911463929631e-04 0.0000000000000000e+00  5.4362264543289658e-05 9.8773747568618362e-04 0.0000000000000000e+00  5.6767062821833754e-05 1.0071369043191459e-03 0.0000000000000000e+00  5.9032157334985006e-05 1.0266005252768922e-03 0.0000000000000000e+00  6.1156073762284348e-05 1.0461090566110175e-03 0.0000000000000000e+00  6.3138928067938422e-05 1.0656415234493223e-03 0.0000000000000000e+00  6.4982502973668583e-05 1.0851760211395556e-03 0.0000000000000000e+00  6.6690098354410526e-05 1.1046904313919889e-03 0.0000000000000000e+00  6.8266174360645334e-05 1.1241630160511806e-03 0.0000000000000000e+00  6.9715814108070934e-05 1.1435728190953762e-03 0.0000000000000000e+00  7.1044048487011504e-05 1.1628998030652601e-03 0.0000000000000000e+00  1.7271076178350318e-05 7.9003902120469368e-04 0.0000000000000000e+00  2.1178947348084625e-05 8.0846712332321383e-04 0.0000000000000000e+00  2.4904645515423331e-05 8.2709699649647598e-04 0.0000000000000000e+00  2.8465536973355527e-05 8.4589294318822685e-04 0.0000000000000000e+00  3.1876271929048090e-05 8.6483559046603728e-04 0.0000000000000000e+00  3.5146948129374340e-05 8.8391601868045020e-04 0.0000000000000000e+00  3.8282730732287597e-05 9.0313071527441742e-04 0.0000000000000000e+00  4.1284353962801194e-05 9.2247766284798678e-04 0.0000000000000000e+00  4.4149115438298779e-05 9.4195351673401889e-04 0.0000000000000000e+00  4.6872124693756251e-05 9.6155172899230798e-04 0.0000000000000000e+00  4.9447619087742336e-05 9.8126155422777412e-04 0.0000000000000000e+00  5.1870168046931327e-05 1.0010678733251191e-03 0.0000000000000000e+00  5.4135631013167407e-05 1.0209516597611181e-03 0.0000000000000000e+00  5.6241807670414035e-05 1.0408908473862994e-03 0.0000000000000000e+00  5.8188778637573437e-05 1.0608613802482632e-03 0.0000000000000000e+00  5.9978961293779808e-05 1.0808382882078846e-03 0.0000000000000000e+00  6.1616906659031450e-05 1.1007966857969780e-03 0.0000000000000000e+00  6.3108856435141277e-05 1.1207126160107761e-03 0.0000000000000000e+00  6.4462078029053481e-05 1.1405636584163647e-03 0.0000000000000000e+00  6.5684005252707818e-05 1.1603292056910801e-03 0.0000000000000000e+00  6.6781239336182298e-05 1.1799902865062546e-03 0.0000000000000000e+00  1.5515061729586435e-05 7.9878846885391146e-04 0.0000000000000000e+00  1.9299104660684178e-05 8.1775643172427210e-04 0.0000000000000000e+00  2.2913642943093760e-05 8.3688003805187266e-04 0.0000000000000000e+00  2.6376749995657456e-05 8.5614577250092260e-04 0.0000000000000000e+00  2.9699329606650402e-05 8.7555174033189791e-04 0.0000000000000000e+00  3.2885425845817716e-05 8.9510103675779606e-04 0.0000000000000000e+00  3.5933387452212108e-05 9.1479699150675046e-04 0.0000000000000000e+00  3.8837431416021967e-05 9.3463992037751652e-04 0.0000000000000000e+00  4.1589395486491393e-05 9.5462503927839864e-04 0.0000000000000000e+00  4.4180494058912678e-05 9.7474148445306165e-04 0.0000000000000000e+00  4.6602852388441899e-05 9.9497240230963396e-04 0.0000000000000000e+00  4.8850657619985907e-05 1.0152958422936476e-03 0.0000000000000000e+00  5.0920884770995632e-05 1.0356860877879831e-03 0.0000000000000000e+00  5.2813639302329605e-05 1.0561151302319609e-03 0.0000000000000000e+00  5.4532177919689051e-05 1.0765541142764277e-03 0.0000000000000000e+00  5.6082649666367784e-05 1.0969746654788954e-03 0.0000000000000000e+00  5.7473572123642343e-05 1.1173500369982515e-03 0.0000000000000000e+00  5.8715042438111269e-05 1.1376559939951618e-03 0.0000000000000000e+00  5.9817683823940920e-05 1.1578713226869171e-03 0.0000000000000000e+00  6.0791357404526291e-05 1.1779777960601410e-03 0.0000000000000000e+00  6.1643727729052995e-05 1.1979593926096123e-03 0.0000000000000000e+00  1.3536934559288762e-05 8.0833687102429457e-04 0.0000000000000000e+00  1.7170454619805143e-05 8.2779308257628767e-04 0.0000000000000000e+00  2.0656233179779634e-05 8.4738164133997952e-04 0.0000000000000000e+00  2.4005468428806813e-05 8.6711158863538094e-04 0.0000000000000000e+00  2.7220194537055766e-05 8.8699535918393402e-04 0.0000000000000000e+00  3.0295366380926744e-05 9.0704339443247253e-04 0.0000000000000000e+00  3.3221112172728618e-05 9.2726064591270500e-04 0.0000000000000000e+00  3.5985088477024313e-05 9.4764434189167869e-04 0.0000000000000000e+00  3.8574774562941977e-05 9.6818310867194726e-04 0.0000000000000000e+00  4.0979387881650520e-05 9.8885752155638781e-04 0.0000000000000000e+00  4.3191215801622937e-05 1.0096416459469261e-03 0.0000000000000000e+00  4.5206369305541701e-05 1.0305049953748320e-03 0.0000000000000000e+00  4.7025081252089005e-05 1.0514145178576418e-03 0.0000000000000000e+