<?xml version="1.0"?>
<VTKFile type="UnstructuredGrid"  version="0.1"  >
<UnstructuredGrid>
<Piece  NumberOfPoints="640" NumberOfCells="1181">
<Points>
<DataArray  type="Float64"  NumberOfComponents="3"  format="ascii">2.973913043478261 0 0  2.990434782608696 0 0  2.990434782608696 0.01666666666666667 0  2.973913043478261 0.01666666666666667 0  3.006956521739131 0 0  3.006956521739131 0.01666666666666667 0  3.023478260869565 0 0  3.023478260869565 0.01666666666666667 0  3.04 0 0  3.04 0.01666666666666667 0  3.056521739130435 0 0  3.056521739130435 0.01666666666666667 0  3.073043478260869 0 0  3.073043478260869 0.01666666666666667 0  3.089565217391304 0 0  3.089565217391304 0.01666666666666667 0  3.106086956521739 0 0  3.106086956521739 0.01666666666666667 0  3.122608695652174 0 0  3.122608695652174 0.01666666666666667 0  3.139130434782609 0 0  3.139130434782609 0.01666666666666667 0  3.155652173913043 0 0  3.155652173913043 0.01666666666666667 0  3.172173913043478 0 0  3.172173913043478 0.01666666666666667 0  3.188695652173913 0 0  3.188695652173913 0.01666666666666667 0  3.205217391304347 0 0  3.205217391304347 0.01666666666666667 0  3.221739130434782 0 0  3.221739130434782 0.01666666666666667 0  3.238260869565217 0 0  3.238260869565217 0.01666666666666667 0  2.990434782608696 0.03333333333333333 0  2.973913043478261 0.03333333333333333 0  3.006956521739131 0.03333333333333333 0  3.023478260869565 0.03333333333333333 0  3.04 0.03333333333333333 0  3.056521739130435 0.03333333333333333 0  3.073043478260869 0.03333333333333333 0  3.089565217391304 0.03333333333333333 0  3.106086956521739 0.03333333333333333 0  3.122608695652174 0.03333333333333333 0  3.139130434782609 0.03333333333333333 0  3.155652173913043 0.03333333333333333 0  3.172173913043478 0.03333333333333333 0  3.188695652173913 0.03333333333333333 0  3.205217391304347 0.03333333333333333 0  3.221739130434782 0.03333333333333333 0  3.238260869565217 0.03333333333333333 0  3.254782608695652 0.03333333333333333 0  2.990434782608696 0.05 0  3.006956521739131 0.05 0  3.023478260869565 0.05 0  3.04 0.05 0  3.056521739130435 0.05 0  3.073043478260869 0.05 0  3.089565217391304 0.05 0  3.106086956521739 0.05 0  3.122608695652174 0.05 0  3.139130434782609 0.05 0  3.155652173913043 0.05 0  3.172173913043478 0.05 0  3.188695652173913 0.05 0  3.205217391304347 0.05 0  3.221739130434782 0.05 0  3.238260869565217 0.05 0  3.254782608695652 0.05 0  3.271304347826087 0.05 0  3.006956521739131 0.06666666666666667 0  2.990434782608696 0.06666666666666667 0  3.023478260869565 0.06666666666666667 0  3.04 0.06666666666666667 0  3.056521739130435 0.06666666666666667 0  3.073043478260869 0.06666666666666667 0  3.089565217391304 0.06666666666666667 0  3.106086956521739 0.06666666666666667 0  3.122608695652174 0.06666666666666667 0  3.139130434782609 0.06666666666666667 0  3.155652173913043 0.06666666666666667 0  3.172173913043478 0.06666666666666667 0  3.188695652173913 0.06666666666666667 0  3.205217391304347 0.06666666666666667 0  3.221739130434782 0.06666666666666667 0  3.238260869565217 0.06666666666666667 0  3.254782608695652 0.06666666666666667 0  3.271304347826087 0.06666666666666667 0  3.287826086956521 0.06666666666666667 0  3.006956521739131 0.08333333333333333 0  3.023478260869565 0.08333333333333333 0  3.04 0.08333333333333333 0  3.056521739130435 0.08333333333333333 0  3.073043478260869 0.08333333333333333 0  3.089565217391304 0.08333333333333333 0  3.106086956521739 0.08333333333333333 0  3.122608695652174 0.08333333333333333 0  3.139130434782609 0.08333333333333333 0  3.155652173913043 0.08333333333333333 0  3.172173913043478 0.08333333333333333 0  3.188695652173913 0.08333333333333333 0  3.205217391304347 0.08333333333333333 0  3.221739130434782 0.08333333333333333 0  3.238260869565217 0.08333333333333333 0  3.254782608695652 0.08333333333333333 0  3.271304347826087 0.08333333333333333 0  3.287826086956521 0.08333333333333333 0  3.304347826086957 0.08333333333333333 0  3.023478260869565 0.1 0  3.006956521739131 0.1 0  3.04 0.1 0  3.056521739130435 0.1 0  3.073043478260869 0.1 0  3.089565217391304 0.1 0  3.106086956521739 0.1 0  3.122608695652174 0.1 0  3.139130434782609 0.1 0  3.155652173913043 0.1 0  3.172173913043478 0.1 0  3.188695652173913 0.1 0  3.205217391304347 0.1 0  3.221739130434782 0.1 0  3.238260869565217 0.1 0  3.254782608695652 0.1 0  3.271304347826087 0.1 0  3.287826086956521 0.1 0  3.304347826086957 0.1 0  3.320869565217391 0.1 0  3.023478260869565 0.1166666666666667 0  3.04 0.1166666666666667 0  3.056521739130435 0.1166666666666667 0  3.073043478260869 0.1166666666666667 0  3.089565217391304 0.1166666666666667 0  3.106086956521739 0.1166666666666667 0  3.122608695652174 0.1166666666666667 0  3.139130434782609 0.1166666666666667 0  3.155652173913043 0.1166666666666667 0  3.172173913043478 0.1166666666666667 0  3.188695652173913 0.1166666666666667 0  3.205217391304347 0.1166666666666667 0  3.221739130434782 0.1166666666666667 0  3.238260869565217 0.1166666666666667 0  3.254782608695652 0.1166666666666667 0  3.271304347826087 0.1166666666666667 0  3.287826086956521 0.1166666666666667 0  3.304347826086957 0.1166666666666667 0  3.320869565217391 0.1166666666666667 0  3.337391304347826 0.1166666666666667 0  3.04 0.1333333333333333 0  3.023478260869565 0.1333333333333333 0  3.056521739130435 0.1333333333333333 0  3.073043478260869 0.1333333333333333 0  3.089565217391304 0.1333333333333333 0  3.106086956521739 0.1333333333333333 0  3.122608695652174 0.1333333333333333 0  3.139130434782609 0.1333333333333333 0  3.155652173913043 0.1333333333333333 0  3.172173913043478 0.1333333333333333 0  3.188695652173913 0.1333333333333333 0  3.205217391304347 0.1333333333333333 0  3.221739130434782 0.1333333333333333 0  3.238260869565217 0.1333333333333333 0  3.254782608695652 0.1333333333333333 0  3.271304347826087 0.1333333333333333 0  3.287826086956521 0.1333333333333333 0  3.304347826086957 0.1333333333333333 0  3.320869565217391 0.1333333333333333 0  3.337391304347826 0.1333333333333333 0  3.353913043478261 0.1333333333333333 0  3.04 0.15 0  3.056521739130435 0.15 0  3.073043478260869 0.15 0  3.089565217391304 0.15 0  3.106086956521739 0.15 0  3.122608695652174 0.15 0  3.139130434782609 0.15 0  3.155652173913043 0.15 0  3.172173913043478 0.15 0  3.188695652173913 0.15 0  3.205217391304347 0.15 0  3.221739130434782 0.15 0  3.238260869565217 0.15 0  3.254782608695652 0.15 0  3.271304347826087 0.15 0  3.287826086956521 0.15 0  3.304347826086957 0.15 0  3.320869565217391 0.15 0  3.337391304347826 0.15 0  3.353913043478261 0.15 0  3.370434782608696 0.15 0  3.056521739130435 0.1666666666666667 0  3.073043478260869 0.1666666666666667 0  3.089565217391304 0.1666666666666667 0  3.106086956521739 0.1666666666666667 0  3.122608695652174 0.1666666666666667 0  3.139130434782609 0.1666666666666667 0  3.155652173913043 0.1666666666666667 0  3.172173913043478 0.1666666666666667 0  3.188695652173913 0.1666666666666667 0  3.205217391304347 0.1666666666666667 0  3.221739130434782 0.1666666666666667 0  3.238260869565217 0.1666666666666667 0  3.254782608695652 0.1666666666666667 0  3.271304347826087 0.1666666666666667 0  3.287826086956521 0.1666666666666667 0  3.304347826086957 0.1666666666666667 0  3.320869565217391 0.1666666666666667 0  3.337391304347826 0.1666666666666667 0  3.353913043478261 0.1666666666666667 0  3.370434782608696 0.1666666666666667 0  3.386956521739131 0.1666666666666667 0  3.073043478260869 0.1833333333333333 0  3.089565217391304 0.1833333333333333 0  3.106086956521739 0.1833333333333333 0  3.122608695652174 0.1833333333333333 0  3.139130434782609 0.1833333333333333 0  3.155652173913043 0.1833333333333333 0  3.172173913043478 0.1833333333333333 0  3.188695652173913 0.1833333333333333 0  3.205217391304347 0.1833333333333333 0  3.221739130434782 0.1833333333333333 0  3.238260869565217 0.1833333333333333 0  3.254782608695652 0.1833333333333333 0  3.271304347826087 0.1833333333333333 0  3.287826086956521 0.1833333333333333 0  3.304347826086957 0.1833333333333333 0  3.320869565217391 0.1833333333333333 0  3.337391304347826 0.1833333333333333 0  3.353913043478261 0.1833333333333333 0  3.370434782608696 0.1833333333333333 0  3.386956521739131 0.1833333333333333 0  3.403478260869565 0.1833333333333333 0  3.089565217391304 0.2 0  3.106086956521739 0.2 0  3.122608695652174 0.2 0  3.139130434782609 0.2 0  3.155652173913043 0.2 0  3.172173913043478 0.2 0  3.188695652173913 0.2 0  3.205217391304347 0.2 0  3.221739130434782 0.2 0  3.238260869565217 0.2 0  3.254782608695652 0.2 0  3.271304347826087 0.2 0  3.287826086956521 0.2 0  3.304347826086957 0.2 0  3.320869565217391 0.2 0  3.337391304347826 0.2 0  3.353913043478261 0.2 0  3.370434782608696 0.2 0  3.386956521739131 0.2 0  3.403478260869565 0.2 0  3.419999999999999 0.2 0  3.106086956521739 0.2166666666666667 0  3.122608695652174 0.2166666666666667 0  3.139130434782609 0.2166666666666667 0  3.155652173913043 0.2166666666666667 0  3.172173913043478 0.2166666666666667 0  3.188695652173913 0.2166666666666667 0  3.205217391304347 0.2166666666666667 0  3.221739130434782 0.2166666666666667 0  3.238260869565217 0.2166666666666667 0  3.254782608695652 0.2166666666666667 0  3.271304347826087 0.2166666666666667 0  3.287826086956521 0.2166666666666667 0  3.304347826086957 0.2166666666666667 0  3.320869565217391 0.2166666666666667 0  3.337391304347826 0.2166666666666667 0  3.353913043478261 0.2166666666666667 0  3.370434782608696 0.2166666666666667 0  3.386956521739131 0.2166666666666667 0  3.403478260869565 0.2166666666666667 0  3.419999999999999 0.2166666666666667 0  3.436521739130435 0.2166666666666667 0  3.122608695652174 0.2333333333333333 0  3.139130434782609 0.2333333333333333 0  3.155652173913043 0.2333333333333333 0  3.172173913043478 0.2333333333333333 0  3.188695652173913 0.2333333333333333 0  3.205217391304347 0.2333333333333333 0  3.221739130434782 0.2333333333333333 0  3.238260869565217 0.2333333333333333 0  3.254782
[...]
<PointData  Vectors="Displacement"> 
<DataArray  type="Float64"  Name="Displacement"  NumberOfComponents="3" format="ascii">2.7905969325896820e-04 3.6532473297732552e-03 0.0000000000000000e+00  2.7928927733392205e-04 3.6714003080607132e-03 0.0000000000000000e+00  2.6157019568471065e-04 3.6711708092611751e-03 0.0000000000000000e+00  2.6043983000443899e-04 3.6529957771377262e-03 0.0000000000000000e+00  2.7945102938086504e-04 3.6885083071729018e-03 0.0000000000000000e+00  2.6275300666584145e-04 3.6883157277890193e-03 0.0000000000000000e+00  2.7961041206490408e-04 3.7044620128117828e-03 0.0000000000000000e+00  2.6391376591555505e-04 3.7042951629646021e-03 0.0000000000000000e+00  2.7983553051816730e-04 3.7194288665440430e-03 0.0000000000000000e+00  2.6494701659566318e-04 3.7192629236240211e-03 0.0000000000000000e+00  2.8013149643724730e-04 3.7337334985427751e-03 0.0000000000000000e+00  2.6581566268999465e-04 3.7335843163695424e-03 0.0000000000000000e+00  2.8051155864652205e-04 3.7475709169480669e-03 0.0000000000000000e+00  2.6654244685048656e-04 3.7474153926035474e-03 0.0000000000000000e+00  2.8100612871599157e-04 3.7611712047472953e-03 0.0000000000000000e+00  2.6718716857415204e-04 3.7609717341617081e-03 0.0000000000000000e+00  2.8155926501824391e-04 3.7748259966505597e-03 0.0000000000000000e+00  2.6778738754471335e-04 3.7746094751771463e-03 0.0000000000000000e+00  2.8202088975462996e-04 3.7886409226762572e-03 0.0000000000000000e+00  2.6830959981891144e-04 3.7884798606678785e-03 0.0000000000000000e+00  2.8223605891580675e-04 3.8024223220907644e-03 0.0000000000000000e+00  2.6868613874099875e-04 3.8024274699149413e-03 0.0000000000000000e+00  2.8231059732548158e-04 3.8161158132031664e-03 0.0000000000000000e+00  2.6880009079595661e-04 3.8161933908982810e-03 0.0000000000000000e+00  2.8841088277179778e-04 3.8339283223165601e-03 0.0000000000000000e+00  2.7235629150075893e-04 3.8325112574492913e-03 0.0000000000000000e+00  2.9342234163459290e-04 3.8512368934883749e-03 0.0000000000000000e+00  2.7633453169714387e-04 3.8498135978017969e-03 0.0000000000000000e+00  2.9803599065714458e-04 3.8688923157467626e-03 0.0000000000000000e+00  2.8023891520562611e-04 3.8675256203498484e-03 0.0000000000000000e+00  3.0245506231978483e-04 3.8870269211623279e-03 0.0000000000000000e+00  2.8400669343746511e-04 3.8857007944142082e-03 0.0000000000000000e+00  3.0675950597675337e-04 3.9057691849819645e-03 0.0000000000000000e+00  2.8762704557364104e-04 3.9044653254075939e-03 0.0000000000000000e+00  2.4335921974581544e-04 3.6707068157667689e-03 0.0000000000000000e+00  2.4136296840682450e-04 3.6525569396084305e-03 0.0000000000000000e+00  2.4573825086232094e-04 3.6878318015390538e-03 0.0000000000000000e+00  2.4835732392217141e-04 3.7038373164716286e-03 0.0000000000000000e+00  2.5052209547770044e-04 3.7189155830427015e-03 0.0000000000000000e+00  2.5179286810627093e-04 3.7332749750725335e-03 0.0000000000000000e+00  2.5292283758449226e-04 3.7472270090811309e-03 0.0000000000000000e+00  2.5359803103376123e-04 3.7606895937069853e-03 0.0000000000000000e+00  2.5421183664294135e-04 3.7742767607826717e-03 0.0000000000000000e+00  2.5479693015973429e-04 3.7882047790316958e-03 0.0000000000000000e+00  2.5537432895753618e-04 3.8023405137324121e-03 0.0000000000000000e+00  2.5592783566244254e-04 3.8165926094751845e-03 0.0000000000000000e+00  2.5711039252741661e-04 3.8321173262373088e-03 0.0000000000000000e+00  2.5958180451271436e-04 3.8488261964708015e-03 0.0000000000000000e+00  2.6280346263932278e-04 3.8664338571823835e-03 0.0000000000000000e+00  2.6599010551969646e-04 3.8846057041155265e-03 0.0000000000000000e+00  2.6897394991295178e-04 3.9033456979808059e-03 0.0000000000000000e+00  2.7168518903039081e-04 3.9230233443001798e-03 0.0000000000000000e+00  2.3101488451014021e-04 3.6681743568468426e-03 0.0000000000000000e+00  2.3293229896192947e-04 3.6852153458462010e-03 0.0000000000000000e+00  2.3486438660774128e-04 3.7013869200143083e-03 0.0000000000000000e+00  2.3658372674948715e-04 3.7169680445937243e-03 0.0000000000000000e+00  2.3800709077236395e-04 3.7324455814286154e-03 0.0000000000000000e+00  2.3980296681635634e-04 3.7469874355193361e-03 0.0000000000000000e+00  2.4046268530225281e-04 3.7604728842133843e-03 0.0000000000000000e+00  2.4072345557049670e-04 3.7738846292233300e-03 0.0000000000000000e+00  2.4112568042333239e-04 3.7878632695002683e-03 0.0000000000000000e+00  2.4162712987394022e-04 3.8021230995381439e-03 0.0000000000000000e+00  2.4225045624566100e-04 3.8166944051486020e-03 0.0000000000000000e+00  2.4309486494793978e-04 3.8320466974938157e-03 0.0000000000000000e+00  2.4438706679596827e-04 3.8484378282802084e-03 0.0000000000000000e+00  2.4569858802191852e-04 3.8655381533200610e-03 0.0000000000000000e+00  2.4841001721202051e-04 3.8835904275711028e-03 0.0000000000000000e+00  2.5115960297641585e-04 3.9025130616327907e-03 0.0000000000000000e+00  2.5269873492397420e-04 3.9222045955737278e-03 0.0000000000000000e+00  2.5448177412649330e-04 3.9426974959821783e-03 0.0000000000000000e+00  2.2004868191839467e-04 3.6831617860183176e-03 0.0000000000000000e+00  2.1843310925882662e-04 3.6661259811126348e-03 0.0000000000000000e+00  2.2164782291729762e-04 3.6994504086390388e-03 0.0000000000000000e+00  2.2312217605802178e-04 3.7152348984769478e-03 0.0000000000000000e+00  2.2445705870515392e-04 3.7306313181327232e-03 0.0000000000000000e+00  2.2568850541768252e-04 3.7451621937452675e-03 0.0000000000000000e+00  2.2669314934044960e-04 3.7596520844012131e-03 0.0000000000000000e+00  2.2688686907590215e-04 3.7735087957238346e-03 0.0000000000000000e+00  2.2701620989286985e-04 3.7875799260289910e-03 0.0000000000000000e+00  2.2724132457433384e-04 3.8019257728983775e-03 0.0000000000000000e+00  2.2756414165277919e-04 3.8166410336311638e-03 0.0000000000000000e+00  2.2800758008754494e-04 3.8320110564755497e-03 0.0000000000000000e+00  2.2865356166144800e-04 3.8482348820678414e-03 0.0000000000000000e+00  2.2953717475663774e-04 3.8653076999831839e-03 0.0000000000000000e+00  2.3060959065442844e-04 3.8831300037064499e-03 0.0000000000000000e+00  2.3183302761219975e-04 3.9020544665867873e-03 0.0000000000000000e+00  2.3309604379879141e-04 3.9216377125523083e-03 0.0000000000000000e+00  2.3448581204254634e-04 3.9419922064934014e-03 0.0000000000000000e+00  2.3603350930533908e-04 3.9633347304348227e-03 0.0000000000000000e+00  2.0718518422381275e-04 3.6815318282560805e-03 0.0000000000000000e+00  2.0858265773157080e-04 3.6978553926386832e-03 0.0000000000000000e+00  2.0988421338433066e-04 3.7137502175423557e-03 0.0000000000000000e+00  2.1111773499431105e-04 3.7291431012768921e-03 0.0000000000000000e+00  2.1234530063309195e-04 3.7438584617996290e-03 0.0000000000000000e+00  2.1240121730914645e-04 3.7582771294996519e-03 0.0000000000000000e+00  2.1243385043648682e-04 3.7730203530687229e-03 0.0000000000000000e+00  2.1243762384626089e-04 3.7873858963485270e-03 0.0000000000000000e+00  2.1239013539595488e-04 3.8018172175728450e-03 0.0000000000000000e+00  2.1234917117651675e-04 3.8166148478812286e-03 0.0000000000000000e+00  2.1234659632244401e-04 3.8320029615731108e-03 0.0000000000000000e+00  2.1244365497078522e-04 3.8481675471621142e-03 0.0000000000000000e+00  2.1270630144306840e-04 3.8651625284124146e-03 0.0000000000000000e+00  2.1314946635485991e-04 3.8830134440503115e-03 0.0000000000000000e+00  2.1374836626241215e-04 3.9018546172724989e-03 0.0000000000000000e+00  2.1453456945405068e-04 3.9214588864787637e-03 0.0000000000000000e+00  2.1545465710674639e-04 3.9418469163492072e-03 0.0000000000000000e+00  2.1639813870480878e-04 3.9629795835686181e-03 0.0000000000000000e+00  2.1689095674837545e-04 3.9843717146613011e-03 0.0000000000000000e+00  1.9559947577850020e-04 3.6965616806625226e-03 0.0000000000000000e+00  1.9439388018862455e-04 3.6802794445442897e-03 0.0000000000000000e+00  1.9664015344442407e-04 3.7126306876463350e-03 0.0000000000000000e+00  1.9746797474408398e-04 3.7281257345262641e-03 0.0000000000000000e+00  1.9808172995181632e-04 3.7431727516984135e-03 0.0000000000000000e+00  1.9788088476511899e-04 3.7581031087540427e-03 0.0000000000000000e+00  1.9778548533696557e-04 3.7727888766040264e-03 0.0000000000000000e+00  1.9763578531648742e-04 3.7872910791456570e-03 0.0000000000000000e+00  1.9735122166629146e-04 3.8018064859476875e-03 0.0000000000000000e+00  1.9691891159440451e-04 3.8166863393866673e-03 0.0000000000000000e+00  1.9638876461323601e-04 3.8320906356525742e-03 0.0000000000000000e+00  1.9585714171950591e-04 3.8482313314461189e-03 0.0000000000000000e+00  1.9543381858450163e-04 3.8651593144374760e-03 0.0000000000000000e+00  1.9520478787081314e-04 3.8829814527108703e-03 0.0000000000000000e+00  1.9517435470948761e-04 3.9018054817842990e-03 0.0000000000000000e+00  1.9536018345763407e-04 3.9214135203079446e-03 0.0000000000000000e+00  1.9574330985663421e-04 3.9418018527984855e-03 0.0000000000000000e+00  1.9630057439108924e-04 3.9629343271178558e-03 0.0000000000000000e+00  1.9697457631251866e-04 3.9847258221522011e-03 0.0000000000000000e+00  1.9767440298297382e-04 4.0071359708337131e-03 0.0000000000000000e+00  1.8291366862217137e-04 3.6955524665470106e-03 0.0000000000000000e+00  1.8351474868178510e-04 3.7118661409868089e-03 0.0000000000000000e+00  1.8412846103958637e-04 3.7277142830517930e-03 0.0000000000000000e+00  1.8379525618997082e-04 3.7429928374102576e-03 0.0000000000000000e+00  1.8354189934060512e-04 3.7579611442639682e-03 0.0000000000000000e+00  1.8330770858980604e-04 3.7727044173214066e-03 0.0000000000000000e+00  1.8301632292850730e-04 3.7873037886647989e-03 0.0000000000000000e+00  1.8255123590750700e-04 3.8019095494566954e-03 0.0000000000000000e+00  1.8164630203827112e-04 3.8169149466610050e-03 0.0000000000000000e+00  1.8048455335047741e-04 3.8323915606850172e-03 0.0000000000000000e+00  1.7902814503960722e-04 3.8485115315586419e-03 0.0000000000000000e+00  1.7778602118116751e-04 3.8653780516804525e-03 0.0000000000000000e+00  1.7667246009277522e-04 3.8830525733280492e-03 0.0000000000000000e+00  1.7598852961928595e-04 3.9018897738395592e-03 0.0000000000000000e+00  1.7560906179061488e-04 3.9214698929083171e-03 0.0000000000000000e+00  1.7549618508649775e-04 3.9418318938606216e-03 0.0000000000000000e+00  1.7561018302089307e-04 3.9629708596874173e-03 0.0000000000000000e+00  1.7592030020633395e-04 3.9847882494579894e-03 0.0000000000000000e+00  1.7642395170031373e-04 4.0072354777528569e-03 0.0000000000000000e+00  1.7702882909186222e-04 4.0303581981542755e-03 0.0000000000000000e+00  1.7009325036954271e-04 3.7117498816594389e-03 0.0000000000000000e+00  1.7143532178100541e-04 3.6951982741295713e-03 0.0000000000000000e+00  1.6969961783320776e-04 3.7275035520286958e-03 0.0000000000000000e+00  1.6939525416681078e-04 3.7428501412833859e-03 0.0000000000000000e+00  1.6914045806272401e-04 3.7578820226641962e-03 0.0000000000000000e+00  1.6892152764003501e-04 3.7726818965628886e-03 0.0000000000000000e+00  1.6873052718632334e-04 3.7873058046427343e-03 0.0000000000000000e+00  1.6846470440044008e-04 3.8019317321032592e-03 0.0000000000000000e+00  1.6742625975420670e-04 3.8170964425490272e-03 0.0000000000000000e+00  1.6552423899072663e-04 3.8352383813613604e-03 0.0000000000000000e+00  1.6329579440195420e-04 3.8520135016135736e-03 0.0000000000000000e+00  1.6076273496376428e-04 3.8658033171720509e-03 0.0000000000000000e+00  1.5789871919649656e-04 3.8834653311197293e-03 0.0000000000000000e+00  1.5589197358059073e-04 3.9020680525210221e-03 0.0000000000000000e+00  1.5514861180301480e-04 3.9216047698287784e-03 0.0000000000000000e+00  1.5457231070961685e-04 3.9418943264977755e-03 0.0000000000000000e+00  1.5429606715057379e-04 3.9630472176983298e-03 0.0000000000000000e+00  1.5424119599305309e-04 3.9848860593467367e-03 0.0000000000000000e+00  1.5436310441129474e-04 4.0073442802354298e-03 0.0000000000000000e+00  1.5462410625099955e-04 4.0303945221140738e-03 0.0000000000000000e+00  1.5498377412259860e-04 4.0537814793901120e-03 0.0000000000000000e+00  1.5541006067930346e-04 3.7114833372185879e-03 0.0000000000000000e+00  1.5502153706131640e-04 3.7273387754379202e-03 0.0000000000000000e+00  1.5473981182145135e-04 3.7427553157459497e-03 0.0000000000000000e+00  1.5453400428359492e-04 3.7578545877015490e-03 0.0000000000000000e+00  1.5439821851851788e-04 3.7726868319524435e-03 0.0000000000000000e+00  1.5429234779630238e-04 3.7873002556512727e-03 0.0000000000000000e+00  1.5416605318230140e-04 3.8019042457771448e-03 0.0000000000000000e+00  1.5167145345703527e-04 3.8212389601537718e-03 0.0000000000000000e+00  1.4856457350516532e-04 3.8396348387374252e-03 0.0000000000000000e+00  1.4576962509722536e-04 3.8569026855322266e-03 0.0000000000000000e+00  1.4291001296381513e-04 3.8727532934903206e-03 0.0000000000000000e+00  1.3974309781621987e-04 3.8899319803308002e-03 0.0000000000000000e+00  1.3707856877371655e-04 3.9072416138107016e-03 0.0000000000000000e+00  1.3443000617732100e-04 3.9218872413851738e-03 0.0000000000000000e+00  1.3286331905127636e-04 3.9420161596439678e-03 0.0000000000000000e+00  1.3225965317965462e-04 3.9630953713613807e-03 0.0000000000000000e+00  1.3198194106029803e-04 3.9849700667214235e-03 0.0000000000000000e+00  1.3188047794494370e-04 4.0074499341171211e-03 0.0000000000000000e+00  1.3193090550504713e-04 4.0304884430231707e-03 0.0000000000000000e+00  1.3212468614392823e-04 4.0539353449394874e-03 0.0000000000000000e+00  1.3245335450219888e-04 4.0778252255258040e-03 0.0000000000000000e+00  1.3992184215565320e-04 3.7272410092630717e-03 0.0000000000000000e+00  1.3973397981073327e-04 3.7427264802002069e-03 0.0000000000000000e+00  1.3963125133643667e-04 3.7578754286707364e-03 0.0000000000000000e+00  1.3957394894977533e-04 3.7727237626460144e-03 0.0000000000000000e+00  1.3956057908479978e-04 3.7873752568433942e-03 0.0000000000000000e+00  1.3689089535204551e-04 3.8067188286918193e-03 0.0000000000000000e+00  1.3332418762187275e-04 3.8262432604929523e-03 0.0000000000000000e+00  1.3005836463982133e-04 3.8449159715477342e-03 0.0000000000000000e+00  1.2697721639814472e-04 3.8625281314992681e-03 0.0000000000000000e+00  1.2392946126786564e-04 3.8793468626526074e-03 0.0000000000000000e+00  1.2080187731108920e-04 3.8965235125397154e-03 0.0000000000000000e+00  1.1793483717590941e-04 3.9135769068761941e-03 0.0000000000000000e+00  1.1518809005530410e-04 3.9297970982096701e-03 0.0000000000000000e+00  1.1230806927176090e-04 3.9477021332515192e-03 0.0000000000000000e+00  1.0945089262705503e-04 3.9630569422153842e-03 0.0000000000000000e+00  1.0913774161909762e-04 3.9850194460938418e-03 0.0000000000000000e+00  1.0887230342946120e-04 4.0074914551022954e-03 0.0000000000000000e+00  1.0876952716701493e-04 4.0305723914949550e-03 0.0000000000000000e+00  1.0878854061108574e-04 4.0540637034056403e-03 0.0000000000000000e+00  1.0890891843092545e-04 4.0779608679457095e-03 0.0000000000000000e+00  1.0912251494936518e-04 4.1022286484860455e-03 0.0000000000000000e+00  1.2436633861281037e-04 3.7427489602054661e-03 0.0000000000000000e+00  1.2435878382303291e-04 3.7579320493460419e-03 0.0000000000000000e+00  1.2439235770061717e-04 3.7728429069651490e-03 0.0000000000000000e+00  1.2146007409739279e-04 3.7924801686213825e-03 0.0000000000000000e+00  1.1754466112396380e-04 3.8123710915772195e-03 0.0000000000000000e+00  1.1384009332262848e-04 3.8319459268788179e-03 0.0000000000000000e+00  1.1042994530839739e-04 3.8506514823638529e-03 0.0000000000000000e+00  1.0723097094990517e-04 3.8685473414653707e-03 0.0000000000000000e+00  1.0410186753363329e-04 3.8858730999420366e-03 0.0000000000000000e+00  1.0099939446472827e-04 3.9031698091659354e-03 0.0000000000000000e+00  9.8055021944158048e-05 3.9202949688646564e-03 0.0000000000000000e+00  9.5216442926387832e-05 3.9371416115439161e-03 0.0000000000000000e+00  9.2407700627300884e-05 3.9546052463735777e-03 0.0000000000000000e+00  8.9827058027714231e-05 3.9714605640911007e-03 0.0000000000000000e+00  8.7364409504568139e-05 3.9904567081094902e-03 0.0000000000000000e+00  8.5291370560117117e-05 4.0074802827118148e-03 0.0000000000000000e+00  8.5135226578931335e-05 4.0305983714857300e-03 0.0000000000000000e+00  8.5063238249583767e-05 4.0541500858740078e-03 0.0000000000000000e+00  8.5071038064713788e-05 4.0780839843892729e-03 0.0000000000000000e+00  8.5153591600389502e-05 4.1023547444820740e-03 0.0000000000000000e+00  8.5308923474108005e-05 4.1268829602921480e-03 0.0000000000000000e+00  1.0873695228013243e-04 3.7580247884308310e-03 0.0000000000000000e+00  1.0545793075176905e-04 3.7781978232081783e-03 0.0000000000000000e+00  1.0120274560530419e-04 3.7985244764436677e-03 0.0000000000000000e+00  9.7147752155234861e-05 3.8185664928886407e-03 0.0000000000000000e+00  9.3390876707529895e-05 3.8380036633558143e-03 0.0000000000000000e+00  8.9943493053327037e-05 3.8567294983952076e-03 0.0000000000000000e+00  8.6690650495189992e-05 3.8748088002423546e-03 0.0000000000000000e+00  8.3536566295084415e-05 3.8924319666575409e-03 0.0000000000000000e+00  8.0447685637827300e-05 3.9098776458303076e-03 0.0000000000000000e+00  7.7469084329775869e-05 3.9271513801181794e-03 0.0000000000000000e+00  7.4578440472381337e-05 3.9443105356818083e-03 0.0000000000000000e+00  7.1757941716836629e-05 3.9617227250832348e-03 0.0000000000000000e+00  6.9085185421021683e-05 3.9790758705576896e-03 0.0000000000000000e+00  6.6520416859012878e-05 3.9973301726703558e-03 0.0000000000000000e+00  6.4319863437314233e-05 4.0152098854112301e-03 0.0000000000000000e+00  6.2283979091876991e-05 4.0347297352174615e-03 0.0000000000000000e+00  6.0974638639647753e-05 4.0541844679039801e-03 0.0000000000000000e+00  6.0927649479958118e-05 4.0781502820505851e-03 0.0000000000000000e+00  6.0949807118535156e-05 4.1024626415202556e-03 0.0000000000000000e+00  6.1028772899187867e-05 4.1270016449185907e-03 0.0000000000000000e+00  6.1162046099868221e-05 4.1517259796602108e-03 0.0000000000000000e+00  8.4085399305161573e-05 3.7846248626179119e-03 0.0000000000000000e+00  7.9790286549743277e-05 3.8050859977515582e-03 0.0000000000000000e+00  7.5805484208213493e-05 3.8249849565399848e-03 0.0000000000000000e+00  7.2137897909109848e-05 3.8443107577687320e-03 0.0000000000000000e+00  6.8722365029258201e-05 3.8630380540438441e-03 0.0000000000000000e+00  6.5476543358058465e-05 3.8812406211283573e-03 0.0000000000000000e+00  6.2332011773569613e-05 3.8990536714423986e-03 0.0000000000000000e+00  5.9261158932449403e-05 3.9166425807922447e-03 0.0000000000000000e+00  5.6273491596046763e-05 3.9340667978388887e-03 0.0000000000000000e+00  5.3357609475856967e-05 3.9514194224400416e-03 0.0000000000000000e+00  5.0510996358368893e-05 3.9688883902265649e-03 0.0000000000000000e+00  4.7766344791513235e-05 3.9864411898022645e-03 0.0000000000000000e+00  4.5123096874743587e-05 4.0044462914063505e-03 0.0000000000000000e+00  4.2681938883608046e-05 4.0225154935173450e-03 0.0000000000000000e+00  4.0370688010499614e-05 4.0413452051686590e-03 0.0000000000000000e+00  3.8401475405259430e-05 4.0601302495608307e-03 0.0000000000000000e+00  3.6483124492916209e-05 4.0781807908164226e-03 0.0000000000000000e+00  3.6496546773052884e-05 4.1025234069475723e-03 0.0000000000000000e+00  3.6546074148597505e-05 4.1270976266672768e-03 0.0000000000000000e+00  3.6635036291651532e-05 4.1518487070726718e-03 0.0000000000000000e+00  3.6761966619840488e-05 4.1767627213986202e-03 0.0000000000000000e+00  5.7440084510245114e-05 3.8117613160367691e-03 0.0000000000000000e+00  5.3727310970743306e-05 3.8315209200803376e-03 0.0000000000000000e+00  5.0221755850146259e-05 3.8507623681653448e-03 0.0000000000000000e+00  4.6894373223367524e-05 3.8694986681291456e-03 0.0000000000000000e+00  4.3696670873499131e-05 3.8877909969639961e-03 0.0000000000000000e+00  4.0587550623699959e-05 3.9057385405251500e-03 0.0000000000000000e+00  3.7546636414265819e-05 3.9234532679336791e-03 0.0000000000000000e+00  3.4571923371008728e-05 3.9410092181728770e-03 0.0000000000000000e+00  3.1657366053909595e-05 3.9584989177592934e-03 0.0000000000000000e+00  2.8805371675845523e-05 3.9760430781255645e-03 0.0000000000000000e+