<?xml version="1.0"?>
<VTKFile type="UnstructuredGrid"  version="0.1"  >
<UnstructuredGrid>
<Piece  NumberOfPoints="629" NumberOfCells="1162">
<Points>
<DataArray  type="Float64"  NumberOfComponents="3"  format="ascii">0.7104347826086956 0 0  0.7269565217391304 0 0  0.7269565217391304 0.01666666666666667 0  0.7104347826086956 0.01666666666666667 0  0.7434782608695653 0 0  0.7434782608695653 0.01666666666666667 0  0.7599999999999999 0 0  0.7599999999999999 0.01666666666666667 0  0.7765217391304348 0 0  0.7765217391304348 0.01666666666666667 0  0.7930434782608695 0 0  0.7930434782608695 0.01666666666666667 0  0.8095652173913043 0 0  0.8095652173913043 0.01666666666666667 0  0.8260869565217391 0 0  0.8260869565217391 0.01666666666666667 0  0.8426086956521739 0 0  0.8426086956521739 0.01666666666666667 0  0.8591304347826086 0 0  0.8591304347826086 0.01666666666666667 0  0.8756521739130434 0 0  0.8756521739130434 0.01666666666666667 0  0.8921739130434783 0 0  0.8921739130434783 0.01666666666666667 0  0.908695652173913 0 0  0.908695652173913 0.01666666666666667 0  0.9252173913043478 0 0  0.9252173913043478 0.01666666666666667 0  0.9417391304347826 0 0  0.9417391304347826 0.01666666666666667 0  0.9582608695652173 0 0  0.9582608695652173 0.01666666666666667 0  0.9747826086956521 0 0  0.9747826086956521 0.01666666666666667 0  0.991304347826087 0 0  0.991304347826087 0.01666666666666667 0  1.007826086956522 0 0  1.007826086956522 0.01666666666666667 0  1.024347826086957 0 0  1.024347826086957 0.01666666666666667 0  0.7269565217391304 0.03333333333333333 0  0.7104347826086956 0.03333333333333333 0  0.7434782608695653 0.03333333333333333 0  0.7599999999999999 0.03333333333333333 0  0.7765217391304348 0.03333333333333333 0  0.7930434782608695 0.03333333333333333 0  0.8095652173913043 0.03333333333333333 0  0.8260869565217391 0.03333333333333333 0  0.8426086956521739 0.03333333333333333 0  0.8591304347826086 0.03333333333333333 0  0.8756521739130434 0.03333333333333333 0  0.8921739130434783 0.03333333333333333 0  0.908695652173913 0.03333333333333333 0  0.9252173913043478 0.03333333333333333 0  0.9417391304347826 0.03333333333333333 0  0.9582608695652173 0.03333333333333333 0  0.9747826086956521 0.03333333333333333 0  0.991304347826087 0.03333333333333333 0  1.007826086956522 0.03333333333333333 0  1.024347826086957 0.03333333333333333 0  1.040869565217391 0.03333333333333333 0  0.7269565217391304 0.05 0  0.7434782608695653 0.05 0  0.7599999999999999 0.05 0  0.7765217391304348 0.05 0  0.7930434782608695 0.05 0  0.8095652173913043 0.05 0  0.8260869565217391 0.05 0  0.8426086956521739 0.05 0  0.8591304347826086 0.05 0  0.8756521739130434 0.05 0  0.8921739130434783 0.05 0  0.908695652173913 0.05 0  0.9252173913043478 0.05 0  0.9417391304347826 0.05 0  0.9582608695652173 0.05 0  0.9747826086956521 0.05 0  0.991304347826087 0.05 0  1.007826086956522 0.05 0  1.024347826086957 0.05 0  1.040869565217391 0.05 0  1.057391304347826 0.05 0  0.7434782608695653 0.06666666666666667 0  0.7599999999999999 0.06666666666666667 0  0.7765217391304348 0.06666666666666667 0  0.7930434782608695 0.06666666666666667 0  0.8095652173913043 0.06666666666666667 0  0.8260869565217391 0.06666666666666667 0  0.8426086956521739 0.06666666666666667 0  0.8591304347826086 0.06666666666666667 0  0.8756521739130434 0.06666666666666667 0  0.8921739130434783 0.06666666666666667 0  0.908695652173913 0.06666666666666667 0  0.9252173913043478 0.06666666666666667 0  0.9417391304347826 0.06666666666666667 0  0.9582608695652173 0.06666666666666667 0  0.9747826086956521 0.06666666666666667 0  0.991304347826087 0.06666666666666667 0  1.007826086956522 0.06666666666666667 0  1.024347826086957 0.06666666666666667 0  1.040869565217391 0.06666666666666667 0  1.057391304347826 0.06666666666666667 0  1.073913043478261 0.06666666666666667 0  0.7599999999999999 0.08333333333333333 0  0.7765217391304348 0.08333333333333333 0  0.7930434782608695 0.08333333333333333 0  0.8095652173913043 0.08333333333333333 0  0.8260869565217391 0.08333333333333333 0  0.8426086956521739 0.08333333333333333 0  0.8591304347826086 0.08333333333333333 0  0.8756521739130434 0.08333333333333333 0  0.8921739130434783 0.08333333333333333 0  0.908695652173913 0.08333333333333333 0  0.9252173913043478 0.08333333333333333 0  0.9417391304347826 0.08333333333333333 0  0.9582608695652173 0.08333333333333333 0  0.9747826086956521 0.08333333333333333 0  0.991304347826087 0.08333333333333333 0  1.007826086956522 0.08333333333333333 0  1.024347826086957 0.08333333333333333 0  1.040869565217391 0.08333333333333333 0  1.057391304347826 0.08333333333333333 0  1.073913043478261 0.08333333333333333 0  1.090434782608696 0.08333333333333333 0  0.7765217391304348 0.1 0  0.7930434782608695 0.1 0  0.8095652173913043 0.1 0  0.8260869565217391 0.1 0  0.8426086956521739 0.1 0  0.8591304347826086 0.1 0  0.8756521739130434 0.1 0  0.8921739130434783 0.1 0  0.908695652173913 0.1 0  0.9252173913043478 0.1 0  0.9417391304347826 0.1 0  0.9582608695652173 0.1 0  0.9747826086956521 0.1 0  0.991304347826087 0.1 0  1.007826086956522 0.1 0  1.024347826086957 0.1 0  1.040869565217391 0.1 0  1.057391304347826 0.1 0  1.073913043478261 0.1 0  1.090434782608696 0.1 0  1.10695652173913 0.1 0  0.7930434782608695 0.1166666666666667 0  0.8095652173913043 0.1166666666666667 0  0.8260869565217391 0.1166666666666667 0  0.8426086956521739 0.1166666666666667 0  0.8591304347826086 0.1166666666666667 0  0.8756521739130434 0.1166666666666667 0  0.8921739130434783 0.1166666666666667 0  0.908695652173913 0.1166666666666667 0  0.9252173913043478 0.1166666666666667 0  0.9417391304347826 0.1166666666666667 0  0.9582608695652173 0.1166666666666667 0  0.9747826086956521 0.1166666666666667 0  0.991304347826087 0.1166666666666667 0  1.007826086956522 0.1166666666666667 0  1.024347826086957 0.1166666666666667 0  1.040869565217391 0.1166666666666667 0  1.057391304347826 0.1166666666666667 0  1.073913043478261 0.1166666666666667 0  1.090434782608696 0.1166666666666667 0  1.10695652173913 0.1166666666666667 0  1.123478260869565 0.1166666666666667 0  0.8095652173913043 0.1333333333333333 0  0.8260869565217391 0.1333333333333333 0  0.8426086956521739 0.1333333333333333 0  0.8591304347826086 0.1333333333333333 0  0.8756521739130434 0.1333333333333333 0  0.8921739130434783 0.1333333333333333 0  0.908695652173913 0.1333333333333333 0  0.9252173913043478 0.1333333333333333 0  0.9417391304347826 0.1333333333333333 0  0.9582608695652173 0.1333333333333333 0  0.9747826086956521 0.1333333333333333 0  0.991304347826087 0.1333333333333333 0  1.007826086956522 0.1333333333333333 0  1.024347826086957 0.1333333333333333 0  1.040869565217391 0.1333333333333333 0  1.057391304347826 0.1333333333333333 0  1.073913043478261 0.1333333333333333 0  1.090434782608696 0.1333333333333333 0  1.10695652173913 0.1333333333333333 0  1.123478260869565 0.1333333333333333 0  1.14 0.1333333333333333 0  0.8260869565217391 0.15 0  0.8426086956521739 0.15 0  0.8591304347826086 0.15 0  0.8756521739130434 0.15 0  0.8921739130434783 0.15 0  0.908695652173913 0.15 0  0.9252173913043478 0.15 0  0.9417391304347826 0.15 0  0.9582608695652173 0.15 0  0.9747826086956521 0.15 0  0.991304347826087 0.15 0  1.007826086956522 0.15 0  1.024347826086957 0.15 0  1.040869565217391 0.15 0  1.057391304347826 0.15 0  1.073913043478261 0.15 0  1.090434782608696 0.15 0  1.10695652173913 0.15 0  1.123478260869565 0.15 0  1.14 0.15 0  1.156521739130435 0.15 0  0.8426086956521739 0.1666666666666667 0  0.8591304347826086 0.1666666666666667 0  0.8756521739130434 0.1666666666666667 0  0.8921739130434783 0.1666666666666667 0  0.908695652173913 0.1666666666666667 0  0.9252173913043478 0.1666666666666667 0  0.9417391304347826 0.1666666666666667 0  0.9582608695652173 0.1666666666666667 0  0.9747826086956521 0.1666666666666667 0  0.991304347826087 0.1666666666666667 0  1.007826086956522 0.1666666666666667 0  1.024347826086957 0.1666666666666667 0  1.040869565217391 0.1666666666666667 0  1.057391304347826 0.1666666666666667 0  1.073913043478261 0.1666666666666667 0  1.090434782608696 0.1666666666666667 0  1.10695652173913 0.1666666666666667 0  1.123478260869565 0.1666666666666667 0  1.14 0.1666666666666667 0  1.156521739130435 0.1666666666666667 0  1.17304347826087 0.1666666666666667 0  0.8591304347826086 0.1833333333333333 0  0.8756521739130434 0.1833333333333333 0  0.8921739130434783 0.1833333333333333 0  0.908695652173913 0.1833333333333333 0  0.9252173913043478 0.1833333333333333 0  0.9417391304347826 0.1833333333333333 0  0.9582608695652173 0.1833333333333333 0  0.9747826086956521 0.1833333333333333 0  0.991304347826087 0.1833333333333333 0  1.007826086956522 0.1833333333333333 0  1.024347826086957 0.1833333333333333 0  1.040869565217391 0.1833333333333333 0  1.057391304347826 0.1833333333333333 0  1.073913043478261 0.1833333333333333 0  1.090434782608696 0.1833333333333333 0  1.10695652173913 0.1833333333333333 0  1.123478260869565 0.1833333333333333 0  1.14 0.1833333333333333 0  1.156521739130435 0.1833333333333333 0  1.17304347826087 0.1833333333333333 0  1.189565217391304 0.1833333333333333 0  0.8756521739130434 0.2 0  0.8921739130434783 0.2 0  0.908695652173913 0.2 0  0.9252173913043478 0.2 0  0.9417391304347826 0.2 0  0.9582608695652173 0.2 0  0.9747826086956521 0.2 0  0.991304347826087 0.2 0  1.007826086956522 0.2 0  1.024347826086957 0.2 0  1.040869565217391 0.2 0  1.057391304347826 0.2 0  1.073913043478261 0.2 0  1.090434782608696 0.2 0  1.10695652173913 0.2 0  1.123478260869565 0.2 0  1.14 0.2 0  1.156521739130435 0.2 0  1.17304347826087 0.2 0  1.189565217391304 0.2 0  1.206086956521739 0.2 0  0.8921739130434783 0.2166666666666667 0  0.908695652173913 0.2166666666666667 0  0.9252173913043478 0.2166666666666667 0  0.9417391304347826 0.2166666666666667 0  0.9582608695652173 0.2166666666666667 0  0.9747826086956521 0.2166666666666667 0  0.991304347826087 0.2166666666666667 0  1.007826086956522 0.2166666666666667 0  1.02434782608
[...]
<PointData  Vectors="Displacement"> 
<DataArray  type="Float64"  Name="Displacement"  NumberOfComponents="3" format="ascii">1.3328086555496735e-04 1.3679120326125613e-03 0.0000000000000000e+00  1.3597555695116827e-04 1.3978504231776491e-03 0.0000000000000000e+00  1.0610499579819777e-04 1.3968315714274584e-03 0.0000000000000000e+00  1.0252212088407946e-04 1.3668951285736122e-03 0.0000000000000000e+00  1.3871482883199657e-04 1.4270070398988719e-03 0.0000000000000000e+00  1.0958256580314852e-04 1.4259843495908169e-03 0.0000000000000000e+00  1.4148310457932125e-04 1.4555169256573529e-03 0.0000000000000000e+00  1.1299544211665550e-04 1.4544962688468072e-03 0.0000000000000000e+00  1.4426627628609168e-04 1.4834331361554744e-03 0.0000000000000000e+00  1.1636840510770938e-04 1.4824169805828359e-03 0.0000000000000000e+00  1.4705795645142907e-04 1.5107928558955731e-03 0.0000000000000000e+00  1.1970594612602580e-04 1.5097812394578196e-03 0.0000000000000000e+00  1.4985651260073125e-04 1.5376336704320194e-03 0.0000000000000000e+00  1.2301009575081396e-04 1.5366256275852676e-03 0.0000000000000000e+00  1.5266228557944637e-04 1.5639921254147037e-03 0.0000000000000000e+00  1.2628524288540210e-04 1.5629865702414065e-03 0.0000000000000000e+00  1.5547592877504415e-04 1.5899012327832054e-03 0.0000000000000000e+00  1.2953658081240254e-04 1.5888977392892816e-03 0.0000000000000000e+00  1.5829767904193984e-04 1.6153909367247895e-03 0.0000000000000000e+00  1.3276673362208908e-04 1.6143896361055263e-03 0.0000000000000000e+00  1.6112759261346257e-04 1.6404904766901228e-03 0.0000000000000000e+00  1.3597557909651164e-04 1.6394912156205207e-03 0.0000000000000000e+00  1.6396597125323522e-04 1.6652290193223294e-03 0.0000000000000000e+00  1.3916373546396727e-04 1.6642312834316932e-03 0.0000000000000000e+00  1.6681332275121053e-04 1.6896345835758450e-03 0.0000000000000000e+00  1.4233342553916938e-04 1.6886378561383161e-03 0.0000000000000000e+00  1.6967013686421318e-04 1.7137333228489377e-03 0.0000000000000000e+00  1.4548713264015087e-04 1.7127372297266908e-03 0.0000000000000000e+00  1.7253679413856208e-04 1.7375496592562537e-03 0.0000000000000000e+00  1.4862680067630297e-04 1.7365539280681731e-03 0.0000000000000000e+00  1.7541359507967097e-04 1.7611066973110105e-03 0.0000000000000000e+00  1.5175387383196127e-04 1.7601110876673664e-03 0.0000000000000000e+00  1.7830082112221782e-04 1.7844265162605785e-03 0.0000000000000000e+00  1.5486958246729507e-04 1.7834307652575315e-03 0.0000000000000000e+00  1.8119878490731331e-04 1.8075302463229890e-03 0.0000000000000000e+00  1.5797521050773589e-04 1.8065340390976880e-03 0.0000000000000000e+00  1.8410785819159825e-04 1.8304379751989182e-03 0.0000000000000000e+00  1.6107225859026656e-04 1.8294409357754034e-03 0.0000000000000000e+00  1.8702847771743657e-04 1.8531685571122176e-03 0.0000000000000000e+00  1.6416250999555163e-04 1.8521702585720834e-03 0.0000000000000000e+00  7.6548882450674477e-05 1.3956279932627776e-03 0.0000000000000000e+00  7.1375209659281324e-05 1.3656565812342517e-03 0.0000000000000000e+00  8.0636973218147447e-05 1.4248126803077864e-03 0.0000000000000000e+00  8.4421272937798946e-05 1.4533353023088822e-03 0.0000000000000000e+00  8.8286325918231356e-05 1.4812735138002610e-03 0.0000000000000000e+00  9.2150999173890941e-05 1.5086531645841681e-03 0.0000000000000000e+00  9.5967635501545889e-05 1.5355108125208736e-03 0.0000000000000000e+00  9.9725371562130833e-05 1.5618828378487213e-03 0.0000000000000000e+00  1.0342707259052263e-04 1.5878030979069617e-03 0.0000000000000000e+00  1.0707702367492865e-04 1.6133031625053780e-03 0.0000000000000000e+00  1.1067675084162644e-04 1.6384128899597091e-03 0.0000000000000000e+00  1.1422724557828556e-04 1.6631607759370554e-03 0.0000000000000000e+00  1.1773138226425180e-04 1.6875743095697583e-03 0.0000000000000000e+00  1.2119316751157197e-04 1.7116797415736133e-03 0.0000000000000000e+00  1.2461624421992122e-04 1.7355018023753536e-03 0.0000000000000000e+00  1.2800346747050617e-04 1.7590638019930904e-03 0.0000000000000000e+00  1.3135720480537879e-04 1.7823878641144502e-03 0.0000000000000000e+00  1.3467977690518148e-04 1.8054950413696066e-03 0.0000000000000000e+00  1.3797377933453712e-04 1.8284052807685349e-03 0.0000000000000000e+00  1.4124224795406196e-04 1.8511372868267738e-03 0.0000000000000000e+00  1.4448867528647454e-04 1.8737083461427212e-03 0.0000000000000000e+00  5.3643922218725201e-05 1.3767926120095255e-03 0.0000000000000000e+00  5.9969316922583474e-05 1.4055479774217274e-03 0.0000000000000000e+00  6.6049249085631072e-05 1.4336918530444016e-03 0.0000000000000000e+00  7.1990226317481744e-05 1.4613227468396829e-03 0.0000000000000000e+00  7.7827442096989739e-05 1.4885479830418636e-03 0.0000000000000000e+00  8.3548811947749182e-05 1.5153989764504310e-03 0.0000000000000000e+00  8.9140529219455548e-05 1.5418937264235196e-03 0.0000000000000000e+00  9.4594619019994873e-05 1.5680495469629001e-03 0.0000000000000000e+00  9.9907891330926064e-05 1.5938842974305366e-03 0.0000000000000000e+00  1.0508035829464476e-04 1.6194160263983551e-03 0.0000000000000000e+00  1.1011454056879275e-04 1.6446625119261298e-03 0.0000000000000000e+00  1.1501512783849085e-04 1.6696416251419644e-03 0.0000000000000000e+00  1.1978829129033354e-04 1.6943717885923952e-03 0.0000000000000000e+00  1.2444068588214819e-04 1.7188718454191568e-03 0.0000000000000000e+00  1.2897863821546409e-04 1.7431606715539473e-03 0.0000000000000000e+00  1.3340774576610449e-04 1.7672568639631638e-03 0.0000000000000000e+00  1.3773278845524912e-04 1.7911784883309150e-03 0.0000000000000000e+00  1.4195779042259306e-04 1.8149428234283274e-03 0.0000000000000000e+00  1.4608612642995217e-04 1.8385660879837128e-03 0.0000000000000000e+00  1.5012062150835244e-04 1.8620631712483200e-03 0.0000000000000000e+00  1.5406362820088903e-04 1.8854473674275929e-03 0.0000000000000000e+00  4.0914754501473447e-05 1.3851576162675155e-03 0.0000000000000000e+00  4.8734874266866670e-05 1.4128644324271822e-03 0.0000000000000000e+00  5.6431444043127289e-05 1.4402393128581229e-03 0.0000000000000000e+00  6.3981923842519245e-05 1.4673502672785286e-03 0.0000000000000000e+00  7.1368360215673843e-05 1.4942296953093215e-03 0.0000000000000000e+00  7.8570045626633875e-05 1.5208863771326000e-03 0.0000000000000000e+00  8.5570367631223921e-05 1.5473226801730484e-03 0.0000000000000000e+00  9.2359384099812612e-05 1.5735406559775095e-03 0.0000000000000000e+00  9.8933605039459231e-05 1.5995437921091287e-03 0.0000000000000000e+00  1.0529475752045200e-04 1.6253374951482001e-03 0.0000000000000000e+00  1.1144825585821147e-04 1.6509295224508935e-03 0.0000000000000000e+00  1.1740172195182514e-04 1.6763302583948478e-03 0.0000000000000000e+00  1.2316367125177514e-04 1.7015524581075036e-03 0.0000000000000000e+00  1.2874243596468446e-04 1.7266105826711379e-03 0.0000000000000000e+00  1.3414541921132308e-04 1.7515200409928863e-03 0.0000000000000000e+00  1.3937869491298388e-04 1.7762964941365380e-03 0.0000000000000000e+00  1.4444687558822289e-04 1.8009552528570265e-03 0.0000000000000000e+00  1.4935314502018224e-04 1.8255107654937966e-03 0.0000000000000000e+00  1.5409936791172009e-04 1.8499761953598795e-03 0.0000000000000000e+00  1.5868621106712529e-04 1.8743630804079841e-03 0.0000000000000000e+00  1.6311322334107084e-04 1.8986810828030222e-03 0.0000000000000000e+00  3.2521195362794439e-05 1.3910773673302861e-03 0.0000000000000000e+00  4.1675994497187783e-05 1.4181648170125117e-03 0.0000000000000000e+00  5.0693843317210955e-05 1.4451726724575295e-03 0.0000000000000000e+00  5.9523707620444932e-05 1.4721073284497447e-03 0.0000000000000000e+00  6.8128213899415455e-05 1.4989607096998572e-03 0.0000000000000000e+00  7.6480394120373408e-05 1.5257175053879828e-03 0.0000000000000000e+00  8.4563634728042000e-05 1.5523617191510232e-03 0.0000000000000000e+00  9.2370786857229776e-05 1.5788802332248068e-03 0.0000000000000000e+00  9.9902272691661129e-05 1.6052645056882234e-03 0.0000000000000000e+00  1.0716375597165082e-04 1.6315113078467474e-03 0.0000000000000000e+00  1.1416390962209210e-04 1.6576227440805833e-03 0.0000000000000000e+00  1.2091255548001058e-04 1.6836055997501030e-03 0.0000000000000000e+00  1.2741924548888441e-04 1.7094702363233986e-03 0.0000000000000000e+00  1.3369228809261802e-04 1.7352293376309798e-03 0.0000000000000000e+00  1.3973818922191801e-04 1.7608967259781848e-03 0.0000000000000000e+00  1.4556143032782163e-04 1.7864863519340085e-03 0.0000000000000000e+00  1.5116447806547923e-04 1.8120114864910732e-03 0.0000000000000000e+00  1.5654792081507584e-04 1.8374841108012231e-03 0.0000000000000000e+00  1.6171064310975146e-04 1.8629144841540231e-03 0.0000000000000000e+00  1.6664996759771950e-04 1.8883108742210159e-03 0.0000000000000000e+00  1.7136171545773294e-04 1.9136794362040667e-03 0.0000000000000000e+00  2.7728871136895082e-05 1.3952068487824050e-03 0.0000000000000000e+00  3.8003341668689850e-05 1.4221103065552325e-03 0.0000000000000000e+00  4.8078060530436176e-05 1.4491215513072098e-03 0.0000000000000000e+00  5.7895885464980086e-05 1.4762049085813860e-03 0.0000000000000000e+00  6.7418342926792429e-05 1.5033212939663009e-03 0.0000000000000000e+00  7.6622518806579131e-05 1.5304330634887105e-03 0.0000000000000000e+00  8.5498389106971470e-05 1.5575081505582206e-03 0.0000000000000000e+00  9.4045750149741300e-05 1.5845225841973599e-03 0.0000000000000000e+00  1.0227095045979017e-04 1.6114614390962479e-03 0.0000000000000000e+00  1.1018389171597977e-04 1.6383184985448111e-03 0.0000000000000000e+00  1.1779560818190025e-04 1.6650949871340817e-03 0.0000000000000000e+00  1.2511651243922174e-04 1.6917977936910182e-03 0.0000000000000000e+00  1.3215526523572158e-04 1.7184375717285453e-03 0.0000000000000000e+00  1.3891817114045635e-04 1.7450269870208735e-03 0.0000000000000000e+00  1.4540897632176587e-04 1.7715792532961589e-03 0.0000000000000000e+00  1.5162893786245207e-04 1.7981070002186436e-03 0.0000000000000000e+00  1.5757704280973143e-04 1.8246214624143995e-03 0.0000000000000000e+00  1.6325027385758376e-04 1.8511319528711789e-03 0.0000000000000000e+00  1.6864384104066312e-04 1.8776455781812013e-03 0.0000000000000000e+00  1.7375132379506618e-04 1.9041671515509263e-03 0.0000000000000000e+00  1.7856469539160870e-04 1.9306992556980612e-03 0.0000000000000000e+00  2.5921044284456047e-05 1.3982299557478818e-03 0.0000000000000000e+00  3.7068304178432284e-05 1.4253441761408006e-03 0.0000000000000000e+00  4.7928026308620930e-05 1.4526949860210624e-03 0.0000000000000000e+00  5.8451909147069754e-05 1.4802133701723654e-03 0.0000000000000000e+00  6.8612374544233288e-05 1.5078356860273661e-03 0.0000000000000000e+00  7.8398296771045405e-05 1.5355082064037791e-03 0.0000000000000000e+00  8.7810470342990319e-05 1.5631901431968106e-03 0.0000000000000000e+00  9.6857165462237456e-05 1.5908545273001229e-03 0.0000000000000000e+00  1.0555027249359089e-04 1.6184872292269103e-03 0.0000000000000000e+00  1.1390234111237724e-04 1.6460847700447373e-03 0.0000000000000000e+00  1.2192456600738413e-04 1.6736515943978957e-03 0.0000000000000000e+00  1.2962560623060762e-04 1.7011973306906417e-03 0.0000000000000000e+00  1.3701105718200325e-04 1.7287343643469688e-03 0.0000000000000000e+00  1.4408338556852156e-04 1.7562758756564207e-03 0.0000000000000000e+00  1.5084215636672679e-04 1.7838343743616706e-03 0.0000000000000000e+00  1.5728440854156244e-04 1.8114206970134578e-03 0.0000000000000000e+00  1.6340506482049680e-04 1.8390434039863410e-03 0.0000000000000000e+00  1.6919728773600096e-04 1.8667085040300188e-03 0.0000000000000000e+00  1.7465271987739800e-04 1.8944194312572049e-03 0.0000000000000000e+00  1.7976157347579871e-04 1.9221771915626893e-03 0.0000000000000000e+00  1.8451256546349134e-04 1.9499805790510459e-03 0.0000000000000000e+00  2.6512810172391864e-05 1.4008288054915350e-03 0.0000000000000000e+00  3.8259766944138860e-05 1.4284953026630083e-03 0.0000000000000000e+00  4.9627867064500620e-05 1.4564659095988427e-03 0.0000000000000000e+00  6.0587968907949648e-05 1.4846465842460594e-03 0.0000000000000000e+00  7.1130722957503330e-05 1.5129591286749189e-03 0.0000000000000000e+00  8.1260442585716846e-05 1.5413448218332744e-03 0.0000000000000000e+00  9.0989249281268932e-05 1.5697648850172721e-03 0.0000000000000000e+00  1.0033225837737161e-04 1.5981983758760255e-03 0.0000000000000000e+00  1.0930412313740185e-04 1.6266386197773995e-03 0.0000000000000000e+00  1.1791689131913397e-04 1.6550891801440056e-03 0.0000000000000000e+00  1.2617893321978848e-04 1.6835600559193453e-03 0.0000000000000000e+00  1.3409464478320509e-04 1.7120644726408040e-03 0.0000000000000000e+00  1.4166465446943191e-04 1.7406163929586452e-03 0.0000000000000000e+00  1.4888631648534185e-04 1.7692287315740204e-03 0.0000000000000000e+00  1.5575432585630366e-04 1.7979121946048817e-03 0.0000000000000000e+00  1.6226133225278992e-04 1.8266746422983240e-03 0.0000000000000000e+00  1.6839846050943375e-04 1.8555208704427466e-03 0.0000000000000000e+00  1.7415566965316002e-04 1.8844527067265098e-03 0.0000000000000000e+00  1.7952190663916620e-04 1.9134693071097587e-03 0.0000000000000000e+00  1.8448504159513117e-04 1.9425675153670041e-03 0.0000000000000000e+00  1.8903160629378713e-04 1.9717421310060262e-03 0.0000000000000000e+00  2.8911156691530459e-05 1.4036607137900797e-03 0.0000000000000000e+00  4.0975824186591215e-05 1.4321457948020043e-03 0.0000000000000000e+00  5.2585497120522101e-05 1.4609402873166197e-03 0.0000000000000000e+00  6.3736536257896379e-05 1.4899387580490349e-03 0.0000000000000000e+00  7.4440175699271943e-05 1.5190639881122053e-03 0.0000000000000000e+00  8.4714926068872780e-05 1.5482665283224940e-03 0.0000000000000000e+00  9.4580703721008758e-05 1.5775207138241526e-03 0.0000000000000000e+00  1.0405498413664249e-04 1.6068190615523596e-03 0.0000000000000000e+00  1.1315073692961211e-04 1.6361664945667631e-03 0.0000000000000000e+00  1.2187568868194943e-04 1.6655752404729615e-03 0.0000000000000000e+00  1.3023245511531716e-04 1.6950607569722895e-03 0.0000000000000000e+00  1.3821917515672276e-04 1.7246387217276639e-03 0.0000000000000000e+00  1.4583038595329952e-04 1.7543229762700225e-03 0.0000000000000000e+00  1.5305796172203123e-04 1.7841242704199521e-03 0.0000000000000000e+00  1.5989199304497286e-04 1.8140496575060048e-03 0.0000000000000000e+00  1.6632151533231093e-04 1.8441024025657646e-03 0.0000000000000000e+00  1.7233501233958199e-04 1.8742822777773266e-03 0.0000000000000000e+00  1.7792063928538112e-04 1.9045861026016854e-03 0.0000000000000000e+00  1.8306614147786503e-04 1.9350083513360553e-03 0.0000000000000000e+00  1.8775848472929612e-04 1.9655416267663371e-03 0.0000000000000000e+00  1.9198325470106859e-04 1.9961767987744768e-03 0.0000000000000000e+00  3.2510666485142695e-05 1.4073174158372222e-03 0.0000000000000000e+00  4.4624621339319295e-05 1.4367911894998700e-03 0.0000000000000000e+00  5.6238926475456777e-05 1.4665257473541341e-03 0.0000000000000000e+00  6.7376052068770289e-05 1.4964257119003577e-03 0.0000000000000000e+00  7.8063974993922269e-05 1.5264334758090688e-03 0.0000000000000000e+00  8.8329169822966386e-05 1.5565221268349916e-03 0.0000000000000000e+00  9.8192591952647488e-05 1.5866869017473043e-03 0.0000000000000000e+00  1.0766802079732018e-04 1.6169371374720313e-03 0.0000000000000000e+00  1.1676197234756622e-04 1.6472896558121059e-03 0.0000000000000000e+00  1.2547450587212296e-04 1.6777638048182041e-03 0.0000000000000000e+00  1.3380045606369641e-04 1.7083780005749045e-03 0.0000000000000000e+00  1.4173080371313637e-04 1.7391474991675048e-03 0.0000000000000000e+00  1.4925401623761423e-04 1.7700831431552799e-03 0.0000000000000000e+00  1.5635724964748848e-04 1.8011908793018792e-03 0.0000000000000000e+00  1.6302732971733701e-04 1.8324718816335158e-03 0.0000000000000000e+00  1.6925143098137993e-04 1.8639231475898620e-03 0.0000000000000000e+00  1.7501738058924230e-04 1.8955384038922031e-03 0.0000000000000000e+00  1.8031354938466147e-04 1.9273090968743801e-03 0.0000000000000000e+00  1.8512834358687570e-04 1.9592252061995984e-03 0.0000000000000000e+00  1.8944936078776442e-04 1.9912756230818333e-03 0.0000000000000000e+00  1.9326230802957351e-04 2.0234478810748978e-03 0.0000000000000000e+00  3.6709745465553751e-05 1.4122765507570112e-03 0.0000000000000000e+00  4.8644530382672145e-05 1.4428017722483305e-03 0.0000000000000000e+00  6.0077376645540949e-05 1.4735100310246546e-03 0.0000000000000000e+00  7.1049295777032522e-05 1.5043401570922264e-03 0.0000000000000000e+00  8.1595056817966951e-05 1.5352693757248687e-03 0.0000000000000000e+00  9.1739449135687812e-05 1.5663006031526082e-03 0.0000000000000000e+00  1.0149655846215710e-04 1.5974515615116999e-03 0.0000000000000000e+00  1.1087076067344397e-04 1.6287465319288527e-03 0.0000000000000000e+00  1.1985849305973938e-04 1.6602106223625158e-03 0.0000000000000000e+00  1.2845025513661185e-04 1.6918660386471694e-03 0.0000000000000000e+00  1.3663257038081103e-04 1.7237298497187427e-03 0.0000000000000000e+00  1.4438978758053034e-04 1.7558128676638872e-03 0.0000000000000000e+00  1.5170565205668894e-04 1.7881193948862879e-03 0.0000000000000000e+00  1.5856458495943723e-04 1.8206476591067461e-03 0.0000000000000000e+00  1.6495257530551151e-04 1.8533908306480060e-03 0.0000000000000000e+00  1.7085758115359181e-04 1.8863384474231597e-03 0.0000000000000000e+00  1.7626938435646772e-04 1.9194779570076337e-03 0.0000000000000000e+00  1.8117891580713853e-04 1.9527960332202715e-03 0.0000000000000000e+00  1.8557713393546415e-04 1.9862793342908694e-03 0.0000000000000000e+00  1.8945356692232949e-04 2.0199144515470752e-03 0.0000000000000000e+00  1.9279462096223675e-04 2.0536868852771826e-03 0.0000000000000000e+00  4.0944273102148351e-05 1.4188541906291268e-03 0.0000000000000000e+00  5.2537261375722507e-05 1.4504003474061439e-03 0.0000000000000000e+00  6.3667992472463803e-05 1.4820617262380948e-03 0.0000000000000000e+00  7.4380931033882981e-05 1.5138276726273229e-03 0.0000000000000000e+00  8.4704414937057120e-05 1.5457154617246900e-03 0.0000000000000000e+00  9.4651688097169357e-05 1.5777561141801985e-03 0.0000000000000000e+00  1.0422354567611891e-04 1.6099846355649354e-03 0.0000000000000000e+00  1.1341138207881076e-04 1.6424338491212141e-03 0.0000000000000000e+00  1.2220009605591671e-04 1.6751307242626717e-03 0.0000000000000000e+00  1.3057069150407364e-04 1.7080943759665501e-03 0.0000000000000000e+00  1.3850256281085655e-04 1.7413352350889738e-03 0.0000000000000000e+00  1.4597546491850112e-04 1.7748551339306772e-03 0.0000000000000000e+00  1.5297114038613954e-04 1.8086481417076187e-03 0.0000000000000000e+00  1.5947447366097136e-04 1.8427021394568021e-03 0.0000000000000000e+00  1.6547401008977310e-04 1.8770009586435647e-03 0.0000000000000000e+00  1.7096175973139779e-04 1.9115266869422145e-03 0.0000000000000000e+00  1.7593232153414884e-04 1.9462616791750609e-03 0.0000000000000000e+00  1.8038145832775234e-04 1.9811898422297382e-03 0.0000000000000000e+00  1.8430426409623104e-04 2.0162969242401439e-03 0.0000000000000000e+00  1.8769299617335080e-04 2.0515696816086303e-03 0.0000000000000000e+00  1.9053458780695089e-04 2.0869937753096044e-03 0.0000000000000000e+00  4.4733490608037350e-05 1.4271847848980994e-03 0.0000000000000000e+00  5.5902636758762310e-05 1.4596740360036603e-03 0.0000000000000000e+00  6.6676227671292419e-05 1.4922598459527715e-03 0.0000000000000000e+00  7.7084719005760769e-05 1.5249824421571970e-03 0.0000000000000000e+00  8.7138415810500823e-05 1.5578918543647166e-03 0.0000000000000000e+00  9.6832459592104388e-05 1.5910372267964937e-03 0.0000000000000000e+00  1.0615141912479984e-04 1.6244609184627534e-03 0.0000000000000000e+00  1.1507313372306345e-04 1.6581954104435139e-03 0.0000000000000000e+00  1.2357190873582959e-04 1.6922618473772682e-03 0.0000000000000000e+00  1.3162125090874732e-04 1.7266696513129152e-03 0.0000000000000000e+00  1.3919624643346731e-04 1.7614170281204154e-03 0.0000000000000000e+00  1.4627560339744168e-04 1.7964922506415826e-03 0.0000000000000000e+00  1.5284314241106019e-04 1.8318759454358071e-03 0.0000000000000000e+