<?xml version="1.0"?>
<VTKFile type="UnstructuredGrid"  version="0.1"  >
<UnstructuredGrid>
<Piece  NumberOfPoints="640" NumberOfCells="1181">
<Points>
<DataArray  type="Float64"  NumberOfComponents="3"  format="ascii">2.973913043478261 0 0  2.990434782608696 0 0  2.990434782608696 0.01666666666666667 0  2.973913043478261 0.01666666666666667 0  3.006956521739131 0 0  3.006956521739131 0.01666666666666667 0  3.023478260869565 0 0  3.023478260869565 0.01666666666666667 0  3.04 0 0  3.04 0.01666666666666667 0  3.056521739130435 0 0  3.056521739130435 0.01666666666666667 0  3.073043478260869 0 0  3.073043478260869 0.01666666666666667 0  3.089565217391304 0 0  3.089565217391304 0.01666666666666667 0  3.106086956521739 0 0  3.106086956521739 0.01666666666666667 0  3.122608695652174 0 0  3.122608695652174 0.01666666666666667 0  3.139130434782609 0 0  3.139130434782609 0.01666666666666667 0  3.155652173913043 0 0  3.155652173913043 0.01666666666666667 0  3.172173913043478 0 0  3.172173913043478 0.01666666666666667 0  3.188695652173913 0 0  3.188695652173913 0.01666666666666667 0  3.205217391304347 0 0  3.205217391304347 0.01666666666666667 0  3.221739130434782 0 0  3.221739130434782 0.01666666666666667 0  3.238260869565217 0 0  3.238260869565217 0.01666666666666667 0  2.990434782608696 0.03333333333333333 0  2.973913043478261 0.03333333333333333 0  3.006956521739131 0.03333333333333333 0  3.023478260869565 0.03333333333333333 0  3.04 0.03333333333333333 0  3.056521739130435 0.03333333333333333 0  3.073043478260869 0.03333333333333333 0  3.089565217391304 0.03333333333333333 0  3.106086956521739 0.03333333333333333 0  3.122608695652174 0.03333333333333333 0  3.139130434782609 0.03333333333333333 0  3.155652173913043 0.03333333333333333 0  3.172173913043478 0.03333333333333333 0  3.188695652173913 0.03333333333333333 0  3.205217391304347 0.03333333333333333 0  3.221739130434782 0.03333333333333333 0  3.238260869565217 0.03333333333333333 0  3.254782608695652 0.03333333333333333 0  2.990434782608696 0.05 0  3.006956521739131 0.05 0  3.023478260869565 0.05 0  3.04 0.05 0  3.056521739130435 0.05 0  3.073043478260869 0.05 0  3.089565217391304 0.05 0  3.106086956521739 0.05 0  3.122608695652174 0.05 0  3.139130434782609 0.05 0  3.155652173913043 0.05 0  3.172173913043478 0.05 0  3.188695652173913 0.05 0  3.205217391304347 0.05 0  3.221739130434782 0.05 0  3.238260869565217 0.05 0  3.254782608695652 0.05 0  3.271304347826087 0.05 0  3.006956521739131 0.06666666666666667 0  2.990434782608696 0.06666666666666667 0  3.023478260869565 0.06666666666666667 0  3.04 0.06666666666666667 0  3.056521739130435 0.06666666666666667 0  3.073043478260869 0.06666666666666667 0  3.089565217391304 0.06666666666666667 0  3.106086956521739 0.06666666666666667 0  3.122608695652174 0.06666666666666667 0  3.139130434782609 0.06666666666666667 0  3.155652173913043 0.06666666666666667 0  3.172173913043478 0.06666666666666667 0  3.188695652173913 0.06666666666666667 0  3.205217391304347 0.06666666666666667 0  3.221739130434782 0.06666666666666667 0  3.238260869565217 0.06666666666666667 0  3.254782608695652 0.06666666666666667 0  3.271304347826087 0.06666666666666667 0  3.287826086956521 0.06666666666666667 0  3.006956521739131 0.08333333333333333 0  3.023478260869565 0.08333333333333333 0  3.04 0.08333333333333333 0  3.056521739130435 0.08333333333333333 0  3.073043478260869 0.08333333333333333 0  3.089565217391304 0.08333333333333333 0  3.106086956521739 0.08333333333333333 0  3.122608695652174 0.08333333333333333 0  3.139130434782609 0.08333333333333333 0  3.155652173913043 0.08333333333333333 0  3.172173913043478 0.08333333333333333 0  3.188695652173913 0.08333333333333333 0  3.205217391304347 0.08333333333333333 0  3.221739130434782 0.08333333333333333 0  3.238260869565217 0.08333333333333333 0  3.254782608695652 0.08333333333333333 0  3.271304347826087 0.08333333333333333 0  3.287826086956521 0.08333333333333333 0  3.304347826086957 0.08333333333333333 0  3.023478260869565 0.1 0  3.006956521739131 0.1 0  3.04 0.1 0  3.056521739130435 0.1 0  3.073043478260869 0.1 0  3.089565217391304 0.1 0  3.106086956521739 0.1 0  3.122608695652174 0.1 0  3.139130434782609 0.1 0  3.155652173913043 0.1 0  3.172173913043478 0.1 0  3.188695652173913 0.1 0  3.205217391304347 0.1 0  3.221739130434782 0.1 0  3.238260869565217 0.1 0  3.254782608695652 0.1 0  3.271304347826087 0.1 0  3.287826086956521 0.1 0  3.304347826086957 0.1 0  3.320869565217391 0.1 0  3.023478260869565 0.1166666666666667 0  3.04 0.1166666666666667 0  3.056521739130435 0.1166666666666667 0  3.073043478260869 0.1166666666666667 0  3.089565217391304 0.1166666666666667 0  3.106086956521739 0.1166666666666667 0  3.122608695652174 0.1166666666666667 0  3.139130434782609 0.1166666666666667 0  3.155652173913043 0.1166666666666667 0  3.172173913043478 0.1166666666666667 0  3.188695652173913 0.1166666666666667 0  3.205217391304347 0.1166666666666667 0  3.221739130434782 0.1166666666666667 0  3.238260869565217 0.1166666666666667 0  3.254782608695652 0.1166666666666667 0  3.271304347826087 0.1166666666666667 0  3.287826086956521 0.1166666666666667 0  3.304347826086957 0.1166666666666667 0  3.320869565217391 0.1166666666666667 0  3.337391304347826 0.1166666666666667 0  3.04 0.1333333333333333 0  3.023478260869565 0.1333333333333333 0  3.056521739130435 0.1333333333333333 0  3.073043478260869 0.1333333333333333 0  3.089565217391304 0.1333333333333333 0  3.106086956521739 0.1333333333333333 0  3.122608695652174 0.1333333333333333 0  3.139130434782609 0.1333333333333333 0  3.155652173913043 0.1333333333333333 0  3.172173913043478 0.1333333333333333 0  3.188695652173913 0.1333333333333333 0  3.205217391304347 0.1333333333333333 0  3.221739130434782 0.1333333333333333 0  3.238260869565217 0.1333333333333333 0  3.254782608695652 0.1333333333333333 0  3.271304347826087 0.1333333333333333 0  3.287826086956521 0.1333333333333333 0  3.304347826086957 0.1333333333333333 0  3.320869565217391 0.1333333333333333 0  3.337391304347826 0.1333333333333333 0  3.353913043478261 0.1333333333333333 0  3.04 0.15 0  3.056521739130435 0.15 0  3.073043478260869 0.15 0  3.089565217391304 0.15 0  3.106086956521739 0.15 0  3.122608695652174 0.15 0  3.139130434782609 0.15 0  3.155652173913043 0.15 0  3.172173913043478 0.15 0  3.188695652173913 0.15 0  3.205217391304347 0.15 0  3.221739130434782 0.15 0  3.238260869565217 0.15 0  3.254782608695652 0.15 0  3.271304347826087 0.15 0  3.287826086956521 0.15 0  3.304347826086957 0.15 0  3.320869565217391 0.15 0  3.337391304347826 0.15 0  3.353913043478261 0.15 0  3.370434782608696 0.15 0  3.056521739130435 0.1666666666666667 0  3.073043478260869 0.1666666666666667 0  3.089565217391304 0.1666666666666667 0  3.106086956521739 0.1666666666666667 0  3.122608695652174 0.1666666666666667 0  3.139130434782609 0.1666666666666667 0  3.155652173913043 0.1666666666666667 0  3.172173913043478 0.1666666666666667 0  3.188695652173913 0.1666666666666667 0  3.205217391304347 0.1666666666666667 0  3.221739130434782 0.1666666666666667 0  3.238260869565217 0.1666666666666667 0  3.254782608695652 0.1666666666666667 0  3.271304347826087 0.1666666666666667 0  3.287826086956521 0.1666666666666667 0  3.304347826086957 0.1666666666666667 0  3.320869565217391 0.1666666666666667 0  3.337391304347826 0.1666666666666667 0  3.353913043478261 0.1666666666666667 0  3.370434782608696 0.1666666666666667 0  3.386956521739131 0.1666666666666667 0  3.073043478260869 0.1833333333333333 0  3.089565217391304 0.1833333333333333 0  3.106086956521739 0.1833333333333333 0  3.122608695652174 0.1833333333333333 0  3.139130434782609 0.1833333333333333 0  3.155652173913043 0.1833333333333333 0  3.172173913043478 0.1833333333333333 0  3.188695652173913 0.1833333333333333 0  3.205217391304347 0.1833333333333333 0  3.221739130434782 0.1833333333333333 0  3.238260869565217 0.1833333333333333 0  3.254782608695652 0.1833333333333333 0  3.271304347826087 0.1833333333333333 0  3.287826086956521 0.1833333333333333 0  3.304347826086957 0.1833333333333333 0  3.320869565217391 0.1833333333333333 0  3.337391304347826 0.1833333333333333 0  3.353913043478261 0.1833333333333333 0  3.370434782608696 0.1833333333333333 0  3.386956521739131 0.1833333333333333 0  3.403478260869565 0.1833333333333333 0  3.089565217391304 0.2 0  3.106086956521739 0.2 0  3.122608695652174 0.2 0  3.139130434782609 0.2 0  3.155652173913043 0.2 0  3.172173913043478 0.2 0  3.188695652173913 0.2 0  3.205217391304347 0.2 0  3.221739130434782 0.2 0  3.238260869565217 0.2 0  3.254782608695652 0.2 0  3.271304347826087 0.2 0  3.287826086956521 0.2 0  3.304347826086957 0.2 0  3.320869565217391 0.2 0  3.337391304347826 0.2 0  3.353913043478261 0.2 0  3.370434782608696 0.2 0  3.386956521739131 0.2 0  3.403478260869565 0.2 0  3.419999999999999 0.2 0  3.106086956521739 0.2166666666666667 0  3.122608695652174 0.2166666666666667 0  3.139130434782609 0.2166666666666667 0  3.155652173913043 0.2166666666666667 0  3.172173913043478 0.2166666666666667 0  3.188695652173913 0.2166666666666667 0  3.205217391304347 0.2166666666666667 0  3.221739130434782 0.2166666666666667 0  3.238260869565217 0.2166666666666667 0  3.254782608695652 0.2166666666666667 0  3.271304347826087 0.2166666666666667 0  3.287826086956521 0.2166666666666667 0  3.304347826086957 0.2166666666666667 0  3.320869565217391 0.2166666666666667 0  3.337391304347826 0.2166666666666667 0  3.353913043478261 0.2166666666666667 0  3.370434782608696 0.2166666666666667 0  3.386956521739131 0.2166666666666667 0  3.403478260869565 0.2166666666666667 0  3.419999999999999 0.2166666666666667 0  3.436521739130435 0.2166666666666667 0  3.122608695652174 0.2333333333333333 0  3.139130434782609 0.2333333333333333 0  3.155652173913043 0.2333333333333333 0  3.172173913043478 0.2333333333333333 0  3.188695652173913 0.2333333333333333 0  3.205217391304347 0.2333333333333333 0  3.221739130434782 0.2333333333333333 0  3.238260869565217 0.2333333333333333 0  3.254782
[...]
<CellData  Scalars="sigma_m"> 
<DataArray  type="Float64"  Name="sigma_m"  format="ascii">3.3770264689132469e+06   8.8106141744976602e+06   3.3729356854395387e+06   9.0857806018825471e+06   3.2437509749581004e+06   9.3143138486291151e+06   3.0095420471033454e+06   9.2907676093800087e+06   2.1914981738315462e+06   8.9175281668479964e+06   1.1753440399580286e+06   5.8332184136159206e+06   2.0495716820599674e+06   4.1243695199580207e+06   2.5973742781144823e+06   3.2938598041250021e+06   2.1173218794228523e+06   2.8004521259689182e+06   1.2903966937837449e+06   1.7493059760264070e+06   2.1471568089895449e+04   4.4324032023485500e+05   1.4834555760127809e-06   2.9761327964045784e-03   0.0000000000000000e+00   0.0000000000000000e+00   0.0000000000000000e+00   0.0000000000000000e+00   0.0000000000000000e+00   0.0000000000000000e+00   0.0000000000000000e+00   0.0000000000000000e+00   7.9472348917299397e+06   1.0688539088948900e+07   8.1662371377257379e+06   1.1118186101202354e+07   8.3718176290199077e+06   1.1950225411274455e+07   8.4982290615778267e+06   1.2398380449341387e+07   8.4662329951066468e+06   1.2721731972500460e+07   6.0231793626944227e+06   1.0851445604805183e+07   4.0245360545814335e+06   3.8841052471567108e+06   3.6411553819009401e+06   2.8140311340773162e+06   3.3789448671979546e+06   4.0545954057721798e+06   3.5674937034895793e+06   4.6719509163417118e+06   2.1927712867243383e+06   8.0588578617542861e+06   5.9417591093431071e-03   7.8938114767830393e+02   0.0000000000000000e+00   2.2455503621809231e-05   0.0000000000000000e+00   0.0000000000000000e+00   0.0000000000000000e+00   0.0000000000000000e+00   0.0000000000000000e+00   0.0000000000000000e+00   0.0000000000000000e+00   4.5539520773336083e-03   2.3077609567158062e-03   6.5328602825742685e-07   2.5424424547543620e-03   7.4614755804041478e-07   1.4922345111657411e-02   3.0415900915070140e-06   1.3723024318671395e+00   1.0600577791971897e-04   3.4915216840677249e+03   7.9257683091950110e-02   2.8157554865122470e+06   2.3632033492361738e+03   3.3375978564367327e+06   3.9026035144426383e+05   3.2880205748607796e+06   3.6061832585103372e+06   3.3473410585260619e+06   4.2812311375374226e+06   6.1603186970821470e+06   6.7768774206550010e+06   2.2483277056296659e+06   1.1741896731394297e+07   1.0574652634057626e+01   2.3076462665470340e+06   2.4272024692055198e-05   1.3415001388265798e+01   0.0000000000000000e+00   5.9048682992026258e-05   0.0000000000000000e+00   0.0000000000000000e+00   0.0000000000000000e+00   0.0000000000000000e+00   0.0000000000000000e+00   0.0000000000000000e+00   0.0000000000000000e+00   0.0000000000000000e+00   0.0000000000000000e+00   0.0000000000000000e+00   0.0000000000000000e+00   0.0000000000000000e+00   0.0000000000000000e+00   6.9117242166436720e-08   0.0000000000000000e+00   4.2273459164775096e-01   2.6237364125745116e-05   4.0602564849761147e+06   1.8679809048569623e+04   2.7814613265159675e+06   4.6092869677037178e+06   2.6885915922864922e+06   1.8819587342242957e+06   3.7685136464995397e+06   2.5990321930723600e+06   6.8952458235883620e+06   5.6285036090579750e+06   1.1996279973515945e+07   9.6331794350111596e+06   1.3888953580519821e+07   1.2566187447014820e+07   2.7784836810544319e+04   9.6201591555419508e+06   2.2539868533765842e-01   2.8536116712180193e+05   1.3432225759839101e-07   1.5840824481961748e+00   0.0000000000000000e+00   3.3256079942223517e-07   0.0000000000000000e+00   0.0000000000000000e+00   0.0000000000000000e+00   0.0000000000000000e+00   0.0000000000000000e+00   0.0000000000000000e+00   0.0000000000000000e+00   0.0000000000000000e+00   0.0000000000000000e+00   0.0000000000000000e+00   5.9640176012440036e-04   1.2876808444747307e-05   6.2305382823422551e+05   2.3601293194351758e+04   2.8548458913848805e+06   3.1407310081776916e+06   3.1576752565428903e+06   1.9760461739874280e+06   3.2390150299259224e+06   1.4047874825208180e+06   3.6888599531023144e+06   1.6920971649363660e+06   5.7007992418770213e+06   3.1957676555663696e+06   8.4844055193239991e+06   5.7992786680323835e+06   8.7949164905578047e+06   7.3943401666787174e+06   9.9275939113478344e+06   9.1895970670700353e+06   7.6756083556445362e+06   1.1326033897498297e+07   3.7833737058720082e+01   6.8824685030093826e+06   5.6241033549200546e-07   4.5192293443671488e+01   3.9613816323121152e-07   0.0000000000000000e+00   0.0000000000000000e+00   0.0000000000000000e+00   0.0000000000000000e+00   0.0000000000000000e+00   0.0000000000000000e+00   2.8647787106147742e-09   7.5990171358765085e-10   3.5736010054056324e+00   7.2185722534398900e-01   1.4831231351442500e+06   2.4642843806723305e+06   1.1756887989348965e+06   1.7930150907662173e+06   2.3771604849508991e+06   2.4512023703611232e+06   3.3642442165754884e+06   5.2684876840338521e+06   3.5886516533442019e+06   7.0216962493278719e+06   3.2480195973907369e+06   7.9189556992517877e+06   2.1963066877306397e+06   6.6038209164804230e+06   3.0397770296622231e+06   5.0298440403958242e+06   4.9002392236845884e+06   4.2925250983079104e+06   7.0446018124079984e+06   5.7615410235202098e+06   6.9202749861250445e+06   6.7071983627576428e+06   4.7615194140576962e+06   8.2488881648368547e+06   4.8214008318954837e+00   6.4403428941440098e+06   1.5191321184399136e+00   0.0000000000000000e+00   0.0000000000000000e+00   0.0000000000000000e+00   0.0000000000000000e+00   0.0000000000000000e+00   5.7300475223617066e-02   5.3499983715745006e-02   2.2491679775696592e+06   3.2282671120824493e+06   3.0253923929801388e+06   3.8635107790814671e+06   1.5878706890032904e+06   2.3910013153451779e+06   2.7458553037674474e+06   2.5620068601128985e+06   5.4287828297827551e+06   6.2957561147385109e+06   6.5011286536537437e+06   1.2627202957034059e+07   7.6042152493452132e+06   1.2380189119971907e+07   8.2184933199853441e+06   1.5872621480806001e+07   5.6777696381703643e+06   9.1237942140156906e+06   3.1415617408555085e+06   5.4368411649801238e+06   1.3144585046174899e+06   4.1198396501248442e+06   2.8075156555140107e+06   3.4881149206789620e+06   4.5372515786630558e+06   4.6148025065873284e+06   7.2733241253822893e+06   7.3039914500851249e+06   5.5090397057043493e+05   8.5475083708393164e+06   1.2835913919745124e+05   0.0000000000000000e+00   0.0000000000000000e+00   1.0073155946210596e-01   2.1929022228315415e-01   4.0591001476090094e+06   3.6101169064001483e+06   5.4667862854244513e+06   5.6853723260688568e+06   3.0029693976709498e+06   3.3595219872894622e+06   1.9750825007463298e+06   1.5696624835840287e+06   2.2865639211452184e+06   1.5232626746123026e+06   2.5175697379263212e+04   2.1049419070263875e+03   9.7600493794317766e-01   4.3074082305157579e-03   1.1627898014745826e-01   2.1188619225450644e-05   3.1216079354192875e+01   1.8585425594751787e-04   2.6171412448222440e+05   3.5769994858596182e-01   6.4019300884911995e+06   1.6366293772763054e+04   6.0652450144457305e+06   7.5235277297472591e+06   3.2620297863431885e+06   4.5148006106013451e+06   1.5926129226713313e+06   2.7038988214401058e+06   2.7411393377659791e+06   3.1393920227164133e+06   4.8099445655431962e+06   4.9170496804541377e+06   4.9941105387988770e+06   6.2168462089795852e+06   6.7211375315463878e+06   3.0384076017021386e+00   4.6230509330310123e+06   4.2388620309691457e+06   5.0134606278099343e+06   4.8023520406291280e+06   3.6232341175539591e+06   2.8868571712561119e+06   1.3916217098495660e+06   8.1607934173045924e+05   1.0804535112618646e+06   6.5876000883655867e+05   8.6486288749461437e+02   1.4265049294303640e+03   5.2596677158125823e-07   1.7335305550920155e-07   0.0000000000000000e+00   0.0000000000000000e+00   0.0000000000000000e+00   0.0000000000000000e+00   0.0000000000000000e+00   0.0000000000000000e+00   0.0000000000000000e+00   0.0000000000000000e+00   1.7806604583323497e-05   0.0000000000000000e+00   3.4269608236246398e+01   2.9855760611068758e-06   3.2515288022483378e+06   1.6680358139025948e+01   5.4469797348036524e+06   2.6130085370120360e+06   2.5634279253356741e+06   3.2716227078275522e+06   1.0898851205830257e+06   1.8964163653139528e+06   2.9900902790266480e+06   3.1458235754942889e+06   5.1406786015437376e+06   5.3840367795155877e+06   6.2988418365763025e+06   4.2536847412189739e+06   2.9744287858002409e+06   2.3020997978471722e+06   1.1909478011936222e+06   5.2993608432642010e+05   1.4952771406057179e+06   1.4773270614685565e+06   1.1503357116127129e+05   3.3053840049910609e+05   1.0824201188874920e-06   2.5848190629888819e-06   0.0000000000000000e+00   0.0000000000000000e+00   0.0000000000000000e+00   0.0000000000000000e+00   0.0000000000000000e+00   0.0000000000000000e+00   0.0000000000000000e+00   0.0000000000000000e+00   0.0000000000000000e+00   0.0000000000000000e+00   0.0000000000000000e+00   0.0000000000000000e+00   0.0000000000000000e+00   0.0000000000000000e+00   1.7456172789755660e-07   0.0000000000000000e+00   8.8346361920884586e+00   1.8497096946405816e-07   3.5210379418379972e+06   2.3415076445075666e+01   2.8407648739339211e+06   1.6426844303232643e+06   1.1238916184868473e+06   1.2745668274127489e+06   2.0892538226328660e+06   2.4963270265486198e+06   3.6207196728790486e+06   3.7514608069547354e+06   4.2783360150097916e+06   8.6576978594982123e+05   1.4644998045343657e+06   1.5379470513889019e+06   1.2512846649492225e+06   7.1069997424611298e+05   2.1616362069681337e-04   7.4467723762920886e-04   0.0000000000000000e+00   0.0000000000000000e+00   0.0000000000000000e+00   0.0000000000000000e+00   0.0000000000000000e+00   0.0000000000000000e+00   0.0000000000000000e+00   0.0000000000000000e+00   0.0000000000000000e+00   0.0000000000000000e+00   0.0000000000000000e+00   0.0000000000000000e+00   0.0000000000000000e+00   0.0000000000000000e+00   0.0000000000000000e+00   0.0000000000000000e+00   0.0000000000000000e+00   0.0000000000000000e+00   0.0000000000000000e+00   0.0000000000000000e+00   3.5021547951143890e-06   0.0000000000000000e+00   1.5184906847374632e+03   2.0349207520271354e-05   3.2602263796076430e+06   1.7321188193434060e+04   9.9479487597337959e+05   8.0419482105809462e+05   1.3472740706141295e+06   1.6109989366308465e+06   2.6123122601189017e+06   2.7848442821810232e+06   3.9712137050217292e+06   5.0957557539725472e+05   4.2402872485423730e-03   2.2285784669643731e-03   0.0000000000000000e+00   0.0000000000000000e+00   0.0000000000000000e+00   0.0000000000000000e+00   0.0000000000000000e+00   0.0000000000000000e+00   0.0000000000000000e+00   0.0000000000000000e+00   0.0000000000000000e+00   0.0000000000000000e+00   0.0000000000000000e+00   0.0000000000000000e+00   0.0000000000000000e+00   0.0000000000000000e+00   0.0000000000000000e+00   0.0000000000000000e+00   0.0000000000000000e+00   0.0000000000000000e+00   0.0000000000000000e+00   0.0000000000000000e+00   0.0000000000000000e+00   0.0000000000000000e+00   0.0000000000000000e+00   0.0000000000000000e+00   0.0000000000000000e+00   0.0000000000000000e+00   6.6724132648018256e-02   0.0000000000000000e+00   7.5272091186196450e+05   1.5821580174522136e+00   6.1103902356429922e+05   2.2304375481883172e+05   1.0818172900082138e+06   1.1879427218488583e+06   2.3758254465116337e+06   2.5445191735682995e+06   3.6951076123306095e+06   0.0000000000000000e+00   0.0000000000000000e+00   0.0000000000000000e+00   0.0000000000000000e+00   0.0000000000000000e+00   0.0000000000000000e+00   0.0000000000000000e+00   0.0000000000000000e+00   0.0000000000000000e+00   0.0000000000000000e+00   0.0000000000000000e+00   0.0000000000000000e+00   0.0000000000000000e+00   0.0000000000000000e+00   0.0000000000000000e+00   0.0000000000000000e+00   0.0000000000000000e+00   0.0000000000000000e+00   0.0000000000000000e+00   0.0000000000000000e+00   0.0000000000000000e+00   0.0000000000000000e+00   0.0000000000000000e+00   0.0000000000000000e+00   0.0000000000000000e+00   0.0000000000000000e+00   0.0000000000000000e+00   0.0000000000000000e+00   0.0000000000000000e+00   8.2896789827630935e-06   0.0000000000000000e+00   2.7948133781576391e+04   2.7980075734231492e-04   7.0030242986561928e+05   9.3124337405389629e+05   1.1156216018205113e+06   1.1306716374607680e+06   2.1378423073193906e+06   2.2449607920515789e+06   2.4559977063488774e+06   0.0000000000000000e+00   0.0000000000000000e+00   0.0000000000000000e+00   0.0000000000000000e+00   0.0000000000000000e+00   0.0000000000000000e+00   0.0000000000000000e+00   0.0000000000000000e+00   0.0000000000000000e+00   0.0000000000000000e+00   0.0000000000000000e+00   0.0000000000000000e+00   0.0000000000000000e+00   0.0000000000000000e+00   0.0000000000000000e+00   0.0000000000000000e+00   0.0000000000000000e+00   0.0000000000000000e+00   0.0000000000000000e+00   0.0000000000000000e+00   0.0000000000000000e+00   0.0000000000000000e+00   0.0000000000000000e+00   0.0000000000000000e+00   0.0000000000000000e+00   0.0000000000000000e+00   0.0000000000000000e+00   0.0000000000000000e+00   0.0000000000000000e+00   2.4659396366492952e-09   0.0000000000000000e+00   5.5676279930487354e+01   9.3358608341480039e-08   4.0979274699514318e+05   2.9639866634676696e+03   1.5668333621911437e+06   1.4453349292219107e+06   2.0389797142947894e+06   2.0424617737173794e+06   1.9863657261172128e+06   0.0000000000000000e+00   0.0000000000000000e+00   0.0000000000000000e+00   0.0000000000000000e+00   0.0000000000000000e+00   0.0000000000000000e+00   0.0000000000000000e+00   0.0000000000000000e+00   0.0000000000000000e+00   0.0000000000000000e+00   0.0000000000000000e+00   0.0000000000000000e+00   0.0000000000000000e+00   0.0000000000000000e+00   0.0000000000000000e+00   0.0000000000000000e+00   0.0000000000000000e+00   0.0000000000000000e+00   0.0000000000000000e+00   0.0000000000000000e+00   0.0000000000000000e+00   0.0000000000000000e+00   0.0000000000000000e+00   0.0000000000000000e+00   0.0000000000000000e+00   0.0000000000000000e+00   0.0000000000000000e+00   0.0000000000000000e+00   0.0000000000000000e+00   0.0000000000000000e+00   0.0000000000000000e+00   1.1381619259900494e-01   0.0000000000000000e+00   7.8227136624345358e+05   8.3518879472251601e+00   1.9553672894476126e+06   1.6128737182846237e+06   2.0583370798091087e+06   2.0338073489247491e+06   1.9684661969287554e+06   0.0000000000000000e+00   0.0000000000000000e+00   0.0000000000000000e+00   0.0000000000000000e+00   0.0000000000000000e+00   0.0000000000000000e+00   0.0000000000000000e+00   0.0000000000000000e+00   0.0000000000000000e+00   0.0000000000000000e+00   0.0000000000000000e+00   0.0000000000000000e+00   0.0000000000000000e+00   0.0000000000000000e+00   0.0000000000000000e+00   0.0000000000000000e+00   0.0000000000000000e+00   0.0000000000000000e+00   0.0000000000000000e+00   0.0000000000000000e+00   0.0000000000000000e+00   0.0000000000000000e+00   0.0000000000000000e+00   0.0000000000000000e+00   0.0000000000000000e+00   0.0000000000000000e+00   0.0000000000000000e+00   0.0000000000000000e+00   0.0000000000000000e+00   0.0000000000000000e+00   0.0000000000000000e+00   2.9623162791949211e-04   0.0000000000000000e+00   4.9752213153703211e+04   2.0519148005766947e-02   2.1010492431605654e+06   6.7545952212538174e+05   2.5685796987206219e+06   2.5963194796130913e+06   2.1256444988358524e+06   0.0000000000000000e+00   0.0000000000000000e+00   0.0000000000000000e+00   0.0000000000000000e+00   0.0000000000000000e+00   0.0000000000000000e+00   0.0000000000000000e+00   0.0000000000000000e+00   0.0000000000000000e+00   0.0000000000000000e+00   0.0000000000000000e+00   0.0000000000000000e+00   0.0000000000000000e+00   0.0000000000000000e+00   0.0000000000000000e+00   0.0000000000000000e+00   0.0000000000000000e+00   0.0000000000000000e+00   0.0000000000000000e+00   0.0000000000000000e+00   0.0000000000000000e+00   0.0000000000000000e+00   0.0000000000000000e+00   0.0000000000000000e+00   0.0000000000000000e+00   0.0000000000000000e+00   0.0000000000000000e+00   0.0000000000000000e+00   0.0000000000000000e+00   0.0000000000000000e+00   0.0000000000000000e+00   4.2137026070397825e-07   0.0000000000000000e+00   3.4352932704213172e+03   1.9747014320026358e-05   3.8078460243754787e+06   1.0818233458013543e+05   3.9503932044127430e+06   3.6378689626621162e+06   2.4552252536203591e+06   0.0000000000000000e+00   0.0000000000000000e+00   0.0000000000000000e+00   0.0000000000000000e+00   0.0000000000000000e+00   0.0000000000000000e+00   0.0000000000000000e+00   0.0000000000000000e+00   0.0000000000000000e+00   0.0000000000000000e+00   0.0000000000000000e+00   0.0000000000000000e+00   0.0000000000000000e+00   0.0000000000000000e+00   0.0000000000000000e+00   0.0000000000000000e+00   0.0000000000000000e+00   0.0000000000000000e+00   0.0000000000000000e+00   0.0000000000000000e+00   0.0000000000000000e+00   0.0000000000000000e+00   0.0000000000000000e+00   0.0000000000000000e+00   0.0000000000000000e+00   0.0000000000000000e+00   0.0000000000000000e+00   0.0000000000000000e+00   0.0000000000000000e+00   0.0000000000000000e+00   0.0000000000000000e+00   0.0000000000000000e+00   0.0000000000000000e+00   3.1557162498341431e+00   6.0356921443136260e-09   4.1217823681211150e+06   1.0387639022499577e+02   4.4259600158205219e+06   3.6772189734928710e+06   2.9762323153854106e+06   0.0000000000000000e+00   0.0000000000000000e+00   0.0000000000000000e+00   0.0000000000000000e+00   0.0000000000000000e+00   0.0000000000000000e+00   0.0000000000000000e+00   0.0000000000000000e+00   0.0000000000000000e+00   0.0000000000000000e+00   0.0000000000000000e+00   0.0000000000000000e+00   0.0000000000000000e+00   0.0000000000000000e+00   0.0000000000000000e+00   0.0000000000000000e+00   0.0000000000000000e+00   0.0000000000000000e+00   0.0000000000000000e+00   0.0000000000000000e+00   0.0000000000000000e+00   0.0000000000000000e+00   0.0000000000000000e+00   0.0000000000000000e+00   0.0000000000000000e+00   0.0000000000000000e+00   0.0000000000000000e+00   0.0000000000000000e+00   0.0000000000000000e+00   0.0000000000000000e+00   0.0000000000000000e+00   0.0000000000000000e+00   0.0000000000000000e+00   1.0458432515541029e-03   0.0000000000000000e+00   1.9740951335959116e+05   2.9140044059809512e-02   4.8573646805734197e+06   1.1951191662893894e+06   4.4370313333491776e+06   0.0000000000000000e+00   0.0000000000000000e+00   0.0000000000000000e+00   0.0000000000000000e+00   0.0000000000000000e+00   0.0000000000000000e+00   0.0000000000000000e+00   0.0000000000000000e+00   0.0000000000000000e+00   0.0000000000000000e+00   0.0000000000000000e+00   0.0000000000000000e+00   0.0000000000000000e+00   0.0000000000000000e+00   0.0000000000000000e+00   0.0000000000000000e+00   0.0000000000000000e+00   0.0000000000000000e+00   0.0000000000000000e+00   0.0000000000000000e+00   0.0000000000000000e+00   0.0000000000000000e+00   0.0000000000000000e+00   0.0000000000000000e+00   0.0000000000000000e+00   0.0000000000000000e+00   0.0000000000000000e+00   0.0000000000000000e+00   0.0000000000000000e+00   0.0000000000000000e+00   0.0000000000000000e+00   0.0000000000000000e+00   0.0000000000000000e+00   1.5482116976700425e-07   0.0000000000000000e+00   5.2282373722087664e+02   3.6751277091034513e-06   7.5949523113400349e+06   1.1746536239236719e+04   5.6852607955302233e+06   0.0000000000000000e+00   0.0000000000000000e+00   0.0000000000000000e+00   0.0000000000000000e+00   0.0000000000000000e+00   0.0000000000000000e+00   0.0000000000000000e+00   0.0000000000000000e+00   0.0000000000000000e+00   0.0000000000000000e+00   0.0000000000000000e+00   0.0000000000000000e+00   0.0000000000000000e+00   0.0000000000000000e+00   0.0000000000000000e+00   0.0000000000000000e+00   0.0000000000000000e+00   0.0000000000000000e+00   0.0000000000000000e+00   0.0000000000000000e+00   0.0000000000000000e+00   0.0000000000000000e+00   0.0000000000000000e+00   0.0000000000000000e+00   0.0000000000000000e+00   0.0000000000000000e+00   0.0000000000000000e+00   0.0000000000000000e+00   0.0000000000000000e+00   0.0000000000000000e+00   0.0000000000000000e+00   0.0000000000000000e+00   0.00000000