<?xml version="1.0"?>
<VTKFile type="UnstructuredGrid"  version="0.1"  >
<UnstructuredGrid>
<Piece  NumberOfPoints="608" NumberOfCells="1117">
<Points>
<DataArray  type="Float64"  NumberOfComponents="3"  format="ascii">0.08260869565217391 0 0  0.09913043478260869 0 0  0.09913043478260869 0.01666666666666667 0  0.1156521739130435 0 0  0.1156521739130435 0.01666666666666667 0  0.1321739130434783 0 0  0.1321739130434783 0.01666666666666667 0  0.148695652173913 0 0  0.148695652173913 0.01666666666666667 0  0.1652173913043478 0 0  0.1652173913043478 0.01666666666666667 0  0.1817391304347826 0 0  0.1817391304347826 0.01666666666666667 0  0.1982608695652174 0 0  0.1982608695652174 0.01666666666666667 0  0.2147826086956522 0 0  0.2147826086956522 0.01666666666666667 0  0.2313043478260869 0 0  0.2313043478260869 0.01666666666666667 0  0.2478260869565218 0 0  0.2478260869565218 0.01666666666666667 0  0.2643478260869565 0 0  0.2643478260869565 0.01666666666666667 0  0.2808695652173913 0 0  0.2808695652173913 0.01666666666666667 0  0.2973913043478261 0 0  0.2973913043478261 0.01666666666666667 0  0.3139130434782609 0 0  0.3139130434782609 0.01666666666666667 0  0.3304347826086956 0 0  0.3304347826086956 0.01666666666666667 0  0.3469565217391304 0 0  0.3469565217391304 0.01666666666666667 0  0.3634782608695652 0 0  0.3634782608695652 0.01666666666666667 0  0.3799999999999999 0 0  0.3799999999999999 0.01666666666666667 0  0.3965217391304348 0 0  0.3965217391304348 0.01666666666666667 0  0.4130434782608696 0 0  0.4130434782608696 0.01666666666666667 0  0.4295652173913043 0.01666666666666667 0  0.1156521739130435 0.03333333333333333 0  0.1321739130434783 0.03333333333333333 0  0.148695652173913 0.03333333333333333 0  0.1652173913043478 0.03333333333333333 0  0.1817391304347826 0.03333333333333333 0  0.1982608695652174 0.03333333333333333 0  0.2147826086956522 0.03333333333333333 0  0.2313043478260869 0.03333333333333333 0  0.2478260869565218 0.03333333333333333 0  0.2643478260869565 0.03333333333333333 0  0.2808695652173913 0.03333333333333333 0  0.2973913043478261 0.03333333333333333 0  0.3139130434782609 0.03333333333333333 0  0.3304347826086956 0.03333333333333333 0  0.3469565217391304 0.03333333333333333 0  0.3634782608695652 0.03333333333333333 0  0.3799999999999999 0.03333333333333333 0  0.3965217391304348 0.03333333333333333 0  0.4130434782608696 0.03333333333333333 0  0.4295652173913043 0.03333333333333333 0  0.4460869565217391 0.03333333333333333 0  0.1321739130434783 0.05 0  0.148695652173913 0.05 0  0.1652173913043478 0.05 0  0.1817391304347826 0.05 0  0.1982608695652174 0.05 0  0.2147826086956522 0.05 0  0.2313043478260869 0.05 0  0.2478260869565218 0.05 0  0.2643478260869565 0.05 0  0.2808695652173913 0.05 0  0.2973913043478261 0.05 0  0.3139130434782609 0.05 0  0.3304347826086956 0.05 0  0.3469565217391304 0.05 0  0.3634782608695652 0.05 0  0.3799999999999999 0.05 0  0.3965217391304348 0.05 0  0.4130434782608696 0.05 0  0.4295652173913043 0.05 0  0.4460869565217391 0.05 0  0.4626086956521739 0.05 0  0.148695652173913 0.06666666666666667 0  0.1652173913043478 0.06666666666666667 0  0.1817391304347826 0.06666666666666667 0  0.1982608695652174 0.06666666666666667 0  0.2147826086956522 0.06666666666666667 0  0.2313043478260869 0.06666666666666667 0  0.2478260869565218 0.06666666666666667 0  0.2643478260869565 0.06666666666666667 0  0.2808695652173913 0.06666666666666667 0  0.2973913043478261 0.06666666666666667 0  0.3139130434782609 0.06666666666666667 0  0.3304347826086956 0.06666666666666667 0  0.3469565217391304 0.06666666666666667 0  0.3634782608695652 0.06666666666666667 0  0.3799999999999999 0.06666666666666667 0  0.3965217391304348 0.06666666666666667 0  0.4130434782608696 0.06666666666666667 0  0.4295652173913043 0.06666666666666667 0  0.4460869565217391 0.06666666666666667 0  0.4626086956521739 0.06666666666666667 0  0.4791304347826086 0.06666666666666667 0  0.1652173913043478 0.08333333333333333 0  0.1817391304347826 0.08333333333333333 0  0.1982608695652174 0.08333333333333333 0  0.2147826086956522 0.08333333333333333 0  0.2313043478260869 0.08333333333333333 0  0.2478260869565218 0.08333333333333333 0  0.2643478260869565 0.08333333333333333 0  0.2808695652173913 0.08333333333333333 0  0.2973913043478261 0.08333333333333333 0  0.3139130434782609 0.08333333333333333 0  0.3304347826086956 0.08333333333333333 0  0.3469565217391304 0.08333333333333333 0  0.3634782608695652 0.08333333333333333 0  0.3799999999999999 0.08333333333333333 0  0.3965217391304348 0.08333333333333333 0  0.4130434782608696 0.08333333333333333 0  0.4295652173913043 0.08333333333333333 0  0.4460869565217391 0.08333333333333333 0  0.4626086956521739 0.08333333333333333 0  0.4791304347826086 0.08333333333333333 0  0.4956521739130435 0.08333333333333333 0  0.1817391304347826 0.1 0  0.1982608695652174 0.1 0  0.2147826086956522 0.1 0  0.2313043478260869 0.1 0  0.2478260869565218 0.1 0  0.2643478260869565 0.1 0  0.2808695652173913 0.1 0  0.2973913043478261 0.1 0  0.3139130434782609 0.1 0  0.3304347826086956 0.1 0  0.3469565217391304 0.1 0  0.3634782608695652 0.1 0  0.3799999999999999 0.1 0  0.3965217391304348 0.1 0  0.4130434782608696 0.1 0  0.4295652173913043 0.1 0  0.4460869565217391 0.1 0  0.4626086956521739 0.1 0  0.4791304347826086 0.1 0  0.4956521739130435 0.1 0  0.5121739130434783 0.1 0  0.1982608695652174 0.1166666666666667 0  0.2147826086956522 0.1166666666666667 0  0.2313043478260869 0.1166666666666667 0  0.2478260869565218 0.1166666666666667 0  0.2643478260869565 0.1166666666666667 0  0.2808695652173913 0.1166666666666667 0  0.2973913043478261 0.1166666666666667 0  0.3139130434782609 0.1166666666666667 0  0.3304347826086956 0.1166666666666667 0  0.3469565217391304 0.1166666666666667 0  0.3634782608695652 0.1166666666666667 0  0.3799999999999999 0.1166666666666667 0  0.3965217391304348 0.1166666666666667 0  0.4130434782608696 0.1166666666666667 0  0.4295652173913043 0.1166666666666667 0  0.4460869565217391 0.1166666666666667 0  0.4626086956521739 0.1166666666666667 0  0.4791304347826086 0.1166666666666667 0  0.4956521739130435 0.1166666666666667 0  0.5121739130434783 0.1166666666666667 0  0.528695652173913 0.1166666666666667 0  0.2147826086956522 0.1333333333333333 0  0.2313043478260869 0.1333333333333333 0  0.2478260869565218 0.1333333333333333 0  0.2643478260869565 0.1333333333333333 0  0.2808695652173913 0.1333333333333333 0  0.2973913043478261 0.1333333333333333 0  0.3139130434782609 0.1333333333333333 0  0.3304347826086956 0.1333333333333333 0  0.3469565217391304 0.1333333333333333 0  0.3634782608695652 0.1333333333333333 0  0.3799999999999999 0.1333333333333333 0  0.3965217391304348 0.1333333333333333 0  0.4130434782608696 0.1333333333333333 0  0.4295652173913043 0.1333333333333333 0  0.4460869565217391 0.1333333333333333 0  0.4626086956521739 0.1333333333333333 0  0.4791304347826086 0.1333333333333333 0  0.4956521739130435 0.1333333333333333 0  0.5121739130434783 0.1333333333333333 0  0.528695652173913 0.1333333333333333 0  0.5452173913043478 0.1333333333333333 0  0.2313043478260869 0.15 0  0.2478260869565218 0.15 0  0.2643478260869565 0.15 0  0.2808695652173913 0.15 0  0.2973913043478261 0.15 0  0.3139130434782609 0.15 0  0.3304347826086956 0.15 0  0.3469565217391304 0.15 0  0.3634782608695652 0.15 0  0.3799999999999999 0.15 0  0.3965217391304348 0.15 0  0.4130434782608696 0.15 0  0.4295652173913043 0.15 0  0.4460869565217391 0.15 0  0.4626086956521739 0.15 0  0.4791304347826086 0.15 0  0.4956521739130435 0.15 0  0.5121739130434783 0.15 0  0.528695652173913 0.15 0  0.5452173913043478 0.15 0  0.5617391304347825 0.15 0  0.2478260869565218 0.1666666666666667 0  0.2643478260869565 0.1666666666666667 0  0.2808695652173913 0.1666666666666667 0  0.2973913043478261 0.1666666666666667 0  0.3139130434782609 0.1666666666666667 0  0.3304347826086956 0.1666666666666667 0  0.3469565217391304 0.1666666666666667 0  0.3634782608695652 0.1666666666666667 0  0.3799999999999999 0.1666666666666667 0  0.3965217391304348 0.1666666666666667 0  0.4130434782608696 0.1666666666666667 0  0.4295652173913043 0.1666666666666667 0  0.4460869565217391 0.1666666666666667 0  0.4626086956521739 0.1666666666666667 0  0.4791304347826086 0.1666666666666667 0  0.4956521739130435 0.1666666666666667 0  0.5121739130434783 0.1666666666666667 0  0.528695652173913 0.1666666666666667 0  0.5452173913043478 0.1666666666666667 0  0.5617391304347825 0.1666666666666667 0  0.5782608695652174 0.1666666666666667 0  0.2643478260869565 0.1833333333333333 0  0.2808695652173913 0.1833333333333333 0  0.2973913043478261 0.1833333333333333 0  0.3139130434782609 0.1833333333333333 0  0.3304347826086956 0.1833333333333333 0  0.3469565217391304 0.1833333333333333 0  0.3634782608695652 0.1833333333333333 0  0.3799999999999999 0.1833333333333333 0  0.3965217391304348 0.1833333333333333 0  0.4130434782608696 0.1833333333333333 0  0.4295652173913043 0.1833333333333333 0  0.4460869565217391 0.1833333333333333 0  0.4626086956521739 0.1833333333333333 0  0.4791304347826086 0.1833333333333333 0  0.4956521739130435 0.1833333333333333 0  0.5121739130434783 0.1833333333333333 0  0.528695652173913 0.1833333333333333 0  0.5452173913043478 0.1833333333333333 0  0.5617391304347825 0.1833333333333333 0  0.5782608695652174 0.1833333333333333 0  0.2808695652173913 0.2 0  0.2973913043478261 0.2 0  0.3139130434782609 0.2 0  0.3304347826086956 0.2 0  0.3469565217391304 0.2 0  0.3634782608695652 0.2 0  0.3799999999999999 0.2 0  0.3965217391304348 0.2 0  0.4130434782608696 0.2 0  0.4295652173913043 0.2 0  0.4460869565217391 0.2 0  0.4626086956521739 0.2 0  0.4791304347826086 0.2 0  0.4956521739130435 0.2 0  0.5121739130434783 0.2 0  0.528695652173913 0.2 0  0.5452173913043478 0.2 0  0.5617391304347825 0.2 0  0.5782608695652174 0.2 0  0.2973913043478261 0.2166666666666667 0  0.3139130434782609 0.2166666666666667 0  0.3304347826086956 0.2166666666666667 0  0.3469565217391304 0.2166666666666667 0  0.36347826086956
[...]
<CellData  Scalars="sigma_m"> 
<DataArray  type="Float64"  Name="sigma_m"  format="ascii">3.1023994908678561e+07   3.0349301784873620e+07   1.7756390178811889e+07   2.9255950183543216e+07   1.7156171557389501e+07   2.7941299508864671e+07   1.6461333866369788e+07   2.6544655421400033e+07   1.5649657032678256e+07   2.5340225472927969e+07   1.4756236745233864e+07   2.4435563979190156e+07   1.4120180935354291e+07   2.3113001033906549e+07   1.3921554363566814e+07   2.0875231058222439e+07   1.3693556862126859e+07   1.8191201452651199e+07   1.3054381467364507e+07   1.5413189046152400e+07   1.2355029358885141e+07   1.2679098653970215e+07   1.1689016315893305e+07   1.0016815260870524e+07   1.1030820864590766e+07   7.4991453327485351e+06   1.0065561741310766e+07   5.3189014493814344e+06   8.6524639023801889e+06   3.7586609070040905e+06   7.5869686743337074e+06   3.0074462546008565e+06   6.7415920608515888e+06   2.7210736676751468e+06   5.8666483035274353e+06   2.8004144692322295e+06   4.9993460500571262e+06   3.0908643679891126e+06   4.1361719874737673e+06   3.4171574780736626e+06   1.6133879287870869e+07   1.5367358965595663e+07   7.7217937766089933e+06   1.4608812842959536e+07   7.6083930468390863e+06   1.3815035250975773e+07   7.4153191476596426e+06   1.3083429920934951e+07   6.8240516547023756e+06   1.2643888238808231e+07   6.0176609418524373e+06   1.2177065649284422e+07   6.7372767681469973e+06   1.1593381786773633e+07   7.7070361716378406e+06   1.1332243690868480e+07   7.5962193960599508e+06   1.1268679904153420e+07   8.4791566734033525e+06   1.1324310393890036e+07   1.0082431258658253e+07   1.1432555660177527e+07   1.2095286813457517e+07   1.1241628012220252e+07   1.4392359330039373e+07   1.0240584181142120e+07   1.4315309210204344e+07   8.8811615272252802e+06   1.2449520015564321e+07   7.9716098603264680e+06   1.1582717451577742e+07   7.2532292455252325e+06   1.0623516721057339e+07   6.6211157748493310e+06   1.0131379287100757e+07   5.8647238856107192e+06   9.7246231198900752e+06   4.7708412801383855e+06   8.6041991403871514e+06   7.6016283789801458e+06   2.8926718011777014e+06   2.5229113510638350e+06   1.3575132389543060e+07   1.9790063389311396e+06   1.2935122119458778e+07   1.3989847843915161e+06   1.0533183954096770e+07   2.9875391260547033e+06   9.1574098762140330e+06   3.3704288171529365e+06   1.3886676382860832e+07   2.1613247659827289e+06   1.3213841248314288e+07   3.8763525976019232e+06   5.7862790125180315e+06   6.0928915355165610e+06   3.0531501616940121e+06   8.3812349226933746e+06   4.8228254639982879e+06   1.0695971266257871e+07   8.1096043685150165e+06   1.3106768916672416e+07   1.1543150712303225e+07   1.4133213539132228e+07   1.5232076749468718e+07   1.4335658455497792e+07   2.0221459725689694e+07   1.3373897380408090e+07   1.5554946158679573e+07   1.1823172254479798e+07   1.2394904359772738e+07   1.1399302401861833e+07   1.5227694539663447e+07   1.1104790209500829e+07   1.4993868425203251e+07   1.0420323508468403e+07   1.6812077311745353e+07   8.6919945599048585e+06   1.2083064841845235e+07   1.0649818066493120e+07   1.0442376520055227e+07   7.6219485565596288e+06   8.1280179685712064e+04   2.0264753244376169e+06   9.8761282747889325e+01   4.7356138200597437e+04   3.4465470169852725e+00   3.7212430536095246e+02   2.6255739916532080e-02   3.4237877396572567e+00   2.3095132668798555e-04   6.3943697275244876e-02   3.7623357869932079e-06   4.7115649572691855e-03   1.9613354767415879e-07   1.5786689970178087e-03   4.3447873763471892e-08   2.1188560163224119e-03   3.5316477232718464e-08   1.2228664870222963e-02   9.6704939472241827e-08   3.4545070967071217e-01   1.1129950878109871e-06   3.5744335720906577e+01   5.6251040737675109e-05   8.1715602603849929e+03   8.9649847995385747e-03   1.5772872128770894e+06   2.7139893125588639e+00   9.8682365809804071e+06   8.3326618129137069e+02   1.4059253019166680e+07   2.5144150233393008e+05   1.5880247497078434e+07   1.3956474069515120e+07   1.4545151576386688e+07   2.0667208574498158e+07   1.2376906735577418e+07   1.2630259710698811e+07   1.2712303561768971e+07   0.0000000000000000e+00   0.0000000000000000e+00   0.0000000000000000e+00   0.0000000000000000e+00   0.0000000000000000e+00   0.0000000000000000e+00   0.0000000000000000e+00   0.0000000000000000e+00   0.0000000000000000e+00   0.0000000000000000e+00   0.0000000000000000e+00   0.0000000000000000e+00   0.0000000000000000e+00   0.0000000000000000e+00   0.0000000000000000e+00   0.0000000000000000e+00   0.0000000000000000e+00   0.0000000000000000e+00   0.0000000000000000e+00   0.0000000000000000e+00   0.0000000000000000e+00   0.0000000000000000e+00   0.0000000000000000e+00   0.0000000000000000e+00   0.0000000000000000e+00   0.0000000000000000e+00   0.0000000000000000e+00   0.0000000000000000e+00   0.0000000000000000e+00   9.0634369262333202e-09   0.0000000000000000e+00   8.3673786470277029e-05   0.0000000000000000e+00   3.1433257833022648e+00   3.2069379411879160e-07   6.1829088692428789e+05   2.1566253401639889e-02   1.1527523334686631e+07   1.8593853475690717e+04   1.1694425106167708e+07   0.0000000000000000e+00   0.0000000000000000e+00   0.0000000000000000e+00   0.0000000000000000e+00   0.0000000000000000e+00   0.0000000000000000e+00   0.0000000000000000e+00   0.0000000000000000e+00   0.0000000000000000e+00   0.0000000000000000e+00   0.0000000000000000e+00   0.0000000000000000e+00   0.0000000000000000e+00   0.0000000000000000e+00   0.0000000000000000e+00   0.0000000000000000e+00   0.0000000000000000e+00   0.0000000000000000e+00   0.0000000000000000e+00   0.0000000000000000e+00   0.0000000000000000e+00   0.0000000000000000e+00   0.0000000000000000e+00   0.0000000000000000e+00   0.0000000000000000e+00   0.0000000000000000e+00   0.0000000000000000e+00   0.0000000000000000e+00   0.0000000000000000e+00   0.0000000000000000e+00   0.0000000000000000e+00   0.0000000000000000e+00   0.0000000000000000e+00   0.0000000000000000e+00   0.0000000000000000e+00   1.4409498123845203e-07   0.0000000000000000e+00   2.7145423207407191e+01   9.6442390560920090e-08   3.1328380905559641e+02   0.0000000000000000e+00   0.0000000000000000e+00   0.0000000000000000e+00   0.0000000000000000e+00   0.0000000000000000e+00   0.0000000000000000e+00   0.0000000000000000e+00   0.0000000000000000e+00   0.0000000000000000e+00   0.0000000000000000e+00   0.0000000000000000e+00   0.0000000000000000e+00   0.0000000000000000e+00   0.0000000000000000e+00   0.0000000000000000e+00   0.0000000000000000e+00   0.0000000000000000e+00   0.0000000000000000e+00   0.0000000000000000e+00   0.0000000000000000e+00   0.0000000000000000e+00   0.0000000000000000e+00   0.0000000000000000e+00   0.0000000000000000e+00   0.0000000000000000e+00   0.0000000000000000e+00   0.0000000000000000e+00   0.0000000000000000e+00   0.0000000000000000e+00   0.0000000000000000e+00   0.0000000000000000e+00   0.0000000000000000e+00   0.0000000000000000e+00   0.0000000000000000e+00   0.0000000000000000e+00   0.0000000000000000e+00   0.0000000000000000e+00   5.0846250462287072e-04   0.0000000000000000e+00   1.8611357286444122e+01   0.0000000000000000e+00   0.0000000000000000e+00   0.0000000000000000e+00   0.0000000000000000e+00   0.0000000000000000e+00   0.0000000000000000e+00   0.0000000000000000e+00   0.0000000000000000e+00   0.0000000000000000e+00   0.0000000000000000e+00   0.0000000000000000e+00   0.0000000000000000e+00   0.0000000000000000e+00   0.0000000000000000e+00   0.0000000000000000e+00   0.0000000000000000e+00   0.0000000000000000e+00   0.0000000000000000e+00   0.0000000000000000e+00   0.0000000000000000e+00   0.0000000000000000e+00   0.0000000000000000e+00   0.0000000000000000e+00   0.0000000000000000e+00   0.0000000000000000e+00   0.0000000000000000e+00   0.0000000000000000e+00   0.0000000000000000e+00   0.0000000000000000e+00   0.0000000000000000e+00   0.0000000000000000e+00   0.0000000000000000e+00   0.0000000000000000e+00   0.0000000000000000e+00   0.0000000000000000e+00   0.0000000000000000e+00   0.0000000000000000e+00   1.1204213450325144e+00   1.0391099718007004e-08   3.6236688930529444e+06   0.0000000000000000e+00   0.0000000000000000e+00   0.0000000000000000e+00   0.0000000000000000e+00   0.0000000000000000e+00   0.0000000000000000e+00   0.0000000000000000e+00   0.0000000000000000e+00   0.0000000000000000e+00   0.0000000000000000e+00   0.0000000000000000e+00   0.0000000000000000e+00   0.0000000000000000e+00   0.0000000000000000e+00   0.0000000000000000e+00   0.0000000000000000e+00   0.0000000000000000e+00   0.0000000000000000e+00   0.0000000000000000e+00   0.0000000000000000e+00   0.0000000000000000e+00   0.0000000000000000e+00   0.0000000000000000e+00   0.0000000000000000e+00   0.0000000000000000e+00   0.0000000000000000e+00   0.0000000000000000e+00   0.0000000000000000e+00   0.0000000000000000e+00   0.0000000000000000e+00   0.0000000000000000e+00   0.0000000000000000e+00   0.0000000000000000e+00   0.0000000000000000e+00   0.0000000000000000e+00   1.3266620768520648e-08   0.0000000000000000e+00   4.5846671878433833e+06   2.9064306058388603e+00   1.9077874186134703e+07   0.0000000000000000e+00   0.0000000000000000e+00   0.0000000000000000e+00   0.0000000000000000e+00   0.0000000000000000e+00   0.0000000000000000e+00   0.0000000000000000e+00   0.0000000000000000e+00   0.0000000000000000e+00   0.0000000000000000e+00   0.0000000000000000e+00   0.0000000000000000e+00   0.0000000000000000e+00   0.0000000000000000e+00   0.0000000000000000e+00   0.0000000000000000e+00   0.0000000000000000e+00   0.0000000000000000e+00   0.0000000000000000e+00   0.0000000000000000e+00   0.0000000000000000e+00   0.0000000000000000e+00   0.0000000000000000e+00   0.0000000000000000e+00   0.0000000000000000e+00   0.0000000000000000e+00   0.0000000000000000e+00   0.0000000000000000e+00   0.0000000000000000e+00   0.0000000000000000e+00   0.0000000000000000e+00   0.0000000000000000e+00   0.0000000000000000e+00   0.0000000000000000e+00   0.0000000000000000e+00   4.7719189257058021e+00   4.0021631879677475e-08   2.2068459691554114e+07   3.9044094539313442e+06   1.2781951215224678e+07   0.0000000000000000e+00   0.0000000000000000e+00   0.0000000000000000e+00   0.0000000000000000e+00   0.0000000000000000e+00   0.0000000000000000e+00   0.0000000000000000e+00   0.0000000000000000e+00   0.0000000000000000e+00   0.0000000000000000e+00   0.0000000000000000e+00   0.0000000000000000e+00   0.0000000000000000e+00   0.0000000000000000e+00   0.0000000000000000e+00   0.0000000000000000e+00   0.0000000000000000e+00   0.0000000000000000e+00   0.0000000000000000e+00   0.0000000000000000e+00   0.0000000000000000e+00   0.0000000000000000e+00   0.0000000000000000e+00   0.0000000000000000e+00   0.0000000000000000e+00   0.0000000000000000e+00   0.0000000000000000e+00   0.0000000000000000e+00   0.0000000000000000e+00   0.0000000000000000e+00   0.0000000000000000e+00   0.0000000000000000e+00   0.0000000000000000e+00   1.7528808529763316e-08   0.0000000000000000e+00   7.7980713238468487e+05   4.8609504613820124e-02   1.5481158984629167e+07   1.1712105973336503e+07   0.0000000000000000e+00   0.0000000000000000e+00   0.0000000000000000e+00   0.0000000000000000e+00   0.0000000000000000e+00   0.0000000000000000e+00   0.0000000000000000e+00   0.0000000000000000e+00   0.0000000000000000e+00   0.0000000000000000e+00   0.0000000000000000e+00   0.0000000000000000e+00   0.0000000000000000e+00   0.0000000000000000e+00   0.0000000000000000e+00   0.0000000000000000e+00   0.0000000000000000e+00   0.0000000000000000e+00   0.0000000000000000e+00   0.0000000000000000e+00   0.0000000000000000e+00   0.0000000000000000e+00   0.0000000000000000e+00   0.0000000000000000e+00   0.0000000000000000e+00   0.0000000000000000e+00   0.0000000000000000e+00   0.0000000000000000e+00   0.0000000000000000e+00   0.0000000000000000e+00   0.0000000000000000e+00   0.0000000000000000e+00   0.0000000000000000e+00   1.6963400303053023e-03   0.0000000000000000e+00   1.1235114399422821e+07   1.0836987898671852e+01   0.0000000000000000e+00   0.0000000000000000e+00   0.0000000000000000e+00   0.0000000000000000e+00   0.0000000000000000e+00   0.0000000000000000e+00   0.0000000000000000e+00   0.0000000000000000e+00   0.0000000000000000e+00   0.0000000000000000e+00   0.0000000000000000e+00   0.0000000000000000e+00   0.0000000000000000e+00   0.0000000000000000e+00   0.0000000000000000e+00   0.0000000000000000e+00   0.0000000000000000e+00   0.0000000000000000e+00   0.0000000000000000e+00   0.0000000000000000e+00   0.0000000000000000e+00   0.0000000000000000e+00   0.0000000000000000e+00   0.0000000000000000e+00   0.0000000000000000e+00   0.0000000000000000e+00   0.0000000000000000e+00   0.0000000000000000e+00   0.0000000000000000e+00   0.0000000000000000e+00   0.0000000000000000e+00   0.0000000000000000e+00   0.0000000000000000e+00   2.0070921763705774e-02   0.0000000000000000e+00   0.0000000000000000e+00   0.0000000000000000e+00   0.0000000000000000e+00   0.0000000000000000e+00   0.0000000000000000e+00   0.0000000000000000e+00   0.0000000000000000e+00   0.0000000000000000e+00   0.0000000000000000e+00   0.0000000000000000e+00   0.0000000000000000e+00   0.0000000000000000e+00   0.0000000000000000e+00   0.0000000000000000e+00   0.0000000000000000e+00   0.0000000000000000e+00   0.0000000000000000e+00   0.0000000000000000e+00   0.0000000000000000e+00   0.0000000000000000e+00   0.0000000000000000e+00   0.0000000000000000e+00   0.0000000000000000e+00   0.0000000000000000e+00   0.0000000000000000e+00   0.0000000000000000e+00   0.0000000000000000e+00   0.0000000000000000e+00   0.0000000000000000e+00   0.0000000000000000e+00   0.0000000000000000e+00   0.0000000000000000e+00   0.0000000000000000e+00   0.0000000000000000e+00   0.0000000000000000e+00   0.0000000000000000e+00   0.0000000000000000e+00   0.0000000000000000e+00   0.0000000000000000e+00   0.0000000000000000e+00   0.0000000000000000e+00   0.0000000000000000e+00   0.0000000000000000e+00   0.0000000000000000e+00   0.0000000000000000e+00   0.0000000000000000e+00   0.0000000000000000e+00   0.0000000000000000e+00   0.0000000000000000e+00   0.0000000000000000e+00   0.0000000000000000e+00   0.0000000000000000e+00   0.0000000000000000e+00   0.0000000000000000e+00   0.0000000000000000e+00   0.0000000000000000e+00   0.0000000000000000e+00   0.0000000000000000e+00   0.0000000000000000e+00   0.0000000000000000e+00   0.0000000000000000e+00   0.0000000000000000e+00   0.0000000000000000e+00   0.0000000000000000e+00   0.0000000000000000e+00   0.0000000000000000e+00   0.0000000000000000e+00   0.0000000000000000e+00   0.0000000000000000e+00   0.0000000000000000e+00   0.0000000000000000e+00   0.0000000000000000e+00   0.0000000000000000e+00   0.0000000000000000e+00   0.0000000000000000e+00   0.0000000000000000e+00   0.0000000000000000e+00   0.0000000000000000e+00   0.0000000000000000e+00   0.0000000000000000e+00   0.0000000000000000e+00   0.0000000000000000e+00   0.0000000000000000e+00   0.0000000000000000e+00   0.0000000000000000e+00   0.0000000000000000e+00   0.0000000000000000e+00   0.0000000000000000e+00   0.0000000000000000e+00   0.0000000000000000e+00   0.0000000000000000e+00   0.0000000000000000e+00   0.0000000000000000e+00   0.0000000000000000e+00   0.0000000000000000e+00   0.0000000000000000e+00   0.0000000000000000e+00   0.0000000000000000e+00   0.0000000000000000e+00   0.0000000000000000e+00   0.0000000000000000e+00   0.0000000000000000e+00   0.0000000000000000e+00   0.0000000000000000e+00   0.0000000000000000e+00   0.0000000000000000e+00   0.0000000000000000e+00   0.0000000000000000e+00   0.0000000000000000e+00   0.0000000000000000e+00   0.0000000000000000e+00   0.0000000000000000e+00   0.0000000000000000e+00   0.0000000000000000e+00   0.0000000000000000e+00   0.0000000000000000e+00   0.0000000000000000e+00   0.0000000000000000e+00   0.0000000000000000e+00   0.0000000000000000e+00   0.0000000000000000e+00   0.0000000000000000e+00   0.0000000000000000e+00   0.0000000000000000e+00   0.0000000000000000e+00   0.0000000000000000e+00   0.0000000000000000e+00   0.0000000000000000e+00   0.0000000000000000e+00   0.0000000000000000e+00   0.0000000000000000e+00   0.0000000000000000e+00   0.0000000000000000e+00   0.0000000000000000e+00   0.0000000000000000e+00   0.0000000000000000e+00   0.0000000000000000e+00   0.0000000000000000e+00   0.0000000000000000e+00   0.0000000000000000e+00   0.0000000000000000e+00   0.0000000000000000e+00   0.0000000000000000e+00   0.0000000000000000e+00   0.0000000000000000e+00   0.0000000000000000e+00   0.0000000000000000e+00   0.0000000000000000e+00   0.0000000000000000e+00   0.0000000000000000e+00   0.0000000000000000e+00   0.0000000000000000e+00   0.0000000000000000e+00   0.0000000000000000e+00   0.0000000000000000e+00   0.0000000000000000e+00   0.0000000000000000e+00   0.0000000000000000e+00   0.0000000000000000e+00   0.0000000000000000e+00   0.0000000000000000e+00   0.0000000000000000e+00   0.0000000000000000e+00   0.0000000000000000e+00   0.0000000000000000e+00   0.0000000000000000e+00   0.0000000000000000e+00   0.0000000000000000e+00   0.0000000000000000e+00   0.0000000000000000e+00   0.0000000000000000e+00   0.0000000000000000e+00   0.0000000000000000e+00   0.0000000000000000e+00   0.0000000000000000e+00   0.0000000000000000e+00   0.0000000000000000e+00   0.0000000000000000e+00   0.0000000000000000e+00   0.0000000000000000e+00   0.0000000000000000e+00   0.0000000000000000e+00   0.0000000000000000e+00   0.0000000000000000e+00   0.0000000000000000e+00   0.0000000000000000e+00   0.0000000000000000e+00   0.0000000000000000e+00   0.0000000000000000e+00   0.0000000000000000e+00   0.0000000000000000e+00   0.0000000000000000e+00   0.0000000000000000e+00   0.0000000000000000e+00   0.0000000000000000e+00   0.0000000000000000e+00   0.0000000000000000e+00   0.0000000000000000e+00   0.0000000000000000e+00   0.0000000000000000e+00   0.0000000000000000e+00   0.0000000000000000e+00   0.0000000000000000e+00   0.0000000000000000e+00   0.0000000000000000e+00   0.0000000000000000e+00   0.0000000000000000e+00   0.0000000000000000e+00   0.0000000000000000e+00   0.0000000000000000e+00   0.0000000000000000e+00   0.0000000000000000e+00   0.0000000000000000e+00   0.0000000000000000e+00   0.0000000000000000e+00   0.0000000000000000e+00   0.0000000000000000e+00   0.0000000000000000e+00   0.0000000000000000e+00   0.0000000000000000e+00   0.0000000000000000e+00   0.0000000000000000e+00   0.0000000000000000e+00   0.0000000000000000e+00   0.0000000000000000e+00   0.0000000000000000e+00   0.0000000000000000e+00   0.0000000000000000e+00   0.0000000000000000e+00   0.0000000000000000e+00   0.0000000000000000e+00   0.0000000000000000e+00   0.0000000000000000e+00   0.0000000000000000e+00   0.0000000000000000e+00   0.0000000000000000e+00   0.0000000000000000e+00   0.0000000000000000e+00   0.0000000000000000e+00   0.0000000000000000e+00   0.0000000000000000e+00   0.0000000000000000e+00   0.0000000000000000e+00   0.0000000000000000e+00   0.0000000000000000e+00   0.0000000000000000e+00   0.0000000000000000e+00   0.0000000000000000e+00   0.0000000000000000e+00   0.0000000000000000e+00   0.0000000000000000e+00   0.0000000000000000e+00   0.0000000000000000e+00   0.0000000000000000e+00   0.0000000000000000e+00   0.0000000000000000e+00   0.0000000000000000e+00   0.0000000000000000e+00   0.0000000000000000e+00   0.0000000000000000e+00   0.0000000000000000e+00   0.0000000000000000e+00   0.0000000000000000e+00   0.0000000000000000e+00   0.0000000000000000e+00   0.0000000000000000e+00   0.0000000000000000e+00   0.0000000000000000e+00   0.0000000000000000e+00   0.0000000000000000e+00   0.0000000000000000e+00   0.0000000000000000e+00   0.0000000000000000e+00   0.0000000000000000e+00   0.0000000000000000e+00   0.0000000000000000e+00   0.0000000000000000e+00   0.0000000000000000e+00   0.0000000000000000e+00   0.0000000000000000e+00   0.0000000000000000e+00   0.0000000000000000e+00   0.0000000000000000e+00   0.0000000000000000e+00   0.0000000000000000e+00   0.00000000