<?xml version="1.0"?>
<VTKFile type="UnstructuredGrid"  version="0.1"  >
<UnstructuredGrid>
<Piece  NumberOfPoints="5151" NumberOfCells="10000">
<Points>
<DataArray  type="Float64"  NumberOfComponents="3"  format="ascii">0 0 0  0.01 0 0  0.02 0 0  0.03 0 0  0.04 0 0  0.05 0 0  0.06 0 0  0.07000000000000001 0 0  0.08 0 0  0.09 0 0  0.1 0 0  0.11 0 0  0.12 0 0  0.13 0 0  0.14 0 0  0.15 0 0  0.16 0 0  0.17 0 0  0.18 0 0  0.19 0 0  0.2 0 0  0.21 0 0  0.22 0 0  0.23 0 0  0.24 0 0  0.25 0 0  0.26 0 0  0.27 0 0  0.28 0 0  0.29 0 0  0.3 0 0  0.31 0 0  0.32 0 0  0.33 0 0  0.34 0 0  0.35 0 0  0.36 0 0  0.37 0 0  0.38 0 0  0.39 0 0  0.4 0 0  0.41 0 0  0.42 0 0  0.43 0 0  0.44 0 0  0.45 0 0  0.46 0 0  0.47 0 0  0.48 0 0  0.49 0 0  0.5 0 0  0.51 0 0  0.52 0 0  0.53 0 0  0.54 0 0  0.55 0 0  0.5600000000000001 0 0  0.57 0 0  0.58 0 0  0.59 0 0  0.6 0 0  0.61 0 0  0.62 0 0  0.63 0 0  0.64 0 0  0.65 0 0  0.66 0 0  0.67 0 0  0.68 0 0  0.6899999999999999 0 0  0.7 0 0  0.71 0 0  0.72 0 0  0.73 0 0  0.74 0 0  0.75 0 0  0.76 0 0  0.77 0 0  0.78 0 0  0.79 0 0  0.8 0 0  0.8100000000000001 0 0  0.82 0 0  0.83 0 0  0.84 0 0  0.85 0 0  0.86 0 0  0.87 0 0  0.88 0 0  0.89 0 0  0.9 0 0  0.91 0 0  0.92 0 0  0.93 0 0  0.9399999999999999 0 0  0.95 0 0  0.96 0 0  0.97 0 0  0.98 0 0  0.99 0 0  1 0 0  0 0.01 0  0.01 0.01 0  0.02 0.01 0  0.03 0.01 0  0.04 0.01 0  0.05 0.01 0  0.06 0.01 0  0.07000000000000001 0.01 0  0.08 0.01 0  0.09 0.01 0  0.1 0.01 0  0.11 0.01 0  0.12 0.01 0  0.13 0.01 0  0.14 0.01 0  0.15 0.01 0  0.16 0.01 0  0.17 0.01 0  0.18 0.01 0  0.19 0.01 0  0.2 0.01 0  0.21 0.01 0  0.22 0.01 0  0.23 0.01 0  0.24 0.01 0  0.25 0.01 0  0.26 0.01 0  0.27 0.01 0  0.28 0.01 0  0.29 0.01 0  0.3 0.01 0  0.31 0.01 0  0.32 0.01 0  0.33 0.01 0  0.34 0.01 0  0.35 0.01 0  0.36 0.01 0  0.37 0.01 0  0.38 0.01 0  0.39 0.01 0  0.4 0.01 0  0.41 0.01 0  0.42 0.01 0  0.43 0.01 0  0.44 0.01 0  0.45 0.01 0  0.46 0.01 0  0.47 0.01 0  0.48 0.01 0  0.49 0.01 0  0.5 0.01 0  0.51 0.01 0  0.52 0.01 0  0.53 0.01 0  0.54 0.01 0  0.55 0.01 0  0.5600000000000001 0.01 0  0.57 0.01 0  0.58 0.01 0  0.59 0.01 0  0.6 0.01 0  0.61 0.01 0  0.62 0.01 0  0.63 0.01 0  0.64 0.01 0  0.65 0.01 0  0.66 0.01 0  0.67 0.01 0  0.68 0.01 0  0.6899999999999999 0.01 0  0.7 0.01 0  0.71 0.01 0  0.72 0.01 0  0.73 0.01 0  0.74 0.01 0  0.75 0.01 0  0.76 0.01 0  0.77 0.01 0  0.78 0.01 0  0.79 0.01 0  0.8 0.01 0  0.8100000000000001 0.01 0  0.82 0.01 0  0.83 0.01 0  0.84 0.01 0  0.85 0.01 0  0.86 0.01 0  0.87 0.01 0  0.88 0.01 0  0.89 0.01 0  0.9 0.01 0  0.91 0.01 0  0.92 0.01 0  0.93 0.01 0  0.9399999999999999 0.01 0  0.95 0.01 0  0.96 0.01 0  0.97 0.01 0  0.98 0.01 0  0.99 0.01 0  1 0.01 0  0 0.02 0  0.01 0.02 0  0.02 0.02 0  0.03 0.02 0  0.04 0.02 0  0.05 0.02 0  0.06 0.02 0  0.07000000000000001 0.02 0  0.08 0.02 0  0.09 0.02 0  0.1 0.02 0  0.11 0.02 0  0.12 0.02 0  0.13 0.02 0  0.14 0.02 0  0.15 0.02 0  0.16 0.02 0  0.17 0.02 0  0.18 0.02 0  0.19 0.02 0  0.2 0.02 0  0.21 0.02 0  0.22 0.02 0  0.23 0.02 0  0.24 0.02 0  0.25 0.02 0  0.26 0.02 0  0.27 0.02 0  0.28 0.02 0  0.29 0.02 0  0.3 0.02 0  0.31 0.02 0  0.32 0.02 0  0.33 0.02 0  0.34 0.02 0  0.35 0.02 0  0.36 0.02 0  0.37 0.02 0  0.38 0.02 0  0.39 0.02 0  0.4 0.02 0  0.41 0.02 0  0.42 0.02 0  0.43 0.02 0  0.44 0.02 0  0.45 0.02 0  0.46 0.02 0  0.47 0.02 0  0.48 0.02 0  0.49 0.02 0  0.5 0.02 0  0.51 0.02 0  0.52 0.02 0  0.53 0.02 0  0.54 0.02 0  0.55 0.02 0  0.5600000000000001 0.02 0  0.57 0.02 0  0.58 0.02 0  0.59 0.02 0  0.6 0.02 0  0.61 0.02 0  0.62 0.02 0  0.63 0.02 0  0.64 0.02 0  0.65 0.02 0  0.66 0.02 0  0.67 0.02 0  0.68 0.02 0  0.6899999999999999 0.02 0  0.7 0.02 0  0.71 0.02 0  0.72 0.02 0  0.73 0.02 0  0.74 0.02 0  0.75 0.02 0  0.76 0.02 0  0.77 0.02 0  0.78 0.02 0  0.79 0.02 0  0.8 0.02 0  0.8100000000000001 0.02 0  0.82 0.02 0  0.83 0.02 0  0.84 0.02 0  0.85 0.02 0  0.86 0.02 0  0.87 0.02 0  0.88 0.02 0  0.89 0.02 0  0.9 0.02 0  0.91 0.02 0  0.92 0.02 0  0.93 0.02 0  0.9399999999999999 0.02 0  0.95 0.02 0  0.96 0.02 0  0.97 0.02 0  0.98 0.02 0  0.99 0.02 0  1 0.02 0  0 0.03 0  0.01 0.03 0  0.02 0.03 0  0.03 0.03 0  0.04 0.03 0  0.05 0.03 0  0.06 0.03 0  0.07000000000000001 0.03 0  0.08 0.03 0  0.09 0.03 0  0.1 0.03 0  0.11 0.03 0  0.12 0.03 0  0.13 0.03 0  0.14 0.03 0  0.15 0.03 0  0.16 0.03 0  0.17 0.03 0  0.18 0.03 0  0.19 0.03 0  0.2 0.03 0  0.21 0.03 0  0.22 0.03 0  0.23 0.03 0  0.24 0.03 0  0.25 0.03 0  0.26 0.03 0  0.27 0.03 0  0.28 0.03 0  0.29 0.03 0  0.3 0.03 0  0.31 0.03 0  0.32 0.03 0  0.33 0.03 0  0.34 0.03 0  0.35 0.03 0  0.36 0.03 0  0.37 0.03 0  0.38 0.03 0  0.39 0.03 0  0.4 0.03 0  0.41 0.03 0  0.42 0.03 0  0.43 0.03 0  0.44 0.03 0  0.45 0.03 0  0.46 0.03 0  0.47 0.03 0  0.48 0.03 0  0.49 0.03 0  0.5 0.03 0  0.51 0.03 0  0.52 0.03 0  0.53 0.03 0  0.54 0.03 0  0.55 0.03 0  0.5600000000000001 0.03 0  0.57 0.03 0  0.58 0.03 0  0.59 0.03 0  0.6 0.03 0  0.61 0.03 0  0.62 0.03 0  0.63 0.03 0  0.64 0.03 0  0.65 0.03 0  0.66 0.03 0  0.67 0.03 0  0.68 0.03 0  0.6899999999999999 0.03 0  0.7 0.03 0  0.71 0.03 0  0.72 0.03 0  0.73 0.03 0  0.74 0.03 0  0.75 0.03 0  0.76 0.03 0  0.77 0.03 0  0.78 0.03 0  0.79 0.03 0  0.8 0.03 0  0.8100000000000001 0.03 0  0.82 0.03 0  0.83 0.03 0  0.84 0.03 0  0.85 0.03 0  0.86 0.03 0  0.87 0.03 0  0.88 0.03 0  0.89 0.03 0  0.9 0.03 0  0.91 0.03 0  0.92 0.03 0  0.93 0.03 0  0.9399999999999999 0.03 0  0.95 0.03 0  0.96 0.03 0  0.97 0.03 0  0.98 0.03 0  0.99 0.03 0  1 0.03 0  0 0.04 0  0.01 0.04 0  0.02 0.04 0  0.03 0.04 0  0.04 0.04 0  0.05 0.04 0  0.06 0.04 0  0.07000000000000001 0.04 0  0.08 0.04 0  0.09 0.04 0  0.1 0.04 0  0.11 0.04 0  0.12 0.04 0  0.13 0.04 0  0.14 0.04 0  0.15 0.04 0  0.16 0.04 0  0.17 0.04 0  0.18 0.04 0  0.19 0.04 0  0.2 0.04 0  0.21 0.04 0  0.22 0.04 0  0.23 0.04 0  0.24 0.04 0  0.25 0.04 0  0.26 0.04 0  0.27 0.04 0  0.28 0.04 0  0.29 0.04 0  0.3 0.04 0  0.31 0.04 0  0.32 0.04 0  0.33 0.04 0  0.34 0.04 0  0.35 0.04 0  0.36 0.04 0  0.37 0.04 0  0.38 0.04 0  0.39 0.04 0  0.4 0.04 0  0.41 0.04 0  0.42 0.04 0  0.43 0.04 0  0.44 0.04 0  0.45 0.04 0  0.46 0.04 0  0.47 0.04 0  0.48 0.04 0  0.49 0.04 0  0.5 0.04 0  0.51 0.04 0  0.52 0.04 0  0.53 0.04 0  0.54 0.04 0  0.55 0.04 0  0.5600000000000001 0.04 0  0.57 0.04 0  0.58 0.04 0  0.59 0.04 0  0.6 0.04 0  0.61 0.04 0  0.62 0.04 0  0.63 0.04 0  0.64 0.04 0  0.65 0.04 0  0.66 0.04 0  0.67 0.04 0  0.68 0.04 0  0.6899999999999999 0.04 0  0.7 0.04 0  0.71 0.04 0  0.72 0.04 0  0.73 0.04 0  0.74 0.04 0  0.75 0.04 0  0.76 0.04 0  0.77 0.04 0  0.78 0.04 0  0.79 0.04 0  0.8 0.04 0  0.8100000000000001 0.04 0  0.82 0.04 0  0.83 0.04 0  0.84 0.04 0  0.85 0.04 0  0.86 0.04 0  0.87 0.04 0  0.88 0.04 0  0.89 0.04 0  0.9 0.04 0  0.91 0.04 0  0.92 0.04 0  0.93 0.04 0  0.9399999999999999 0.04 0  0.95 0.04 0  0.96 0.04 0  0.97 0.04 0  0.98 0.04 0  0.99 0.04 0  1 0.04 0  0 0.05 0  0.01 0.05 0  0.02 0.05 0  0.03 0.05 0  0.04 0.05 0  0.05 0.05 0  0.06 0.05 0  0.07000000000000001 0.05 0  0.08 0.05 0  0.09 0.05 0  0.1 0.05 0  0.11 0.05 0  0.12 0.05 0  0.13 0.05 0  0.14 0.05 0  0.15 0.05 0  0.16 0.05 0  0.17 0.05 0  0.18 0.05 0  0.19 0.05 0  0.2 0.05 0  0.21 0.05 0  0.22 0.05 0  0.23 0.05 0  0.24 0.05 0  0.25 0.05 0  0.26 0.05 0  0.27 0.05 0  0.28 0.05 0  0.29 0.05 0  0.3 0.05 0  0.31 0.05 0  0.32 0.05 0  0.33 0.05 0  0.34 0.05 0  0.35 0.05 0  0.36 0.05 0  0.37 0.05 0  0.38 0.05 0  0.39 0.05 0  0.4 0.05 0  0.41 0.05 0  0.42 0.05 0  0.43 0.05 0  0.44 0.05 0  0.45 0.05 0  0.46 0.05 0  0.47 0.05 0  0.48 0.05 0  0.49 0.05 0  0.5 0.05 0  0.51 0.05 0  0.52 0.05 0  0.53 0.05 0  0.54 0.05 0  0.55 0.05 0  0.5600000000000001 0.05 0  0.57 0.05 0  0.58 0.05 0  0.59 0.05 0  0.6 0.05 0  0.61 0.05 0  0.62 0.05 0  0.63 0.05 0  0.64 0.05 0  0.65 0.05 0  0.66 0.05 0  0.67 0.05 0  0.68 0.05 0  0.6899999999999999 0.05 0  0.7 0.05 0  0.71 0.05 0  0.72 0.05 0  0.73 0.05 0  0.74 0.05 0  0.75 0.05 0  0.76 0.05 0  0.77 0.05 0  0.78 0.05 0  0.79 0.05 0  0.8 0.05 0  0.8100000000000001 0.05 0  0.82 0.05 0  0.83 0.05 0  0.84 0.05 0  0.85 0.05 0  0.86 0.05 0  0.87 0.05 0  0.88 0.05 0  0.89 0.05 0  0.9 0.05 0  0.91 0.05 0  0.92 0.05 0  0.93 0.05 0  0.9399999999999999 0.05 0  0.95 0.05 0  0.96 0.05 0  0.97 0.05 0  0.98 0.05 0  0.99 0.05 0  1 0.05 0  0 0.06 0  0.01 0.06 0  0.02 0.06 0  0.03 0.06 0  0.04 0.06 0  0.05 0.06 0  0.06 0.06 0  0.07000000000000001 0.06 0  0.08 0.06 0  0.09 0.06 0  0.1 0.06 0  0.11 0.06 0  0.12 0.06 0  0.13 0.06 0  0.14 0.06 0  0.15 0.06 0  0.16 0.06 0  0.17 0.06 0  0.18 0.06 0  0.19 0.06 0  0.2 0.06 0  0.21 0.06 0  0.22 0.06 0  0.23 0.06 0  0.24 0.06 0  0.25 0.06 0  0.26 0.06 0  0.27 0.06 0  0.28 0.06 0  0.29 0.06 0  0.3 0.06 0  0.31 0.06 0  0.32 0.06 0  0.33 0.06 0  0.34 0.06 0  0.35 0.06 0  0.36 0.06 0  0.37 0.06 0  0.38 0.06 0  0.39 0.06 0  0.4 0.06 0  0.41 0.06 0  0.42 0.06 0  0.43 0.06 0  0.44 0.06 0  0.45 0.06 0  0.46 0.06 0  0.47 0.06 0  0.48 0.06 0  0.49 0.06 0  0.5 0.06 0  0.51 0.06 0  0.52 0.06 0  0.53 0.06 0  0.54 0.06 0  0.55 0.06 0  0.5600000000000001 0.06 0  0.57 0.06 0  0.58 0.06 0  0.59 0.06 0  0.6 0.06 0  0.61 0.06 0  0.62 0.06 0  0.63 0.06 0  0.64 0.06 0  0.65 0.06 0  0.66 0.06 0  0.67 0.06 0  0.68 0.06 0  0.6899999999999999 0.06 0  0.7 0.06 0  0.71 0.06 0  0.72 0.06 0  0.73 0.06 0  0.74 0.06 0  0.75 0.06 0  0.76 0.06 0  0.77 0.06 0  0.78 0.06 0  0.79 0.06 0  0.8 0.06 0  0.8100000000000001 0.06 0  0.82 0.06 0  0.83 0.06 0  0.84 0.06 0  0.85 0.06 0  0.86 0.06 0  0.87 0.06 0  0.88 0.06 0  0.89 0.06 0  0.9 0.06 0  0.91 0.06 0  0.92 0.06 0  0.93 0.06 0  0.9399999999999999 0.06 0  0.95 0.06 0  0.96 0.06 0  0.97 0.06 0  0.98 0.06 0  0.99 0.06 0  1 0.06 0  0 0.07000000000000001 0  0.01 0.07000000000000001 0  0.02 0.07000000000000001 0  0.03 0.07000000000000001 0  0.04 0.07000000000000001 0  0.05 0.07000000000000001 0  0.06 0.07000000000000001 0  0.07000000000000001 0.07000000000000001 0  0.08 0.07000000000000001 0  0.09 0.07000000000000001 0  0.1 0.07000000000000001 0  0.11 0.07000000000000001 0  0.12 0.07000000000000001 0  0.13 0.07000000000000001 0  0.14 0.07000000000000001 0  0.15 0.07000000000000001 0  0.16 0.07000000000000001 0  0.17 0.07000
[...]
<PointData  Scalars="rho_bar"> 
<DataArray  type="Float64"  Name="rho_bar"  format="ascii">9.5415194901094902e-01  9.5266501798767589e-01  9.5094151024555684e-01  9.4861350864160832e-01  9.4550909693098750e-01  9.4157328369678250e-01  9.3679798542670867e-01  9.3123126134642287e-01  9.2498956630895324e-01  9.1826732883247353e-01  9.1133967697980545e-01  9.0455592640840088e-01  8.9832110077186156e-01  8.9305852784498241e-01  8.8916225078541922e-01  8.8694253716629468e-01  8.8656833574348426e-01  8.8802663760517020e-01  8.9112933860722132e-01  8.9556132465785598e-01  9.0095340590442996e-01  9.0694442211013249e-01  9.1321426935245997e-01  9.1950516519715997e-01  9.2562989274758978e-01  9.3143168304023516e-01  9.3674747020141724e-01  9.4140810831373700e-01  9.4526128415694632e-01  9.4819082457269110e-01  9.5012795031700548e-01  9.5104006225831494e-01  9.5085763542111090e-01  9.4934809451719482e-01  9.4591667743248964e-01  9.3929809684743559e-01  9.2701885189396027e-01  9.0444311565138558e-01  8.6298370669858870e-01  7.8840713512996685e-01  6.6620643012996905e-01  5.0432312727769202e-01  3.4263288786850060e-01  2.1691100539897340e-01  1.3374623656232726e-01  8.2801295524627699e-02  5.2268912605113758e-02  3.3850140831547658e-02  2.2521216087913902e-02  1.5380501880054388e-02  1.0762286844334624e-02  7.6991871229317999e-03  5.6187571473859154e-03  4.1745012496944844e-03  3.1516726871367385e-03  2.4140271351813384e-03  1.8731952366466890e-03  1.4706360401451032e-03  1.1668251141730833e-03  9.3459857213232592e-04  7.5499285624833050e-04  6.1456696602107356e-04  5.0367032589485896e-04  4.1528227976387233e-04  3.4423879982914651e-04  2.8669522323936520e-04  2.3976127082052750e-04  2.0123950845300160e-04  1.6944477639437908e-04  1.4307029332906004e-04  1.2109488725884208e-04  1.0271269032491462e-04  8.7283038535805255e-05  7.4292222660179844e-05  6.3325494183049375e-05  5.4045777756711900e-05  4.6177475136622756e-05  3.9493849678784359e-05  3.3807548622245354e-05  2.8963149650628200e-05  2.4831084320713572e-05  2.1303124585696166e-05  1.8288416186043356e-05  1.5710769566396784e-05  1.3505890060371501e-05  1.1619636141408640e-05  1.0006183679563379e-05  8.6268994006839883e-06  7.4490252291418231e-06  6.4449321792630137e-06  5.5912175073094212e-06  4.8682386419651374e-06  4.2594170831508172e-06  3.7509615942840279e-06  3.3313808613253919e-06  2.9913568283212605e-06  2.7233754328233117e-06  2.5216978838513265e-06  2.3822389956673327e-06  2.3032347256141987e-06  2.2870629396265948e-06  9.4677165928506679e-01  9.4583068711543150e-01  9.4411158218266700e-01  9.4146702229360457e-01  9.3785598064896414e-01  9.3322604481718530e-01  9.2757164627623601e-01  9.2095751594696618e-01  9.1353570926967542e-01  9.0555228913534724e-01  8.9734032002711872e-01  8.8931069529691043e-01  8.8193639162183579e-01  8.7571467155409688e-01  8.7110786100749893e-01  8.6848348380142903e-01  8.6804378407724492e-01  8.6977738253938164e-01  8.7345866841267161e-01  8.7871107164297890e-01  8.8509380528400017e-01  8.9218254811062259e-01  8.9959822554731494e-01  9.0703410151908781e-01  9.1427745831867613e-01  9.2115791761060817e-01  9.2748882611681593e-01  9.3307224171060410e-01  9.3773198739617836e-01  9.4134442081452374e-01  9.4385020794446306e-01  9.4524645757179215e-01  9.4550532347836758e-01  9.4442771621137711e-01  9.4143827552253556e-01  9.3530428239235319e-01  9.2364524841665474e-01  9.0211415659252692e-01  8.6284517576264330e-01  7.9306453586057468e-01  6.7943243642791595e-01  5.2593804948923351e-01  3.6606226345417170e-01  2.3623238932127055e-01  1.4742086186857717e-01  9.1775528541122087e-02  5.7980101525456032e-02  3.7461956757858711e-02  2.4821271105429157e-02  1.6864903306042008e-02  1.1735085688781129e-02  8.3468368601943722e-03  6.0566369355479063e-03  4.4749093460491858e-03  3.3606115593660360e-03  2.5612693488892752e-03  1.9782780789555600e-03  1.5465594973930238e-03  1.2223413774473026e-03  9.7567367298697727e-04  7.8573205726118779e-04  6.3782995407964983e-04  5.2146471210913242e-04  4.2903504883395226e-04  3.5497160712703396e-04  2.9514953147696929e-04  2.4647810628313410e-04  2.0661954800620219e-04  1.7378597084583217e-04  1.4659781033208300e-04  1.2397933321121478e-04  1.0508513295096263e-04  8.9244714153214485e-05  7.5922133854252832e-05  6.4685697204543415e-05  5.5185403683705435e-05  4.7135651373450520e-05  4.0302023401493222e-05  3.4491143973066364e-05  2.9542774545798975e-05  2.5323669932471041e-05  2.1722484132371741e-05  1.8646104320041975e-05  1.6016259071163445e-05  1.3767198630681844e-05  1.1843393252952361e-05  1.0198073652978845e-05  8.7916565524890243e-06  7.5907442134688863e-06  6.5670457908759865e-06  5.6967501312209459e-06  4.9597384787932821e-06  4.3391607347182390e-06  3.8208761476831584e-06  3.3932382960060643e-06  3.0466740573291640e-06  2.7735413840959087e-06  2.5678694202677959e-06  2.4252985930754297e-06  2.3427730685652348e-06  2.3179082365453957e-06  9.1987154095049062e-01  9.1919644694861558e-01  9.1665731577964726e-01  9.1263225983612772e-01  9.0700773949605207e-01  8.9976082335067531e-01  8.9090317792075890e-01  8.8053789565716567e-01  8.6890362771081320e-01  8.5638988810136141e-01  8.4352337205521932e-01  8.3093233484150464e-01  8.1933533343379228e-01  8.0951107041503778e-01  8.0220290393067795e-01  7.9800196884399455e-01  7.9723967179360866e-01  7.9990422635182468e-01  8.0563309793042115e-01  8.1381363347166591e-01  8.2373929127928769e-01  8.3477266927678451e-01  8.4635733866772922e-01  8.5801365960494036e-01  8.6946765959400807e-01  8.8053047702353482e-01  8.9092805729381164e-01  9.0030744574604682e-01  9.0834949022303535e-01  9.1486085959012209e-01  9.1980788020492565e-01  9.2331400047711154e-01  9.2553542764993590e-01  9.2640322380125939e-01  9.2538141150853404e-01  9.2127197275046391e-01  9.1190361291252953e-01  8.9366626394983428e-01  8.6051962508634372e-01  8.0308846820062407e-01  7.1084962643184324e-01  5.8181075500763990e-01  4.3415090036696918e-01  2.9840848939532322e-01  1.9445100398265247e-01  1.2382543805400903e-01  7.8751137305134999e-02  5.0677102572269310e-02  3.3224040750331751e-02  2.2252828780300923e-02  1.5234762311903084e-02  1.0653523882314640e-02  7.5993614968821689e-03  5.5214063198052521e-03  4.0803952110342106e-03  3.0630474756434328e-03  2.3327038863265159e-03  1.8001641665551064e-03  1.4061366510639778e-03  1.1105569732160550e-03  8.8594521031611952e-04  7.1317899873500775e-04  5.7877633695700660e-04  4.7311031032313942e-04  3.8922414407210442e-04  3.2203111694824158e-04  2.6777002659945855e-04  2.2362845518232751e-04  1.8748136925829262e-04  1.5770533269311303e-04  1.3304825891495613e-04  1.1253475871561654e-04  9.5398170467607271e-05  8.1030510445045459e-05  6.8945711921867335e-05  5.8752452817292644e-05  5.0133371559383754e-05  4.2829465523007573e-05  3.6628200135484549e-05  3.1354345058833095e-05  2.6862715462118696e-05  2.3032599181060212e-05  1.9763191682289589e-05  1.6970238996575780e-05  1.4582952776694524e-05  1.2541876275022467e-05  1.0796862910641921e-05  9.3056935990679048e-06  8.0326796915816773e-06  6.9477522347737146e-06  6.0255109609217075e-06  5.2446133440366789e-06  4.5871140002979545e-06  4.0380504744702295e-06  3.5850003177708510e-06  3.2178299991040508e-06  2.9283725037276192e-06  2.7102360865319949e-06  2.5585626639758058e-06  2.4698874731193279e-06  2.4415888214667161e-06  8.5054379641418998e-01  8.4778245497676630e-01  8.4356159393516217e-01  8.3586172770363654e-01  8.2479996916344434e-01  8.1026639109430354e-01  7.9225994226928609e-01  7.7107350143008968e-01  7.4746351314295112e-01  7.2258132829365085e-01  6.9772275436546727e-01  6.7412851003790930e-01  6.5299293052072083e-01  6.3554549691611151e-01  6.2289285128050431e-01  6.1585511155996564e-01  6.1484736769142023e-01  6.1980916560707067e-01  6.3014954481209140e-01  6.4485536333908533e-01  6.6276597764209555e-01  6.8292570690901377e-01  7.0455159590745287e-01  7.2672116805064868e-01  7.4901318473531031e-01  7.7120289155574839e-01  7.9268022392367121e-01  8.1256936990696083e-01  8.3011783500610103e-01  8.4495234319845847e-01  8.5713978379352174e-01  8.6720638523227711e-01  8.7581339642428457e-01  8.8312523140097443e-01  8.8848688840103851e-01  8.9052660783346760e-01  8.8727077967911117e-01  8.7611530614981614e-01  8.5336261425424731e-01  8.1365517083525252e-01  7.5039113304290617e-01  6.5871947892126714e-01  5.4135282501975401e-01  4.1249632466742059e-01  2.9273562660066416e-01  1.9698462963689126e-01  1.2856248575447091e-01  8.3006046067287606e-02  5.3795210423497435e-02  3.5315341777533489e-02  2.3584760616163925e-02  1.6045344236107994e-02  1.1123442890001667e-02  7.8556860954323675e-03  5.6477096270193365e-03  4.1299286579389565e-03  3.0692077468945961e-03  2.3158652515583794e-03  1.7724036801090412e-03  1.3744123043523066e-03  1.0787051868877426e-03  8.5593892011647562e-04  6.8591099892662455e-04  5.5453016327896231e-04  4.5184352711773439e-04  3.7073229630486305e-04  3.0604242132336955e-04  2.5399606080904247e-04  2.1179079416640557e-04  1.7732358819165883e-04  1.4899807964275711e-04  1.2558961424936465e-04  1.0614874467582499e-04  8.9932253343671310e-05  7.6353115365196121e-05  6.4943634190411061e-05  5.5328412864572895e-05  4.7203874922048875e-05  4.0322967284879823e-05  3.4483493013497630e-05  2.9519102082515570e-05  2.5292271795453790e-05  2.1688896721445633e-05  1.8613887428038816e-05  1.5987871088262389e-05  1.3744284666129913e-05  1.1827304416994993e-05  1.0189929869259269e-05  8.7926567505573457e-06  7.6021653872741978e-06  6.5904422802203578e-06  5.7339115619452161e-06  5.0128298092466252e-06  4.4107050654647907e-06  3.9138935203500128e-06  3.5112233734687052e-06  3.1936970314145099e-06  2.9542506706511234e-06  2.7875364776220102e-06  2.6896984531867865e-06  2.6583574475715627e-06  6.5533649781525583e-01  6.5413438275081148e-01  6.4528586925238041e-01  6.2911193783846331e-01  6.0663637079383903e-01  5.7839309764119595e-01  5.4539672960543817e-01  5.0929053412425163e-01  4.7237857687514262e-01  4.3698850302356357e-01  4.0481711198797499e-01  3.7681441685928929e-01  3.5351856294428585e-01  3.3542522880970016e-01  3.2294710122303261e-01  3.1632229340464774e-01  3.1562322061989240e-01  3.2076141826498344e-01  3.3142018054627898e-01  3.4698905372558791e-01  3.6672407027375820e-01  3.9011380983378302e-01  4.1701731697679212e-01  4.4704674487824114e-01  4.8017418637051934e-01  5.1676561794385489e-01  5.5598353314158211e-01  5.9589605184873229e-01  6.3436089832416653e-01  6.6979513123759249e-01  7.0172135226614030e-01  7.3096880433493994e-01  7.5881480671970469e-01  7.8545651672670169e-01  8.0946514861030194e-01  8.2852593183563605e-01  8.4053409947532876e-01  8.4397682071203717e-01  8.3752964862028023e-01  8.1930535347974953e-01  7.8646983797044878e-01  7.3540386910007249e-01  6.6275533317369273e-01  5.6789340166434021e-01  4.5652358534948539e-01  3.4185922659457629e-01  2.3954574142392124e-01  1.5987784905841895e-01  1.0408457693212297e-01  6.7309957060349146e-02  4.3713978990805279e-02  2.8713727699990452e-02  1.9151683478047420e-02  1.2991978598600342e-02  8.9723896709074345e-03  6.3120023197834746e-03  4.5229426774474890e-03  3.2997239443636104e-03  2.4492998141429773e-03  1.8479513333439746e-03  1.4155382924143710e-03  1.0994843615636358e-03  8.6481254959828449e-04  6.8794455087203236e-04  5.5276169286088653e-04  4.4809045109659584e-04  3.6607463327514839e-04  3.0111317743552297e-04  2.4915650629498646e-04  2.0723699786642471e-04  1.7315152550739676e-04  1.4524369170859923e-04  1.2225350063097600e-04  1.0321145299621923e-04  8.7363835537944385e-05  7.4118945862268931e-05  6.3008002225683373e-05  5.3656572981651488e-05  4.5763293882401584e-05  3.9083948064368241e-05  3.3419419175268057e-05  2.8606443146958653e-05  2.4510485006384776e-05  2.1020227565345981e-05  1.8043149463798885e-05  1.5502179913654709e-05  1.3332835167865389e-05  1.1481155651348555e-05  9.9018136699499654e-06  8.5567801153316989e-06  7.4140849136944303e-06  6.4469245326881487e-06  5.6328493266525322e-06  4.9531671171064664e-06  4.3923882111870547e-06  3.9378665890815971e-06  3.5794000238723899e-06  3.3089948523572657e-06  3.1205990012124908e-06  3.0099958385440221e-06  2.9746830478952352e-06  3.1696858467174976e-01  3.1963823415188686e-01  3.1015401682405619e-01  2.9489772229629763e-01  2.7474597583430693e-01  2.5138183410614134e-01  2.2650162014760314e-01  2.0191427482205898e-01  1.7932808092226046e-01  1.5986197136005784e-01  1.4384426595318001e-01  1.3107950630625112e-01  1.2123533023847310e-01  1.1405704566016529e-01  1.0937159330847906e-01  1.0705492366865300e-01  1.0702635793796830e-01  1.0924461230087676e-01  1.1368350151496812e-01  1.2030548659877850e-01  1.2908875508842457e-01  1.4013226391321265e-01  1.5375581843430250e-01  1.7041521485911504e-01  1.9083115608700005e-01  2.1609524232662136e-01  2.4697957356888098e-01  2.8347268184008428e-01  3.2492296978528012e-01  3.7037185287430702e-01  4.1920637032547481e-01  4.7217765724575245e-01  5.3038662318397767e-01  5.9291622577064140e-01  6.5533063861776353e-01  7.1129094590745356e-01  7.5608122300967096e-01  7.8804101792383585e-01  8.0740310867365983e-01  8.1492843346230548e-01  8.1087416711901972e-01  7.9443856011582492e-01  7.6349251697026810e-01  7.1473590321470482e-01  6.4462946650950881e-01  5.5178672424902442e-01  4.4104161900487310e-01  3.2626514963290726e-01  2.2523702597431564e-01  1.4842863883712507e-01  9.5512581337252975e-02  6.0972749716857247e-02  3.9000311774367954e-02  2.5190064358599044e-02  1.6521458934265605e-02  1.1036257616836612e-02  7.5222880259265970e-03  5.2375164673680707e-03  3.7251970686499173e-03  2.7048522826887528e-03  2.0028234399087153e-03  1.5101313694368234e-03  1.1575919287928292e-03  9.0059931163387547e-04  7.0993841107324426e-04  5.6616296563696974e-04  4.5610903968187812e-04  3.7071435299633091e-04  3.0363704121694847e-04  2.5036645654399940e-04  2.0764464754281198e-04  1.7308371295958127e-04  1.4490855162209874e-04  1.2178246886712479e-04  1.0268618239926506e-04  8.6833716294460839e-05  7.3612452004307870e-05  6.2540231024538673e-05  5.3234224690687828e-05  4.5387951715476187e-05  3.8754232570431387e-05  3.3132400433662351e-05  2.8358541237418749e-05  2.4298053389483654e-05  2.0839884498890500e-05  1.7891982011483603e-05  1.5377861069608633e-05  1.3233683678050411e-05  1.1406141022748326e-05  9.8505758776939849e-06  8.5296121294554097e-06  7.4119439181880375e-06  6.4714401588104468e-06  5.6863386039188288e-06  5.0386855620190969e-06  4.5137606929394654e-06  4.0997798994490530e-06  3.7874467356638042e-06  3.5698385654440601e-06  3.4421045409668059e-06  3.4014917107264753e-06  1.0022790348772045e-01  9.7253472152072862e-02  9.3895889002771418e-02  8.8901361999663878e-02  8.2456327384384603e-02  7.5436538200795752e-02  6.8361813926152579e-02  6.1705227426971453e-02  5.5788455787368088e-02  5.0748000953206737e-02  4.6578070718086340e-02  4.3211864104190971e-02  4.0581922323827985e-02  3.8641338188867724e-02  3.7362988421286603e-02  3.6733703793245885e-02  3.6749359868336287e-02  3.7411542852593682e-02  3.8725231385742555e-02  4.0699956191509172e-02  4.3361833653845543e-02  4.6778591701371233e-02  5.1086501144132740e-02  5.6507322105641106e-02  6.3389444123053751e-02  7.2241625354018749e-02  8.3695237921498855e-02  9.8488978652881518e-02  1.1753149706940612e-01  1.4200567173798223e-01  1.7355221056674169e-01  2.1491239602129836e-01  2.6999712687839050e-01  3.4218134607010936e-01  4.3061399771726222e-01  5.2712955360074620e-01  6.1935174759402190e-01  6.9709210121509901e-01  7.5588082495312148e-01  7.9606688927934255e-01  8.2011456994101117e-01  8.3039912849247777e-01  8.2807745469509597e-01  8.1278845794188215e-01  7.8258540449284952e-01  7.3391713340201126e-01  6.6230967065809565e-01  5.6571046523650947e-01  4.5010593544941668e-01  3.3128075123253919e-01  2.2671713664957446e-01  1.4685899911889722e-01  9.2210584136273366e-02  5.7210174234679931e-02  3.5522688264012364e-02  2.2309800292595480e-02  1.4283231364635413e-02  9.3590008356747353e-03  6.2897444313049569e-03  4.3385583825410363e-03  3.0692721326541885e-03  2.2237178544918350e-03  1.6467759849402078e-03  1.2437802987010026e-03  9.5597519067472467e-04  7.4613736183535857e-04  5.9021320282059172e-04  4.7233665299592357e-04  3.8182886138827117e-04  3.1136320267471967e-04  2.5581841196180879e-04  2.1155171835112298e-04  1.7592906286448062e-04  1.4701558097847688e-04  1.2336977968393158e-04  1.0390279154162735e-04  8.7782099727886465e-05  7.4363680545952009e-05  6.3144110042243239e-05  5.3726080129169989e-05  4.5793236960460260e-05  3.9091639716372847e-05  3.3416011183818215e-05  2.8599265507626612e-05  2.4504651107487395e-05  2.1019655946650569e-05  1.8051263606995563e-05  1.5522369923358274e-05  1.3368775099513205e-05  1.1536993846362503e-05  9.9823531402622196e-06  8.6675854256546004e-06  7.5616110157656454e-06  6.6386556199427169e-06  5.8774204259396684e-06  5.2605547889555624e-06  4.7740793217932773e-06  4.4071033132900810e-06  4.1514118303566480e-06  4.0014109350864260e-06  3.9538728584842055e-06  3.1661028450800759e-02  3.1366353681572319e-02  3.0999078513407587e-02  2.9643469260236310e-02  2.7976199857363760e-02  2.6102252553278908e-02  2.4121378698144347e-02  2.2167652394302319e-02  2.0341915038280180e-02  1.8721436068899235e-02  1.7348918644279607e-02  1.6234836714558411e-02  1.5370575543107990e-02  1.4742780592094207e-02  1.4340550488900082e-02  1.4156561950027844e-02  1.4186939520758775e-02  1.4431442933457219e-02  1.4893909240196550e-02  1.5583302669861519e-02  1.6517047283339664e-02  1.7727071353128936e-02  1.9267693727306183e-02  2.1223611913399134e-02  2.3720709694346451e-02  2.6940008726324353e-02  3.1128897995454367e-02  3.6622658723730016e-02  4.3906357789524793e-02  5.3742406667354102e-02  6.7403712241778949e-02  8.7118665424494118e-02  1.1670732565984507e-01  1.6208968330798376e-01  2.3046194998062211e-01  3.2612390066727126e-01  4.4424505066166087e-01  5.6812106691365116e-01  6.7699810596580456e-01  7.5887594334639619e-01  8.1342230163306772e-01  8.4596479558739268e-01  8.6200727484459072e-01  8.6516843896234341e-01  8.5695907432315155e-01  8.3688101021025485e-01  8.0257334790968760e-01  7.5028225962512718e-01  6.7600901122176538e-01  5.7827669137622106e-01  4.6174773836900129e-01  3.3943094212998365e-01  2.2923835687225089e-01  1.4447685450133008e-01  8.7392301751831616e-02  5.2139244123077369e-02  3.1234366825294124e-02  1.9050418827094802e-02  1.1936356557871917e-02  7.7098810258518025e-03  5.1403983431093361e-03  3.5350085743328444e-03  2.5020703010973093e-03  1.8179459396692333e-03  1.3519632998441852e-03  1.0261610817561301e-03  7.9282745012145602e-04  6.2202736248072321e-04  4.9452071246406770e-04  3.9764521994504809e-04  3.2288286715281492e-04  2.6438165900525813e-04  2.1804158481208684e-04  1.8093736330763898e-04  1.5094533505798034e-04  1.2649982741553243e-04  1.0642904857427453e-04  8.9844435983770193e-05  7.6063599750421181e-05  6.4556590663614072e-05  5.4907530141029059e-05  4.6786949485445856e-05  3.9931501418160574e-05  3.4129121528187244e-05  2.9207760825280232e-05  2.5027010623280412e-05  2.1471641575859637e-05  1.8446625110516247e-05  1.5873359174394655e-05  1.3686564160370737e-05  1.1832002010506356e-05  1.0264517593401060e-05  8.9466197701140381e-06  7.8472185082490580e-06  6.9407548981746330e-06  6.2063559974616549e-06  5.6273217087045288e-06  5.1905491341454341e-06  4.8863150133222785e-06  4.7078765877742696e-06  4.6514628437273576e-06  1.1983941234709819e-02  1.1868227622818335e-02  1.1545007130091657e-02  1.1082051740943373e-02  1.0596688186271611e-02  1.0021145137465009e-02  9.4245681132480146e-03  8.8440041339722612e-03  8.3061232491903805e-03  7.8293701396831995e-03  7.4210319481221578e-03  7.0829257056865443e-03  6.8154853083545524e-03  6.6194749562324901e-03  6.4960395239730242e-03  6.4466821427866146e-03  6.4734373106659663e-03  6.5790633305460042e-03  6.7673186509599696e-03  7.0437684826800953e-03  7.4172961787495415e-03  7.90239096961