<?xml version="1.0"?>
<VTKFile type="UnstructuredGrid"  version="0.1"  >
<UnstructuredGrid>
<Piece  NumberOfPoints="5151" NumberOfCells="10000">
<Points>
<DataArray  type="Float64"  NumberOfComponents="3"  format="ascii">0 0 0  0.01 0 0  0.02 0 0  0.03 0 0  0.04 0 0  0.05 0 0  0.06 0 0  0.07000000000000001 0 0  0.08 0 0  0.09 0 0  0.1 0 0  0.11 0 0  0.12 0 0  0.13 0 0  0.14 0 0  0.15 0 0  0.16 0 0  0.17 0 0  0.18 0 0  0.19 0 0  0.2 0 0  0.21 0 0  0.22 0 0  0.23 0 0  0.24 0 0  0.25 0 0  0.26 0 0  0.27 0 0  0.28 0 0  0.29 0 0  0.3 0 0  0.31 0 0  0.32 0 0  0.33 0 0  0.34 0 0  0.35 0 0  0.36 0 0  0.37 0 0  0.38 0 0  0.39 0 0  0.4 0 0  0.41 0 0  0.42 0 0  0.43 0 0  0.44 0 0  0.45 0 0  0.46 0 0  0.47 0 0  0.48 0 0  0.49 0 0  0.5 0 0  0.51 0 0  0.52 0 0  0.53 0 0  0.54 0 0  0.55 0 0  0.5600000000000001 0 0  0.57 0 0  0.58 0 0  0.59 0 0  0.6 0 0  0.61 0 0  0.62 0 0  0.63 0 0  0.64 0 0  0.65 0 0  0.66 0 0  0.67 0 0  0.68 0 0  0.6899999999999999 0 0  0.7 0 0  0.71 0 0  0.72 0 0  0.73 0 0  0.74 0 0  0.75 0 0  0.76 0 0  0.77 0 0  0.78 0 0  0.79 0 0  0.8 0 0  0.8100000000000001 0 0  0.82 0 0  0.83 0 0  0.84 0 0  0.85 0 0  0.86 0 0  0.87 0 0  0.88 0 0  0.89 0 0  0.9 0 0  0.91 0 0  0.92 0 0  0.93 0 0  0.9399999999999999 0 0  0.95 0 0  0.96 0 0  0.97 0 0  0.98 0 0  0.99 0 0  1 0 0  0 0.01 0  0.01 0.01 0  0.02 0.01 0  0.03 0.01 0  0.04 0.01 0  0.05 0.01 0  0.06 0.01 0  0.07000000000000001 0.01 0  0.08 0.01 0  0.09 0.01 0  0.1 0.01 0  0.11 0.01 0  0.12 0.01 0  0.13 0.01 0  0.14 0.01 0  0.15 0.01 0  0.16 0.01 0  0.17 0.01 0  0.18 0.01 0  0.19 0.01 0  0.2 0.01 0  0.21 0.01 0  0.22 0.01 0  0.23 0.01 0  0.24 0.01 0  0.25 0.01 0  0.26 0.01 0  0.27 0.01 0  0.28 0.01 0  0.29 0.01 0  0.3 0.01 0  0.31 0.01 0  0.32 0.01 0  0.33 0.01 0  0.34 0.01 0  0.35 0.01 0  0.36 0.01 0  0.37 0.01 0  0.38 0.01 0  0.39 0.01 0  0.4 0.01 0  0.41 0.01 0  0.42 0.01 0  0.43 0.01 0  0.44 0.01 0  0.45 0.01 0  0.46 0.01 0  0.47 0.01 0  0.48 0.01 0  0.49 0.01 0  0.5 0.01 0  0.51 0.01 0  0.52 0.01 0  0.53 0.01 0  0.54 0.01 0  0.55 0.01 0  0.5600000000000001 0.01 0  0.57 0.01 0  0.58 0.01 0  0.59 0.01 0  0.6 0.01 0  0.61 0.01 0  0.62 0.01 0  0.63 0.01 0  0.64 0.01 0  0.65 0.01 0  0.66 0.01 0  0.67 0.01 0  0.68 0.01 0  0.6899999999999999 0.01 0  0.7 0.01 0  0.71 0.01 0  0.72 0.01 0  0.73 0.01 0  0.74 0.01 0  0.75 0.01 0  0.76 0.01 0  0.77 0.01 0  0.78 0.01 0  0.79 0.01 0  0.8 0.01 0  0.8100000000000001 0.01 0  0.82 0.01 0  0.83 0.01 0  0.84 0.01 0  0.85 0.01 0  0.86 0.01 0  0.87 0.01 0  0.88 0.01 0  0.89 0.01 0  0.9 0.01 0  0.91 0.01 0  0.92 0.01 0  0.93 0.01 0  0.9399999999999999 0.01 0  0.95 0.01 0  0.96 0.01 0  0.97 0.01 0  0.98 0.01 0  0.99 0.01 0  1 0.01 0  0 0.02 0  0.01 0.02 0  0.02 0.02 0  0.03 0.02 0  0.04 0.02 0  0.05 0.02 0  0.06 0.02 0  0.07000000000000001 0.02 0  0.08 0.02 0  0.09 0.02 0  0.1 0.02 0  0.11 0.02 0  0.12 0.02 0  0.13 0.02 0  0.14 0.02 0  0.15 0.02 0  0.16 0.02 0  0.17 0.02 0  0.18 0.02 0  0.19 0.02 0  0.2 0.02 0  0.21 0.02 0  0.22 0.02 0  0.23 0.02 0  0.24 0.02 0  0.25 0.02 0  0.26 0.02 0  0.27 0.02 0  0.28 0.02 0  0.29 0.02 0  0.3 0.02 0  0.31 0.02 0  0.32 0.02 0  0.33 0.02 0  0.34 0.02 0  0.35 0.02 0  0.36 0.02 0  0.37 0.02 0  0.38 0.02 0  0.39 0.02 0  0.4 0.02 0  0.41 0.02 0  0.42 0.02 0  0.43 0.02 0  0.44 0.02 0  0.45 0.02 0  0.46 0.02 0  0.47 0.02 0  0.48 0.02 0  0.49 0.02 0  0.5 0.02 0  0.51 0.02 0  0.52 0.02 0  0.53 0.02 0  0.54 0.02 0  0.55 0.02 0  0.5600000000000001 0.02 0  0.57 0.02 0  0.58 0.02 0  0.59 0.02 0  0.6 0.02 0  0.61 0.02 0  0.62 0.02 0  0.63 0.02 0  0.64 0.02 0  0.65 0.02 0  0.66 0.02 0  0.67 0.02 0  0.68 0.02 0  0.6899999999999999 0.02 0  0.7 0.02 0  0.71 0.02 0  0.72 0.02 0  0.73 0.02 0  0.74 0.02 0  0.75 0.02 0  0.76 0.02 0  0.77 0.02 0  0.78 0.02 0  0.79 0.02 0  0.8 0.02 0  0.8100000000000001 0.02 0  0.82 0.02 0  0.83 0.02 0  0.84 0.02 0  0.85 0.02 0  0.86 0.02 0  0.87 0.02 0  0.88 0.02 0  0.89 0.02 0  0.9 0.02 0  0.91 0.02 0  0.92 0.02 0  0.93 0.02 0  0.9399999999999999 0.02 0  0.95 0.02 0  0.96 0.02 0  0.97 0.02 0  0.98 0.02 0  0.99 0.02 0  1 0.02 0  0 0.03 0  0.01 0.03 0  0.02 0.03 0  0.03 0.03 0  0.04 0.03 0  0.05 0.03 0  0.06 0.03 0  0.07000000000000001 0.03 0  0.08 0.03 0  0.09 0.03 0  0.1 0.03 0  0.11 0.03 0  0.12 0.03 0  0.13 0.03 0  0.14 0.03 0  0.15 0.03 0  0.16 0.03 0  0.17 0.03 0  0.18 0.03 0  0.19 0.03 0  0.2 0.03 0  0.21 0.03 0  0.22 0.03 0  0.23 0.03 0  0.24 0.03 0  0.25 0.03 0  0.26 0.03 0  0.27 0.03 0  0.28 0.03 0  0.29 0.03 0  0.3 0.03 0  0.31 0.03 0  0.32 0.03 0  0.33 0.03 0  0.34 0.03 0  0.35 0.03 0  0.36 0.03 0  0.37 0.03 0  0.38 0.03 0  0.39 0.03 0  0.4 0.03 0  0.41 0.03 0  0.42 0.03 0  0.43 0.03 0  0.44 0.03 0  0.45 0.03 0  0.46 0.03 0  0.47 0.03 0  0.48 0.03 0  0.49 0.03 0  0.5 0.03 0  0.51 0.03 0  0.52 0.03 0  0.53 0.03 0  0.54 0.03 0  0.55 0.03 0  0.5600000000000001 0.03 0  0.57 0.03 0  0.58 0.03 0  0.59 0.03 0  0.6 0.03 0  0.61 0.03 0  0.62 0.03 0  0.63 0.03 0  0.64 0.03 0  0.65 0.03 0  0.66 0.03 0  0.67 0.03 0  0.68 0.03 0  0.6899999999999999 0.03 0  0.7 0.03 0  0.71 0.03 0  0.72 0.03 0  0.73 0.03 0  0.74 0.03 0  0.75 0.03 0  0.76 0.03 0  0.77 0.03 0  0.78 0.03 0  0.79 0.03 0  0.8 0.03 0  0.8100000000000001 0.03 0  0.82 0.03 0  0.83 0.03 0  0.84 0.03 0  0.85 0.03 0  0.86 0.03 0  0.87 0.03 0  0.88 0.03 0  0.89 0.03 0  0.9 0.03 0  0.91 0.03 0  0.92 0.03 0  0.93 0.03 0  0.9399999999999999 0.03 0  0.95 0.03 0  0.96 0.03 0  0.97 0.03 0  0.98 0.03 0  0.99 0.03 0  1 0.03 0  0 0.04 0  0.01 0.04 0  0.02 0.04 0  0.03 0.04 0  0.04 0.04 0  0.05 0.04 0  0.06 0.04 0  0.07000000000000001 0.04 0  0.08 0.04 0  0.09 0.04 0  0.1 0.04 0  0.11 0.04 0  0.12 0.04 0  0.13 0.04 0  0.14 0.04 0  0.15 0.04 0  0.16 0.04 0  0.17 0.04 0  0.18 0.04 0  0.19 0.04 0  0.2 0.04 0  0.21 0.04 0  0.22 0.04 0  0.23 0.04 0  0.24 0.04 0  0.25 0.04 0  0.26 0.04 0  0.27 0.04 0  0.28 0.04 0  0.29 0.04 0  0.3 0.04 0  0.31 0.04 0  0.32 0.04 0  0.33 0.04 0  0.34 0.04 0  0.35 0.04 0  0.36 0.04 0  0.37 0.04 0  0.38 0.04 0  0.39 0.04 0  0.4 0.04 0  0.41 0.04 0  0.42 0.04 0  0.43 0.04 0  0.44 0.04 0  0.45 0.04 0  0.46 0.04 0  0.47 0.04 0  0.48 0.04 0  0.49 0.04 0  0.5 0.04 0  0.51 0.04 0  0.52 0.04 0  0.53 0.04 0  0.54 0.04 0  0.55 0.04 0  0.5600000000000001 0.04 0  0.57 0.04 0  0.58 0.04 0  0.59 0.04 0  0.6 0.04 0  0.61 0.04 0  0.62 0.04 0  0.63 0.04 0  0.64 0.04 0  0.65 0.04 0  0.66 0.04 0  0.67 0.04 0  0.68 0.04 0  0.6899999999999999 0.04 0  0.7 0.04 0  0.71 0.04 0  0.72 0.04 0  0.73 0.04 0  0.74 0.04 0  0.75 0.04 0  0.76 0.04 0  0.77 0.04 0  0.78 0.04 0  0.79 0.04 0  0.8 0.04 0  0.8100000000000001 0.04 0  0.82 0.04 0  0.83 0.04 0  0.84 0.04 0  0.85 0.04 0  0.86 0.04 0  0.87 0.04 0  0.88 0.04 0  0.89 0.04 0  0.9 0.04 0  0.91 0.04 0  0.92 0.04 0  0.93 0.04 0  0.9399999999999999 0.04 0  0.95 0.04 0  0.96 0.04 0  0.97 0.04 0  0.98 0.04 0  0.99 0.04 0  1 0.04 0  0 0.05 0  0.01 0.05 0  0.02 0.05 0  0.03 0.05 0  0.04 0.05 0  0.05 0.05 0  0.06 0.05 0  0.07000000000000001 0.05 0  0.08 0.05 0  0.09 0.05 0  0.1 0.05 0  0.11 0.05 0  0.12 0.05 0  0.13 0.05 0  0.14 0.05 0  0.15 0.05 0  0.16 0.05 0  0.17 0.05 0  0.18 0.05 0  0.19 0.05 0  0.2 0.05 0  0.21 0.05 0  0.22 0.05 0  0.23 0.05 0  0.24 0.05 0  0.25 0.05 0  0.26 0.05 0  0.27 0.05 0  0.28 0.05 0  0.29 0.05 0  0.3 0.05 0  0.31 0.05 0  0.32 0.05 0  0.33 0.05 0  0.34 0.05 0  0.35 0.05 0  0.36 0.05 0  0.37 0.05 0  0.38 0.05 0  0.39 0.05 0  0.4 0.05 0  0.41 0.05 0  0.42 0.05 0  0.43 0.05 0  0.44 0.05 0  0.45 0.05 0  0.46 0.05 0  0.47 0.05 0  0.48 0.05 0  0.49 0.05 0  0.5 0.05 0  0.51 0.05 0  0.52 0.05 0  0.53 0.05 0  0.54 0.05 0  0.55 0.05 0  0.5600000000000001 0.05 0  0.57 0.05 0  0.58 0.05 0  0.59 0.05 0  0.6 0.05 0  0.61 0.05 0  0.62 0.05 0  0.63 0.05 0  0.64 0.05 0  0.65 0.05 0  0.66 0.05 0  0.67 0.05 0  0.68 0.05 0  0.6899999999999999 0.05 0  0.7 0.05 0  0.71 0.05 0  0.72 0.05 0  0.73 0.05 0  0.74 0.05 0  0.75 0.05 0  0.76 0.05 0  0.77 0.05 0  0.78 0.05 0  0.79 0.05 0  0.8 0.05 0  0.8100000000000001 0.05 0  0.82 0.05 0  0.83 0.05 0  0.84 0.05 0  0.85 0.05 0  0.86 0.05 0  0.87 0.05 0  0.88 0.05 0  0.89 0.05 0  0.9 0.05 0  0.91 0.05 0  0.92 0.05 0  0.93 0.05 0  0.9399999999999999 0.05 0  0.95 0.05 0  0.96 0.05 0  0.97 0.05 0  0.98 0.05 0  0.99 0.05 0  1 0.05 0  0 0.06 0  0.01 0.06 0  0.02 0.06 0  0.03 0.06 0  0.04 0.06 0  0.05 0.06 0  0.06 0.06 0  0.07000000000000001 0.06 0  0.08 0.06 0  0.09 0.06 0  0.1 0.06 0  0.11 0.06 0  0.12 0.06 0  0.13 0.06 0  0.14 0.06 0  0.15 0.06 0  0.16 0.06 0  0.17 0.06 0  0.18 0.06 0  0.19 0.06 0  0.2 0.06 0  0.21 0.06 0  0.22 0.06 0  0.23 0.06 0  0.24 0.06 0  0.25 0.06 0  0.26 0.06 0  0.27 0.06 0  0.28 0.06 0  0.29 0.06 0  0.3 0.06 0  0.31 0.06 0  0.32 0.06 0  0.33 0.06 0  0.34 0.06 0  0.35 0.06 0  0.36 0.06 0  0.37 0.06 0  0.38 0.06 0  0.39 0.06 0  0.4 0.06 0  0.41 0.06 0  0.42 0.06 0  0.43 0.06 0  0.44 0.06 0  0.45 0.06 0  0.46 0.06 0  0.47 0.06 0  0.48 0.06 0  0.49 0.06 0  0.5 0.06 0  0.51 0.06 0  0.52 0.06 0  0.53 0.06 0  0.54 0.06 0  0.55 0.06 0  0.5600000000000001 0.06 0  0.57 0.06 0  0.58 0.06 0  0.59 0.06 0  0.6 0.06 0  0.61 0.06 0  0.62 0.06 0  0.63 0.06 0  0.64 0.06 0  0.65 0.06 0  0.66 0.06 0  0.67 0.06 0  0.68 0.06 0  0.6899999999999999 0.06 0  0.7 0.06 0  0.71 0.06 0  0.72 0.06 0  0.73 0.06 0  0.74 0.06 0  0.75 0.06 0  0.76 0.06 0  0.77 0.06 0  0.78 0.06 0  0.79 0.06 0  0.8 0.06 0  0.8100000000000001 0.06 0  0.82 0.06 0  0.83 0.06 0  0.84 0.06 0  0.85 0.06 0  0.86 0.06 0  0.87 0.06 0  0.88 0.06 0  0.89 0.06 0  0.9 0.06 0  0.91 0.06 0  0.92 0.06 0  0.93 0.06 0  0.9399999999999999 0.06 0  0.95 0.06 0  0.96 0.06 0  0.97 0.06 0  0.98 0.06 0  0.99 0.06 0  1 0.06 0  0 0.07000000000000001 0  0.01 0.07000000000000001 0  0.02 0.07000000000000001 0  0.03 0.07000000000000001 0  0.04 0.07000000000000001 0  0.05 0.07000000000000001 0  0.06 0.07000000000000001 0  0.07000000000000001 0.07000000000000001 0  0.08 0.07000000000000001 0  0.09 0.07000000000000001 0  0.1 0.07000000000000001 0  0.11 0.07000000000000001 0  0.12 0.07000000000000001 0  0.13 0.07000000000000001 0  0.14 0.07000000000000001 0  0.15 0.07000000000000001 0  0.16 0.07000000000000001 0  0.17 0.07000
[...]
<PointData  Scalars="rho_bar"> 
<DataArray  type="Float64"  Name="rho_bar"  format="ascii">9.9522855781275765e-01  9.9577867459252167e-01  9.9525499170323983e-01  9.9513707640571325e-01  9.9491231997611818e-01  9.9469554075307687e-01  9.9443787237722892e-01  9.9410611788993108e-01  9.9366594301794542e-01  9.9310969629165669e-01  9.9246527360103998e-01  9.9178972744827676e-01  9.9116089159599396e-01  9.9066349543514920e-01  9.9036673107760542e-01  9.9030423565622261e-01  9.9047012252388289e-01  9.9082937463520881e-01  9.9133292450282340e-01  9.9192642539903186e-01  9.9255839268902546e-01  9.9319081378770402e-01  9.9380741542292361e-01  9.9441380955359004e-01  9.9502894959186716e-01  9.9566725340913198e-01  9.9632501855060684e-01  9.9698226916252219e-01  9.9761079472251868e-01  9.9816562433245670e-01  9.9857665042984911e-01  9.9880357750338244e-01  9.9890365227800304e-01  9.9896270258126529e-01  9.9897433325881213e-01  9.9884523786722845e-01  9.9837945875565581e-01  9.9720394452035033e-01  9.9115780741404269e-01  9.7238988485749211e-01  8.1658173095605768e-01  3.4623385471838436e-01  8.1525842140188653e-02  2.0308370351184352e-02  6.2177343294335385e-03  2.1939763275135890e-03  9.0179102859285431e-04  3.8808189802912283e-04  1.8554095128762405e-04  9.9943994931747505e-05  5.5411387486191864e-05  3.1054081410284639e-05  1.8567555058272464e-05  1.1673627997474703e-05  7.4363810571845768e-06  4.8728651490762296e-06  3.3029992026203032e-06  2.2852061468496992e-06  1.6162041996664474e-06  1.1692521048740220e-06  8.6179480890950709e-07  6.4661516815614390e-07  4.9317252289322044e-07  3.8161184331585742e-07  2.9917740419182174e-07  2.3728027920527256e-07  1.9011964049284422e-07  1.5370561642165342e-07  1.2524446829452840e-07  1.0275358373688440e-07  8.4804482537376903e-08  7.0353199156244692e-08  5.8626814661129292e-08  4.9045430632960985e-08  4.1168718296575198e-08  3.4658577734112477e-08  2.9252548740751914e-08  2.4744791887408305e-08  2.0972421522819324e-08  1.7805543506504044e-08  1.5139648297914705e-08  1.2890205655611593e-08  1.0988272430491751e-08  9.3775263113736615e-09  8.0115255441426755e-09  6.8519844846861811e-09  5.8670976615744730e-09  5.0305047399531145e-09  4.3201883795015203e-09  3.7178266299524502e-09  3.2080867365328557e-09  2.7782360288363595e-09  2.4176281287104852e-09  2.1174770271993817e-09  1.8705148580281790e-09  1.6708774896494945e-09  1.5138604319067419e-09  1.3958742830888356e-09  1.3143589815236746e-09  1.2681509717578024e-09  1.2584799042980254e-09  9.9952248258318854e-01  9.9694664697593949e-01  9.9727439369994086e-01  9.9663821534230868e-01  9.9577943329539975e-01  9.9454144587538773e-01  9.9294019378025011e-01  9.9104292174976660e-01  9.8897112204563264e-01  9.8687751550331715e-01  9.8491812921255839e-01  9.8325151041033920e-01  9.8203687656081706e-01  9.8141330496472279e-01  9.8147045375290842e-01  9.8221980323503533e-01  9.8357498647205932e-01  9.8536037129268739e-01  9.8735155088533455e-01  9.8933756077668344e-01  9.9117311786118600e-01  9.9279166386447548e-01  9.9417995335101417e-01  9.9534331609958215e-01  9.9627991630868518e-01  9.9698065306367367e-01  9.9744936675338325e-01  9.9771422531774701e-01  9.9782028000700795e-01  9.9783218861234746e-01  9.9786697356369558e-01  9.9806240089044096e-01  9.9840438148922106e-01  9.9868852992949220e-01  9.9876779079643907e-01  9.9863739180415323e-01  9.9819860301020491e-01  9.9680533675517968e-01  9.9214997526568749e-01  9.7100281927365550e-01  8.4343774543690042e-01  4.1728070672612994e-01  9.8892272375224202e-02  2.7045691488463294e-02  8.0143600602042217e-03  2.7978856029828134e-03  1.0460368961972973e-03  4.7648460492873417e-04  2.4707967278140511e-04  1.2121981568429999e-04  6.1206300233058355e-05  3.6143646533378026e-05  2.2154688090040084e-05  1.3172639857997823e-05  8.2579443560516865e-06  5.4583051249291107e-06  3.6329208407206287e-06  2.4814593558333105e-06  1.7471034386408818e-06  1.2520466105390786e-06  9.1616826563243046e-07  6.8362269032684190e-07  5.1845549495872897e-07  3.9936314199194600e-07  3.1186151197498168e-07  2.4649345935215144e-07  1.9693199261695776e-07  1.5881820374978015e-07  1.2913716430020622e-07  1.0575699637990627e-07  8.7149710560980210e-08  7.2204814947826166e-08  6.0103334908535149e-08  5.0233494908826313e-08  4.2132479725226612e-08  3.5446066745419268e-08  2.9900167046129507e-08  2.5280438769497351e-08  2.1417731779429448e-08  1.8177373825299158e-08  1.5451369013131352e-08  1.3152370192673931e-08  1.1209459511601397e-08  9.5645734085344670e-09  8.1700896258940703e-09  6.9866327389251546e-09  5.9816759123183252e-09  5.1281564267196021e-09  4.4035894571350696e-09  3.7891892779896876e-09  3.2693360437731008e-09  2.8309749556254826e-09  2.4632737854681868e-09  2.1572188487183769e-09  1.9054350722849050e-09  1.7018985934592259e-09  1.5418185423023123e-09  1.4214669580229492e-09  1.3381228218307141e-09  1.2898840066967413e-09  1.2753094938161521e-09  9.7498675968195803e-01  9.8341315035857191e-01  9.8087039088636285e-01  9.8025175248784635e-01  9.7946273381633187e-01  9.7891652455357336e-01  9.7856815941020547e-01  9.7828618595845951e-01  9.7782923165622837e-01  9.7696167261796774e-01  9.7560293659789965e-01  9.7386418850670364e-01  9.7199281315348229e-01  9.7032572664873928e-01  9.6919404915426988e-01  9.6877643470708807e-01  9.6904026873451155e-01  9.6980775519506912e-01  9.7089341987912026e-01  9.7217680951286745e-01  9.7358515475388152e-01  9.7505774321058980e-01  9.7656647713307110e-01  9.7814070488976901e-01  9.7987786413005906e-01  9.8191214702201868e-01  9.8431469257462145e-01  9.8702776759952870e-01  9.8990041817624164e-01  9.9274344574012430e-01  9.9527591832638951e-01  9.9702491970867324e-01  9.9767537861111388e-01  9.9765712992321043e-01  9.9766832596944588e-01  9.9771566631232544e-01  9.9734243835685898e-01  9.9599297771882966e-01  9.9165817355682850e-01  9.7488872143355298e-01  8.9660023154919222e-01  5.9172270361008406e-01  1.9992903379104324e-01  5.6281576101785698e-02  1.6091057632065281e-02  5.2425515713830119e-03  2.3188855919816431e-03  1.0269257768279101e-03  3.7468252206299921e-04  1.7451507789167819e-04  1.1561701940794544e-04  6.4207121475253024e-05  3.1072929985863780e-05  1.8840794265813394e-05  1.2375726662797417e-05  7.4567841176453106e-06  4.7780291622285951e-06  3.2491351954723486e-06  2.1992155323054842e-06  1.5381486985403185e-06  1.1060557574338336e-06  8.0792915037193947e-07  6.0325772168617775e-07  4.5824502199028020e-07  3.5344755826581372e-07  2.7652643289451304e-07  2.1896899291981108e-07  1.7526676252843335e-07  1.4160194715351945e-07  1.1533451693841377e-07  9.4603640007341204e-08  7.8073201650577553e-08  6.4772064568542067e-08  5.3982911968813404e-08  4.5169059541618629e-08  3.7923933170430769e-08  3.1935686024327860e-08  2.6962512242486472e-08  2.2814979999889928e-08  1.9343360244430613e-08  1.6428230182437844e-08  1.3973659209266731e-08  1.1901980563329290e-08  1.0150062290137916e-08  8.6661710641520284e-09  7.4078264975934803e-09  6.3399125785084277e-09  5.4333979758984559e-09  4.6641328082583849e-09  4.0120639752586891e-09  3.4604673621421248e-09  2.9954468330953208e-09  2.6054336713393210e-09  2.2808637011966378e-09  2.0138544619353897e-09  1.7980143262756639e-09  1.6282164576877059e-09  1.5004663544346132e-09  1.4117373472843788e-09  1.3598877617885067e-09  1.3433240911341278e-09  9.9986835007214281e-01  9.7476823287821968e-01  9.7616432281416776e-01  9.7080364200838665e-01  9.6155094870905877e-01  9.4728544306033802e-01  9.2753248113130182e-01  9.0240448506615034e-01  8.7290294632909382e-01  8.4110627748521638e-01  8.0968424594378796e-01  7.8130651451658695e-01  7.5861664781135185e-01  7.4431071975572860e-01  7.4048765915098036e-01  7.4795173413301375e-01  7.6578190261340429e-01  7.9143886410599040e-01  8.2139658630602275e-01  8.5200273260653692e-01  8.8034196374339979e-01  9.0488646846757081e-01  9.2545012761207412e-01  9.4250568182680261e-01  9.5662886917516377e-01  9.6804965531815901e-01  9.7654441757469057e-01  9.8196162671820642e-01  9.8455315306598934e-01  9.8495311358335891e-01  9.8410977726779225e-01  9.8360927162101164e-01  9.8542932401390326e-01  9.8957176196379215e-01  9.9319038200104226e-01  9.9456820812240709e-01  9.9462353278895044e-01  9.9367086402743676e-01  9.9018158500380615e-01  9.7918333955461057e-01  9.4091061544411736e-01  8.0701213662502014e-01  4.7933284491545014e-01  1.7124670351846677e-01  5.2922580234352881e-02  2.0445144309024874e-02  6.6452847929738511e-03  1.9109745637953697e-03  1.1188588395109177e-03  7.1520641271349415e-04  2.6687447117568951e-04  9.0566828223202856e-05  6.9190106288894983e-05  4.4583941046048469e-05  2.0374545210572617e-05  1.2281095540047932e-05  8.3082928848681077e-06  4.9293168847287899e-06  3.2219535566189603e-06  2.2084839328645778e-06  1.5018824189891330e-06  1.0690221003573860e-06  7.7624290411273656e-07  5.7435072703016681e-07  4.3445582783458282e-07  3.3374012059847985e-07  2.6034769754055153e-07  2.0574177203276949e-07  1.6442502359422537e-07  1.3270391821224328e-07  1.0800828985318398e-07  8.8552883108551598e-08  7.3059853343096800e-08  6.0605421352771062e-08  5.0510020993973887e-08  4.2266773162820764e-08  3.5492664110766364e-08  2.9894521633137944e-08  2.5245444765897721e-08  2.1367960111325637e-08  1.8121946960662263e-08  1.5395781035622573e-08  1.3099890568236580e-08  1.1161843420373269e-08  9.5227921429281494e-09  8.1345691247346538e-09  6.9576543518383237e-09  5.9594124173365076e-09  5.1128932359035287e-09  4.3957114075323041e-09  3.7893071122019947e-09  3.2782464711619705e-09  2.8497395173837692e-09  2.4931970760638113e-09  2.1999297110436451e-09  1.9628627411286819e-09  1.7763342347379446e-09  1.6359117910775733e-09  1.5382612650769156e-09  1.4809853672827424e-09  1.4626246651168375e-09  5.3352142166925209e-01  5.6620063917178165e-01  5.4187434228502862e-01  5.0374578873513010e-01  4.5507689557885467e-01  4.0013461054759963e-01  3.4345513256391241e-01  2.8833844439078038e-01  2.3784391793686122e-01  1.9452719639086269e-01  1.5969029572459492e-01  1.3331644796613859e-01  1.1488031902159530e-01  1.0418947947807583e-01  1.0121592595795463e-01  1.0607707183281306e-01  1.1907611104632788e-01  1.4051191922740183e-01  1.7029614287206379e-01  2.0740782686210141e-01  2.4961146065384118e-01  2.9432751132062579e-01  3.4019916186314797e-01  3.8728596137493598e-01  4.3765191972658202e-01  4.9478608237258542e-01  5.5965052780819691e-01  6.2999525154082314e-01  7.0179068945653389e-01  7.7141869735299984e-01  8.3635112580779147e-01  8.9372310770334551e-01  9.3746769837325139e-01  9.6154180511811138e-01  9.7121326159033605e-01  9.7839072434510188e-01  9.8469829910515150e-01  9.8708805741865147e-01  9.8624135623318376e-01  9.8131402081143237e-01  9.6701564480433133e-01  9.2854571472800218e-01  8.2499419564727083e-01  5.8070401815574824e-01  2.7521182136101868e-01  8.8118897015712558e-02  2.9743244936756331e-02  1.5429589092283293e-02  6.2552677419267892e-03  1.3457873402088574e-03  5.5256548657237352e-04  5.6536685917156829e-04  2.6073045081691243e-04  6.8726770810536173e-05  4.9833248413848826e-05  3.4287974041681817e-05  1.4694421982404052e-05  9.1434996232998130e-06  6.0349348661747595e-06  3.5004814600499672e-06  2.3611541664407963e-06  1.5967734828772357e-06  1.0974118538652729e-06  7.9089227572385567e-07  5.7734326553263157e-07  4.3247511180230317e-07  3.3000047027105025e-07  2.5586384750581895e-07  2.0132599430687219e-07  1.6032938731327318e-07  1.2905013241735829e-07  1.0481577620987576e-07  8.5798215845972618e-08  7.0701843200984672e-08  5.8596855435184434e-08  4.8804485981547216e-08  4.0821334626680442e-08  3.4268989072583690e-08  2.8859112487174791e-08  2.4369431453727935e-08  2.0626688857858726e-08  1.7494497872594695e-08  1.4864517712103348e-08  1.2650019524482411e-08  1.0781031190037384e-08  9.2008039423921622e-09  7.8629791314811646e-09  6.7295952381158090e-09  5.7693618588754848e-09  4.9564765746648777e-09  4.2695667740157742e-09  3.6909506108787594e-09  3.2059845316770262e-09  2.8025952883341270e-09  2.4708571600583874e-09  2.2027271208479502e-09  1.9917457456893933e-09  1.8328830018616462e-09  1.7223389781681751e-09  1.6574808818846042e-09  1.6367524450863866e-09  2.9935302120907604e-02  7.7597093686843175e-03  9.3201338061919730e-05  -6.0129663723532496e-03  -1.2610849594819420e-02  -1.6935102899736723e-02  -1.8538356641572194e-02  -1.7781388235189897e-02  -1.5319277420761994e-02  -1.1960736912292470e-02  -8.4718026971696073e-03  -5.3661645946856606e-03  -2.8758895771659426e-03  -1.0944511420839717e-03  -7.6311135239385129e-05  1.6823077305261368e-04  -3.4577041417001021e-04  -1.5749271915083364e-03  -3.4043405724796293e-03  -5.5889510536653690e-03  -7.7251015358614479e-03  -9.3223079094289889e-03  -9.9253481967767065e-03  -9.1155187485101093e-03  -6.3268422093727752e-03  -4.9098356197059632e-04  1.0188062684651675e-02  2.8243583993197839e-02  5.6541581240054414e-02  9.8577204018535453e-02  1.5967795537573018e-01  2.4960398271248699e-01  3.8195148472628548e-01  5.6097704253312752e-01  7.5025103810523197e-01  8.8133462451446487e-01  9.3886931444103394e-01  9.6367942938893092e-01  9.7603379019739978e-01  9.7992899822163615e-01  9.7885748732789057e-01  9.7172023317690037e-01  9.5333780048076711e-01  9.1277107978521499e-01  8.0258718644162608e-01  5.7023131203236710e-01  2.8621196810243604e-01  9.3252668632817295e-02  2.5543280098205022e-02  1.3822305580723854e-02  7.6829435425838548e-03  2.0141794105444843e-03  3.8239722882214903e-04  4.5188303144200236e-04  2.4349617742786439e-04  5.7852449616396781e-05  4.1710616568485570e-05  2.6274498332697925e-05  1.0625873068908067e-05  7.2473933903694760e-06  4.3595866148579559e-06  2.5880707063030909e-06  1.7808614888169379e-06  1.1819258632625004e-06  8.3347846754533873e-07  6.0227854035876876e-07  4.4456813451374435e-07  3.3652622277094050e-07  2.5894170725754102e-07  2.0260621237180708e-07  1.6063623921396725e-07  1.2884751312012764e-07  1.0437098390740685e-07  8.5256280592910598e-08  7.0143621306399992e-08  5.8064219261517495e-08  4.8317555222884997e-08  4.0387678559167213e-08  3.3889278325542008e-08  2.8530382691292888e-08  2.4087014855259563e-08  2.0385347618030802e-08  1.7289064078678340e-08  1.4690256319492596e-08  1.2502792501983339e-08  1.0657368888887135e-08  9.0979225755232839e-09  7.7787608847981090e-09  6.6625394712109882e-09  5.7185531038078693e-09  4.9215325210510576e-09  4.2506124259368577e-09  3.6885966012898372e-09  3.2213126518910581e-09  2.8371752632528757e-09  2.5267502906282607e-09  2.2825367048660687e-09  2.0986385933076143e-09  1.9706881787704962e-09  1.8956280277104878e-09  1.8717334302059389e-09  9.6509416040008525e-04  5.5114559907810607e-03  9.3208989763392432e-03  9.7303904391227818e-03  1.0234072214470008e-02  1.0528182462976514e-02  1.0230460580943842e-02  9.4210919581081218e-03  8.2370333355467409e-03  6.8633563166018248e-03  5.4972426661278589e-03  4.2918192008931785e-03  3.3252455056525802e-03  2.6242403794508929e-03  2.2019734590269153e-03  2.0667769913247144e-03  2.2213949928794100e-03  2.6661571654396704e-03  3.3913454934115430e-03  4.3600394693762111e-03  5.4910434054945886e-03  6.6642049975362159e-03  7.7615027380359188e-03  8.7043558267032410e-03  9.4507712960105513e-03  9.9523054632719050e-03  1.0092840567079929e-02  9.6681536840009519e-03  8.5161079497137696e-03  6.7570485627677906e-03  5.1329999077808037e-03  5.7849037124127669e-03  1.4903732944834448e-02  5.0889195853692372e-02  1.5980969890773097e-01  3.9329412658007712e-01  6.8723580523467820e-01  8.7571480573663441e-01  9.4565798069720641e-01  9.7312553789795631e-01  9.8268734094304577e-01  9.8548055501432985e-01  9.8433591174706336e-01  9.7815607271823302e-01  9.6511645771709131e-01  9.3956561876180922e-01  8.6065788934027698e-01  6.6637401907392291e-01  3.8400075188396332e-01  1.4665796111090593e-01  3.6612204471586918e-02  1.3097237286408627e-02  8.3846895906920672e-03  2.7135889853516070e-03  4.2587756339861814e-04  4.0019883959527226e-04  1.9875723274819356e-04  4.4269635567033890e-05  3.7056375228555278e-05  1.7982506217706501e-05  7.9278199841188576e-06  5.6357203854265614e-06  3.0346890242957207e-06  1.9868679289997857e-06  1.3227805828603533e-06  8.9550024440804105e-07  6.4225734728316718e-07  4.6672231326479178e-07  3.4992772274159233e-07  2.6719580606405199e-07  2.0776250852554169e-07  1.6396379339618776e-07  1.3103034569393310e-07  1.0584107878842202e-07  8.6268995243504500e-08  7.0859362934595179e-08  5.8583214835385091e-08  4.8703754449228944e-08  4.0682285192704331e-08  3.4119193424916203e-08  2.8713435277878489e-08  2.4235241614197009e-08  2.0507106768508202e-08  1.7390363695913361e-08  1.4775638140393411e-08  1.2575893652935991e-08  1.0721295627733113e-08  9.1554890243043435e-09  7.8326526099396982e-09  6.7154173074777383e-09  5.7731368281669793e-09  4.9806625454681140e-09  4.3173026726606091e-09  3.7661046715713400e-09  3.3131909035554027e-09  2.9473503464672025e-09  2.6596026845015348e-09  2.4429926685139015e-09  2.2922863085657156e-09  2.2039361095805826e-09  2.1758945956742208e-09  5.2520575670935560e-04  6.3892466274546931e-05  -1.2915449370157516e-03  -1.8823609482916111e-03  -2.0123437204136153e-03  -2.2201606875969365e-03  -2.2960277732244619e-03  -2.2064685727536336e-03  -1.9873915125160025e-03  -1.6814624179288613e-03  -1.3422708926048210e-03  -1.0191971815927908e-03  -7.4411804459250752e-04  -5.3038989694868203e-04  -3.8273817895875892e-04  -3.0393035875780639e-04  -2.9510920531658583e-04  -3.5625919484961213e-04  -4.8597828403702451e-04  -6.7803311873291931e-04  -9.1622538537400788e-04  -1.1718156974348107e-03  -1.4094794335076425e-03  -1.5981880777656604e-03  -1.7149729117218405e-03  -1.7362151128963177e-03  -1.6196620568837206e-03  -1.2856421579809383e-03  -6.1971265685782423e-04  5.0178615550831808e-04  2.2035424581910807e-03  4.6602715796350939e-03  8.2155590457682632e-03  1.3654658117645307e-02  2.3642328308908448e-02  5.7915070673929793e-02  2.1291334862494460e-01  5.6791770963444166e-01  8.6057980646601473e-01  9.5448211579585185e-01  9.8194383285937192e-01  9.8993814929019874e-01  9.9232069406037970e-01  9.9232940946351145e-01  9.9043967811574618e-01  9.8441896217004643e-01  9.7287158364831006e-01  9.5518918932357411e-01  9.0519679439929102e-01  7.6083839840578071e-01  5.0275663293859318e-01  2.2740612384435591e-01  6.2079295012673584e-02  1.5377971609098654e-02  8.3430955116761546e-03  2.6651767991531044e-03  4.1753795034800211e-04  3.6902531450689827e-04  1.2714754352166936e-04  3.5142471523260063e-05  3.0043923004637582e-05  1.0428900923905159e-05  6.5357286700453323e-06  3.8708659542311422e-06  2.2004877607200005e-06  1.5014508838769300e-06  9.7788940935319538e-07  6.9161152654175239e-07  4.9670318837461670e-07  3.6819664649281095e-07  2.7919775774918198e-07  2.1572742433354097e-07  1.6949227075791229e-07  1.3496418763468177e-07  1.0872516829779848e-07  8.8436143385670553e-08  7.2525153481342495e-08  5.9888930471926774e-08  4.9744386590636434e-08  4.1523162237470510e-08  3.4806264464873975e-08  2.9279841751974910e-08  2.4705485256394062e-08  2.0899816912321654e-08  1.7720116508671018e-08  1.5054184383845655e-08  1.2812990719833550e-08  1.0925292299167573e-08  9.3337242854099626e-09  7.9917561668777557e-09  6.8615337008523384e-09  5.9120952643833747e-09  5.1181397407126119e-09  4.4589487835255299e-09  3.9176810267692438e-09  3.4806975894456612e-09  3.1371664539385075e-09  2.8786252164545019e-09  2.6988319054733260e-09  2.5934538329691734e-09  2.5600886807122905e-09  1.0277949567894828e-05  -8.7981530807892650e-07  2.7203201378239858e-04  5.5423031336004956e-04  6.2209607881513718e-04  6.5427949039275409e-04  6.9053787910391799e-04  6.8081549432019326e-04  6.3174521324740407e-04  5.5445804232390650e-04  4.6194410567275033e-04  3.6856017076412607e-04  2.8542511889403547e-04  2.1840189335879334e-04  1.6960256328215300e-04  1.3995055871214080e-04  1.3001384846293013e-04  1.3999032200368600e-04  1.6982392472051827e-04  2.187414815