<?xml version="1.0"?>
<VTKFile type="UnstructuredGrid"  version="0.1"  >
<UnstructuredGrid>
<Piece  NumberOfPoints="5151" NumberOfCells="10000">
<Points>
<DataArray  type="Float64"  NumberOfComponents="3"  format="ascii">0 0 0  0.01 0 0  0.02 0 0  0.03 0 0  0.04 0 0  0.05 0 0  0.06 0 0  0.07000000000000001 0 0  0.08 0 0  0.09 0 0  0.1 0 0  0.11 0 0  0.12 0 0  0.13 0 0  0.14 0 0  0.15 0 0  0.16 0 0  0.17 0 0  0.18 0 0  0.19 0 0  0.2 0 0  0.21 0 0  0.22 0 0  0.23 0 0  0.24 0 0  0.25 0 0  0.26 0 0  0.27 0 0  0.28 0 0  0.29 0 0  0.3 0 0  0.31 0 0  0.32 0 0  0.33 0 0  0.34 0 0  0.35 0 0  0.36 0 0  0.37 0 0  0.38 0 0  0.39 0 0  0.4 0 0  0.41 0 0  0.42 0 0  0.43 0 0  0.44 0 0  0.45 0 0  0.46 0 0  0.47 0 0  0.48 0 0  0.49 0 0  0.5 0 0  0.51 0 0  0.52 0 0  0.53 0 0  0.54 0 0  0.55 0 0  0.5600000000000001 0 0  0.57 0 0  0.58 0 0  0.59 0 0  0.6 0 0  0.61 0 0  0.62 0 0  0.63 0 0  0.64 0 0  0.65 0 0  0.66 0 0  0.67 0 0  0.68 0 0  0.6899999999999999 0 0  0.7 0 0  0.71 0 0  0.72 0 0  0.73 0 0  0.74 0 0  0.75 0 0  0.76 0 0  0.77 0 0  0.78 0 0  0.79 0 0  0.8 0 0  0.8100000000000001 0 0  0.82 0 0  0.83 0 0  0.84 0 0  0.85 0 0  0.86 0 0  0.87 0 0  0.88 0 0  0.89 0 0  0.9 0 0  0.91 0 0  0.92 0 0  0.93 0 0  0.9399999999999999 0 0  0.95 0 0  0.96 0 0  0.97 0 0  0.98 0 0  0.99 0 0  1 0 0  0 0.01 0  0.01 0.01 0  0.02 0.01 0  0.03 0.01 0  0.04 0.01 0  0.05 0.01 0  0.06 0.01 0  0.07000000000000001 0.01 0  0.08 0.01 0  0.09 0.01 0  0.1 0.01 0  0.11 0.01 0  0.12 0.01 0  0.13 0.01 0  0.14 0.01 0  0.15 0.01 0  0.16 0.01 0  0.17 0.01 0  0.18 0.01 0  0.19 0.01 0  0.2 0.01 0  0.21 0.01 0  0.22 0.01 0  0.23 0.01 0  0.24 0.01 0  0.25 0.01 0  0.26 0.01 0  0.27 0.01 0  0.28 0.01 0  0.29 0.01 0  0.3 0.01 0  0.31 0.01 0  0.32 0.01 0  0.33 0.01 0  0.34 0.01 0  0.35 0.01 0  0.36 0.01 0  0.37 0.01 0  0.38 0.01 0  0.39 0.01 0  0.4 0.01 0  0.41 0.01 0  0.42 0.01 0  0.43 0.01 0  0.44 0.01 0  0.45 0.01 0  0.46 0.01 0  0.47 0.01 0  0.48 0.01 0  0.49 0.01 0  0.5 0.01 0  0.51 0.01 0  0.52 0.01 0  0.53 0.01 0  0.54 0.01 0  0.55 0.01 0  0.5600000000000001 0.01 0  0.57 0.01 0  0.58 0.01 0  0.59 0.01 0  0.6 0.01 0  0.61 0.01 0  0.62 0.01 0  0.63 0.01 0  0.64 0.01 0  0.65 0.01 0  0.66 0.01 0  0.67 0.01 0  0.68 0.01 0  0.6899999999999999 0.01 0  0.7 0.01 0  0.71 0.01 0  0.72 0.01 0  0.73 0.01 0  0.74 0.01 0  0.75 0.01 0  0.76 0.01 0  0.77 0.01 0  0.78 0.01 0  0.79 0.01 0  0.8 0.01 0  0.8100000000000001 0.01 0  0.82 0.01 0  0.83 0.01 0  0.84 0.01 0  0.85 0.01 0  0.86 0.01 0  0.87 0.01 0  0.88 0.01 0  0.89 0.01 0  0.9 0.01 0  0.91 0.01 0  0.92 0.01 0  0.93 0.01 0  0.9399999999999999 0.01 0  0.95 0.01 0  0.96 0.01 0  0.97 0.01 0  0.98 0.01 0  0.99 0.01 0  1 0.01 0  0 0.02 0  0.01 0.02 0  0.02 0.02 0  0.03 0.02 0  0.04 0.02 0  0.05 0.02 0  0.06 0.02 0  0.07000000000000001 0.02 0  0.08 0.02 0  0.09 0.02 0  0.1 0.02 0  0.11 0.02 0  0.12 0.02 0  0.13 0.02 0  0.14 0.02 0  0.15 0.02 0  0.16 0.02 0  0.17 0.02 0  0.18 0.02 0  0.19 0.02 0  0.2 0.02 0  0.21 0.02 0  0.22 0.02 0  0.23 0.02 0  0.24 0.02 0  0.25 0.02 0  0.26 0.02 0  0.27 0.02 0  0.28 0.02 0  0.29 0.02 0  0.3 0.02 0  0.31 0.02 0  0.32 0.02 0  0.33 0.02 0  0.34 0.02 0  0.35 0.02 0  0.36 0.02 0  0.37 0.02 0  0.38 0.02 0  0.39 0.02 0  0.4 0.02 0  0.41 0.02 0  0.42 0.02 0  0.43 0.02 0  0.44 0.02 0  0.45 0.02 0  0.46 0.02 0  0.47 0.02 0  0.48 0.02 0  0.49 0.02 0  0.5 0.02 0  0.51 0.02 0  0.52 0.02 0  0.53 0.02 0  0.54 0.02 0  0.55 0.02 0  0.5600000000000001 0.02 0  0.57 0.02 0  0.58 0.02 0  0.59 0.02 0  0.6 0.02 0  0.61 0.02 0  0.62 0.02 0  0.63 0.02 0  0.64 0.02 0  0.65 0.02 0  0.66 0.02 0  0.67 0.02 0  0.68 0.02 0  0.6899999999999999 0.02 0  0.7 0.02 0  0.71 0.02 0  0.72 0.02 0  0.73 0.02 0  0.74 0.02 0  0.75 0.02 0  0.76 0.02 0  0.77 0.02 0  0.78 0.02 0  0.79 0.02 0  0.8 0.02 0  0.8100000000000001 0.02 0  0.82 0.02 0  0.83 0.02 0  0.84 0.02 0  0.85 0.02 0  0.86 0.02 0  0.87 0.02 0  0.88 0.02 0  0.89 0.02 0  0.9 0.02 0  0.91 0.02 0  0.92 0.02 0  0.93 0.02 0  0.9399999999999999 0.02 0  0.95 0.02 0  0.96 0.02 0  0.97 0.02 0  0.98 0.02 0  0.99 0.02 0  1 0.02 0  0 0.03 0  0.01 0.03 0  0.02 0.03 0  0.03 0.03 0  0.04 0.03 0  0.05 0.03 0  0.06 0.03 0  0.07000000000000001 0.03 0  0.08 0.03 0  0.09 0.03 0  0.1 0.03 0  0.11 0.03 0  0.12 0.03 0  0.13 0.03 0  0.14 0.03 0  0.15 0.03 0  0.16 0.03 0  0.17 0.03 0  0.18 0.03 0  0.19 0.03 0  0.2 0.03 0  0.21 0.03 0  0.22 0.03 0  0.23 0.03 0  0.24 0.03 0  0.25 0.03 0  0.26 0.03 0  0.27 0.03 0  0.28 0.03 0  0.29 0.03 0  0.3 0.03 0  0.31 0.03 0  0.32 0.03 0  0.33 0.03 0  0.34 0.03 0  0.35 0.03 0  0.36 0.03 0  0.37 0.03 0  0.38 0.03 0  0.39 0.03 0  0.4 0.03 0  0.41 0.03 0  0.42 0.03 0  0.43 0.03 0  0.44 0.03 0  0.45 0.03 0  0.46 0.03 0  0.47 0.03 0  0.48 0.03 0  0.49 0.03 0  0.5 0.03 0  0.51 0.03 0  0.52 0.03 0  0.53 0.03 0  0.54 0.03 0  0.55 0.03 0  0.5600000000000001 0.03 0  0.57 0.03 0  0.58 0.03 0  0.59 0.03 0  0.6 0.03 0  0.61 0.03 0  0.62 0.03 0  0.63 0.03 0  0.64 0.03 0  0.65 0.03 0  0.66 0.03 0  0.67 0.03 0  0.68 0.03 0  0.6899999999999999 0.03 0  0.7 0.03 0  0.71 0.03 0  0.72 0.03 0  0.73 0.03 0  0.74 0.03 0  0.75 0.03 0  0.76 0.03 0  0.77 0.03 0  0.78 0.03 0  0.79 0.03 0  0.8 0.03 0  0.8100000000000001 0.03 0  0.82 0.03 0  0.83 0.03 0  0.84 0.03 0  0.85 0.03 0  0.86 0.03 0  0.87 0.03 0  0.88 0.03 0  0.89 0.03 0  0.9 0.03 0  0.91 0.03 0  0.92 0.03 0  0.93 0.03 0  0.9399999999999999 0.03 0  0.95 0.03 0  0.96 0.03 0  0.97 0.03 0  0.98 0.03 0  0.99 0.03 0  1 0.03 0  0 0.04 0  0.01 0.04 0  0.02 0.04 0  0.03 0.04 0  0.04 0.04 0  0.05 0.04 0  0.06 0.04 0  0.07000000000000001 0.04 0  0.08 0.04 0  0.09 0.04 0  0.1 0.04 0  0.11 0.04 0  0.12 0.04 0  0.13 0.04 0  0.14 0.04 0  0.15 0.04 0  0.16 0.04 0  0.17 0.04 0  0.18 0.04 0  0.19 0.04 0  0.2 0.04 0  0.21 0.04 0  0.22 0.04 0  0.23 0.04 0  0.24 0.04 0  0.25 0.04 0  0.26 0.04 0  0.27 0.04 0  0.28 0.04 0  0.29 0.04 0  0.3 0.04 0  0.31 0.04 0  0.32 0.04 0  0.33 0.04 0  0.34 0.04 0  0.35 0.04 0  0.36 0.04 0  0.37 0.04 0  0.38 0.04 0  0.39 0.04 0  0.4 0.04 0  0.41 0.04 0  0.42 0.04 0  0.43 0.04 0  0.44 0.04 0  0.45 0.04 0  0.46 0.04 0  0.47 0.04 0  0.48 0.04 0  0.49 0.04 0  0.5 0.04 0  0.51 0.04 0  0.52 0.04 0  0.53 0.04 0  0.54 0.04 0  0.55 0.04 0  0.5600000000000001 0.04 0  0.57 0.04 0  0.58 0.04 0  0.59 0.04 0  0.6 0.04 0  0.61 0.04 0  0.62 0.04 0  0.63 0.04 0  0.64 0.04 0  0.65 0.04 0  0.66 0.04 0  0.67 0.04 0  0.68 0.04 0  0.6899999999999999 0.04 0  0.7 0.04 0  0.71 0.04 0  0.72 0.04 0  0.73 0.04 0  0.74 0.04 0  0.75 0.04 0  0.76 0.04 0  0.77 0.04 0  0.78 0.04 0  0.79 0.04 0  0.8 0.04 0  0.8100000000000001 0.04 0  0.82 0.04 0  0.83 0.04 0  0.84 0.04 0  0.85 0.04 0  0.86 0.04 0  0.87 0.04 0  0.88 0.04 0  0.89 0.04 0  0.9 0.04 0  0.91 0.04 0  0.92 0.04 0  0.93 0.04 0  0.9399999999999999 0.04 0  0.95 0.04 0  0.96 0.04 0  0.97 0.04 0  0.98 0.04 0  0.99 0.04 0  1 0.04 0  0 0.05 0  0.01 0.05 0  0.02 0.05 0  0.03 0.05 0  0.04 0.05 0  0.05 0.05 0  0.06 0.05 0  0.07000000000000001 0.05 0  0.08 0.05 0  0.09 0.05 0  0.1 0.05 0  0.11 0.05 0  0.12 0.05 0  0.13 0.05 0  0.14 0.05 0  0.15 0.05 0  0.16 0.05 0  0.17 0.05 0  0.18 0.05 0  0.19 0.05 0  0.2 0.05 0  0.21 0.05 0  0.22 0.05 0  0.23 0.05 0  0.24 0.05 0  0.25 0.05 0  0.26 0.05 0  0.27 0.05 0  0.28 0.05 0  0.29 0.05 0  0.3 0.05 0  0.31 0.05 0  0.32 0.05 0  0.33 0.05 0  0.34 0.05 0  0.35 0.05 0  0.36 0.05 0  0.37 0.05 0  0.38 0.05 0  0.39 0.05 0  0.4 0.05 0  0.41 0.05 0  0.42 0.05 0  0.43 0.05 0  0.44 0.05 0  0.45 0.05 0  0.46 0.05 0  0.47 0.05 0  0.48 0.05 0  0.49 0.05 0  0.5 0.05 0  0.51 0.05 0  0.52 0.05 0  0.53 0.05 0  0.54 0.05 0  0.55 0.05 0  0.5600000000000001 0.05 0  0.57 0.05 0  0.58 0.05 0  0.59 0.05 0  0.6 0.05 0  0.61 0.05 0  0.62 0.05 0  0.63 0.05 0  0.64 0.05 0  0.65 0.05 0  0.66 0.05 0  0.67 0.05 0  0.68 0.05 0  0.6899999999999999 0.05 0  0.7 0.05 0  0.71 0.05 0  0.72 0.05 0  0.73 0.05 0  0.74 0.05 0  0.75 0.05 0  0.76 0.05 0  0.77 0.05 0  0.78 0.05 0  0.79 0.05 0  0.8 0.05 0  0.8100000000000001 0.05 0  0.82 0.05 0  0.83 0.05 0  0.84 0.05 0  0.85 0.05 0  0.86 0.05 0  0.87 0.05 0  0.88 0.05 0  0.89 0.05 0  0.9 0.05 0  0.91 0.05 0  0.92 0.05 0  0.93 0.05 0  0.9399999999999999 0.05 0  0.95 0.05 0  0.96 0.05 0  0.97 0.05 0  0.98 0.05 0  0.99 0.05 0  1 0.05 0  0 0.06 0  0.01 0.06 0  0.02 0.06 0  0.03 0.06 0  0.04 0.06 0  0.05 0.06 0  0.06 0.06 0  0.07000000000000001 0.06 0  0.08 0.06 0  0.09 0.06 0  0.1 0.06 0  0.11 0.06 0  0.12 0.06 0  0.13 0.06 0  0.14 0.06 0  0.15 0.06 0  0.16 0.06 0  0.17 0.06 0  0.18 0.06 0  0.19 0.06 0  0.2 0.06 0  0.21 0.06 0  0.22 0.06 0  0.23 0.06 0  0.24 0.06 0  0.25 0.06 0  0.26 0.06 0  0.27 0.06 0  0.28 0.06 0  0.29 0.06 0  0.3 0.06 0  0.31 0.06 0  0.32 0.06 0  0.33 0.06 0  0.34 0.06 0  0.35 0.06 0  0.36 0.06 0  0.37 0.06 0  0.38 0.06 0  0.39 0.06 0  0.4 0.06 0  0.41 0.06 0  0.42 0.06 0  0.43 0.06 0  0.44 0.06 0  0.45 0.06 0  0.46 0.06 0  0.47 0.06 0  0.48 0.06 0  0.49 0.06 0  0.5 0.06 0  0.51 0.06 0  0.52 0.06 0  0.53 0.06 0  0.54 0.06 0  0.55 0.06 0  0.5600000000000001 0.06 0  0.57 0.06 0  0.58 0.06 0  0.59 0.06 0  0.6 0.06 0  0.61 0.06 0  0.62 0.06 0  0.63 0.06 0  0.64 0.06 0  0.65 0.06 0  0.66 0.06 0  0.67 0.06 0  0.68 0.06 0  0.6899999999999999 0.06 0  0.7 0.06 0  0.71 0.06 0  0.72 0.06 0  0.73 0.06 0  0.74 0.06 0  0.75 0.06 0  0.76 0.06 0  0.77 0.06 0  0.78 0.06 0  0.79 0.06 0  0.8 0.06 0  0.8100000000000001 0.06 0  0.82 0.06 0  0.83 0.06 0  0.84 0.06 0  0.85 0.06 0  0.86 0.06 0  0.87 0.06 0  0.88 0.06 0  0.89 0.06 0  0.9 0.06 0  0.91 0.06 0  0.92 0.06 0  0.93 0.06 0  0.9399999999999999 0.06 0  0.95 0.06 0  0.96 0.06 0  0.97 0.06 0  0.98 0.06 0  0.99 0.06 0  1 0.06 0  0 0.07000000000000001 0  0.01 0.07000000000000001 0  0.02 0.07000000000000001 0  0.03 0.07000000000000001 0  0.04 0.07000000000000001 0  0.05 0.07000000000000001 0  0.06 0.07000000000000001 0  0.07000000000000001 0.07000000000000001 0  0.08 0.07000000000000001 0  0.09 0.07000000000000001 0  0.1 0.07000000000000001 0  0.11 0.07000000000000001 0  0.12 0.07000000000000001 0  0.13 0.07000000000000001 0  0.14 0.07000000000000001 0  0.15 0.07000000000000001 0  0.16 0.07000000000000001 0  0.17 0.07000
[...]
<PointData  Vectors="Displacement"> 
<DataArray  type="Float64"  Name="Displacement"  NumberOfComponents="3" format="ascii">0.0000000000000000e+00 0.0000000000000000e+00 0.0000000000000000e+00  1.2663004920541444e-06 7.7988057471674497e-07 0.0000000000000000e+00  2.4141622128774866e-06 1.7119587865255931e-06 0.0000000000000000e+00  3.5194169957716276e-06 3.0450992755272224e-06 0.0000000000000000e+00  4.5790433644093633e-06 4.7951343475745927e-06 0.0000000000000000e+00  5.5862337829177110e-06 6.9426646633071611e-06 0.0000000000000000e+00  6.5349099558276932e-06 9.4574833263816683e-06 0.0000000000000000e+00  7.4200882576892455e-06 1.2303853558020465e-05 0.0000000000000000e+00  8.2373829527559313e-06 1.5441264836201844e-05 0.0000000000000000e+00  8.9831096438659573e-06 1.8824634979209199e-05 0.0000000000000000e+00  9.6547207387804974e-06 2.2405223372966137e-05 0.0000000000000000e+00  1.0251249678852997e-05 2.6132464148036544e-05 0.0000000000000000e+00  1.0773537935990806e-05 2.9956369996980945e-05 0.0000000000000000e+00  1.1224137906010057e-05 3.3829969910997482e-05 0.0000000000000000e+00  1.1606893805844940e-05 3.7711207539680806e-05 0.0000000000000000e+00  1.1926303295771374e-05 4.1563835961514213e-05 0.0000000000000000e+00  1.2186862690862375e-05 4.5357109132073657e-05 0.0000000000000000e+00  1.2392669641143476e-05 4.9064559938455408e-05 0.0000000000000000e+00  1.2547407729034714e-05 5.2662671137460715e-05 0.0000000000000000e+00  1.2654512618416929e-05 5.6130182104700398e-05 0.0000000000000000e+00  1.2717214890731391e-05 5.9448034544150957e-05 0.0000000000000000e+00  1.2738417781342777e-05 6.2599342694082030e-05 0.0000000000000000e+00  1.2720593895389673e-05 6.5569074224399801e-05 0.0000000000000000e+00  1.2665858123644171e-05 6.8343615354502955e-05 0.0000000000000000e+00  1.2576193982868115e-05 7.0910551992053083e-05 0.0000000000000000e+00  1.2453635556771586e-05 7.3258833875291404e-05 0.0000000000000000e+00  1.2300226603754853e-05 7.5379074449512376e-05 0.0000000000000000e+00  1.2117815796009218e-05 7.7263506158175996e-05 0.0000000000000000e+00  1.1907959552856299e-05 7.8905413646294617e-05 0.0000000000000000e+00  1.1672244053180616e-05 8.0298345616593066e-05 0.0000000000000000e+00  1.1413243837394177e-05 8.1435741821368827e-05 0.0000000000000000e+00  1.1136091392257258e-05 8.2311739304719446e-05 0.0000000000000000e+00  1.0849991530497934e-05 8.2923777924405210e-05 0.0000000000000000e+00  1.0568203631460834e-05 8.3277091279793791e-05 0.0000000000000000e+00  1.0305700655545930e-05 8.3388689284393257e-05 0.0000000000000000e+00  1.0075652099179372e-05 8.3287089142200448e-05 0.0000000000000000e+00  9.8869255407345106e-06 8.3007591155397041e-05 0.0000000000000000e+00  9.7431379182413515e-06 8.2587108119408351e-05 0.0000000000000000e+00  9.6433545200061546e-06 8.2061692113069451e-05 0.0000000000000000e+00  9.5856627059242003e-06 8.1468147678135007e-05 0.0000000000000000e+00  9.5637596018963770e-06 8.0841946700684487e-05 0.0000000000000000e+00  9.5526223539166225e-06 8.0183248514869397e-05 0.0000000000000000e+00  9.9965186109237677e-06 7.9827754027680538e-05 0.0000000000000000e+00  1.1702987029217138e-05 7.9382652309866299e-05 0.0000000000000000e+00  1.3211162260757860e-05 7.9663616852715432e-05 0.0000000000000000e+00  1.4482608863503538e-05 8.0019387101374441e-05 0.0000000000000000e+00  1.5636135029111181e-05 8.0340443597655848e-05 0.0000000000000000e+00  1.6753665536154545e-05 8.0663285086569772e-05 0.0000000000000000e+00  1.7871035350644858e-05 8.1039763635491722e-05 0.0000000000000000e+00  1.9035531187260925e-05 8.1439869938081062e-05 0.0000000000000000e+00  2.0207102087609154e-05 8.2032439580890775e-05 0.0000000000000000e+00  2.1341356641318306e-05 8.2765510325043492e-05 0.0000000000000000e+00  2.2435131190379633e-05 8.3570643243542742e-05 0.0000000000000000e+00  2.3498278750125210e-05 8.4433287284797510e-05 0.0000000000000000e+00  2.4535206950192156e-05 8.5360741765091457e-05 0.0000000000000000e+00  2.5544051842607757e-05 8.6360515857048748e-05 0.0000000000000000e+00  2.6520586814568763e-05 8.7434779039986888e-05 0.0000000000000000e+00  2.7460649035966940e-05 8.8582027059285937e-05 0.0000000000000000e+00  2.8361247487046595e-05 8.9798056293707431e-05 0.0000000000000000e+00  2.9220728342958066e-05 9.1077542817677643e-05 0.0000000000000000e+00  3.0038414439433590e-05 9.2414996512496869e-05 0.0000000000000000e+00  3.0814520160044262e-05 9.3804513299187848e-05 0.0000000000000000e+00  3.1550052548974240e-05 9.5240334668511358e-05 0.0000000000000000e+00  3.2246525201710263e-05 9.6717345403976582e-05 0.0000000000000000e+00  3.2905652810711925e-05 9.8231177305120850e-05 0.0000000000000000e+00  3.3529149684263448e-05 9.9778093665652741e-05 0.0000000000000000e+00  3.4118620843966014e-05 1.0135486657602085e-04 0.0000000000000000e+00  3.4675495221129074e-05 1.0295868944467823e-04 0.0000000000000000e+00  3.5201002690097782e-05 1.0458705014013936e-04 0.0000000000000000e+00  3.5696197887917158e-05 1.0623760746630337e-04 0.0000000000000000e+00  3.6162010108165875e-05 1.0790811432111805e-04 0.0000000000000000e+00  3.6599294267769148e-05 1.0959639052884934e-04 0.0000000000000000e+00  3.7008867876843134e-05 1.1130032753129490e-04 0.0000000000000000e+00  3.7391528581330400e-05 1.1301790770405032e-04 0.0000000000000000e+00  3.7748054390492746e-05 1.1474722221353658e-04 0.0000000000000000e+00  3.8079193881841435e-05 1.1648647625791902e-04 0.0000000000000000e+00  3.8385654948673264e-05 1.1823397884520101e-04 0.0000000000000000e+00  3.8668098553977001e-05 1.1998812093177354e-04 0.0000000000000000e+00  3.8927140551822312e-05 1.2174734848086715e-04 0.0000000000000000e+00  3.9163361679133641e-05 1.2351013657359530e-04 0.0000000000000000e+00  3.9377324033636883e-05 1.2527496880449906e-04 0.0000000000000000e+00  3.9569591692597520e-05 1.2704032412238695e-04 0.0000000000000000e+00  3.9740753222946264e-05 1.2880467167799002e-04 0.0000000000000000e+00  3.9891444299367779e-05 1.3056647326740081e-04 0.0000000000000000e+00  4.0022369205638695e-05 1.3232419252180223e-04 0.0000000000000000e+00  4.0134320488822451e-05 1.3407630993200834e-04 0.0000000000000000e+00  4.0228196393693139e-05 1.3582134296970282e-04 0.0000000000000000e+00  4.0305015903853553e-05 1.3755787086757370e-04 0.0000000000000000e+00  4.0365931260680438e-05 1.3928456397073309e-04 0.0000000000000000e+00  4.0412237734731151e-05 1.4100021792489123e-04 0.0000000000000000e+00  4.0445380192944174e-05 1.4270379330349228e-04 0.0000000000000000e+00  4.0466955621610674e-05 1.4439446159782656e-04 0.0000000000000000e+00  4.0478710168689312e-05 1.4607165880875026e-04 0.0000000000000000e+00  4.0482528325489013e-05 1.4773514817257574e-04 0.0000000000000000e+00  4.0480410320471528e-05 1.4938509373046247e-04 0.0000000000000000e+00  4.0474431178993869e-05 1.5102214617067905e-04 0.0000000000000000e+00  4.0466670366251139e-05 1.5264754059760271e-04 0.0000000000000000e+00  4.0459092898046501e-05 1.5426319944806678e-04 0.0000000000000000e+00  4.0453347896260615e-05 1.5587181233369060e-04 0.0000000000000000e+00  4.0450418215103282e-05 1.5747678871589569e-04 0.0000000000000000e+00  4.0449948742785104e-05 1.5908166052356799e-04 0.0000000000000000e+00  0.0000000000000000e+00 0.0000000000000000e+00 0.0000000000000000e+00  6.1498683456645935e-07 3.9153887788666289e-07 0.0000000000000000e+00  1.3424440033756751e-06 1.3187992646648483e-06 0.0000000000000000e+00  2.0372884598603086e-06 2.6635261695707833e-06 0.0000000000000000e+00  2.7006366321693379e-06 4.4287714903695024e-06 0.0000000000000000e+00  3.3350770083239402e-06 6.5930983876389896e-06 0.0000000000000000e+00  3.9421668988742084e-06 9.1258600421640286e-06 0.0000000000000000e+00  4.5226059688990299e-06 1.1991271504600113e-05 0.0000000000000000e+00  5.0765982506947830e-06 1.5148890583391790e-05 0.0000000000000000e+00  5.6040343108256261e-06 1.8553599331373331e-05 0.0000000000000000e+00  6.1045667575261417e-06 2.2156431872238444e-05 0.0000000000000000e+00  6.5776501605386581e-06 2.5906422988112332e-05 0.0000000000000000e+00  7.0226009814397240e-06 2.9753078472455779e-05 0.0000000000000000e+00  7.4387070722375511e-06 3.3648907468038546e-05 0.0000000000000000e+00  7.8253886357419916e-06 3.7551429149220087e-05 0.0000000000000000e+00  8.1823643737988953e-06 4.1424168320000097e-05 0.0000000000000000e+00  8.5097424696822688e-06 4.5236371486264315e-05 0.0000000000000000e+00  8.8080215646201654e-06 4.8961679787239148e-05 0.0000000000000000e+00  9.0780392088043282e-06 5.2576651304357607e-05 0.0000000000000000e+00  9.3208711481807263e-06 5.6060037586048039e-05 0.0000000000000000e+00  9.5376555101799741e-06 5.9392824972946195e-05 0.0000000000000000e+00  9.7294072956438122e-06 6.2558262224683190e-05 0.0000000000000000e+00  9.8969108361173361e-06 6.5541496265423302e-05 0.0000000000000000e+00  1.0040734127480175e-05 6.8329034248100615e-05 0.0000000000000000e+00  1.0161354813609647e-05 7.0908457662062171e-05 0.0000000000000000e+00  1.0259294419278841e-05 7.3268638206134496e-05 0.0000000000000000e+00  1.0335142550306530e-05 7.5400170050732410e-05 0.0000000000000000e+00  1.0389470917295446e-05 7.7295406483511372e-05 0.0000000000000000e+00  1.0422734242594563e-05 7.8947844889093165e-05 0.0000000000000000e+00  1.0435289944962604e-05 8.0351146741921894e-05 0.0000000000000000e+00  1.0427688625468540e-05 8.1498452175438177e-05 0.0000000000000000e+00  1.0401383795602708e-05 8.2382848878033484e-05 0.0000000000000000e+00  1.0359814068420254e-05 8.2999950632550701e-05 0.0000000000000000e+00  1.0308987610515739e-05 8.3353231633620785e-05 0.0000000000000000e+00  1.0256546036887624e-05 8.3459211555847210e-05 0.0000000000000000e+00  1.0209839809152894e-05 8.3347483470730464e-05 0.0000000000000000e+00  1.0174430152234268e-05 8.3055278992674893e-05 0.0000000000000000e+00  1.0153035783397549e-05 8.2621741763823074e-05 0.0000000000000000e+00  1.0144313526118821e-05 8.2085255281791661e-05 0.0000000000000000e+00  1.0142751887861096e-05 8.1480237661841568e-05 0.0000000000000000e+00  1.0145529409844922e-05 8.0839310861287276e-05 0.0000000000000000e+00  1.0155583896514152e-05 8.0172087101845150e-05 0.0000000000000000e+00  1.0223907007882908e-05 7.9504367455799380e-05 0.0000000000000000e+00  1.1913399701240240e-05 7.8661533285179008e-05 0.0000000000000000e+00  1.3221491327055304e-05 7.9117310433186557e-05 0.0000000000000000e+00  1.4324900350890682e-05 7.9541619944902762e-05 0.0000000000000000e+00  1.5375076213126933e-05 7.9883185486598771e-05 0.0000000000000000e+00  1.6409581419207062e-05 8.0207709394144108e-05 0.0000000000000000e+00  1.7440168156692183e-05 8.0579952273048422e-05 0.0000000000000000e+00  1.8513565316074894e-05 8.0948141957711358e-05 0.0000000000000000e+00  1.9583349183142479e-05 8.1551308828562257e-05 0.0000000000000000e+00  2.0625074130394480e-05 8.2305368626823475e-05 0.0000000000000000e+00  2.1641603103071341e-05 8.3124918095519909e-05 0.0000000000000000e+00  2.2635623362894400e-05 8.3998151607761573e-05 0.0000000000000000e+00  2.3604961827158700e-05 8.4936398092770582e-05 0.0000000000000000e+00  2.4545577301917824e-05 8.5948793484966072e-05 0.0000000000000000e+00  2.5453911360692200e-05 8.7037455279134366e-05 0.0000000000000000e+00  2.6327327861917554e-05 8.8200501031427734e-05 0.0000000000000000e+00  2.7164290301464514e-05 8.9433125582046426e-05 0.0000000000000000e+00  2.7964146650012634e-05 9.0729536184361130e-05 0.0000000000000000e+00  2.8726764280002572e-05 9.2083991809231293e-05 0.0000000000000000e+00  2.9452582842756482e-05 9.3490253057073737e-05 0.0000000000000000e+00  3.0142539210828538e-05 9.4942291682174643e-05 0.0000000000000000e+00  3.0797853453851092e-05 9.6434863876912474e-05 0.0000000000000000e+00  3.1419840715318026e-05 9.7963579182928408e-05 0.0000000000000000e+00  3.2009803857721440e-05 9.9524728944735171e-05 0.0000000000000000e+00  3.2568972796106239e-05 1.0111513880736539e-04 0.0000000000000000e+00  3.3098457620069545e-05 1.0273207729825573e-04 0.0000000000000000e+00  3.3599234860620638e-05 1.0437310832038920e-04 0.0000000000000000e+00  3.4072166901386478e-05 1.0603594988109396e-04 0.0000000000000000e+00  3.4518036097920237e-05 1.0771839202134057e-04 0.0000000000000000e+00  3.4937577127822523e-05 1.0941827349715365e-04 0.0000000000000000e+00  3.5331499446552425e-05 1.1113349369822677e-04 0.0000000000000000e+00  3.5700497027369735e-05 1.1286203981155578e-04 0.0000000000000000e+00  3.6045247292634712e-05 1.1460201054476881e-04 0.0000000000000000e+00  3.6366404462267996e-05 1.1635162369082937e-04 0.0000000000000000e+00  3.6664592964882680e-05 1.1810920495542794e-04 0.0000000000000000e+00  3.6940404858553362e-05 1.1987316320563048e-04 0.0000000000000000e+00  3.7194402942701378e-05 1.2164196010723836e-04 0.0000000000000000e+00  3.7427129423625604e-05 1.2341408124928214e-04 0.0000000000000000e+00  3.7639118941846732e-05 1.2518801343707091e-04 0.0000000000000000e+00  3.7830914386734111e-05 1.2696223038263392e-04 0.0000000000000000e+00  3.8003083979719638e-05 1.2873518721358808e-04 0.0000000000000000e+00  3.8156238378881357e-05 1.3050532317507267e-04 0.0000000000000000e+00  3.8291046888059200e-05 1.3227107146654917e-04 0.0000000000000000e+00  3.8408252149956888e-05 1.3403087513729796e-04 0.0000000000000000e+00  3.8508682916188658e-05 1.3578320819656293e-04 0.0000000000000000e+00  3.8593264598051485e-05 1.3752660145480562e-04 0.0000000000000000e+00  3.8663027308321273e-05 1.3925967301686151e-04 0.0000000000000000e+00  3.8719111014286332e-05 1.4098116374586662e-04 0.0000000000000000e+00  3.8762767244632958e-05 1.4268997838989261e-04 0.0000000000000000e+00  3.8795356532957458e-05 1.4438523341506697e-04 0.0000000000000000e+00  3.8818340439679919e-05 1.4606631292903304e-04 0.0000000000000000e+00  3.8833266576199807e-05 1.4773293439255687e-04 0.0000000000000000e+00  3.8841744586541312e-05 1.4938522600773421e-04 0.0000000000000000e+00  3.8845410603667879e-05 1.5102381742689784e-04 0.0000000000000000e+00  3.8845877451361873e-05 1.5264994390699722e-04 0.0000000000000000e+00  3.8844667916004862e-05 1.5426555909606434e-04 0.0000000000000000e+00  3.8843127767756187e-05 1.5587343781990005e-04 0.0000000000000000e+00  3.8842306136345845e-05 1.5747721314889721e-04 0.0000000000000000e+00  3.8842729573521752e-05 1.5908119105124973e-04 0.0000000000000000e+00  0.0000000000000000e+00 0.0000000000000000e+00 0.0000000000000000e+00  1.7882874415629353e-07 2.6181211398457551e-07 0.0000000000000000e+00  4.0254927228529739e-07 1.1141442409658459e-06 0.0000000000000000e+00  6.5130845235083900e-07 2.4542245143512221e-06 0.0000000000000000e+00  9.0193967994470383e-07 4.2251683615107004e-06 0.0000000000000000e+00  1.1552871844021247e-06 6.3950720969999338e-06 0.0000000000000000e+00  1.4156407532268263e-06 8.9317466392955966e-06 0.0000000000000000e+00  1.6877283532161514e-06 1.1799752964223300e-05 0.0000000000000000e+00  1.9759706262394191e-06 1.4959272383875897e-05 0.0000000000000000e+00  2.2839180513390391e-06 1.8365767166965328e-05 0.0000000000000000e+00  2.6135791639293571e-06 2.1970779390949994e-05 0.0000000000000000e+00  2.9648377488806446e-06 2.5723781118248910e-05 0.0000000000000000e+00  3.3352140196884565e-06 2.9574582854779820e-05 0.0000000000000000e+00  3.7201397121724697e-06 3.3475782960697132e-05 0.0000000000000000e+00  4.1137784363429344e-06 3.7384750412553602e-05 0.0000000000000000e+00  4.5101760498201230e-06 4.1264668709488346e-05 0.0000000000000000e+00  4.9045025584160935e-06 4.5084442425348972e-05 0.0000000000000000e+00  5.2937468645723033e-06 4.8817483758448356e-05 0.0000000000000000e+00  5.6764773167787393e-06 5.2440137347357797e-05 0.0000000000000000e+00  6.0521010868472582e-06 5.5930945973292390e-05 0.0000000000000000e+00  6.4201779065570682e-06 5.9270865499684258e-05 0.0000000000000000e+00  6.7800792840401819e-06 6.2443323717103089e-05 0.0000000000000000e+00  7.1309384576577819e-06 6.5433730926174561e-05 0.0000000000000000e+00  7.4716844255701249e-06 6.8228753757394687e-05 0.0000000000000000e+00  7.8011331509919907e-06 7.0815897267925167e-05 0.0000000000000000e+00  8.1181336955895190e-06 7.3183821804971344e-05 0.0000000000000000e+00  8.4216554531859265e-06 7.5323042757340851e-05 0.0000000000000000e+00  8.7107588888718379e-06 7.7226146571792920e-05 0.0000000000000000e+00  8.9844135908628626e-06 7.8887180707773620e-05 0.0000000000000000e+00  9.2411686947254912e-06 8.0300508834710220e-05 0.0000000000000000e+00  9.4788355658866715e-06 8.1459717969214823e-05 0.0000000000000000e+00  9.6946282814367919e-06 8.2357312516969752e-05 0.0000000000000000e+00  9.8861591938236862e-06 8.2986435854241053e-05 0.0000000000000000e+00  1.0052928043841854e-05 8.3347314346532663e-05 0.0000000000000000e+00  1.0197206003176317e-05 8.3455277874246839e-05 0.0000000000000000e+00  1.0323106341312034e-05 8.3341245534418305e-05 0.0000000000000000e+00  1.0435302194805281e-05 8.3044274883793678e-05 0.0000000000000000e+00  1.0537955939556585e-05 8.2605512391792610e-05 0.0000000000000000e+00  1.0631813998817581e-05 8.2066536797348091e-05 0.0000000000000000e+00  1.0711810721827285e-05 8.1463464147802403e-05 0.0000000000000000e+00  1.0766153477415826e-05 8.0813186765812736e-05 0.0000000000000000e+00  1.0801659904699626e-05 8.0106261434552414e-05 0.0000000000000000e+00  1.0841354887672584e-05 7.9380879230148881e-05 0.0000000000000000e+00  1.3785423217507585e-05 7.8056027849949858e-05 0.0000000000000000e+00  1.3774902057447499e-05 7.8843976702880876e-05 0.0000000000000000e+00  1.4339005616282294e-05 7.9225275613501112e-05 0.0000000000000000e+00  1.5171352225868620e-05 7.9510741122094022e-05 0.0000000000000000e+00  1.6085361915475720e-05 7.9812763761113288e-05 0.0000000000000000e+00  1.6991034909010311e-05 8.0178397062018549e-05 0.0000000000000000e+00  1.7991340601567764e-05 8.0445565104155439e-05 0.0000000000000000e+00  1.8994618252862915e-05 8.1090972871271930e-05 0.0000000000000000e+00  1.9959190468439862e-05 8.1884982870785090e-05 0.0000000000000000e+00  2.0904540673113436e-05 8.2713772935207272e-05 0.0000000000000000e+00  2.1836035308890024e-05 8.3590441766986562e-05 0.0000000000000000e+00  2.2745698353332373e-05 8.4536753941993572e-05 0.0000000000000000e+00  2.3625425777822103e-05 8.5561996380724431e-05 0.0000000000000000e+00  2.4471185382719599e-05 8.6665766426136407e-05 0.0000000000000000e+00  2.5281517888638730e-05 8.7845023147613665e-05 0.0000000000000000e+00  2.6056528206374435e-05 8.9093912377321191e-05 0.0000000000000000e+00  2.6796982705678376e-05 9.0406268645841820e-05 0.0000000000000000e+00  2.7503519359555031e-05 9.1776534405441500e-05 0.0000000000000000e+00  2.8177029451884617e-05 9.3198106920307133e-05 0.0000000000000000e+00  2.8818731581033909e-05 9.4664708088233027e-05 0.0000000000000000e+00  2.9429908690498622e-05 9.6171096410651270e-05 0.0000000000000000e+00  3.0011740502408599e-05 9.7712984218144866e-05 0.0000000000000000e+00  3.0565287586969392e-05 9.9286748602470213e-05 0.0000000000000000e+00  3.1091505915616262e-05 1.0088928519044578e-04 0.0000000000000000e+00  3.1591222433428911e-05 1.0251795731555829e-04 0.0000000000000000e+00  3.2065137143755125e-05 1.0417041201747800e-04 0.0000000000000000e+00  3.2513863534932476e-05 1.0584441372081985e-04 0.0000000000000000e+00  3.2937975435067191e-05 1.0753776549431419e-04 0.0000000000000000e+00  3.3338039856528469e-05 1.0924829987334935e-04 0.0000000000000000e+00  3.3714632782655595e-05 1.1097390330270135e-04 0.0000000000000000e+00  3.4068339298892842e-05 1.1271255407044301e-04 0.0000000000000000e+00  3.4399742968051726e-05 1.1446235228624194e-04 0.0000000000000000e+00  3.4709412202629698e-05 1.1622152765772431e-04 0.0000000000000000e+00  3.4997890236972556e-05 1.1798842436034871e-04 0.0000000000000000e+00  3.5265691881234558e-05 1.1976147103357351e-04 0.0000000000000000e+00  3.5513307204450304e-05 1.2153914586373090e-04 0.0000000000000000e+00  3.5741210642383319e-05 1.2331994464559107e-04 0.0000000000000000e+00  3.5949873552653835e-05 1.2510235650022039e-04 0.0000000000000000e+00  3.6139778421986640e-05 1.2688484913215504e-04 0.0000000000000000e+