<?xml version="1.0"?>
<VTKFile type="UnstructuredGrid"  version="0.1"  >
<UnstructuredGrid>
<Piece  NumberOfPoints="5151" NumberOfCells="10000">
<Points>
<DataArray  type="Float64"  NumberOfComponents="3"  format="ascii">0 0 0  0.01 0 0  0.02 0 0  0.03 0 0  0.04 0 0  0.05 0 0  0.06 0 0  0.07000000000000001 0 0  0.08 0 0  0.09 0 0  0.1 0 0  0.11 0 0  0.12 0 0  0.13 0 0  0.14 0 0  0.15 0 0  0.16 0 0  0.17 0 0  0.18 0 0  0.19 0 0  0.2 0 0  0.21 0 0  0.22 0 0  0.23 0 0  0.24 0 0  0.25 0 0  0.26 0 0  0.27 0 0  0.28 0 0  0.29 0 0  0.3 0 0  0.31 0 0  0.32 0 0  0.33 0 0  0.34 0 0  0.35 0 0  0.36 0 0  0.37 0 0  0.38 0 0  0.39 0 0  0.4 0 0  0.41 0 0  0.42 0 0  0.43 0 0  0.44 0 0  0.45 0 0  0.46 0 0  0.47 0 0  0.48 0 0  0.49 0 0  0.5 0 0  0.51 0 0  0.52 0 0  0.53 0 0  0.54 0 0  0.55 0 0  0.5600000000000001 0 0  0.57 0 0  0.58 0 0  0.59 0 0  0.6 0 0  0.61 0 0  0.62 0 0  0.63 0 0  0.64 0 0  0.65 0 0  0.66 0 0  0.67 0 0  0.68 0 0  0.6899999999999999 0 0  0.7 0 0  0.71 0 0  0.72 0 0  0.73 0 0  0.74 0 0  0.75 0 0  0.76 0 0  0.77 0 0  0.78 0 0  0.79 0 0  0.8 0 0  0.8100000000000001 0 0  0.82 0 0  0.83 0 0  0.84 0 0  0.85 0 0  0.86 0 0  0.87 0 0  0.88 0 0  0.89 0 0  0.9 0 0  0.91 0 0  0.92 0 0  0.93 0 0  0.9399999999999999 0 0  0.95 0 0  0.96 0 0  0.97 0 0  0.98 0 0  0.99 0 0  1 0 0  0 0.01 0  0.01 0.01 0  0.02 0.01 0  0.03 0.01 0  0.04 0.01 0  0.05 0.01 0  0.06 0.01 0  0.07000000000000001 0.01 0  0.08 0.01 0  0.09 0.01 0  0.1 0.01 0  0.11 0.01 0  0.12 0.01 0  0.13 0.01 0  0.14 0.01 0  0.15 0.01 0  0.16 0.01 0  0.17 0.01 0  0.18 0.01 0  0.19 0.01 0  0.2 0.01 0  0.21 0.01 0  0.22 0.01 0  0.23 0.01 0  0.24 0.01 0  0.25 0.01 0  0.26 0.01 0  0.27 0.01 0  0.28 0.01 0  0.29 0.01 0  0.3 0.01 0  0.31 0.01 0  0.32 0.01 0  0.33 0.01 0  0.34 0.01 0  0.35 0.01 0  0.36 0.01 0  0.37 0.01 0  0.38 0.01 0  0.39 0.01 0  0.4 0.01 0  0.41 0.01 0  0.42 0.01 0  0.43 0.01 0  0.44 0.01 0  0.45 0.01 0  0.46 0.01 0  0.47 0.01 0  0.48 0.01 0  0.49 0.01 0  0.5 0.01 0  0.51 0.01 0  0.52 0.01 0  0.53 0.01 0  0.54 0.01 0  0.55 0.01 0  0.5600000000000001 0.01 0  0.57 0.01 0  0.58 0.01 0  0.59 0.01 0  0.6 0.01 0  0.61 0.01 0  0.62 0.01 0  0.63 0.01 0  0.64 0.01 0  0.65 0.01 0  0.66 0.01 0  0.67 0.01 0  0.68 0.01 0  0.6899999999999999 0.01 0  0.7 0.01 0  0.71 0.01 0  0.72 0.01 0  0.73 0.01 0  0.74 0.01 0  0.75 0.01 0  0.76 0.01 0  0.77 0.01 0  0.78 0.01 0  0.79 0.01 0  0.8 0.01 0  0.8100000000000001 0.01 0  0.82 0.01 0  0.83 0.01 0  0.84 0.01 0  0.85 0.01 0  0.86 0.01 0  0.87 0.01 0  0.88 0.01 0  0.89 0.01 0  0.9 0.01 0  0.91 0.01 0  0.92 0.01 0  0.93 0.01 0  0.9399999999999999 0.01 0  0.95 0.01 0  0.96 0.01 0  0.97 0.01 0  0.98 0.01 0  0.99 0.01 0  1 0.01 0  0 0.02 0  0.01 0.02 0  0.02 0.02 0  0.03 0.02 0  0.04 0.02 0  0.05 0.02 0  0.06 0.02 0  0.07000000000000001 0.02 0  0.08 0.02 0  0.09 0.02 0  0.1 0.02 0  0.11 0.02 0  0.12 0.02 0  0.13 0.02 0  0.14 0.02 0  0.15 0.02 0  0.16 0.02 0  0.17 0.02 0  0.18 0.02 0  0.19 0.02 0  0.2 0.02 0  0.21 0.02 0  0.22 0.02 0  0.23 0.02 0  0.24 0.02 0  0.25 0.02 0  0.26 0.02 0  0.27 0.02 0  0.28 0.02 0  0.29 0.02 0  0.3 0.02 0  0.31 0.02 0  0.32 0.02 0  0.33 0.02 0  0.34 0.02 0  0.35 0.02 0  0.36 0.02 0  0.37 0.02 0  0.38 0.02 0  0.39 0.02 0  0.4 0.02 0  0.41 0.02 0  0.42 0.02 0  0.43 0.02 0  0.44 0.02 0  0.45 0.02 0  0.46 0.02 0  0.47 0.02 0  0.48 0.02 0  0.49 0.02 0  0.5 0.02 0  0.51 0.02 0  0.52 0.02 0  0.53 0.02 0  0.54 0.02 0  0.55 0.02 0  0.5600000000000001 0.02 0  0.57 0.02 0  0.58 0.02 0  0.59 0.02 0  0.6 0.02 0  0.61 0.02 0  0.62 0.02 0  0.63 0.02 0  0.64 0.02 0  0.65 0.02 0  0.66 0.02 0  0.67 0.02 0  0.68 0.02 0  0.6899999999999999 0.02 0  0.7 0.02 0  0.71 0.02 0  0.72 0.02 0  0.73 0.02 0  0.74 0.02 0  0.75 0.02 0  0.76 0.02 0  0.77 0.02 0  0.78 0.02 0  0.79 0.02 0  0.8 0.02 0  0.8100000000000001 0.02 0  0.82 0.02 0  0.83 0.02 0  0.84 0.02 0  0.85 0.02 0  0.86 0.02 0  0.87 0.02 0  0.88 0.02 0  0.89 0.02 0  0.9 0.02 0  0.91 0.02 0  0.92 0.02 0  0.93 0.02 0  0.9399999999999999 0.02 0  0.95 0.02 0  0.96 0.02 0  0.97 0.02 0  0.98 0.02 0  0.99 0.02 0  1 0.02 0  0 0.03 0  0.01 0.03 0  0.02 0.03 0  0.03 0.03 0  0.04 0.03 0  0.05 0.03 0  0.06 0.03 0  0.07000000000000001 0.03 0  0.08 0.03 0  0.09 0.03 0  0.1 0.03 0  0.11 0.03 0  0.12 0.03 0  0.13 0.03 0  0.14 0.03 0  0.15 0.03 0  0.16 0.03 0  0.17 0.03 0  0.18 0.03 0  0.19 0.03 0  0.2 0.03 0  0.21 0.03 0  0.22 0.03 0  0.23 0.03 0  0.24 0.03 0  0.25 0.03 0  0.26 0.03 0  0.27 0.03 0  0.28 0.03 0  0.29 0.03 0  0.3 0.03 0  0.31 0.03 0  0.32 0.03 0  0.33 0.03 0  0.34 0.03 0  0.35 0.03 0  0.36 0.03 0  0.37 0.03 0  0.38 0.03 0  0.39 0.03 0  0.4 0.03 0  0.41 0.03 0  0.42 0.03 0  0.43 0.03 0  0.44 0.03 0  0.45 0.03 0  0.46 0.03 0  0.47 0.03 0  0.48 0.03 0  0.49 0.03 0  0.5 0.03 0  0.51 0.03 0  0.52 0.03 0  0.53 0.03 0  0.54 0.03 0  0.55 0.03 0  0.5600000000000001 0.03 0  0.57 0.03 0  0.58 0.03 0  0.59 0.03 0  0.6 0.03 0  0.61 0.03 0  0.62 0.03 0  0.63 0.03 0  0.64 0.03 0  0.65 0.03 0  0.66 0.03 0  0.67 0.03 0  0.68 0.03 0  0.6899999999999999 0.03 0  0.7 0.03 0  0.71 0.03 0  0.72 0.03 0  0.73 0.03 0  0.74 0.03 0  0.75 0.03 0  0.76 0.03 0  0.77 0.03 0  0.78 0.03 0  0.79 0.03 0  0.8 0.03 0  0.8100000000000001 0.03 0  0.82 0.03 0  0.83 0.03 0  0.84 0.03 0  0.85 0.03 0  0.86 0.03 0  0.87 0.03 0  0.88 0.03 0  0.89 0.03 0  0.9 0.03 0  0.91 0.03 0  0.92 0.03 0  0.93 0.03 0  0.9399999999999999 0.03 0  0.95 0.03 0  0.96 0.03 0  0.97 0.03 0  0.98 0.03 0  0.99 0.03 0  1 0.03 0  0 0.04 0  0.01 0.04 0  0.02 0.04 0  0.03 0.04 0  0.04 0.04 0  0.05 0.04 0  0.06 0.04 0  0.07000000000000001 0.04 0  0.08 0.04 0  0.09 0.04 0  0.1 0.04 0  0.11 0.04 0  0.12 0.04 0  0.13 0.04 0  0.14 0.04 0  0.15 0.04 0  0.16 0.04 0  0.17 0.04 0  0.18 0.04 0  0.19 0.04 0  0.2 0.04 0  0.21 0.04 0  0.22 0.04 0  0.23 0.04 0  0.24 0.04 0  0.25 0.04 0  0.26 0.04 0  0.27 0.04 0  0.28 0.04 0  0.29 0.04 0  0.3 0.04 0  0.31 0.04 0  0.32 0.04 0  0.33 0.04 0  0.34 0.04 0  0.35 0.04 0  0.36 0.04 0  0.37 0.04 0  0.38 0.04 0  0.39 0.04 0  0.4 0.04 0  0.41 0.04 0  0.42 0.04 0  0.43 0.04 0  0.44 0.04 0  0.45 0.04 0  0.46 0.04 0  0.47 0.04 0  0.48 0.04 0  0.49 0.04 0  0.5 0.04 0  0.51 0.04 0  0.52 0.04 0  0.53 0.04 0  0.54 0.04 0  0.55 0.04 0  0.5600000000000001 0.04 0  0.57 0.04 0  0.58 0.04 0  0.59 0.04 0  0.6 0.04 0  0.61 0.04 0  0.62 0.04 0  0.63 0.04 0  0.64 0.04 0  0.65 0.04 0  0.66 0.04 0  0.67 0.04 0  0.68 0.04 0  0.6899999999999999 0.04 0  0.7 0.04 0  0.71 0.04 0  0.72 0.04 0  0.73 0.04 0  0.74 0.04 0  0.75 0.04 0  0.76 0.04 0  0.77 0.04 0  0.78 0.04 0  0.79 0.04 0  0.8 0.04 0  0.8100000000000001 0.04 0  0.82 0.04 0  0.83 0.04 0  0.84 0.04 0  0.85 0.04 0  0.86 0.04 0  0.87 0.04 0  0.88 0.04 0  0.89 0.04 0  0.9 0.04 0  0.91 0.04 0  0.92 0.04 0  0.93 0.04 0  0.9399999999999999 0.04 0  0.95 0.04 0  0.96 0.04 0  0.97 0.04 0  0.98 0.04 0  0.99 0.04 0  1 0.04 0  0 0.05 0  0.01 0.05 0  0.02 0.05 0  0.03 0.05 0  0.04 0.05 0  0.05 0.05 0  0.06 0.05 0  0.07000000000000001 0.05 0  0.08 0.05 0  0.09 0.05 0  0.1 0.05 0  0.11 0.05 0  0.12 0.05 0  0.13 0.05 0  0.14 0.05 0  0.15 0.05 0  0.16 0.05 0  0.17 0.05 0  0.18 0.05 0  0.19 0.05 0  0.2 0.05 0  0.21 0.05 0  0.22 0.05 0  0.23 0.05 0  0.24 0.05 0  0.25 0.05 0  0.26 0.05 0  0.27 0.05 0  0.28 0.05 0  0.29 0.05 0  0.3 0.05 0  0.31 0.05 0  0.32 0.05 0  0.33 0.05 0  0.34 0.05 0  0.35 0.05 0  0.36 0.05 0  0.37 0.05 0  0.38 0.05 0  0.39 0.05 0  0.4 0.05 0  0.41 0.05 0  0.42 0.05 0  0.43 0.05 0  0.44 0.05 0  0.45 0.05 0  0.46 0.05 0  0.47 0.05 0  0.48 0.05 0  0.49 0.05 0  0.5 0.05 0  0.51 0.05 0  0.52 0.05 0  0.53 0.05 0  0.54 0.05 0  0.55 0.05 0  0.5600000000000001 0.05 0  0.57 0.05 0  0.58 0.05 0  0.59 0.05 0  0.6 0.05 0  0.61 0.05 0  0.62 0.05 0  0.63 0.05 0  0.64 0.05 0  0.65 0.05 0  0.66 0.05 0  0.67 0.05 0  0.68 0.05 0  0.6899999999999999 0.05 0  0.7 0.05 0  0.71 0.05 0  0.72 0.05 0  0.73 0.05 0  0.74 0.05 0  0.75 0.05 0  0.76 0.05 0  0.77 0.05 0  0.78 0.05 0  0.79 0.05 0  0.8 0.05 0  0.8100000000000001 0.05 0  0.82 0.05 0  0.83 0.05 0  0.84 0.05 0  0.85 0.05 0  0.86 0.05 0  0.87 0.05 0  0.88 0.05 0  0.89 0.05 0  0.9 0.05 0  0.91 0.05 0  0.92 0.05 0  0.93 0.05 0  0.9399999999999999 0.05 0  0.95 0.05 0  0.96 0.05 0  0.97 0.05 0  0.98 0.05 0  0.99 0.05 0  1 0.05 0  0 0.06 0  0.01 0.06 0  0.02 0.06 0  0.03 0.06 0  0.04 0.06 0  0.05 0.06 0  0.06 0.06 0  0.07000000000000001 0.06 0  0.08 0.06 0  0.09 0.06 0  0.1 0.06 0  0.11 0.06 0  0.12 0.06 0  0.13 0.06 0  0.14 0.06 0  0.15 0.06 0  0.16 0.06 0  0.17 0.06 0  0.18 0.06 0  0.19 0.06 0  0.2 0.06 0  0.21 0.06 0  0.22 0.06 0  0.23 0.06 0  0.24 0.06 0  0.25 0.06 0  0.26 0.06 0  0.27 0.06 0  0.28 0.06 0  0.29 0.06 0  0.3 0.06 0  0.31 0.06 0  0.32 0.06 0  0.33 0.06 0  0.34 0.06 0  0.35 0.06 0  0.36 0.06 0  0.37 0.06 0  0.38 0.06 0  0.39 0.06 0  0.4 0.06 0  0.41 0.06 0  0.42 0.06 0  0.43 0.06 0  0.44 0.06 0  0.45 0.06 0  0.46 0.06 0  0.47 0.06 0  0.48 0.06 0  0.49 0.06 0  0.5 0.06 0  0.51 0.06 0  0.52 0.06 0  0.53 0.06 0  0.54 0.06 0  0.55 0.06 0  0.5600000000000001 0.06 0  0.57 0.06 0  0.58 0.06 0  0.59 0.06 0  0.6 0.06 0  0.61 0.06 0  0.62 0.06 0  0.63 0.06 0  0.64 0.06 0  0.65 0.06 0  0.66 0.06 0  0.67 0.06 0  0.68 0.06 0  0.6899999999999999 0.06 0  0.7 0.06 0  0.71 0.06 0  0.72 0.06 0  0.73 0.06 0  0.74 0.06 0  0.75 0.06 0  0.76 0.06 0  0.77 0.06 0  0.78 0.06 0  0.79 0.06 0  0.8 0.06 0  0.8100000000000001 0.06 0  0.82 0.06 0  0.83 0.06 0  0.84 0.06 0  0.85 0.06 0  0.86 0.06 0  0.87 0.06 0  0.88 0.06 0  0.89 0.06 0  0.9 0.06 0  0.91 0.06 0  0.92 0.06 0  0.93 0.06 0  0.9399999999999999 0.06 0  0.95 0.06 0  0.96 0.06 0  0.97 0.06 0  0.98 0.06 0  0.99 0.06 0  1 0.06 0  0 0.07000000000000001 0  0.01 0.07000000000000001 0  0.02 0.07000000000000001 0  0.03 0.07000000000000001 0  0.04 0.07000000000000001 0  0.05 0.07000000000000001 0  0.06 0.07000000000000001 0  0.07000000000000001 0.07000000000000001 0  0.08 0.07000000000000001 0  0.09 0.07000000000000001 0  0.1 0.07000000000000001 0  0.11 0.07000000000000001 0  0.12 0.07000000000000001 0  0.13 0.07000000000000001 0  0.14 0.07000000000000001 0  0.15 0.07000000000000001 0  0.16 0.07000000000000001 0  0.17 0.07000
[...]
<PointData  Scalars="rho_bar"> 
<DataArray  type="Float64"  Name="rho_bar"  format="ascii">9.9506228708112887e-01  9.9719647792634980e-01  9.9593732999157059e-01  9.9604155832042340e-01  9.9616778421427421e-01  9.9676809598554705e-01  9.9774137140131025e-01  9.9892594357251108e-01  1.0000748826689909e+00  1.0009756199751068e+00  1.0014958408987498e+00  1.0015735616926931e+00  1.0012041509232550e+00  1.0004371840519335e+00  9.9938865257549347e-01  9.9825457305641707e-01  9.9727042153980405e-01  9.9660838358078085e-01  9.9630125842704342e-01  9.9626959792931036e-01  9.9640761329597494e-01  9.9664251770055678e-01  9.9695046754447703e-01  9.9734074397540540e-01  9.9781986775006326e-01  9.9837144536164946e-01  9.9896800788953966e-01  9.9959346261010684e-01  1.0002438241944960e+00  1.0008045076503063e+00  1.0009358355217530e+00  1.0004944413374408e+00  9.9998449775422493e-01  9.9988946668692269e-01  9.9999529042877955e-01  1.0000188524152571e+00  1.0000866429445294e+00  9.9902767465404840e-01  1.0062880616829422e+00  9.6964307409784212e-01  1.0982469394748511e+00  2.5776625423055860e-01  -1.4180809644253711e-03  -1.1826079295400344e-03  3.0167483380953014e-04  1.6180030791494970e-04  -2.7562711647775842e-05  -5.5424197334378347e-05  2.8643354288208245e-06  1.2545931085412147e-05  8.3615689339129814e-07  -2.6135158334073688e-06  -5.2051267994586573e-08  4.9014305621691327e-07  -8.7376334223760755e-08  -5.9903669667413955e-08  3.2992445904545043e-08  -2.3273694684981443e-09  -4.1577549318427184e-09  2.1475522080280608e-09  -3.7325780107104993e-10  -1.2805017758027261e-10  1.1906038661002285e-10  -4.4748508387470029e-11  8.6100940197996981e-12  1.3347074204137490e-12  -1.7065450062027208e-12  9.3820656336970744e-13  -2.5329577398489159e-13  1.0511818216709255e-13  1.7705056393139319e-14  1.7861616064419756e-14  1.8994892471360275e-14  1.2103752149781788e-14  1.1238955714440780e-14  8.7192463104148916e-15  7.3310511326646590e-15  6.0381184423006409e-15  5.0254206941147563e-15  4.1920206655753104e-15  3.5307005775798499e-15  2.9617629137386076e-15  2.4844383248088260e-15  2.1235828310855759e-15  1.7816882993914351e-15  1.5161576528590980e-15  1.2880880414514109e-15  1.0896911857999522e-15  9.3937611334432177e-16  7.9967437214093461e-16  6.8217354275038214e-16  5.9325526137132589e-16  5.0772981077302127e-16  4.6108168382967622e-16  4.0461881975588622e-16  3.2453297542260854e-16  3.4404013388926776e-16  2.6773478443946837e-16  2.7793037035734827e-16  2.7719962123294504e-16  2.7786235872280921e-16  1.0120482697876449e+00  1.0052013943147611e+00  1.0076261768903183e+00  1.0078467821878423e+00  1.0078612244121803e+00  1.0070886417775831e+00  1.0054723136214734e+00  1.0032247873125395e+00  1.0007914406271714e+00  9.9865659364590775e-01  9.9716962961843558e-01  9.9652677937563938e-01  9.9680056381206295e-01  9.9795133821942394e-01  9.9982061440129288e-01  1.0020933043728657e+00  1.0043101759961499e+00  1.0060260399128804e+00  1.0070229291115407e+00  1.0073659436897160e+00  1.0072614649123999e+00  1.0068967111871330e+00  1.0063695448262473e+00  1.0056877851908097e+00  1.0048266056057900e+00  1.0037965056055838e+00  1.0026477895244612e+00  1.0014295196230540e+00  1.0001570724514486e+00  9.9889265295938279e-01  9.9808986606951855e-01  9.9844331503353123e-01  9.9960644215098826e-01  1.0002434346712139e+00  1.0000948476495755e+00  9.9996224866428318e-01  9.9993709012075993e-01  1.0002743197582153e+00  9.9943585089846643e-01  9.9714451018649441e-01  1.0315552272811341e+00  4.6039851227367679e-01  -3.8904940110382161e-02  7.4153938899310665e-03  3.4036836229070071e-04  -4.9086826041653837e-04  -1.0615412106905468e-04  1.3937261293811885e-04  3.9955115444016833e-05  -2.6944586616686655e-05  -1.2498459326711150e-05  5.0377850493227447e-06  2.4155433933921248e-06  -1.1958876304381526e-06  -2.0409582709230664e-07  2.5141881554856951e-07  -4.4373823024390880e-08  -2.3420294056170816e-08  1.6018949580745111e-08  -3.4379782420679654e-09  -7.2937871449284779e-10  8.4504056804257165e-10  -3.3039859094148538e-10  6.1744301077534928e-11  1.0052573937291447e-11  -1.3239668445009891e-11  6.4364925151454496e-12  -1.9852322849284139e-12  4.9471589332280452e-13  2.1719531935130488e-15  -1.7253754129827893e-15  4.1199709353687812e-14  8.4622606402812284e-15  1.6605101300341349e-14  1.0211698626571827e-14  9.3007523216936393e-15  7.4103290746201414e-15  6.1847953490898642e-15  5.1369655999868934e-15  4.2790405012923199e-15  3.5959005729802272e-15  3.0119423564078207e-15  2.5479854787920866e-15  2.1526947278387296e-15  1.8116724967210725e-15  1.5410992211306174e-15  1.3104445884090299e-15  1.1203148414105612e-15  9.5469046308386756e-16  8.1886328910114739e-16  7.0541147421234604e-16  6.1149899948655761e-16  5.2192158484891817e-16  4.5514805837145066e-16  3.9643957680987994e-16  3.6154400647870948e-16  3.3685830716321726e-16  2.8200594433870575e-16  2.8053560027728359e-16  2.7854062275224042e-16  2.7729868594662118e-16  9.5804844258015376e-01  9.8188101456577459e-01  9.7460542089903945e-01  9.7302868067699089e-01  9.7190948436826885e-01  9.7313073227828839e-01  9.7722814087707532e-01  9.8400829226140951e-01  9.9225307574579713e-01  1.0002253706509059e+00  1.0064543740394789e+00  1.0100448006274556e+00  1.0105735835102940e+00  1.0080178230286416e+00  1.0027188101105546e+00  9.9545808466862518e-01  9.8758529732922007e-01  9.8075031302461002e-01  9.7617029148134693e-01  9.7406589441964897e-01  9.7386840177137302e-01  9.7484547992175297e-01  9.7649394209209195e-01  9.7864631387837397e-01  9.8137737559630700e-01  9.8473657213631416e-01  9.8860201536353187e-01  9.9278169554413376e-01  9.9715323966131919e-01  1.0016569907904989e+00  1.0056301303826887e+00  1.0067123489289163e+00  1.0034733019246456e+00  9.9970402383204715e-01  9.9924766500106976e-01  1.0000834057042631e+00  1.0000881283089278e+00  9.9993470829081033e-01  9.9989789976922294e-01  1.0004942392672795e+00  1.0022072281006211e+00  8.2979179388625002e-01  -2.6133646781454473e-04  2.4099303883029076e-02  -8.0498846573334986e-03  1.1399477245520669e-03  1.2203685586003356e-03  -3.5082304759037429e-04  -3.3348479613951981e-04  3.4490635968309919e-05  8.4467625267225192e-05  -9.0518253262506837e-07  -1.7445676609231682e-05  1.7817215512185368e-06  2.7462578021482785e-06  -9.7907207369144749e-07  -1.3329275746621100e-07  1.9863253562152145e-07  -6.0331448085360840e-08  -2.3931177444224355e-09  9.7661468138072839e-09  -4.5574368012246377e-09  1.0564013767523720e-09  3.3191594032794997e-11  -1.5442163103920230e-10  8.3869925059670256e-11  -2.9399857416813911e-11  7.4173561483789578e-12  -9.1148072295846300e-13  -1.9400848444668628e-13  2.6555019893832795e-13  -8.9153075420674276e-14  6.0494863470590648e-14  1.4609831734565634e-15  1.5786446097895358e-14  8.8325228121280127e-15  8.2093092078455974e-15  6.5988268861848704e-15  5.4935579387431155e-15  4.5903646115107545e-15  3.8337759705098066e-15  3.2114079859187640e-15  2.7057245206326184e-15  2.2773261255109489e-15  1.9286539490299018e-15  1.6241346711695577e-15  1.3938192931276674e-15  1.1820302230462019e-15  1.0126376021109094e-15  8.5866254747036592e-16  7.2800547712640080e-16  6.3472214102847385e-16  5.5752662068249319e-16  4.8297959370511656e-16  4.3146849853043936e-16  3.8058403376033696e-16  3.1757204425402993e-16  3.3925066365290455e-16  2.7231680227882198e-16  2.6892694804526571e-16  2.7753411150264572e-16  1.1326561717046977e+00  1.0687377136414640e+00  1.0857856658014424e+00  1.0938057626785815e+00  1.0996646084205937e+00  1.0984913984069464e+00  1.0867967126751314e+00  1.0633532727594306e+00  1.0306461127235447e+00  9.9468024829179646e-01  9.6231706733739264e-01  9.3898608584510257e-01  9.2826785681581703e-01  9.3183329337465592e-01  9.4909278305667988e-01  9.7732928912889994e-01  1.0114409110809566e+00  1.0445240439457719e+00  1.0702016569003638e+00  1.0855409356277901e+00  1.0916233118276302e+00  1.0913820209361218e+00  1.0874040727929866e+00  1.0811133779132864e+00  1.0726836542302161e+00  1.0618056278720926e+00  1.0486557174954600e+00  1.0339199662083449e+00  1.0182344747667138e+00  1.0019043632138458e+00  9.8570980237681982e-01  9.7476990103385575e-01  9.7908725265289398e-01  9.9547519501195247e-01  1.0036568151032523e+00  1.0006887673741736e+00  9.9938812713465397e-01  1.0001363297987778e+00  1.0000068817877938e+00  1.0002548129306110e+00  9.9522893283947000e-01  1.0192561174008543e+00  5.7811729742451468e-01  -2.6039807473019806e-02  1.3229564271024103e-02  7.5414282557224087e-03  -6.9062940306734624e-03  -5.4540948750079067e-04  1.7405473232905300e-03  3.9945563021616474e-04  -3.6989164689882380e-04  -1.3091906622208750e-04  7.6830859059806155e-05  1.9527321854771765e-05  -1.6732870596849774e-05  8.5457703768818173e-07  2.3603461104493352e-06  -9.8686077678335412e-07  5.6635473510808777e-08  1.1658775935756458e-07  -6.4207989289271150e-08  1.6748626116582799e-08  -3.3119088891585269e-10  -1.9910991705104648e-09  1.1626575196067731e-09  -4.2238017417485513e-10  1.0791906092787910e-10  -1.4788175521035088e-11  -2.9853253337846572e-12  3.3611932027986076e-12  -1.5672229442706873e-12  6.2505419821416053e-13  -1.6868007710937401e-13  7.0304003195567497e-14  5.7673745988454374e-16  1.3736031077468018e-14  8.6647827571966075e-15  7.3662677205802554e-15  6.1648371667301770e-15  5.0527583684756446e-15  4.2464391870061827e-15  3.5536634267836165e-15  2.9837961381577140e-15  2.5208931714359210e-15  2.1042894855937131e-15  1.7907462068704890e-15  1.5175781182506466e-15  1.2854909765951422e-15  1.0918246200858324e-15  9.3245860193230298e-16  8.1770124810066525e-16  6.9649452508512645e-16  6.1066549846066588e-16  5.2745592470055564e-16  4.5767544646314805e-16  4.0856987097287166e-16  3.7804087545652122e-16  3.2459324048977916e-16  3.4013699769704374e-16  3.1830331029248557e-16  2.9323057731804611e-16  5.1951517697756089e-01  6.1455315703551538e-01  5.6862738229600407e-01  5.0183060122617640e-01  4.1737096652848921e-01  3.2409113793638761e-01  2.3226723094805823e-01  1.4942488052279393e-01  8.0579420765793983e-02  2.8149796217834883e-02  -7.8617497963843937e-03  -2.9513491408117841e-02  -3.9502044526541012e-02  -3.9435490934962701e-02  -2.9601315108826597e-02  -8.4512444613735541e-03  2.6680671022943938e-02  7.7826243936549813e-02  1.4443076206941347e-01  2.2225309732809259e-01  3.0396573233887852e-01  3.8266580815175982e-01  4.5531919458622627e-01  5.2180567677560230e-01  5.8543517236225473e-01  6.5174900753129528e-01  7.2264359289736702e-01  7.9608430483800874e-01  8.6920793743741942e-01  9.4088941643778956e-01  1.0106712214196076e+00  1.0712817438168583e+00  1.0927432505732813e+00  1.0477532301233805e+00  9.9169909657317168e-01  9.9058559067489960e-01  1.0026373988985675e+00  9.9989314326937839e-01  9.9974513147489585e-01  9.9976148916509922e-01  1.0019742096996074e+00  9.8812806137529940e-01  1.0316000378668615e+00  7.3296036938369824e-01  7.3934148642454997e-02  -5.6870037454953240e-02  1.9811754990326020e-02  1.3091142223831568e-02  -5.4080774883551756e-03  -4.1852491089138513e-03  7.2088701132145628e-04  1.1119164631887516e-03  -1.1665490350266358e-04  -2.1451632842418847e-04  5.2940398062232310e-05  2.2554229081660652e-05  -1.5073787418292656e-05  2.1573216516359807e-06  1.2819063574812344e-06  -8.8958321067972838e-07  2.6042841502621962e-07  -1.5853618734256921e-08  -2.5288893136078925e-08  1.6029871778552448e-08  -5.9983266251121538e-09  1.5607758737589801e-09  -2.2415178869505200e-10  -3.9078206051003518e-11  4.5957657413707159e-11  -2.2335169174928479e-11  8.4072069861297111e-12  -2.6239948552130740e-12  7.6919293631903676e-13  -1.6149441680680434e-13  5.3309250271018148e-14  8.0952787604353103e-15  1.0050188907676697e-14  9.3178375094273718e-15  6.6872362367001886e-15  5.9920026395850290e-15  4.7975467152639274e-15  4.0658408045571079e-15  3.3829965653747446e-15  2.8522129399884082e-15  2.4040795230555098e-15  2.0398101511608722e-15  1.7165522288208774e-15  1.4524150347852554e-15  1.2437921071106848e-15  1.0668876581398702e-15  9.0795642873283628e-16  7.7202087155286817e-16  6.6569859078555125e-16  5.8493480829758674e-16  5.1768299695820334e-16  4.5492082230082727e-16  4.1533433769637494e-16  3.8582133776024362e-16  3.5110105123573664e-16  3.3566558258117866e-16  3.4804286434929818e-16  -3.4037416294984101e-02  -1.0756080295004869e-01  -1.1273396615489575e-01  -1.0558488080603205e-01  -9.5787487032683777e-02  -8.0557887986637280e-02  -6.2154173094875267e-02  -4.3080824124322292e-02  -2.5472301875027477e-02  -1.0849000891907603e-02  3.2939671415346441e-05  7.1782735162000183e-03  1.1111269239746559e-02  1.2363482128382867e-02  1.1184101798365480e-02  7.4408880728082929e-03  6.3094461205453654e-04  -9.7433541304438234e-03  -2.3632825302207481e-02  -4.0054954216979660e-02  -5.7154272969847646e-02  -7.2939805241015371e-02  -8.6224333010560594e-02  -9.6691019500345532e-02  -1.0450039351400453e-01  -1.0972468259728287e-01  -1.1135846117247947e-01  -1.0679690828927550e-01  -9.2367066766670433e-02  -6.3312208478470924e-02  -1.2203042190899812e-02  7.6388087852281378e-02  2.4075302771898371e-01  5.4604430203512377e-01  9.1521788468230159e-01  1.0540157179203753e+00  9.9549061362719082e-01  9.9625186255792619e-01  1.0018355118690896e+00  9.9946810450723456e-01  9.9931750175198664e-01  1.0027078752554777e+00  9.9134379524704808e-01  1.0107170194134438e+00  1.0218723133174126e+00  5.9054093056101542e-01  4.5887824190917317e-02  -8.0403312668412094e-02  -6.2020171468726772e-04  2.3564504533155103e-02  4.1902022508408373e-03  -5.4538783747535898e-03  -1.3173231527755301e-03  1.1747855739271721e-03  7.9875904610148443e-05  -2.0829606540472215e-04  5.0997819452391353e-05  1.1523136877396603e-05  -1.2047122401634599e-05  4.0187234547161027e-06  -3.9656827437697640e-07  -3.1285515911124706e-07  2.2033777113395407e-07  -8.5177858689153124e-08  2.2618867741398585e-08  -3.3850357364072591e-09  -4.9376366829529415e-10  6.3375419211599910e-10  -3.1268484194869468e-10  1.1718636800307601e-10  -3.7159266026432996e-11  1.0436848489970850e-11  -2.5093887424688935e-12  5.4381473401525034e-13  -4.8960844206202359e-14  9.3204144460292240e-15  2.2747263264037808e-14  5.1423053099228034e-15  1.0518208943397437e-14  6.1721962145387454e-15  5.9516020509748533e-15  4.6678023449360007e-15  3.9828733487804378e-15  3.3148233562024897e-15  2.7810071672728182e-15  2.3580324080488659e-15  1.9745623681523618e-15  1.6863318026350224e-15  1.4219526084775060e-15  1.2261268791145526e-15  1.0451884902506878e-15  8.8743009406633015e-16  7.7779317629075333e-16  6.5671753653258072e-16  5.9447985636129198e-16  5.2812812938139461e-16  4.7559338344879978e-16  4.3423031516531798e-16  4.0817619753350786e-16  3.9895612297603016e-16  3.9652860666836480e-16  -3.4738364318938054e-04  2.0273083717644406e-02  3.1208757912216310e-02  2.9431326868337208e-02  2.7182264827478611e-02  2.3829573343818911e-02  1.9212274533060372e-02  1.4103266260033871e-02  9.1204163091878308e-03  4.7598774812162292e-03  1.3284254711769146e-03  -1.0776123170505348e-03  -2.5430959573078940e-03  -3.2241056130694573e-03  -3.2313384322199814e-03  -2.5823102422197937e-03  -1.1854673625306005e-03  1.1101030585132260e-03  4.3818132035841270e-03  8.4988562216237757e-03  1.3068200829369103e-02  1.7543568076035101e-02  2.1481441011451760e-02  2.4688554869417324e-02  2.7161892134505365e-02  2.8965546410124204e-02  3.0015930101416750e-02  2.9850328209531873e-02  2.7656634815337294e-02  2.2420530063475601e-02  1.2838239921911677e-02  -3.1662274257654660e-03  -2.9208192381980240e-02  -7.1502164780100297e-02  -7.3505847416654044e-02  2.5824458137336059e-01  8.8436813119461111e-01  1.0240554352998774e+00  9.8998912395063066e-01  1.0019110259114934e+00  9.9982360089283728e-01  9.9942735412349937e-01  1.0008535659891800e+00  1.0009441398620871e+00  9.8499731878214847e-01  1.0262597139760066e+00  1.0496916170976411e+00  7.2190607928288641e-01  1.9515151655329627e-01  -7.4540466972172370e-02  -5.2424192912374358e-02  1.3786087222960069e-02  1.4404423268676131e-02  -3.1884772034644427e-03  -2.2866745867783020e-03  1.0034420219116730e-03  4.0158799519208255e-05  -1.5680980998705621e-04  6.1647542715422463e-05  -8.3429221844858388e-06  -3.7171366390901671e-06  3.0201463177980193e-06  -1.2112400231648989e-06  3.2843947086435655e-07  -5.1046453430431546e-08  -6.1235056547381976e-09  8.7526820740346983e-09  -4.3716223408730899e-09  1.6411525756899524e-09  -5.2130764433335962e-10  1.4547438992843345e-10  -3.5460596136032153e-11  7.2752329615501644e-12  -9.3254739226569104e-13  -6.4341332968459700e-14  1.5871578852674793e-13  -5.5918703714038928e-14  4.1867565011836705e-14  -7.0682249240497587e-17  1.1785911886039284e-14  5.8557238090225119e-15  5.9925522951700976e-15  4.6450497109269448e-15  3.9642615514661216e-15  3.3074542660371440e-15  2.7726708901720312e-15  2.3592864432235294e-15  1.9729279554555248e-15  1.6820492407777539e-15  1.4154380423429596e-15  1.2272540316917677e-15  1.0431960767091606e-15  9.0178136974755976e-16  7.7546588642213419e-16  6.8778238264107256e-16  6.0796662714609542e-16  5.5343441144939327e-16  5.0037239089534307e-16  4.6532566130056086e-16  4.5168391800236246e-16  4.3697828407688312e-16  8.8797279931809761e-04  -2.4837059422848817e-03  -7.3737293291157892e-03  -8.3421608811817226e-03  -7.5801194796654694e-03  -6.8804974490685959e-03  -5.7970204130616551e-03  -4.4686046193845681e-03  -3.0981721839706635e-03  -1.8327349623218983e-03  -7.8208302248114231e-04  -1.0275234648173451e-07  5.1407110193884425e-04  7.9685457407616079e-04  8.8679750327251246e-04  8.0211260563639065e-04  5.3245773605857581e-04  4.2164571651054372e-05  -7.0417315451546259e-04  -1.7028943007359302e-03  -2.8830831963013665e-03  -4.1121992650963559e-03  -5.2500708894237880e-03  -6.2100866946296638e-03  -6.9692524151240640e-03  -7.5413883200855410e-03  -7.9320305611176468e-03  -8.0716696473528849e-03  -7.7853108489638456e-03  -6.8242427276602657e-03  -4.8918701572731151e-03  -1.5242476571061770e-03  3.9173836606603172e-03  1.3231965224760276e-02  2.8189864320881091e-02  -1.0008034748352313e-02  -1.3648741649776150e-02  6.9685046489750868e-01  1.0240688149623536e+00  9.9522623038241109e-01  1.0000986071144102e+00  1.0001294265968019e+00  9.9998273920480218e-01  9.9923861979576334e-01  1.0025420408265127e+00  9.9985251780691953e-01  9.8141690617408617e-01  1.0098575427524092e+00  1.0724743218526136e+00  9.2809047258312627e-01  5.0421309809453363e-01  6.4134328704482629e-02  -7.7940967992407476e-02  -8.9311295685778787e-03  1.6466345062815042e-02  -1.7705887360518126e-03  -1.8691614788122987e-03  9.3975220471615188e-04  -1.6307386003614036e-04  -4.1106402782596944e-05  4.1268242532112027e-05  -1.7263166871642613e-05  4.7805781170265923e-06  -7.6903877344999176e-07  -7.4406340591899517e-08  1.2095647462299021e-07  -6.1141803230748060e-08  2.3006867853654435e-08  -7.3068352502479078e-09  2.0342938167711866e-09  -4.9595605476839813e-10  1.0094569620016056e-10  -1.3440037970394878e-11  -1.1874383231623081e-12  1.9537088726141420e-12  -9.7136923812721020e-13  4.2531812042290087e-13  -1.2825281569415184e-13  6.0151338659252157e-14  -3.9012243912651056e-15  1.2554565666099754e-14  5.9095972671250502e-15  5.9987315339664669e-15  4.7356720761811925e-15  3.9844140524006951e-15  3.3342910799773512e-15  2.7968007659670333e-15  2.3563930381969052e-15  2.0030162796636445e-15  1.7019124854488035e-15  1.4413696244736851e-15  1.2424309096591442e-15  1.0747637285905525e-15  9.1420209958007806e-16  8.1599844433727621e-16  7.1617101757355820e-16  6.4291633916513359e-16  5.8575480901797676e-16  5.5505036461359507e-16  5.3542052351243970e-16  5.2961952890515987e-16  -1.9784766157973879e-04  9.3387249763880956e-05  1.3735034915483401e-03  2.2170872636490357e-03  2.1531687093514084e-03  1.9394054780567168e-03  1.7110063890571456e-03  1.3799626486675264e-03  1.0125122770346154e-03  6.5509202675430994e-04  3.4200221865774561e-04  9.5629686812578397e-05  -7.7289919635562578e-05  -1.8269232