<?xml version="1.0"?>
<VTKFile type="UnstructuredGrid"  version="0.1"  >
<UnstructuredGrid>
<Piece  NumberOfPoints="5151" NumberOfCells="10000">
<Points>
<DataArray  type="Float64"  NumberOfComponents="3"  format="ascii">0 0 0  0.01 0 0  0.02 0 0  0.03 0 0  0.04 0 0  0.05 0 0  0.06 0 0  0.07000000000000001 0 0  0.08 0 0  0.09 0 0  0.1 0 0  0.11 0 0  0.12 0 0  0.13 0 0  0.14 0 0  0.15 0 0  0.16 0 0  0.17 0 0  0.18 0 0  0.19 0 0  0.2 0 0  0.21 0 0  0.22 0 0  0.23 0 0  0.24 0 0  0.25 0 0  0.26 0 0  0.27 0 0  0.28 0 0  0.29 0 0  0.3 0 0  0.31 0 0  0.32 0 0  0.33 0 0  0.34 0 0  0.35 0 0  0.36 0 0  0.37 0 0  0.38 0 0  0.39 0 0  0.4 0 0  0.41 0 0  0.42 0 0  0.43 0 0  0.44 0 0  0.45 0 0  0.46 0 0  0.47 0 0  0.48 0 0  0.49 0 0  0.5 0 0  0.51 0 0  0.52 0 0  0.53 0 0  0.54 0 0  0.55 0 0  0.5600000000000001 0 0  0.57 0 0  0.58 0 0  0.59 0 0  0.6 0 0  0.61 0 0  0.62 0 0  0.63 0 0  0.64 0 0  0.65 0 0  0.66 0 0  0.67 0 0  0.68 0 0  0.6899999999999999 0 0  0.7 0 0  0.71 0 0  0.72 0 0  0.73 0 0  0.74 0 0  0.75 0 0  0.76 0 0  0.77 0 0  0.78 0 0  0.79 0 0  0.8 0 0  0.8100000000000001 0 0  0.82 0 0  0.83 0 0  0.84 0 0  0.85 0 0  0.86 0 0  0.87 0 0  0.88 0 0  0.89 0 0  0.9 0 0  0.91 0 0  0.92 0 0  0.93 0 0  0.9399999999999999 0 0  0.95 0 0  0.96 0 0  0.97 0 0  0.98 0 0  0.99 0 0  1 0 0  0 0.01 0  0.01 0.01 0  0.02 0.01 0  0.03 0.01 0  0.04 0.01 0  0.05 0.01 0  0.06 0.01 0  0.07000000000000001 0.01 0  0.08 0.01 0  0.09 0.01 0  0.1 0.01 0  0.11 0.01 0  0.12 0.01 0  0.13 0.01 0  0.14 0.01 0  0.15 0.01 0  0.16 0.01 0  0.17 0.01 0  0.18 0.01 0  0.19 0.01 0  0.2 0.01 0  0.21 0.01 0  0.22 0.01 0  0.23 0.01 0  0.24 0.01 0  0.25 0.01 0  0.26 0.01 0  0.27 0.01 0  0.28 0.01 0  0.29 0.01 0  0.3 0.01 0  0.31 0.01 0  0.32 0.01 0  0.33 0.01 0  0.34 0.01 0  0.35 0.01 0  0.36 0.01 0  0.37 0.01 0  0.38 0.01 0  0.39 0.01 0  0.4 0.01 0  0.41 0.01 0  0.42 0.01 0  0.43 0.01 0  0.44 0.01 0  0.45 0.01 0  0.46 0.01 0  0.47 0.01 0  0.48 0.01 0  0.49 0.01 0  0.5 0.01 0  0.51 0.01 0  0.52 0.01 0  0.53 0.01 0  0.54 0.01 0  0.55 0.01 0  0.5600000000000001 0.01 0  0.57 0.01 0  0.58 0.01 0  0.59 0.01 0  0.6 0.01 0  0.61 0.01 0  0.62 0.01 0  0.63 0.01 0  0.64 0.01 0  0.65 0.01 0  0.66 0.01 0  0.67 0.01 0  0.68 0.01 0  0.6899999999999999 0.01 0  0.7 0.01 0  0.71 0.01 0  0.72 0.01 0  0.73 0.01 0  0.74 0.01 0  0.75 0.01 0  0.76 0.01 0  0.77 0.01 0  0.78 0.01 0  0.79 0.01 0  0.8 0.01 0  0.8100000000000001 0.01 0  0.82 0.01 0  0.83 0.01 0  0.84 0.01 0  0.85 0.01 0  0.86 0.01 0  0.87 0.01 0  0.88 0.01 0  0.89 0.01 0  0.9 0.01 0  0.91 0.01 0  0.92 0.01 0  0.93 0.01 0  0.9399999999999999 0.01 0  0.95 0.01 0  0.96 0.01 0  0.97 0.01 0  0.98 0.01 0  0.99 0.01 0  1 0.01 0  0 0.02 0  0.01 0.02 0  0.02 0.02 0  0.03 0.02 0  0.04 0.02 0  0.05 0.02 0  0.06 0.02 0  0.07000000000000001 0.02 0  0.08 0.02 0  0.09 0.02 0  0.1 0.02 0  0.11 0.02 0  0.12 0.02 0  0.13 0.02 0  0.14 0.02 0  0.15 0.02 0  0.16 0.02 0  0.17 0.02 0  0.18 0.02 0  0.19 0.02 0  0.2 0.02 0  0.21 0.02 0  0.22 0.02 0  0.23 0.02 0  0.24 0.02 0  0.25 0.02 0  0.26 0.02 0  0.27 0.02 0  0.28 0.02 0  0.29 0.02 0  0.3 0.02 0  0.31 0.02 0  0.32 0.02 0  0.33 0.02 0  0.34 0.02 0  0.35 0.02 0  0.36 0.02 0  0.37 0.02 0  0.38 0.02 0  0.39 0.02 0  0.4 0.02 0  0.41 0.02 0  0.42 0.02 0  0.43 0.02 0  0.44 0.02 0  0.45 0.02 0  0.46 0.02 0  0.47 0.02 0  0.48 0.02 0  0.49 0.02 0  0.5 0.02 0  0.51 0.02 0  0.52 0.02 0  0.53 0.02 0  0.54 0.02 0  0.55 0.02 0  0.5600000000000001 0.02 0  0.57 0.02 0  0.58 0.02 0  0.59 0.02 0  0.6 0.02 0  0.61 0.02 0  0.62 0.02 0  0.63 0.02 0  0.64 0.02 0  0.65 0.02 0  0.66 0.02 0  0.67 0.02 0  0.68 0.02 0  0.6899999999999999 0.02 0  0.7 0.02 0  0.71 0.02 0  0.72 0.02 0  0.73 0.02 0  0.74 0.02 0  0.75 0.02 0  0.76 0.02 0  0.77 0.02 0  0.78 0.02 0  0.79 0.02 0  0.8 0.02 0  0.8100000000000001 0.02 0  0.82 0.02 0  0.83 0.02 0  0.84 0.02 0  0.85 0.02 0  0.86 0.02 0  0.87 0.02 0  0.88 0.02 0  0.89 0.02 0  0.9 0.02 0  0.91 0.02 0  0.92 0.02 0  0.93 0.02 0  0.9399999999999999 0.02 0  0.95 0.02 0  0.96 0.02 0  0.97 0.02 0  0.98 0.02 0  0.99 0.02 0  1 0.02 0  0 0.03 0  0.01 0.03 0  0.02 0.03 0  0.03 0.03 0  0.04 0.03 0  0.05 0.03 0  0.06 0.03 0  0.07000000000000001 0.03 0  0.08 0.03 0  0.09 0.03 0  0.1 0.03 0  0.11 0.03 0  0.12 0.03 0  0.13 0.03 0  0.14 0.03 0  0.15 0.03 0  0.16 0.03 0  0.17 0.03 0  0.18 0.03 0  0.19 0.03 0  0.2 0.03 0  0.21 0.03 0  0.22 0.03 0  0.23 0.03 0  0.24 0.03 0  0.25 0.03 0  0.26 0.03 0  0.27 0.03 0  0.28 0.03 0  0.29 0.03 0  0.3 0.03 0  0.31 0.03 0  0.32 0.03 0  0.33 0.03 0  0.34 0.03 0  0.35 0.03 0  0.36 0.03 0  0.37 0.03 0  0.38 0.03 0  0.39 0.03 0  0.4 0.03 0  0.41 0.03 0  0.42 0.03 0  0.43 0.03 0  0.44 0.03 0  0.45 0.03 0  0.46 0.03 0  0.47 0.03 0  0.48 0.03 0  0.49 0.03 0  0.5 0.03 0  0.51 0.03 0  0.52 0.03 0  0.53 0.03 0  0.54 0.03 0  0.55 0.03 0  0.5600000000000001 0.03 0  0.57 0.03 0  0.58 0.03 0  0.59 0.03 0  0.6 0.03 0  0.61 0.03 0  0.62 0.03 0  0.63 0.03 0  0.64 0.03 0  0.65 0.03 0  0.66 0.03 0  0.67 0.03 0  0.68 0.03 0  0.6899999999999999 0.03 0  0.7 0.03 0  0.71 0.03 0  0.72 0.03 0  0.73 0.03 0  0.74 0.03 0  0.75 0.03 0  0.76 0.03 0  0.77 0.03 0  0.78 0.03 0  0.79 0.03 0  0.8 0.03 0  0.8100000000000001 0.03 0  0.82 0.03 0  0.83 0.03 0  0.84 0.03 0  0.85 0.03 0  0.86 0.03 0  0.87 0.03 0  0.88 0.03 0  0.89 0.03 0  0.9 0.03 0  0.91 0.03 0  0.92 0.03 0  0.93 0.03 0  0.9399999999999999 0.03 0  0.95 0.03 0  0.96 0.03 0  0.97 0.03 0  0.98 0.03 0  0.99 0.03 0  1 0.03 0  0 0.04 0  0.01 0.04 0  0.02 0.04 0  0.03 0.04 0  0.04 0.04 0  0.05 0.04 0  0.06 0.04 0  0.07000000000000001 0.04 0  0.08 0.04 0  0.09 0.04 0  0.1 0.04 0  0.11 0.04 0  0.12 0.04 0  0.13 0.04 0  0.14 0.04 0  0.15 0.04 0  0.16 0.04 0  0.17 0.04 0  0.18 0.04 0  0.19 0.04 0  0.2 0.04 0  0.21 0.04 0  0.22 0.04 0  0.23 0.04 0  0.24 0.04 0  0.25 0.04 0  0.26 0.04 0  0.27 0.04 0  0.28 0.04 0  0.29 0.04 0  0.3 0.04 0  0.31 0.04 0  0.32 0.04 0  0.33 0.04 0  0.34 0.04 0  0.35 0.04 0  0.36 0.04 0  0.37 0.04 0  0.38 0.04 0  0.39 0.04 0  0.4 0.04 0  0.41 0.04 0  0.42 0.04 0  0.43 0.04 0  0.44 0.04 0  0.45 0.04 0  0.46 0.04 0  0.47 0.04 0  0.48 0.04 0  0.49 0.04 0  0.5 0.04 0  0.51 0.04 0  0.52 0.04 0  0.53 0.04 0  0.54 0.04 0  0.55 0.04 0  0.5600000000000001 0.04 0  0.57 0.04 0  0.58 0.04 0  0.59 0.04 0  0.6 0.04 0  0.61 0.04 0  0.62 0.04 0  0.63 0.04 0  0.64 0.04 0  0.65 0.04 0  0.66 0.04 0  0.67 0.04 0  0.68 0.04 0  0.6899999999999999 0.04 0  0.7 0.04 0  0.71 0.04 0  0.72 0.04 0  0.73 0.04 0  0.74 0.04 0  0.75 0.04 0  0.76 0.04 0  0.77 0.04 0  0.78 0.04 0  0.79 0.04 0  0.8 0.04 0  0.8100000000000001 0.04 0  0.82 0.04 0  0.83 0.04 0  0.84 0.04 0  0.85 0.04 0  0.86 0.04 0  0.87 0.04 0  0.88 0.04 0  0.89 0.04 0  0.9 0.04 0  0.91 0.04 0  0.92 0.04 0  0.93 0.04 0  0.9399999999999999 0.04 0  0.95 0.04 0  0.96 0.04 0  0.97 0.04 0  0.98 0.04 0  0.99 0.04 0  1 0.04 0  0 0.05 0  0.01 0.05 0  0.02 0.05 0  0.03 0.05 0  0.04 0.05 0  0.05 0.05 0  0.06 0.05 0  0.07000000000000001 0.05 0  0.08 0.05 0  0.09 0.05 0  0.1 0.05 0  0.11 0.05 0  0.12 0.05 0  0.13 0.05 0  0.14 0.05 0  0.15 0.05 0  0.16 0.05 0  0.17 0.05 0  0.18 0.05 0  0.19 0.05 0  0.2 0.05 0  0.21 0.05 0  0.22 0.05 0  0.23 0.05 0  0.24 0.05 0  0.25 0.05 0  0.26 0.05 0  0.27 0.05 0  0.28 0.05 0  0.29 0.05 0  0.3 0.05 0  0.31 0.05 0  0.32 0.05 0  0.33 0.05 0  0.34 0.05 0  0.35 0.05 0  0.36 0.05 0  0.37 0.05 0  0.38 0.05 0  0.39 0.05 0  0.4 0.05 0  0.41 0.05 0  0.42 0.05 0  0.43 0.05 0  0.44 0.05 0  0.45 0.05 0  0.46 0.05 0  0.47 0.05 0  0.48 0.05 0  0.49 0.05 0  0.5 0.05 0  0.51 0.05 0  0.52 0.05 0  0.53 0.05 0  0.54 0.05 0  0.55 0.05 0  0.5600000000000001 0.05 0  0.57 0.05 0  0.58 0.05 0  0.59 0.05 0  0.6 0.05 0  0.61 0.05 0  0.62 0.05 0  0.63 0.05 0  0.64 0.05 0  0.65 0.05 0  0.66 0.05 0  0.67 0.05 0  0.68 0.05 0  0.6899999999999999 0.05 0  0.7 0.05 0  0.71 0.05 0  0.72 0.05 0  0.73 0.05 0  0.74 0.05 0  0.75 0.05 0  0.76 0.05 0  0.77 0.05 0  0.78 0.05 0  0.79 0.05 0  0.8 0.05 0  0.8100000000000001 0.05 0  0.82 0.05 0  0.83 0.05 0  0.84 0.05 0  0.85 0.05 0  0.86 0.05 0  0.87 0.05 0  0.88 0.05 0  0.89 0.05 0  0.9 0.05 0  0.91 0.05 0  0.92 0.05 0  0.93 0.05 0  0.9399999999999999 0.05 0  0.95 0.05 0  0.96 0.05 0  0.97 0.05 0  0.98 0.05 0  0.99 0.05 0  1 0.05 0  0 0.06 0  0.01 0.06 0  0.02 0.06 0  0.03 0.06 0  0.04 0.06 0  0.05 0.06 0  0.06 0.06 0  0.07000000000000001 0.06 0  0.08 0.06 0  0.09 0.06 0  0.1 0.06 0  0.11 0.06 0  0.12 0.06 0  0.13 0.06 0  0.14 0.06 0  0.15 0.06 0  0.16 0.06 0  0.17 0.06 0  0.18 0.06 0  0.19 0.06 0  0.2 0.06 0  0.21 0.06 0  0.22 0.06 0  0.23 0.06 0  0.24 0.06 0  0.25 0.06 0  0.26 0.06 0  0.27 0.06 0  0.28 0.06 0  0.29 0.06 0  0.3 0.06 0  0.31 0.06 0  0.32 0.06 0  0.33 0.06 0  0.34 0.06 0  0.35 0.06 0  0.36 0.06 0  0.37 0.06 0  0.38 0.06 0  0.39 0.06 0  0.4 0.06 0  0.41 0.06 0  0.42 0.06 0  0.43 0.06 0  0.44 0.06 0  0.45 0.06 0  0.46 0.06 0  0.47 0.06 0  0.48 0.06 0  0.49 0.06 0  0.5 0.06 0  0.51 0.06 0  0.52 0.06 0  0.53 0.06 0  0.54 0.06 0  0.55 0.06 0  0.5600000000000001 0.06 0  0.57 0.06 0  0.58 0.06 0  0.59 0.06 0  0.6 0.06 0  0.61 0.06 0  0.62 0.06 0  0.63 0.06 0  0.64 0.06 0  0.65 0.06 0  0.66 0.06 0  0.67 0.06 0  0.68 0.06 0  0.6899999999999999 0.06 0  0.7 0.06 0  0.71 0.06 0  0.72 0.06 0  0.73 0.06 0  0.74 0.06 0  0.75 0.06 0  0.76 0.06 0  0.77 0.06 0  0.78 0.06 0  0.79 0.06 0  0.8 0.06 0  0.8100000000000001 0.06 0  0.82 0.06 0  0.83 0.06 0  0.84 0.06 0  0.85 0.06 0  0.86 0.06 0  0.87 0.06 0  0.88 0.06 0  0.89 0.06 0  0.9 0.06 0  0.91 0.06 0  0.92 0.06 0  0.93 0.06 0  0.9399999999999999 0.06 0  0.95 0.06 0  0.96 0.06 0  0.97 0.06 0  0.98 0.06 0  0.99 0.06 0  1 0.06 0  0 0.07000000000000001 0  0.01 0.07000000000000001 0  0.02 0.07000000000000001 0  0.03 0.07000000000000001 0  0.04 0.07000000000000001 0  0.05 0.07000000000000001 0  0.06 0.07000000000000001 0  0.07000000000000001 0.07000000000000001 0  0.08 0.07000000000000001 0  0.09 0.07000000000000001 0  0.1 0.07000000000000001 0  0.11 0.07000000000000001 0  0.12 0.07000000000000001 0  0.13 0.07000000000000001 0  0.14 0.07000000000000001 0  0.15 0.07000000000000001 0  0.16 0.07000000000000001 0  0.17 0.07000
[...]
<PointData  Scalars="rho_bar"> 
<DataArray  type="Float64"  Name="rho_bar"  format="ascii">8.7955434352957962e-01  8.7808001133457281e-01  8.7638506191893617e-01  8.7409819777931153e-01  8.7112820362044230e-01  8.6747547792157076e-01  8.6318746112077493e-01  8.5834653748258505e-01  8.5306652174442765e-01  8.4748653272335794e-01  8.4176470529745551e-01  8.3607002749197079e-01  8.3057718046046647e-01  8.2546102272010535e-01  8.2089069500127076e-01  8.1701888242746035e-01  8.1396619558915084e-01  8.1179290204135757e-01  8.1046386980032747e-01  8.0982058382469002e-01  8.0958609555796268e-01  8.0939610588497957e-01  8.0883565978609928e-01  8.0745601362093955e-01  8.0477242786633130e-01  8.0025134973611356e-01  7.9330561933277166e-01  7.8330817071333103e-01  7.6966661150918469e-01  7.5201492431221562e-01  7.3048289957059620e-01  7.0577548468982265e-01  6.7878430298987791e-01  6.5015939966423486e-01  6.2005421905856539e-01  5.8804517206025975e-01  5.5327667791624435e-01  5.1486201281246413e-01  4.7245419255106857e-01  4.2664690995062277e-01  3.7918297393240236e-01  3.3266641238040967e-01  2.8944760873218933e-01  2.5079827794239684e-01  2.1697240402928178e-01  1.8765803609186071e-01  1.6230205316247542e-01  1.4033676470601855e-01  1.2127012842382025e-01  1.0469717654477501e-01  9.0289237564883204e-02  7.7775731906552015e-02  6.6928140137537742e-02  5.7547724893139536e-02  4.9457602173199583e-02  4.2498059358168118e-02  3.6524228804254801e-02  3.1405092414033185e-02  2.7023155556797882e-02  2.3274111448575750e-02  2.0066406129527450e-02  1.7320438089713938e-02  1.4967654180311813e-02  1.2949385637106270e-02  1.1215742069375804e-02  9.7243989639424454e-03  8.4395782355656066e-03  7.3310239099403200e-03  6.3731923917725170e-03  5.5444594926350168e-03  4.8265268157791910e-03  4.2038593550474488e-03  3.6632598978031338e-03  3.1934765537391945e-03  2.7849047801399534e-03  2.4293196181652925e-03  2.1196705121175495e-03  1.8498912888064078e-03  1.6147601378078856e-03  1.4097712139881566e-03  1.2310314893276390e-03  1.0751733725179455e-03  9.3927893195666471e-04  8.2082121368883985e-04  7.1760735688544252e-04  6.2773647588925654e-04  5.4955884260276936e-04  4.8164672440626427e-04  4.2276239786330331e-04  3.7183831206293180e-04  3.2795277339952927e-04  2.9031641827908443e-04  2.5825304319539345e-04  2.3119074117632844e-04  2.0864748040224680e-04  1.9022755562825684e-04  1.7560984911711570e-04  1.6454868919623503e-04  1.5687302393559721e-04  1.5252363356842155e-04  1.5167075099072234e-04  8.7245241994233325e-01  8.7169394986853699e-01  8.7010286411865412e-01  8.6773782514979092e-01  8.6460489162546916e-01  8.6073096425556539e-01  8.5617394004728753e-01  8.5102588801295531e-01  8.4541069824144199e-01  8.3947998987338357e-01  8.3340385647315385e-01  8.2736254373401485e-01  8.2154047927892615e-01  8.1612272388634055e-01  8.1128814414834005e-01  8.0720104835559037e-01  8.0399530724623913e-01  8.0174710166141128e-01  8.0042985161777047e-01  7.9987899857979361e-01  7.9979541193779358e-01  7.9978784124596281e-01  7.9941840961766153e-01  7.9822339927748154e-01  7.9570650231877260e-01  7.9132626955000307e-01  7.8449223841681703e-01  7.7458632641875902e-01  7.6103413876747994e-01  7.4348481925993182e-01  7.2207753693899568e-01  6.9755688077288347e-01  6.7089405626424770e-01  6.4279150317604361e-01  6.1341447437984120e-01  5.8233013713922954e-01  5.4868657592560410e-01  5.1162545746548704e-01  4.7081187886629006e-01  4.2680475137157325e-01  3.8115861590453970e-01  3.3616225102690095e-01  2.9397816238927604e-01  2.5588915736032131e-01  2.2224920440864751e-01  1.9285583647621649e-01  1.6723526501016786e-01  1.4488528387487207e-01  1.2536841487054437e-01  1.0832065905175470e-01  9.3442856055854909e-02  8.0484626906501933e-02  6.9229936683727636e-02  5.9486599620001086e-02  5.1079827520458393e-02  4.3848809902340025e-02  3.7645451413199832e-02  3.2334353068329609e-02  2.7793125942979540e-02  2.3912630658455985e-02  2.0596777171307722e-02  1.7761983909620128e-02  1.5336221305320747e-02  1.3257944211871342e-02  1.1474838622882889e-02  9.9426452603524479e-03  8.6239653715527165e-03  7.4872741499105834e-03  6.5059654593228209e-03  5.6575925306266896e-03  4.9231626608441754e-03  4.2865995000910062e-03  3.7342526407281060e-03  3.2545128652757102e-03  2.8374737985535797e-03  2.4746718973043111e-03  2.1588525911078659e-03  1.8837890001798213e-03  1.6441208165363498e-03  1.4352294992006818e-03  1.2531280761141118e-03  1.0943687823514198e-03  9.5596903695580027e-04  8.3534431263420229e-04  7.3025604930524683e-04  6.3876203972584302e-04  5.5918042779996391e-04  4.9005303538830183e-04  4.3011958991412771e-04  3.7828990983257806e-04  3.3362673241847137e-04  2.9532413829174537e-04  2.6269509537695153e-04  2.3515510566631231e-04  2.1221571680869169e-04  1.9347144009059446e-04  1.7859572640166845e-04  1.6733237535178431e-04  1.5949425202572265e-04  1.5495037305247457e-04  1.5358570679979615e-04  8.5221965168670222e-01  8.5155171857286238e-01  8.4984256400625269e-01  8.4712311396596374e-01  8.4343920582060550e-01  8.3884023184733592e-01  8.3340757557699352e-01  8.2726157521195376e-01  8.2056216296967455e-01  8.1350176645855010e-01  8.0629205165663254e-01  7.9914804188875255e-01  7.9228510792034135e-01  7.8591795989553115e-01  7.8025604105901736e-01  7.7549639190499875e-01  7.7181669907610662e-01  7.6934639557864570e-01  7.6809530989788211e-01  7.6787730752226813e-01  7.6831747239593851e-01  7.6893129158605222e-01  7.6921038859208746e-01  7.6864671653036032e-01  7.6671265484075712e-01  7.6283699940920313e-01  7.5641361927962603e-01  7.4683728442993669e-01  7.3358588673118574e-01  7.1638781763766446e-01  6.9547759522825403e-01  6.7172433154043620e-01  6.4628263984111045e-01  6.1996430658061974e-01  5.9293657886791240e-01  5.6470790933555104e-01  5.3439588582517783e-01  5.0121397788095234e-01  4.6488293769637679e-01  4.2587373956381058e-01  3.8537933689866288e-01  3.4501471076341300e-01  3.0635327777265153e-01  2.7045878759668124e-01  2.3782546836474164e-01  2.0853106866598642e-01  1.8234431249597846e-01  1.5897428114572282e-01  1.3816855064003458e-01  1.1970493223846901e-01  1.0339111229866429e-01  8.9051536354733674e-02  7.6518901137038783e-02  6.5628369089744648e-02  5.6216481857382095e-02  4.8121887936986164e-02  4.1187916928431711e-02  3.5265955102369989e-02  3.0218393118705281e-02  2.5920639177521531e-02  2.2262139465784616e-02  1.9146384076367168e-02  1.6490253870520409e-02  1.4222860206575825e-02  1.2284192882443366e-02  1.0623683576821573e-02  9.1988504939231833e-03  7.9740353024984490e-03  6.9193269209877079e-03  6.0095904519870715e-03  5.2236885918136985e-03  4.5437982545002533e-03  3.9548627810644483e-03  3.4441235673061581e-03  3.0007446427713774e-03  2.6154970510798570e-03  2.2805034017735837e-03  1.9890181071484498e-03  1.7352566185036790e-03  1.5142462172465700e-03  1.3217052614227722e-03  1.1539403899993653e-03  1.0077608792805838e-03  8.8040992042440127e-04  7.6950101378152737e-04  6.7296910977190667e-04  5.8902587001596809e-04  5.1612519704409435e-04  4.5292978072483491e-04  3.9828671651032999e-04  3.5120265286915121e-04  3.1082674738694421e-04  2.7643197450221498e-04  2.4740255045046735e-04  2.2322091394683647e-04  2.0345955811864566e-04  1.8777127393669639e-04  1.7588160678127100e-04  1.6758101480219024e-04  1.6271555773488228e-04  1.6116187762668327e-04  8.1356225418413408e-01  8.1280951193371875e-01  8.1072844321765569e-01  8.0728165684562914e-01  8.0252966306367934e-01  7.9654420336910925e-01  7.8944720193000117e-01  7.8141825525130792e-01  7.7269178969732588e-01  7.6354646442056762e-01  7.5427712216933596e-01  7.4516098803670872e-01  7.3646086348522699e-01  7.2844031869642545e-01  7.2135311737966468e-01  7.1544349317247402e-01  7.1095656878238855e-01  7.0813538837512757e-01  7.0708594647309242e-01  7.0759079240921796e-01  7.0911709744569040e-01  7.1099186707836404e-01  7.1258454702732421e-01  7.1333132028721624e-01  7.1266577957554067e-01  7.0996832082588068e-01  7.0460114745997970e-01  6.9598407999072542e-01  6.8369298047904903e-01  6.6761514951459344e-01  6.4816602948128699e-01  6.2638341735563285e-01  6.0361432884455024e-01  5.8077844640203402e-01  5.5800305111239057e-01  5.3469291794559004e-01  5.0993199201413175e-01  4.8303966741057636e-01  4.5380565241532023e-01  4.2256725397355477e-01  3.9003338318936082e-01  3.5708724367339423e-01  3.2457308995822232e-01  2.9311787670465295e-01  2.6314549439059060e-01  2.3491000129550330e-01  2.0847367709569312e-01  1.8386101168489286e-01  1.6114095808276771e-01  1.4037097663802156e-01  1.2158926875196999e-01  1.0479385312068092e-01  8.9938386499853390e-02  7.6932936037759900e-02  6.5652783995436309e-02  5.5947017346195865e-02  4.7649246746294512e-02  4.0589115727180956e-02  3.4601358321275547e-02  2.9532268403695518e-02  2.5243513026709331e-02  2.1613719067058293e-02  1.8538356140204319e-02  1.5928621755586056e-02  1.3709778707369754e-02  1.1819302789305765e-02  1.0205077888296403e-02  8.8237256091887629e-03  7.6391352754229813e-03  6.6212256265823976e-03  5.7448824419475486e-03  4.9890976368088258e-03  4.3362426548174725e-03  3.7714852006051863e-03  3.2823066530793202e-03  2.8581102884143636e-03  2.4898979324117863e-03  2.1700097266830710e-03  1.8919041495033993e-03  1.6499850843374826e-03  1.4394516324731659e-03  1.2561783983912399e-03  1.0966141128738180e-03  9.5769700243199436e-04  8.3678603551697820e-04  7.3159986189802819e-04  6.4016843710195304e-04  5.6079017157313008e-04  4.9199770154207182e-04  4.3252628267512281e-04  3.8128936747643691e-04  3.3735573711924597e-04  2.9993192185222837e-04  2.6834565775548606e-04  2.4203265918880845e-04  2.2052642481081475e-04  2.0344660100455876e-04  1.9049310348139998e-04  1.8143516099941646e-04  1.7610493463609907e-04  1.7439347760898508e-04  7.4767940639544495e-01  7.4681439661551630e-01  7.4413072483781872e-01  7.3952507889833219e-01  7.3308867501352992e-01  7.2493206279236488e-01  7.1525383305213031e-01  7.0435149612814696e-01  6.9260220702957276e-01  6.8043655025004990e-01  6.6829120854033608e-01  6.5651957597024913e-01  6.4542524532684309e-01  6.3531917189414799e-01  6.2649256143803644e-01  6.1921644425024436e-01  6.1378478799194358e-01  6.1060068638156473e-01  6.0997773351087270e-01  6.1168454166746133e-01  6.1495634692824896e-01  6.1882686604217119e-01  6.2252415008126127e-01  6.2546212822840053e-01  6.2706688567292579e-01  6.2665405638720872e-01  6.2354376464994032e-01  6.1719279680376227e-01  6.0731829627309264e-01  5.9401399380649222e-01  5.7790399135807158e-01  5.6016464049834380e-01  5.4220962310124066e-01  5.2498240604588087e-01  5.0854460048562722e-01  4.9220044412188280e-01  4.7504791885200487e-01  4.5653545395780804e-01  4.3652244044425903e-01  4.1515861925670627e-01  3.9272448917255831e-01  3.6948252231485340e-01  3.4561106262133290e-01  3.2120551063815539e-01  2.9636282629642619e-01  2.7123125833135864e-01  2.4597410897618041e-01  2.2085368559278146e-01  1.9626870702636393e-01  1.7266347550494268e-01  1.5047213335369300e-01  1.3003832890088651e-01  1.1158395505431896e-01  9.5203664388453568e-02  8.0887736425698659e-02  6.8538076110403301e-02  5.7993529040772013e-02  4.9059113401167385e-02  4.1528459377365018e-02  3.5200440841260401e-02  2.9889894119153475e-02  2.5432845973855193e-02  2.1687979928796144e-02  1.8535754761361479e-02  1.5876294821180685e-02  1.3626821009606306e-02  1.1719009608494245e-02  1.0096591518686920e-02  8.7132272887272266e-03  7.5307064693823731e-03  6.5174645710976706e-03  5.6473481427708350e-03  4.8986247066415455e-03  4.2531687484151518e-03  3.6958133383936539e-03  3.2138206783883165e-03  2.7964576240258844e-03  2.4346471144134048e-03  2.1206917994645502e-03  1.8480411456555990e-03  1.6111087139504909e-03  1.4051159548148847e-03  1.2259679248492611e-03  1.0701487811669561e-03  9.3463514090991098e-04  8.1682522753699887e-04  7.1447794636344273e-04  6.2566350088468533e-04  5.4872071502355972e-04  4.8222167495721497e-04  4.2494133397999814e-04  3.7583220239496319e-04  3.3400243255704500e-04  2.9869781970888167e-04  2.6928589199558251e-04  2.4524333424865374e-04  2.2614517798330517e-04  2.1165407264046838e-04  2.0151395998555923e-04  1.9554293071445043e-04  1.9363188291320914e-04  6.4415644198985089e-01  6.4341132361344766e-01  6.4003920578538120e-01  6.3404863418809798e-01  6.2560883436183412e-01  6.1491427756776318e-01  6.0230611258837641e-01  5.8829832829013229e-01  5.7350786208555837e-01  5.5855174512137884e-01  5.4400070378029064e-01  5.3024802009980831e-01  5.1755881486899702e-01  5.0622919696294233e-01  4.9652733846257713e-01  4.8869319143583734e-01  4.8298756335612558e-01  4.7982963443969867e-01  4.7973287658153990e-01  4.8255175844684134e-01  4.8746205470674669e-01  4.9331361444898858e-01  4.9927568955523371e-01  5.0481022894872729e-01  5.0939020076991848e-01  5.1228715838395023e-01  5.1279706979658379e-01  5.1042269128425144e-01  5.0499634079504396e-01  4.9675881709526853e-01  4.8643025336434043e-01  4.7518760325247245e-01  4.6431945109959111e-01  4.5467168255152540e-01  4.4626272930464100e-01  4.3841419888985061e-01  4.3033377127469585e-01  4.2161139518311586e-01  4.1210171841508114e-01  4.0180700317368029e-01  3.9072647231358765e-01  3.7871631288426377e-01  3.6544370764483536e-01  3.5050493327526233e-01  3.3355694136074515e-01  3.1437614684489168e-01  2.9291464837219899e-01  2.6940215545857304e-01  2.4436680321652587e-01  2.1852346703244424e-01  1.9270757070960484e-01  1.6777068664471298e-01  1.4442312048724446e-01  1.2316188541185448e-01  1.0427804183371674e-01  8.7853828133204859e-02  7.3800228987717417e-02  6.1922884976581508e-02  5.1970256884022084e-02  4.3673912813916443e-02  3.6776077845963311e-02  3.1044219453650441e-02  2.6276796782546744e-02  2.2303704717865358e-02  1.8983811268717284e-02  1.6201224279534139e-02  1.3861360818568206e-02  1.1887226132911074e-02  1.0216190229806984e-02  8.7972448504269191e-03  7.5887515639083717e-03  6.5566228134828633e-03  5.6728452040234979e-03  4.9143130048725364e-03  4.2618855500537439e-03  3.6996460460964067e-03  3.2143017566540698e-03  2.7947097542686170e-03  2.4314911685865029e-03  2.1167264652642774e-03  1.8437025361359469e-03  1.6067144369958143e-03  1.4008983438960365e-03  1.2220993151360444e-03  1.0667603258016222e-03  9.3183175397778791e-04  8.1469714908399447e-04  7.1311034816521387e-04  6.2514358897304719e-04  5.4914434390734444e-04  4.8369814602528834e-04  4.2759815377449748e-04  3.7981897563002580e-04  3.3949453668581078e-04  3.0590026081726840e-04  2.7843663144691360e-04  2.5661769376792711e-04  2.4005865989854303e-04  2.2846926452308510e-04  2.2164585373103313e-04  2.1947086461172579e-04  5.0282572336428832e-01  5.0257594105195846e-01  4.9886792955613135e-01  4.9220774360770120e-01  4.8282828015802354e-01  4.7106748413869370e-01  4.5742228619964603e-01  4.4260016592156481e-01  4.2740452516749822e-01  4.1253810105851241e-01  3.9850767628288081e-01  3.8562170496533899e-01  3.7405242764681390e-01  3.6397112883416438e-01  3.5555054489075144e-01  3.4895025186880863e-01  3.4435664741170807e-01  3.4204668158680063e-01  3.4235858773845540e-01  3.4525963211755001e-01  3.5020964513445896e-01  3.5639410278505229e-01  3.6315210796038699e-01  3.7006382419345657e-01  3.7669195055128002e-01  3.8238300517423929e-01  3.8652370234520211e-01  3.8867117325712935e-01  3.8868995023009317e-01  3.8680793610995068e-01  3.8364043892222266e-01  3.8013657620797892e-01  3.7732370498902945e-01  3.7589613440621911e-01  3.7591020454002966e-01  3.7682946087910457e-01  3.7807338269596624e-01  3.7930616437757619e-01  3.8037125739696354e-01  3.8116772689210998e-01  3.8155377349504754e-01  3.8118600301871469e-01  3.7940485191091966e-01  3.7541425147459173e-01  3.6849036197583279e-01  3.5798206221788370e-01  3.4342285953060836e-01  3.2474449220637014e-01  3.0228634463604248e-01  2.7669331040574702e-01  2.4887929672803633e-01  2.2004287455026947e-01  1.9140504100556197e-01  1.6408366332521698e-01  1.3899967697148441e-01  1.1672579568343559e-01  9.7453363587016006e-02  8.1112028270461239e-02  6.7452099574136948e-02  5.6136849243848569e-02  4.6811777323650522e-02  3.9142776636035957e-02  3.2834558148915415e-02  2.7636533642362470e-02  2.3341298512440701e-02  1.9779758201020951e-02  1.6815244378796904e-02  1.4337823195863596e-02  1.2259176984637897e-02  1.0508328876441361e-02  9.0281056358195409e-03  7.7723038759898990e-03  6.7034455524899901e-03  5.7909867056609790e-03  5.0099293019196930e-03  4.3397115218545739e-03  3.7633450260314465e-03  3.2667261975292609e-03  2.8380958573664111e-03  2.4676047775295867e-03  2.1469729403962657e-03  1.8692094994540618e-03  1.6283955332850816e-03  1.4195018135777805e-03  1.2382464929032171e-03  1.0809755741116695e-03  9.4456693061193244e-04  8.2635113664432727e-04  7.2404526771643722e-04  6.3569810327928885e-04  5.5964506911030320e-04  4.9446893692754658e-04  4.3896858048600717e-04  3.9213194983446411e-04  3.5311304202044686e-04  3.2121427863229151e-04  2.9586974100677930e-04  2.7663384922531358e-04  2.6317030898358174e-04  2.5524640150582369e-04  2.5272911040686284e-04  3.5154286810192625e-01  3.5128693743882061e-01  3.4805106411533876e-01  3.4236360854008202e-01  3.3442575746603814e-01  3.2464496170746149e-01  3.1352371477700669e-01  3.0169268299006752e-01  2.8981440877150350e-01  2.7843588978654998e-01  2.6791056459427343e-01  2.5842789731476734e-01  2.5008661385933312e-01  2.4296810302782501e-01  2.3715667991883183e-01  2.3274194226613742e-01  2.2983412564089226e-01  2.2857743139074554e-01  2.2911305520362149e-01  2.3142196416701341e-01  2.3525327291384293e-01  2.4021433759535385e-01  2.4594524810006529e-01  2.5218130544412526e-01  2.5865246310593981e-01  2.6498331032933370e-01  2.7079464480999865e-01  2.7577181518213428e-01  2.7978985190461525e-01  2.8297343171614125e-01  2.8572288010967484e-01  2.8867700674577740e-01  2.9255564294363134e-01  2.9790136387633659e-01  3.0486147995446150e-01  3.1313346410675608e-01  3.2233371415770257e-01  3.3218965450575816e-01  3.4251006979709209e-01  3.5312309566619310e-01  3.6380359938551632e-01  3.7412570765207720e-01  3.8328514042357698e-01  3.9022298291707197e-01  3.9394977181365348e-01  3.9350599541561937e-01  3.8803876952903932e-01  3.7715810093011004e-01  3.6089785180530526e-01  3.3956042877909515e-01  3.1367401205131129e-01  2.8422396169683739e-01  2.5245972396512723e-01  2.1984827274256327e-01  1.8801769612901337e-01  1.5845823047767743e-01  1.3209814347563606e-01  1.0936748481919939e-01  9.0234875460532965e-02  7.4388171574892359e-02  6.1395990392791949e-02  5.0801567902745849e-02  4.2178030063565644e-02  3.5153960569794585e-02  2.9419076766905645e-02  2.4720303171214628e-02  2.0854223695143642e-02  1.7658678218761843e-02  1.5004924595767551e-02  1.2790798202623589e-02  1.0935124332945656e-02  9.3732042954018744e-03  8.0532587788432683e-03  6.9336643288437664e-03  5.9807804458029594e-03  5.1672858029225754e-03  4.4708658869628418e-03  3.8732028368240199e-03  3.3591781490682092e-03  2.9162530531073546e-03  2.5339749624860774e-03  2.2035945123415018e-03  1.9177530735551671e-03  1.6702434264972742e-03  1.4558096962669551e-03  1.2699927243943916e-03  1.1090005629201699e-03  9.6960544070896044e-04  8.4905843739298931e-04  7.4501917450730615e-04  6.5549695911275090e-04  5.7880311850650411e-04  5.1350975851090783e-04  4.5841653740598257e-04  4.1252310150344078e-04  3.7500493817397613e-04  3.4519567010182387e-04  3.2257061052788492e-04  3.0673585034417868e-04  2.9741903131388925e-04  2.9446556431430741e-04  2.2818849434394148e-01  2.2764802732289621e-01  2.2539298382068437e-01  2.2153372416744546e-01  2.1623176582942577e-01  2.0979485518752058e-01  2.0257291587201318e-01  1.9497309080297925e-01  1.8739635696981838e-01  1.8017080717965003e-01  1.7351657822761796e-01  1.6755996959324140e-01  1.6237217156963754e-01  1.5800469757014329e-01  1.5450668143995394e-01  1.5193131232266280e-01  1.5034090749991927e-01  1.4980555450445346e-01  1.5038085341140914e-01  1.5205730160685491e-01  1.5473566923660570e-01  1.58256754588