<?xml version="1.0"?>
<VTKFile type="UnstructuredGrid"  version="0.1"  >
<UnstructuredGrid>
<Piece  NumberOfPoints="5151" NumberOfCells="10000">
<Points>
<DataArray  type="Float64"  NumberOfComponents="3"  format="ascii">0 0 0  0.01 0 0  0.02 0 0  0.03 0 0  0.04 0 0  0.05 0 0  0.06 0 0  0.07000000000000001 0 0  0.08 0 0  0.09 0 0  0.1 0 0  0.11 0 0  0.12 0 0  0.13 0 0  0.14 0 0  0.15 0 0  0.16 0 0  0.17 0 0  0.18 0 0  0.19 0 0  0.2 0 0  0.21 0 0  0.22 0 0  0.23 0 0  0.24 0 0  0.25 0 0  0.26 0 0  0.27 0 0  0.28 0 0  0.29 0 0  0.3 0 0  0.31 0 0  0.32 0 0  0.33 0 0  0.34 0 0  0.35 0 0  0.36 0 0  0.37 0 0  0.38 0 0  0.39 0 0  0.4 0 0  0.41 0 0  0.42 0 0  0.43 0 0  0.44 0 0  0.45 0 0  0.46 0 0  0.47 0 0  0.48 0 0  0.49 0 0  0.5 0 0  0.51 0 0  0.52 0 0  0.53 0 0  0.54 0 0  0.55 0 0  0.5600000000000001 0 0  0.57 0 0  0.58 0 0  0.59 0 0  0.6 0 0  0.61 0 0  0.62 0 0  0.63 0 0  0.64 0 0  0.65 0 0  0.66 0 0  0.67 0 0  0.68 0 0  0.6899999999999999 0 0  0.7 0 0  0.71 0 0  0.72 0 0  0.73 0 0  0.74 0 0  0.75 0 0  0.76 0 0  0.77 0 0  0.78 0 0  0.79 0 0  0.8 0 0  0.8100000000000001 0 0  0.82 0 0  0.83 0 0  0.84 0 0  0.85 0 0  0.86 0 0  0.87 0 0  0.88 0 0  0.89 0 0  0.9 0 0  0.91 0 0  0.92 0 0  0.93 0 0  0.9399999999999999 0 0  0.95 0 0  0.96 0 0  0.97 0 0  0.98 0 0  0.99 0 0  1 0 0  0 0.01 0  0.01 0.01 0  0.02 0.01 0  0.03 0.01 0  0.04 0.01 0  0.05 0.01 0  0.06 0.01 0  0.07000000000000001 0.01 0  0.08 0.01 0  0.09 0.01 0  0.1 0.01 0  0.11 0.01 0  0.12 0.01 0  0.13 0.01 0  0.14 0.01 0  0.15 0.01 0  0.16 0.01 0  0.17 0.01 0  0.18 0.01 0  0.19 0.01 0  0.2 0.01 0  0.21 0.01 0  0.22 0.01 0  0.23 0.01 0  0.24 0.01 0  0.25 0.01 0  0.26 0.01 0  0.27 0.01 0  0.28 0.01 0  0.29 0.01 0  0.3 0.01 0  0.31 0.01 0  0.32 0.01 0  0.33 0.01 0  0.34 0.01 0  0.35 0.01 0  0.36 0.01 0  0.37 0.01 0  0.38 0.01 0  0.39 0.01 0  0.4 0.01 0  0.41 0.01 0  0.42 0.01 0  0.43 0.01 0  0.44 0.01 0  0.45 0.01 0  0.46 0.01 0  0.47 0.01 0  0.48 0.01 0  0.49 0.01 0  0.5 0.01 0  0.51 0.01 0  0.52 0.01 0  0.53 0.01 0  0.54 0.01 0  0.55 0.01 0  0.5600000000000001 0.01 0  0.57 0.01 0  0.58 0.01 0  0.59 0.01 0  0.6 0.01 0  0.61 0.01 0  0.62 0.01 0  0.63 0.01 0  0.64 0.01 0  0.65 0.01 0  0.66 0.01 0  0.67 0.01 0  0.68 0.01 0  0.6899999999999999 0.01 0  0.7 0.01 0  0.71 0.01 0  0.72 0.01 0  0.73 0.01 0  0.74 0.01 0  0.75 0.01 0  0.76 0.01 0  0.77 0.01 0  0.78 0.01 0  0.79 0.01 0  0.8 0.01 0  0.8100000000000001 0.01 0  0.82 0.01 0  0.83 0.01 0  0.84 0.01 0  0.85 0.01 0  0.86 0.01 0  0.87 0.01 0  0.88 0.01 0  0.89 0.01 0  0.9 0.01 0  0.91 0.01 0  0.92 0.01 0  0.93 0.01 0  0.9399999999999999 0.01 0  0.95 0.01 0  0.96 0.01 0  0.97 0.01 0  0.98 0.01 0  0.99 0.01 0  1 0.01 0  0 0.02 0  0.01 0.02 0  0.02 0.02 0  0.03 0.02 0  0.04 0.02 0  0.05 0.02 0  0.06 0.02 0  0.07000000000000001 0.02 0  0.08 0.02 0  0.09 0.02 0  0.1 0.02 0  0.11 0.02 0  0.12 0.02 0  0.13 0.02 0  0.14 0.02 0  0.15 0.02 0  0.16 0.02 0  0.17 0.02 0  0.18 0.02 0  0.19 0.02 0  0.2 0.02 0  0.21 0.02 0  0.22 0.02 0  0.23 0.02 0  0.24 0.02 0  0.25 0.02 0  0.26 0.02 0  0.27 0.02 0  0.28 0.02 0  0.29 0.02 0  0.3 0.02 0  0.31 0.02 0  0.32 0.02 0  0.33 0.02 0  0.34 0.02 0  0.35 0.02 0  0.36 0.02 0  0.37 0.02 0  0.38 0.02 0  0.39 0.02 0  0.4 0.02 0  0.41 0.02 0  0.42 0.02 0  0.43 0.02 0  0.44 0.02 0  0.45 0.02 0  0.46 0.02 0  0.47 0.02 0  0.48 0.02 0  0.49 0.02 0  0.5 0.02 0  0.51 0.02 0  0.52 0.02 0  0.53 0.02 0  0.54 0.02 0  0.55 0.02 0  0.5600000000000001 0.02 0  0.57 0.02 0  0.58 0.02 0  0.59 0.02 0  0.6 0.02 0  0.61 0.02 0  0.62 0.02 0  0.63 0.02 0  0.64 0.02 0  0.65 0.02 0  0.66 0.02 0  0.67 0.02 0  0.68 0.02 0  0.6899999999999999 0.02 0  0.7 0.02 0  0.71 0.02 0  0.72 0.02 0  0.73 0.02 0  0.74 0.02 0  0.75 0.02 0  0.76 0.02 0  0.77 0.02 0  0.78 0.02 0  0.79 0.02 0  0.8 0.02 0  0.8100000000000001 0.02 0  0.82 0.02 0  0.83 0.02 0  0.84 0.02 0  0.85 0.02 0  0.86 0.02 0  0.87 0.02 0  0.88 0.02 0  0.89 0.02 0  0.9 0.02 0  0.91 0.02 0  0.92 0.02 0  0.93 0.02 0  0.9399999999999999 0.02 0  0.95 0.02 0  0.96 0.02 0  0.97 0.02 0  0.98 0.02 0  0.99 0.02 0  1 0.02 0  0 0.03 0  0.01 0.03 0  0.02 0.03 0  0.03 0.03 0  0.04 0.03 0  0.05 0.03 0  0.06 0.03 0  0.07000000000000001 0.03 0  0.08 0.03 0  0.09 0.03 0  0.1 0.03 0  0.11 0.03 0  0.12 0.03 0  0.13 0.03 0  0.14 0.03 0  0.15 0.03 0  0.16 0.03 0  0.17 0.03 0  0.18 0.03 0  0.19 0.03 0  0.2 0.03 0  0.21 0.03 0  0.22 0.03 0  0.23 0.03 0  0.24 0.03 0  0.25 0.03 0  0.26 0.03 0  0.27 0.03 0  0.28 0.03 0  0.29 0.03 0  0.3 0.03 0  0.31 0.03 0  0.32 0.03 0  0.33 0.03 0  0.34 0.03 0  0.35 0.03 0  0.36 0.03 0  0.37 0.03 0  0.38 0.03 0  0.39 0.03 0  0.4 0.03 0  0.41 0.03 0  0.42 0.03 0  0.43 0.03 0  0.44 0.03 0  0.45 0.03 0  0.46 0.03 0  0.47 0.03 0  0.48 0.03 0  0.49 0.03 0  0.5 0.03 0  0.51 0.03 0  0.52 0.03 0  0.53 0.03 0  0.54 0.03 0  0.55 0.03 0  0.5600000000000001 0.03 0  0.57 0.03 0  0.58 0.03 0  0.59 0.03 0  0.6 0.03 0  0.61 0.03 0  0.62 0.03 0  0.63 0.03 0  0.64 0.03 0  0.65 0.03 0  0.66 0.03 0  0.67 0.03 0  0.68 0.03 0  0.6899999999999999 0.03 0  0.7 0.03 0  0.71 0.03 0  0.72 0.03 0  0.73 0.03 0  0.74 0.03 0  0.75 0.03 0  0.76 0.03 0  0.77 0.03 0  0.78 0.03 0  0.79 0.03 0  0.8 0.03 0  0.8100000000000001 0.03 0  0.82 0.03 0  0.83 0.03 0  0.84 0.03 0  0.85 0.03 0  0.86 0.03 0  0.87 0.03 0  0.88 0.03 0  0.89 0.03 0  0.9 0.03 0  0.91 0.03 0  0.92 0.03 0  0.93 0.03 0  0.9399999999999999 0.03 0  0.95 0.03 0  0.96 0.03 0  0.97 0.03 0  0.98 0.03 0  0.99 0.03 0  1 0.03 0  0 0.04 0  0.01 0.04 0  0.02 0.04 0  0.03 0.04 0  0.04 0.04 0  0.05 0.04 0  0.06 0.04 0  0.07000000000000001 0.04 0  0.08 0.04 0  0.09 0.04 0  0.1 0.04 0  0.11 0.04 0  0.12 0.04 0  0.13 0.04 0  0.14 0.04 0  0.15 0.04 0  0.16 0.04 0  0.17 0.04 0  0.18 0.04 0  0.19 0.04 0  0.2 0.04 0  0.21 0.04 0  0.22 0.04 0  0.23 0.04 0  0.24 0.04 0  0.25 0.04 0  0.26 0.04 0  0.27 0.04 0  0.28 0.04 0  0.29 0.04 0  0.3 0.04 0  0.31 0.04 0  0.32 0.04 0  0.33 0.04 0  0.34 0.04 0  0.35 0.04 0  0.36 0.04 0  0.37 0.04 0  0.38 0.04 0  0.39 0.04 0  0.4 0.04 0  0.41 0.04 0  0.42 0.04 0  0.43 0.04 0  0.44 0.04 0  0.45 0.04 0  0.46 0.04 0  0.47 0.04 0  0.48 0.04 0  0.49 0.04 0  0.5 0.04 0  0.51 0.04 0  0.52 0.04 0  0.53 0.04 0  0.54 0.04 0  0.55 0.04 0  0.5600000000000001 0.04 0  0.57 0.04 0  0.58 0.04 0  0.59 0.04 0  0.6 0.04 0  0.61 0.04 0  0.62 0.04 0  0.63 0.04 0  0.64 0.04 0  0.65 0.04 0  0.66 0.04 0  0.67 0.04 0  0.68 0.04 0  0.6899999999999999 0.04 0  0.7 0.04 0  0.71 0.04 0  0.72 0.04 0  0.73 0.04 0  0.74 0.04 0  0.75 0.04 0  0.76 0.04 0  0.77 0.04 0  0.78 0.04 0  0.79 0.04 0  0.8 0.04 0  0.8100000000000001 0.04 0  0.82 0.04 0  0.83 0.04 0  0.84 0.04 0  0.85 0.04 0  0.86 0.04 0  0.87 0.04 0  0.88 0.04 0  0.89 0.04 0  0.9 0.04 0  0.91 0.04 0  0.92 0.04 0  0.93 0.04 0  0.9399999999999999 0.04 0  0.95 0.04 0  0.96 0.04 0  0.97 0.04 0  0.98 0.04 0  0.99 0.04 0  1 0.04 0  0 0.05 0  0.01 0.05 0  0.02 0.05 0  0.03 0.05 0  0.04 0.05 0  0.05 0.05 0  0.06 0.05 0  0.07000000000000001 0.05 0  0.08 0.05 0  0.09 0.05 0  0.1 0.05 0  0.11 0.05 0  0.12 0.05 0  0.13 0.05 0  0.14 0.05 0  0.15 0.05 0  0.16 0.05 0  0.17 0.05 0  0.18 0.05 0  0.19 0.05 0  0.2 0.05 0  0.21 0.05 0  0.22 0.05 0  0.23 0.05 0  0.24 0.05 0  0.25 0.05 0  0.26 0.05 0  0.27 0.05 0  0.28 0.05 0  0.29 0.05 0  0.3 0.05 0  0.31 0.05 0  0.32 0.05 0  0.33 0.05 0  0.34 0.05 0  0.35 0.05 0  0.36 0.05 0  0.37 0.05 0  0.38 0.05 0  0.39 0.05 0  0.4 0.05 0  0.41 0.05 0  0.42 0.05 0  0.43 0.05 0  0.44 0.05 0  0.45 0.05 0  0.46 0.05 0  0.47 0.05 0  0.48 0.05 0  0.49 0.05 0  0.5 0.05 0  0.51 0.05 0  0.52 0.05 0  0.53 0.05 0  0.54 0.05 0  0.55 0.05 0  0.5600000000000001 0.05 0  0.57 0.05 0  0.58 0.05 0  0.59 0.05 0  0.6 0.05 0  0.61 0.05 0  0.62 0.05 0  0.63 0.05 0  0.64 0.05 0  0.65 0.05 0  0.66 0.05 0  0.67 0.05 0  0.68 0.05 0  0.6899999999999999 0.05 0  0.7 0.05 0  0.71 0.05 0  0.72 0.05 0  0.73 0.05 0  0.74 0.05 0  0.75 0.05 0  0.76 0.05 0  0.77 0.05 0  0.78 0.05 0  0.79 0.05 0  0.8 0.05 0  0.8100000000000001 0.05 0  0.82 0.05 0  0.83 0.05 0  0.84 0.05 0  0.85 0.05 0  0.86 0.05 0  0.87 0.05 0  0.88 0.05 0  0.89 0.05 0  0.9 0.05 0  0.91 0.05 0  0.92 0.05 0  0.93 0.05 0  0.9399999999999999 0.05 0  0.95 0.05 0  0.96 0.05 0  0.97 0.05 0  0.98 0.05 0  0.99 0.05 0  1 0.05 0  0 0.06 0  0.01 0.06 0  0.02 0.06 0  0.03 0.06 0  0.04 0.06 0  0.05 0.06 0  0.06 0.06 0  0.07000000000000001 0.06 0  0.08 0.06 0  0.09 0.06 0  0.1 0.06 0  0.11 0.06 0  0.12 0.06 0  0.13 0.06 0  0.14 0.06 0  0.15 0.06 0  0.16 0.06 0  0.17 0.06 0  0.18 0.06 0  0.19 0.06 0  0.2 0.06 0  0.21 0.06 0  0.22 0.06 0  0.23 0.06 0  0.24 0.06 0  0.25 0.06 0  0.26 0.06 0  0.27 0.06 0  0.28 0.06 0  0.29 0.06 0  0.3 0.06 0  0.31 0.06 0  0.32 0.06 0  0.33 0.06 0  0.34 0.06 0  0.35 0.06 0  0.36 0.06 0  0.37 0.06 0  0.38 0.06 0  0.39 0.06 0  0.4 0.06 0  0.41 0.06 0  0.42 0.06 0  0.43 0.06 0  0.44 0.06 0  0.45 0.06 0  0.46 0.06 0  0.47 0.06 0  0.48 0.06 0  0.49 0.06 0  0.5 0.06 0  0.51 0.06 0  0.52 0.06 0  0.53 0.06 0  0.54 0.06 0  0.55 0.06 0  0.5600000000000001 0.06 0  0.57 0.06 0  0.58 0.06 0  0.59 0.06 0  0.6 0.06 0  0.61 0.06 0  0.62 0.06 0  0.63 0.06 0  0.64 0.06 0  0.65 0.06 0  0.66 0.06 0  0.67 0.06 0  0.68 0.06 0  0.6899999999999999 0.06 0  0.7 0.06 0  0.71 0.06 0  0.72 0.06 0  0.73 0.06 0  0.74 0.06 0  0.75 0.06 0  0.76 0.06 0  0.77 0.06 0  0.78 0.06 0  0.79 0.06 0  0.8 0.06 0  0.8100000000000001 0.06 0  0.82 0.06 0  0.83 0.06 0  0.84 0.06 0  0.85 0.06 0  0.86 0.06 0  0.87 0.06 0  0.88 0.06 0  0.89 0.06 0  0.9 0.06 0  0.91 0.06 0  0.92 0.06 0  0.93 0.06 0  0.9399999999999999 0.06 0  0.95 0.06 0  0.96 0.06 0  0.97 0.06 0  0.98 0.06 0  0.99 0.06 0  1 0.06 0  0 0.07000000000000001 0  0.01 0.07000000000000001 0  0.02 0.07000000000000001 0  0.03 0.07000000000000001 0  0.04 0.07000000000000001 0  0.05 0.07000000000000001 0  0.06 0.07000000000000001 0  0.07000000000000001 0.07000000000000001 0  0.08 0.07000000000000001 0  0.09 0.07000000000000001 0  0.1 0.07000000000000001 0  0.11 0.07000000000000001 0  0.12 0.07000000000000001 0  0.13 0.07000000000000001 0  0.14 0.07000000000000001 0  0.15 0.07000000000000001 0  0.16 0.07000000000000001 0  0.17 0.07000
[...]
<PointData  Scalars="rho_bar"> 
<DataArray  type="Float64"  Name="rho_bar"  format="ascii">9.9754188261584464e-01  9.9767996929001324e-01  9.9724521555307599e-01  9.9694199524083482e-01  9.9657430579947193e-01  9.9622166273695445e-01  9.9589643191450949e-01  9.9560363084196457e-01  9.9532389193513704e-01  9.9502221322360151e-01  9.9466162797483737e-01  9.9421644058515712e-01  9.9368923495174977e-01  9.9312360373712760e-01  9.9259694978437418e-01  9.9219357896277816e-01  9.9197638007171629e-01  9.9197230433006511e-01  9.9217401322828036e-01  9.9254762125979135e-01  9.9304570430887984e-01  9.9362481648620160e-01  9.9426008491105955e-01  9.9494654092602619e-01  9.9568360565263292e-01  9.9645103792220235e-01  9.9720186054091209e-01  9.9787918834468980e-01  9.9843319049881807e-01  9.9882397356738162e-01  9.9903880433859471e-01  9.9912803313523968e-01  9.9918002694891528e-01  9.9922697866901489e-01  9.9922107131282034e-01  9.9908554454744225e-01  9.9865031844421970e-01  9.9758244985611444e-01  9.9183672159919967e-01  9.7385931487439859e-01  8.2190871924828468e-01  3.5371503810905874e-01  8.4562764828322048e-02  2.1278383784730865e-02  6.5440935377090691e-03  2.3098372062135479e-03  9.5089287912913077e-04  4.0932665481706825e-04  1.9344857355370497e-04  1.0274876977012724e-04  5.6207689351286353e-05  3.1187408005068592e-05  1.8489596965890554e-05  1.1476223101877135e-05  7.2356049515482104e-06  4.7164179424706457e-06  3.1785671897360443e-06  2.1892731433456839e-06  1.5453893445147048e-06  1.1165252565448749e-06  8.2259675068545383e-07  6.1750107934752069e-07  4.7136535532844804e-07  3.6518102927688244e-07  2.8670267894699307e-07  2.2772979740266641e-07  1.8275048648221338e-07  1.4797456442479590e-07  1.2075426520886012e-07  9.9211113894175678e-08  8.1991741990824900e-08  6.8106766493495676e-08  5.6823096761105322e-08  4.7590191539166087e-08  3.9989516877402355e-08  3.3699284296964537e-08  2.8469356378290495e-08  2.4103278738215455e-08  2.0445375407928304e-08  1.7371326931831978e-08  1.4780972306511383e-08  1.2593193771675696e-08  1.0741744471741127e-08  9.1724392149928856e-09  7.8405418005576174e-09  6.7091313928871372e-09  5.7474982276879231e-09  4.9301631938183718e-09  4.2358181702326688e-09  3.6467142895847789e-09  3.1479797424055155e-09  2.7272540512294908e-09  2.3741889782850698e-09  2.0802386525952707e-09  1.8383250376124114e-09  1.6427357714246257e-09  1.4888825391206513e-09  1.3732648964769224e-09  1.2933833665245350e-09  1.2481084608579409e-09  1.2386566003605636e-09  9.9954056058800278e-01  9.9857345426654986e-01  9.9898024924056450e-01  9.9906265703418684e-01  9.9904801016261191e-01  9.9879768700820326e-01  9.9821967774788900e-01  9.9725270178988690e-01  9.9588982817887173e-01  9.9419225224944985e-01  9.9228025166543277e-01  9.9032464605847770e-01  9.8853205148268353e-01  9.8711056497774452e-01  9.8623065046136837e-01  9.8599590600303177e-01  9.8642185698520179e-01  9.8742709084484637e-01  9.8884656331170662e-01  9.9047638063207644e-01  9.9213160715276838e-01  9.9368028661863894e-01  9.9503770256845958e-01  9.9614387641305024e-01  9.9695389925561007e-01  9.9745910943728977e-01  9.9771140959016746e-01  9.9780934413052991e-01  9.9786028012452332e-01  9.9796400924297690e-01  9.9820112281058404e-01  9.9856292137862945e-01  9.9890294687428627e-01  9.9907349832399583e-01  9.9907173131732308e-01  9.9892737311503854e-01  9.9851565827506061e-01  9.9721844855292707e-01  9.9280778182058471e-01  9.7240876112415964e-01  8.4690676960997824e-01  4.2415836888589115e-01  1.0255104777923266e-01  2.8258363824344206e-02  8.4530934722798958e-03  2.9819717910625878e-03  1.1148518029041312e-03  4.9707219201305291e-04  2.5551264198058496e-04  1.2489207317001048e-04  6.2652246389430000e-05  3.6518460272592831e-05  2.1913688250728488e-05  1.2887662150459118e-05  8.0584107648161513e-06  5.2715946564787546e-06  3.4827583744811532e-06  2.3751846098975632e-06  1.6672497183104402e-06  1.1930823525090725e-06  8.7329825783152049e-07  6.5187825407525544e-07  4.9492059844528309e-07  3.8178126517782997e-07  2.9859352144851569e-07  2.3640292391347309e-07  1.8918707621226561e-07  1.5282362819855733e-07  1.2446021434378015e-07  1.0208056995161233e-07  8.4239921724173621e-08  6.9887293478471640e-08  5.8247010320548490e-08  4.8738929544585471e-08  4.0923583757292949e-08  3.4464135412453572e-08  2.9099550887509662e-08  2.4625390916282257e-08  2.0880073949874012e-08  1.7734763893355227e-08  1.5085996439444451e-08  1.2849971905626028e-08  1.0958563657097128e-08  9.3559189819069628e-09  7.9961727991866529e-09  6.8413538040782495e-09  5.8600599499865105e-09  5.0261310509771594e-09  4.3178089764912479e-09  3.7168919133764247e-09  3.2082313485779680e-09  2.7791505166588116e-09  2.4191219455035207e-09  2.1193744034556600e-09  1.8727277079858664e-09  1.6733100932774474e-09  1.5164504772352075e-09  1.3985101955368103e-09  1.3168337494765583e-09  1.2695619520056015e-09  1.2552857562279212e-09  9.8874231299188120e-01  9.9167262194584549e-01  9.8974918590871419e-01  9.8810474961860650e-01  9.8613361447177883e-01  9.8417119199479530e-01  9.8245143364939758e-01  9.8115632921867846e-01  9.8034137431925550e-01  9.7989461528339050e-01  9.7958582401463568e-01  9.7915518582372663e-01  9.7839012416119320e-01  9.7723408579716786e-01  9.7585524592435380e-01  9.7456360102736761e-01  9.7364385911032270e-01  9.7323392725527325e-01  9.7333781420371646e-01  9.7389864559636885e-01  9.7484371694542282e-01  9.7610122863132576e-01  9.7764217614684390e-01  9.7951010040781339e-01  9.8181170176045596e-01  9.8462137246648296e-01  9.8783064610733318e-01  9.9112539898757812e-01  9.9412655477964240e-01  9.9650909123701259e-01  9.9800959065219930e-01  9.9851753883804240e-01  9.9836357601497794e-01  9.9819920603714640e-01  9.9827202338511956e-01  9.9826863984661363e-01  9.9784614618276102e-01  9.9654608040165837e-01  9.9236359811464192e-01  9.7585147285373186e-01  8.9742719621784706e-01  5.9466959514549744e-01  2.0536780504013585e-01  5.8946954331729404e-02  1.7221571822420588e-02  5.5763791694901687e-03  2.4167866193723587e-03  1.0952584030640255e-03  4.0553809334738938e-04  1.8345127225658029e-04  1.1726440712167279e-04  6.3278045516766571e-05  3.0730254582117139e-05  1.8752047281426092e-05  1.1926353434929637e-05  7.1077369057961916e-06  4.5863597386441068e-06  3.0869827438190106e-06  2.0828987789681167e-06  1.4602442720417510e-06  1.0486215378218467e-06  7.6711429189242364e-07  5.7387353408150474e-07  4.3665626937438905e-07  3.3754416143326799e-07  2.6463283683215473e-07  2.0998571393742857e-07  1.6841185003825899e-07  1.3631824267515855e-07  1.1122593441906611e-07  9.1382059726938385e-08  7.5528237675440496e-08  6.2747952780505006e-08  5.2363226071020566e-08  4.3865884345721573e-08  3.6870233109027133e-08  3.1079896937567420e-08  2.6264638561751683e-08  2.2243769772191759e-08  1.8874222760818415e-08  1.6041701140178926e-08  1.3654245687938065e-08  1.1637292652251874e-08  9.9301457414339554e-09  8.4829971267548985e-09  7.2548936642102965e-09  6.2119361634555079e-09  5.3260648926116162e-09  4.5739079798226947e-09  3.9360354754919340e-09  3.3962227860365979e-09  2.9409748671288168e-09  2.5590435103327777e-09  2.2411209792883211e-09  1.9795280108134284e-09  1.7680336190729356e-09  1.6016356446006709e-09  1.4764342694384989e-09  1.3894723563831469e-09  1.3386563576264906e-09  1.3224257756745224e-09  9.9733342747832909e-01  9.8940123597609997e-01  9.9193428209915657e-01  9.9344978560256092e-01  9.9410581850895852e-01  9.9267892431858606e-01  9.8776204251405519e-01  9.7804692619378886e-01  9.6260877943739642e-01  9.4136724778121272e-01  9.1528794745972519e-01  8.8626238296100768e-01  8.5706601839537389e-01  8.3131370174789221e-01  8.1271943178161843e-01  8.0409513015810297e-01  8.0655413708656076e-01  8.1924666249206513e-01  8.3968317857271202e-01  8.6443839727044858e-01  8.9007769390774516e-01  9.1409938114506373e-01  9.3523322649915108e-01  9.5295150364785974e-01  9.6696967605692374e-01  9.7694641815915517e-01  9.8271880935955547e-01  9.8490393486452710e-01  9.8483824173851320e-01  9.8406841900672559e-01  9.8402967810249142e-01  9.8590707316625648e-01  9.8977030795588716e-01  9.9369841745061060e-01  9.9567578307379201e-01  9.9601222651903787e-01  9.9576763500000276e-01  9.9463919127492384e-01  9.9102227610374050e-01  9.7974365272572406e-01  9.4029279322265058e-01  8.0479381041729092e-01  4.8340332956762516e-01  1.7906968511920140e-01  5.6332441252237249e-02  2.1951394046583934e-02  7.5115312243260656e-03  2.1324411441970979e-03  1.1370204697233694e-03  7.2266529362936165e-04  2.7026935106085542e-04  9.5825888887576444e-05  7.0672032332908774e-05  4.1918328231678315e-05  1.9209117127821943e-05  1.2029189581446646e-05  7.7780241532127744e-06  4.6012490095166176e-06  3.0519094308599295e-06  2.0673638512647365e-06  1.4122975107424425e-06  1.0089479679766608e-06  7.3310972044893797e-07  5.4464414415539029e-07  4.1305850590395801e-07  3.1822600083726571e-07  2.4894520231907861e-07  1.9722484827794428e-07  1.5799491241309964e-07  1.2778855901270083e-07  1.0421248782355518e-07  8.5593499640094329e-08  7.0732869636128669e-08  5.8761704659374127e-08  4.9039175534885688e-08  4.1086179221200512e-08  3.4539794717172702e-08  2.9121601352613446e-08  2.4615631956922060e-08  2.0852617501975053e-08  1.7698646488317440e-08  1.5046846196622628e-08  1.2811304383306591e-08  1.0922433410309494e-08  9.3236076316950931e-09  7.9684071811548848e-09  6.8186904032397326e-09  5.8429151901899945e-09  5.0149987989599298e-09  4.3132473338055413e-09  3.7196511153796719e-09  3.2192151861484567e-09  2.7994993778701723e-09  2.4501930492866253e-09  2.1628262888862640e-09  1.9304982119913120e-09  1.7476803269562623e-09  1.6100434749739215e-09  1.5143273126842713e-09  1.4581867610377876e-09  1.4401936093029948e-09  8.0183856549856369e-01  8.0601103560452925e-01  7.8781007415725346e-01  7.5464651871618449e-01  7.0822434698204195e-01  6.5007107318039459e-01  5.8325267867124420e-01  5.1128186081886640e-01  4.3821679360470356e-01  3.6842111433812513e-01  3.0556939270940869e-01  2.5194561648133545e-01  2.0879845831992866e-01  1.7705634265799644e-01  1.5701207874832337e-01  1.4836815893542599e-01  1.5067081153047912e-01  1.6357387477352797e-01  1.8680023395186166e-01  2.1971105471544344e-01  2.6083734123887586e-01  3.0837179820212174e-01  3.6140866565624519e-01  4.1996800654382832e-01  4.8550105254655396e-01  5.5998983690630966e-01  6.4174640257398263e-01  7.2501693394419309e-01  8.0241401988464467e-01  8.6830114517183921e-01  9.1950981000039222e-01  9.5418522882446533e-01  9.7172994651706190e-01  9.7686177982524980e-01  9.7972572349176978e-01  9.8484783208483484e-01  9.8858155183075302e-01  9.8922160449899654e-01  9.8746589886398550e-01  9.8164362603285493e-01  9.6611575481719236e-01  9.2592378172468637e-01  8.2291072391972697e-01  5.8998023970465219e-01  2.9360103525096881e-01  9.9163983063809691e-02  3.2302734777052380e-02  1.6188674966753025e-02  6.8370108965932980e-03  1.5602520639862415e-03  6.0933685621558284e-04  5.5837502935943866e-04  2.3709161207586917e-04  6.7271456386662308e-05  5.1168850857839347e-05  3.0707736968898236e-05  1.3376453068380344e-05  8.7927556624568161e-06  5.4727280851146911e-06  3.2438454433499016e-06  2.2083130036456982e-06  1.4808269796256382e-06  1.0303043384960976e-06  7.4369934312085638e-07  5.4532744418632387e-07  4.1037543152069968e-07  3.1417110516432164e-07  2.4447660566967113e-07  1.9293863840723855e-07  1.5407462277068152e-07  1.2431836942979431e-07  1.0119230293309886e-07  8.2993164022313660e-08  6.8508902806775400e-08  5.6867528071454580e-08  4.7430081008578053e-08  3.9721370694305556e-08  3.3383114347256633e-08  2.8141590447881522e-08  2.3785249589447092e-08  2.0148810789028610e-08  1.7101875544259293e-08  1.4540650263293904e-08  1.2381883874904676e-08  1.0558288546281608e-08  9.0151985564284221e-09  7.7078827188681230e-09  6.5996539134564146e-09  5.6602261641564054e-09  4.8645884689992844e-09  4.1919947011438050e-09  3.6252585330466127e-09  3.1501288239798193e-09  2.7548426499153174e-09  2.4297192957272812e-09  2.1669065827250555e-09  1.9600941851312243e-09  1.8043635994869717e-09  1.6959978347144479e-09  1.6324194984427234e-09  1.6121050582683189e-09  1.1171516438493853e-01  1.1418445901075906e-01  9.8777818105306461e-02  7.6526189792946217e-02  5.0436551066413593e-02  2.5625305652664979e-02  5.5215527508764729e-03  -8.4751503396167469e-03  -1.6455316826132663e-02  -1.9404950688380579e-02  -1.8808592582736147e-02  -1.6181749851412613e-02  -1.2734063700818204e-02  -9.3340973418162883e-03  -6.5759522009547246e-03  -4.7636137365426375e-03  -3.9691433580419403e-03  -4.1279938481949352e-03  -5.0880867728073532e-03  -6.5924690055565371e-03  -8.2203260677393714e-03  -9.3796241929634348e-03  -9.3586410799459657e-03  -7.2812054436746584e-03  -1.8525735223188127e-03  9.1780888703699177e-03  2.9324017566855178e-02  6.3006212549216234e-02  1.1400568828603264e-01  1.8513013077131737e-01  2.7931738808004064e-01  4.0136938561205165e-01  5.5293335380851427e-01  7.1783701674754097e-01  8.5299440117280978e-01  9.2569701004589877e-01  9.5498595399259356e-01  9.7040587611762907e-01  9.7814251832637789e-01  9.8009881299383961e-01  9.7794803429675992e-01  9.7008209133668200e-01  9.5148456154865546e-01  9.1221645077163338e-01  8.1127992252900860e-01  5.9584551805061103e-01  3.1546328701130832e-01  1.0830554498236279e-01  2.8887789027892723e-02  1.4153613767369731e-02  7.6331057444700744e-03  1.9496985535754482e-03  4.4186763648461922e-04  4.5471779276706455e-04  2.0360388823863844e-04  5.2542385281750439e-05  4.1741627385417773e-05  2.2155655753951926e-05  9.7267877129650120e-06  6.7590095425187739e-06  3.8687549344423447e-06  2.4127210977709842e-06  1.6419586183581867e-06  1.0985144102419826e-06  7.8230387068090582e-07  5.6667162684100758e-07  4.2119253382471332e-07  3.2005863698007699e-07  2.4730894461147694e-07  1.9418006234730539e-07  1.5442624516951623e-07  1.2420098826982544e-07  1.0084291720582688e-07  8.2544646203088671e-08  6.8035888596225795e-08  5.6409723478500672e-08  4.7007294811931319e-08  3.9341799870988635e-08  3.3048461646830891e-08  2.7850050330253548e-08  2.3533300304375482e-08  1.9932277901133413e-08  1.6916542886628089e-08  1.4382613485839223e-08  1.2247717602187650e-08  1.0445125284476290e-08  8.9207551065422631e-09  7.6304513339817420e-09  6.5380642684140523e-09  5.6138230190857596e-09  4.8331897026132574e-09  4.1758735348227064e-09  3.6251295621403004e-09  3.1671400930379847e-09  2.7905975850100177e-09  2.4862851583327468e-09  2.2468683719779325e-09  2.0665783471594357e-09  1.9411387736123853e-09  1.8675549868169030e-09  1.8441371597480649e-09  1.4390115414702584e-03  -4.7183232338890253e-03  -3.7450655187375483e-03  -1.4988506374760098e-03  1.5187919788024300e-03  4.9633361021738740e-03  7.9697649208567718e-03  1.0039602822433893e-02  1.0993397072312143e-02  1.0913175139987536e-02  1.0056037333894768e-02  8.7558354889736151e-03  7.3167664143246845e-03  5.9683243519159596e-03  4.8742222011764272e-03  4.1339436938658252e-03  3.7837414894259886e-03  3.8194084365022899e-03  4.2166608598496252e-03  4.9340379450558986e-03  5.8988338082793194e-03  6.9976776063913016e-03  8.0972880853921389e-03  9.0694567272163740e-03  9.7848633382653268e-03  1.0057421924554003e-02  9.5767553777889886e-03  7.9625029025123303e-03  5.1526645826342086e-03  1.9844801600150510e-03  8.4478695270834617e-04  7.0469669901402823e-03  3.2783682525298084e-02  1.0496107924148600e-01  2.6536722973592730e-01  5.1857000752463023e-01  7.6359668341953468e-01  8.9744011719370131e-01  9.4989084952479474e-01  9.7288879356612956e-01  9.8156940325407838e-01  9.8427311864591638e-01  9.8317138146779937e-01  9.7727211363463828e-01  9.6462374900964554e-01  9.4057759633448146e-01  8.6987153455920263e-01  6.8836600979205065e-01  4.0702193482586385e-01  1.5775810403232954e-01  3.9151581516304303e-02  1.3512094472908919e-02  7.8848642071145270e-03  2.2433016620440811e-03  4.2500270016589370e-04  3.9418086443270066e-04  1.5177497929802502e-04  4.1434773357995878e-05  3.4602926326829165e-05  1.4421377367850125e-05  7.5554700812459065e-06  4.9992203352947396e-06  2.7372914865737376e-06  1.8454360639721857e-06  1.2153042536518767e-06  8.3916429412591136e-07  6.0303304629450394e-07  4.4155357123289559e-07  3.3274151812887670e-07  2.5518892634706584e-07  1.9922131020425238e-07  1.5773545773689002e-07  1.2641805599688697e-07  1.0236642428727001e-07  8.3615613363918982e-08  6.8807315941864367e-08  5.6978622977610483e-08  4.7436545438559521e-08  3.9672606425257604e-08  3.3308257002662551e-08  2.8057411895489018e-08  2.3701073795017470e-08  2.0069603580447409e-08  1.7030143967173305e-08  1.4477661014378408e-08  1.2328387190273632e-08  1.0514972312458963e-08  8.9829595660311801e-09  7.6879885452141774e-09  6.5938173636169644e-09  5.6706750035155802e-09  4.8940926577206727e-09  4.2439095062740846e-09  3.7035861294954611e-09  3.2595676790735860e-09  2.9008930258464767e-09  2.6187747768290398e-09  2.4064020898658068e-09  2.2586474514085557e-09  2.1720329098192614e-09  2.1445516211978115e-09  4.4692337689811087e-04  2.3403431453882461e-03  2.9624275024901277e-03  2.2344146664655265e-03  1.3417165567746309e-03  2.5724846157143696e-04  -8.1203952316277414e-04  -1.6579253283379464e-03  -2.1920974744857593e-03  -2.4054640421815260e-03  -2.3497774457121030e-03  -2.1111773302868362e-03  -1.7808265829222182e-03  -1.4329605479298849e-03  -1.1215668809919214e-03  -8.8298999100613765e-04  -7.3555385418255499e-04  -6.8279676906659605e-04  -7.2006935533435650e-04  -8.3791607167469577e-04  -1.0201240941764148e-03  -1.2392878647917002e-03  -1.4574701623276997e-03  -1.6321507835815705e-03  -1.7176380501033079e-03  -1.6530788879849535e-03  -1.3380523382695352e-03  -6.1523976961198380e-04  6.8915933915315766e-04  2.6697626280177598e-03  5.2861634773768758e-03  8.4089428736734279e-03  1.1944945438784877e-02  1.6433218068217070e-02  2.7654709322559753e-02  8.0909487000272770e-02  2.7371762065297595e-01  6.1725047993202209e-01  8.6764811103352868e-01  9.5259128447099894e-01  9.8011375988056126e-01  9.8871702965762809e-01  9.9144704558707730e-01  9.9160272915019665e-01  9.8980321085035872e-01  9.8405348923418823e-01  9.7239300361034697e-01  9.5409553868835928e-01  9.0578767464970367e-01  7.6342160406203874e-01  4.9973128677188655e-01  2.1769586715439593e-01  5.6150499249249197e-02  1.4574085872424460e-02  7.4619204779215135e-03  1.9524879776487720e-03  4.0039028130766209e-04  3.3224623424326125e-04  8.7907132276991061e-05  3.6561268461714499e-05  2.4915767035700815e-05  8.8502048960201166e-06  6.1044533885554542e-06  3.3553620854130540e-06  2.0518859308718627e-06  1.3750245281195125e-06  9.1228949461712167e-07  6.4973538725182950e-07  4.6937886276453145e-07  3.5030788313967511e-07  2.6678258119870393e-07  2.0704192993891889e-07  1.6321961812559693e-07  1.3035996881724351e-07  1.0528015972065127e-07  8.5819217224061392e-08  7.0509301455840700e-08  5.8316946575892845e-08  4.8505024454122293e-08  4.0536405201920472e-08  3.4013686531218561e-08  2.8638192266674625e-08  2.4182353455493388e-08  2.0470641645617509e-08  1.7366088544322069e-08  1.4760758012534056e-08  1.2568806705419603e-08  1.0721394172431636e-08  9.1629777274095745e-09  7.8484190334713305e-09  6.7409298927660745e-09  5.8103716264778468e-09  5.0320772625482007e-09  4.3858212431369524e-09  3.8551424897787529e-09  3.4266968643165918e-09  3.0898774940572455e-09  2.8363932923070087e-09  2.6601232624672483e-09  2.5568190902830601e-09  2.5241220933718237e-09  1.5805541443575545e-04  -1.6305195364936073e-04  -5.7255919757904909e-04  -5.4169664810088658e-04  -3.1979748565272650e-04  -7.2569604050441911e-05  2.0723302561906920e-04  4.5343959274184539e-04  6.2635599474238361e-04  7.1436638571660039e-04  7.2377257796814505e-04  6.7388649251752812e-04  5.8920918851307260e-04  4.9218058302463112e-04  3.9983780298401820e-04  3.2418166731414951e-04  2.7248425207272091e-04  2.4751652487734686e-04  2.4901620436315228e-04  2.75205979949