<?xml version="1.0"?>
<VTKFile type="UnstructuredGrid"  version="0.1"  >
<UnstructuredGrid>
<Piece  NumberOfPoints="5151" NumberOfCells="10000">
<Points>
<DataArray  type="Float64"  NumberOfComponents="3"  format="ascii">0 0 0  0.01 0 0  0.02 0 0  0.03 0 0  0.04 0 0  0.05 0 0  0.06 0 0  0.07000000000000001 0 0  0.08 0 0  0.09 0 0  0.1 0 0  0.11 0 0  0.12 0 0  0.13 0 0  0.14 0 0  0.15 0 0  0.16 0 0  0.17 0 0  0.18 0 0  0.19 0 0  0.2 0 0  0.21 0 0  0.22 0 0  0.23 0 0  0.24 0 0  0.25 0 0  0.26 0 0  0.27 0 0  0.28 0 0  0.29 0 0  0.3 0 0  0.31 0 0  0.32 0 0  0.33 0 0  0.34 0 0  0.35 0 0  0.36 0 0  0.37 0 0  0.38 0 0  0.39 0 0  0.4 0 0  0.41 0 0  0.42 0 0  0.43 0 0  0.44 0 0  0.45 0 0  0.46 0 0  0.47 0 0  0.48 0 0  0.49 0 0  0.5 0 0  0.51 0 0  0.52 0 0  0.53 0 0  0.54 0 0  0.55 0 0  0.5600000000000001 0 0  0.57 0 0  0.58 0 0  0.59 0 0  0.6 0 0  0.61 0 0  0.62 0 0  0.63 0 0  0.64 0 0  0.65 0 0  0.66 0 0  0.67 0 0  0.68 0 0  0.6899999999999999 0 0  0.7 0 0  0.71 0 0  0.72 0 0  0.73 0 0  0.74 0 0  0.75 0 0  0.76 0 0  0.77 0 0  0.78 0 0  0.79 0 0  0.8 0 0  0.8100000000000001 0 0  0.82 0 0  0.83 0 0  0.84 0 0  0.85 0 0  0.86 0 0  0.87 0 0  0.88 0 0  0.89 0 0  0.9 0 0  0.91 0 0  0.92 0 0  0.93 0 0  0.9399999999999999 0 0  0.95 0 0  0.96 0 0  0.97 0 0  0.98 0 0  0.99 0 0  1 0 0  0 0.01 0  0.01 0.01 0  0.02 0.01 0  0.03 0.01 0  0.04 0.01 0  0.05 0.01 0  0.06 0.01 0  0.07000000000000001 0.01 0  0.08 0.01 0  0.09 0.01 0  0.1 0.01 0  0.11 0.01 0  0.12 0.01 0  0.13 0.01 0  0.14 0.01 0  0.15 0.01 0  0.16 0.01 0  0.17 0.01 0  0.18 0.01 0  0.19 0.01 0  0.2 0.01 0  0.21 0.01 0  0.22 0.01 0  0.23 0.01 0  0.24 0.01 0  0.25 0.01 0  0.26 0.01 0  0.27 0.01 0  0.28 0.01 0  0.29 0.01 0  0.3 0.01 0  0.31 0.01 0  0.32 0.01 0  0.33 0.01 0  0.34 0.01 0  0.35 0.01 0  0.36 0.01 0  0.37 0.01 0  0.38 0.01 0  0.39 0.01 0  0.4 0.01 0  0.41 0.01 0  0.42 0.01 0  0.43 0.01 0  0.44 0.01 0  0.45 0.01 0  0.46 0.01 0  0.47 0.01 0  0.48 0.01 0  0.49 0.01 0  0.5 0.01 0  0.51 0.01 0  0.52 0.01 0  0.53 0.01 0  0.54 0.01 0  0.55 0.01 0  0.5600000000000001 0.01 0  0.57 0.01 0  0.58 0.01 0  0.59 0.01 0  0.6 0.01 0  0.61 0.01 0  0.62 0.01 0  0.63 0.01 0  0.64 0.01 0  0.65 0.01 0  0.66 0.01 0  0.67 0.01 0  0.68 0.01 0  0.6899999999999999 0.01 0  0.7 0.01 0  0.71 0.01 0  0.72 0.01 0  0.73 0.01 0  0.74 0.01 0  0.75 0.01 0  0.76 0.01 0  0.77 0.01 0  0.78 0.01 0  0.79 0.01 0  0.8 0.01 0  0.8100000000000001 0.01 0  0.82 0.01 0  0.83 0.01 0  0.84 0.01 0  0.85 0.01 0  0.86 0.01 0  0.87 0.01 0  0.88 0.01 0  0.89 0.01 0  0.9 0.01 0  0.91 0.01 0  0.92 0.01 0  0.93 0.01 0  0.9399999999999999 0.01 0  0.95 0.01 0  0.96 0.01 0  0.97 0.01 0  0.98 0.01 0  0.99 0.01 0  1 0.01 0  0 0.02 0  0.01 0.02 0  0.02 0.02 0  0.03 0.02 0  0.04 0.02 0  0.05 0.02 0  0.06 0.02 0  0.07000000000000001 0.02 0  0.08 0.02 0  0.09 0.02 0  0.1 0.02 0  0.11 0.02 0  0.12 0.02 0  0.13 0.02 0  0.14 0.02 0  0.15 0.02 0  0.16 0.02 0  0.17 0.02 0  0.18 0.02 0  0.19 0.02 0  0.2 0.02 0  0.21 0.02 0  0.22 0.02 0  0.23 0.02 0  0.24 0.02 0  0.25 0.02 0  0.26 0.02 0  0.27 0.02 0  0.28 0.02 0  0.29 0.02 0  0.3 0.02 0  0.31 0.02 0  0.32 0.02 0  0.33 0.02 0  0.34 0.02 0  0.35 0.02 0  0.36 0.02 0  0.37 0.02 0  0.38 0.02 0  0.39 0.02 0  0.4 0.02 0  0.41 0.02 0  0.42 0.02 0  0.43 0.02 0  0.44 0.02 0  0.45 0.02 0  0.46 0.02 0  0.47 0.02 0  0.48 0.02 0  0.49 0.02 0  0.5 0.02 0  0.51 0.02 0  0.52 0.02 0  0.53 0.02 0  0.54 0.02 0  0.55 0.02 0  0.5600000000000001 0.02 0  0.57 0.02 0  0.58 0.02 0  0.59 0.02 0  0.6 0.02 0  0.61 0.02 0  0.62 0.02 0  0.63 0.02 0  0.64 0.02 0  0.65 0.02 0  0.66 0.02 0  0.67 0.02 0  0.68 0.02 0  0.6899999999999999 0.02 0  0.7 0.02 0  0.71 0.02 0  0.72 0.02 0  0.73 0.02 0  0.74 0.02 0  0.75 0.02 0  0.76 0.02 0  0.77 0.02 0  0.78 0.02 0  0.79 0.02 0  0.8 0.02 0  0.8100000000000001 0.02 0  0.82 0.02 0  0.83 0.02 0  0.84 0.02 0  0.85 0.02 0  0.86 0.02 0  0.87 0.02 0  0.88 0.02 0  0.89 0.02 0  0.9 0.02 0  0.91 0.02 0  0.92 0.02 0  0.93 0.02 0  0.9399999999999999 0.02 0  0.95 0.02 0  0.96 0.02 0  0.97 0.02 0  0.98 0.02 0  0.99 0.02 0  1 0.02 0  0 0.03 0  0.01 0.03 0  0.02 0.03 0  0.03 0.03 0  0.04 0.03 0  0.05 0.03 0  0.06 0.03 0  0.07000000000000001 0.03 0  0.08 0.03 0  0.09 0.03 0  0.1 0.03 0  0.11 0.03 0  0.12 0.03 0  0.13 0.03 0  0.14 0.03 0  0.15 0.03 0  0.16 0.03 0  0.17 0.03 0  0.18 0.03 0  0.19 0.03 0  0.2 0.03 0  0.21 0.03 0  0.22 0.03 0  0.23 0.03 0  0.24 0.03 0  0.25 0.03 0  0.26 0.03 0  0.27 0.03 0  0.28 0.03 0  0.29 0.03 0  0.3 0.03 0  0.31 0.03 0  0.32 0.03 0  0.33 0.03 0  0.34 0.03 0  0.35 0.03 0  0.36 0.03 0  0.37 0.03 0  0.38 0.03 0  0.39 0.03 0  0.4 0.03 0  0.41 0.03 0  0.42 0.03 0  0.43 0.03 0  0.44 0.03 0  0.45 0.03 0  0.46 0.03 0  0.47 0.03 0  0.48 0.03 0  0.49 0.03 0  0.5 0.03 0  0.51 0.03 0  0.52 0.03 0  0.53 0.03 0  0.54 0.03 0  0.55 0.03 0  0.5600000000000001 0.03 0  0.57 0.03 0  0.58 0.03 0  0.59 0.03 0  0.6 0.03 0  0.61 0.03 0  0.62 0.03 0  0.63 0.03 0  0.64 0.03 0  0.65 0.03 0  0.66 0.03 0  0.67 0.03 0  0.68 0.03 0  0.6899999999999999 0.03 0  0.7 0.03 0  0.71 0.03 0  0.72 0.03 0  0.73 0.03 0  0.74 0.03 0  0.75 0.03 0  0.76 0.03 0  0.77 0.03 0  0.78 0.03 0  0.79 0.03 0  0.8 0.03 0  0.8100000000000001 0.03 0  0.82 0.03 0  0.83 0.03 0  0.84 0.03 0  0.85 0.03 0  0.86 0.03 0  0.87 0.03 0  0.88 0.03 0  0.89 0.03 0  0.9 0.03 0  0.91 0.03 0  0.92 0.03 0  0.93 0.03 0  0.9399999999999999 0.03 0  0.95 0.03 0  0.96 0.03 0  0.97 0.03 0  0.98 0.03 0  0.99 0.03 0  1 0.03 0  0 0.04 0  0.01 0.04 0  0.02 0.04 0  0.03 0.04 0  0.04 0.04 0  0.05 0.04 0  0.06 0.04 0  0.07000000000000001 0.04 0  0.08 0.04 0  0.09 0.04 0  0.1 0.04 0  0.11 0.04 0  0.12 0.04 0  0.13 0.04 0  0.14 0.04 0  0.15 0.04 0  0.16 0.04 0  0.17 0.04 0  0.18 0.04 0  0.19 0.04 0  0.2 0.04 0  0.21 0.04 0  0.22 0.04 0  0.23 0.04 0  0.24 0.04 0  0.25 0.04 0  0.26 0.04 0  0.27 0.04 0  0.28 0.04 0  0.29 0.04 0  0.3 0.04 0  0.31 0.04 0  0.32 0.04 0  0.33 0.04 0  0.34 0.04 0  0.35 0.04 0  0.36 0.04 0  0.37 0.04 0  0.38 0.04 0  0.39 0.04 0  0.4 0.04 0  0.41 0.04 0  0.42 0.04 0  0.43 0.04 0  0.44 0.04 0  0.45 0.04 0  0.46 0.04 0  0.47 0.04 0  0.48 0.04 0  0.49 0.04 0  0.5 0.04 0  0.51 0.04 0  0.52 0.04 0  0.53 0.04 0  0.54 0.04 0  0.55 0.04 0  0.5600000000000001 0.04 0  0.57 0.04 0  0.58 0.04 0  0.59 0.04 0  0.6 0.04 0  0.61 0.04 0  0.62 0.04 0  0.63 0.04 0  0.64 0.04 0  0.65 0.04 0  0.66 0.04 0  0.67 0.04 0  0.68 0.04 0  0.6899999999999999 0.04 0  0.7 0.04 0  0.71 0.04 0  0.72 0.04 0  0.73 0.04 0  0.74 0.04 0  0.75 0.04 0  0.76 0.04 0  0.77 0.04 0  0.78 0.04 0  0.79 0.04 0  0.8 0.04 0  0.8100000000000001 0.04 0  0.82 0.04 0  0.83 0.04 0  0.84 0.04 0  0.85 0.04 0  0.86 0.04 0  0.87 0.04 0  0.88 0.04 0  0.89 0.04 0  0.9 0.04 0  0.91 0.04 0  0.92 0.04 0  0.93 0.04 0  0.9399999999999999 0.04 0  0.95 0.04 0  0.96 0.04 0  0.97 0.04 0  0.98 0.04 0  0.99 0.04 0  1 0.04 0  0 0.05 0  0.01 0.05 0  0.02 0.05 0  0.03 0.05 0  0.04 0.05 0  0.05 0.05 0  0.06 0.05 0  0.07000000000000001 0.05 0  0.08 0.05 0  0.09 0.05 0  0.1 0.05 0  0.11 0.05 0  0.12 0.05 0  0.13 0.05 0  0.14 0.05 0  0.15 0.05 0  0.16 0.05 0  0.17 0.05 0  0.18 0.05 0  0.19 0.05 0  0.2 0.05 0  0.21 0.05 0  0.22 0.05 0  0.23 0.05 0  0.24 0.05 0  0.25 0.05 0  0.26 0.05 0  0.27 0.05 0  0.28 0.05 0  0.29 0.05 0  0.3 0.05 0  0.31 0.05 0  0.32 0.05 0  0.33 0.05 0  0.34 0.05 0  0.35 0.05 0  0.36 0.05 0  0.37 0.05 0  0.38 0.05 0  0.39 0.05 0  0.4 0.05 0  0.41 0.05 0  0.42 0.05 0  0.43 0.05 0  0.44 0.05 0  0.45 0.05 0  0.46 0.05 0  0.47 0.05 0  0.48 0.05 0  0.49 0.05 0  0.5 0.05 0  0.51 0.05 0  0.52 0.05 0  0.53 0.05 0  0.54 0.05 0  0.55 0.05 0  0.5600000000000001 0.05 0  0.57 0.05 0  0.58 0.05 0  0.59 0.05 0  0.6 0.05 0  0.61 0.05 0  0.62 0.05 0  0.63 0.05 0  0.64 0.05 0  0.65 0.05 0  0.66 0.05 0  0.67 0.05 0  0.68 0.05 0  0.6899999999999999 0.05 0  0.7 0.05 0  0.71 0.05 0  0.72 0.05 0  0.73 0.05 0  0.74 0.05 0  0.75 0.05 0  0.76 0.05 0  0.77 0.05 0  0.78 0.05 0  0.79 0.05 0  0.8 0.05 0  0.8100000000000001 0.05 0  0.82 0.05 0  0.83 0.05 0  0.84 0.05 0  0.85 0.05 0  0.86 0.05 0  0.87 0.05 0  0.88 0.05 0  0.89 0.05 0  0.9 0.05 0  0.91 0.05 0  0.92 0.05 0  0.93 0.05 0  0.9399999999999999 0.05 0  0.95 0.05 0  0.96 0.05 0  0.97 0.05 0  0.98 0.05 0  0.99 0.05 0  1 0.05 0  0 0.06 0  0.01 0.06 0  0.02 0.06 0  0.03 0.06 0  0.04 0.06 0  0.05 0.06 0  0.06 0.06 0  0.07000000000000001 0.06 0  0.08 0.06 0  0.09 0.06 0  0.1 0.06 0  0.11 0.06 0  0.12 0.06 0  0.13 0.06 0  0.14 0.06 0  0.15 0.06 0  0.16 0.06 0  0.17 0.06 0  0.18 0.06 0  0.19 0.06 0  0.2 0.06 0  0.21 0.06 0  0.22 0.06 0  0.23 0.06 0  0.24 0.06 0  0.25 0.06 0  0.26 0.06 0  0.27 0.06 0  0.28 0.06 0  0.29 0.06 0  0.3 0.06 0  0.31 0.06 0  0.32 0.06 0  0.33 0.06 0  0.34 0.06 0  0.35 0.06 0  0.36 0.06 0  0.37 0.06 0  0.38 0.06 0  0.39 0.06 0  0.4 0.06 0  0.41 0.06 0  0.42 0.06 0  0.43 0.06 0  0.44 0.06 0  0.45 0.06 0  0.46 0.06 0  0.47 0.06 0  0.48 0.06 0  0.49 0.06 0  0.5 0.06 0  0.51 0.06 0  0.52 0.06 0  0.53 0.06 0  0.54 0.06 0  0.55 0.06 0  0.5600000000000001 0.06 0  0.57 0.06 0  0.58 0.06 0  0.59 0.06 0  0.6 0.06 0  0.61 0.06 0  0.62 0.06 0  0.63 0.06 0  0.64 0.06 0  0.65 0.06 0  0.66 0.06 0  0.67 0.06 0  0.68 0.06 0  0.6899999999999999 0.06 0  0.7 0.06 0  0.71 0.06 0  0.72 0.06 0  0.73 0.06 0  0.74 0.06 0  0.75 0.06 0  0.76 0.06 0  0.77 0.06 0  0.78 0.06 0  0.79 0.06 0  0.8 0.06 0  0.8100000000000001 0.06 0  0.82 0.06 0  0.83 0.06 0  0.84 0.06 0  0.85 0.06 0  0.86 0.06 0  0.87 0.06 0  0.88 0.06 0  0.89 0.06 0  0.9 0.06 0  0.91 0.06 0  0.92 0.06 0  0.93 0.06 0  0.9399999999999999 0.06 0  0.95 0.06 0  0.96 0.06 0  0.97 0.06 0  0.98 0.06 0  0.99 0.06 0  1 0.06 0  0 0.07000000000000001 0  0.01 0.07000000000000001 0  0.02 0.07000000000000001 0  0.03 0.07000000000000001 0  0.04 0.07000000000000001 0  0.05 0.07000000000000001 0  0.06 0.07000000000000001 0  0.07000000000000001 0.07000000000000001 0  0.08 0.07000000000000001 0  0.09 0.07000000000000001 0  0.1 0.07000000000000001 0  0.11 0.07000000000000001 0  0.12 0.07000000000000001 0  0.13 0.07000000000000001 0  0.14 0.07000000000000001 0  0.15 0.07000000000000001 0  0.16 0.07000000000000001 0  0.17 0.07000
[...]
<PointData  Scalars="rho_bar"> 
<DataArray  type="Float64"  Name="rho_bar"  format="ascii">7.2928581030843820e-01  7.2771806397993888e-01  7.2589742276166735e-01  7.2345093121821658e-01  7.2031991269648077e-01  7.1654411843546317e-01  7.1220530054247200e-01  7.0740767933000104e-01  7.0227221222956326e-01  6.9693289329067987e-01  6.9153540661584001e-01  6.8623354288344651e-01  6.8118410008141994e-01  6.7653767004002874e-01  6.7242862150503013e-01  6.6896387968607385e-01  6.6621220775378232e-01  6.6418638367228500e-01  6.6282105790753987e-01  6.6195383374150496e-01  6.6132795090580543e-01  6.6061577666548954e-01  6.5945685381154817e-01  6.5749734133189597e-01  6.5442926814767688e-01  6.5003127774188718e-01  6.4422386081176630e-01  6.3712280478957084e-01  6.2901181105635395e-01  6.2025808539767979e-01  6.1125347575112310e-01  6.0234668177174699e-01  5.9372610579914309e-01  5.8536477905828221e-01  5.7702168152290367e-01  5.6827347240676596e-01  5.5858662264104442e-01  5.4743620087380518e-01  5.3444403670955176e-01  5.1943371460764887e-01  5.0244522867024033e-01  4.8366057200972051e-01  4.6320679860795266e-01  4.4115729478908172e-01  4.1762089233024430e-01  3.9278722696342627e-01  3.6695502632896387e-01  3.4058224881300764e-01  3.1426706428808121e-01  2.8858476056406379e-01  2.6393488053600705e-01  2.4055725225409355e-01  2.1858291642452843e-01  1.9807178709778836e-01  1.7903815248477795e-01  1.6146613197000467e-01  1.4531869167172123e-01  1.3054308007185070e-01  1.1707466499939771e-01  1.0484002989807591e-01  9.3759940844119719e-02  8.3752010078631270e-02  7.4733232085270093e-02  6.6621880552720628e-02  5.9339142168945536e-02  5.2810017119572790e-02  4.6964120110145315e-02  4.1735908838929858e-02  3.7064942480659550e-02  3.2895695411434979e-02  2.9177514468882348e-02  2.5864288216673279e-02  2.2914243380348285e-02  2.0289559067600400e-02  1.7956111642260481e-02  1.5883117588766864e-02  1.4042889077936148e-02  1.2410501795936044e-02  1.0963584560485459e-02  9.6820560023643358e-03  8.5479284463007930e-03  7.5450989134130675e-03  6.6591769312645847e-03  5.8773233934649553e-03  5.1881033319194749e-03  4.5813513582054584e-03  4.0480517979669828e-03  3.5802349733246954e-03  3.1708697101001694e-03  2.8137863202840362e-03  2.5035837719007631e-03  2.2355696991752075e-03  2.0056848149664374e-03  1.8104562407567765e-03  1.6469387044892243e-03  1.5126913207547581e-03  1.4057311505889856e-03  1.3245375208745232e-03  1.2680778488151744e-03  1.2360689173271733e-03  1.2299105235875347e-03  7.2181124718673506e-01  7.2104884654572543e-01  7.1939498743379571e-01  7.1694868554413083e-01  7.1375963741898785e-01  7.0989833884543541e-01  7.0545751498241061e-01  7.0054749340251787e-01  6.9529246951527368e-01  6.8982991635061974e-01  6.8430845825240449e-01  6.7888598458474025e-01  6.7372400717000036e-01  6.6897890402021953e-01  6.6478977007139206e-01  6.6126857167929165e-01  6.5848977279576038e-01  6.5647495003243916e-01  6.5516547775455525e-01  6.5440025702302373e-01  6.5391604234694278e-01  6.5337552981001423e-01  6.5240911067431873e-01  6.5065860601066472e-01  6.4781674581594217e-01  6.4366922611606747e-01  6.3814239517621563e-01  6.3134785844308927e-01  6.2356602596785260e-01  6.1516104789159365e-01  6.0651337917393611e-01  5.9796651953911895e-01  5.8971619204738246e-01  5.8174095259702263e-01  5.7380006221851299e-01  5.6546865112779265e-01  5.5621839928367578e-01  5.4553950370584436e-01  5.3306728891146860e-01  5.1863717308380042e-01  5.0227254700369406e-01  4.8412099699585970e-01  4.6429512833119124e-01  4.4285215614092871e-01  4.1988430975069124e-01  3.9556718755714848e-01  3.7017814363510776e-01  3.4414111344257292e-01  3.1802430010469657e-01  2.9240814835332968e-01  2.6771937151158098e-01  2.4422386708952698e-01  2.2207444668920409e-01  2.0134923164425050e-01  1.8207794896306198e-01  1.6425741155690921e-01  1.4786058325048368e-01  1.3284220837266597e-01  1.1914283209148581e-01  1.0669229997291597e-01  9.5413046823043690e-02  8.5223303249171031e-02  7.6039814263227076e-02  6.7780202656805455e-02  6.0364601037961874e-02  5.3716921731825504e-02  4.7765491560290189e-02  4.2443603748932947e-02  3.7689579253310145e-02  3.3446838676862128e-02  2.9663654628696592e-02  2.6293010030096542e-02  2.3292253870107606e-02  2.0622830229255828e-02  1.8249905871460265e-02  1.6142110040648260e-02  1.4271190013569000e-02  1.2611760919270605e-02  1.1141009956186604e-02  9.8384857579674485e-03  8.6858626405564542e-03  7.6667449787343224e-03  6.7664818286482208e-03  5.9720051685079271e-03  5.2716792862043307e-03  4.6551623073654942e-03  4.1132871449252447e-03  3.6379457673073419e-03  3.2219962290671823e-03  2.8591615630645904e-03  2.5439595532610903e-03  2.2716183429005903e-03  2.0380193376616229e-03  1.8396293191107408e-03  1.6734644009720602e-03  1.5370358611914118e-03  1.4283252527543420e-03  1.3457500652903427e-03  1.2881526952495451e-03  1.2547281008264102e-03  1.2446982061208789e-03  7.0196165583486381e-01  7.0137717363040941e-01  6.9976145310820148e-01  6.9721407540518698e-01  6.9382963027202305e-01  6.8970970445665325e-01  6.8496850353133787e-01  6.7972981410097877e-01  6.7412790236482700e-01  6.6830829685841342e-01  6.6242855707554216e-01  6.5665731573246311e-01  6.5117109504005777e-01  6.4614283985616439e-01  6.4172693948982473e-01  6.3804734927561224e-01  6.3519564013331631e-01  6.3321880795660412e-01  6.3208244642863720e-01  6.3162827436312352e-01  6.3157330438895665e-01  6.3154849874757835e-01  6.3115695242670522e-01  6.3002528305085093e-01  6.2784702564901562e-01  6.2442237263003608e-01  6.1970086326849128e-01  6.1380407735047648e-01  6.0700496008034344e-01  5.9965198174960543e-01  5.9210106881077484e-01  5.8467043092127124e-01  5.7756246220250307e-01  5.7076575412505759e-01  5.6403974349902253e-01  5.5695267099902046e-01  5.4898338852258655e-01  5.3966739793014018e-01  5.2868997135240992e-01  5.1591747762594553e-01  5.0135852675243964e-01  4.8507589284248126e-01  4.6711073713633811e-01  4.4746729956437614e-01  4.2619417389552700e-01  4.0342329822081241e-01  3.7937565235806875e-01  3.5439937782649961e-01  3.2898608440293065e-01  3.0369006953588917e-01  2.7898569473477042e-01  2.5521324535278966e-01  2.3259435328271344e-01  2.1126508228783050e-01  1.9130508318894093e-01  1.7275254133665385e-01  1.5561323025769686e-01  1.3986660178493002e-01  1.2547062325541913e-01  1.1236620800324612e-01  1.0048191243241367e-01  8.9738345179702556e-02  8.0052190428132067e-02  7.1339302563698373e-02  6.3517080862752803e-02  5.6506067297240149e-02  5.0231045335722826e-02  4.4621624668955875e-02  3.9612623544654404e-02  3.5144060568067334e-02  3.1161127010509559e-02  2.7613930640796688e-02  2.4457245563714623e-02  2.1650163599056294e-02  1.9155779917287789e-02  1.6940841192271641e-02  1.4975449976609323e-02  1.3232727024593013e-02  1.1688562549471310e-02  1.0321340019847058e-02  9.1117117704668654e-03  8.0423748039642837e-03  7.0978796238183577e-03  6.2644570577002519e-03  5.5298540454892190e-03  4.8831881912923779e-03  4.3148174765308273e-03  3.8162245873861736e-03  3.3799047053864493e-03  2.9992750081746546e-03  2.6685798909061656e-03  2.3828207767019132e-03  2.1376792168789249e-03  1.9294583252685343e-03  1.7550272996698485e-03  1.6117771682195401e-03  1.4975802305269351e-03  1.4107436322967190e-03  1.3499723797268316e-03  1.3142920965704085e-03  1.3028850016745652e-03  6.6864148100231890e-01  6.6809401816183156e-01  6.6639751068669806e-01  6.6363072979173854e-01  6.5991203472564197e-01  6.5537580468400236e-01  6.5016478454665794e-01  6.4442253675499783e-01  6.3829601266096625e-01  6.3194158310918314e-01  6.2552696035250233e-01  6.1923577402271457e-01  6.1326724278971134e-01  6.0782408045090985e-01  6.0308467075109073e-01  5.9918769246638348e-01  5.9624338539400468e-01  5.9434268311077976e-01  5.9349975456793325e-01  5.9356740689050613e-01  5.9423061712260861e-01  5.9506836335151070e-01  5.9564025657325381e-01  5.9555225635452014e-01  5.9450136688508470e-01  5.9230922690479137e-01  5.8895691250821314e-01  5.8458098710198825e-01  5.7943916563144859e-01  5.7385021711400985e-01  5.6813403661410899e-01  5.6257312997080733e-01  5.5736125752699239e-01  5.5250252731342497e-01  5.4775854658149170e-01  5.4269395433188305e-01  5.3680932490498900e-01  5.2970950361304292e-01  5.2114825079357729e-01  5.1102670805531603e-01  4.9931550800622237e-01  4.8599121133952988e-01  4.7099936399653797e-01  4.5426482950074859e-01  4.3576433355357774e-01  4.1555770703594264e-01  3.9377761301413972e-01  3.7066584912069234e-01  3.4660154912857394e-01  3.2206503087111554e-01  2.9754804706194921e-01  2.7348757025871107e-01  2.5021775736711799e-01  2.2797419899746243e-01  2.0692561892327255e-01  1.8718570592297837e-01  1.6882119034422438e-01  1.5185857966342545e-01  1.3628969569523575e-01  1.2207771175555859e-01  1.0916396750230009e-01  9.7475063841197779e-02  8.6928824896073162e-02  7.7439111386431086e-02  6.8919267077764607e-02  6.1284570743929206e-02  5.4453902504214349e-02  4.8350807122445646e-02  4.2904059167379750e-02  3.8047974093810687e-02  3.3722374091159309e-02  2.9872466862498042e-02  2.6448547623479007e-02  2.3405685020673517e-02  2.0703355795000749e-02  1.8305091601150063e-02  1.6178107441722642e-02  1.4292989942966612e-02  1.2623359579887663e-02  1.1145608263493976e-02  9.8386172785448946e-03  8.6835281581992430e-03  7.6635207574367609e-03  6.7636177210433140e-03  5.9705071816026911e-03  5.2723807215377073e-03  4.6587863214798608e-03  4.1204992513128791e-03  3.6494038519192863e-03  3.2383838141005158e-03  2.8812287978384971e-03  2.5725444715411733e-03  2.3076780864705300e-03  2.0826488212461408e-03  1.8940835244091543e-03  1.7391746205965084e-03  1.6156157932256615e-03  1.5215802816603073e-03  1.4556488349584688e-03  1.4167814758568136e-03  1.4042730198087837e-03  6.2113349790266292e-01  6.2060814214128412e-01  6.1876841129551474e-01  6.1569863502674826e-01  6.1155065022859711e-01  6.0650402111440083e-01  6.0074117981154318e-01  5.9443027252184566e-01  5.8773043288878668e-01  5.8080406501243675e-01  5.7382364430245081e-01  5.6698227741251706e-01  5.6050584116668167e-01  5.5463806894599665e-01  5.4959257629633740e-01  5.4551727578984888e-01  5.4252675347399204e-01  5.4075800972881083e-01  5.4030621758721886e-01  5.4105368009463661e-01  5.4265876527627033e-01  5.4464152301297508e-01  5.4651410499737307e-01  5.4786058243173275e-01  5.4839494145925216e-01  5.4795905608176110e-01  5.4655875483118910e-01  5.4432995228568914e-01  5.4150146091322593e-01  5.3834856655769470e-01  5.3514838896663863e-01  5.3214448428898109e-01  5.2950883266372539e-01  5.2725880962646077e-01  5.2516931881788542e-01  5.2281080181293005e-01  5.1972663645956818e-01  5.1560038747173842e-01  5.1025635352586163e-01  5.0360265762913003e-01  4.9557243071352092e-01  4.8606928197970084e-01  4.7495500588710876e-01  4.6207527310664770e-01  4.4731440022695429e-01  4.3063078318398768e-01  4.1204458216254081e-01  3.9166664654538397e-01  3.6974332189732023e-01  3.4664579026901809e-01  3.2282122510398459e-01  2.9874811872538748e-01  2.7488072581060102e-01  2.5158997819777140e-01  2.2917810415414139e-01  2.0787555030723648e-01  1.8784666967529220e-01  1.6919613675484743e-01  1.5197444693796253e-01  1.3618453605248931e-01  1.2179231711243063e-01  1.0873750301512644e-01  9.6943114888952908e-02  8.6322634859859387e-02  7.6785298373663685e-02  6.8239908207902225e-02  6.0597476312595225e-02  5.3773062262581710e-02  4.7686913444608812e-02  4.2265045851256192e-02  3.7439505812363320e-02  3.3148285153643028e-02  2.9335114388609092e-02  2.5949117988465331e-02  2.2944441514677123e-02  2.0279843568058998e-02  1.7918310634495133e-02  1.5826654511174893e-02  1.3975179142086980e-02  1.2337325453472667e-02  1.0889386185943978e-02  9.6102154650980348e-03  8.4809849556996605e-03  7.4849536234355418e-03  6.6072637808391689e-03  5.8347545477533836e-03  5.1557969988950203e-03  4.5601401155364180e-03  4.0387787906969695e-03  3.5838284103711544e-03  3.1884160195746070e-03  2.8465809271845024e-03  2.5531867413351593e-03  2.3038419109991863e-03  2.0948327192469155e-03  1.9230590934872865e-03  1.7859909539278472e-03  1.6816028433890354e-03  1.6083538891559918e-03  1.5651321445046842e-03  1.5512620178188827e-03  5.5986678695417291e-01  5.5939329690437811e-01  5.5741471420194089e-01  5.5404715829911166e-01  5.4949138452880308e-01  5.4399009744090521e-01  5.3777584680298784e-01  5.3104295916615285e-01  5.2395737170833845e-01  5.1667655814769498e-01  5.0936199184749631e-01  5.0220060095335051e-01  4.9543179623786332e-01  4.8934386245450828e-01  4.8419416393112191e-01  4.8013730193716464e-01  4.7727421557126132e-01  4.7574199741729351e-01  4.7570935232573019e-01  4.7711663927490860e-01  4.7965302711357144e-01  4.8283310008116304e-01  4.8615067040488186e-01  4.8915996407463896e-01  4.9159537467289310e-01  4.9331993458501361e-01  4.9433177050738136e-01  4.9474250094076572e-01  4.9473586841538281e-01  4.9453477671348439e-01  4.9436685725880919e-01  4.9443836703240673e-01  4.9489706054206983e-01  4.9576212858865493e-01  4.9682953228886867e-01  4.9770177724151510e-01  4.9797847137064039e-01  4.9741469943151934e-01  4.9586401668121249e-01  4.9323458680027488e-01  4.8943599930713888e-01  4.8433046611331076e-01  4.7771840143484434e-01  4.6938146377113271e-01  4.5912052378789009e-01  4.4677333779878964e-01  4.3222869321343860e-01  4.1545450481339496e-01  3.9655181339738999e-01  3.7576357544511585e-01  3.5344070836235220e-01  3.3002351092669069e-01  3.0600383817403154e-01  2.8187102212785425e-01  2.5808535273200023e-01  2.3503628475591110e-01  2.1303018282600358e-01  1.9229356064202374e-01  1.7297324492219826e-01  1.5514059298442529e-01  1.3880648220430816e-01  1.2393819172581179e-01  1.1047344000596120e-01  9.8331112525210790e-02  8.7419124576613813e-02  7.7640315216683492e-02  6.8896882236339316e-02  6.1093502642863444e-02  5.4139461099380268e-02  4.7949901876954526e-02  4.2446429992423991e-02  3.7557304852758530e-02  3.3217293398721683e-02  2.9367389174603530e-02  2.5954404969831049e-02  2.2930549053107575e-02  2.0252964163712413e-02  1.7883299671080734e-02  1.5787274687256461e-02  1.3934305600541919e-02  1.2297126352486374e-02  1.0851473785837069e-02  9.5757775748449830e-03  8.4508979329443248e-03  7.4598776546931133e-03  6.5877255843193976e-03  5.8212172178876793e-03  5.1487206283882094e-03  4.5600306408323556e-03  4.0462316595791187e-03  3.5995620415243765e-03  3.2133028324141497e-03  2.8816712801415221e-03  2.5997313250600263e-03  2.3633117832361685e-03  2.1689380098700224e-03  2.0137688649994384e-03  1.8955487999740130e-03  1.8125587206557459e-03  1.7635910759074213e-03  1.7479365127073803e-03  4.8770947194897729e-01  4.8731294962216198e-01  4.8528593220323774e-01  4.8177577732479765e-01  4.7703148499759607e-01  4.7136418599441721e-01  4.6505428910348517e-01  4.5831050721428396e-01  4.5129416743392209e-01  4.4414756260790661e-01  4.3701301502292916e-01  4.3005576225285636e-01  4.2350178360203916e-01  4.1764523053526453e-01  4.1277552174048093e-01  4.0905817108831405e-01  4.0658801151797891e-01  4.0547347396596439e-01  4.0584855312017404e-01  4.0770627254887759e-01  4.1083225035828075e-01  4.1486226098578355e-01  4.1937202752162339e-01  4.2391722324314046e-01  4.2821670354425645e-01  4.3214032399329039e-01  4.3566649241217853e-01  4.3886215738987860e-01  4.4185493862386865e-01  4.4480798451134368e-01  4.4789549004837914e-01  4.5128144239678808e-01  4.5508884660061416e-01  4.5932930291954477e-01  4.6382568797637608e-01  4.6822445840239635e-01  4.7218850766879333e-01  4.7549697904352167e-01  4.7801314447223964e-01  4.7963704676039259e-01  4.8027413104123734e-01  4.7978273889211298e-01  4.7793352015137930e-01  4.7446510400685504e-01  4.6912763382314249e-01  4.6165618055821372e-01  4.5179505839746231e-01  4.3937147056066955e-01  4.2434105880054340e-01  4.0681228117913992e-01  3.8700562850300890e-01  3.6525645862191480e-01  3.4200207249346909e-01  3.1775270190836613e-01  2.9306083612315159e-01  2.6846974401318369e-01  2.4446122987474087e-01  2.2143707366394094e-01  1.9969614134489905e-01  1.7942270763902601e-01  1.6070779199595567e-01  1.4357319162464172e-01  1.2799149137796823e-01  1.1390086521637706e-01  1.0121648825390384e-01  8.9839698786343500e-02  7.9665312667351024e-02  7.0587170233495158e-02  6.2501919152755797e-02  5.5311495489488993e-02  4.8924463358975337e-02  4.3256615606763062e-02  3.8231122476710136e-02  3.3778314960023120e-02  2.9835362215101895e-02  2.6345803579074997e-02  2.3259059884479846e-02  2.0529922182920636e-02  1.8118064884126754e-02  1.5987563181771403e-02  1.4106474857382836e-02  1.2446419501765881e-02  1.0982233636797440e-02  9.6916298487739194e-03  8.5549099905478064e-03  7.5546942283357260e-03  6.6756867354668551e-03  5.9044582133435160e-03  5.2292578006467340e-03  4.6398333397942079e-03  4.1272842832364891e-03  3.6839143510206973e-03  3.3031149520429295e-03  2.9792524404869520e-03  2.7075743834419773e-03  2.4841262266817377e-03  2.3056822104962479e-03  2.1696825317635148e-03  2.0741930226014114e-03  2.0178589489860399e-03  1.9999066822167216e-03  4.1058093013878766e-01  4.1024020648725512e-01  4.0832992614697194e-01  4.0498763576089597e-01  4.0046934237328335e-01  3.9511464185731832e-01  3.8922608196968994e-01  3.8301072732907143e-01  3.7661517161123248e-01  3.7016516275117811e-01  3.6378717690263407e-01  3.5762941139188736e-01  3.5188689416288771e-01  3.4680704017060732e-01  3.4264150200987548e-01  3.3956162894208142e-01  3.3766859080385736e-01  3.3705168200541796e-01  3.3779532090233078e-01  3.3990325430349494e-01  3.4325177537804996e-01  3.4761370570774958e-01  3.5270526385110168e-01  3.5820612658659468e-01  3.6385964926279096e-01  3.6953371847435273e-01  3.7518411006297753e-01  3.8083371389722614e-01  3.8655212370500291e-01  3.9244231769303661e-01  3.9862235546851466e-01  4.0520978307397282e-01  4.1229142114187423e-01  4.1986204111705350e-01  4.2776911958203562e-01  4.3570719651739709e-01  4.4337286832938994e-01  4.5054373989396612e-01  4.5706509543401103e-01  4.6282537107640287e-01  4.6773059348540003e-01  4.7165773427138291e-01  4.7439624485110027e-01  4.7567107609292109e-01  4.7521931528078182e-01  4.7272417149948587e-01  4.6781126169587922e-01  4.6018623962561878e-01  4.4967632999982532e-01  4.3625935584580428e-01  4.2001951525352854e-01  4.0114870065973701e-01  3.7995594942903244e-01  3.5685901768702877e-01  3.3237278991561736e-01  3.0708155980607976e-01  2.8158745503707439e-01  2.5648819845351745e-01  2.3229838222143928e-01  2.0937922200454334e-01  1.8795763217430841e-01  1.6815719446922225e-01  1.5002339914811319e-01  1.3354230669219086e-01  1.1865584192137116e-01  1.0527597332963570e-01  9.3296833461507536e-02  8.2604235682932223e-02  7.3082629929786716e-02  6.4619572169849454e-02  5.7108502241930738e-02  5.0450203482759914e-02  4.4553437444662558e-02  3.9335120761701980e-02  3.4720095834501578e-02  3.0640768022846980e-02  2.7036584252294441e-02  2.3853475128057949e-02  2.1043278086292926e-02  1.8563183398886341e-02  1.6375188583877757e-02  1.4445628745645485e-02  1.2744706115091467e-02  1.1246106344321029e-02  9.9266196400175661e-03  8.7658241092460690e-03  7.7457859813487295e-03  6.8508023574329387e-03  6.0671606060980843e-03  5.3829331112560533e-03  4.7877789339234094e-03  4.2727843598176279e-03  3.8303044189157646e-03  3.4538369972158239e-03  3.1379058510084368e-03  2.8779619025289618e-03  2.6702983487677887e-03  2.5119859991077722e-03  2.4008075547939157e-03  2.3352295805193512e-03  2.3143717577185836e-03  3.3593101963644723e-01  3.3558140909584222e-01  3.3392387724742073e-01  3.3105795685921158e-01  3.2718930801474388e-01  3.2260533195903929e-01  3.1757450364577150e-01  3.1229256189230148e-01  3.0689675566174024e-01  3.0150164243111433e-01  2.9622180537226289e-01  2.9118805291581679e-01  2.8656139831806510e-01  2.8253181935554905e-01  2.7929034572224448e-01  2.7698595134400406e-01  2.7572113974631113e-01  2.7557524756858781e-01  2.7660791446818978e-01  2.7882885284084952e-01  2.8217558933983439e-01  2.86521392293