<?xml version="1.0"?>
<VTKFile type="UnstructuredGrid"  version="0.1"  >
<UnstructuredGrid>
<Piece  NumberOfPoints="5151" NumberOfCells="10000">
<Points>
<DataArray  type="Float64"  NumberOfComponents="3"  format="ascii">0 0 0  0.01 0 0  0.02 0 0  0.03 0 0  0.04 0 0  0.05 0 0  0.06 0 0  0.07000000000000001 0 0  0.08 0 0  0.09 0 0  0.1 0 0  0.11 0 0  0.12 0 0  0.13 0 0  0.14 0 0  0.15 0 0  0.16 0 0  0.17 0 0  0.18 0 0  0.19 0 0  0.2 0 0  0.21 0 0  0.22 0 0  0.23 0 0  0.24 0 0  0.25 0 0  0.26 0 0  0.27 0 0  0.28 0 0  0.29 0 0  0.3 0 0  0.31 0 0  0.32 0 0  0.33 0 0  0.34 0 0  0.35 0 0  0.36 0 0  0.37 0 0  0.38 0 0  0.39 0 0  0.4 0 0  0.41 0 0  0.42 0 0  0.43 0 0  0.44 0 0  0.45 0 0  0.46 0 0  0.47 0 0  0.48 0 0  0.49 0 0  0.5 0 0  0.51 0 0  0.52 0 0  0.53 0 0  0.54 0 0  0.55 0 0  0.5600000000000001 0 0  0.57 0 0  0.58 0 0  0.59 0 0  0.6 0 0  0.61 0 0  0.62 0 0  0.63 0 0  0.64 0 0  0.65 0 0  0.66 0 0  0.67 0 0  0.68 0 0  0.6899999999999999 0 0  0.7 0 0  0.71 0 0  0.72 0 0  0.73 0 0  0.74 0 0  0.75 0 0  0.76 0 0  0.77 0 0  0.78 0 0  0.79 0 0  0.8 0 0  0.8100000000000001 0 0  0.82 0 0  0.83 0 0  0.84 0 0  0.85 0 0  0.86 0 0  0.87 0 0  0.88 0 0  0.89 0 0  0.9 0 0  0.91 0 0  0.92 0 0  0.93 0 0  0.9399999999999999 0 0  0.95 0 0  0.96 0 0  0.97 0 0  0.98 0 0  0.99 0 0  1 0 0  0 0.01 0  0.01 0.01 0  0.02 0.01 0  0.03 0.01 0  0.04 0.01 0  0.05 0.01 0  0.06 0.01 0  0.07000000000000001 0.01 0  0.08 0.01 0  0.09 0.01 0  0.1 0.01 0  0.11 0.01 0  0.12 0.01 0  0.13 0.01 0  0.14 0.01 0  0.15 0.01 0  0.16 0.01 0  0.17 0.01 0  0.18 0.01 0  0.19 0.01 0  0.2 0.01 0  0.21 0.01 0  0.22 0.01 0  0.23 0.01 0  0.24 0.01 0  0.25 0.01 0  0.26 0.01 0  0.27 0.01 0  0.28 0.01 0  0.29 0.01 0  0.3 0.01 0  0.31 0.01 0  0.32 0.01 0  0.33 0.01 0  0.34 0.01 0  0.35 0.01 0  0.36 0.01 0  0.37 0.01 0  0.38 0.01 0  0.39 0.01 0  0.4 0.01 0  0.41 0.01 0  0.42 0.01 0  0.43 0.01 0  0.44 0.01 0  0.45 0.01 0  0.46 0.01 0  0.47 0.01 0  0.48 0.01 0  0.49 0.01 0  0.5 0.01 0  0.51 0.01 0  0.52 0.01 0  0.53 0.01 0  0.54 0.01 0  0.55 0.01 0  0.5600000000000001 0.01 0  0.57 0.01 0  0.58 0.01 0  0.59 0.01 0  0.6 0.01 0  0.61 0.01 0  0.62 0.01 0  0.63 0.01 0  0.64 0.01 0  0.65 0.01 0  0.66 0.01 0  0.67 0.01 0  0.68 0.01 0  0.6899999999999999 0.01 0  0.7 0.01 0  0.71 0.01 0  0.72 0.01 0  0.73 0.01 0  0.74 0.01 0  0.75 0.01 0  0.76 0.01 0  0.77 0.01 0  0.78 0.01 0  0.79 0.01 0  0.8 0.01 0  0.8100000000000001 0.01 0  0.82 0.01 0  0.83 0.01 0  0.84 0.01 0  0.85 0.01 0  0.86 0.01 0  0.87 0.01 0  0.88 0.01 0  0.89 0.01 0  0.9 0.01 0  0.91 0.01 0  0.92 0.01 0  0.93 0.01 0  0.9399999999999999 0.01 0  0.95 0.01 0  0.96 0.01 0  0.97 0.01 0  0.98 0.01 0  0.99 0.01 0  1 0.01 0  0 0.02 0  0.01 0.02 0  0.02 0.02 0  0.03 0.02 0  0.04 0.02 0  0.05 0.02 0  0.06 0.02 0  0.07000000000000001 0.02 0  0.08 0.02 0  0.09 0.02 0  0.1 0.02 0  0.11 0.02 0  0.12 0.02 0  0.13 0.02 0  0.14 0.02 0  0.15 0.02 0  0.16 0.02 0  0.17 0.02 0  0.18 0.02 0  0.19 0.02 0  0.2 0.02 0  0.21 0.02 0  0.22 0.02 0  0.23 0.02 0  0.24 0.02 0  0.25 0.02 0  0.26 0.02 0  0.27 0.02 0  0.28 0.02 0  0.29 0.02 0  0.3 0.02 0  0.31 0.02 0  0.32 0.02 0  0.33 0.02 0  0.34 0.02 0  0.35 0.02 0  0.36 0.02 0  0.37 0.02 0  0.38 0.02 0  0.39 0.02 0  0.4 0.02 0  0.41 0.02 0  0.42 0.02 0  0.43 0.02 0  0.44 0.02 0  0.45 0.02 0  0.46 0.02 0  0.47 0.02 0  0.48 0.02 0  0.49 0.02 0  0.5 0.02 0  0.51 0.02 0  0.52 0.02 0  0.53 0.02 0  0.54 0.02 0  0.55 0.02 0  0.5600000000000001 0.02 0  0.57 0.02 0  0.58 0.02 0  0.59 0.02 0  0.6 0.02 0  0.61 0.02 0  0.62 0.02 0  0.63 0.02 0  0.64 0.02 0  0.65 0.02 0  0.66 0.02 0  0.67 0.02 0  0.68 0.02 0  0.6899999999999999 0.02 0  0.7 0.02 0  0.71 0.02 0  0.72 0.02 0  0.73 0.02 0  0.74 0.02 0  0.75 0.02 0  0.76 0.02 0  0.77 0.02 0  0.78 0.02 0  0.79 0.02 0  0.8 0.02 0  0.8100000000000001 0.02 0  0.82 0.02 0  0.83 0.02 0  0.84 0.02 0  0.85 0.02 0  0.86 0.02 0  0.87 0.02 0  0.88 0.02 0  0.89 0.02 0  0.9 0.02 0  0.91 0.02 0  0.92 0.02 0  0.93 0.02 0  0.9399999999999999 0.02 0  0.95 0.02 0  0.96 0.02 0  0.97 0.02 0  0.98 0.02 0  0.99 0.02 0  1 0.02 0  0 0.03 0  0.01 0.03 0  0.02 0.03 0  0.03 0.03 0  0.04 0.03 0  0.05 0.03 0  0.06 0.03 0  0.07000000000000001 0.03 0  0.08 0.03 0  0.09 0.03 0  0.1 0.03 0  0.11 0.03 0  0.12 0.03 0  0.13 0.03 0  0.14 0.03 0  0.15 0.03 0  0.16 0.03 0  0.17 0.03 0  0.18 0.03 0  0.19 0.03 0  0.2 0.03 0  0.21 0.03 0  0.22 0.03 0  0.23 0.03 0  0.24 0.03 0  0.25 0.03 0  0.26 0.03 0  0.27 0.03 0  0.28 0.03 0  0.29 0.03 0  0.3 0.03 0  0.31 0.03 0  0.32 0.03 0  0.33 0.03 0  0.34 0.03 0  0.35 0.03 0  0.36 0.03 0  0.37 0.03 0  0.38 0.03 0  0.39 0.03 0  0.4 0.03 0  0.41 0.03 0  0.42 0.03 0  0.43 0.03 0  0.44 0.03 0  0.45 0.03 0  0.46 0.03 0  0.47 0.03 0  0.48 0.03 0  0.49 0.03 0  0.5 0.03 0  0.51 0.03 0  0.52 0.03 0  0.53 0.03 0  0.54 0.03 0  0.55 0.03 0  0.5600000000000001 0.03 0  0.57 0.03 0  0.58 0.03 0  0.59 0.03 0  0.6 0.03 0  0.61 0.03 0  0.62 0.03 0  0.63 0.03 0  0.64 0.03 0  0.65 0.03 0  0.66 0.03 0  0.67 0.03 0  0.68 0.03 0  0.6899999999999999 0.03 0  0.7 0.03 0  0.71 0.03 0  0.72 0.03 0  0.73 0.03 0  0.74 0.03 0  0.75 0.03 0  0.76 0.03 0  0.77 0.03 0  0.78 0.03 0  0.79 0.03 0  0.8 0.03 0  0.8100000000000001 0.03 0  0.82 0.03 0  0.83 0.03 0  0.84 0.03 0  0.85 0.03 0  0.86 0.03 0  0.87 0.03 0  0.88 0.03 0  0.89 0.03 0  0.9 0.03 0  0.91 0.03 0  0.92 0.03 0  0.93 0.03 0  0.9399999999999999 0.03 0  0.95 0.03 0  0.96 0.03 0  0.97 0.03 0  0.98 0.03 0  0.99 0.03 0  1 0.03 0  0 0.04 0  0.01 0.04 0  0.02 0.04 0  0.03 0.04 0  0.04 0.04 0  0.05 0.04 0  0.06 0.04 0  0.07000000000000001 0.04 0  0.08 0.04 0  0.09 0.04 0  0.1 0.04 0  0.11 0.04 0  0.12 0.04 0  0.13 0.04 0  0.14 0.04 0  0.15 0.04 0  0.16 0.04 0  0.17 0.04 0  0.18 0.04 0  0.19 0.04 0  0.2 0.04 0  0.21 0.04 0  0.22 0.04 0  0.23 0.04 0  0.24 0.04 0  0.25 0.04 0  0.26 0.04 0  0.27 0.04 0  0.28 0.04 0  0.29 0.04 0  0.3 0.04 0  0.31 0.04 0  0.32 0.04 0  0.33 0.04 0  0.34 0.04 0  0.35 0.04 0  0.36 0.04 0  0.37 0.04 0  0.38 0.04 0  0.39 0.04 0  0.4 0.04 0  0.41 0.04 0  0.42 0.04 0  0.43 0.04 0  0.44 0.04 0  0.45 0.04 0  0.46 0.04 0  0.47 0.04 0  0.48 0.04 0  0.49 0.04 0  0.5 0.04 0  0.51 0.04 0  0.52 0.04 0  0.53 0.04 0  0.54 0.04 0  0.55 0.04 0  0.5600000000000001 0.04 0  0.57 0.04 0  0.58 0.04 0  0.59 0.04 0  0.6 0.04 0  0.61 0.04 0  0.62 0.04 0  0.63 0.04 0  0.64 0.04 0  0.65 0.04 0  0.66 0.04 0  0.67 0.04 0  0.68 0.04 0  0.6899999999999999 0.04 0  0.7 0.04 0  0.71 0.04 0  0.72 0.04 0  0.73 0.04 0  0.74 0.04 0  0.75 0.04 0  0.76 0.04 0  0.77 0.04 0  0.78 0.04 0  0.79 0.04 0  0.8 0.04 0  0.8100000000000001 0.04 0  0.82 0.04 0  0.83 0.04 0  0.84 0.04 0  0.85 0.04 0  0.86 0.04 0  0.87 0.04 0  0.88 0.04 0  0.89 0.04 0  0.9 0.04 0  0.91 0.04 0  0.92 0.04 0  0.93 0.04 0  0.9399999999999999 0.04 0  0.95 0.04 0  0.96 0.04 0  0.97 0.04 0  0.98 0.04 0  0.99 0.04 0  1 0.04 0  0 0.05 0  0.01 0.05 0  0.02 0.05 0  0.03 0.05 0  0.04 0.05 0  0.05 0.05 0  0.06 0.05 0  0.07000000000000001 0.05 0  0.08 0.05 0  0.09 0.05 0  0.1 0.05 0  0.11 0.05 0  0.12 0.05 0  0.13 0.05 0  0.14 0.05 0  0.15 0.05 0  0.16 0.05 0  0.17 0.05 0  0.18 0.05 0  0.19 0.05 0  0.2 0.05 0  0.21 0.05 0  0.22 0.05 0  0.23 0.05 0  0.24 0.05 0  0.25 0.05 0  0.26 0.05 0  0.27 0.05 0  0.28 0.05 0  0.29 0.05 0  0.3 0.05 0  0.31 0.05 0  0.32 0.05 0  0.33 0.05 0  0.34 0.05 0  0.35 0.05 0  0.36 0.05 0  0.37 0.05 0  0.38 0.05 0  0.39 0.05 0  0.4 0.05 0  0.41 0.05 0  0.42 0.05 0  0.43 0.05 0  0.44 0.05 0  0.45 0.05 0  0.46 0.05 0  0.47 0.05 0  0.48 0.05 0  0.49 0.05 0  0.5 0.05 0  0.51 0.05 0  0.52 0.05 0  0.53 0.05 0  0.54 0.05 0  0.55 0.05 0  0.5600000000000001 0.05 0  0.57 0.05 0  0.58 0.05 0  0.59 0.05 0  0.6 0.05 0  0.61 0.05 0  0.62 0.05 0  0.63 0.05 0  0.64 0.05 0  0.65 0.05 0  0.66 0.05 0  0.67 0.05 0  0.68 0.05 0  0.6899999999999999 0.05 0  0.7 0.05 0  0.71 0.05 0  0.72 0.05 0  0.73 0.05 0  0.74 0.05 0  0.75 0.05 0  0.76 0.05 0  0.77 0.05 0  0.78 0.05 0  0.79 0.05 0  0.8 0.05 0  0.8100000000000001 0.05 0  0.82 0.05 0  0.83 0.05 0  0.84 0.05 0  0.85 0.05 0  0.86 0.05 0  0.87 0.05 0  0.88 0.05 0  0.89 0.05 0  0.9 0.05 0  0.91 0.05 0  0.92 0.05 0  0.93 0.05 0  0.9399999999999999 0.05 0  0.95 0.05 0  0.96 0.05 0  0.97 0.05 0  0.98 0.05 0  0.99 0.05 0  1 0.05 0  0 0.06 0  0.01 0.06 0  0.02 0.06 0  0.03 0.06 0  0.04 0.06 0  0.05 0.06 0  0.06 0.06 0  0.07000000000000001 0.06 0  0.08 0.06 0  0.09 0.06 0  0.1 0.06 0  0.11 0.06 0  0.12 0.06 0  0.13 0.06 0  0.14 0.06 0  0.15 0.06 0  0.16 0.06 0  0.17 0.06 0  0.18 0.06 0  0.19 0.06 0  0.2 0.06 0  0.21 0.06 0  0.22 0.06 0  0.23 0.06 0  0.24 0.06 0  0.25 0.06 0  0.26 0.06 0  0.27 0.06 0  0.28 0.06 0  0.29 0.06 0  0.3 0.06 0  0.31 0.06 0  0.32 0.06 0  0.33 0.06 0  0.34 0.06 0  0.35 0.06 0  0.36 0.06 0  0.37 0.06 0  0.38 0.06 0  0.39 0.06 0  0.4 0.06 0  0.41 0.06 0  0.42 0.06 0  0.43 0.06 0  0.44 0.06 0  0.45 0.06 0  0.46 0.06 0  0.47 0.06 0  0.48 0.06 0  0.49 0.06 0  0.5 0.06 0  0.51 0.06 0  0.52 0.06 0  0.53 0.06 0  0.54 0.06 0  0.55 0.06 0  0.5600000000000001 0.06 0  0.57 0.06 0  0.58 0.06 0  0.59 0.06 0  0.6 0.06 0  0.61 0.06 0  0.62 0.06 0  0.63 0.06 0  0.64 0.06 0  0.65 0.06 0  0.66 0.06 0  0.67 0.06 0  0.68 0.06 0  0.6899999999999999 0.06 0  0.7 0.06 0  0.71 0.06 0  0.72 0.06 0  0.73 0.06 0  0.74 0.06 0  0.75 0.06 0  0.76 0.06 0  0.77 0.06 0  0.78 0.06 0  0.79 0.06 0  0.8 0.06 0  0.8100000000000001 0.06 0  0.82 0.06 0  0.83 0.06 0  0.84 0.06 0  0.85 0.06 0  0.86 0.06 0  0.87 0.06 0  0.88 0.06 0  0.89 0.06 0  0.9 0.06 0  0.91 0.06 0  0.92 0.06 0  0.93 0.06 0  0.9399999999999999 0.06 0  0.95 0.06 0  0.96 0.06 0  0.97 0.06 0  0.98 0.06 0  0.99 0.06 0  1 0.06 0  0 0.07000000000000001 0  0.01 0.07000000000000001 0  0.02 0.07000000000000001 0  0.03 0.07000000000000001 0  0.04 0.07000000000000001 0  0.05 0.07000000000000001 0  0.06 0.07000000000000001 0  0.07000000000000001 0.07000000000000001 0  0.08 0.07000000000000001 0  0.09 0.07000000000000001 0  0.1 0.07000000000000001 0  0.11 0.07000000000000001 0  0.12 0.07000000000000001 0  0.13 0.07000000000000001 0  0.14 0.07000000000000001 0  0.15 0.07000000000000001 0  0.16 0.07000000000000001 0  0.17 0.07000
[...]
<PointData  Scalars="rho"> 
<DataArray  type="Float64"  Name="rho"  format="ascii">9.8638985936200307e-01  9.8054297148466640e-01  9.8022215493972387e-01  9.7983949900153089e-01  9.6587453143806301e-01  9.6509006330896629e-01  9.6535570328037767e-01  9.7704924987942021e-01  9.7891509650534425e-01  9.7431589998223445e-01  9.8098492517077163e-01  9.9593699416852399e-01  9.9735331987157261e-01  9.9954880001984314e-01  1.0000000000000000e+00  1.0000000000000000e+00  1.0000000000000000e+00  1.0000000000000000e+00  1.0000000000000000e+00  1.0000000000000000e+00  9.9999814430024403e-01  9.9999753180732553e-01  9.9999636261030911e-01  9.9999634023846173e-01  9.9999512496465370e-01  9.9981743930071620e-01  9.9956936347460479e-01  9.9927855581939373e-01  9.9847069737435434e-01  9.9794478037732914e-01  9.1345700426330767e-01  8.7807536916472750e-01  7.9105678038029270e-01  7.5513916878400711e-01  7.2344072079598154e-01  7.6526834554334511e-01  6.3747393754323767e-01  5.3316593650745980e-01  4.6738888372242526e-01  3.8592375447485067e-01  4.0843321358076543e-02  4.4049710681876275e-05  1.0450077641035539e-04  1.1882714656172011e-04  5.8898908733985451e-05  1.9231375711230745e-05  0.0000000000000000e+00  0.0000000000000000e+00  0.0000000000000000e+00  0.0000000000000000e+00  0.0000000000000000e+00  0.0000000000000000e+00  0.0000000000000000e+00  3.8150214147701341e-06  2.2295826117084577e-05  2.9475591483306539e-05  1.6763642661577165e-05  2.1445417474892532e-05  4.2391450098515522e-04  7.8390138952706321e-04  9.8229553830338863e-04  1.0851425605779906e-03  1.1158857944082482e-03  1.0027758794479179e-03  9.5199353187867006e-04  8.7934997496886310e-04  1.1193221918479306e-03  7.0397687908044899e-04  6.1013901243426498e-04  5.2372501342431174e-04  4.4303265770526638e-04  3.6947185712261790e-04  3.0373180795508842e-04  2.4597795083775221e-04  1.9600732265695212e-04  1.6790988755845874e-04  1.2905165895708189e-04  9.6668630584618637e-05  7.0707227597730253e-05  3.1000240267597032e-05  1.4643677131944654e-05  1.0497531009117984e-06  0.0000000000000000e+00  0.0000000000000000e+00  0.0000000000000000e+00  0.0000000000000000e+00  0.0000000000000000e+00  0.0000000000000000e+00  0.0000000000000000e+00  0.0000000000000000e+00  0.0000000000000000e+00  0.0000000000000000e+00  0.0000000000000000e+00  0.0000000000000000e+00  0.0000000000000000e+00  0.0000000000000000e+00  0.0000000000000000e+00  0.0000000000000000e+00  0.0000000000000000e+00  0.0000000000000000e+00  0.0000000000000000e+00  9.8011402275103998e-01  9.6580154884136693e-01  9.6528349266390745e-01  9.6460215602326138e-01  9.3562767125835811e-01  9.3388006249393829e-01  9.2439135872228284e-01  9.5068632755874205e-01  9.5441959276972077e-01  9.6104419225226101e-01  9.6121057810485011e-01  9.8219374367103118e-01  9.9460532319842698e-01  9.9850299909452522e-01  1.0000000000000000e+00  1.0000000000000000e+00  1.0000000000000000e+00  1.0000000000000000e+00  1.0000000000000000e+00  1.0000000000000000e+00  9.9999685081926881e-01  9.9999516979484337e-01  9.9999276442788665e-01  9.9996162951948975e-01  9.9999202049669333e-01  9.9970447940206175e-01  9.9934054354682433e-01  9.9890181592284422e-01  9.9766647063577285e-01  9.9685900664601967e-01  9.9602315453987766e-01  9.9441635079837276e-01  8.9795354239860958e-01  8.7166444555150513e-01  8.1729240465425290e-01  8.8495615196506250e-01  7.2668719279784122e-01  6.1583427444099781e-01  5.2623383262230694e-01  4.2013270682739245e-01  1.6337710365261301e-01  7.5110134029415419e-05  1.2248583984050297e-04  1.2286469724444226e-04  4.2649562849742458e-05  0.0000000000000000e+00  0.0000000000000000e+00  0.0000000000000000e+00  0.0000000000000000e+00  0.0000000000000000e+00  0.0000000000000000e+00  0.0000000000000000e+00  0.0000000000000000e+00  1.2097733065530434e-05  3.3708984247497615e-05  4.8474304304233467e-05  2.8803716469260217e-05  3.7920149424357236e-05  8.5085752573227293e-04  1.5373671032993647e-03  1.9325049700098039e-03  2.1456785153739868e-03  2.2187655219196023e-03  4.0903083862835433e-03  4.2104876611996252e-03  1.7764678670155833e-03  2.3418596039294260e-03  1.4349502971329235e-03  1.2483941453711907e-03  1.0754020175126938e-03  9.1262721461217260e-04  7.6328505960330389e-04  6.2909437455936819e-04  5.1065781044769352e-04  4.0777643261985394e-04  3.4994300787580799e-04  2.6943979338133080e-04  2.0218515598547957e-04  1.4814620666807449e-04  6.5959573747830601e-05  3.1630132275286075e-05  3.1364266848089202e-06  0.0000000000000000e+00  0.0000000000000000e+00  0.0000000000000000e+00  0.0000000000000000e+00  0.0000000000000000e+00  0.0000000000000000e+00  0.0000000000000000e+00  0.0000000000000000e+00  0.0000000000000000e+00  0.0000000000000000e+00  0.0000000000000000e+00  0.0000000000000000e+00  0.0000000000000000e+00  0.0000000000000000e+00  0.0000000000000000e+00  0.0000000000000000e+00  0.0000000000000000e+00  0.0000000000000000e+00  0.0000000000000000e+00  9.7870895985927997e-01  9.6386030290660341e-01  9.5948051974990978e-01  9.2940950814911683e-01  9.1517275482972671e-01  9.1924871377341510e-01  9.1667849562212633e-01  9.1695574936855928e-01  9.3934601657328221e-01  9.4552402079909925e-01  9.5210833209883772e-01  9.6165301761936994e-01  9.8268875342856421e-01  9.8464464567600540e-01  1.0000000000000000e+00  1.0000000000000000e+00  1.0000000000000000e+00  1.0000000000000000e+00  1.0000000000000000e+00  1.0000000000000000e+00  9.9999442271089622e-01  9.9999337946970068e-01  9.9999239633447434e-01  9.9989934427462912e-01  9.9999106165744833e-01  9.9979502840403811e-01  9.9940576198181552e-01  9.9894347747093326e-01  9.9765164217511482e-01  9.9676076824859450e-01  9.9580769614048381e-01  9.2856011883101353e-01  8.4756104718454250e-01  8.2661564298049917e-01  6.6868446913054880e-01  9.0852616992381663e-01  7.3169924562002764e-01  6.4684204697213110e-01  5.8966520464916772e-01  3.6186323654692132e-01  2.7965140201836264e-01  1.6408331912376278e-01  9.7159535334200302e-04  1.9106918315670355e-04  7.1986953856690355e-05  0.0000000000000000e+00  0.0000000000000000e+00  0.0000000000000000e+00  0.0000000000000000e+00  0.0000000000000000e+00  0.0000000000000000e+00  0.0000000000000000e+00  0.0000000000000000e+00  1.7241866412421150e-05  4.2847332016937623e-05  5.8918387366795013e-05  4.0773097547702857e-05  4.7293611179913747e-04  1.4383213893411555e-03  2.0218254678034944e-03  2.3689710572635052e-03  3.4477558739970000e-03  5.5468258895775323e-03  5.4053469160785135e-03  5.1516871002227141e-03  1.9609238656755619e-03  1.7629653010095767e-03  1.5564570658829907e-03  1.3444656956836743e-03  1.1502204338604885e-03  9.6968632580244555e-04  8.0569759341425835e-04  6.5958981606388143e-04  5.3159514663016401e-04  4.2116542590147510e-04  3.5848577377525255e-04  2.7316972340393498e-04  2.0372735726103641e-04  1.3876953191993311e-04  5.7157614351200509e-05  2.2285253900618440e-05  0.0000000000000000e+00  0.0000000000000000e+00  0.0000000000000000e+00  0.0000000000000000e+00  0.0000000000000000e+00  0.0000000000000000e+00  0.0000000000000000e+00  0.0000000000000000e+00  0.0000000000000000e+00  0.0000000000000000e+00  0.0000000000000000e+00  0.0000000000000000e+00  0.0000000000000000e+00  0.0000000000000000e+00  0.0000000000000000e+00  0.0000000000000000e+00  0.0000000000000000e+00  0.0000000000000000e+00  0.0000000000000000e+00  0.0000000000000000e+00  9.5314655616498190e-01  9.2195076285208710e-01  9.1604400142368325e-01  9.0853817841273754e-01  9.0093700159406365e-01  8.9297526899075319e-01  8.9388331247769370e-01  8.8716487610721650e-01  8.1721379826200269e-01  8.1111790275997986e-01  8.1576169447005353e-01  8.2809271077364710e-01  8.1820867988195478e-01  8.1735837075505535e-01  8.1691016161979679e-01  8.3810319186510973e-01  8.6420236391397176e-01  8.7659855066783987e-01  9.1189755850850451e-01  9.3325380961382154e-01  9.9998869889178321e-01  9.9999702387789513e-01  9.9980679149487905e-01  9.9980626813894513e-01  9.9999111585346268e-01  9.9989172988655173e-01  9.5694617323608744e-01  8.9113868449585609e-01  8.9644585975249147e-01  9.4370383421455084e-01  8.8043474499991514e-01  6.8986282757081951e-01  6.1597804487534591e-01  6.0934305450054604e-01  5.8376754040574175e-01  6.1342830598586140e-01  6.5703320389509201e-01  7.0084279157205343e-01  6.3036883794151399e-01  5.6530175723581544e-01  4.1701603786262081e-01  3.0530371704802300e-01  2.4721438159192757e-01  3.2577126909277208e-04  8.0606182513714964e-05  0.0000000000000000e+00  0.0000000000000000e+00  0.0000000000000000e+00  0.0000000000000000e+00  0.0000000000000000e+00  0.0000000000000000e+00  0.0000000000000000e+00  0.0000000000000000e+00  3.2602657619585771e-05  5.9421641497340890e-05  3.8180279602854321e-05  2.3117454592714613e-04  1.5099328841469929e-03  2.3367435856289976e-03  3.3503028075534992e-03  4.5680693955191341e-03  8.0471119504631934e-03  8.4007861058616757e-03  7.5104832465505431e-03  6.6476093545270775e-03  4.0148140904472055e-03  2.0186781999851377e-03  1.7529126051915019e-03  1.5070714238473617e-03  1.2766706392945404e-03  1.0659197886698222e-03  8.7701252978229696e-04  7.1063647895617751e-04  5.6639603118924210e-04  4.4315091623436161e-04  3.7222342943059468e-04  2.7876613817833581e-04  2.0341312675829166e-04  9.3499600020723151e-05  4.5216633203535458e-05  5.6907272809663454e-06  0.0000000000000000e+00  0.0000000000000000e+00  0.0000000000000000e+00  0.0000000000000000e+00  0.0000000000000000e+00  0.0000000000000000e+00  0.0000000000000000e+00  0.0000000000000000e+00  0.0000000000000000e+00  0.0000000000000000e+00  0.0000000000000000e+00  0.0000000000000000e+00  0.0000000000000000e+00  0.0000000000000000e+00  0.0000000000000000e+00  0.0000000000000000e+00  0.0000000000000000e+00  0.0000000000000000e+00  0.0000000000000000e+00  0.0000000000000000e+00  8.1628106973677850e-01  7.4586910222535918e-01  7.3489448728219953e-01  7.1842131340651239e-01  6.6400672643582337e-01  6.2954639135158996e-01  5.8739172365488224e-01  4.7586815812005445e-01  3.8332009176792892e-01  3.4324697158827244e-01  3.0202058998072168e-01  3.0169429067299364e-01  2.5021841756053448e-01  2.9317688757887156e-01  2.9278865915398344e-01  3.0480627200515636e-01  3.6194628568034032e-01  4.4391516013996862e-01  5.3372194993047739e-01  6.4429558825252620e-01  7.1323064244924983e-01  6.4571592670233868e-01  7.0081421555195200e-01  7.2971274176340051e-01  5.3715741723853594e-01  6.0373496361708889e-01  6.5734941732467200e-01  7.0150918579187382e-01  7.0321468851232072e-01  6.9256633820654057e-01  6.8655740921449393e-01  5.6940568190272267e-01  5.2945819070001521e-01  5.0004949531590559e-01  5.5688151542004172e-01  6.6307077287673510e-01  7.8830218346428005e-01  6.6772230123990506e-01  7.1031343301856753e-01  6.9222577183067646e-01  6.3923426127045890e-01  4.9219496998182349e-01  3.8711724789774404e-01  3.0902400504958394e-01  6.2610086383383556e-02  0.0000000000000000e+00  0.0000000000000000e+00  0.0000000000000000e+00  0.0000000000000000e+00  0.0000000000000000e+00  0.0000000000000000e+00  0.0000000000000000e+00  6.3390957200774592e-06  5.3248108418480779e-05  6.2850460471758593e-05  6.2777236096702775e-05  1.7241633209590227e-03  2.8991958684158278e-03  5.0216879140969053e-03  1.0508044618246610e-02  1.3823431826264913e-02  1.3818374608672853e-02  1.2150372055380443e-02  1.0235741004261065e-02  8.5535316349778564e-03  5.0458246763793761e-03  2.3686933378547713e-03  2.0430821668592797e-03  1.7361936256338570e-03  1.4541309748630788e-03  1.2002433198345062e-03  9.7580577767337052e-04  7.8058077018733081e-04  6.1327098278298321e-04  5.1667534460546035e-04  3.8922196437131542e-04  2.8412863039189816e-04  1.9091052286475792e-04  7.6751549671215754e-05  2.1902406923946140e-05  0.0000000000000000e+00  0.0000000000000000e+00  0.0000000000000000e+00  0.0000000000000000e+00  0.0000000000000000e+00  0.0000000000000000e+00  0.0000000000000000e+00  0.0000000000000000e+00  0.0000000000000000e+00  0.0000000000000000e+00  0.0000000000000000e+00  0.0000000000000000e+00  0.0000000000000000e+00  0.0000000000000000e+00  0.0000000000000000e+00  0.0000000000000000e+00  0.0000000000000000e+00  0.0000000000000000e+00  0.0000000000000000e+00  0.0000000000000000e+00  0.0000000000000000e+00  4.1259624021649977e-01  2.7005411979728872e-01  2.3592310698944791e-01  7.2391745550122968e-02  0.0000000000000000e+00  0.0000000000000000e+00  0.0000000000000000e+00  0.0000000000000000e+00  0.0000000000000000e+00  0.0000000000000000e+00  1.2092779873254158e-04  3.1899954790751335e-04  1.1010284336967604e-03  1.5585108402559160e-03  4.4692207730794497e-03  6.3815423503079801e-03  2.3169161951500320e-02  3.4492947378824169e-02  4.1103138999878074e-02  4.2294673207691834e-02  4.5364086211751781e-02  4.6296673933385601e-02  4.5898727787094105e-02  4.3439862790786529e-02  3.6397157872231412e-02  3.2803516665807490e-02  2.9961877166373860e-02  1.8028023534895188e-01  2.3325644002724252e-01  3.2931014376696566e-01  2.5666726708293364e-01  2.8565199786281975e-01  2.4707906060253668e-01  2.8277565968503632e-01  4.4161979545156399e-01  6.2497883729342540e-01  5.5828854530387750e-01  6.4454613684971174e-01  7.4481985280236473e-01  7.8040359115021440e-01  7.8239362220205344e-01  7.5227688293333639e-01  6.1610133933795008e-01  5.4160093635103390e-01  4.7720005509698021e-01  3.0158964633190782e-01  0.0000000000000000e+00  0.0000000000000000e+00  0.0000000000000000e+00  0.0000000000000000e+00  0.0000000000000000e+00  0.0000000000000000e+00  2.8775562441642161e-05  1.3889240244683183e-04  9.3974294203870865e-05  1.9882479994095771e-03  4.3483568445876726e-03  7.5635374853137306e-03  1.6992382927751678e-02  2.1848008128554183e-02  2.1865081944554048e-02  2.0093492507745749e-02  1.7194053571389461e-02  1.3353603442138606e-02  9.7429251591836744e-03  3.2802522299565564e-03  2.8377604221603700e-03  2.6123383106723122e-03  2.0312299996865560e-03  1.6812585751681457e-03  1.3707390180711574e-03  1.0997411393637252e-03  8.6680724413372640e-04  6.6945149007144344e-04  5.5346975017549888e-04  4.0655711681712123e-04  2.8912630629651258e-04  1.2449631587735401e-04  4.6731439638530323e-05  0.0000000000000000e+00  0.0000000000000000e+00  0.0000000000000000e+00  0.0000000000000000e+00  0.0000000000000000e+00  0.0000000000000000e+00  0.0000000000000000e+00  0.0000000000000000e+00  0.0000000000000000e+00  0.0000000000000000e+00  0.0000000000000000e+00  0.0000000000000000e+00  0.0000000000000000e+00  0.0000000000000000e+00  0.0000000000000000e+00  0.0000000000000000e+00  0.0000000000000000e+00  0.0000000000000000e+00  0.0000000000000000e+00  0.0000000000000000e+00  0.0000000000000000e+00  0.0000000000000000e+00  5.8012315473264251e-05  1.1399874640017631e-04  7.2957106756367770e-05  3.7966260440621847e-06  0.0000000000000000e+00  0.0000000000000000e+00  0.0000000000000000e+00  0.0000000000000000e+00  0.0000000000000000e+00  0.0000000000000000e+00  1.1564958467053718e-04  2.6568479839475290e-04  8.0529758311601149e-04  7.5449199077621003e-04  2.8301122891846949e-03  5.3364733570158314e-03  6.3872086833073414e-03  1.8721849744944161e-02  2.3827007835359491e-02  2.7220604787881800e-02  2.9428049436192705e-02  3.0038284277698470e-02  2.8391857499614169e-02  2.5088115672095103e-02  1.9255322171820022e-02  3.0405097709583818e-02  3.3594955063484623e-02  3.0296176069719467e-02  3.1653465421812195e-02  3.2207324834747725e-02  3.0822158447365106e-02  1.1881571247325850e-02  8.6651718927006072e-03  1.8325378338337373e-03  1.3902505927223796e-01  3.4951593104228579e-01  4.7263749476209688e-01  5.3259980395841788e-01  5.8688203380870552e-01  7.0561207676149995e-01  7.5215067767651067e-01  8.4037142597050007e-01  8.6273988858364181e-01  8.0524011783405569e-01  7.6905011288263891e-01  8.8972125721249706e-01  7.7955520475380646e-01  5.5660640514767123e-01  0.0000000000000000e+00  0.0000000000000000e+00  0.0000000000000000e+00  0.0000000000000000e+00  1.0701898516363476e-04  9.1085153556553499e-05  1.8953703012929213e-03  6.6084734530309367e-03  1.1120091422095088e-02  2.7254528713368018e-02  3.3705712126475357e-02  3.3410938786399752e-02  3.0989131442154979e-02  2.7037245193579740e-02  2.2247433098628141e-02  1.8073569613731015e-02  1.2048063719035175e-02  3.9922076790664665e-03  3.4146559957323932e-03  3.0347647854243277e-03  2.3903074278483947e-03  1.9554178617525370e-03  1.5741722285669039e-03  1.2451515112041252e-03  9.6538048799755432e-04  8.0003779532010846e-04  5.9069007685167091e-04  4.1971915075734908e-04  2.0021942275252411e-04  8.8030819136558926e-05  1.5113460377096801e-06  0.0000000000000000e+00  0.0000000000000000e+00  0.0000000000000000e+00  0.0000000000000000e+00  0.0000000000000000e+00  0.0000000000000000e+00  0.0000000000000000e+00  0.0000000000000000e+00  0.0000000000000000e+00  0.0000000000000000e+00  0.0000000000000000e+00  0.0000000000000000e+00  0.0000000000000000e+00  0.0000000000000000e+00  0.0000000000000000e+00  0.0000000000000000e+00  0.0000000000000000e+00  0.0000000000000000e+00  0.0000000000000000e+00  0.0000000000000000e+00  0.0000000000000000e+00  0.0000000000000000e+00  2.7550511583816605e-05  5.7195642938400379e-05  2.7950115724479612e-05  7.0011447448231387e-07  0.0000000000000000e+00  0.0000000000000000e+00  0.0000000000000000e+00  0.0000000000000000e+00  0.0000000000000000e+00  2.8411989091361643e-05  1.2113132278998341e-04  2.3169517642780324e-04  6.3088955203768774e-04  5.7425499534925013e-04  1.5149261020107319e-03  3.5786311420319397e-03  4.4176121561518705e-03  1.2378135566621448e-02  1.4757117911803140e-02  1.8645330090190978e-02  2.0470949701361638e-02  2.0537805527718129e-02  1.8674977999035992e-02  1.4406862629383298e-02  2.1505016046809232e-02  1.9818892883726263e-02  2.1515728967343373e-02  2.2702783882511915e-02  2.3418370117448187e-02  2.2817464232913851e-02  9.5798995863596824e-03  7.5318015726106450e-03  1.5628094294463145e-03  6.0063566781336101e-04  6.7639822170295313e-05  0.0000000000000000e+00  2.4107078032330476e-01  4.1407299810387072e-01  5.1345289749586964e-01  5.7790693018983708e-01  6.9649750449113268e-01  7.9308591906953552e-01  9.0869309900902784e-01  9.0985653891897289e-01  9.1418643810211941e-01  9.4711903088314564e-01  9.0851626667055296e-01  8.7790986827767425e-01  8.2673339755955266e-01  8.2230221776093537e-01  8.3404936775052851e-01  6.9501952341025786e-01  3.1190385737312043e-01  1.4049706071854853e-01  1.1404094845590929e-02  3.0845815778827050e-02  4.2300815159837392e-02  6.1734211988844941e-02  5.8706649924517483e-02  5.2508687863384945e-02  4.4886535172229312e-02  3.5167212462852163e-02  2.7238433360966111e-02  2.1081457775529493e-02  6.2449555264035665e-03  4.8374619425786119e-03  5.0071567864633411e-03  3.4185854154910006e-03  2.8094377308937571e-03  2.2719618257370003e-03  1.8053720038058701e-03  1.4065043639091565e-03  1.0705747825735196e-03  8.6857540363457770e-04  6.2190303575452525e-04  4.2744987942900211e-04  1.5808532493255536e-04  3.1182001185305937e-05  0.0000000000000000e+00  0.0000000000000000e+00  0.0000000000000000e+00  0.0000000000000000e+00  0.0000000000000000e+00  0.0000000000000000e+00  0.0000000000000000e+00  0.0000000000000000e+00  0.0000000000000000e+00  0.0000000000000000e+00  0.0000000000000000e+00  0.0000000000000000e+00  0.0000000000000000e+00  0.0000000000000000e+00  0.0000000000000000e+00  0.0000000000000000e+00  0.0000000000000000e+00  0.0000000000000000e+00  0.0000000000000000e+00  0.0000000000000000e+00  0.0000000000000000e+00  0.0000000000000000e+00  0.0000000000000000e+00  1.0993412590095449e-05  2.5964187186168578e-05  7.4787172897416354e-06  1.4063768186875313e-06  0.0000000000000000e+00  0.0000000000000000e+00  0.0000000000000000e+00  0.0000000000000000e+00  0.0000000000000000e+00  4.7693546752170928e-05  1.1720823647615132e-04  1.9816097509258503e-04  4.8966458485550550e-04  4.3481182861973582e-04  7.4626808100856695e-04  2.0700159714297679e-03  3.3119660047944499e-03  7.4006877692399421e-03  9.4683232747127567e-03  1.2544101738400888e-02  1.3889530901513460e-02  1.3539223108130861e-0