<?xml version="1.0"?>
<VTKFile type="UnstructuredGrid"  version="0.1"  >
<UnstructuredGrid>
<Piece  NumberOfPoints="5151" NumberOfCells="10000">
<Points>
<DataArray  type="Float64"  NumberOfComponents="3"  format="ascii">0 0 0  0.01 0 0  0.02 0 0  0.03 0 0  0.04 0 0  0.05 0 0  0.06 0 0  0.07000000000000001 0 0  0.08 0 0  0.09 0 0  0.1 0 0  0.11 0 0  0.12 0 0  0.13 0 0  0.14 0 0  0.15 0 0  0.16 0 0  0.17 0 0  0.18 0 0  0.19 0 0  0.2 0 0  0.21 0 0  0.22 0 0  0.23 0 0  0.24 0 0  0.25 0 0  0.26 0 0  0.27 0 0  0.28 0 0  0.29 0 0  0.3 0 0  0.31 0 0  0.32 0 0  0.33 0 0  0.34 0 0  0.35 0 0  0.36 0 0  0.37 0 0  0.38 0 0  0.39 0 0  0.4 0 0  0.41 0 0  0.42 0 0  0.43 0 0  0.44 0 0  0.45 0 0  0.46 0 0  0.47 0 0  0.48 0 0  0.49 0 0  0.5 0 0  0.51 0 0  0.52 0 0  0.53 0 0  0.54 0 0  0.55 0 0  0.5600000000000001 0 0  0.57 0 0  0.58 0 0  0.59 0 0  0.6 0 0  0.61 0 0  0.62 0 0  0.63 0 0  0.64 0 0  0.65 0 0  0.66 0 0  0.67 0 0  0.68 0 0  0.6899999999999999 0 0  0.7 0 0  0.71 0 0  0.72 0 0  0.73 0 0  0.74 0 0  0.75 0 0  0.76 0 0  0.77 0 0  0.78 0 0  0.79 0 0  0.8 0 0  0.8100000000000001 0 0  0.82 0 0  0.83 0 0  0.84 0 0  0.85 0 0  0.86 0 0  0.87 0 0  0.88 0 0  0.89 0 0  0.9 0 0  0.91 0 0  0.92 0 0  0.93 0 0  0.9399999999999999 0 0  0.95 0 0  0.96 0 0  0.97 0 0  0.98 0 0  0.99 0 0  1 0 0  0 0.01 0  0.01 0.01 0  0.02 0.01 0  0.03 0.01 0  0.04 0.01 0  0.05 0.01 0  0.06 0.01 0  0.07000000000000001 0.01 0  0.08 0.01 0  0.09 0.01 0  0.1 0.01 0  0.11 0.01 0  0.12 0.01 0  0.13 0.01 0  0.14 0.01 0  0.15 0.01 0  0.16 0.01 0  0.17 0.01 0  0.18 0.01 0  0.19 0.01 0  0.2 0.01 0  0.21 0.01 0  0.22 0.01 0  0.23 0.01 0  0.24 0.01 0  0.25 0.01 0  0.26 0.01 0  0.27 0.01 0  0.28 0.01 0  0.29 0.01 0  0.3 0.01 0  0.31 0.01 0  0.32 0.01 0  0.33 0.01 0  0.34 0.01 0  0.35 0.01 0  0.36 0.01 0  0.37 0.01 0  0.38 0.01 0  0.39 0.01 0  0.4 0.01 0  0.41 0.01 0  0.42 0.01 0  0.43 0.01 0  0.44 0.01 0  0.45 0.01 0  0.46 0.01 0  0.47 0.01 0  0.48 0.01 0  0.49 0.01 0  0.5 0.01 0  0.51 0.01 0  0.52 0.01 0  0.53 0.01 0  0.54 0.01 0  0.55 0.01 0  0.5600000000000001 0.01 0  0.57 0.01 0  0.58 0.01 0  0.59 0.01 0  0.6 0.01 0  0.61 0.01 0  0.62 0.01 0  0.63 0.01 0  0.64 0.01 0  0.65 0.01 0  0.66 0.01 0  0.67 0.01 0  0.68 0.01 0  0.6899999999999999 0.01 0  0.7 0.01 0  0.71 0.01 0  0.72 0.01 0  0.73 0.01 0  0.74 0.01 0  0.75 0.01 0  0.76 0.01 0  0.77 0.01 0  0.78 0.01 0  0.79 0.01 0  0.8 0.01 0  0.8100000000000001 0.01 0  0.82 0.01 0  0.83 0.01 0  0.84 0.01 0  0.85 0.01 0  0.86 0.01 0  0.87 0.01 0  0.88 0.01 0  0.89 0.01 0  0.9 0.01 0  0.91 0.01 0  0.92 0.01 0  0.93 0.01 0  0.9399999999999999 0.01 0  0.95 0.01 0  0.96 0.01 0  0.97 0.01 0  0.98 0.01 0  0.99 0.01 0  1 0.01 0  0 0.02 0  0.01 0.02 0  0.02 0.02 0  0.03 0.02 0  0.04 0.02 0  0.05 0.02 0  0.06 0.02 0  0.07000000000000001 0.02 0  0.08 0.02 0  0.09 0.02 0  0.1 0.02 0  0.11 0.02 0  0.12 0.02 0  0.13 0.02 0  0.14 0.02 0  0.15 0.02 0  0.16 0.02 0  0.17 0.02 0  0.18 0.02 0  0.19 0.02 0  0.2 0.02 0  0.21 0.02 0  0.22 0.02 0  0.23 0.02 0  0.24 0.02 0  0.25 0.02 0  0.26 0.02 0  0.27 0.02 0  0.28 0.02 0  0.29 0.02 0  0.3 0.02 0  0.31 0.02 0  0.32 0.02 0  0.33 0.02 0  0.34 0.02 0  0.35 0.02 0  0.36 0.02 0  0.37 0.02 0  0.38 0.02 0  0.39 0.02 0  0.4 0.02 0  0.41 0.02 0  0.42 0.02 0  0.43 0.02 0  0.44 0.02 0  0.45 0.02 0  0.46 0.02 0  0.47 0.02 0  0.48 0.02 0  0.49 0.02 0  0.5 0.02 0  0.51 0.02 0  0.52 0.02 0  0.53 0.02 0  0.54 0.02 0  0.55 0.02 0  0.5600000000000001 0.02 0  0.57 0.02 0  0.58 0.02 0  0.59 0.02 0  0.6 0.02 0  0.61 0.02 0  0.62 0.02 0  0.63 0.02 0  0.64 0.02 0  0.65 0.02 0  0.66 0.02 0  0.67 0.02 0  0.68 0.02 0  0.6899999999999999 0.02 0  0.7 0.02 0  0.71 0.02 0  0.72 0.02 0  0.73 0.02 0  0.74 0.02 0  0.75 0.02 0  0.76 0.02 0  0.77 0.02 0  0.78 0.02 0  0.79 0.02 0  0.8 0.02 0  0.8100000000000001 0.02 0  0.82 0.02 0  0.83 0.02 0  0.84 0.02 0  0.85 0.02 0  0.86 0.02 0  0.87 0.02 0  0.88 0.02 0  0.89 0.02 0  0.9 0.02 0  0.91 0.02 0  0.92 0.02 0  0.93 0.02 0  0.9399999999999999 0.02 0  0.95 0.02 0  0.96 0.02 0  0.97 0.02 0  0.98 0.02 0  0.99 0.02 0  1 0.02 0  0 0.03 0  0.01 0.03 0  0.02 0.03 0  0.03 0.03 0  0.04 0.03 0  0.05 0.03 0  0.06 0.03 0  0.07000000000000001 0.03 0  0.08 0.03 0  0.09 0.03 0  0.1 0.03 0  0.11 0.03 0  0.12 0.03 0  0.13 0.03 0  0.14 0.03 0  0.15 0.03 0  0.16 0.03 0  0.17 0.03 0  0.18 0.03 0  0.19 0.03 0  0.2 0.03 0  0.21 0.03 0  0.22 0.03 0  0.23 0.03 0  0.24 0.03 0  0.25 0.03 0  0.26 0.03 0  0.27 0.03 0  0.28 0.03 0  0.29 0.03 0  0.3 0.03 0  0.31 0.03 0  0.32 0.03 0  0.33 0.03 0  0.34 0.03 0  0.35 0.03 0  0.36 0.03 0  0.37 0.03 0  0.38 0.03 0  0.39 0.03 0  0.4 0.03 0  0.41 0.03 0  0.42 0.03 0  0.43 0.03 0  0.44 0.03 0  0.45 0.03 0  0.46 0.03 0  0.47 0.03 0  0.48 0.03 0  0.49 0.03 0  0.5 0.03 0  0.51 0.03 0  0.52 0.03 0  0.53 0.03 0  0.54 0.03 0  0.55 0.03 0  0.5600000000000001 0.03 0  0.57 0.03 0  0.58 0.03 0  0.59 0.03 0  0.6 0.03 0  0.61 0.03 0  0.62 0.03 0  0.63 0.03 0  0.64 0.03 0  0.65 0.03 0  0.66 0.03 0  0.67 0.03 0  0.68 0.03 0  0.6899999999999999 0.03 0  0.7 0.03 0  0.71 0.03 0  0.72 0.03 0  0.73 0.03 0  0.74 0.03 0  0.75 0.03 0  0.76 0.03 0  0.77 0.03 0  0.78 0.03 0  0.79 0.03 0  0.8 0.03 0  0.8100000000000001 0.03 0  0.82 0.03 0  0.83 0.03 0  0.84 0.03 0  0.85 0.03 0  0.86 0.03 0  0.87 0.03 0  0.88 0.03 0  0.89 0.03 0  0.9 0.03 0  0.91 0.03 0  0.92 0.03 0  0.93 0.03 0  0.9399999999999999 0.03 0  0.95 0.03 0  0.96 0.03 0  0.97 0.03 0  0.98 0.03 0  0.99 0.03 0  1 0.03 0  0 0.04 0  0.01 0.04 0  0.02 0.04 0  0.03 0.04 0  0.04 0.04 0  0.05 0.04 0  0.06 0.04 0  0.07000000000000001 0.04 0  0.08 0.04 0  0.09 0.04 0  0.1 0.04 0  0.11 0.04 0  0.12 0.04 0  0.13 0.04 0  0.14 0.04 0  0.15 0.04 0  0.16 0.04 0  0.17 0.04 0  0.18 0.04 0  0.19 0.04 0  0.2 0.04 0  0.21 0.04 0  0.22 0.04 0  0.23 0.04 0  0.24 0.04 0  0.25 0.04 0  0.26 0.04 0  0.27 0.04 0  0.28 0.04 0  0.29 0.04 0  0.3 0.04 0  0.31 0.04 0  0.32 0.04 0  0.33 0.04 0  0.34 0.04 0  0.35 0.04 0  0.36 0.04 0  0.37 0.04 0  0.38 0.04 0  0.39 0.04 0  0.4 0.04 0  0.41 0.04 0  0.42 0.04 0  0.43 0.04 0  0.44 0.04 0  0.45 0.04 0  0.46 0.04 0  0.47 0.04 0  0.48 0.04 0  0.49 0.04 0  0.5 0.04 0  0.51 0.04 0  0.52 0.04 0  0.53 0.04 0  0.54 0.04 0  0.55 0.04 0  0.5600000000000001 0.04 0  0.57 0.04 0  0.58 0.04 0  0.59 0.04 0  0.6 0.04 0  0.61 0.04 0  0.62 0.04 0  0.63 0.04 0  0.64 0.04 0  0.65 0.04 0  0.66 0.04 0  0.67 0.04 0  0.68 0.04 0  0.6899999999999999 0.04 0  0.7 0.04 0  0.71 0.04 0  0.72 0.04 0  0.73 0.04 0  0.74 0.04 0  0.75 0.04 0  0.76 0.04 0  0.77 0.04 0  0.78 0.04 0  0.79 0.04 0  0.8 0.04 0  0.8100000000000001 0.04 0  0.82 0.04 0  0.83 0.04 0  0.84 0.04 0  0.85 0.04 0  0.86 0.04 0  0.87 0.04 0  0.88 0.04 0  0.89 0.04 0  0.9 0.04 0  0.91 0.04 0  0.92 0.04 0  0.93 0.04 0  0.9399999999999999 0.04 0  0.95 0.04 0  0.96 0.04 0  0.97 0.04 0  0.98 0.04 0  0.99 0.04 0  1 0.04 0  0 0.05 0  0.01 0.05 0  0.02 0.05 0  0.03 0.05 0  0.04 0.05 0  0.05 0.05 0  0.06 0.05 0  0.07000000000000001 0.05 0  0.08 0.05 0  0.09 0.05 0  0.1 0.05 0  0.11 0.05 0  0.12 0.05 0  0.13 0.05 0  0.14 0.05 0  0.15 0.05 0  0.16 0.05 0  0.17 0.05 0  0.18 0.05 0  0.19 0.05 0  0.2 0.05 0  0.21 0.05 0  0.22 0.05 0  0.23 0.05 0  0.24 0.05 0  0.25 0.05 0  0.26 0.05 0  0.27 0.05 0  0.28 0.05 0  0.29 0.05 0  0.3 0.05 0  0.31 0.05 0  0.32 0.05 0  0.33 0.05 0  0.34 0.05 0  0.35 0.05 0  0.36 0.05 0  0.37 0.05 0  0.38 0.05 0  0.39 0.05 0  0.4 0.05 0  0.41 0.05 0  0.42 0.05 0  0.43 0.05 0  0.44 0.05 0  0.45 0.05 0  0.46 0.05 0  0.47 0.05 0  0.48 0.05 0  0.49 0.05 0  0.5 0.05 0  0.51 0.05 0  0.52 0.05 0  0.53 0.05 0  0.54 0.05 0  0.55 0.05 0  0.5600000000000001 0.05 0  0.57 0.05 0  0.58 0.05 0  0.59 0.05 0  0.6 0.05 0  0.61 0.05 0  0.62 0.05 0  0.63 0.05 0  0.64 0.05 0  0.65 0.05 0  0.66 0.05 0  0.67 0.05 0  0.68 0.05 0  0.6899999999999999 0.05 0  0.7 0.05 0  0.71 0.05 0  0.72 0.05 0  0.73 0.05 0  0.74 0.05 0  0.75 0.05 0  0.76 0.05 0  0.77 0.05 0  0.78 0.05 0  0.79 0.05 0  0.8 0.05 0  0.8100000000000001 0.05 0  0.82 0.05 0  0.83 0.05 0  0.84 0.05 0  0.85 0.05 0  0.86 0.05 0  0.87 0.05 0  0.88 0.05 0  0.89 0.05 0  0.9 0.05 0  0.91 0.05 0  0.92 0.05 0  0.93 0.05 0  0.9399999999999999 0.05 0  0.95 0.05 0  0.96 0.05 0  0.97 0.05 0  0.98 0.05 0  0.99 0.05 0  1 0.05 0  0 0.06 0  0.01 0.06 0  0.02 0.06 0  0.03 0.06 0  0.04 0.06 0  0.05 0.06 0  0.06 0.06 0  0.07000000000000001 0.06 0  0.08 0.06 0  0.09 0.06 0  0.1 0.06 0  0.11 0.06 0  0.12 0.06 0  0.13 0.06 0  0.14 0.06 0  0.15 0.06 0  0.16 0.06 0  0.17 0.06 0  0.18 0.06 0  0.19 0.06 0  0.2 0.06 0  0.21 0.06 0  0.22 0.06 0  0.23 0.06 0  0.24 0.06 0  0.25 0.06 0  0.26 0.06 0  0.27 0.06 0  0.28 0.06 0  0.29 0.06 0  0.3 0.06 0  0.31 0.06 0  0.32 0.06 0  0.33 0.06 0  0.34 0.06 0  0.35 0.06 0  0.36 0.06 0  0.37 0.06 0  0.38 0.06 0  0.39 0.06 0  0.4 0.06 0  0.41 0.06 0  0.42 0.06 0  0.43 0.06 0  0.44 0.06 0  0.45 0.06 0  0.46 0.06 0  0.47 0.06 0  0.48 0.06 0  0.49 0.06 0  0.5 0.06 0  0.51 0.06 0  0.52 0.06 0  0.53 0.06 0  0.54 0.06 0  0.55 0.06 0  0.5600000000000001 0.06 0  0.57 0.06 0  0.58 0.06 0  0.59 0.06 0  0.6 0.06 0  0.61 0.06 0  0.62 0.06 0  0.63 0.06 0  0.64 0.06 0  0.65 0.06 0  0.66 0.06 0  0.67 0.06 0  0.68 0.06 0  0.6899999999999999 0.06 0  0.7 0.06 0  0.71 0.06 0  0.72 0.06 0  0.73 0.06 0  0.74 0.06 0  0.75 0.06 0  0.76 0.06 0  0.77 0.06 0  0.78 0.06 0  0.79 0.06 0  0.8 0.06 0  0.8100000000000001 0.06 0  0.82 0.06 0  0.83 0.06 0  0.84 0.06 0  0.85 0.06 0  0.86 0.06 0  0.87 0.06 0  0.88 0.06 0  0.89 0.06 0  0.9 0.06 0  0.91 0.06 0  0.92 0.06 0  0.93 0.06 0  0.9399999999999999 0.06 0  0.95 0.06 0  0.96 0.06 0  0.97 0.06 0  0.98 0.06 0  0.99 0.06 0  1 0.06 0  0 0.07000000000000001 0  0.01 0.07000000000000001 0  0.02 0.07000000000000001 0  0.03 0.07000000000000001 0  0.04 0.07000000000000001 0  0.05 0.07000000000000001 0  0.06 0.07000000000000001 0  0.07000000000000001 0.07000000000000001 0  0.08 0.07000000000000001 0  0.09 0.07000000000000001 0  0.1 0.07000000000000001 0  0.11 0.07000000000000001 0  0.12 0.07000000000000001 0  0.13 0.07000000000000001 0  0.14 0.07000000000000001 0  0.15 0.07000000000000001 0  0.16 0.07000000000000001 0  0.17 0.07000
[...]
<PointData  Scalars="rho_bar"> 
<DataArray  type="Float64"  Name="rho_bar"  format="ascii">9.9497972327008455e-01  9.9553167379550200e-01  9.9501764934740589e-01  9.9491882087522809e-01  9.9471210159453971e-01  9.9450484966046715e-01  9.9423310965999623e-01  9.9385230293467441e-01  9.9333553949342135e-01  9.9270867076954872e-01  9.9204837885378494e-01  9.9145276792380244e-01  9.9100941666782272e-01  9.9077246658414297e-01  9.9075628449537323e-01  9.9094468207169240e-01  9.9130464432713916e-01  9.9179359709106141e-01  9.9236275948768859e-01  9.9296143942152981e-01  9.9354705771033403e-01  9.9409528821580440e-01  9.9460329132076519e-01  9.9508409822221944e-01  9.9555737418994483e-01  9.9603883342354249e-01  9.9653440175431596e-01  9.9704214189979234e-01  9.9755663155152396e-01  9.9805631933289907e-01  9.9847507838627225e-01  9.9873540246512649e-01  9.9885059152628775e-01  9.9890925692699806e-01  9.9893086190415947e-01  9.9882770405920029e-01  9.9841801415766651e-01  9.9733369821021212e-01  9.9224164927651592e-01  9.7505542110926813e-01  8.4263677049155561e-01  3.7367292553587578e-01  8.6555448199862120e-02  2.0673930355180215e-02  6.1566738404755404e-03  2.1157131844995306e-03  8.4799442224886502e-04  3.6003234401564115e-04  1.7397233354200697e-04  9.4464689512888784e-05  5.2751401763744293e-05  2.9904712449984422e-05  1.8080151550410641e-05  1.1535605454351011e-05  7.4547133428037863e-06  4.9267223975038834e-06  3.3645400558968422e-06  2.3430621880222483e-06  1.6625327541902372e-06  1.2049074763164228e-06  8.8866636882511272e-07  6.6636562531597782e-07  5.0760281294461924e-07  3.9210414173488812e-07  3.0678251735752141e-07  2.4279086223076065e-07  1.9410811056840086e-07  1.5658800291923094e-07  1.2732068421344158e-07  1.0423991518852273e-07  8.5857485365086710e-08  7.1086605695004936e-08  5.9123757217396881e-08  4.9367068627950003e-08  4.1360370902450448e-08  3.4754084800688898e-08  2.9277365171356064e-08  2.4718203793830426e-08  2.0909128286628108e-08  1.7716804157174586e-08  1.5034106142640423e-08  1.2774495066386429e-08  1.0867460958847661e-08  9.2554535706191748e-09  7.8910512597589991e-09  6.7351869613284830e-09  5.7554243641473119e-09  4.9248971119767486e-09  4.2211798291763837e-09  3.6256239959107344e-09  3.1226391745973877e-09  2.6992880548908393e-09  2.3447683018496510e-09  2.0501726494197280e-09  1.8081455235926802e-09  1.6127543647907640e-09  1.4592475728616146e-09  1.3439981946459876e-09  1.2644168967359731e-09  1.2192974945664517e-09  1.2097700032540707e-09  9.9919103943207876e-01  9.9654811380616315e-01  9.9678370164080443e-01  9.9598668429705661e-01  9.9491489507295616e-01  9.9342454097863120e-01  9.9157211539112922e-01  9.8949322613035939e-01  9.8738755913883602e-01  9.8546828618312132e-01  9.8391774812072186e-01  9.8288126251754826e-01  9.8246449607487429e-01  9.8272037935056755e-01  9.8363052302883047e-01  9.8508831887269011e-01  9.8690316019544710e-01  9.8884370321731452e-01  9.9070207443696723e-01  9.9234535671863755e-01  9.9372629559627867e-01  9.9485773144817513e-01  9.9577475150679495e-01  9.9651012626150992e-01  9.9708526844154532e-01  9.9751294326233109e-01  9.9780487729943979e-01  9.9797438812027395e-01  9.9803240056776032e-01  9.9799501210719888e-01  9.9793482832424485e-01  9.9800696839593184e-01  9.9828127124173183e-01  9.9858448177948100e-01  9.9870825628305948e-01  9.9861210102737918e-01  9.9822463958087659e-01  9.9699683663996386e-01  9.9291369756162051e-01  9.7466624264317947e-01  8.6427377798531124e-01  4.4883344057745955e-01  1.0482104843955234e-01  2.7563665550277658e-02  7.8672487269210410e-03  2.6488938488273771e-03  9.8378654189951566e-04  4.5495911995496112e-04  2.3192869645114578e-04  1.1250978021302790e-04  5.7619711448781037e-05  3.4596907035624925e-05  2.1652091440193059e-05  1.3091486353202808e-05  8.2560912827079128e-06  5.5189814708245577e-06  3.7153618632731947e-06  2.5473320409432147e-06  1.7995586189804751e-06  1.2928148480248966e-06  9.4584599009844331e-07  7.0527528039500233e-07  5.3411553315114415e-07  4.1060222451233413e-07  3.1994511425967072e-07  2.5229914262877290e-07  2.0110290057887775e-07  1.6181229179942770e-07  1.3128011837752952e-07  1.0728194837169081e-07  8.8223520675730727e-08  7.2947823225946507e-08  6.0602840490851337e-08  5.0553315940610640e-08  4.2319646165178867e-08  3.5535520618607617e-08  2.9918086316665555e-08  2.5246582525583689e-08  2.1347116126628934e-08  1.8081465694231100e-08  1.5338951459164279e-08  1.3030164910590021e-08  1.1082591015951010e-08  9.4369084073736991e-09  8.0444997041709966e-09  6.8651905696586894e-09  5.8658152680835703e-09  5.0187955647336496e-09  4.3012329907358573e-09  3.6940123463257465e-09  3.1812518739923945e-09  2.7496935051103335e-09  2.3883459612602309e-09  2.0880780959665208e-09  1.8414244954344933e-09  1.6422975240804968e-09  1.4858582910125699e-09  1.3683464727275564e-09  1.2870158692012667e-09  1.2399497721397821e-09  1.2257120786921518e-09  9.7392726354428116e-01  9.8250890928384715e-01  9.7999700990733118e-01  9.7951190047314529e-01  9.7890493761371800e-01  9.7857048898813770e-01  9.7840165385324773e-01  9.7816511685379992e-01  9.7753733920997155e-01  9.7632362372192427e-01  9.7463668765069900e-01  9.7283619240892993e-01  9.7132532287611939e-01  9.7039032412956205e-01  9.7011073585349517e-01  9.7038449514006886e-01  9.7105092121472281e-01  9.7199123987898783e-01  9.7314919968417746e-01  9.7447915803139962e-01  9.7590695318996368e-01  9.7734616701453292e-01  9.7875483417613329e-01  9.8015969536641512e-01  9.8164204008009992e-01  9.8329822532187416e-01  9.8518308790337605e-01  9.8728894324660521e-01  9.8957417743435738e-01  9.9199035962869098e-01  9.9441025781938508e-01  9.9640906272138174e-01  9.9741999044160146e-01  9.9754626080339082e-01  9.9753783787473083e-01  9.9761958758466085e-01  9.9735206336628035e-01  9.9619024569797143e-01  9.9245151873044724e-01  9.7808587417152371e-01  9.1097130784487546e-01  6.2384389947169427e-01  2.1188131354780240e-01  5.6786022931460796e-02  1.5644887271869131e-02  5.0407590135813111e-03  2.2002354931204703e-03  9.0261480356433697e-04  3.2351900920894180e-04  1.6347709377532161e-04  1.1070505273501537e-04  6.2246672295049397e-05  3.0378717411210309e-05  1.8334652710658343e-05  1.2425470547828719e-05  7.6604110472434274e-06  4.8850427732808887e-06  3.3487231649991007e-06  2.2836421509836740e-06  1.5935736478132718e-06  1.1465423661873585e-06  8.3654553223543127e-07  6.2294602811741327e-07  4.7211273410279213e-07  3.6311817491594319e-07  2.8331012028916802e-07  2.2374109182648676e-07  1.7862342498708783e-07  1.4396153082631449e-07  1.1698406280998421e-07  9.5744725164531991e-08  7.8847539363432470e-08  6.5280449225356663e-08  5.4297699297590773e-08  4.5342719936980995e-08  3.7994917510854637e-08  3.1932448411395017e-08  2.6906310279400573e-08  2.2721817377332688e-08  1.9225363555705837e-08  1.6294614793827851e-08  1.3831428996731858e-08  1.1756429382669472e-08  1.0005149996065485e-08  8.5248003209169735e-09  7.2720592038974934e-09  6.2111366756780593e-09  5.3124614189307402e-09  4.5514526646103208e-09  3.9077147564542027e-09  3.3642566382753239e-09  2.9069728364087286e-09  2.5241374311368988e-09  2.2060677910269090e-09  1.9447967915538473e-09  1.7338710060355019e-09  1.5681218040106062e-09  1.4435265275345399e-09  1.3570416494678958e-09  1.3065183837253450e-09  1.2903708958885553e-09  9.9640863987884953e-01  9.7050504399537818e-01  9.7111514883011574e-01  9.6403221804437211e-01  9.5215853078317969e-01  9.3438846872752734e-01  9.1043185791778902e-01  8.8101429894635397e-01  8.4833955876887157e-01  8.1603037152977020e-01  7.8805555650144654e-01  7.6759309481694205e-01  7.5673534329771774e-01  7.5655716805381179e-01  7.6694476083567220e-01  7.8665008222185850e-01  8.1316776718380979e-01  8.4302025162180894e-01  8.7255093014693974e-01  8.9891863734541599e-01  9.2069580460805656e-01  9.3784186693173854e-01  9.5115933029198652e-01  9.6157043964655731e-01  9.6981939279342766e-01  9.7634690443558347e-01  9.8123969795863653e-01  9.8449273556483474e-01  9.8614599027967509e-01  9.8632227466521305e-01  9.8529317740838818e-01  9.8400807573471938e-01  9.8456228800584467e-01  9.8810927294046513e-01  9.9222721333989750e-01  9.9420876921542956e-01  9.9453127313048295e-01  9.9388285070862437e-01  9.9102369920976063e-01  9.8179032855422721e-01  9.4890488116397220e-01  8.2783270620578409e-01  4.9902086159439779e-01  1.7249867934933369e-01  5.0953269701657485e-02  1.8718317226294176e-02  5.5538787063633601e-03  1.7370634247302881e-03  1.1287136043376729e-03  6.6610971142084738e-04  2.3776462183929429e-04  8.1026845731372677e-05  6.4914504496717428e-05  4.5315529117740483e-05  2.1282383257032326e-05  1.2246663803391592e-05  8.5882794026626932e-06  5.2094821841472038e-06  3.3429881007441964e-06  2.3102643455846000e-06  1.5708470136420881e-06  1.1110011323142834e-06  8.0573991016731167e-07  5.9354993082581210e-07  4.4735159550159958e-07  3.4248177816748618e-07  2.6626076305698120e-07  2.0978273382664331e-07  1.6717966219838826e-07  1.3457624083633955e-07  1.0926601885309846e-07  8.9378910409003610e-08  7.3580167883683333e-08  6.0907971822798745e-08  5.0657065929601453e-08  4.2302945430493091e-08  3.5450383249876112e-08  2.9797603915557713e-08  2.5111569811598798e-08  2.1210345040276331e-08  1.7950519075803657e-08  1.5217989256946023e-08  1.2921292467710430e-08  1.0986526061601036e-08  9.3536885252126972e-09  7.9736970721774709e-09  6.8063023904522267e-09  5.8182897919983520e-09  4.9822491980494059e-09  4.2754362815948371e-09  3.6790113115722316e-09  3.1773296517239057e-09  2.7574430132953349e-09  2.4086493523551753e-09  2.1221798690125071e-09  1.8909068048459093e-09  1.7091345767213871e-09  1.5724100991070434e-09  1.4773899512121254e-09  1.4216745134763603e-09  1.4038067752210788e-09  5.0513965232500468e-01  5.3820828920916552e-01  5.1177324488748477e-01  4.7085043595625553e-01  4.1949280881660372e-01  3.6249433600430581e-01  3.0470282036418628e-01  2.5012070379503248e-01  2.0250289010222033e-01  1.6458776252516905e-01  1.3729410188430333e-01  1.1995546984212462e-01  1.1142351817194801e-01  1.1104886517813239e-01  1.1862530575593529e-01  1.3458511370887091e-01  1.5960465844938942e-01  1.9381023904941633e-01  2.3599369405884862e-01  2.8327880932901323e-01  3.3166813692143382e-01  3.7779911590227266e-01  4.2061540692001015e-01  4.6076255387709830e-01  5.0070595130136175e-01  5.4418642385586458e-01  5.9281705197243495e-01  6.4584264236465205e-01  7.0131163147728204e-01  7.5768951689600061e-01  8.1437924722488886e-01  8.7038613365277451e-01  9.2011986492585396e-01  9.5307683294610201e-01  9.6772159692348958e-01  9.7620830867946518e-01  9.8378502604891938e-01  9.8727528903956163e-01  9.8719170387204336e-01  9.8337282395138914e-01  9.7115934495732603e-01  9.3613570329378148e-01  8.3585673982950992e-01  5.8005591806490708e-01  2.5907652128257952e-01  7.7304996558179684e-02  2.7335989800529658e-02  1.3854580197335369e-02  4.8700039775549393e-03  9.3967430877477109e-04  5.1155367000127699e-04  5.5242791339323700e-04  2.6863717838766684e-04  6.9470880581897599e-05  4.6002038653516712e-05  3.6282828947036213e-05  1.6246184052160797e-05  9.2956463351487386e-06  6.4412897279815784e-06  3.7428077228907600e-06  2.4657276831516753e-06  1.6832770425434445e-06  1.1444532979024684e-06  8.2078936413959400e-07  5.9672166619981440e-07  4.4457720039689204e-07  3.3796878103928351e-07  2.6103267429465874e-07  2.0472228026474103e-07  1.6254745025377957e-07  1.3048037477622628e-07  1.0571172255091422e-07  8.6327422673026491e-08  7.0977508745786084e-08  5.8696490560340487e-08  4.8782163825581575e-08  4.0715351146139488e-08  3.4106879928502588e-08  2.8660915597459388e-08  2.4149870801162787e-08  2.0396630805286788e-08  1.7261957060286295e-08  1.4635351794990013e-08  1.2428430097496083e-08  1.0569928580889388e-08  9.0020817627376539e-09  7.6777294025082308e-09  6.5582774182714923e-09  5.6119421678428216e-09  4.8125391688622154e-09  4.1384082819443114e-09  3.5716538781018468e-09  3.0974811755781379e-09  2.7037128927989375e-09  2.3803573329273026e-09  2.1193320917417640e-09  1.9141572164664432e-09  1.7597959707571138e-09  1.6524478644731616e-09  1.5894844299278571e-09  1.5693514255176738e-09  2.5541445999624098e-02  2.3119042286291100e-03  -5.1421481926184525e-03  -1.0397899642589109e-02  -1.5655206960447799e-02  -1.8367392743465674e-02  -1.8406030297547293e-02  -1.6296741361630080e-02  -1.2867773074011905e-02  -9.0816077469621469e-03  -5.7284780559850269e-03  -3.2123542509515895e-03  -1.6002894267276759e-03  -8.3170777323229611e-04  -8.3994410800725073e-04  -1.5706398882903347e-03  -2.9792480899189584e-03  -4.9351886015893192e-03  -7.1243589887145494e-03  -9.0489999172437621e-03  -1.0176842604446004e-02  -1.0150329704511952e-02  -8.8254372666049779e-03  -6.1222197208778495e-03  -1.7463836916726027e-03  5.1378729449349566e-03  1.5837094209822385e-02  3.2007625377070227e-02  5.5491859409921129e-02  8.8985141576132756e-02  1.3741504499568324e-01  2.1076444884357515e-01  3.2545013697563768e-01  4.9603444443056244e-01  6.9987864967129476e-01  8.5944142296146719e-01  9.3355234746277638e-01  9.6294131910155056e-01  9.7716650764591162e-01  9.8170141055639160e-01  9.8103534993927854e-01  9.7430129250209196e-01  9.5564841736121897e-01  9.1258217114586204e-01  7.8819565853453000e-01  5.2929730294473920e-01  2.3973291865099403e-01  7.0209896161767801e-02  2.1291254066672056e-02  1.3199363208720232e-02  7.0189835380715399e-03  1.7934662191213615e-03  2.9854538544686908e-04  4.2056872893079741e-04  2.7304804495922359e-04  6.7954535962517281e-05  3.9445150125418708e-05  2.9433103241203934e-05  1.1920356916910626e-05  7.4723200135262676e-06  4.7757849565821396e-06  2.7295119957584692e-06  1.8697443648835526e-06  1.2387114274687467e-06  8.6266933847639935e-07  6.2149779702547637e-07  4.5580674153095820e-07  3.4359349435075935e-07  2.6333083188375883e-07  2.0533253422174646e-07  1.6230409503201758e-07  1.2982492619287537e-07  1.0489423765213900e-07  8.5476702955086806e-08  7.0161521427607417e-08  5.7947083511057004e-08  4.8111791855042217e-08  4.0125745538958024e-08  3.3594230540135159e-08  2.8218767319909724e-08  2.3770772659713899e-08  2.0073067480424533e-08  1.6986843194870962e-08  1.4402298599765400e-08  1.2231841181382920e-08  1.0405031101574591e-08  8.8649176126810962e-09  7.5651199984280181e-09  6.4677642919595825e-09  5.5417481418400321e-09  4.7615104604810891e-09  4.1059818854056543e-09  3.5578297129696794e-09  3.1027995305088144e-09  2.7292625429925536e-09  2.4277694491540618e-09  2.1908219696983818e-09  2.0125365065658556e-09  1.8885613036394420e-09  1.8158531070091609e-09  1.7926951968392628e-09  8.9419304866286762e-04  5.8774363106381972e-03  9.7968695813700855e-03  1.0096170284941535e-02  1.0383224957536403e-02  1.0375148748321126e-02  9.7494166446158766e-03  8.6453457142663306e-03  7.2442600178261153e-03  5.7797736418856932e-03  4.4751434283240368e-03  3.4706424731566665e-03  2.8057248588661877e-03  2.4643373400009593e-03  2.4243680616287538e-03  2.6734655414940149e-03  3.2106558810025927e-03  4.0306778380368195e-03  5.0893678212873385e-03  6.2811519095231222e-03  7.4530542096129700e-03  8.4606353520682524e-03  9.2254796731841490e-03  9.7416693260817030e-03  1.0035095857532234e-02  1.0100814378615106e-02  9.8722314056534106e-03  9.2469505516229403e-03  8.1820395098226185e-03  6.8137012922263656e-03  5.6341014424761901e-03  6.0034735491639509e-03  1.2110392791032844e-02  3.7689110426897522e-02  1.2452734713081720e-01  3.4143379803665130e-01  6.5415651224317695e-01  8.7004921464575757e-01  9.4675295091830736e-01  9.7486208156738441e-01  9.8407032640760539e-01  9.8649974393405571e-01  9.8501855328157828e-01  9.7805000320520030e-01  9.6335980569209312e-01  9.3224859137263372e-01  8.3241088065491264e-01  6.0703725363726402e-01  3.2077273839740628e-01  1.1347989519748196e-01  2.8591809317767898e-02  1.1992397143995765e-02  8.3993743270793213e-03  3.0450004475884316e-03  4.5461761106907781e-04  3.7071517173950671e-04  2.4089566646804184e-04  5.3733985910018144e-05  3.6666290709018589e-05  2.1496887684635435e-05  8.3829276562463631e-06  6.0065912160829522e-06  3.2883695598547261e-06  2.0641178417909120e-06  1.3868553053479768e-06  9.2422434398959439e-07  6.6008023704031806e-07  4.7685531988205338e-07  3.5584056427790889e-07  2.7067266187714692e-07  2.0973418188478064e-07  1.6502120551226605e-07  1.3150918801812908e-07  1.0595347824165779e-07  8.6147420795579705e-08  7.0589909687567890e-08  5.8222842922314622e-08  4.8291018739910773e-08  4.0243716628115080e-08  3.3673272647509751e-08  2.8273078398818418e-08  2.3809413861857835e-08  2.0101883710570142e-08  1.7009659902721220e-08  1.4421725288666590e-08  1.2249781471661504e-08  1.0423027297824547e-08  8.8843704274898018e-09  7.5874415880795040e-09  6.4944734573101769e-09  5.5745457616938071e-09  4.8023333269049727e-09  4.1570448864891047e-09  3.6216853244805851e-09  3.1823759259590728e-09  2.8279304476754809e-09  2.5494078907352239e-09  2.3398973729795710e-09  2.1942046755130935e-09  2.1088160290046168e-09  2.0816995987518174e-09  5.1883444620647360e-04  -4.3694865625331321e-05  -1.4799675250944020e-03  -2.0625833433383775e-03  -2.1426244363305482e-03  -2.2743450063196636e-03  -2.2575509456464853e-03  -2.0765013301848778e-03  -1.7806302755549144e-03  -1.4250479651989434e-03  -1.0742403855541823e-03  -7.7941722434533996e-04  -5.6487910205468915e-04  -4.3246269990760539e-04  -3.7606365562683564e-04  -3.9057328314536519e-04  -4.7386566401429647e-04  -6.2531326249309980e-04  -8.3878713782553637e-04  -1.0942182276286599e-03  -1.3559625377492562e-03  -1.5823902042223466e-03  -1.7418418133929663e-03  -1.8207664446495198e-03  -1.8172306805879323e-03  -1.7238998560538306e-03  -1.5122717047961079e-03  -1.1282065721309133e-03  -5.0026234383955504e-04  4.5218668604594156e-04  1.8373860707234292e-03  3.8594629765616876e-03  6.9500880167978722e-03  1.2093799447850119e-02  2.1802385063094509e-02  5.0114391772553217e-02  1.8794826680485724e-01  5.4696930188838411e-01  8.6021701094713521e-01  9.5638936716937684e-01  9.8306080661497475e-01  9.9051261403683111e-01  9.9260477698005023e-01  9.9239583668505960e-01  9.9014939131234814e-01  9.8318739803666677e-01  9.7067431408817684e-01  9.5015214732950581e-01  8.8633055207580169e-01  7.2259691071526666e-01  4.6663182453124497e-01  2.1351811446769617e-01  6.1544481854127815e-02  1.5445310728488419e-02  8.7440957870922736e-03  3.4149218783313161e-03  5.1810002376058450e-04  3.6844284327874395e-04  1.7178134601915436e-04  3.6118184726928058e-05  3.2692632102867984e-05  1.2314040567940081e-05  6.6623841674279064e-06  4.2228059824509793e-06  2.2809960691792092e-06  1.5615927617496018e-06  1.0066767833279102e-06  7.0672074128715434e-07  5.0524378826692345e-07  3.7266946688671124e-07  2.8156764266248800e-07  2.1681943085453414e-07  1.6984458948071906e-07  1.3487025097972558e-07  1.0836542370124457e-07  8.7920855743389030e-08  7.1924362067138193e-08  5.9247987287563611e-08  4.9093246309443986e-08  4.0881804712611755e-08  3.4188009026917960e-08  2.8693393520772910e-08  2.4156259090062063e-08  2.0390815036990188e-08  1.7252541685996531e-08  1.4627889151719868e-08  1.2426815197726631e-08  1.0577335089143776e-08  9.0215543792928766e-09  7.7125881425343405e-09  6.6123642619131828e-09  5.6898123937621489e-09  4.9196040641068704e-09  4.2810525130420010e-09  3.7573862356829884e-09  3.3350575117683708e-09  3.0033324257404616e-09  2.7538405095432194e-09  2.5804211847228902e-09  2.4787999809193898e-09  2.4466089991962937e-09  2.7788294240709881e-06  5.4511391980885466e-06  3.0691623272242896e-04  5.9913932605447958e-04  6.5822111904127473e-04  6.7369046886406325e-04  6.8744100956427169e-04  6.5315373317689231e-04  5.8185584827549341e-04  4.8805336907545879e-04  3.8802675334953898e-04  2.9799449925550580e-04  2.2819192509266831e-04  1.8173064603330049e-04  1.5761339353563395e-04  1.5419320761868394e-04  1.7054481357311820e-04  2.0650182076108916e-04  2.6149609125698602e-04  3.32252911