<?xml version="1.0"?>
<VTKFile type="UnstructuredGrid"  version="0.1"  >
<UnstructuredGrid>
<Piece  NumberOfPoints="611" NumberOfCells="1123">
<Points>
<DataArray  type="Float64"  NumberOfComponents="3"  format="ascii">1.883478260869565 0.01666666666666667 0  1.9 0.01666666666666667 0  1.9 0.03333333333333333 0  1.883478260869565 0.03333333333333333 0  1.916521739130435 0.03333333333333333 0  1.9 0.05 0  1.883478260869565 0.05 0  1.916521739130435 0.05 0  1.933043478260869 0.05 0  1.9 0.06666666666666667 0  1.883478260869565 0.06666666666666667 0  1.916521739130435 0.06666666666666667 0  1.933043478260869 0.06666666666666667 0  1.949565217391304 0.06666666666666667 0  1.9 0.08333333333333333 0  1.883478260869565 0.08333333333333333 0  1.916521739130435 0.08333333333333333 0  1.933043478260869 0.08333333333333333 0  1.949565217391304 0.08333333333333333 0  1.966086956521739 0.08333333333333333 0  1.9 0.1 0  1.883478260869565 0.1 0  1.916521739130435 0.1 0  1.933043478260869 0.1 0  1.949565217391304 0.1 0  1.966086956521739 0.1 0  1.982608695652174 0.1 0  1.9 0.1166666666666667 0  1.883478260869565 0.1166666666666667 0  1.916521739130435 0.1166666666666667 0  1.933043478260869 0.1166666666666667 0  1.949565217391304 0.1166666666666667 0  1.966086956521739 0.1166666666666667 0  1.982608695652174 0.1166666666666667 0  1.999130434782608 0.1166666666666667 0  1.9 0.1333333333333333 0  1.883478260869565 0.1333333333333333 0  1.916521739130435 0.1333333333333333 0  1.933043478260869 0.1333333333333333 0  1.949565217391304 0.1333333333333333 0  1.966086956521739 0.1333333333333333 0  1.982608695652174 0.1333333333333333 0  1.999130434782608 0.1333333333333333 0  2.015652173913043 0.1166666666666667 0  2.015652173913043 0.1333333333333333 0  2.032173913043478 0.1166666666666667 0  2.032173913043478 0.1333333333333333 0  2.048695652173913 0.1166666666666667 0  2.048695652173913 0.1333333333333333 0  2.065217391304348 0.1166666666666667 0  2.065217391304348 0.1333333333333333 0  2.081739130434782 0.1166666666666667 0  2.081739130434782 0.1333333333333333 0  2.098260869565217 0.1333333333333333 0  1.9 0.15 0  1.883478260869565 0.15 0  1.916521739130435 0.15 0  1.933043478260869 0.15 0  1.949565217391304 0.15 0  1.966086956521739 0.15 0  1.982608695652174 0.15 0  1.999130434782608 0.15 0  2.015652173913043 0.15 0  2.032173913043478 0.15 0  2.048695652173913 0.15 0  2.065217391304348 0.15 0  2.081739130434782 0.15 0  2.098260869565217 0.15 0  2.114782608695652 0.15 0  1.9 0.1666666666666667 0  1.883478260869565 0.1666666666666667 0  1.916521739130435 0.1666666666666667 0  1.933043478260869 0.1666666666666667 0  1.949565217391304 0.1666666666666667 0  1.966086956521739 0.1666666666666667 0  1.982608695652174 0.1666666666666667 0  1.999130434782608 0.1666666666666667 0  2.015652173913043 0.1666666666666667 0  2.032173913043478 0.1666666666666667 0  2.048695652173913 0.1666666666666667 0  2.065217391304348 0.1666666666666667 0  2.081739130434782 0.1666666666666667 0  2.098260869565217 0.1666666666666667 0  2.114782608695652 0.1666666666666667 0  2.131304347826087 0.1666666666666667 0  1.9 0.1833333333333333 0  1.883478260869565 0.1833333333333333 0  1.916521739130435 0.1833333333333333 0  1.933043478260869 0.1833333333333333 0  1.949565217391304 0.1833333333333333 0  1.966086956521739 0.1833333333333333 0  1.982608695652174 0.1833333333333333 0  1.999130434782608 0.1833333333333333 0  2.015652173913043 0.1833333333333333 0  2.032173913043478 0.1833333333333333 0  2.048695652173913 0.1833333333333333 0  2.065217391304348 0.1833333333333333 0  2.081739130434782 0.1833333333333333 0  2.098260869565217 0.1833333333333333 0  2.114782608695652 0.1833333333333333 0  2.131304347826087 0.1833333333333333 0  2.147826086956522 0.1833333333333333 0  1.9 0.2 0  1.883478260869565 0.2 0  1.916521739130435 0.2 0  1.933043478260869 0.2 0  1.949565217391304 0.2 0  1.966086956521739 0.2 0  1.982608695652174 0.2 0  1.999130434782608 0.2 0  2.015652173913043 0.2 0  2.032173913043478 0.2 0  2.048695652173913 0.2 0  2.065217391304348 0.2 0  2.081739130434782 0.2 0  2.098260869565217 0.2 0  2.114782608695652 0.2 0  2.131304347826087 0.2 0  2.147826086956522 0.2 0  2.164347826086956 0.2 0  1.9 0.2166666666666667 0  1.883478260869565 0.2166666666666667 0  1.916521739130435 0.2166666666666667 0  1.933043478260869 0.2166666666666667 0  1.949565217391304 0.2166666666666667 0  1.966086956521739 0.2166666666666667 0  1.982608695652174 0.2166666666666667 0  1.999130434782608 0.2166666666666667 0  2.015652173913043 0.2166666666666667 0  2.032173913043478 0.2166666666666667 0  2.048695652173913 0.2166666666666667 0  2.065217391304348 0.2166666666666667 0  2.081739130434782 0.2166666666666667 0  2.098260869565217 0.2166666666666667 0  2.114782608695652 0.2166666666666667 0  2.131304347826087 0.2166666666666667 0  2.147826086956522 0.2166666666666667 0  2.164347826086956 0.2166666666666667 0  2.180869565217391 0.2166666666666667 0  1.9 0.2333333333333333 0  1.883478260869565 0.2333333333333333 0  1.916521739130435 0.2333333333333333 0  1.933043478260869 0.2333333333333333 0  1.949565217391304 0.2333333333333333 0  1.966086956521739 0.2333333333333333 0  1.982608695652174 0.2333333333333333 0  1.999130434782608 0.2333333333333333 0  2.015652173913043 0.2333333333333333 0  2.032173913043478 0.2333333333333333 0  2.048695652173913 0.2333333333333333 0  2.065217391304348 0.2333333333333333 0  2.081739130434782 0.2333333333333333 0  2.098260869565217 0.2333333333333333 0  2.114782608695652 0.2333333333333333 0  2.131304347826087 0.2333333333333333 0  2.147826086956522 0.2333333333333333 0  2.164347826086956 0.2333333333333333 0  2.180869565217391 0.2333333333333333 0  2.197391304347826 0.2333333333333333 0  1.9 0.25 0  1.916521739130435 0.25 0  1.933043478260869 0.25 0  1.949565217391304 0.25 0  1.966086956521739 0.25 0  1.982608695652174 0.25 0  1.999130434782608 0.25 0  2.015652173913043 0.25 0  2.032173913043478 0.25 0  2.048695652173913 0.25 0  2.065217391304348 0.25 0  2.081739130434782 0.25 0  2.098260869565217 0.25 0  2.114782608695652 0.25 0  2.131304347826087 0.25 0  2.147826086956522 0.25 0  2.164347826086956 0.25 0  2.180869565217391 0.25 0  2.197391304347826 0.25 0  2.213913043478261 0.25 0  1.916521739130435 0.2666666666666667 0  1.9 0.2666666666666667 0  1.933043478260869 0.2666666666666667 0  1.949565217391304 0.2666666666666667 0  1.966086956521739 0.2666666666666667 0  1.982608695652174 0.2666666666666667 0  1.999130434782608 0.2666666666666667 0  2.015652173913043 0.2666666666666667 0  2.032173913043478 0.2666666666666667 0  2.048695652173913 0.2666666666666667 0  2.065217391304348 0.2666666666666667 0  2.081739130434782 0.2666666666666667 0  2.098260869565217 0.2666666666666667 0  2.114782608695652 0.2666666666666667 0  2.131304347826087 0.2666666666666667 0  2.147826086956522 0.2666666666666667 0  2.164347826086956 0.2666666666666667 0  2.180869565217391 0.2666666666666667 0  2.197391304347826 0.2666666666666667 0  2.213913043478261 0.2666666666666667 0  2.230434782608695 0.25 0  2.230434782608695 0.2666666666666667 0  2.24695652173913 0.2666666666666667 0  1.916521739130435 0.2833333333333333 0  1.9 0.2833333333333333 0  1.933043478260869 0.2833333333333333 0  1.949565217391304 0.2833333333333333 0  1.966086956521739 0.2833333333333333 0  1.982608695652174 0.2833333333333333 0  1.999130434782608 0.2833333333333333 0  2.015652173913043 0.2833333333333333 0  2.032173913043478 0.2833333333333333 0  2.048695652173913 0.2833333333333333 0  2.065217391304348 0.2833333333333333 0  2.081739130434782 0.2833333333333333 0  2.098260869565217 0.2833333333333333 0  2.114782608695652 0.2833333333333333 0  2.131304347826087 0.2833333333333333 0  2.147826086956522 0.2833333333333333 0  2.164347826086956 0.2833333333333333 0  2.180869565217391 0.2833333333333333 0  2.197391304347826 0.2833333333333333 0  2.213913043478261 0.2833333333333333 0  2.230434782608695 0.2833333333333333 0  2.24695652173913 0.2833333333333333 0  2.263478260869565 0.2833333333333333 0  1.916521739130435 0.3 0  1.9 0.3 0  1.933043478260869 0.3 0  1.949565217391304 0.3 0  1.966086956521739 0.3 0  1.982608695652174 0.3 0  1.999130434782608 0.3 0  2.015652173913043 0.3 0  2.032173913043478 0.3 0  2.048695652173913 0.3 0  2.065217391304348 0.3 0  2.081739130434782 0.3 0  2.098260869565217 0.3 0  2.114782608695652 0.3 0  2.131304347826087 0.3 0  2.147826086956522 0.3 0  2.164347826086956 0.3 0  2.180869565217391 0.3 0  2.197391304347826 0.3 0  2.213913043478261 0.3 0  2.230434782608695 0.3 0  2.24695652173913 0.3 0  2.263478260869565 0.3 0  2.28 0.3 0  1.916521739130435 0.3166666666666667 0  1.9 0.3166666666666667 0  1.933043478260869 0.3166666666666667 0  1.949565217391304 0.3166666666666667 0  1.966086956521739 0.3166666666666667 0  1.982608695652174 0.3166666666666667 0  1.999130434782608 0.3166666666666667 0  2.015652173913043 0.3166666666666667 0  2.032173913043478 0.3166666666666667 0  2.048695652173913 0.3166666666666667 0  2.065217391304348 0.3166666666666667 0  2.081739130434782 0.3166666666666667 0  2.098260869565217 0.3166666666666667 0  2.114782608695652 0.3166666666666667 0  2.131304347826087 0.3166666666666667 0  2.147826086956522 0.3166666666666667 0  2.164347826086956 0.3166666666666667 0  2.180869565217391 0.3166666666666667 0  2.197391304347826 0.3166666666666667 0  2.213913043478261 0.3166666666666667 0  2.230434782608695 0.3166666666666667 0  2.24695652173913 0.3166666666666667 0  2.263478260869565 0.3166666666666667 0  2.28 0.3166666666666667 0  2.296521739130434 0.3166666666666667 0  1.916521739130435 0.3333333333333333 0  1.9 0.3333333333333333 0  1.933043478260869 0.3333333333333333 0  1.949565217391304 0.3333333333333333 0  1.966086956521739 0.3333333333333333 0  1.982608695652174 0.3333333333333333 0  1.999130434782608 0.3333333333333333 0  2.015652173913043 0.3333333333333333 0  2.032173913043478 0.3333333333333333 0  2.048695652173913 0.3333333333333333 0  2.06521739
[...]
<PointData  Vectors="Displacement"> 
<DataArray  type="Float64"  Name="Displacement"  NumberOfComponents="3" format="ascii">3.0315128540228762e-04 3.0643470476528398e-03 0.0000000000000000e+00  3.0423422025712587e-04 3.0989318674454988e-03 0.0000000000000000e+00  2.7142769890026993e-04 3.0986574580378458e-03 0.0000000000000000e+00  2.6839482995681256e-04 3.0636516829951306e-03 0.0000000000000000e+00  2.7345580549080603e-04 3.1311303187663269e-03 0.0000000000000000e+00  2.3971934422733926e-04 3.0977262709476457e-03 0.0000000000000000e+00  2.3128226702542716e-04 3.0626938793076532e-03 0.0000000000000000e+00  2.4360371513661397e-04 3.1308084511579301e-03 0.0000000000000000e+00  2.4544011493051740e-04 3.1620977664179933e-03 0.0000000000000000e+00  2.1333364209208714e-04 3.0925833462303164e-03 0.0000000000000000e+00  2.0945037762588265e-04 3.0575610969973879e-03 0.0000000000000000e+00  2.1629762754983258e-04 3.1276411159366791e-03 0.0000000000000000e+00  2.1754259710136099e-04 3.1622904670538772e-03 0.0000000000000000e+00  2.1884410045674670e-04 3.1926761083358795e-03 0.0000000000000000e+00  1.8906280470585822e-04 3.0891285149124608e-03 0.0000000000000000e+00  1.8580675928333245e-04 3.0530474483877502e-03 0.0000000000000000e+00  1.9151167638691184e-04 3.1248731905189789e-03 0.0000000000000000e+00  1.9290134335315782e-04 3.1602452696120335e-03 0.0000000000000000e+00  1.9256963450629277e-04 3.1937723706016927e-03 0.0000000000000000e+00  1.9323597048995643e-04 3.2232161464758333e-03 0.0000000000000000e+00  1.6574002639452168e-04 3.0858922227540316e-03 0.0000000000000000e+00  1.6267848433153679e-04 3.0494233836282441e-03 0.0000000000000000e+00  1.6850646495642036e-04 3.1220800845578062e-03 0.0000000000000000e+00  1.7086500908294658e-04 3.1582002518744240e-03 0.0000000000000000e+00  1.7226322287921004e-04 3.1936254243454115e-03 0.0000000000000000e+00  1.7106191100950527e-04 3.2262098735179332e-03 0.0000000000000000e+00  1.7064505576460515e-04 3.2501433636500563e-03 0.0000000000000000e+00  1.4286180150484916e-04 3.0827624552291297e-03 0.0000000000000000e+00  1.3999970578396965e-04 3.0464173871467127e-03 0.0000000000000000e+00  1.4579072763525757e-04 3.1190138579219825e-03 0.0000000000000000e+00  1.4871477944407261e-04 3.1556392356752593e-03 0.0000000000000000e+00  1.5138885924130495e-04 3.1933436205147732e-03 0.0000000000000000e+00  1.5174687268080142e-04 3.2324839470101244e-03 0.0000000000000000e+00  1.5100267767642403e-04 3.2517219415804832e-03 0.0000000000000000e+00  1.5110876918021475e-04 3.2716141804109630e-03 0.0000000000000000e+00  1.2020012116339305e-04 3.0797515119598820e-03 0.0000000000000000e+00  1.1760783559734067e-04 3.0438700984302524e-03 0.0000000000000000e+00  1.2306943242998506e-04 3.1157076533317148e-03 0.0000000000000000e+00  1.2616636684346509e-04 3.1522898293827391e-03 0.0000000000000000e+00  1.2952876267870118e-04 3.1906450823312392e-03 0.0000000000000000e+00  1.3435665196309953e-04 3.2355174198451381e-03 0.0000000000000000e+00  1.3399570992913195e-04 3.2533666873179757e-03 0.0000000000000000e+00  1.3382330983276907e-04 3.2715820919184055e-03 0.0000000000000000e+00  1.5135125519524683e-04 3.2897368037165214e-03 0.0000000000000000e+00  1.3406713005854274e-04 3.2892057306703158e-03 0.0000000000000000e+00  1.5126948196151843e-04 3.3059925669802382e-03 0.0000000000000000e+00  1.3420602676405931e-04 3.3057081325161206e-03 0.0000000000000000e+00  1.5331139921196123e-04 3.3360322013651945e-03 0.0000000000000000e+00  1.3360875687149285e-04 3.3285546090724948e-03 0.0000000000000000e+00  1.5452384261911998e-04 3.3632539515779706e-03 0.0000000000000000e+00  1.3473088632899303e-04 3.3541006390464386e-03 0.0000000000000000e+00  1.5610106173454395e-04 3.3908962133554375e-03 0.0000000000000000e+00  1.3659126881977008e-04 3.3797734362270731e-03 0.0000000000000000e+00  1.3875236021996558e-04 3.4083908845918246e-03 0.0000000000000000e+00  9.7809864512657315e-05 3.0768257672634603e-03 0.0000000000000000e+00  9.5469798519074041e-05 3.0416673899005256e-03 0.0000000000000000e+00  1.0061902762494761e-04 3.1121340082469573e-03 0.0000000000000000e+00  1.0393664049361105e-04 3.1480503057401341e-03 0.0000000000000000e+00  1.0797784118587349e-04 3.1853250864726417e-03 0.0000000000000000e+00  1.1330925798020412e-04 3.2247916035081986e-03 0.0000000000000000e+00  1.1737919922486138e-04 3.2542429225922401e-03 0.0000000000000000e+00  1.1738700474122763e-04 3.2718551204234418e-03 0.0000000000000000e+00  1.1760109116759303e-04 3.2890447222521692e-03 0.0000000000000000e+00  1.1782746683413656e-04 3.3055831755043020e-03 0.0000000000000000e+00  1.1792640214479134e-04 3.3215619700236211e-03 0.0000000000000000e+00  1.1750388170930790e-04 3.3450661989971866e-03 0.0000000000000000e+00  1.1897133502062941e-04 3.3676121659868882e-03 0.0000000000000000e+00  1.2095257567289614e-04 3.3953992465610016e-03 0.0000000000000000e+00  1.2299349758684643e-04 3.4255357981712847e-03 0.0000000000000000e+00  7.5651707726142892e-05 3.0739640091803225e-03 0.0000000000000000e+00  7.3544397084037932e-05 3.0397278443826930e-03 0.0000000000000000e+00  7.8370007976167507e-05 3.1083402807869621e-03 0.0000000000000000e+00  8.1785912914865126e-05 3.1431607576892706e-03 0.0000000000000000e+00  8.6163692604107999e-05 3.1788272228542871e-03 0.0000000000000000e+00  9.2100374139242308e-05 3.2157227248747608e-03 0.0000000000000000e+00  1.0090584638983583e-04 3.2545683379016041e-03 0.0000000000000000e+00  1.0121962534327871e-04 3.2721633287177716e-03 0.0000000000000000e+00  1.0156723803292024e-04 3.2890704464360950e-03 0.0000000000000000e+00  1.0192842843039972e-04 3.3055740034360474e-03 0.0000000000000000e+00  1.0219529966236544e-04 3.3216066614692296e-03 0.0000000000000000e+00  1.0240122619985752e-04 3.3372308238695386e-03 0.0000000000000000e+00  1.0281782331789392e-04 3.3539599460850763e-03 0.0000000000000000e+00  1.0431021965546233e-04 3.3818504767045097e-03 0.0000000000000000e+00  1.0580410587114064e-04 3.4114803383631142e-03 0.0000000000000000e+00  1.0769420658310218e-04 3.4422809042221731e-03 0.0000000000000000e+00  5.3662176720340905e-05 3.0711870399021055e-03 0.0000000000000000e+00  5.1786196098566220e-05 3.0380047054140570e-03 0.0000000000000000e+00  5.6218047331276827e-05 3.1044634260644533e-03 0.0000000000000000e+00  5.9521176944512660e-05 3.1380024706676737e-03 0.0000000000000000e+00  6.3742048094457860e-05 3.1719603908639494e-03 0.0000000000000000e+00  6.9193040742045886e-05 3.2063413965731321e-03 0.0000000000000000e+00  7.6342766862548623e-05 3.2407507385929205e-03 0.0000000000000000e+00  8.5518956851114161e-05 3.2724483883646164e-03 0.0000000000000000e+00  8.5794722786883512e-05 3.2891218207694688e-03 0.0000000000000000e+00  8.6352371881490855e-05 3.3056074410990162e-03 0.0000000000000000e+00  8.6835994581226301e-05 3.3216385700409450e-03 0.0000000000000000e+00  8.7204768538574524e-05 3.3372615750274798e-03 0.0000000000000000e+00  8.7486383018727692e-05 3.3526473527734279e-03 0.0000000000000000e+00  8.7732321673944256e-05 3.3679344283750845e-03 0.0000000000000000e+00  8.9042263202430993e-05 3.3973919418825494e-03 0.0000000000000000e+00  9.0387742867218952e-05 3.4270701043885620e-03 0.0000000000000000e+00  9.3272472684104800e-05 3.4565031951064831e-03 0.0000000000000000e+00  3.1849287000722544e-05 3.0685138276046729e-03 0.0000000000000000e+00  3.0183766294876822e-05 3.0364650181556735e-03 0.0000000000000000e+00  3.4231560001969192e-05 3.1006049036147688e-03 0.0000000000000000e+00  3.7375509369717602e-05 3.1328114564123963e-03 0.0000000000000000e+00  4.1381000714354366e-05 3.1651475518786917e-03 0.0000000000000000e+00  4.6397923179083746e-05 3.1974445144260259e-03 0.0000000000000000e+00  5.2560226871935699e-05 3.2291024879192286e-03 0.0000000000000000e+00  5.9680586264637786e-05 3.2583087489503545e-03 0.0000000000000000e+00  6.6209489501721562e-05 3.2818016714465425e-03 0.0000000000000000e+00  7.1232939747666889e-05 3.3056353696688367e-03 0.0000000000000000e+00  7.1894956799166331e-05 3.3217214843580972e-03 0.0000000000000000e+00  7.2309711049417495e-05 3.3372767148081954e-03 0.0000000000000000e+00  7.2704302636220487e-05 3.3526938936478848e-03 0.0000000000000000e+00  7.3067253358214532e-05 3.3680721622595931e-03 0.0000000000000000e+00  7.3582967435830164e-05 3.3837190430328536e-03 0.0000000000000000e+00  7.3649383003218319e-05 3.4121608056876408e-03 0.0000000000000000e+00  7.6428928851938541e-05 3.4374789697568810e-03 0.0000000000000000e+00  7.9806337647856182e-05 3.4715276848362132e-03 0.0000000000000000e+00  1.0224170547495623e-05 3.0659467769645898e-03 0.0000000000000000e+00  8.7351460019015818e-06 3.0350792659920921e-03 0.0000000000000000e+00  1.2457438758390003e-05 3.0968092828294056e-03 0.0000000000000000e+00  1.5470087219037049e-05 3.1276781931620927e-03 0.0000000000000000e+00  1.9330920343127199e-05 3.1584930007817636e-03 0.0000000000000000e+00  2.4131081415569053e-05 3.1890326259223683e-03 0.0000000000000000e+00  2.9930952303935500e-05 3.2187720502937461e-03 0.0000000000000000e+00  3.6601664843448535e-05 3.2466712013507846e-03 0.0000000000000000e+00  4.3533535852969098e-05 3.2716939104598260e-03 0.0000000000000000e+00  5.0083692899880113e-05 3.2963318865630357e-03 0.0000000000000000e+00  5.7275882616855887e-05 3.3218966165866762e-03 0.0000000000000000e+00  5.7593351950590398e-05 3.3373409875544972e-03 0.0000000000000000e+00  5.7935067651671645e-05 3.3527082481944939e-03 0.0000000000000000e+00  5.8320910115382245e-05 3.3681389132143398e-03 0.0000000000000000e+00  5.8768991751292571e-05 3.3837644024101803e-03 0.0000000000000000e+00  5.9266918691969312e-05 3.3996396234666831e-03 0.0000000000000000e+00  5.9528567032676492e-05 3.4155338387376229e-03 0.0000000000000000e+00  6.2846096142543878e-05 3.4519403711525381e-03 0.0000000000000000e+00  6.5646207681220706e-05 3.4886330013751939e-03 0.0000000000000000e+00  -1.1233096261072087e-05 3.0634859613356573e-03 0.0000000000000000e+00  -1.2570974748747174e-05 3.0338251001657828e-03 0.0000000000000000e+00  -9.1349704143792864e-06 3.0931041632825287e-03 0.0000000000000000e+00  -6.2496437440778327e-06 3.1226555952577370e-03 0.0000000000000000e+00  -2.5324560096900056e-06 3.1520492769179262e-03 0.0000000000000000e+00  2.0634935929268707e-06 3.1810738902466884e-03 0.0000000000000000e+00  7.5424006292503394e-06 3.2093386254531454e-03 0.0000000000000000e+00  1.3771596220771668e-05 3.2362738548169555e-03 0.0000000000000000e+00  2.0379111214750614e-05 3.2615628014120907e-03 0.0000000000000000e+00  2.6986935576179417e-05 3.2863069497156140e-03 0.0000000000000000e+00  3.3861423940798245e-05 3.3110646298016447e-03 0.0000000000000000e+00  4.1511836075598182e-05 3.3358368401188673e-03 0.0000000000000000e+00  4.3025849918961106e-05 3.3527387754750029e-03 0.0000000000000000e+00  4.3337437674956412e-05 3.3681712670268773e-03 0.0000000000000000e+00  4.3667168179782974e-05 3.3837923652451350e-03 0.0000000000000000e+00  4.4056291897557530e-05 3.3996614969182930e-03 0.0000000000000000e+00  4.4469168728414755e-05 3.4157629822542707e-03 0.0000000000000000e+00  4.4908038841410229e-05 3.4323046243471948e-03 0.0000000000000000e+00  4.7621649532237983e-05 3.4691858318011493e-03 0.0000000000000000e+00  5.0289030123205097e-05 3.5063733204446466e-03 0.0000000000000000e+00  -3.2551259090853868e-05 3.0611370359440492e-03 0.0000000000000000e+00  -3.0592216000636480e-05 3.0895164416410489e-03 0.0000000000000000e+00  -2.7853891036908884e-05 3.1177888928482821e-03 0.0000000000000000e+00  -2.4313832525252481e-05 3.1458609289214201e-03 0.0000000000000000e+00  -1.9960501513939706e-05 3.1735586941282830e-03 0.0000000000000000e+00  -1.4827429760881669e-05 3.2006160975476005e-03 0.0000000000000000e+00  -9.0454624499221509e-06 3.2267310171946394e-03 0.0000000000000000e+00  -2.8708242251329988e-06 3.2518231082527319e-03 0.0000000000000000e+00  3.4481113340531516e-06 3.2763954726347916e-03 0.0000000000000000e+00  9.9129141239361307e-06 3.3006794662239890e-03 0.0000000000000000e+00  1.6534115989685285e-05 3.3244380386560656e-03 0.0000000000000000e+00  2.2707742978591148e-05 3.3457683735441724e-03 0.0000000000000000e+00  2.8239847835839775e-05 3.3682659304369905e-03 0.0000000000000000e+00  2.8427332926402352e-05 3.3838248751294378e-03 0.0000000000000000e+00  2.8669160510759800e-05 3.3996560426149043e-03 0.0000000000000000e+00  2.9039008753746589e-05 3.4158678935179072e-03 0.0000000000000000e+00  2.9511928698816582e-05 3.4325416369312555e-03 0.0000000000000000e+00  3.0094631542573293e-05 3.4500149086842073e-03 0.0000000000000000e+00  3.1713630126881927e-05 3.4866571555241285e-03 0.0000000000000000e+00  3.5603684274801783e-05 3.5199893879691588e-03 0.0000000000000000e+00  -5.1943167108999877e-05 3.0860704665786301e-03 0.0000000000000000e+00  -5.3748139670246879e-05 3.0589099925085830e-03 0.0000000000000000e+00  -4.9379653975123759e-05 3.1131112879031740e-03 0.0000000000000000e+00  -4.6052669334149458e-05 3.1399515380411041e-03 0.0000000000000000e+00  -4.1973489794480106e-05 3.1664610740961665e-03 0.0000000000000000e+00  -3.7191910806972537e-05 3.1924686766260494e-03 0.0000000000000000e+00  -3.1820813206659723e-05 3.2178169007772797e-03 0.0000000000000000e+00  -2.6033836344154955e-05 3.2424963209514309e-03 0.0000000000000000e+00  -1.9984820012402978e-05 3.2667409417680882e-03 0.0000000000000000e+00  -1.3704091662995327e-05 3.2906484112569488e-03 0.0000000000000000e+00  -7.1949164537998920e-06 3.3140750787213182e-03 0.0000000000000000e+00  -6.1234693376646841e-07 3.3365298126778299e-03 0.0000000000000000e+00  5.8359311507561277e-06 3.3595434904306509e-03 0.0000000000000000e+00  1.2833877946039852e-05 3.3838834502773127e-03 0.0000000000000000e+00  1.2918677898894943e-05 3.3996414942553932e-03 0.0000000000000000e+00  1.3076024518760997e-05 3.4158657696594721e-03 0.0000000000000000e+00  1.3441662292195360e-05 3.4326485988192099e-03 0.0000000000000000e+00  1.4024396144401750e-05 3.4502850656085017e-03 0.0000000000000000e+00  1.4846980613945678e-05 3.4691037298479441e-03 0.0000000000000000e+00  1.6701985633507315e-05 3.4943842672362610e-03 0.0000000000000000e+00  4.0449987011983556e-05 3.5608687136145542e-03 0.0000000000000000e+00  2.0991904106523330e-05 3.5360743809915527e-03 0.0000000000000000e+00  2.5399352673690949e-05 3.5822327512794617e-03 0.0000000000000000e+00  -7.3193194313781701e-05 3.0827853218950742e-03 0.0000000000000000e+00  -7.4823656699864963e-05 3.0568160820229093e-03 0.0000000000000000e+00  -7.0833495080858583e-05 3.1086429396607620e-03 0.0000000000000000e+00  -6.7751717659330680e-05 3.1343266905745036e-03 0.0000000000000000e+00  -6.3971668971253258e-05 3.1597461889977894e-03 0.0000000000000000e+00  -5.9546868114660604e-05 3.1847962199074349e-03 0.0000000000000000e+00  -5.4570156472394687e-05 3.2093961922022114e-03 0.0000000000000000e+00  -4.9163596100664906e-05 3.2335545963701269e-03 0.0000000000000000e+00  -4.3433020252928453e-05 3.2573836753280274e-03 0.0000000000000000e+00  -3.7425960862739406e-05 3.2809311470931080e-03 0.0000000000000000e+00  -3.1179570239155307e-05 3.3041459867540562e-03 0.0000000000000000e+00  -2.4790662354367261e-05 3.3269652584387590e-03 0.0000000000000000e+00  -1.8347507355245749e-05 3.3501191233715980e-03 0.0000000000000000e+00  -1.1521007682412244e-05 3.3740526333941897e-03 0.0000000000000000e+00  -3.5140028019693022e-06 3.3996254748650968e-03 0.0000000000000000e+00  -3.5268720917991347e-06 3.4158615365085430e-03 0.0000000000000000e+00  -3.5032646082829102e-06 3.4326279052623180e-03 0.0000000000000000e+00  -3.3002579213770132e-06 3.4503702127624139e-03 0.0000000000000000e+00  -2.8538913749917051e-06 3.4691692752901585e-03 0.0000000000000000e+00  -2.1886845907119190e-06 3.4889264281294180e-03 0.0000000000000000e+00  -1.5177851853034223e-06 3.5097250846610169e-03 0.0000000000000000e+00  3.5406219094684573e-06 3.5577639077938004e-03 0.0000000000000000e+00  8.2080347544078952e-06 3.6069867519930646e-03 0.0000000000000000e+00  -9.4326342988750714e-05 3.0796747509348505e-03 0.0000000000000000e+00  -9.5759148588510070e-05 3.0548659495979046e-03 0.0000000000000000e+00  -9.2199153950456579e-05 3.1043944374953116e-03 0.0000000000000000e+00  -8.9392293611497529e-05 3.1289826058679983e-03 0.0000000000000000e+00  -8.5935519595843520e-05 3.1533817182057191e-03 0.0000000000000000e+00  -8.1880790571477622e-05 3.1775313868863640e-03 0.0000000000000000e+00  -7.7305156338163165e-05 3.2013934796496150e-03 0.0000000000000000e+00  -7.2301618614114440e-05 3.2249816917991132e-03 0.0000000000000000e+00  -6.6955502006446353e-05 3.2483570085280055e-03 0.0000000000000000e+00  -6.1329427458736439e-05 3.2715553878206881e-03 0.0000000000000000e+00  -5.5489446243611219e-05 3.2945854898564064e-03 0.0000000000000000e+00  -4.9534632595425862e-05 3.3175090243650310e-03 0.0000000000000000e+00  -4.3560824152136052e-05 3.3406987233638276e-03 0.0000000000000000e+00  -3.7533426123456848e-05 3.3643576155324784e-03 0.0000000000000000e+00  -3.1425986238406742e-05 3.3884108452052644e-03 0.0000000000000000e+00  -2.5921021858355845e-05 3.4099611207031922e-03 0.0000000000000000e+00  -2.1386672857345577e-05 3.4326305924452728e-03 0.0000000000000000e+00  -2.1523582347595253e-05 3.4503411900501518e-03 0.0000000000000000e+00  -2.1431140305824944e-05 3.4691936285473242e-03 0.0000000000000000e+00  -2.1041790476339632e-05 3.4891176491829239e-03 0.0000000000000000e+00  -2.0402271521095625e-05 3.5101415793095695e-03 0.0000000000000000e+00  -1.9437893860132115e-05 3.5327015447150167e-03 0.0000000000000000e+00  -1.4855327856295776e-05 3.5823485677035343e-03 0.0000000000000000e+00  -1.0004030164928011e-05 3.6344277909870853e-03 0.0000000000000000e+00  -1.1530814097368998e-04 3.0767484423244230e-03 0.0000000000000000e+00  -1.1651850381919453e-04 3.0530690428878841e-03 0.0000000000000000e+00  -1.1344207634005719e-04 3.1003707144536428e-03 0.0000000000000000e+00  -1.1093918535809437e-04 3.1239121748925661e-03 0.0000000000000000e+00  -1.0783120795098593e-04 3.1473415284884554e-03 0.0000000000000000e+00  -1.0416648124667016e-04 3.1706293696345260e-03 0.0000000000000000e+00  -1.0001018224155380e-04 3.1937632781652604e-03 0.0000000000000000e+00  -9.5437798721618333e-05 3.2167612164866813e-03 0.0000000000000000e+00  -9.0523002554078003e-05 3.2396655348564595e-03 0.0000000000000000e+00  -8.5331970771597223e-05 3.2625132747025952e-03 0.0000000000000000e+00  -7.9934696453490674e-05 3.2853424512969487e-03 0.0000000000000000e+00  -7.4411622420509803e-05 3.3082375392887490e-03 0.0000000000000000e+00  -6.8825042262907481e-05 3.3313982014867879e-03 0.0000000000000000e+00  -6.3162565929553169e-05 3.3549095121998187e-03 0.0000000000000000e+00  -5.7392954652634385e-05 3.3786117181827924e-03 0.0000000000000000e+00  -5.1664663165440326e-05 3.4015668573848133e-03 0.0000000000000000e+00  -4.6354070931962862e-05 3.4252102842089551e-03 0.0000000000000000e+00  -4.0913381884550647e-05 3.4502696815755609e-03 0.0000000000000000e+00  -4.1070766853129098e-05 3.4690945931922083e-03 0.0000000000000000e+00  -4.1048660302689862e-05 3.4891253568659427e-03 0.0000000000000000e+00  -4.0701757291762003e-05 3.5103742684757149e-03 0.0000000000000000e+00  -4.0024058336093722e-05 3.5329794786676549e-03 0.0000000000000000e+00  -3.9276823913010857e-05 3.5569408378385058e-03 0.0000000000000000e+00  -3.4518268412957019e-05 3.6091369866676003e-03 0.0000000000000000e+00  -2.9330092047397409e-05 3.6656499819765257e-03 0.0000000000000000e+00  -1.3608782884658288e-04 3.0740136352114021e-03 0.0000000000000000e+00  -1.3704949983695094e-04 3.0514337882054806e-03 0.0000000000000000e+00  -1.3451219587956611e-04 3.0965741161878232e-03 0.0000000000000000e+00  -1.3234318918046306e-04 3.1191083350672116e-03 0.0000000000000000e+00  -1.2961210779071318e-04 3.1416059141406690e-03 0.0000000000000000e+00  -1.2636280814500494e-04 3.1640597461136842e-03 0.0000000000000000e+00  -1.2265104389877133e-04 3.1864748479437819e-03 0.0000000000000000e+00  -1.1854007629997571e-04 3.2088745269241467e-03 0.0000000000000000e+00  -1.1409411230442354e-04 3.2312964