<?xml version="1.0"?>
<VTKFile type="UnstructuredGrid"  version="0.1"  >
<UnstructuredGrid>
<Piece  NumberOfPoints="650" NumberOfCells="1199">
<Points>
<DataArray  type="Float64"  NumberOfComponents="3"  format="ascii">3.238260869565217 0 0  3.254782608695652 0 0  3.254782608695652 0.01666666666666667 0  3.238260869565217 0.01666666666666667 0  3.271304347826087 0 0  3.271304347826087 0.01666666666666667 0  3.287826086956521 0 0  3.287826086956521 0.01666666666666667 0  3.304347826086957 0 0  3.304347826086957 0.01666666666666667 0  3.320869565217391 0 0  3.320869565217391 0.01666666666666667 0  3.337391304347826 0 0  3.337391304347826 0.01666666666666667 0  3.353913043478261 0 0  3.353913043478261 0.01666666666666667 0  3.370434782608696 0 0  3.370434782608696 0.01666666666666667 0  3.386956521739131 0 0  3.386956521739131 0.01666666666666667 0  3.403478260869565 0 0  3.403478260869565 0.01666666666666667 0  3.419999999999999 0 0  3.419999999999999 0.01666666666666667 0  3.436521739130435 0 0  3.436521739130435 0.01666666666666667 0  3.453043478260869 0 0  3.453043478260869 0.01666666666666667 0  3.469565217391304 0 0  3.469565217391304 0.01666666666666667 0  3.486086956521739 0 0  3.486086956521739 0.01666666666666667 0  3.502608695652174 0 0  3.502608695652174 0.01666666666666667 0  3.519130434782609 0 0  3.519130434782609 0.01666666666666667 0  3.535652173913043 0 0  3.535652173913043 0.01666666666666667 0  3.552173913043478 0 0  3.552173913043478 0.01666666666666667 0  3.568695652173913 0 0  3.568695652173913 0.01666666666666667 0  3.585217391304347 0 0  3.585217391304347 0.01666666666666667 0  3.601739130434782 0 0  3.601739130434782 0.01666666666666667 0  3.618260869565217 0 0  3.618260869565217 0.01666666666666667 0  3.634782608695652 0 0  3.634782608695652 0.01666666666666667 0  3.651304347826087 0 0  3.651304347826087 0.01666666666666667 0  3.667826086956521 0 0  3.667826086956521 0.01666666666666667 0  3.684347826086956 0 0  3.684347826086956 0.01666666666666667 0  3.700869565217391 0 0  3.700869565217391 0.01666666666666667 0  3.717391304347826 0 0  3.717391304347826 0.01666666666666667 0  3.733913043478261 0 0  3.733913043478261 0.01666666666666667 0  3.750434782608695 0 0  3.750434782608695 0.01666666666666667 0  3.766956521739131 0 0  3.766956521739131 0.01666666666666667 0  3.783478260869565 0 0  3.783478260869565 0.01666666666666667 0  3.8 0 0  3.8 0.01666666666666667 0  3.254782608695652 0.03333333333333333 0  3.271304347826087 0.03333333333333333 0  3.287826086956521 0.03333333333333333 0  3.304347826086957 0.03333333333333333 0  3.320869565217391 0.03333333333333333 0  3.337391304347826 0.03333333333333333 0  3.353913043478261 0.03333333333333333 0  3.370434782608696 0.03333333333333333 0  3.386956521739131 0.03333333333333333 0  3.403478260869565 0.03333333333333333 0  3.419999999999999 0.03333333333333333 0  3.436521739130435 0.03333333333333333 0  3.453043478260869 0.03333333333333333 0  3.469565217391304 0.03333333333333333 0  3.486086956521739 0.03333333333333333 0  3.502608695652174 0.03333333333333333 0  3.519130434782609 0.03333333333333333 0  3.535652173913043 0.03333333333333333 0  3.552173913043478 0.03333333333333333 0  3.568695652173913 0.03333333333333333 0  3.585217391304347 0.03333333333333333 0  3.601739130434782 0.03333333333333333 0  3.618260869565217 0.03333333333333333 0  3.634782608695652 0.03333333333333333 0  3.651304347826087 0.03333333333333333 0  3.667826086956521 0.03333333333333333 0  3.684347826086956 0.03333333333333333 0  3.700869565217391 0.03333333333333333 0  3.717391304347826 0.03333333333333333 0  3.733913043478261 0.03333333333333333 0  3.750434782608695 0.03333333333333333 0  3.766956521739131 0.03333333333333333 0  3.783478260869565 0.03333333333333333 0  3.8 0.03333333333333333 0  3.271304347826087 0.05 0  3.287826086956521 0.05 0  3.304347826086957 0.05 0  3.320869565217391 0.05 0  3.337391304347826 0.05 0  3.353913043478261 0.05 0  3.370434782608696 0.05 0  3.386956521739131 0.05 0  3.403478260869565 0.05 0  3.419999999999999 0.05 0  3.436521739130435 0.05 0  3.453043478260869 0.05 0  3.469565217391304 0.05 0  3.486086956521739 0.05 0  3.502608695652174 0.05 0  3.519130434782609 0.05 0  3.535652173913043 0.05 0  3.552173913043478 0.05 0  3.568695652173913 0.05 0  3.585217391304347 0.05 0  3.601739130434782 0.05 0  3.618260869565217 0.05 0  3.634782608695652 0.05 0  3.651304347826087 0.05 0  3.667826086956521 0.05 0  3.684347826086956 0.05 0  3.700869565217391 0.05 0  3.717391304347826 0.05 0  3.733913043478261 0.05 0  3.750434782608695 0.05 0  3.766956521739131 0.05 0  3.783478260869565 0.05 0  3.8 0.05 0  3.287826086956521 0.06666666666666667 0  3.304347826086957 0.06666666666666667 0  3.320869565217391 0.06666666666666667 0  3.337391304347826 0.06666666666666667 0  3.353913043478261 0.06666666666666667 0  3.370434782608696 0.06666666666666667 0  3.386956521739131 0.06666666666666667 0  3.403478260869565 0.06666666666666667 0  3.419999999999999 0.06666666666666667 0  3.436521739130435 0.06666666666666667 0  3.453043478260869 0.06666666666666667 0  3.469565217391304 0.06666666666666667 0  3.486086956521739 0.06666666666666667 0  3.502608695652174 0.06666666666666667 0  3.519130434782609 0.06666666666666667 0  3.535652173913043 0.06666666666666667 0  3.552173913043478 0.06666666666666667 0  3.568695652173913 0.06666666666666667 0  3.585217391304347 0.06666666666666667 0  3.601739130434782 0.06666666666666667 0  3.618260869565217 0.06666666666666667 0  3.634782608695652 0.06666666666666667 0  3.651304347826087 0.06666666666666667 0  3.667826086956521 0.06666666666666667 0  3.684347826086956 0.06666666666666667 0  3.700869565217391 0.06666666666666667 0  3.717391304347826 0.06666666666666667 0  3.733913043478261 0.06666666666666667 0  3.750434782608695 0.06666666666666667 0  3.766956521739131 0.06666666666666667 0  3.783478260869565 0.06666666666666667 0  3.8 0.06666666666666667 0  3.304347826086957 0.08333333333333333 0  3.320869565217391 0.08333333333333333 0  3.337391304347826 0.08333333333333333 0  3.353913043478261 0.08333333333333333 0  3.370434782608696 0.08333333333333333 0  3.386956521739131 0.08333333333333333 0  3.403478260869565 0.08333333333333333 0  3.419999999999999 0.08333333333333333 0  3.436521739130435 0.08333333333333333 0  3.453043478260869 0.08333333333333333 0  3.469565217391304 0.08333333333333333 0  3.486086956521739 0.08333333333333333 0  3.502608695652174 0.08333333333333333 0  3.519130434782609 0.08333333333333333 0  3.535652173913043 0.08333333333333333 0  3.552173913043478 0.08333333333333333 0  3.568695652173913 0.08333333333333333 0  3.585217391304347 0.08333333333333333 0  3.601739130434782 0.08333333333333333 0  3.618260869565217 0.08333333333333333 0  3.634782608695652 0.08333333333333333 0  3.651304347826087 0.08333333333333333 0  3.667826086956521 0.08333333333333333 0  3.684347826086956 0.08333333333333333 0  3.700869565217391 0.08333333333333333 0  3.717391304347826 0.08333333333333333 0  3.733913043478261 0.08333333333333333 0  3.750434782608695 0.08333333333333333 0  3.766956521739131 0.08333333333333333 0  3.783478260869565 0.08333333333333333 0  3.8 0.08333333333333333 0  3.320869565217391 0.1 0  3.337391304347826 0.1 0  3.353913043478261 0.1 0  3.370434782608696 0.1 0  3.386956521739131 0.1 0  3.403478260869565 0.1 0  3.419999999999999 0.1 0  3.436521739130435 0.1 0  3.453043478260869 0.1 0  3.469565217391304 0.1 0  3.486086956521739 0.1 0  3.502608695652174 0.1 0  3.519130434782609 0.1 0  3.535652173913043 0.1 0  3.552173913043478 0.1 0  3.568695652173913 0.1 0  3.585217391304347 0.1 0  3.601739130434782 0.1 0  3.618260869565217 0.1 0  3.634782608695652 0.1 0  3.651304347826087 0.1 0  3.667826086956521 0.1 0  3.684347826086956 0.1 0  3.700869565217391 0.1 0  3.717391304347826 0.1 0  3.733913043478261 0.1 0  3.750434782608695 0.1 0  3.766956521739131 0.1 0  3.783478260869565 0.1 0  3.8 0.1 0  3.337391304347826 0.1166666666666667 0  3.353913043478261 0.1166666666666667 0  3.370434782608696 0.1166666666666667 0  3.386956521739131 0.1166666666666667 0  3.403478260869565 0.1166666666666667 0  3.419999999999999 0.1166666666666667 0  3.436521739130435 0.1166666666666667 0  3.453043478260869 0.1166666666666667 0  3.469565217391304 0.1166666666666667 0  3.486086956521739 0.1166666666666667 0  3.502608695652174 0.1166666666666667 0  3.519130434782609 0.1166666666666667 0  3.535652173913043 0.1166666666666667 0  3.552173913043478 0.1166666666666667 0  3.568695652173913 0.1166666666666667 0  3.585217391304347 0.1166666666666667 0  3.601739130434782 0.1166666666666667 0  3.618260869565217 0.1166666666666667 0  3.634782608695652 0.1166666666666667 0  3.651304347826087 0.1166666666666667 0  3.667826086956521 0.1166666666666667 0  3.684347826086956 0.1166666666666667 0  3.700869565217391 0.1166666666666667 0  3.717391304347826 0.1166666666666667 0  3.733913043478261 0.1166666666666667 0  3.750434782608695 0.1166666666666667 0  3.766956521739131 0.1166666666666667 0  3.783478260869565 0.1166666666666667 0  3.8 0.1166666666666667 0  3.353913043478261 0.1333333333333333 0  3.370434782608696 0.1333333333333333 0  3.386956521739131 0.1333333333333333 0  3.403478260869565 0.1333333333333333 0  3.419999999999999 0.1333333333333333 0  3.436521739130435 0.1333333333333333 0  3.453043478260869 0.1333333333333333 0  3.469565217391304 0.1333333333333333 0  3.486086956521739 0.1333333333333333 0  3.502608695652174 0.1333333333333333 0  3.519130434782609 0.1333333333333333 0  3.535652173913043 0.1333333333333333 0  3.552173913043478 0.1333333333333333 0  3.568695652173913 0.1333333333333333 0  3.585217391304347 0.1333333333333333 0  3.601739130434782 0.1333333333333333 0  3.618260869565217 0.1333333333333333 0  3.634782608695652 0.1333333333333333 0  3.651304347826087 0.1333333333333333 0  3.667826086956521 0.1333333333333333 0  3.684347826086956 0.1333333333333333 0  3.700869565217391 0.1333333333333333 0  3.717391304347826 0.13333333
[...]
<CellData  Scalars="rho"> 
<DataArray  type="Float64"  Name="rho"  format="ascii">2.0997452117112098e-01   2.3599347335639395e-01   1.5746667704478853e-01   1.8565926421234000e-01   8.1753575455673119e-02   1.2503446117666961e-01   2.4496860532865500e-02   3.3039606495326453e-02   1.7782273022976938e-02   2.0423174889604871e-02   1.2361644072032899e-02   1.4491889498483393e-02   6.4600514662009698e-03   7.3643069111221544e-03   4.9708482196104608e-03   5.5251301948280951e-03   3.7227254069118229e-03   4.0869696124547581e-03   2.8927195281697547e-03   3.2301785513522857e-03   2.1651914800275736e-03   2.4319218001883011e-03   1.5820256773968399e-03   1.7879555743140936e-03   1.1276232900660002e-03   1.2827361154686772e-03   8.3178261475357876e-04   9.4706236442746220e-04   5.8636345633390524e-04   6.7115797449088081e-04   3.9037014611593643e-04   4.5059809241396735e-04   2.5252726772164455e-04   2.9454451767149979e-04   1.5373702622340215e-04   1.8222324870701957e-04   8.9647444296677347e-05   1.0830309796317827e-04   4.5779668391373793e-05   5.5830083513806492e-05   0.0000000000000000e+00   0.0000000000000000e+00   0.0000000000000000e+00   0.0000000000000000e+00   0.0000000000000000e+00   0.0000000000000000e+00   0.0000000000000000e+00   0.0000000000000000e+00   0.0000000000000000e+00   0.0000000000000000e+00   0.0000000000000000e+00   0.0000000000000000e+00   0.0000000000000000e+00   0.0000000000000000e+00   0.0000000000000000e+00   0.0000000000000000e+00   0.0000000000000000e+00   0.0000000000000000e+00   0.0000000000000000e+00   0.0000000000000000e+00   0.0000000000000000e+00   0.0000000000000000e+00   0.0000000000000000e+00   0.0000000000000000e+00   0.0000000000000000e+00   0.0000000000000000e+00   0.0000000000000000e+00   0.0000000000000000e+00   2.4642275001967504e-01   1.8939500400904183e-01   2.3695491136617328e-01   1.3575612730306932e-01   1.7865019993625431e-01   5.3241120345471127e-02   1.1272574568654332e-01   2.0429492136363726e-02   2.4746090838590706e-02   1.4189043304171423e-02   1.7509635028844731e-02   7.2469673843704539e-03   8.4749762302651285e-03   5.2409305513929179e-03   6.3979769358669565e-03   4.0946041009864856e-03   4.7352125973393880e-03   3.1538466695592337e-03   3.6589639734684008e-03   2.3396866217146933e-03   2.7241700655601612e-03   1.6939051678299382e-03   1.9770606290116302e-03   1.2485642276745079e-03   1.4597066497982032e-03   8.7619519666767484e-04   1.0267895044597595e-03   6.1053342972375237e-04   7.1661470129413590e-04   4.0171176148633082e-04   4.7140783172683852e-04   2.5359799003475577e-04   3.0049635488392864e-04   1.5135737620850987e-04   1.8092265771448793e-04   8.4069586288158780e-05   1.0177991248685633e-04   3.9549758072095247e-05   4.9314292714691538e-05   0.0000000000000000e+00   0.0000000000000000e+00   0.0000000000000000e+00   0.0000000000000000e+00   0.0000000000000000e+00   0.0000000000000000e+00   0.0000000000000000e+00   0.0000000000000000e+00   0.0000000000000000e+00   0.0000000000000000e+00   0.0000000000000000e+00   0.0000000000000000e+00   0.0000000000000000e+00   0.0000000000000000e+00   0.0000000000000000e+00   0.0000000000000000e+00   0.0000000000000000e+00   0.0000000000000000e+00   0.0000000000000000e+00   0.0000000000000000e+00   0.0000000000000000e+00   0.0000000000000000e+00   0.0000000000000000e+00   0.0000000000000000e+00   0.0000000000000000e+00   0.0000000000000000e+00   0.0000000000000000e+00   0.0000000000000000e+00   3.0090054084166862e-01   2.1930986059534127e-01   2.9319496999048733e-01   1.4490009199890716e-01   2.0688072634734167e-01   5.9057027730747787e-02   1.3054551447433993e-01   1.8435738843129473e-02   2.4745368072929909e-02   9.0291291146666515e-03   1.1285277948534537e-02   6.5648685442732035e-03   7.9233760308925361e-03   5.0389198574586234e-03   5.9967798411667186e-03   3.7736441383614153e-03   4.5066610596176775e-03   2.7533848009188371e-03   3.2707009366349286e-03   2.0337765083930409e-03   2.4368337109288607e-03   1.4350126864221752e-03   1.7218109746958629e-03   1.0024725219221712e-03   1.2022705734524247e-03   6.6251503450960006e-04   7.9553405223134314e-04   4.2486679000795199e-04   5.1091500353717871e-04   2.5592310551361761e-04   3.0869561057821803e-04   1.4750438192626017e-04   1.7857673005949721e-04   7.3889630391518063e-05   9.0336618305723241e-05   0.0000000000000000e+00   0.0000000000000000e+00   0.0000000000000000e+00   0.0000000000000000e+00   0.0000000000000000e+00   0.0000000000000000e+00   0.0000000000000000e+00   0.0000000000000000e+00   0.0000000000000000e+00   0.0000000000000000e+00   0.0000000000000000e+00   0.0000000000000000e+00   0.0000000000000000e+00   0.0000000000000000e+00   0.0000000000000000e+00   0.0000000000000000e+00   0.0000000000000000e+00   0.0000000000000000e+00   0.0000000000000000e+00   0.0000000000000000e+00   0.0000000000000000e+00   0.0000000000000000e+00   0.0000000000000000e+00   0.0000000000000000e+00   0.0000000000000000e+00   0.0000000000000000e+00   0.0000000000000000e+00   0.0000000000000000e+00   0.0000000000000000e+00   0.0000000000000000e+00   3.6686721818929213e-01   2.7202786572494947e-01   3.5662737469079181e-01   1.8397827147697651e-01   2.8697548247063442e-01   9.2481018289325756e-02   1.6119182885872166e-01   1.1859392475488253e-02   7.5351924168554213e-02   8.8457418993953749e-03   1.0826911803391747e-02   6.5038472653434886e-03   7.9877803869181432e-03   4.7489177321839169e-03   5.7816046237557529e-03   3.5410148783007987e-03   4.3161081075660489e-03   2.4882913252195957e-03   3.0396851550707365e-03   1.7494061560027017e-03   2.1357210145597763e-03   1.1672022160097554e-03   1.4259417968353254e-03   7.4561068880987444e-04   9.1148408587379901e-04   4.5212247000276485e-04   5.5349788273289613e-04   2.6262358058181648e-04   3.2195065163274331e-04   1.3449673152831547e-04   1.6574121463901065e-04   0.0000000000000000e+00   0.0000000000000000e+00   0.0000000000000000e+00   0.0000000000000000e+00   0.0000000000000000e+00   0.0000000000000000e+00   0.0000000000000000e+00   0.0000000000000000e+00   0.0000000000000000e+00   0.0000000000000000e+00   0.0000000000000000e+00   0.0000000000000000e+00   0.0000000000000000e+00   0.0000000000000000e+00   0.0000000000000000e+00   0.0000000000000000e+00   0.0000000000000000e+00   0.0000000000000000e+00   0.0000000000000000e+00   0.0000000000000000e+00   0.0000000000000000e+00   0.0000000000000000e+00   0.0000000000000000e+00   0.0000000000000000e+00   0.0000000000000000e+00   0.0000000000000000e+00   0.0000000000000000e+00   0.0000000000000000e+00   0.0000000000000000e+00   0.0000000000000000e+00   0.0000000000000000e+00   0.0000000000000000e+00   4.1976504755911281e-01   3.4303254748327555e-01   4.1274761071419624e-01   2.7097636314409512e-01   3.3063719426796390e-01   1.4584182486599648e-01   2.5105132763173343e-01   4.2352033575442052e-02   1.4325558018903051e-01   8.7153095191842868e-03   2.5849444208025655e-02   6.4384849611698212e-03   7.9213659878608206e-03   4.5531308432272804e-03   5.6205514868094388e-03   3.1974507843563040e-03   3.9482274742419343e-03   2.1383839630131287e-03   2.6442501771481216e-03   1.3624643031415686e-03   1.6868579096279885e-03   8.3324514706940183e-04   1.0329675704465002e-03   4.8574084813015098e-04   5.8958318229069629e-04   2.5224090052111968e-04   3.1460654329972958e-04   6.3638121366206434e-07   9.8744474580773814e-06   0.0000000000000000e+00   0.0000000000000000e+00   0.0000000000000000e+00   0.0000000000000000e+00   0.0000000000000000e+00   0.0000000000000000e+00   0.0000000000000000e+00   0.0000000000000000e+00   0.0000000000000000e+00   0.0000000000000000e+00   0.0000000000000000e+00   0.0000000000000000e+00   0.0000000000000000e+00   0.0000000000000000e+00   0.0000000000000000e+00   0.0000000000000000e+00   0.0000000000000000e+00   0.0000000000000000e+00   0.0000000000000000e+00   0.0000000000000000e+00   0.0000000000000000e+00   0.0000000000000000e+00   0.0000000000000000e+00   0.0000000000000000e+00   0.0000000000000000e+00   0.0000000000000000e+00   0.0000000000000000e+00   0.0000000000000000e+00   0.0000000000000000e+00   0.0000000000000000e+00   0.0000000000000000e+00   0.0000000000000000e+00   4.6178351241262527e-01   3.9524437632822357e-01   4.4865697771549884e-01   2.9304526979725470e-01   3.6930051746841397e-01   1.9414685565825515e-01   2.7943770865041778e-01   1.1071245631747458e-01   1.7144254236251735e-01   8.5421258838264628e-03   9.5011112060406425e-02   6.0072040078365582e-03   7.4607068661540635e-03   4.0376177196667466e-03   5.0276064062339289e-03   2.5835062047442985e-03   3.2450824917093146e-03   1.5867350053167437e-03   1.9832542326227941e-03   9.1117040794770859e-04   1.1272825203738860e-03   4.8914506513099095e-04   6.1533979695554291e-04   4.0736169222649881e-05   6.8907324319238684e-05   0.0000000000000000e+00   0.0000000000000000e+00   0.0000000000000000e+00   0.0000000000000000e+00   0.0000000000000000e+00   0.0000000000000000e+00   0.0000000000000000e+00   0.0000000000000000e+00   0.0000000000000000e+00   0.0000000000000000e+00   0.0000000000000000e+00   0.0000000000000000e+00   0.0000000000000000e+00   0.0000000000000000e+00   0.0000000000000000e+00   0.0000000000000000e+00   0.0000000000000000e+00   0.0000000000000000e+00   0.0000000000000000e+00   0.0000000000000000e+00   0.0000000000000000e+00   0.0000000000000000e+00   0.0000000000000000e+00   0.0000000000000000e+00   0.0000000000000000e+00   0.0000000000000000e+00   0.0000000000000000e+00   0.0000000000000000e+00   0.0000000000000000e+00   0.0000000000000000e+00   0.0000000000000000e+00   0.0000000000000000e+00   0.0000000000000000e+00   0.0000000000000000e+00   5.0694874741712947e-01   4.3426844637264356e-01   4.9514424458099321e-01   3.3058287166061667e-01   4.2244727593059939e-01   2.2989023869310637e-01   3.1402392150603614e-01   1.3523381772030912e-01   1.9976391088994319e-01   7.8847681896603905e-02   1.4615850850725265e-01   5.0233090274815987e-03   3.5748508751180491e-02   3.0833905017715654e-03   3.8723426988911038e-03   1.7655447254550166e-03   2.2254205527345882e-03   9.6962079825323373e-04   1.2253988995411455e-03   1.5850411559613432e-04   2.3356059232263929e-04   0.0000000000000000e+00   0.0000000000000000e+00   0.0000000000000000e+00   0.0000000000000000e+00   0.0000000000000000e+00   0.0000000000000000e+00   0.0000000000000000e+00   0.0000000000000000e+00   0.0000000000000000e+00   0.0000000000000000e+00   0.0000000000000000e+00   0.0000000000000000e+00   0.0000000000000000e+00   0.0000000000000000e+00   0.0000000000000000e+00   0.0000000000000000e+00   0.0000000000000000e+00   0.0000000000000000e+00   0.0000000000000000e+00   0.0000000000000000e+00   0.0000000000000000e+00   0.0000000000000000e+00   0.0000000000000000e+00   0.0000000000000000e+00   0.0000000000000000e+00   0.0000000000000000e+00   0.0000000000000000e+00   0.0000000000000000e+00   0.0000000000000000e+00   0.0000000000000000e+00   0.0000000000000000e+00   0.0000000000000000e+00   5.0601090354180488e-06   6.1354137410347041e-06   5.3883374045713960e-06   1.3958036887540739e-05   5.4272475341253090e-01   4.6642403668267274e-01   5.3921514343789834e-01   3.7561268211920695e-01   4.5557131718086485e-01   2.5861145242522876e-01   3.4979782909759355e-01   1.6867155834851277e-01   2.3910580261103381e-01   7.6682387737966304e-02   1.4365881194065031e-01   1.1355470629154714e-02   6.0770151409080236e-02   1.9447817591609713e-03   6.3631276235831214e-03   4.6583536485840835e-04   6.5203048504931652e-04   0.0000000000000000e+00   0.0000000000000000e+00   0.0000000000000000e+00   0.0000000000000000e+00   0.0000000000000000e+00   0.0000000000000000e+00   0.0000000000000000e+00   0.0000000000000000e+00   0.0000000000000000e+00   0.0000000000000000e+00   0.0000000000000000e+00   0.0000000000000000e+00   0.0000000000000000e+00   0.0000000000000000e+00   0.0000000000000000e+00   0.0000000000000000e+00   0.0000000000000000e+00   0.0000000000000000e+00   0.0000000000000000e+00   0.0000000000000000e+00   0.0000000000000000e+00   0.0000000000000000e+00   0.0000000000000000e+00   0.0000000000000000e+00   0.0000000000000000e+00   0.0000000000000000e+00   0.0000000000000000e+00   0.0000000000000000e+00   0.0000000000000000e+00   0.0000000000000000e+00   0.0000000000000000e+00   0.0000000000000000e+00   0.0000000000000000e+00   0.0000000000000000e+00   1.9096184868663734e-05   2.2219423672727447e-05   1.9226913361642292e-05   2.2350807177906859e-05   5.8366772969014280e-01   4.9702798205865789e-01   5.6477374395227664e-01   3.9516174216457317e-01   4.6944458921850113e-01   3.1207594376769771e-01   3.7420452706496293e-01   1.7798208864833953e-01   2.7252620184617377e-01   1.1029768456032035e-01   1.5797543626901769e-01   1.2248765460447354e-03   8.9054357264556433e-02   0.0000000000000000e+00   1.0740763264645501e-04   0.0000000000000000e+00   0.0000000000000000e+00   0.0000000000000000e+00   0.0000000000000000e+00   0.0000000000000000e+00   0.0000000000000000e+00   0.0000000000000000e+00   0.0000000000000000e+00   0.0000000000000000e+00   0.0000000000000000e+00   0.0000000000000000e+00   0.0000000000000000e+00   0.0000000000000000e+00   0.0000000000000000e+00   0.0000000000000000e+00   0.0000000000000000e+00   0.0000000000000000e+00   0.0000000000000000e+00   0.0000000000000000e+00   0.0000000000000000e+00   0.0000000000000000e+00   0.0000000000000000e+00   0.0000000000000000e+00   0.0000000000000000e+00   0.0000000000000000e+00   0.0000000000000000e+00   0.0000000000000000e+00   0.0000000000000000e+00   0.0000000000000000e+00   0.0000000000000000e+00   0.0000000000000000e+00   0.0000000000000000e+00   3.0142590520930190e-05   3.5002914016223793e-05   3.0244467997148546e-05   3.5089737460787392e-05   3.0362937046833283e-05   3.5133201375469926e-05   5.9703414882080985e-01   5.2063111193664546e-01   5.7716137899105935e-01   4.3346767919540447e-01   4.9337870624853797e-01   3.4255812266072239e-01   4.0386937484535107e-01   2.2418228699991249e-01   3.0427687341978088e-01   1.3728517169129936e-01   1.9011266549257141e-01   5.7505983951690209e-02   1.2105168671428831e-01   0.0000000000000000e+00   4.2482545750179665e-02   0.0000000000000000e+00   0.0000000000000000e+00   0.0000000000000000e+00   0.0000000000000000e+00   0.0000000000000000e+00   0.0000000000000000e+00   0.0000000000000000e+00   0.0000000000000000e+00   0.0000000000000000e+00   0.0000000000000000e+00   0.0000000000000000e+00   0.0000000000000000e+00   0.0000000000000000e+00   0.0000000000000000e+00   0.0000000000000000e+00   0.0000000000000000e+00   0.0000000000000000e+00   0.0000000000000000e+00   0.0000000000000000e+00   0.0000000000000000e+00   0.0000000000000000e+00   0.0000000000000000e+00   0.0000000000000000e+00   0.0000000000000000e+00   0.0000000000000000e+00   0.0000000000000000e+00   0.0000000000000000e+00   0.0000000000000000e+00   4.7413690659553997e-05   2.4674786473514929e-05   4.7450197644773196e-05   5.5160578350574667e-05   4.7220591029178152e-05   5.4720309753358960e-05   5.4467548443061113e-05   6.2602200187182404e-05   6.1374040571693278e-01   5.3907052275411094e-01   5.9483219566879542e-01   4.6342021414629214e-01   5.2145161670116225e-01   3.6416549071675242e-01   4.3990986919347341e-01   2.5433030416672892e-01   3.4321920552560675e-01   1.5149207867417891e-01   2.3512895570367623e-01   8.8920377217759805e-02   1.3197281526103694e-01   0.0000000000000000e+00   7.4660171741907422e-02   0.0000000000000000e+00   0.0000000000000000e+00   0.0000000000000000e+00   0.0000000000000000e+00   0.0000000000000000e+00   0.0000000000000000e+00   0.0000000000000000e+00   0.0000000000000000e+00   0.0000000000000000e+00   0.0000000000000000e+00   0.0000000000000000e+00   0.0000000000000000e+00   0.0000000000000000e+00   0.0000000000000000e+00   0.0000000000000000e+00   0.0000000000000000e+00   0.0000000000000000e+00   0.0000000000000000e+00   0.0000000000000000e+00   0.0000000000000000e+00   0.0000000000000000e+00   0.0000000000000000e+00   0.0000000000000000e+00   0.0000000000000000e+00   0.0000000000000000e+00   0.0000000000000000e+00   7.5036083482434620e-05   8.7569152326227398e-05   7.3993784300203350e-05   8.6216016117335157e-05   8.3394308532496367e-05   9.6581186236103391e-05   8.2379274442723747e-05   9.4483386661407384e-05   6.2737216135064289e-01   5.5835568654385426e-01   6.0925326735039176e-01   4.8064150532100269e-01   5.4021585517573589e-01   3.9274483292077006e-01   4.6292588963447184e-01   2.8359632716606598e-01   3.7239535240645882e-01   1.8403735629434947e-01   2.6541987026461122e-01   1.1746134351978024e-01   1.6723238747515481e-01   5.2501000230977597e-02   1.0445620224048920e-01   0.0000000000000000e+00   4.1153664824846239e-02   0.0000000000000000e+00   0.0000000000000000e+00   0.0000000000000000e+00   0.0000000000000000e+00   0.0000000000000000e+00   0.0000000000000000e+00   0.0000000000000000e+00   0.0000000000000000e+00   0.0000000000000000e+00   0.0000000000000000e+00   0.0000000000000000e+00   0.0000000000000000e+00   0.0000000000000000e+00   0.0000000000000000e+00   0.0000000000000000e+00   0.0000000000000000e+00   0.0000000000000000e+00   0.0000000000000000e+00   0.0000000000000000e+00   0.0000000000000000e+00   5.7866748243226104e-05   6.5146198175627522e-05   1.1803689732751132e-04   1.3853907521135992e-04   1.3088262785117608e-04   1.5317297823399785e-04   1.2553507471808184e-04   1.4542582796066788e-04   1.2341877226658464e-04   1.4128270216191637e-04   6.4353656266681558e-01   5.7873716646787221e-01   6.2721689140497161e-01   5.0512990970811289e-01   5.6277874478374090e-01   4.2825754153057327e-01   4.8964662271409248e-01   3.1165732922146472e-01   4.0422732110102494e-01   2.3234607495955426e-01   2.9443400081074833e-01   1.3722106517812849e-01   2.1774300710771560e-01   8.9880401893860970e-02   1.2427150265506767e-01   0.0000000000000000e+00   7.6918065329991778e-02   0.0000000000000000e+00   0.0000000000000000e+00   0.0000000000000000e+00   0.0000000000000000e+00   0.0000000000000000e+00   0.0000000000000000e+00   0.0000000000000000e+00   0.0000000000000000e+00   0.0000000000000000e+00   0.0000000000000000e+00   0.0000000000000000e+00   0.0000000000000000e+00   0.0000000000000000e+00   0.0000000000000000e+00   0.0000000000000000e+00   0.0000000000000000e+00   4.2065847545106456e-05   4.1529507483576810e-05   1.9243062746282914e-04   1.2120332115637181e-04   2.1199596232090577e-04   2.5091056802256108e-04   1.9748244026737672e-04   2.3173738306318039e-04   1.8728028746083493e-04   2.1704538739177899e-04   1.8315560782870914e-04   2.0926115568407327e-04   6.6164463644321347e-01   6.0035794873692905e-01   6.4629252777577262e-01   5.3008687374070385e-01   5.8701441236000185e-01   4.5552074484009891e-01   5.1780257908329685e-01   3.4899413800073847e-01   4.4229238591022169e-01   2.5807977824581119e-01   3.3398763781702795e-01   1.7891363972891791e-01   2.4437169498819547e-01   9.8636643130618554e-02   1.6814126842281896e-01   5.7671065378251139e-02   9.2879272181768308e-02   0.0000000000000000e+00   4.9012037737983682e-02   0.0000000000000000e+00   0.0000000000000000e+00   0.0000000000000000e+00   0.0000000000000000e+00   0.0000000000000000e+00   0.0000000000000000e+00   0.0000000000000000e+00   0.0000000000000000e+00   0.0000000000000000e+00   0.0000000000000000e+00   3.5806957268080907e-05   0.0000000000000000e+00   1.6263251650851335e-04   1.8752836410246894e-04   3.5465769155182571e-04   3.6520121997954711e-04   3.2275977737587211e-04   3.8389314794079075e-04   2.9535403367399394e-04   3.4746163187919922e-04   2.7677607087563783e-04   3.2082912735298120e-04   2.6918099096953505e-04   3.0692923000354204e-04   6.8641716459910296e-01   6.2114084079109255e-01   6.7540777308860855e-01   5.6303833611066623e-01   6.0819916804820506e-01   4.8702813403120693e-01   5.4794195513935806e-01   4.0003237300438416e-01   4.7545746135612643e-01   3.0740674609777463e-01   3.8762649298630442e-01   2.2990994109865359e-01   2.9634809366418990e-01   1.4160993027649385