<?xml version="1.0"?>
<VTKFile type="UnstructuredGrid"  version="0.1"  >
<UnstructuredGrid>
<Piece  NumberOfPoints="614" NumberOfCells="1122">
<Points>
<DataArray  type="Float64"  NumberOfComponents="3"  format="ascii">2.792173913043478 0.2166666666666667 0  2.792173913043478 0.2333333333333333 0  2.808695652173913 0.2333333333333333 0  2.445217391304348 0.2333333333333333 0  2.461739130434782 0.2333333333333333 0  2.461739130434782 0.25 0  2.445217391304348 0.25 0  2.478260869565217 0.2333333333333333 0  2.478260869565217 0.25 0  2.494782608695652 0.2333333333333333 0  2.494782608695652 0.25 0  2.511304347826087 0.2333333333333333 0  2.511304347826087 0.25 0  2.527826086956522 0.2333333333333333 0  2.527826086956522 0.25 0  2.544347826086956 0.2333333333333333 0  2.544347826086956 0.25 0  2.560869565217391 0.2333333333333333 0  2.560869565217391 0.25 0  2.577391304347826 0.2333333333333333 0  2.577391304347826 0.25 0  2.593913043478261 0.2333333333333333 0  2.593913043478261 0.25 0  2.610434782608696 0.2333333333333333 0  2.610434782608696 0.25 0  2.62695652173913 0.2333333333333333 0  2.62695652173913 0.25 0  2.643478260869565 0.2333333333333333 0  2.643478260869565 0.25 0  2.66 0.2333333333333333 0  2.66 0.25 0  2.676521739130435 0.2333333333333333 0  2.676521739130435 0.25 0  2.693043478260869 0.2333333333333333 0  2.693043478260869 0.25 0  2.709565217391304 0.2333333333333333 0  2.709565217391304 0.25 0  2.726086956521739 0.2333333333333333 0  2.726086956521739 0.25 0  2.742608695652174 0.2333333333333333 0  2.742608695652174 0.25 0  2.759130434782609 0.2333333333333333 0  2.759130434782609 0.25 0  2.775652173913044 0.2333333333333333 0  2.775652173913044 0.25 0  2.792173913043478 0.25 0  2.808695652173913 0.25 0  2.825217391304347 0.25 0  2.28 0.25 0  2.296521739130434 0.25 0  2.296521739130434 0.2666666666666667 0  2.28 0.2666666666666667 0  2.31304347826087 0.25 0  2.31304347826087 0.2666666666666667 0  2.329565217391304 0.25 0  2.329565217391304 0.2666666666666667 0  2.346086956521739 0.25 0  2.346086956521739 0.2666666666666667 0  2.362608695652174 0.25 0  2.362608695652174 0.2666666666666667 0  2.379130434782609 0.25 0  2.379130434782609 0.2666666666666667 0  2.395652173913044 0.25 0  2.395652173913044 0.2666666666666667 0  2.412173913043478 0.25 0  2.412173913043478 0.2666666666666667 0  2.428695652173913 0.25 0  2.428695652173913 0.2666666666666667 0  2.445217391304348 0.2666666666666667 0  2.461739130434782 0.2666666666666667 0  2.478260869565217 0.2666666666666667 0  2.494782608695652 0.2666666666666667 0  2.511304347826087 0.2666666666666667 0  2.527826086956522 0.2666666666666667 0  2.544347826086956 0.2666666666666667 0  2.560869565217391 0.2666666666666667 0  2.577391304347826 0.2666666666666667 0  2.593913043478261 0.2666666666666667 0  2.610434782608696 0.2666666666666667 0  2.62695652173913 0.2666666666666667 0  2.643478260869565 0.2666666666666667 0  2.66 0.2666666666666667 0  2.676521739130435 0.2666666666666667 0  2.693043478260869 0.2666666666666667 0  2.709565217391304 0.2666666666666667 0  2.726086956521739 0.2666666666666667 0  2.742608695652174 0.2666666666666667 0  2.759130434782609 0.2666666666666667 0  2.775652173913044 0.2666666666666667 0  2.792173913043478 0.2666666666666667 0  2.808695652173913 0.2666666666666667 0  2.825217391304347 0.2666666666666667 0  2.841739130434783 0.2666666666666667 0  2.24695652173913 0.2666666666666667 0  2.263478260869565 0.2666666666666667 0  2.263478260869565 0.2833333333333333 0  2.28 0.2833333333333333 0  2.296521739130434 0.2833333333333333 0  2.31304347826087 0.2833333333333333 0  2.329565217391304 0.2833333333333333 0  2.346086956521739 0.2833333333333333 0  2.362608695652174 0.2833333333333333 0  2.379130434782609 0.2833333333333333 0  2.395652173913044 0.2833333333333333 0  2.412173913043478 0.2833333333333333 0  2.428695652173913 0.2833333333333333 0  2.445217391304348 0.2833333333333333 0  2.461739130434782 0.2833333333333333 0  2.478260869565217 0.2833333333333333 0  2.494782608695652 0.2833333333333333 0  2.511304347826087 0.2833333333333333 0  2.527826086956522 0.2833333333333333 0  2.544347826086956 0.2833333333333333 0  2.560869565217391 0.2833333333333333 0  2.577391304347826 0.2833333333333333 0  2.593913043478261 0.2833333333333333 0  2.610434782608696 0.2833333333333333 0  2.62695652173913 0.2833333333333333 0  2.643478260869565 0.2833333333333333 0  2.66 0.2833333333333333 0  2.676521739130435 0.2833333333333333 0  2.693043478260869 0.2833333333333333 0  2.709565217391304 0.2833333333333333 0  2.726086956521739 0.2833333333333333 0  2.742608695652174 0.2833333333333333 0  2.759130434782609 0.2833333333333333 0  2.775652173913044 0.2833333333333333 0  2.792173913043478 0.2833333333333333 0  2.808695652173913 0.2833333333333333 0  2.825217391304347 0.2833333333333333 0  2.841739130434783 0.2833333333333333 0  2.858260869565217 0.2833333333333333 0  2.28 0.3 0  2.296521739130434 0.3 0  2.31304347826087 0.3 0  2.329565217391304 0.3 0  2.346086956521739 0.3 0  2.362608695652174 0.3 0  2.379130434782609 0.3 0  2.395652173913044 0.3 0  2.412173913043478 0.3 0  2.428695652173913 0.3 0  2.445217391304348 0.3 0  2.461739130434782 0.3 0  2.478260869565217 0.3 0  2.494782608695652 0.3 0  2.511304347826087 0.3 0  2.527826086956522 0.3 0  2.544347826086956 0.3 0  2.560869565217391 0.3 0  2.577391304347826 0.3 0  2.593913043478261 0.3 0  2.610434782608696 0.3 0  2.62695652173913 0.3 0  2.643478260869565 0.3 0  2.66 0.3 0  2.676521739130435 0.3 0  2.693043478260869 0.3 0  2.709565217391304 0.3 0  2.726086956521739 0.3 0  2.742608695652174 0.3 0  2.759130434782609 0.3 0  2.775652173913044 0.3 0  2.792173913043478 0.3 0  2.808695652173913 0.3 0  2.825217391304347 0.3 0  2.841739130434783 0.3 0  2.858260869565217 0.3 0  2.874782608695652 0.3 0  2.296521739130434 0.3166666666666667 0  2.31304347826087 0.3166666666666667 0  2.329565217391304 0.3166666666666667 0  2.346086956521739 0.3166666666666667 0  2.362608695652174 0.3166666666666667 0  2.379130434782609 0.3166666666666667 0  2.395652173913044 0.3166666666666667 0  2.412173913043478 0.3166666666666667 0  2.428695652173913 0.3166666666666667 0  2.445217391304348 0.3166666666666667 0  2.461739130434782 0.3166666666666667 0  2.478260869565217 0.3166666666666667 0  2.494782608695652 0.3166666666666667 0  2.511304347826087 0.3166666666666667 0  2.527826086956522 0.3166666666666667 0  2.544347826086956 0.3166666666666667 0  2.560869565217391 0.3166666666666667 0  2.577391304347826 0.3166666666666667 0  2.593913043478261 0.3166666666666667 0  2.610434782608696 0.3166666666666667 0  2.62695652173913 0.3166666666666667 0  2.643478260869565 0.3166666666666667 0  2.66 0.3166666666666667 0  2.676521739130435 0.3166666666666667 0  2.693043478260869 0.3166666666666667 0  2.709565217391304 0.3166666666666667 0  2.726086956521739 0.3166666666666667 0  2.742608695652174 0.3166666666666667 0  2.759130434782609 0.3166666666666667 0  2.775652173913044 0.3166666666666667 0  2.792173913043478 0.3166666666666667 0  2.808695652173913 0.3166666666666667 0  2.825217391304347 0.3166666666666667 0  2.841739130434783 0.3166666666666667 0  2.858260869565217 0.3166666666666667 0  2.874782608695652 0.3166666666666667 0  2.891304347826087 0.3166666666666667 0  2.31304347826087 0.3333333333333333 0  2.329565217391304 0.3333333333333333 0  2.346086956521739 0.3333333333333333 0  2.362608695652174 0.3333333333333333 0  2.379130434782609 0.3333333333333333 0  2.395652173913044 0.3333333333333333 0  2.412173913043478 0.3333333333333333 0  2.428695652173913 0.3333333333333333 0  2.445217391304348 0.3333333333333333 0  2.461739130434782 0.3333333333333333 0  2.478260869565217 0.3333333333333333 0  2.494782608695652 0.3333333333333333 0  2.511304347826087 0.3333333333333333 0  2.527826086956522 0.3333333333333333 0  2.544347826086956 0.3333333333333333 0  2.560869565217391 0.3333333333333333 0  2.577391304347826 0.3333333333333333 0  2.593913043478261 0.3333333333333333 0  2.610434782608696 0.3333333333333333 0  2.62695652173913 0.3333333333333333 0  2.643478260869565 0.3333333333333333 0  2.66 0.3333333333333333 0  2.676521739130435 0.3333333333333333 0  2.693043478260869 0.3333333333333333 0  2.709565217391304 0.3333333333333333 0  2.726086956521739 0.3333333333333333 0  2.742608695652174 0.3333333333333333 0  2.759130434782609 0.3333333333333333 0  2.775652173913044 0.3333333333333333 0  2.792173913043478 0.3333333333333333 0  2.808695652173913 0.3333333333333333 0  2.825217391304347 0.3333333333333333 0  2.841739130434783 0.3333333333333333 0  2.858260869565217 0.3333333333333333 0  2.874782608695652 0.3333333333333333 0  2.891304347826087 0.3333333333333333 0  2.907826086956522 0.3333333333333333 0  2.329565217391304 0.35 0  2.346086956521739 0.35 0  2.362608695652174 0.35 0  2.379130434782609 0.35 0  2.395652173913044 0.35 0  2.412173913043478 0.35 0  2.428695652173913 0.35 0  2.445217391304348 0.35 0  2.461739130434782 0.35 0  2.478260869565217 0.35 0  2.494782608695652 0.35 0  2.511304347826087 0.35 0  2.527826086956522 0.35 0  2.544347826086956 0.35 0  2.560869565217391 0.35 0  2.577391304347826 0.35 0  2.593913043478261 0.35 0  2.610434782608696 0.35 0  2.62695652173913 0.35 0  2.643478260869565 0.35 0  2.66 0.35 0  2.676521739130435 0.35 0  2.693043478260869 0.35 0  2.709565217391304 0.35 0  2.726086956521739 0.35 0  2.742608695652174 0.35 0  2.759130434782609 0.35 0  2.775652173913044 0.35 0  2.792173913043478 0.35 0  2.808695652173913 0.35 0  2.825217391304347 0.35 0  2.841739130434783 0.35 0  2.858260869565217 0.35 0  2.874782608695652 0.35 0  2.891304347826087 0.35 0  2.907826086956522 0.35 0  2.924347826086957 0.35 0  2.346086956521739 0.3666666666666666 0  2.362608695652174 0.3666666666666666 0  2.379130434782609 0.3666666666666666 0  2.395652173913044 0.3666666666666666 0  2.412173913043478 0.3666666666666666 0  2.428695652173913 0.3666666666666666 0  2.445217391304348 0.3666666666666666 0  2.461739130434782 0.3
[...]
<PointData  Vectors="Displacement"> 
<DataArray  type="Float64"  Name="Displacement"  NumberOfComponents="3" format="ascii">1.7028989483678159e-04 5.4345396025065607e-03 0.0000000000000000e+00  1.4926966164741226e-04 5.4365878661090548e-03 0.0000000000000000e+00  1.5127643225204616e-04 5.4780172292349114e-03 0.0000000000000000e+00  1.1131680189793811e-04 4.2783626911263879e-03 0.0000000000000000e+00  1.1473274946139095e-04 4.3364400870194338e-03 0.0000000000000000e+00  9.4247236220763918e-05 4.3224800865128083e-03 0.0000000000000000e+00  9.0817654782502275e-05 4.2637598442459542e-03 0.0000000000000000e+00  1.1807414868163658e-04 4.3948653796839904e-03 0.0000000000000000e+00  9.7608363258370518e-05 4.3816130962995243e-03 0.0000000000000000e+00  1.2130178266533415e-04 4.4535933781984878e-03 0.0000000000000000e+00  1.0084926695900454e-04 4.4411184549019555e-03 0.0000000000000000e+00  1.2437666696690135e-04 4.5125605154351751e-03 0.0000000000000000e+00  1.0391984553122914e-04 4.5009311147280870e-03 0.0000000000000000e+00  1.2726431138051380e-04 4.5716846864461754e-03 0.0000000000000000e+00  1.0677715374046355e-04 4.5609615111249641e-03 0.0000000000000000e+00  1.2993812374226466e-04 4.6308674573450536e-03 0.0000000000000000e+00  1.0938976357123241e-04 4.6210993491613960e-03 0.0000000000000000e+00  1.3238138669017824e-04 4.6899980170047265e-03 0.0000000000000000e+00  1.1174007147712284e-04 4.6812199024573349e-03 0.0000000000000000e+00  1.3458765906533904e-04 4.7489576060782161e-03 0.0000000000000000e+00  1.1382445318503246e-04 4.7411907001420686e-03 0.0000000000000000e+00  1.3655979317436426e-04 4.8076233160094352e-03 0.0000000000000000e+00  1.1565165067052102e-04 4.8008770751017350e-03 0.0000000000000000e+00  1.3830790182593096e-04 4.8658705425099549e-03 0.0000000000000000e+00  1.1723983806891596e-04 4.8601457859816493e-03 0.0000000000000000e+00  1.3984667020289576e-04 4.9235736503260626e-03 0.0000000000000000e+00  1.1861276563356677e-04 4.9188662323551213e-03 0.0000000000000000e+00  1.4119250324377529e-04 4.9806045825855688e-03 0.0000000000000000e+00  1.1979542448159128e-04 4.9769088424558659e-03 0.0000000000000000e+00  1.4236118243509619e-04 5.0368293860847671e-03 0.0000000000000000e+00  1.2080986580569160e-04 5.0341403058232351e-03 0.0000000000000000e+00  1.4336700148353257e-04 5.0921029345272822e-03 0.0000000000000000e+00  1.2167241617778376e-04 5.0904154597538791e-03 0.0000000000000000e+00  1.4422453252571163e-04 5.1462627843042088e-03 0.0000000000000000e+00  1.2239420453904456e-04 5.1455666470743844e-03 0.0000000000000000e+00  1.4495388510311932e-04 5.1991237563371907e-03 0.0000000000000000e+00  1.2298711304048959e-04 5.1993929458254125e-03 0.0000000000000000e+00  1.4559017086047802e-04 5.2504751246791230e-03 0.0000000000000000e+00  1.2347599471775351e-04 5.2516505163011425e-03 0.0000000000000000e+00  1.4619873561414373e-04 5.3000807204540892e-03 0.0000000000000000e+00  1.2392281510422126e-04 5.3020411980366647e-03 0.0000000000000000e+00  1.4689862391311460e-04 5.3477021772999718e-03 0.0000000000000000e+00  1.2444945640790203e-04 5.3502153287087557e-03 0.0000000000000000e+00  1.4786007432029247e-04 5.3932041155042906e-03 0.0000000000000000e+00  1.2523390776853966e-04 5.3959643119635180e-03 0.0000000000000000e+00  1.2653653466703133e-04 5.4393176529423130e-03 0.0000000000000000e+00  1.2850835933517031e-04 5.4805633466060467e-03 0.0000000000000000e+00  1.3122373944251942e-04 5.5203061637653355e-03 0.0000000000000000e+00  5.4595644332775321e-05 3.7037853979088524e-03 0.0000000000000000e+00  5.9043910739738484e-05 3.7557924225711031e-03 0.0000000000000000e+00  3.8810009446319204e-05 3.7344127793339089e-03 0.0000000000000000e+00  3.4418562469233226e-05 3.6814926930599195e-03 0.0000000000000000e+00  6.3176170206437004e-05 3.8095232405863681e-03 0.0000000000000000e+00  4.2782950089608547e-05 3.7893047182220628e-03 0.0000000000000000e+00  6.6965055425349701e-05 3.8644663503520603e-03 0.0000000000000000e+00  4.6307539269590167e-05 3.8453583818560053e-03 0.0000000000000000e+00  7.0490925601723574e-05 3.9201921073897753e-03 0.0000000000000000e+00  4.9535082441987156e-05 3.9020043889747406e-03 0.0000000000000000e+00  7.3869144586566007e-05 3.9764454695557895e-03 0.0000000000000000e+00  5.2643913249386850e-05 3.9589860283111011e-03 0.0000000000000000e+00  7.7199393047591995e-05 4.0331123729358941e-03 0.0000000000000000e+00  5.5766642140354719e-05 4.0162439297135024e-03 0.0000000000000000e+00  8.0545684068679383e-05 4.0901639388765572e-03 0.0000000000000000e+00  5.8974642569043244e-05 4.0738141547829636e-03 0.0000000000000000e+00  8.3935693354270660e-05 4.1476098868787207e-03 0.0000000000000000e+00  6.2288379279493999e-05 4.1317604064112674e-03 0.0000000000000000e+00  8.7367568551791644e-05 4.2054702013335186e-03 0.0000000000000000e+00  6.5692636345674810e-05 4.1901425853289138e-03 0.0000000000000000e+00  6.9148419108512959e-05 4.2490042357363851e-03 0.0000000000000000e+00  7.2601254872412460e-05 4.3083663564574565e-03 0.0000000000000000e+00  7.5987553129050662e-05 4.3682232302459621e-03 0.0000000000000000e+00  7.9240474160804648e-05 4.4285392072660520e-03 0.0000000000000000e+00  8.2296484450565654e-05 4.4892460972262649e-03 0.0000000000000000e+00  8.5102614417135983e-05 4.5502431026307336e-03 0.0000000000000000e+00  8.7622149765989441e-05 4.6114030124990288e-03 0.0000000000000000e+00  8.9837250458000179e-05 4.6725820356425833e-03 0.0000000000000000e+00  9.1748662437788871e-05 4.7336295720450316e-03 0.0000000000000000e+00  9.3373326379772074e-05 4.7943959640716818e-03 0.0000000000000000e+00  9.4740496754987098e-05 4.8547376224533723e-03 0.0000000000000000e+00  9.5886698115328089e-05 4.9145191609458331e-03 0.0000000000000000e+00  9.6849796047448629e-05 4.9736119981818316e-03 0.0000000000000000e+00  9.7662571241298392e-05 5.0318887649525371e-03 0.0000000000000000e+00  9.8346845701298823e-05 5.0892120764101561e-03 0.0000000000000000e+00  9.8910999760680777e-05 5.1454176752855239e-03 0.0000000000000000e+00  9.9354909598890076e-05 5.2002944686979713e-03 0.0000000000000000e+00  9.9689405272296422e-05 5.2535656820139106e-03 0.0000000000000000e+00  9.9975516921102932e-05 5.3048481071592078e-03 0.0000000000000000e+00  1.0039318647084267e-04 5.3536642845744753e-03 0.0000000000000000e+00  1.0102572358651734e-04 5.3996835299631079e-03 0.0000000000000000e+00  1.0208098190993103e-04 5.4427977852378991e-03 0.0000000000000000e+00  1.0406483364239106e-04 5.4837638951697187e-03 0.0000000000000000e+00  1.0639151905494587e-04 5.5231078800100806e-03 0.0000000000000000e+00  1.1071301736765868e-04 5.5624747518470416e-03 0.0000000000000000e+00  2.5399352673690949e-05 3.5822327512794617e-03 0.0000000000000000e+00  2.9883876278857152e-05 3.6307436821143976e-03 0.0000000000000000e+00  8.2080347544078952e-06 3.6069867519930646e-03 0.0000000000000000e+00  1.2895785327852203e-05 3.6584537938288784e-03 0.0000000000000000e+00  1.7397430270981811e-05 3.7124253189564711e-03 0.0000000000000000e+00  2.1235210400944709e-05 3.7688511165111225e-03 0.0000000000000000e+00  2.4439249376666477e-05 3.8262569984052167e-03 0.0000000000000000e+00  2.7309423896578448e-05 3.8839029293691735e-03 0.0000000000000000e+00  3.0118290539750961e-05 3.9415927181081353e-03 0.0000000000000000e+00  3.3032465941851635e-05 3.9993789529163852e-03 0.0000000000000000e+00  3.6120219010869573e-05 4.0573992832130265e-03 0.0000000000000000e+00  3.9384118827246526e-05 4.1157878701452181e-03 0.0000000000000000e+00  4.2788465286135837e-05 4.1746505006339174e-03 0.0000000000000000e+00  4.6274893565390732e-05 4.2340616745882177e-03 0.0000000000000000e+00  4.9770750776443713e-05 4.2940635225727991e-03 0.0000000000000000e+00  5.3194736935905398e-05 4.3546634373771405e-03 0.0000000000000000e+00  5.6462488219451855e-05 4.4158307537858193e-03 0.0000000000000000e+00  5.9494384170310692e-05 4.4774921736643091e-03 0.0000000000000000e+00  6.2225655865790844e-05 4.5395303359096585e-03 0.0000000000000000e+00  6.4613980223847796e-05 4.6017940618755917e-03 0.0000000000000000e+00  6.6642199687266075e-05 4.6641136523311979e-03 0.0000000000000000e+00  6.8317163876328757e-05 4.7263147047315480e-03 0.0000000000000000e+00  6.9666346870739387e-05 4.7882283467725970e-03 0.0000000000000000e+00  7.0733091972431056e-05 4.8496980784500819e-03 0.0000000000000000e+00  7.1570602059460128e-05 4.9105832575523567e-03 0.0000000000000000e+00  7.2234549787616095e-05 4.9707585736061665e-03 0.0000000000000000e+00  7.2774307950826452e-05 5.0301087212448348e-03 0.0000000000000000e+00  7.3223593391161389e-05 5.0885153937770492e-03 0.0000000000000000e+00  7.3591357509533568e-05 5.1458327171623594e-03 0.0000000000000000e+00  7.3861910534161595e-05 5.2018540642115906e-03 0.0000000000000000e+00  7.4015291229001434e-05 5.2562652186356543e-03 0.0000000000000000e+00  7.4138609906422866e-05 5.3085659731059304e-03 0.0000000000000000e+00  7.4507679429890994e-05 5.3579785350160291e-03 0.0000000000000000e+00  7.5512108625487502e-05 5.4045308115966513e-03 0.0000000000000000e+00  7.6308616222246965e-05 5.4473961197626592e-03 0.0000000000000000e+00  7.7389347780113654e-05 5.4870992324906973e-03 0.0000000000000000e+00  8.0950809122582698e-05 5.5279118653236876e-03 0.0000000000000000e+00  7.9668242927977766e-05 5.5622332391964376e-03 0.0000000000000000e+00  7.9081448870761833e-05 5.5949896486498290e-03 0.0000000000000000e+00  -1.0004030164928011e-05 3.6344277909870853e-03 0.0000000000000000e+00  -5.2579803340976912e-06 3.6896212389415997e-03 0.0000000000000000e+00  -1.5901719515158111e-06 3.7482509849981142e-03 0.0000000000000000e+00  1.1897713082308719e-06 3.8073217713863574e-03 0.0000000000000000e+00  3.6411473432243939e-06 3.8660078680570089e-03 0.0000000000000000e+00  6.1474585469454821e-06 3.9243245608870320e-03 0.0000000000000000e+00  8.8904476039268027e-06 3.9825265639841486e-03 0.0000000000000000e+00  1.1911300610009680e-05 4.0408980367646072e-03 0.0000000000000000e+00  1.5178682859786915e-05 4.0996549189979371e-03 0.0000000000000000e+00  1.8629324423442657e-05 4.1589486721861860e-03 0.0000000000000000e+00  2.2183470483330515e-05 4.2188837773246913e-03 0.0000000000000000e+00  2.5749969881954880e-05 4.2795238799439046e-03 0.0000000000000000e+00  2.9229099033629219e-05 4.3408909153008325e-03 0.0000000000000000e+00  3.2516703727044342e-05 4.4029605565559619e-03 0.0000000000000000e+00  3.5513801453562136e-05 4.4656525465368857e-03 0.0000000000000000e+00  3.8141796601842432e-05 4.5288252614380945e-03 0.0000000000000000e+00  4.0352792621858301e-05 4.5922937001326870e-03 0.0000000000000000e+00  4.2131701582435702e-05 4.6558534584409308e-03 0.0000000000000000e+00  4.3493334987146914e-05 4.7192994981351726e-03 0.0000000000000000e+00  4.4477678799933134e-05 4.7824386126457960e-03 0.0000000000000000e+00  4.5144467897532351e-05 4.8450978307392175e-03 0.0000000000000000e+00  4.5566813941315230e-05 4.9071296678254335e-03 0.0000000000000000e+00  4.5822973206331369e-05 4.9684135097542775e-03 0.0000000000000000e+00  4.5984937394059997e-05 5.0288520562185987e-03 0.0000000000000000e+00  4.6105763446385171e-05 5.0883585787680746e-03 0.0000000000000000e+00  4.6206140640779382e-05 5.1468319685600257e-03 0.0000000000000000e+00  4.6248515143440968e-05 5.2040995285756037e-03 0.0000000000000000e+00  4.6166956298164257e-05 5.2598393808508843e-03 0.0000000000000000e+00  4.6008729637993285e-05 5.3132629193759712e-03 0.0000000000000000e+00  4.6557028700678961e-05 5.3632016931761317e-03 0.0000000000000000e+00  4.7807341040254059e-05 5.4092925455014084e-03 0.0000000000000000e+00  5.2234280667861024e-05 5.4544440666220682e-03 0.0000000000000000e+00  4.9484489359345366e-05 5.4918378984504740e-03 0.0000000000000000e+00  4.8584280099349965e-05 5.5275821413764518e-03 0.0000000000000000e+00  4.7966348237262927e-05 5.5619267099918917e-03 0.0000000000000000e+00  4.7602904921375114e-05 5.5948206078260390e-03 0.0000000000000000e+00  4.7504628195348555e-05 5.6265384137098272e-03 0.0000000000000000e+00  -2.9330092047397409e-05 3.6656499819765257e-03 0.0000000000000000e+00  -2.5919410875226109e-05 3.7277440237501675e-03 0.0000000000000000e+00  -2.3695524859213260e-05 3.7888065445393386e-03 0.0000000000000000e+00  -2.1681245568949437e-05 3.8484583630235517e-03 0.0000000000000000e+00  -1.9410919718090653e-05 3.9072202838646578e-03 0.0000000000000000e+00  -1.6737396473245784e-05 3.9656628999687644e-03 0.0000000000000000e+00  -1.3683983612237866e-05 4.0242595728678899e-03 0.0000000000000000e+00  -1.0332319273911127e-05 4.0833020110394476e-03 0.0000000000000000e+00  -6.7750406661253942e-06 4.1429754227399846e-03 0.0000000000000000e+00  -3.1098265893677301e-06 4.2034090601963253e-03 0.0000000000000000e+00  5.5735491844885313e-07 4.2646881338097350e-03 0.0000000000000000e+00  4.1098119970294965e-06 4.3268523655460266e-03 0.0000000000000000e+00  7.4213014973492794e-06 4.3898881684358727e-03 0.0000000000000000e+00  1.0368822667104132e-05 4.4537073924550506e-03 0.0000000000000000e+00  1.2857642577637642e-05 4.5181323073805249e-03 0.0000000000000000e+00  1.4835218895908496e-05 4.5829301310108877e-03 0.0000000000000000e+00  1.6290813962587122e-05 4.6478509111496404e-03 0.0000000000000000e+00  1.7249197614615241e-05 4.7126514923830970e-03 0.0000000000000000e+00  1.7764057391585941e-05 4.7771088228218050e-03 0.0000000000000000e+00  1.7912169083003411e-05 4.8410290568533668e-03 0.0000000000000000e+00  1.7787595773120451e-05 4.9042546563444747e-03 0.0000000000000000e+00  1.7494195180291971e-05 4.9666692589942357e-03 0.0000000000000000e+00  1.7131825523548957e-05 5.0281998779075033e-03 0.0000000000000000e+00  1.6775517866392535e-05 5.0888039883025139e-03 0.0000000000000000e+00  1.6458933774551409e-05 5.1484492351711528e-03 0.0000000000000000e+00  1.6151718521801541e-05 5.2070957590263176e-03 0.0000000000000000e+00  1.5612725337318425e-05 5.2644457160470311e-03 0.0000000000000000e+00  1.4966353267120428e-05 5.3194756939144595e-03 0.0000000000000000e+00  1.4818722019803584e-05 5.3690570329819913e-03 0.0000000000000000e+00  1.7915900364748974e-05 5.4162747857457770e-03 0.0000000000000000e+00  1.6431509269732253e-05 5.4544341166008056e-03 0.0000000000000000e+00  1.5849799607544592e-05 5.4912637274950856e-03 0.0000000000000000e+00  1.5161418697058237e-05 5.5272972692645903e-03 0.0000000000000000e+00  1.4859696696903771e-05 5.5617971462880583e-03 0.0000000000000000e+00  1.4843509101988348e-05 5.5948729828698722e-03 0.0000000000000000e+00  1.5050353786012073e-05 5.6267204482260118e-03 0.0000000000000000e+00  1.5575222980532983e-05 5.6575133171463503e-03 0.0000000000000000e+00  -5.2237401760618705e-05 3.7078719464495248e-03 0.0000000000000000e+00  -5.0600816996109881e-05 3.7710570714500390e-03 0.0000000000000000e+00  -4.8879696318908367e-05 3.8313705681496239e-03 0.0000000000000000e+00  -4.6644347491880677e-05 3.8902636747096563e-03 0.0000000000000000e+00  -4.3850563418352245e-05 3.9487107707129208e-03 0.0000000000000000e+00  -4.0620514097357012e-05 4.0073977610394808e-03 0.0000000000000000e+00  -3.7088584094469624e-05 4.0666497138924784e-03 0.0000000000000000e+00  -3.3364292852147888e-05 4.1266574721881659e-03 0.0000000000000000e+00  -2.9550696030753117e-05 4.1875674008415480e-03 0.0000000000000000e+00  -2.5759857980113309e-05 4.2494881199599179e-03 0.0000000000000000e+00  -2.2121703833054197e-05 4.3124846441289040e-03 0.0000000000000000e+00  -1.8787988071195316e-05 4.3765651694482035e-03 0.0000000000000000e+00  -1.5913424172309918e-05 4.4416349791754801e-03 0.0000000000000000e+00  -1.3611219400558718e-05 4.5074601693587376e-03 0.0000000000000000e+00  -1.1935536329129276e-05 4.5737400914429883e-03 0.0000000000000000e+00  -1.0888844421248916e-05 4.6401667505993590e-03 0.0000000000000000e+00  -1.0434209465688112e-05 4.7064519076768351e-03 0.0000000000000000e+00  -1.0504142163248075e-05 4.7723377856958224e-03 0.0000000000000000e+00  -1.1006511467248011e-05 4.8376051280079151e-03 0.0000000000000000e+00  -1.1828930289884822e-05 4.9020812975853851e-03 0.0000000000000000e+00  -1.2843033362209477e-05 4.9656493685400422e-03 0.0000000000000000e+00  -1.3916983905011849e-05 5.0282644275595808e-03 0.0000000000000000e+00  -1.4944123305065011e-05 5.0899510439852613e-03 0.0000000000000000e+00  -1.5900890629169180e-05 5.1507646130602566e-03 0.0000000000000000e+00  -1.6857411337529499e-05 5.2108202277626140e-03 0.0000000000000000e+00  -1.7900185601059923e-05 5.2704031275686049e-03 0.0000000000000000e+00  -1.9759250660448312e-05 5.3271037821487153e-03 0.0000000000000000e+00  -1.8100544832566388e-05 5.3772442039403756e-03 0.0000000000000000e+00  -1.8857238499032114e-05 5.4161544534207266e-03 0.0000000000000000e+00  -1.9382905954267217e-05 5.4541560083890125e-03 0.0000000000000000e+00  -1.9769085712585362e-05 5.4911058233446846e-03 0.0000000000000000e+00  -1.9913755537265937e-05 5.5272273882176343e-03 0.0000000000000000e+00  -1.9830103076287961e-05 5.5618877602402386e-03 0.0000000000000000e+00  -1.9422071998422837e-05 5.5951403472882253e-03 0.0000000000000000e+00  -1.7501002911959814e-05 5.6267985950102777e-03 0.0000000000000000e+00  -2.1537878580695830e-05 5.6649303396819660e-03 0.0000000000000000e+00  -2.6652057076178360e-05 5.7023935417912916e-03 0.0000000000000000e+00  -7.9910880271759563e-05 3.7544199743743557e-03 0.0000000000000000e+00  -7.8000260271039664e-05 3.8147561771567731e-03 0.0000000000000000e+00  -7.5439520275643755e-05 3.8733472139234788e-03 0.0000000000000000e+00  -7.2277150369261448e-05 3.9315286921654986e-03 0.0000000000000000e+00  -6.8725616969881478e-05 3.9901994056508279e-03 0.0000000000000000e+00  -6.4941167182646267e-05 4.0496122858570205e-03 0.0000000000000000e+00  -6.1017093202739433e-05 4.1099218809844840e-03 0.0000000000000000e+00  -5.7042296054844682e-05 4.1712887457847903e-03 0.0000000000000000e+00  -5.3124320062321198e-05 4.2338516468803412e-03 0.0000000000000000e+00  -4.9401979200318293e-05 4.2977157015750000e-03 0.0000000000000000e+00  -4.6059505078371387e-05 4.3629350269734114e-03 0.0000000000000000e+00  -4.3296925967862675e-05 4.4294140432580703e-03 0.0000000000000000e+00  -4.1246699487555590e-05 4.4968250153361476e-03 0.0000000000000000e+00  -3.9956833937808676e-05 4.5647706355818165e-03 0.0000000000000000e+00  -3.9415026851485927e-05 4.6328724818304095e-03 0.0000000000000000e+00  -3.9570082433592134e-05 4.7007928531438321e-03 0.0000000000000000e+00  -4.0341975024915772e-05 4.7682363029874541e-03 0.0000000000000000e+00  -4.1627086039711563e-05 4.8349547508252108e-03 0.0000000000000000e+00  -4.3301151154245808e-05 4.9007545903979816e-03 0.0000000000000000e+00  -4.5218635210164172e-05 4.9655070318054950e-03 0.0000000000000000e+00  -4.7219592452241342e-05 5.0291860349578827e-03 0.0000000000000000e+00  -4.9146725351431154e-05 5.0918971902941994e-03 0.0000000000000000e+00  -5.0927715415916858e-05 5.1538946279107095e-03 0.0000000000000000e+00  -5.2902432214693753e-05 5.2154448595381426e-03 0.0000000000000000e+00  -5.5499169972763110e-05 5.2769124729292642e-03 0.0000000000000000e+00  -5.5570581796789759e-05 5.3379377273768290e-03 0.0000000000000000e+00  -5.5590413256796000e-05 5.3768190223768319e-03 0.0000000000000000e+00  -5.5952565726771251e-05 5.4158871147859796e-03 0.0000000000000000e+00  -5.6264863920968193e-05 5.4539838326318375e-03 0.0000000000000000e+00  -5.6358686873105205e-05 5.4911119915739340e-03 0.0000000000000000e+00  -5.6318363136159047e-05 5.5272858484123593e-03 0.0000000000000000e+00  -5.5721554521784208e-05 5.5620787342949563e-03 0.0000000000000000e+00  -5.6896287395465240e-05 5.5998407417406854e-03 0.0000000000000000e+00  -5.9339184476709620e-05 5.6352089888086817e-03 0.0000000000000000e+00  -6.3252898269581083e-05 5.6738408986034194e-03 0.0000000000000000e+00  -6.7578633488868509e-05 5.7118298560492626e-03 0.0000000000000000e+00  -7.2188161363223829e-05 5.7487700773999183e-03 0.0000000000000000e+00  -1.0833919288780537e-04 3.7984856057605180e-03 0.0000000000000000e+00  -1.0521929328955327e-04 3.8562983922041287e-03 0.0000000000000000e+00  -1.0157144056191806e-04 3.9139400320514313e-03 