<?xml version="1.0"?>
<VTKFile type="UnstructuredGrid"  version="0.1"  >
<UnstructuredGrid>
<Piece  NumberOfPoints="629" NumberOfCells="1162">
<Points>
<DataArray  type="Float64"  NumberOfComponents="3"  format="ascii">0.7104347826086956 0 0  0.7269565217391304 0 0  0.7269565217391304 0.01666666666666667 0  0.7104347826086956 0.01666666666666667 0  0.7434782608695653 0 0  0.7434782608695653 0.01666666666666667 0  0.7599999999999999 0 0  0.7599999999999999 0.01666666666666667 0  0.7765217391304348 0 0  0.7765217391304348 0.01666666666666667 0  0.7930434782608695 0 0  0.7930434782608695 0.01666666666666667 0  0.8095652173913043 0 0  0.8095652173913043 0.01666666666666667 0  0.8260869565217391 0 0  0.8260869565217391 0.01666666666666667 0  0.8426086956521739 0 0  0.8426086956521739 0.01666666666666667 0  0.8591304347826086 0 0  0.8591304347826086 0.01666666666666667 0  0.8756521739130434 0 0  0.8756521739130434 0.01666666666666667 0  0.8921739130434783 0 0  0.8921739130434783 0.01666666666666667 0  0.908695652173913 0 0  0.908695652173913 0.01666666666666667 0  0.9252173913043478 0 0  0.9252173913043478 0.01666666666666667 0  0.9417391304347826 0 0  0.9417391304347826 0.01666666666666667 0  0.9582608695652173 0 0  0.9582608695652173 0.01666666666666667 0  0.9747826086956521 0 0  0.9747826086956521 0.01666666666666667 0  0.991304347826087 0 0  0.991304347826087 0.01666666666666667 0  1.007826086956522 0 0  1.007826086956522 0.01666666666666667 0  1.024347826086957 0 0  1.024347826086957 0.01666666666666667 0  0.7269565217391304 0.03333333333333333 0  0.7104347826086956 0.03333333333333333 0  0.7434782608695653 0.03333333333333333 0  0.7599999999999999 0.03333333333333333 0  0.7765217391304348 0.03333333333333333 0  0.7930434782608695 0.03333333333333333 0  0.8095652173913043 0.03333333333333333 0  0.8260869565217391 0.03333333333333333 0  0.8426086956521739 0.03333333333333333 0  0.8591304347826086 0.03333333333333333 0  0.8756521739130434 0.03333333333333333 0  0.8921739130434783 0.03333333333333333 0  0.908695652173913 0.03333333333333333 0  0.9252173913043478 0.03333333333333333 0  0.9417391304347826 0.03333333333333333 0  0.9582608695652173 0.03333333333333333 0  0.9747826086956521 0.03333333333333333 0  0.991304347826087 0.03333333333333333 0  1.007826086956522 0.03333333333333333 0  1.024347826086957 0.03333333333333333 0  1.040869565217391 0.03333333333333333 0  0.7269565217391304 0.05 0  0.7434782608695653 0.05 0  0.7599999999999999 0.05 0  0.7765217391304348 0.05 0  0.7930434782608695 0.05 0  0.8095652173913043 0.05 0  0.8260869565217391 0.05 0  0.8426086956521739 0.05 0  0.8591304347826086 0.05 0  0.8756521739130434 0.05 0  0.8921739130434783 0.05 0  0.908695652173913 0.05 0  0.9252173913043478 0.05 0  0.9417391304347826 0.05 0  0.9582608695652173 0.05 0  0.9747826086956521 0.05 0  0.991304347826087 0.05 0  1.007826086956522 0.05 0  1.024347826086957 0.05 0  1.040869565217391 0.05 0  1.057391304347826 0.05 0  0.7434782608695653 0.06666666666666667 0  0.7599999999999999 0.06666666666666667 0  0.7765217391304348 0.06666666666666667 0  0.7930434782608695 0.06666666666666667 0  0.8095652173913043 0.06666666666666667 0  0.8260869565217391 0.06666666666666667 0  0.8426086956521739 0.06666666666666667 0  0.8591304347826086 0.06666666666666667 0  0.8756521739130434 0.06666666666666667 0  0.8921739130434783 0.06666666666666667 0  0.908695652173913 0.06666666666666667 0  0.9252173913043478 0.06666666666666667 0  0.9417391304347826 0.06666666666666667 0  0.9582608695652173 0.06666666666666667 0  0.9747826086956521 0.06666666666666667 0  0.991304347826087 0.06666666666666667 0  1.007826086956522 0.06666666666666667 0  1.024347826086957 0.06666666666666667 0  1.040869565217391 0.06666666666666667 0  1.057391304347826 0.06666666666666667 0  1.073913043478261 0.06666666666666667 0  0.7599999999999999 0.08333333333333333 0  0.7765217391304348 0.08333333333333333 0  0.7930434782608695 0.08333333333333333 0  0.8095652173913043 0.08333333333333333 0  0.8260869565217391 0.08333333333333333 0  0.8426086956521739 0.08333333333333333 0  0.8591304347826086 0.08333333333333333 0  0.8756521739130434 0.08333333333333333 0  0.8921739130434783 0.08333333333333333 0  0.908695652173913 0.08333333333333333 0  0.9252173913043478 0.08333333333333333 0  0.9417391304347826 0.08333333333333333 0  0.9582608695652173 0.08333333333333333 0  0.9747826086956521 0.08333333333333333 0  0.991304347826087 0.08333333333333333 0  1.007826086956522 0.08333333333333333 0  1.024347826086957 0.08333333333333333 0  1.040869565217391 0.08333333333333333 0  1.057391304347826 0.08333333333333333 0  1.073913043478261 0.08333333333333333 0  1.090434782608696 0.08333333333333333 0  0.7765217391304348 0.1 0  0.7930434782608695 0.1 0  0.8095652173913043 0.1 0  0.8260869565217391 0.1 0  0.8426086956521739 0.1 0  0.8591304347826086 0.1 0  0.8756521739130434 0.1 0  0.8921739130434783 0.1 0  0.908695652173913 0.1 0  0.9252173913043478 0.1 0  0.9417391304347826 0.1 0  0.9582608695652173 0.1 0  0.9747826086956521 0.1 0  0.991304347826087 0.1 0  1.007826086956522 0.1 0  1.024347826086957 0.1 0  1.040869565217391 0.1 0  1.057391304347826 0.1 0  1.073913043478261 0.1 0  1.090434782608696 0.1 0  1.10695652173913 0.1 0  0.7930434782608695 0.1166666666666667 0  0.8095652173913043 0.1166666666666667 0  0.8260869565217391 0.1166666666666667 0  0.8426086956521739 0.1166666666666667 0  0.8591304347826086 0.1166666666666667 0  0.8756521739130434 0.1166666666666667 0  0.8921739130434783 0.1166666666666667 0  0.908695652173913 0.1166666666666667 0  0.9252173913043478 0.1166666666666667 0  0.9417391304347826 0.1166666666666667 0  0.9582608695652173 0.1166666666666667 0  0.9747826086956521 0.1166666666666667 0  0.991304347826087 0.1166666666666667 0  1.007826086956522 0.1166666666666667 0  1.024347826086957 0.1166666666666667 0  1.040869565217391 0.1166666666666667 0  1.057391304347826 0.1166666666666667 0  1.073913043478261 0.1166666666666667 0  1.090434782608696 0.1166666666666667 0  1.10695652173913 0.1166666666666667 0  1.123478260869565 0.1166666666666667 0  0.8095652173913043 0.1333333333333333 0  0.8260869565217391 0.1333333333333333 0  0.8426086956521739 0.1333333333333333 0  0.8591304347826086 0.1333333333333333 0  0.8756521739130434 0.1333333333333333 0  0.8921739130434783 0.1333333333333333 0  0.908695652173913 0.1333333333333333 0  0.9252173913043478 0.1333333333333333 0  0.9417391304347826 0.1333333333333333 0  0.9582608695652173 0.1333333333333333 0  0.9747826086956521 0.1333333333333333 0  0.991304347826087 0.1333333333333333 0  1.007826086956522 0.1333333333333333 0  1.024347826086957 0.1333333333333333 0  1.040869565217391 0.1333333333333333 0  1.057391304347826 0.1333333333333333 0  1.073913043478261 0.1333333333333333 0  1.090434782608696 0.1333333333333333 0  1.10695652173913 0.1333333333333333 0  1.123478260869565 0.1333333333333333 0  1.14 0.1333333333333333 0  0.8260869565217391 0.15 0  0.8426086956521739 0.15 0  0.8591304347826086 0.15 0  0.8756521739130434 0.15 0  0.8921739130434783 0.15 0  0.908695652173913 0.15 0  0.9252173913043478 0.15 0  0.9417391304347826 0.15 0  0.9582608695652173 0.15 0  0.9747826086956521 0.15 0  0.991304347826087 0.15 0  1.007826086956522 0.15 0  1.024347826086957 0.15 0  1.040869565217391 0.15 0  1.057391304347826 0.15 0  1.073913043478261 0.15 0  1.090434782608696 0.15 0  1.10695652173913 0.15 0  1.123478260869565 0.15 0  1.14 0.15 0  1.156521739130435 0.15 0  0.8426086956521739 0.1666666666666667 0  0.8591304347826086 0.1666666666666667 0  0.8756521739130434 0.1666666666666667 0  0.8921739130434783 0.1666666666666667 0  0.908695652173913 0.1666666666666667 0  0.9252173913043478 0.1666666666666667 0  0.9417391304347826 0.1666666666666667 0  0.9582608695652173 0.1666666666666667 0  0.9747826086956521 0.1666666666666667 0  0.991304347826087 0.1666666666666667 0  1.007826086956522 0.1666666666666667 0  1.024347826086957 0.1666666666666667 0  1.040869565217391 0.1666666666666667 0  1.057391304347826 0.1666666666666667 0  1.073913043478261 0.1666666666666667 0  1.090434782608696 0.1666666666666667 0  1.10695652173913 0.1666666666666667 0  1.123478260869565 0.1666666666666667 0  1.14 0.1666666666666667 0  1.156521739130435 0.1666666666666667 0  1.17304347826087 0.1666666666666667 0  0.8591304347826086 0.1833333333333333 0  0.8756521739130434 0.1833333333333333 0  0.8921739130434783 0.1833333333333333 0  0.908695652173913 0.1833333333333333 0  0.9252173913043478 0.1833333333333333 0  0.9417391304347826 0.1833333333333333 0  0.9582608695652173 0.1833333333333333 0  0.9747826086956521 0.1833333333333333 0  0.991304347826087 0.1833333333333333 0  1.007826086956522 0.1833333333333333 0  1.024347826086957 0.1833333333333333 0  1.040869565217391 0.1833333333333333 0  1.057391304347826 0.1833333333333333 0  1.073913043478261 0.1833333333333333 0  1.090434782608696 0.1833333333333333 0  1.10695652173913 0.1833333333333333 0  1.123478260869565 0.1833333333333333 0  1.14 0.1833333333333333 0  1.156521739130435 0.1833333333333333 0  1.17304347826087 0.1833333333333333 0  1.189565217391304 0.1833333333333333 0  0.8756521739130434 0.2 0  0.8921739130434783 0.2 0  0.908695652173913 0.2 0  0.9252173913043478 0.2 0  0.9417391304347826 0.2 0  0.9582608695652173 0.2 0  0.9747826086956521 0.2 0  0.991304347826087 0.2 0  1.007826086956522 0.2 0  1.024347826086957 0.2 0  1.040869565217391 0.2 0  1.057391304347826 0.2 0  1.073913043478261 0.2 0  1.090434782608696 0.2 0  1.10695652173913 0.2 0  1.123478260869565 0.2 0  1.14 0.2 0  1.156521739130435 0.2 0  1.17304347826087 0.2 0  1.189565217391304 0.2 0  1.206086956521739 0.2 0  0.8921739130434783 0.2166666666666667 0  0.908695652173913 0.2166666666666667 0  0.9252173913043478 0.2166666666666667 0  0.9417391304347826 0.2166666666666667 0  0.9582608695652173 0.2166666666666667 0  0.9747826086956521 0.2166666666666667 0  0.991304347826087 0.2166666666666667 0  1.007826086956522 0.2166666666666667 0  1.02434782608
[...]
<PointData  Vectors="Displacement"> 
<DataArray  type="Float64"  Name="Displacement"  NumberOfComponents="3" format="ascii">1.0716039302673035e-04 9.4710429810579530e-04 0.0000000000000000e+00  1.0907097555354922e-04 9.6423455155316849e-04 0.0000000000000000e+00  9.1685212860947334e-05 9.6359215573032315e-04 0.0000000000000000e+00  8.9705310934838867e-05 9.4647456750659097e-04 0.0000000000000000e+00  1.1103064266224814e-04 9.8143099049289965e-04 0.0000000000000000e+00  9.3605888288905115e-05 9.8078590736287090e-04 0.0000000000000000e+00  1.1300906813711389e-04 9.9872479972981697e-04 0.0000000000000000e+00  9.5503820062816844e-05 9.9807958313144094e-04 0.0000000000000000e+00  1.1499295406776265e-04 1.0161200016073522e-03 0.0000000000000000e+00  9.7393547779983585e-05 1.0154750888201685e-03 0.0000000000000000e+00  1.1697727044450920e-04 1.0336154866540952e-03 0.0000000000000000e+00  9.9280440675394597e-05 1.0329709531147647e-03 0.0000000000000000e+00  1.1896023439581005e-04 1.0512091698802980e-03 0.0000000000000000e+00  1.0116636753874923e-04 1.0505650357298501e-03 0.0000000000000000e+00  1.2094125126466491e-04 1.0688988285971772e-03 0.0000000000000000e+00  1.0305192346711692e-04 1.0682550956344179e-03 0.0000000000000000e+00  1.2292014409223513e-04 1.0866823249539223e-03 0.0000000000000000e+00  1.0493726593304945e-04 1.0860389838236088e-03 0.0000000000000000e+00  1.2489686375834679e-04 1.1045576230235717e-03 0.0000000000000000e+00  1.0682243410186939e-04 1.1039146648198846e-03 0.0000000000000000e+00  1.2687138715746272e-04 1.1225227122101148e-03 0.0000000000000000e+00  1.0870745438823867e-04 1.1218801306570191e-03 0.0000000000000000e+00  1.2884369019247223e-04 1.1405755483629490e-03 0.0000000000000000e+00  1.1059236188180199e-04 1.1399333354653227e-03 0.0000000000000000e+00  1.3081373873526122e-04 1.1587140219617360e-03 0.0000000000000000e+00  1.1247720840403323e-04 1.1580721724385667e-03 0.0000000000000000e+00  1.3278148756740946e-04 1.1769359122757719e-03 0.0000000000000000e+00  1.1436206037081467e-04 1.1762944282781328e-03 0.0000000000000000e+00  1.3474689098660409e-04 1.1952388647738317e-03 0.0000000000000000e+00  1.1624697877978460e-04 1.1945977517263896e-03 0.0000000000000000e+00  1.3670991391963807e-04 1.2136204238640137e-03 0.0000000000000000e+00  1.1813200382575503e-04 1.2129796853532944e-03 0.0000000000000000e+00  1.3867053428397202e-04 1.2320780832639419e-03 0.0000000000000000e+00  1.2001715685624288e-04 1.2314377187275104e-03 0.0000000000000000e+00  1.4062873780894397e-04 1.2506093189876587e-03 0.0000000000000000e+00  1.2190245231391966e-04 1.2499693226481266e-03 0.0000000000000000e+00  1.4258450947242355e-04 1.2692115951895727e-03 0.0000000000000000e+00  1.2378791296425369e-04 1.2685719552598506e-03 0.0000000000000000e+00  1.4453782482477765e-04 1.2878823445650076e-03 0.0000000000000000e+00  1.2567358507355674e-04 1.2872430404909745e-03 0.0000000000000000e+00  7.4477861445072704e-05 9.6295198412620314e-04 0.0000000000000000e+00  7.2699313360959715e-05 9.4583258688288427e-04 0.0000000000000000e+00  7.6244369311581219e-05 9.8016066164431279e-04 0.0000000000000000e+00  7.8020403506797692e-05 9.9746303703406795e-04 0.0000000000000000e+00  7.9801562060538063e-05 1.0148618481171131e-03 0.0000000000000000e+00  8.1586117903335289e-05 1.0323586680237680e-03 0.0000000000000000e+00  8.3373435533732658e-05 1.0499528649237193e-03 0.0000000000000000e+00  8.5163127785642308e-05 1.0676427800104808e-03 0.0000000000000000e+00  8.6954849671904878e-05 1.0854264385501764e-03 0.0000000000000000e+00  8.8748417224984784e-05 1.1033018411038193e-03 0.0000000000000000e+00  9.0543858212403477e-05 1.1212669982870456e-03 0.0000000000000000e+00  9.2341265943167759e-05 1.1393198645869085e-03 0.0000000000000000e+00  9.4140758066968129e-05 1.1574583144154764e-03 0.0000000000000000e+00  9.5942550058718460e-05 1.1756801382946692e-03 0.0000000000000000e+00  9.7746869124402692e-05 1.1939830072804484e-03 0.0000000000000000e+00  9.9553838322479808e-05 1.2123644767902677e-03 0.0000000000000000e+00  1.0136349636914504e-04 1.2308220398667860e-03 0.0000000000000000e+00  1.0317584995180193e-04 1.2493531622975518e-03 0.0000000000000000e+00  1.0499092190114564e-04 1.2679552886033553e-03 0.0000000000000000e+00  1.0680879340930074e-04 1.2866258222466109e-03 0.0000000000000000e+00  1.0862962935074030e-04 1.3053620788747034e-03 0.0000000000000000e+00  5.7705866091414540e-05 9.5572229886731143e-04 0.0000000000000000e+00  5.9832010698923876e-05 9.7566669705225330e-04 0.0000000000000000e+00  6.1153979781237793e-05 9.9611178856723911e-04 0.0000000000000000e+00  6.2518515163389825e-05 1.0139393513770155e-03 0.0000000000000000e+00  6.4195907615946542e-05 1.0314568768020303e-03 0.0000000000000000e+00  6.5940921073349030e-05 1.0490219277588927e-03 0.0000000000000000e+00  6.7661523949835044e-05 1.0667221725349830e-03 0.0000000000000000e+00  6.9314925497266790e-05 1.0845809848910939e-03 0.0000000000000000e+00  7.0933736533421567e-05 1.1025445713396514e-03 0.0000000000000000e+00  7.2573757724464700e-05 1.1205673920508189e-03 0.0000000000000000e+00  7.4244674839268318e-05 1.1386515200802847e-03 0.0000000000000000e+00  7.5940698423271712e-05 1.1568047238054583e-03 0.0000000000000000e+00  7.7663848888795715e-05 1.1750274500600452e-03 0.0000000000000000e+00  7.9419587179177330e-05 1.1933180964908135e-03 0.0000000000000000e+00  8.1215297449904335e-05 1.2116743146069449e-03 0.0000000000000000e+00  8.3058052305768349e-05 1.2300943186015201e-03 0.0000000000000000e+00  8.4955993772612245e-05 1.2485767100221708e-03 0.0000000000000000e+00  8.6937944094125493e-05 1.2671142562429316e-03 0.0000000000000000e+00  8.9090355423438567e-05 1.2856851322006371e-03 0.0000000000000000e+00  9.1602502007854579e-05 1.3042441151123990e-03 0.0000000000000000e+00  9.4765125840516736e-05 1.3227158580813615e-03 0.0000000000000000e+00  4.5070915905831457e-05 9.6641671740078407e-04 0.0000000000000000e+00  4.7954222814861507e-05 9.8587126097214096e-04 0.0000000000000000e+00  5.0905341013570959e-05 1.0040262658428303e-03 0.0000000000000000e+00  5.3652495641609949e-05 1.0217234603013511e-03 0.0000000000000000e+00  5.6295533985689469e-05 1.0394420794684345e-03 0.0000000000000000e+00  5.8857457000633451e-05 1.0572986707066542e-03 0.0000000000000000e+00  6.1348110120698025e-05 1.0753152149666505e-03 0.0000000000000000e+00  6.3783860351425122e-05 1.0934542310251046e-03 0.0000000000000000e+00  6.6179534835500274e-05 1.1116821047112884e-03 0.0000000000000000e+00  6.8543869024734536e-05 1.1299974017017899e-03 0.0000000000000000e+00  7.0884358844985499e-05 1.1484021144619173e-03 0.0000000000000000e+00  7.3210003511316738e-05 1.1668924249928036e-03 0.0000000000000000e+00  7.5531663790707343e-05 1.1854632822088384e-03 0.0000000000000000e+00  7.7862531746360303e-05 1.2041091345572886e-03 0.0000000000000000e+00  8.0219438771118192e-05 1.2228238340760722e-03 0.0000000000000000e+00  8.2626330048425362e-05 1.2415980992404485e-03 0.0000000000000000e+00  8.5120653948223451e-05 1.2604123967411354e-03 0.0000000000000000e+00  8.7759188097537381e-05 1.2792308978878245e-03 0.0000000000000000e+00  9.0614434358209052e-05 1.2980033344588849e-03 0.0000000000000000e+00  9.3746190997589848e-05 1.3166871278689626e-03 0.0000000000000000e+00  9.7137978278744093e-05 1.3353132624202007e-03 0.0000000000000000e+00  3.5522780631107881e-05 9.7524989355333329e-04 0.0000000000000000e+00  3.9368778920870301e-05 9.9342235330489802e-04 0.0000000000000000e+00  4.3054257861851600e-05 1.0113343940030106e-03 0.0000000000000000e+00  4.6560491200767874e-05 1.0292439802856320e-03 0.0000000000000000e+00  4.9927392966788326e-05 1.0472826434782903e-03 0.0000000000000000e+00  5.3180691980177798e-05 1.0654849076153028e-03 0.0000000000000000e+00  5.6337808557424898e-05 1.0838331152434961e-03 0.0000000000000000e+00  5.9408668978406807e-05 1.1023029528412114e-03 0.0000000000000000e+00  6.2400887762149206e-05 1.1208844552828292e-03 0.0000000000000000e+00  6.5325016723690469e-05 1.1395719666876553e-03 0.0000000000000000e+00  6.8193846025123400e-05 1.1583581845992237e-03 0.0000000000000000e+00  7.1021355126225393e-05 1.1772351593570098e-03 0.0000000000000000e+00  7.3823048938236467e-05 1.1961944778728002e-03 0.0000000000000000e+00  7.6616742914031034e-05 1.2152264072532804e-03 0.0000000000000000e+00  7.9423676880111208e-05 1.2343174627944588e-03 0.0000000000000000e+00  8.2268813022367778e-05 1.2534465296559481e-03 0.0000000000000000e+00  8.5177804543903139e-05 1.2725840255924192e-03 0.0000000000000000e+00  8.8168070443928089e-05 1.2917000171467398e-03 0.0000000000000000e+00  9.1233265172500168e-05 1.3107879366264907e-03 0.0000000000000000e+00  9.4328318473194020e-05 1.3299052487246495e-03 0.0000000000000000e+00  9.7374586894278246e-05 1.3491911015902035e-03 0.0000000000000000e+00  2.8196429563083389e-05 9.8236436378302660e-04 0.0000000000000000e+00  3.2605476947895095e-05 1.0003821890426103e-03 0.0000000000000000e+00  3.6854803254634292e-05 1.0184714712095872e-03 0.0000000000000000e+00  4.0939848235708204e-05 1.0367125670479197e-03 0.0000000000000000e+00  4.4873715293027096e-05 1.0551348279757833e-03 0.0000000000000000e+00  4.8669487001213720e-05 1.0737285088539671e-03 0.0000000000000000e+00  5.2336824325521906e-05 1.0924728411317902e-03 0.0000000000000000e+00  5.5884842401861818e-05 1.1113515754767184e-03 0.0000000000000000e+00  5.9325319166603410e-05 1.1303520598428690e-03 0.0000000000000000e+00  6.2672202929333696e-05 1.1494630611888549e-03 0.0000000000000000e+00  6.5940210590417916e-05 1.1686743476212525e-03 0.0000000000000000e+00  6.9144232432154836e-05 1.1879759963732679e-03 0.0000000000000000e+00  7.2299115127312394e-05 1.2073572697884379e-03 0.0000000000000000e+00  7.5419237868830350e-05 1.2268049704696649e-03 0.0000000000000000e+00  7.8516945603489044e-05 1.2463021351870991e-03 0.0000000000000000e+00  8.1598813489666295e-05 1.2658300393407300e-03 0.0000000000000000e+00  8.4659824096567209e-05 1.2853768259610402e-03 0.0000000000000000e+00  8.7677781726362551e-05 1.3049544271685467e-03 0.0000000000000000e+00  9.0613702084365967e-05 1.3246182877773361e-03 0.0000000000000000e+00  9.3424504347474772e-05 1.3444648039822123e-03 0.0000000000000000e+00  9.6082667288744666e-05 1.3645786794767912e-03 0.0000000000000000e+00  2.2388883778326204e-05 9.8895481050522782e-04 0.0000000000000000e+00  2.7258682500904122e-05 1.0071909866634723e-03 0.0000000000000000e+00  3.1960798703756194e-05 1.0256413687361431e-03 0.0000000000000000e+00  3.6486422166289498e-05 1.0443113711568882e-03 0.0000000000000000e+00  4.0838712864095408e-05 1.0631842394662502e-03 0.0000000000000000e+00  4.5025076017246585e-05 1.0822350064172521e-03 0.0000000000000000e+00  4.9055588443667061e-05 1.1014408544514412e-03 0.0000000000000000e+00  5.2943007606188213e-05 1.1207831960766046e-03 0.0000000000000000e+00  5.6701587356431407e-05 1.1402473150271156e-03 0.0000000000000000e+00  6.0345509055748827e-05 1.1598215350198655e-03 0.0000000000000000e+00  6.3887753577202003e-05 1.1794959177490489e-03 0.0000000000000000e+00  6.7339298077728340e-05 1.1992608889672669e-03 0.0000000000000000e+00  7.0708214024941529e-05 1.2191060953681790e-03 0.0000000000000000e+00  7.3998135239565388e-05 1.2390203269344710e-03 0.0000000000000000e+00  7.7205870148036487e-05 1.2589941799779215e-03 0.0000000000000000e+00  8.0318906816560792e-05 1.2790267784584873e-03 0.0000000000000000e+00  8.3314869650203598e-05 1.2991358396093461e-03 0.0000000000000000e+00  8.6165869139747937e-05 1.3193653370267269e-03 0.0000000000000000e+00  8.8848764250368164e-05 1.3397772063045098e-03 0.0000000000000000e+00  9.1355282275094394e-05 1.3604183913167990e-03 0.0000000000000000e+00  9.3691020743084342e-05 1.3812860410585442e-03 0.0000000000000000e+00  1.7809414708249771e-05 9.9545340670440787e-04 0.0000000000000000e+00  2.3036117816009696e-05 1.0141189563380578e-03 0.0000000000000000e+00  2.8066691991708037e-05 1.0330608328392528e-03 0.0000000000000000e+00  3.2894328638891234e-05 1.0522442307777579e-03 0.0000000000000000e+00  3.7523208207508187e-05 1.0716326869225890e-03 0.0000000000000000e+00  4.1963739808574812e-05 1.0911948192158852e-03 0.0000000000000000e+00  4.6229632987851527e-05 1.1109064463548498e-03 0.0000000000000000e+00  5.0335422003171399e-05 1.1307502458084025e-03 0.0000000000000000e+00  5.4294472911475726e-05 1.1507142677335122e-03 0.0000000000000000e+00  5.8117624991568643e-05 1.1707899630815678e-03 0.0000000000000000e+00  6.1812295855722879e-05 1.1909703868216426e-03 0.0000000000000000e+00  6.5381749239397984e-05 1.2112490628266588e-03 0.0000000000000000e+00  6.8824248347381699e-05 1.2316201272539371e-03 0.0000000000000000e+00  7.2132141321498510e-05 1.2520805212958136e-03 0.0000000000000000e+00  7.5291552931366771e-05 1.2726344157166028e-03 0.0000000000000000e+00  7.8283933592848356e-05 1.2932984392670774e-03 0.0000000000000000e+00  8.1090609474860660e-05 1.3141034752469079e-03 0.0000000000000000e+00  8.3699637638766860e-05 1.3350863669904271e-03 0.0000000000000000e+00  8.6110660743095004e-05 1.3562699836992041e-03 0.0000000000000000e+00  8.8332454936166003e-05 1.3776450461012964e-03 0.0000000000000000e+00  9.0374317612178053e-05 1.3991705106118394e-03 0.0000000000000000e+00  1.4191713022465588e-05 1.0021836081858229e-03 0.0000000000000000e+00  1.9647966442639902e-05 1.0214251764267457e-03 0.0000000000000000e+00  2.4873358621245646e-05 1.0409513891847858e-03 0.0000000000000000e+00  2.9870404149722881e-05 1.0607088155634393e-03 0.0000000000000000e+00  3.4650566365281451e-05 1.0806554364131231e-03 0.0000000000000000e+00  3.9229076882588783e-05 1.1007616647658479e-03 0.0000000000000000e+00  4.3621158885278010e-05 1.1210087435549532e-03 0.0000000000000000e+00  4.7839556067700689e-05 1.1413859391443059e-03 0.0000000000000000e+00  5.1893143663130145e-05 1.1618875150727578e-03 0.0000000000000000e+00  5.5786284225085895e-05 1.1825102137539439e-03 0.0000000000000000e+00  5.9518603095465910e-05 1.2032517241400171e-03 0.0000000000000000e+00  6.3084969211900943e-05 1.2241105002823442e-03 0.0000000000000000e+00  6.6475736397368773e-05 1.2450871329782564e-03 0.0000000000000000e+00  6.9677663467754725e-05 1.2661869163682687e-03 0.0000000000000000e+00  7.2676121140306899e-05 1.2874222062259576e-03 0.0000000000000000e+00  7.5458834775668290e-05 1.3088118494155845e-03 0.0000000000000000e+00  7.8020159198250775e-05 1.3303746698267902e-03 0.0000000000000000e+00  8.0363225982854787e-05 1.3521176847339387e-03 0.0000000000000000e+00  8.2497539520264029e-05 1.3740266057512805e-03 0.0000000000000000e+00  8.4433240733895122e-05 1.3960663097987332e-03 0.0000000000000000e+00  8.6176413814025916e-05 1.4181890439186381e-03 0.0000000000000000e+00  1.1250199298467373e-05 1.0094406383954620e-03 0.0000000000000000e+00  1.6800755832464465e-05 1.0293466370898149e-03 0.0000000000000000e+00  2.2094969830494845e-05 1.0495055983053016e-03 0.0000000000000000e+00  2.7147509515397931e-05 1.0698637292472376e-03 0.0000000000000000e+00  3.1976442659288822e-05 1.0903869077665386e-03 0.0000000000000000e+00  3.6598394016713975e-05 1.1110567558907266e-03 0.0000000000000000e+00  4.1025787276434434e-05 1.1318657331333495e-03 0.0000000000000000e+00  4.5265670718660172e-05 1.1528125574613445e-03 0.0000000000000000e+00  4.9319586189458756e-05 1.1738986469090938e-03 0.0000000000000000e+00  5.3184040621371248e-05 1.1951259383395666e-03 0.0000000000000000e+00  5.6851305333204570e-05 1.2164961949705959e-03 0.0000000000000000e+00  6.0310505706949512e-05 1.2380116362437673e-03 0.0000000000000000e+00  6.3549188815534155e-05 1.2596762967916131e-03 0.0000000000000000e+00  6.6555592655439511e-05 1.2814969495485596e-03 0.0000000000000000e+00  6.9321508664483211e-05 1.3034819515000855e-03 0.0000000000000000e+00  7.1844888615635907e-05 1.3256367609516932e-03 0.0000000000000000e+00  7.4130663979095511e-05 1.3479571954082977e-03 0.0000000000000000e+00  7.6188732518398921e-05 1.3704245794178113e-03 0.0000000000000000e+00  7.8030055982852628e-05 1.3930062977873031e-03 0.0000000000000000e+00  7.9663259345275696e-05 1.4156604374043617e-03 0.0000000000000000e+00  8.1093186995492527e-05 1.4383408012766876e-03 0.0000000000000000e+00  8.6897029081507498e-06 1.0174693641364417e-03 0.0000000000000000e+00  1.4214136949138937e-05 1.0380646595455111e-03 0.0000000000000000e+00  1.9475815594083957e-05 1.0588597391121522e-03 0.0000000000000000e+00  2.4497517384984728e-05 1.0798182351292936e-03 0.0000000000000000e+00  2.9298111061912132e-05 1.1009251051849126e-03 0.0000000000000000e+00  3.3889871524050939e-05 1.1221787563535748e-03 0.0000000000000000e+00  3.8277861859378712e-05 1.1435844319435636e-03 0.0000000000000000e+00  4.2460588107197242e-05 1.1651493696134166e-03 0.0000000000000000e+00  4.6431321370967256e-05 1.1868798889430531e-03 0.0000000000000000e+00  5.0179696736121747e-05 1.2087802558549735e-03 0.0000000000000000e+00  5.3693446747455885e-05 1.2308528638349770e-03 0.0000000000000000e+00  5.6960311963254630e-05 1.2530990102473149e-03 0.0000000000000000e+00  5.9970174702325479e-05 1.2755193283171574e-03 0.0000000000000000e+00  6.2717225067037208e-05 1.2981128954953421e-03 0.0000000000000000e+00  6.5201562271175625e-05 1.3208745538771055e-03 0.0000000000000000e+00  6.7429389862655405e-05 1.3437913423065303e-03 0.0000000000000000e+00  6.9411388045445132e-05 1.3668402764851545e-03 0.0000000000000000e+00  7.1159912064619983e-05 1.3899890702992459e-03 0.0000000000000000e+00  7.2686331014422634e-05 1.4131989903780641e-03 0.0000000000000000e+00  7.3999348140394396e-05 1.4364278647919400e-03 0.0000000000000000e+00  7.5104318721884339e-05 1.4596319040644668e-03 0.0000000000000000e+00  6.2341797566144591e-06 1.0264278039542362e-03 0.0000000000000000e+00  1.1646686265525566e-05 1.0476827242408338e-03 0.0000000000000000e+00  1.6809009840396755e-05 1.0690895773758497e-03 0.0000000000000000e+00  2.1743008184471257e-05 1.0906412718798305e-03 0.0000000000000000e+00  2.6460656459392702e-05 1.1123459836965021e-03 0.0000000000000000e+00  3.0964439494510884e-05 1.1342181386236909e-03 0.0000000000000000e+00  3.5249120621252550e-05 1.1562721848744162e-03 0.0000000000000000e+00  3.9304092043261408e-05 1.1785190531643976e-03 0.0000000000000000e+00  4.3115783121267042e-05 1.2009648487734126e-03 0.0000000000000000e+00  4.6669914576417966e-05 1.2236109941427191e-03 0.0000000000000000e+00  4.9953596663296130e-05 1.2464549660387988e-03 0.0000000000000000e+00  5.2957285828396462e-05 1.2694908375909947e-03 0.0000000000000000e+00  5.5676455010670601e-05 1.2927090259620239e-03 0.0000000000000000e+00  5.8112609127769466e-05 1.3160951089567908e-03 0.0000000000000000e+00  6.0273204340958871e-05 1.3396283463339156e-03 0.0000000000000000e+00  6.2170324931610951e-05 1.3632810948136160e-03 0.0000000000000000e+00  6.3818530614286089e-05 1.3870198184427369e-03 0.0000000000000000e+00  6.5232589983041576e-05 1.4108071599109070e-03 0.0000000000000000e+00  6.6425574682103122e-05 1.4346039141583723e-03 0.0000000000000000e+00  6.7407397717588057e-05 1.4583699738243093e-03 0.0000000000000000e+00  6.8183752661673269e-05 1.4820637202660099e-03 0.0000000000000000e+00  3.6623397396592863e-06 1.0363714047654732e-03 0.0000000000000000e+00  8.9198287268498213e-06 1.0582324717003356e-03 0.0000000000000000e+00  1.3948945120563513e-05 1.0802289494126630e-03 0.0000000000000000e+00  1.8760741838513270e-05 1.1023838847142985e-03 0.0000000000000000e+00  2.3354024304846547e-05 1.1247241881436609e-03 0.0000000000000000e+00  2.7718639045498106e-05 1.1472731123451159e-03 0.0000000000000000e+00  3.1839071790549049e-05 1.1700464062506617e-03 0.0000000000000000e+00  3.5697693568484078e-05 1.1930513125755257e-03 0.0000000000000000e+00  3.9277441349466099e-05 1.2162871754946307e-03 0.0000000000000000e+00  4.2563999548642069e-05 1.2397466092301183e-03 0.0000000000000000e+00  4.5547572774113535e-05 1.2634165321604943e-03 0.0000000000000000e+00  4.8224207036319909e-05 1.2872787036100045e-03 0.0000000000000000e+00  5.0596467059726894e-05 1.3113097717365140e-03 0.0000000000000000e+