<?xml version="1.0"?>
<VTKFile type="UnstructuredGrid"  version="0.1"  >
<UnstructuredGrid>
<Piece  NumberOfPoints="607" NumberOfCells="1112">
<Points>
<DataArray  type="Float64"  NumberOfComponents="3"  format="ascii">0.4130434782608696 0 0  0.4295652173913043 0 0  0.4295652173913043 0.01666666666666667 0  0.4460869565217391 0 0  0.4460869565217391 0.01666666666666667 0  0.4626086956521739 0 0  0.4626086956521739 0.01666666666666667 0  0.4791304347826086 0 0  0.4791304347826086 0.01666666666666667 0  0.4956521739130435 0 0  0.4956521739130435 0.01666666666666667 0  0.5121739130434783 0 0  0.5121739130434783 0.01666666666666667 0  0.528695652173913 0 0  0.528695652173913 0.01666666666666667 0  0.5452173913043478 0 0  0.5452173913043478 0.01666666666666667 0  0.5617391304347825 0 0  0.5617391304347825 0.01666666666666667 0  0.5782608695652174 0 0  0.5782608695652174 0.01666666666666667 0  0.5947826086956521 0 0  0.5947826086956521 0.01666666666666667 0  0.6113043478260869 0 0  0.6113043478260869 0.01666666666666667 0  0.6278260869565218 0 0  0.6278260869565218 0.01666666666666667 0  0.6443478260869565 0 0  0.6443478260869565 0.01666666666666667 0  0.6608695652173913 0 0  0.6608695652173913 0.01666666666666667 0  0.677391304347826 0 0  0.677391304347826 0.01666666666666667 0  0.6939130434782609 0 0  0.6939130434782609 0.01666666666666667 0  0.7104347826086956 0 0  0.7104347826086956 0.01666666666666667 0  0.4460869565217391 0.03333333333333333 0  0.4626086956521739 0.03333333333333333 0  0.4791304347826086 0.03333333333333333 0  0.4956521739130435 0.03333333333333333 0  0.5121739130434783 0.03333333333333333 0  0.528695652173913 0.03333333333333333 0  0.5452173913043478 0.03333333333333333 0  0.5617391304347825 0.03333333333333333 0  0.5782608695652174 0.03333333333333333 0  0.5947826086956521 0.03333333333333333 0  0.6113043478260869 0.03333333333333333 0  0.6278260869565218 0.03333333333333333 0  0.6443478260869565 0.03333333333333333 0  0.6608695652173913 0.03333333333333333 0  0.677391304347826 0.03333333333333333 0  0.6939130434782609 0.03333333333333333 0  0.7104347826086956 0.03333333333333333 0  0.4626086956521739 0.05 0  0.4791304347826086 0.05 0  0.4956521739130435 0.05 0  0.5121739130434783 0.05 0  0.528695652173913 0.05 0  0.5452173913043478 0.05 0  0.5617391304347825 0.05 0  0.5782608695652174 0.05 0  0.5947826086956521 0.05 0  0.6113043478260869 0.05 0  0.6278260869565218 0.05 0  0.6443478260869565 0.05 0  0.6608695652173913 0.05 0  0.677391304347826 0.05 0  0.6939130434782609 0.05 0  0.7104347826086956 0.05 0  0.7269565217391304 0.05 0  0.4791304347826086 0.06666666666666667 0  0.4956521739130435 0.06666666666666667 0  0.5121739130434783 0.06666666666666667 0  0.528695652173913 0.06666666666666667 0  0.5452173913043478 0.06666666666666667 0  0.5617391304347825 0.06666666666666667 0  0.5782608695652174 0.06666666666666667 0  0.5947826086956521 0.06666666666666667 0  0.6113043478260869 0.06666666666666667 0  0.6278260869565218 0.06666666666666667 0  0.6443478260869565 0.06666666666666667 0  0.6608695652173913 0.06666666666666667 0  0.677391304347826 0.06666666666666667 0  0.6939130434782609 0.06666666666666667 0  0.7104347826086956 0.06666666666666667 0  0.7269565217391304 0.06666666666666667 0  0.7434782608695653 0.06666666666666667 0  0.4956521739130435 0.08333333333333333 0  0.5121739130434783 0.08333333333333333 0  0.528695652173913 0.08333333333333333 0  0.5452173913043478 0.08333333333333333 0  0.5617391304347825 0.08333333333333333 0  0.5782608695652174 0.08333333333333333 0  0.5947826086956521 0.08333333333333333 0  0.6113043478260869 0.08333333333333333 0  0.6278260869565218 0.08333333333333333 0  0.6443478260869565 0.08333333333333333 0  0.6608695652173913 0.08333333333333333 0  0.677391304347826 0.08333333333333333 0  0.6939130434782609 0.08333333333333333 0  0.7104347826086956 0.08333333333333333 0  0.7269565217391304 0.08333333333333333 0  0.7434782608695653 0.08333333333333333 0  0.7599999999999999 0.08333333333333333 0  0.5121739130434783 0.1 0  0.528695652173913 0.1 0  0.5452173913043478 0.1 0  0.5617391304347825 0.1 0  0.5782608695652174 0.1 0  0.5947826086956521 0.1 0  0.6113043478260869 0.1 0  0.6278260869565218 0.1 0  0.6443478260869565 0.1 0  0.6608695652173913 0.1 0  0.677391304347826 0.1 0  0.6939130434782609 0.1 0  0.7104347826086956 0.1 0  0.7269565217391304 0.1 0  0.7434782608695653 0.1 0  0.7599999999999999 0.1 0  0.7765217391304348 0.1 0  0.528695652173913 0.1166666666666667 0  0.5452173913043478 0.1166666666666667 0  0.5617391304347825 0.1166666666666667 0  0.5782608695652174 0.1166666666666667 0  0.5947826086956521 0.1166666666666667 0  0.6113043478260869 0.1166666666666667 0  0.6278260869565218 0.1166666666666667 0  0.6443478260869565 0.1166666666666667 0  0.6608695652173913 0.1166666666666667 0  0.677391304347826 0.1166666666666667 0  0.6939130434782609 0.1166666666666667 0  0.7104347826086956 0.1166666666666667 0  0.7269565217391304 0.1166666666666667 0  0.7434782608695653 0.1166666666666667 0  0.7599999999999999 0.1166666666666667 0  0.7765217391304348 0.1166666666666667 0  0.7930434782608695 0.1166666666666667 0  0.5452173913043478 0.1333333333333333 0  0.5617391304347825 0.1333333333333333 0  0.5782608695652174 0.1333333333333333 0  0.5947826086956521 0.1333333333333333 0  0.6113043478260869 0.1333333333333333 0  0.6278260869565218 0.1333333333333333 0  0.6443478260869565 0.1333333333333333 0  0.6608695652173913 0.1333333333333333 0  0.677391304347826 0.1333333333333333 0  0.6939130434782609 0.1333333333333333 0  0.7104347826086956 0.1333333333333333 0  0.7269565217391304 0.1333333333333333 0  0.7434782608695653 0.1333333333333333 0  0.7599999999999999 0.1333333333333333 0  0.7765217391304348 0.1333333333333333 0  0.7930434782608695 0.1333333333333333 0  0.8095652173913043 0.1333333333333333 0  0.5617391304347825 0.15 0  0.5782608695652174 0.15 0  0.5947826086956521 0.15 0  0.6113043478260869 0.15 0  0.6278260869565218 0.15 0  0.6443478260869565 0.15 0  0.6608695652173913 0.15 0  0.677391304347826 0.15 0  0.6939130434782609 0.15 0  0.7104347826086956 0.15 0  0.7269565217391304 0.15 0  0.7434782608695653 0.15 0  0.7599999999999999 0.15 0  0.7765217391304348 0.15 0  0.7930434782608695 0.15 0  0.8095652173913043 0.15 0  0.8260869565217391 0.15 0  0.5782608695652174 0.1666666666666667 0  0.5947826086956521 0.1666666666666667 0  0.6113043478260869 0.1666666666666667 0  0.6278260869565218 0.1666666666666667 0  0.6443478260869565 0.1666666666666667 0  0.6608695652173913 0.1666666666666667 0  0.677391304347826 0.1666666666666667 0  0.6939130434782609 0.1666666666666667 0  0.7104347826086956 0.1666666666666667 0  0.7269565217391304 0.1666666666666667 0  0.7434782608695653 0.1666666666666667 0  0.7599999999999999 0.1666666666666667 0  0.7765217391304348 0.1666666666666667 0  0.7930434782608695 0.1666666666666667 0  0.8095652173913043 0.1666666666666667 0  0.8260869565217391 0.1666666666666667 0  0.8426086956521739 0.1666666666666667 0  0.5947826086956521 0.1833333333333333 0  0.5782608695652174 0.1833333333333333 0  0.6113043478260869 0.1833333333333333 0  0.6278260869565218 0.1833333333333333 0  0.6443478260869565 0.1833333333333333 0  0.6608695652173913 0.1833333333333333 0  0.677391304347826 0.1833333333333333 0  0.6939130434782609 0.1833333333333333 0  0.7104347826086956 0.1833333333333333 0  0.7269565217391304 0.1833333333333333 0  0.7434782608695653 0.1833333333333333 0  0.7599999999999999 0.1833333333333333 0  0.7765217391304348 0.1833333333333333 0  0.7930434782608695 0.1833333333333333 0  0.8095652173913043 0.1833333333333333 0  0.8260869565217391 0.1833333333333333 0  0.8426086956521739 0.1833333333333333 0  0.8591304347826086 0.1833333333333333 0  0.5947826086956521 0.2 0  0.5782608695652174 0.2 0  0.6113043478260869 0.2 0  0.6278260869565218 0.2 0  0.6443478260869565 0.2 0  0.6608695652173913 0.2 0  0.677391304347826 0.2 0  0.6939130434782609 0.2 0  0.7104347826086956 0.2 0  0.7269565217391304 0.2 0  0.7434782608695653 0.2 0  0.7599999999999999 0.2 0  0.7765217391304348 0.2 0  0.7930434782608695 0.2 0  0.8095652173913043 0.2 0  0.8260869565217391 0.2 0  0.8426086956521739 0.2 0  0.8591304347826086 0.2 0  0.8756521739130434 0.2 0  0.5947826086956521 0.2166666666666667 0  0.5782608695652174 0.2166666666666667 0  0.6113043478260869 0.2166666666666667 0  0.6278260869565218 0.2166666666666667 0  0.6443478260869565 0.2166666666666667 0  0.6608695652173913 0.2166666666666667 0  0.677391304347826 0.2166666666666667 0  0.6939130434782609 0.2166666666666667 0  0.7104347826086956 0.2166666666666667 0  0.7269565217391304 0.2166666666666667 0  0.7434782608695653 0.2166666666666667 0  0.7599999999999999 0.2166666666666667 0  0.7765217391304348 0.2166666666666667 0  0.7930434782608695 0.2166666666666667 0  0.8095652173913043 0.2166666666666667 0  0.8260869565217391 0.2166666666666667 0  0.8426086956521739 0.2166666666666667 0  0.8591304347826086 0.2166666666666667 0  0.8756521739130434 0.2166666666666667 0  0.8921739130434783 0.2166666666666667 0  0.5947826086956521 0.2333333333333333 0  0.5782608695652174 0.2333333333333333 0  0.6113043478260869 0.2333333333333333 0  0.6278260869565218 0.2333333333333333 0  0.6443478260869565 0.2333333333333333 0  0.6608695652173913 0.2333333333333333 0  0.677391304347826 0.2333333333333333 0  0.6939130434782609 0.2333333333333333 0  0.7104347826086956 0.2333333333333333 0  0.7269565217391304 0.2333333333333333 0  0.7434782608695653 0.2333333333333333 0  0.7599999999999999 0.2333333333333333 0  0.7765217391304348 0.2333333333333333 0  0.7930434782608695 0.2333333333333333 0  0.8095652173913043 0.2333333333333333 0  0.8260869565217391 0.2333333333333333 0  0.8426086956521739 0.2333333333333333 0  0.8591304347826086 0.2333333333333333 0  0.8756521739130434 0.2333333333333333 0  0.8921739130434783 0.2333333333333333 0  0.908695652173913 0.2333333333333333 0  0.5947826086956521 0.25 0  0.6113043478260869 0.25 0  0.6278260869565218 0.25 0  0.6443
[...]
<PointData  Vectors="Displacement"> 
<DataArray  type="Float64"  Name="Displacement"  NumberOfComponents="3" format="ascii">9.1988983416721660e-05 5.9513141025762154e-04 0.0000000000000000e+00  9.1035198473586143e-05 6.1970756992140677e-04 0.0000000000000000e+00  6.7116899550537492e-05 6.1983598549644942e-04 0.0000000000000000e+00  9.0074662323909224e-05 6.4257621614749710e-04 0.0000000000000000e+00  6.7591194708403599e-05 6.4270269284074722e-04 0.0000000000000000e+00  8.9203414619974956e-05 6.6402602391568385e-04 0.0000000000000000e+00  6.7972902127730380e-05 6.6414675459264944e-04 0.0000000000000000e+00  8.8469550267842261e-05 6.8427496962793243e-04 0.0000000000000000e+00  6.8285869243689344e-05 6.8438529680568596e-04 0.0000000000000000e+00  8.7950686556341831e-05 7.0347552194082732e-04 0.0000000000000000e+00  6.8592505130633891e-05 7.0354525657098036e-04 0.0000000000000000e+00  8.7762498754946961e-05 7.2182367971294664e-04 0.0000000000000000e+00  6.8980448953137233e-05 7.2181041382047499e-04 0.0000000000000000e+00  8.8033421482833609e-05 7.3958720259927903e-04 0.0000000000000000e+00  6.9546964524318082e-05 7.3944460840099995e-04 0.0000000000000000e+00  8.8869382182493192e-05 7.5711029683954651e-04 0.0000000000000000e+00  7.0380950916571736e-05 7.5679809553423974e-04 0.0000000000000000e+00  9.0301288144230943e-05 7.7481283761178098e-04 0.0000000000000000e+00  7.1527045021581713e-05 7.7431683654502774e-04 0.0000000000000000e+00  9.2235462110937407e-05 7.9312877524549132e-04 0.0000000000000000e+00  7.2957879405057211e-05 7.9247713265775488e-04 0.0000000000000000e+00  9.4418849600512247e-05 8.1241139443930443e-04 0.0000000000000000e+00  7.4549504444490364e-05 8.1169471635707323e-04 0.0000000000000000e+00  9.6591047893035170e-05 8.3255973649494703e-04 0.0000000000000000e+00  7.6257022617983778e-05 8.3184097728673399e-04 0.0000000000000000e+00  9.8656542039539350e-05 8.5315694773099621e-04 0.0000000000000000e+00  7.8134380720232542e-05 8.5238286360464575e-04 0.0000000000000000e+00  1.0048416984374304e-04 8.7383596046082307e-04 0.0000000000000000e+00  8.0296342049753950e-05 8.7312608994071005e-04 0.0000000000000000e+00  1.0209219123815748e-04 8.9367697525074370e-04 0.0000000000000000e+00  8.2741691381151358e-05 8.9305064178998568e-04 0.0000000000000000e+00  1.0366721741702019e-04 9.1225431520963025e-04 0.0000000000000000e+00  8.5246661868762234e-05 9.1165088853953672e-04 0.0000000000000000e+00  1.0534707505869479e-04 9.2989570142624123e-04 0.0000000000000000e+00  8.7585981460187328e-05 9.2928539979837677e-04 0.0000000000000000e+00  1.0716039302673035e-04 9.4710429810579530e-04 0.0000000000000000e+00  8.9705310934838867e-05 9.4647456750659097e-04 0.0000000000000000e+00  4.5329562154069286e-05 6.4244881784019140e-04 0.0000000000000000e+00  4.6856321401404792e-05 6.6395416097424751e-04 0.0000000000000000e+00  4.8075705776913634e-05 6.8429321021135775e-04 0.0000000000000000e+00  4.9035204303780816e-05 7.0350923134017375e-04 0.0000000000000000e+00  4.9822395945346752e-05 7.2176717299545553e-04 0.0000000000000000e+00  5.0543429275337486e-05 7.3931813529496901e-04 0.0000000000000000e+00  5.1319058830078166e-05 7.5650590682249360e-04 0.0000000000000000e+00  5.2239505484744800e-05 7.7382009962866398e-04 0.0000000000000000e+00  5.3306296748096311e-05 7.9181298059689646e-04 0.0000000000000000e+00  5.4363975391798635e-05 8.1107191831399615e-04 0.0000000000000000e+00  5.5439497907756436e-05 8.3124739761769129e-04 0.0000000000000000e+00  5.7006233033585317e-05 8.5175898641707442e-04 0.0000000000000000e+00  5.8694028378526130e-05 8.7227829206840959e-04 0.0000000000000000e+00  6.2502432410184121e-05 8.9216207954863965e-04 0.0000000000000000e+00  6.7050128610866277e-05 9.1079465550647769e-04 0.0000000000000000e+00  7.0488430282456129e-05 9.2858042085821886e-04 0.0000000000000000e+00  7.2699313360959715e-05 9.4583258688288427e-04 0.0000000000000000e+00  2.6353964795418670e-05 6.6350432106449984e-04 0.0000000000000000e+00  2.8380613402175685e-05 6.8410117260031783e-04 0.0000000000000000e+00  2.9873082399336930e-05 7.0349072326963578e-04 0.0000000000000000e+00  3.0928936800910926e-05 7.2182067749698394e-04 0.0000000000000000e+00  3.1680832231833186e-05 7.3931530795265290e-04 0.0000000000000000e+00  3.2302442062602043e-05 7.5627990911843299e-04 0.0000000000000000e+00  3.2955416793346024e-05 7.7327523777614743e-04 0.0000000000000000e+00  3.3701544329611578e-05 7.9102522540288808e-04 0.0000000000000000e+00  3.4205007093439126e-05 8.1043245298192327e-04 0.0000000000000000e+00  3.4646322356661844e-05 8.3078575712838159e-04 0.0000000000000000e+00  3.5624963261223644e-05 8.5125107193809266e-04 0.0000000000000000e+00  3.9193221830789756e-05 8.6725585332972940e-04 0.0000000000000000e+00  4.3492632749842590e-05 8.8448191784239562e-04 0.0000000000000000e+00  4.7944008156071325e-05 9.0226499825067532e-04 0.0000000000000000e+00  5.1905308410570918e-05 9.2008613364053459e-04 0.0000000000000000e+00  5.5148798729978392e-05 9.3778646763336576e-04 0.0000000000000000e+00  5.7705866091414540e-05 9.5572229886731143e-04 0.0000000000000000e+00  9.7243629253836446e-06 6.8388754761903377e-04 0.0000000000000000e+00  1.1700975854751185e-05 7.0360239238497814e-04 0.0000000000000000e+00  1.2912681813386538e-05 7.2209467680239565e-04 0.0000000000000000e+00  1.3587525567775138e-05 7.3956336150914038e-04 0.0000000000000000e+00  1.3969004210556679e-05 7.5621123333230889e-04 0.0000000000000000e+00  1.4275734284052015e-05 7.7265224411879980e-04 0.0000000000000000e+00  1.4755270601416202e-05 7.8983482417997264e-04 0.0000000000000000e+00  1.5097367333105744e-05 8.0961898462829569e-04 0.0000000000000000e+00  1.5134291624978241e-05 8.2994711252972961e-04 0.0000000000000000e+00  1.8612441375923417e-05 8.4462762625851480e-04 0.0000000000000000e+00  2.3047585599567642e-05 8.6006646732351402e-04 0.0000000000000000e+00  2.7262198048603031e-05 8.7654596243600974e-04 0.0000000000000000e+00  3.1419054457038642e-05 8.9374980834247639e-04 0.0000000000000000e+00  3.5394865604423554e-05 9.1132931821231034e-04 0.0000000000000000e+00  3.9020827279490859e-05 9.2910194180320519e-04 0.0000000000000000e+00  4.2209086215589147e-05 9.4725136682084689e-04 0.0000000000000000e+00  4.5070915905831457e-05 9.6641671740078407e-04 0.0000000000000000e+00  -4.6855745272084329e-06 7.0401846686681620e-04 0.0000000000000000e+00  -3.6229989185706499e-06 7.2272276879568333e-04 0.0000000000000000e+00  -3.1193443796832054e-06 7.4017917481128284e-04 0.0000000000000000e+00  -2.9230019730460050e-06 7.5635831851917495e-04 0.0000000000000000e+00  -2.8091586430303807e-06 7.7190319730296433e-04 0.0000000000000000e+00  -2.3612658961979305e-06 7.8752300980045422e-04 0.0000000000000000e+00  -1.5735344807668441e-06 8.0459135241421403e-04 0.0000000000000000e+00  1.0481630931935727e-06 8.2224881751545218e-04 0.0000000000000000e+00  4.7131464953273024e-06 8.3712351262530066e-04 0.0000000000000000e+00  8.5036447169473430e-06 8.5233436908097135e-04 0.0000000000000000e+00  1.2411719876553078e-05 8.6844917032542063e-04 0.0000000000000000e+00  1.6396689141427165e-05 8.8519656941739278e-04 0.0000000000000000e+00  2.0398648770321499e-05 9.0240386529045471e-04 0.0000000000000000e+00  2.4316597299225317e-05 9.1996717795865427e-04 0.0000000000000000e+00  2.8081744747063848e-05 9.3795028710743386e-04 0.0000000000000000e+00  3.1754814540606379e-05 9.5652466052764272e-04 0.0000000000000000e+00  3.5522780631107881e-05 9.7524989355333329e-04 0.0000000000000000e+00  -1.8689062590783803e-05 7.2383184399283382e-04 0.0000000000000000e+00  -1.8200391405853856e-05 7.4130263108015883e-04 0.0000000000000000e+00  -1.8048175418147992e-05 7.5680260465794806e-04 0.0000000000000000e+00  -1.7990621408524988e-05 7.7130186763497066e-04 0.0000000000000000e+00  -1.7866400245405959e-05 7.8490327375982621e-04 0.0000000000000000e+00  -1.6893595957508327e-05 7.9842114934947387e-04 0.0000000000000000e+00  -1.3509199657734387e-05 8.1456328385825702e-04 0.0000000000000000e+00  -9.6387489467469222e-06 8.2941406516499059e-04 0.0000000000000000e+00  -5.7645688209641376e-06 8.4450197908563299e-04 0.0000000000000000e+00  -1.8315715168599445e-06 8.6021266337739876e-04 0.0000000000000000e+00  2.2335311188512104e-06 8.7648503476051075e-04 0.0000000000000000e+00  6.4118963106790357e-06 8.9323909041869498e-04 0.0000000000000000e+00  1.0655362744220455e-05 9.1042128802391506e-04 0.0000000000000000e+00  1.4927577916415980e-05 9.2803559159910327e-04 0.0000000000000000e+00  1.9252237355673932e-05 9.4608366960805771e-04 0.0000000000000000e+00  2.3692209729534276e-05 9.6429946027556165e-04 0.0000000000000000e+00  2.8196429563083389e-05 9.8236436378302660e-04 0.0000000000000000e+00  -3.1223919413909490e-05 7.4312043910966443e-04 0.0000000000000000e+00  -3.1123609554846072e-05 7.5757202405257154e-04 0.0000000000000000e+00  -3.0974191605181006e-05 7.7099045913780529e-04 0.0000000000000000e+00  -3.0745499565790656e-05 7.8324005728875191e-04 0.0000000000000000e+00  -3.0440818321576673e-05 7.9342369582801795e-04 0.0000000000000000e+00  -2.7608788307445214e-05 8.0706670286140520e-04 0.0000000000000000e+00  -2.3751897991609702e-05 8.2150096858180262e-04 0.0000000000000000e+00  -1.9717043826670047e-05 8.3636303181415929e-04 0.0000000000000000e+00  -1.5586725673234095e-05 8.5170286686140804e-04 0.0000000000000000e+00  -1.1302643258331774e-05 8.6749102990481719e-04 0.0000000000000000e+00  -6.8518272919455355e-06 8.8375028115788288e-04 0.0000000000000000e+00  -2.2538460904116576e-06 9.0046607760101258e-04 0.0000000000000000e+00  2.4740117622410851e-06 9.1762318389849811e-04 0.0000000000000000e+00  7.3345963698541445e-06 9.3518122642576636e-04 0.0000000000000000e+00  1.2328281515715554e-05 9.5298925495957581e-04 0.0000000000000000e+00  1.7386462526957143e-05 9.7090261741513393e-04 0.0000000000000000e+00  2.2388883778326204e-05 9.8895481050522782e-04 0.0000000000000000e+00  -4.2200937798052263e-05 7.5873009296882675e-04 0.0000000000000000e+00  -4.2108271607835490e-05 7.7105230385214943e-04 0.0000000000000000e+00  -4.1896292886863085e-05 7.8229502750053897e-04 0.0000000000000000e+00  -4.1734942947723773e-05 7.9187685487549478e-04 0.0000000000000000e+00  -4.1847399815250928e-05 7.9938405473801597e-04 0.0000000000000000e+00  -3.7687609828948570e-05 8.1334697388868655e-04 0.0000000000000000e+00  -3.3355784583197342e-05 8.2790841130070067e-04 0.0000000000000000e+00  -2.8930589429207377e-05 8.4287112427271422e-04 0.0000000000000000e+00  -2.4339649794925636e-05 8.5815285160396903e-04 0.0000000000000000e+00  -1.9560500091360703e-05 8.7389191042840260e-04 0.0000000000000000e+00  -1.4597184251108119e-05 8.9010166529103940e-04 0.0000000000000000e+00  -9.4523886040643890e-06 9.0676597217954707e-04 0.0000000000000000e+00  -4.1288171113670483e-06 9.2385202128732581e-04 0.0000000000000000e+00  1.3472017004976852e-06 9.4129260826101668e-04 0.0000000000000000e+00  6.8967364812299483e-06 9.5903568599888217e-04 0.0000000000000000e+00  1.2412100225066018e-05 9.7708874653101244e-04 0.0000000000000000e+00  1.7809414708249771e-05 9.9545340670440787e-04 0.0000000000000000e+00  -5.1675566659060647e-05 7.7148168035450827e-04 0.0000000000000000e+00  -5.1405439060800595e-05 7.8189380721850241e-04 0.0000000000000000e+00  -5.1160608200964152e-05 7.9099650395081291e-04 0.0000000000000000e+00  -5.1176128468410429e-05 7.9847874261996252e-04 0.0000000000000000e+00  -5.1496915246385668e-05 8.0470969995948308e-04 0.0000000000000000e+00  -4.6635465199719780e-05 8.1909429668124915e-04 0.0000000000000000e+00  -4.1843296552896943e-05 8.3371574635593827e-04 0.0000000000000000e+00  -3.6906590782281055e-05 8.4844112246004961e-04 0.0000000000000000e+00  -3.1785418262202625e-05 8.6364612474877070e-04 0.0000000000000000e+00  -2.6473805284019916e-05 8.7933417660719497e-04 0.0000000000000000e+00  -2.0954612882401195e-05 8.9548779603726826e-04 0.0000000000000000e+00  -1.5221570493981144e-05 9.1210060725805927e-04 0.0000000000000000e+00  -9.3101160698859674e-06 9.2918047799589009e-04 0.0000000000000000e+00  -3.3116446944321807e-06 9.4674459730020866e-04 0.0000000000000000e+00  2.6618804913341976e-06 9.6479061870401921e-04 0.0000000000000000e+00  8.5176967838894147e-06 9.8328627877732576e-04 0.0000000000000000e+00  1.4191713022465588e-05 1.0021836081858229e-03 0.0000000000000000e+00  -5.9581965929162553e-05 7.8189378739895992e-04 0.0000000000000000e+00  -5.9260561486209800e-05 7.9057286482618313e-04 0.0000000000000000e+00  -5.9074224140549427e-05 7.9800004894534560e-04 0.0000000000000000e+00  -5.9182935793082621e-05 8.0432119865976733e-04 0.0000000000000000e+00  -5.9297530324999286e-05 8.0991115638383868e-04 0.0000000000000000e+00  -5.4175512781243847e-05 8.2430279135819898e-04 0.0000000000000000e+00  -4.8943475154402310e-05 8.3835114971294894e-04 0.0000000000000000e+00  -4.3527857255760903e-05 8.5302345129804414e-04 0.0000000000000000e+00  -3.7925577191815366e-05 8.6818590245907443e-04 0.0000000000000000e+00  -3.2092603628606420e-05 8.8380712820610580e-04 0.0000000000000000e+00  -2.6000685417681418e-05 8.9991804622660315e-04 0.0000000000000000e+00  -1.9687993738466335e-05 9.1661662163397529e-04 0.0000000000000000e+00  -1.3270366207241752e-05 9.3399836342712564e-04 0.0000000000000000e+00  -6.8786074774428801e-06 9.5204967799624091e-04 0.0000000000000000e+00  -6.1775842201321963e-07 9.7070002304403978e-04 0.0000000000000000e+00  5.4390902784602564e-06 9.8986184723143613e-04 0.0000000000000000e+00  1.1250199298467373e-05 1.0094406383954620e-03 0.0000000000000000e+00  -6.6355226979614301e-05 7.9048889256460393e-04 0.0000000000000000e+00  -6.6825666114396983e-05 7.8220140045038330e-04 0.0000000000000000e+00  -6.5985764482248650e-05 7.9774543714124550e-04 0.0000000000000000e+00  -6.5840281652578247e-05 8.0403171284751959e-04 0.0000000000000000e+00  -6.5956848855385278e-05 8.0935972344961158e-04 0.0000000000000000e+00  -6.5540056648523423e-05 8.1491463428241850e-04 0.0000000000000000e+00  -6.0362908125575616e-05 8.2789254706431919e-04 0.0000000000000000e+00  -5.4777750129562403e-05 8.4206821773230372e-04 0.0000000000000000e+00  -4.8976598667741920e-05 8.5670512089146885e-04 0.0000000000000000e+00  -4.2909244337902333e-05 8.7175179359846888e-04 0.0000000000000000e+00  -3.6511790341508449e-05 8.8728854215094184e-04 0.0000000000000000e+00  -2.9822742994836317e-05 9.0355152894556578e-04 0.0000000000000000e+00  -2.3006324267117501e-05 9.2075337474167547e-04 0.0000000000000000e+00  -1.6227275588306911e-05 9.3884306346444688e-04 0.0000000000000000e+00  -9.6051443861010794e-06 9.5769370070643387e-04 0.0000000000000000e+00  -3.2208012043886711e-06 9.7717187140170013e-04 0.0000000000000000e+00  2.8814716604953270e-06 9.9713910146925311e-04 0.0000000000000000e+00  8.6897029081507498e-06 1.0174693641364417e-03 0.0000000000000000e+00  -7.2537141792267435e-05 7.9063995062013566e-04 0.0000000000000000e+00  -7.3206422856435051e-05 7.8269359070678253e-04 0.0000000000000000e+00  -7.1969615073399861e-05 7.9768281675567543e-04 0.0000000000000000e+00  -7.1593514922239834e-05 8.0389272669850612e-04 0.0000000000000000e+00  -7.1444384343933784e-05 8.0915845118519265e-04 0.0000000000000000e+00  -7.1529546654473125e-05 8.1348434783066700e-04 0.0000000000000000e+00  -7.1700396851401141e-05 8.1689989831407542e-04 0.0000000000000000e+00  -6.5685511846201090e-05 8.3082631194266018e-04 0.0000000000000000e+00  -5.9668002252488762e-05 8.4496283717669428e-04 0.0000000000000000e+00  -5.3436357607519302e-05 8.5936825369942627e-04 0.0000000000000000e+00  -4.6792875989916816e-05 8.7418889795678242e-04 0.0000000000000000e+00  -3.9745821537634504e-05 8.8991165545913213e-04 0.0000000000000000e+00  -3.2546341903348396e-05 9.0695124999756109e-04 0.0000000000000000e+00  -2.5407422752628581e-05 9.2513851470957438e-04 0.0000000000000000e+00  -1.8461452219183556e-05 9.4425853821128924e-04 0.0000000000000000e+00  -1.1797659339922599e-05 9.6412692661531556e-04 0.0000000000000000e+00  -5.4616471752301398e-06 9.8455065326147491e-04 0.0000000000000000e+00  5.4183729117603082e-07 1.0053589930566016e-03 0.0000000000000000e+00  6.2341797566144591e-06 1.0264278039542362e-03 0.0000000000000000e+00  -7.7801107161061799e-05 7.9098517103918045e-04 0.0000000000000000e+00  -7.8424949263907205e-05 7.8332805418651044e-04 0.0000000000000000e+00  -7.7093091009444639e-05 7.9776110438286088e-04 0.0000000000000000e+00  -7.6488572911322539e-05 8.0390615606737545e-04 0.0000000000000000e+00  -7.6064836970828861e-05 8.0907974020301670e-04 0.0000000000000000e+00  -7.5838211371944444e-05 8.1333123768234118e-04 0.0000000000000000e+00  -7.5843992523086666e-05 8.1671972055729681e-04 0.0000000000000000e+00  -7.5961911557718658e-05 8.1931796063423358e-04 0.0000000000000000e+00  -6.9793305574163643e-05 8.3306520246266634e-04 0.0000000000000000e+00  -6.3588150260221422e-05 8.4675593542977892e-04 0.0000000000000000e+00  -5.6848906279235890e-05 8.6059350907727642e-04 0.0000000000000000e+00  -4.9486751694459255e-05 8.7558319524613001e-04 0.0000000000000000e+00  -4.1930725914287888e-05 8.9251865412003008e-04 0.0000000000000000e+00  -3.4461644427915918e-05 9.1089646428197312e-04 0.0000000000000000e+00  -2.7221070535151944e-05 9.3037852964889271e-04 0.0000000000000000e+00  -2.0315473510950618e-05 9.5073706132491574e-04 0.0000000000000000e+00  -1.3794998354604850e-05 9.7170605373155102e-04 0.0000000000000000e+00  -7.6524763711901385e-06 9.9305699738912526e-04 0.0000000000000000e+00  -1.8488155513709324e-06 1.0146380953897876e-03 0.0000000000000000e+00  3.6623397396592863e-06 1.0363714047654732e-03 0.0000000000000000e+00  -8.2176531776762186e-05 7.9145532284973375e-04 0.0000000000000000e+00  -7.9575356709279461e-05 7.7322612552078464e-04 0.0000000000000000e+00  -8.1686961879583880e-05 7.9785620854550476e-04 0.0000000000000000e+00  -8.0657255350496875e-05 8.0405495172821112e-04 0.0000000000000000e+00  -7.9878156345840595e-05 8.0911639598797301e-04 0.0000000000000000e+00  -7.9332917785459589e-05 8.1325191638848470e-04 0.0000000000000000e+00  -7.8994144978465671e-05 8.1660832444342918e-04 0.0000000000000000e+00  -7.8882215173646555e-05 8.1926311358161111e-04 0.0000000000000000e+00  -7.8885254552705426e-05 8.2127720018700221e-04 0.0000000000000000e+00  -7.3100616944481560e-05 8.3421425885334610e-04 0.0000000000000000e+00  -6.6694734913846896e-05 8.4650761238597941e-04 0.0000000000000000e+00  -5.9136916412743099e-05 8.6038057981232424e-04 0.0000000000000000e+00  -5.1267412798079880e-05 8.7737027140871889e-04 0.0000000000000000e+00  -4.3486797967326829e-05 8.9606835969911270e-04 0.0000000000000000e+00  -3.5951461363504145e-05 9.1602411690154192e-04 0.0000000000000000e+00  -2.8816897362375918e-05 9.3700770203487892e-04 0.0000000000000000e+00  -2.2146516169359355e-05 9.5863860265373035e-04 0.0000000000000000e+00  -1.5912253752997946e-05 9.8060909695472215e-04 0.0000000000000000e+00  -1.0046553776073695e-05 1.0027410445584853e-03 0.0000000000000000e+00  -4.4813912532795847e-06 1.0249640998920631e-03 0.0000000000000000e+00  8.3376934930970706e-07 1.0472755625481923e-03 0.0000000000000000e+00  -7.9456861379963295e-05 7.8021900625190456e-04 0.0000000000000000e+00  -8.0733198203647913e-05 7.9105958559802189e-04 0.0000000000000000e+00  -8.3569914574444510e-05 8.0434008770950542e-04 0.0000000000000000e+00  -8.2691305103291574e-05 8.0930001714068080e-04 0.0000000000000000e+00  -8.1998518337948514e-05 8.1325825857558203e-04 0.0000000000000000e+00  -8.1441896683575666e-05 8.1652896435434883e-04 0.0000000000000000e+00  -8.1056939934695362e-05 8.1920252838765155e-04 0.0000000000000000e+00  -8.0846114252813107e-05 8.2126792593438557e-04 0.0000000000000000e+00  -8.0736240894217166e-05 8.2276029397448719e-04 0.0000000000000000e+00  -7.6498474262388691e-05 8.3204801676714231e-04 0.0000000000000000e+00  -6.9098611496923133e-05 8.4392830662635568e-04 0.0000000000000000e+00  -6.0866787523890348e-05 8.6140023870231628e-04 0.0000000000000000e+00  -5.2686351184758347e-05 8.8057613552151089e-04 0.0000000000000000e+00  -4.4760804241829246e-05 9.0112994737328428e-04 0.0