<?xml version="1.0"?>
<VTKFile type="UnstructuredGrid"  version="0.1"  >
<UnstructuredGrid>
<Piece  NumberOfPoints="607" NumberOfCells="1112">
<Points>
<DataArray  type="Float64"  NumberOfComponents="3"  format="ascii">0.4130434782608696 0 0  0.4295652173913043 0 0  0.4295652173913043 0.01666666666666667 0  0.4460869565217391 0 0  0.4460869565217391 0.01666666666666667 0  0.4626086956521739 0 0  0.4626086956521739 0.01666666666666667 0  0.4791304347826086 0 0  0.4791304347826086 0.01666666666666667 0  0.4956521739130435 0 0  0.4956521739130435 0.01666666666666667 0  0.5121739130434783 0 0  0.5121739130434783 0.01666666666666667 0  0.528695652173913 0 0  0.528695652173913 0.01666666666666667 0  0.5452173913043478 0 0  0.5452173913043478 0.01666666666666667 0  0.5617391304347825 0 0  0.5617391304347825 0.01666666666666667 0  0.5782608695652174 0 0  0.5782608695652174 0.01666666666666667 0  0.5947826086956521 0 0  0.5947826086956521 0.01666666666666667 0  0.6113043478260869 0 0  0.6113043478260869 0.01666666666666667 0  0.6278260869565218 0 0  0.6278260869565218 0.01666666666666667 0  0.6443478260869565 0 0  0.6443478260869565 0.01666666666666667 0  0.6608695652173913 0 0  0.6608695652173913 0.01666666666666667 0  0.677391304347826 0 0  0.677391304347826 0.01666666666666667 0  0.6939130434782609 0 0  0.6939130434782609 0.01666666666666667 0  0.7104347826086956 0 0  0.7104347826086956 0.01666666666666667 0  0.4460869565217391 0.03333333333333333 0  0.4626086956521739 0.03333333333333333 0  0.4791304347826086 0.03333333333333333 0  0.4956521739130435 0.03333333333333333 0  0.5121739130434783 0.03333333333333333 0  0.528695652173913 0.03333333333333333 0  0.5452173913043478 0.03333333333333333 0  0.5617391304347825 0.03333333333333333 0  0.5782608695652174 0.03333333333333333 0  0.5947826086956521 0.03333333333333333 0  0.6113043478260869 0.03333333333333333 0  0.6278260869565218 0.03333333333333333 0  0.6443478260869565 0.03333333333333333 0  0.6608695652173913 0.03333333333333333 0  0.677391304347826 0.03333333333333333 0  0.6939130434782609 0.03333333333333333 0  0.7104347826086956 0.03333333333333333 0  0.4626086956521739 0.05 0  0.4791304347826086 0.05 0  0.4956521739130435 0.05 0  0.5121739130434783 0.05 0  0.528695652173913 0.05 0  0.5452173913043478 0.05 0  0.5617391304347825 0.05 0  0.5782608695652174 0.05 0  0.5947826086956521 0.05 0  0.6113043478260869 0.05 0  0.6278260869565218 0.05 0  0.6443478260869565 0.05 0  0.6608695652173913 0.05 0  0.677391304347826 0.05 0  0.6939130434782609 0.05 0  0.7104347826086956 0.05 0  0.7269565217391304 0.05 0  0.4791304347826086 0.06666666666666667 0  0.4956521739130435 0.06666666666666667 0  0.5121739130434783 0.06666666666666667 0  0.528695652173913 0.06666666666666667 0  0.5452173913043478 0.06666666666666667 0  0.5617391304347825 0.06666666666666667 0  0.5782608695652174 0.06666666666666667 0  0.5947826086956521 0.06666666666666667 0  0.6113043478260869 0.06666666666666667 0  0.6278260869565218 0.06666666666666667 0  0.6443478260869565 0.06666666666666667 0  0.6608695652173913 0.06666666666666667 0  0.677391304347826 0.06666666666666667 0  0.6939130434782609 0.06666666666666667 0  0.7104347826086956 0.06666666666666667 0  0.7269565217391304 0.06666666666666667 0  0.7434782608695653 0.06666666666666667 0  0.4956521739130435 0.08333333333333333 0  0.5121739130434783 0.08333333333333333 0  0.528695652173913 0.08333333333333333 0  0.5452173913043478 0.08333333333333333 0  0.5617391304347825 0.08333333333333333 0  0.5782608695652174 0.08333333333333333 0  0.5947826086956521 0.08333333333333333 0  0.6113043478260869 0.08333333333333333 0  0.6278260869565218 0.08333333333333333 0  0.6443478260869565 0.08333333333333333 0  0.6608695652173913 0.08333333333333333 0  0.677391304347826 0.08333333333333333 0  0.6939130434782609 0.08333333333333333 0  0.7104347826086956 0.08333333333333333 0  0.7269565217391304 0.08333333333333333 0  0.7434782608695653 0.08333333333333333 0  0.7599999999999999 0.08333333333333333 0  0.5121739130434783 0.1 0  0.528695652173913 0.1 0  0.5452173913043478 0.1 0  0.5617391304347825 0.1 0  0.5782608695652174 0.1 0  0.5947826086956521 0.1 0  0.6113043478260869 0.1 0  0.6278260869565218 0.1 0  0.6443478260869565 0.1 0  0.6608695652173913 0.1 0  0.677391304347826 0.1 0  0.6939130434782609 0.1 0  0.7104347826086956 0.1 0  0.7269565217391304 0.1 0  0.7434782608695653 0.1 0  0.7599999999999999 0.1 0  0.7765217391304348 0.1 0  0.528695652173913 0.1166666666666667 0  0.5452173913043478 0.1166666666666667 0  0.5617391304347825 0.1166666666666667 0  0.5782608695652174 0.1166666666666667 0  0.5947826086956521 0.1166666666666667 0  0.6113043478260869 0.1166666666666667 0  0.6278260869565218 0.1166666666666667 0  0.6443478260869565 0.1166666666666667 0  0.6608695652173913 0.1166666666666667 0  0.677391304347826 0.1166666666666667 0  0.6939130434782609 0.1166666666666667 0  0.7104347826086956 0.1166666666666667 0  0.7269565217391304 0.1166666666666667 0  0.7434782608695653 0.1166666666666667 0  0.7599999999999999 0.1166666666666667 0  0.7765217391304348 0.1166666666666667 0  0.7930434782608695 0.1166666666666667 0  0.5452173913043478 0.1333333333333333 0  0.5617391304347825 0.1333333333333333 0  0.5782608695652174 0.1333333333333333 0  0.5947826086956521 0.1333333333333333 0  0.6113043478260869 0.1333333333333333 0  0.6278260869565218 0.1333333333333333 0  0.6443478260869565 0.1333333333333333 0  0.6608695652173913 0.1333333333333333 0  0.677391304347826 0.1333333333333333 0  0.6939130434782609 0.1333333333333333 0  0.7104347826086956 0.1333333333333333 0  0.7269565217391304 0.1333333333333333 0  0.7434782608695653 0.1333333333333333 0  0.7599999999999999 0.1333333333333333 0  0.7765217391304348 0.1333333333333333 0  0.7930434782608695 0.1333333333333333 0  0.8095652173913043 0.1333333333333333 0  0.5617391304347825 0.15 0  0.5782608695652174 0.15 0  0.5947826086956521 0.15 0  0.6113043478260869 0.15 0  0.6278260869565218 0.15 0  0.6443478260869565 0.15 0  0.6608695652173913 0.15 0  0.677391304347826 0.15 0  0.6939130434782609 0.15 0  0.7104347826086956 0.15 0  0.7269565217391304 0.15 0  0.7434782608695653 0.15 0  0.7599999999999999 0.15 0  0.7765217391304348 0.15 0  0.7930434782608695 0.15 0  0.8095652173913043 0.15 0  0.8260869565217391 0.15 0  0.5782608695652174 0.1666666666666667 0  0.5947826086956521 0.1666666666666667 0  0.6113043478260869 0.1666666666666667 0  0.6278260869565218 0.1666666666666667 0  0.6443478260869565 0.1666666666666667 0  0.6608695652173913 0.1666666666666667 0  0.677391304347826 0.1666666666666667 0  0.6939130434782609 0.1666666666666667 0  0.7104347826086956 0.1666666666666667 0  0.7269565217391304 0.1666666666666667 0  0.7434782608695653 0.1666666666666667 0  0.7599999999999999 0.1666666666666667 0  0.7765217391304348 0.1666666666666667 0  0.7930434782608695 0.1666666666666667 0  0.8095652173913043 0.1666666666666667 0  0.8260869565217391 0.1666666666666667 0  0.8426086956521739 0.1666666666666667 0  0.5947826086956521 0.1833333333333333 0  0.5782608695652174 0.1833333333333333 0  0.6113043478260869 0.1833333333333333 0  0.6278260869565218 0.1833333333333333 0  0.6443478260869565 0.1833333333333333 0  0.6608695652173913 0.1833333333333333 0  0.677391304347826 0.1833333333333333 0  0.6939130434782609 0.1833333333333333 0  0.7104347826086956 0.1833333333333333 0  0.7269565217391304 0.1833333333333333 0  0.7434782608695653 0.1833333333333333 0  0.7599999999999999 0.1833333333333333 0  0.7765217391304348 0.1833333333333333 0  0.7930434782608695 0.1833333333333333 0  0.8095652173913043 0.1833333333333333 0  0.8260869565217391 0.1833333333333333 0  0.8426086956521739 0.1833333333333333 0  0.8591304347826086 0.1833333333333333 0  0.5947826086956521 0.2 0  0.5782608695652174 0.2 0  0.6113043478260869 0.2 0  0.6278260869565218 0.2 0  0.6443478260869565 0.2 0  0.6608695652173913 0.2 0  0.677391304347826 0.2 0  0.6939130434782609 0.2 0  0.7104347826086956 0.2 0  0.7269565217391304 0.2 0  0.7434782608695653 0.2 0  0.7599999999999999 0.2 0  0.7765217391304348 0.2 0  0.7930434782608695 0.2 0  0.8095652173913043 0.2 0  0.8260869565217391 0.2 0  0.8426086956521739 0.2 0  0.8591304347826086 0.2 0  0.8756521739130434 0.2 0  0.5947826086956521 0.2166666666666667 0  0.5782608695652174 0.2166666666666667 0  0.6113043478260869 0.2166666666666667 0  0.6278260869565218 0.2166666666666667 0  0.6443478260869565 0.2166666666666667 0  0.6608695652173913 0.2166666666666667 0  0.677391304347826 0.2166666666666667 0  0.6939130434782609 0.2166666666666667 0  0.7104347826086956 0.2166666666666667 0  0.7269565217391304 0.2166666666666667 0  0.7434782608695653 0.2166666666666667 0  0.7599999999999999 0.2166666666666667 0  0.7765217391304348 0.2166666666666667 0  0.7930434782608695 0.2166666666666667 0  0.8095652173913043 0.2166666666666667 0  0.8260869565217391 0.2166666666666667 0  0.8426086956521739 0.2166666666666667 0  0.8591304347826086 0.2166666666666667 0  0.8756521739130434 0.2166666666666667 0  0.8921739130434783 0.2166666666666667 0  0.5947826086956521 0.2333333333333333 0  0.5782608695652174 0.2333333333333333 0  0.6113043478260869 0.2333333333333333 0  0.6278260869565218 0.2333333333333333 0  0.6443478260869565 0.2333333333333333 0  0.6608695652173913 0.2333333333333333 0  0.677391304347826 0.2333333333333333 0  0.6939130434782609 0.2333333333333333 0  0.7104347826086956 0.2333333333333333 0  0.7269565217391304 0.2333333333333333 0  0.7434782608695653 0.2333333333333333 0  0.7599999999999999 0.2333333333333333 0  0.7765217391304348 0.2333333333333333 0  0.7930434782608695 0.2333333333333333 0  0.8095652173913043 0.2333333333333333 0  0.8260869565217391 0.2333333333333333 0  0.8426086956521739 0.2333333333333333 0  0.8591304347826086 0.2333333333333333 0  0.8756521739130434 0.2333333333333333 0  0.8921739130434783 0.2333333333333333 0  0.908695652173913 0.2333333333333333 0  0.5947826086956521 0.25 0  0.6113043478260869 0.25 0  0.6278260869565218 0.25 0  0.6443
[...]
<PointData  Vectors="Displacement"> 
<DataArray  type="Float64"  Name="Displacement"  NumberOfComponents="3" format="ascii">1.4393030682311299e-04 1.1670002352343687e-03 0.0000000000000000e+00  1.4333404715135561e-04 1.2276375948564395e-03 0.0000000000000000e+00  8.3079249340887179e-05 1.2275734511276136e-03 0.0000000000000000e+00  1.4265311206044108e-04 1.2865611807924273e-03 0.0000000000000000e+00  8.4094248776893249e-05 1.2865754825755781e-03 0.0000000000000000e+00  1.4190541283794550e-04 1.3438163733486492e-03 0.0000000000000000e+00  8.4860698427991884e-05 1.3438919207819954e-03 0.0000000000000000e+00  1.4121113403805095e-04 1.3994811234676855e-03 0.0000000000000000e+00  8.5464981483923791e-05 1.3995650037868892e-03 0.0000000000000000e+00  1.4070068806433332e-04 1.4538233389149236e-03 0.0000000000000000e+00  8.5974374361098355e-05 1.4538882138498627e-03 0.0000000000000000e+00  1.4053265812382569e-04 1.5070969269518231e-03 0.0000000000000000e+00  8.6492669065367845e-05 1.5070882320655783e-03 0.0000000000000000e+00  1.4091719205339476e-04 1.5596154510351097e-03 0.0000000000000000e+00  8.7179394714380741e-05 1.5594476321066867e-03 0.0000000000000000e+00  1.4204879948791525e-04 1.6118676891880954e-03 0.0000000000000000e+00  8.8194281713093936e-05 1.6114583830514439e-03 0.0000000000000000e+00  1.4396859114348479e-04 1.6645399473253269e-03 0.0000000000000000e+00  8.9606691777694369e-05 1.6638659215354808e-03 0.0000000000000000e+00  1.4639816444668270e-04 1.7183962697168149e-03 0.0000000000000000e+00  9.1285735672488034e-05 1.7175785259249600e-03 0.0000000000000000e+00  1.4897632905370902e-04 1.7735770008212306e-03 0.0000000000000000e+00  9.3143815498380453e-05 1.7726493770577093e-03 0.0000000000000000e+00  1.5146489003535038e-04 1.8297069850767465e-03 0.0000000000000000e+00  9.5401258010841943e-05 1.8286046229367865e-03 0.0000000000000000e+00  1.5398065319453282e-04 1.8848867060050054e-03 0.0000000000000000e+00  9.9203124042206850e-05 1.8836637696676816e-03 0.0000000000000000e+00  1.5672019882031094e-04 1.9382998649996781e-03 0.0000000000000000e+00  1.0388956304787155e-04 1.9367484011831569e-03 0.0000000000000000e+00  1.5986496752736773e-04 1.9882813678464965e-03 0.0000000000000000e+00  1.1099378349713132e-04 1.9865002686250211e-03 0.0000000000000000e+00  1.6300937038167391e-04 2.0321299667545750e-03 0.0000000000000000e+00  1.2056423492764826e-04 2.0307190619907852e-03 0.0000000000000000e+00  1.6589668295968364e-04 2.0719145040592048e-03 0.0000000000000000e+00  1.2703419213804274e-04 2.0706947317333346e-03 0.0000000000000000e+00  1.6868004623125617e-04 2.1092393612557464e-03 0.0000000000000000e+00  1.3193485739966323e-04 2.1080496883607073e-03 0.0000000000000000e+00  2.6014973859551624e-05 1.2861332997213056e-03 0.0000000000000000e+00  2.8159600923872856e-05 1.3436463751383375e-03 0.0000000000000000e+00  2.9877266275022938e-05 1.3994070197612806e-03 0.0000000000000000e+00  3.1181135925038896e-05 1.4538515437743989e-03 0.0000000000000000e+00  3.2123898204777981e-05 1.5071104017128523e-03 0.0000000000000000e+00  3.2886648622068344e-05 1.5593607422183288e-03 0.0000000000000000e+00  3.3712416614141194e-05 1.6110892676848957e-03 0.0000000000000000e+00  3.4718446034020328e-05 1.6631588159432599e-03 0.0000000000000000e+00  3.5677082080702109e-05 1.7168528919957596e-03 0.0000000000000000e+00  3.6630614907340032e-05 1.7720198923123591e-03 0.0000000000000000e+00  3.7623571905753775e-05 1.8278456240335876e-03 0.0000000000000000e+00  4.1686012358525526e-05 1.8825475745195234e-03 0.0000000000000000e+00  5.0345942878647263e-05 1.9351673713619887e-03 0.0000000000000000e+00  5.8901488361889262e-05 1.9698043240994195e-03 0.0000000000000000e+00  7.0464035028262580e-05 2.0108846773440195e-03 0.0000000000000000e+00  8.1989352754127372e-05 2.0547191859713377e-03 0.0000000000000000e+00  9.4026374296677512e-05 2.1056273627166749e-03 0.0000000000000000e+00  -2.7584119558677820e-05 1.3431967463795808e-03 0.0000000000000000e+00  -2.4855090320546037e-05 1.3990999254310688e-03 0.0000000000000000e+00  -2.2882402529789193e-05 1.4538580067715526e-03 0.0000000000000000e+00  -2.1657652882262928e-05 1.5073623210842132e-03 0.0000000000000000e+00  -2.0979324730855951e-05 1.5595134696457986e-03 0.0000000000000000e+00  -2.0413618334484315e-05 1.6107336230068673e-03 0.0000000000000000e+00  -1.9605231759781884e-05 1.6621831133748152e-03 0.0000000000000000e+00  -1.9090528729702583e-05 1.7157950998104182e-03 0.0000000000000000e+00  -1.8808864197119217e-05 1.7712798201105872e-03 0.0000000000000000e+00  -1.8630091092317774e-05 1.8274566086755825e-03 0.0000000000000000e+00  -9.7419273161526974e-06 1.8679601504673516e-03 0.0000000000000000e+00  2.1541483665706467e-06 1.9123960851681143e-03 0.0000000000000000e+00  1.4758806059295323e-05 1.9503198263638695e-03 0.0000000000000000e+00  2.5876411859930185e-05 1.9894186540271920e-03 0.0000000000000000e+00  3.7210288293588998e-05 2.0309695677487587e-03 0.0000000000000000e+00  4.8998819770798282e-05 2.0749222921720768e-03 0.0000000000000000e+00  6.1243893897268810e-05 2.1130145778661407e-03 0.0000000000000000e+00  -7.7905015832776937e-05 1.3987203973287157e-03 0.0000000000000000e+00  -7.5560357785972373e-05 1.4539577972111581e-03 0.0000000000000000e+00  -7.4008395090443109e-05 1.5080338621564094e-03 0.0000000000000000e+00  -7.3487801319579548e-05 1.5601683113398558e-03 0.0000000000000000e+00  -7.3388436098433755e-05 1.6104735294155106e-03 0.0000000000000000e+00  -7.2837948932200498e-05 1.6605453372634557e-03 0.0000000000000000e+00  -7.2340426300522662e-05 1.7145867995250229e-03 0.0000000000000000e+00  -7.2078346182861589e-05 1.7685468766907590e-03 0.0000000000000000e+00  -6.3566399487245768e-05 1.8111090590725769e-03 0.0000000000000000e+00  -5.1946570485520566e-05 1.8504072191431020e-03 0.0000000000000000e+00  -4.0031668015505694e-05 1.8907040179838431e-03 0.0000000000000000e+00  -2.7261991465275882e-05 1.9286633366903355e-03 0.0000000000000000e+00  -1.4912300941913120e-05 1.9668676945386698e-03 0.0000000000000000e+00  -2.3910853775064093e-06 2.0059497990278421e-03 0.0000000000000000e+00  1.0934575132681243e-05 2.0456354812989760e-03 0.0000000000000000e+00  2.5156083565950473e-05 2.0823434545111860e-03 0.0000000000000000e+00  3.9071317282284985e-05 2.1164924871757019e-03 0.0000000000000000e+00  -1.2603922925586629e-04 1.4544586711921824e-03 0.0000000000000000e+00  -1.2406246207562663e-04 1.5091779660089360e-03 0.0000000000000000e+00  -1.2330453392916295e-04 1.5615758608517600e-03 0.0000000000000000e+00  -1.2343238091168241e-04 1.6104873436325546e-03 0.0000000000000000e+00  -1.2299494407866195e-04 1.6571781955371594e-03 0.0000000000000000e+00  -1.2168936191307997e-04 1.7063884156267926e-03 0.0000000000000000e+00  -1.1404880469212868e-04 1.7526398799730604e-03 0.0000000000000000e+00  -1.0342459192641708e-04 1.7930655320990529e-03 0.0000000000000000e+00  -9.1764195583164679e-05 1.8314774848062496e-03 0.0000000000000000e+00  -7.9491177201609738e-05 1.8697003889813252e-03 0.0000000000000000e+00  -6.6417100391713481e-05 1.9064826235246316e-03 0.0000000000000000e+00  -5.2918573557908752e-05 1.9430634709597578e-03 0.0000000000000000e+00  -3.8785106854885694e-05 1.9797406716107187e-03 0.0000000000000000e+00  -2.3714321661419065e-05 2.0162511892528987e-03 0.0000000000000000e+00  -7.7129006649353888e-06 2.0510971859430704e-03 0.0000000000000000e+00  8.5414137149184824e-06 2.0843449105600971e-03 0.0000000000000000e+00  2.4632611570931467e-05 2.1162514187937284e-03 0.0000000000000000e+00  -1.7095141415359827e-04 1.5108632618320169e-03 0.0000000000000000e+00  -1.6934260562534252e-04 1.5639215080159440e-03 0.0000000000000000e+00  -1.6895840761800129e-04 1.6114893815505618e-03 0.0000000000000000e+00  -1.6898306244026969e-04 1.6533466479064557e-03 0.0000000000000000e+00  -1.6720180570644868e-04 1.6929358283879852e-03 0.0000000000000000e+00  -1.5592607206255633e-04 1.7356491827392765e-03 0.0000000000000000e+00  -1.4352832485584017e-04 1.7746382581404006e-03 0.0000000000000000e+00  -1.3078946733405982e-04 1.8122882986581362e-03 0.0000000000000000e+00  -1.1759135462735918e-04 1.8487474068063343e-03 0.0000000000000000e+00  -1.0356215627626466e-04 1.8838155612668570e-03 0.0000000000000000e+00  -8.8713363698455429e-05 1.9182781976264938e-03 0.0000000000000000e+00  -7.2901793707693766e-05 1.9524438289858009e-03 0.0000000000000000e+00  -5.6030972625085110e-05 1.9862410137536507e-03 0.0000000000000000e+00  -3.8216941386425852e-05 2.0191093699760466e-03 0.0000000000000000e+00  -1.9907300526573192e-05 2.0510898120511627e-03 0.0000000000000000e+00  -1.4901004758426558e-06 2.0823139036446618e-03 0.0000000000000000e+00  1.6753125204604568e-05 2.1129716897098786e-03 0.0000000000000000e+00  -2.0705299367911349e-04 1.5695695385226332e-03 0.0000000000000000e+00  -2.0725637936370528e-04 1.6141196811942562e-03 0.0000000000000000e+00  -2.0684406755632414e-04 1.6513438191013009e-03 0.0000000000000000e+00  -2.0610877410339045e-04 1.6825690496448187e-03 0.0000000000000000e+00  -1.9599156603018275e-04 1.7183838342436440e-03 0.0000000000000000e+00  -1.8262496339267284e-04 1.7556974193320698e-03 0.0000000000000000e+00  -1.6876757824415881e-04 1.7927432984616641e-03 0.0000000000000000e+00  -1.5437670257573385e-04 1.8275251242255402e-03 0.0000000000000000e+00  -1.3905601027868343e-04 1.8605224473781099e-03 0.0000000000000000e+00  -1.2268042754008096e-04 1.8925634457531708e-03 0.0000000000000000e+00  -1.0514614413261611e-04 1.9241008614426481e-03 0.0000000000000000e+00  -8.6460071439050959e-05 1.9553259424976029e-03 0.0000000000000000e+00  -6.6804229132914986e-05 1.9861608184273544e-03 0.0000000000000000e+00  -4.6540456199584150e-05 2.0167008987570642e-03 0.0000000000000000e+00  -2.6029543391641695e-05 2.0470526457888770e-03 0.0000000000000000e+00  -5.5901893916739253e-06 2.0773393670932916e-03 0.0000000000000000e+00  1.4518771239178614e-05 2.1076651044709218e-03 0.0000000000000000e+00  -2.3731757577300804e-04 1.6183462549878198e-03 0.0000000000000000e+00  -2.3761684984109768e-04 1.6514437365581021e-03 0.0000000000000000e+00  -2.3749794348698955e-04 1.6792757560043199e-03 0.0000000000000000e+00  -2.3739514853003964e-04 1.7001988902635586e-03 0.0000000000000000e+00  -2.2165157316576147e-04 1.7358892299391537e-03 0.0000000000000000e+00  -2.0590506876656811e-04 1.7730516722843947e-03 0.0000000000000000e+00  -1.8989448917883090e-04 1.8059795261207664e-03 0.0000000000000000e+00  -1.7298894663285859e-04 1.8365671737502916e-03 0.0000000000000000e+00  -1.5495874992624208e-04 1.8659195921320604e-03 0.0000000000000000e+00  -1.3566944426411819e-04 1.8946766195802058e-03 0.0000000000000000e+00  -1.1516496660551436e-04 1.9233165898242279e-03 0.0000000000000000e+00  -9.3665334409298218e-05 1.9520593231352028e-03 0.0000000000000000e+00  -7.1506407259169913e-05 1.9810644445548719e-03 0.0000000000000000e+00  -4.9038836098700074e-05 2.0104416219810526e-03 0.0000000000000000e+00  -2.6602958585689223e-05 2.0402895407523420e-03 0.0000000000000000e+00  -4.5036824608348908e-06 2.0706598309611851e-03 0.0000000000000000e+00  1.7011559300765353e-05 2.1015360375905828e-03 0.0000000000000000e+00  -2.6229537642819087e-04 1.6534256987415529e-03 0.0000000000000000e+00  -2.6175614240820890e-04 1.6780579027303173e-03 0.0000000000000000e+00  -2.6153360410895876e-04 1.6978983575910676e-03 0.0000000000000000e+00  -2.6211327341121182e-04 1.7132254942912790e-03 0.0000000000000000e+00  -2.4172649329400601e-04 1.7534356034000153e-03 0.0000000000000000e+00  -2.2352644461273054e-04 1.7841312850330119e-03 0.0000000000000000e+00  -2.0495983213371380e-04 1.8119741874652545e-03 0.0000000000000000e+00  -1.8535779705016164e-04 1.8383645789807799e-03 0.0000000000000000e+00  -1.6440147534012859e-04 1.8641132343223355e-03 0.0000000000000000e+00  -1.4213684415285499e-04 1.8900578379538310e-03 0.0000000000000000e+00  -1.1883514399066433e-04 1.9166356173836658e-03 0.0000000000000000e+00  -9.4844692721766019e-05 1.9440434513982997e-03 0.0000000000000000e+00  -7.0522599385455467e-05 1.9723935488524737e-03 0.0000000000000000e+00  -4.6237450690456978e-05 2.0017885582508644e-03 0.0000000000000000e+00  -2.2339185474573126e-05 2.0322423011826045e-03 0.0000000000000000e+00  8.8200273120371157e-07 2.0636603809379549e-03 0.0000000000000000e+00  2.3219515025339327e-05 2.0958692571704544e-03 0.0000000000000000e+00  -2.8081542898607042e-04 1.6782245135648953e-03 0.0000000000000000e+00  -2.8027090809791967e-04 1.6970382042096185e-03 0.0000000000000000e+00  -2.8011936964774514e-04 1.7125194207552245e-03 0.0000000000000000e+00  -2.6977952738844221e-04 1.7359103212301046e-03 0.0000000000000000e+00  -2.5278310387739006e-04 1.7624339215271633e-03 0.0000000000000000e+00  -2.3395634065350075e-04 1.7870270170398462e-03 0.0000000000000000e+00  -2.1348315361167873e-04 1.8100501024499393e-03 0.0000000000000000e+00  -1.9118219878347560e-04 1.8323811476271489e-03 0.0000000000000000e+00  -1.6729940973122471e-04 1.8554159588866370e-03 0.0000000000000000e+00  -1.4227778651677305e-04 1.8797356764286603e-03 0.0000000000000000e+00  -1.1653183661470862e-04 1.9054938404631800e-03 0.0000000000000000e+00  -9.0441573364828147e-05 1.9327859658125933e-03 0.0000000000000000e+00  -6.4423479538410055e-05 1.9617572960805162e-03 0.0000000000000000e+00  -3.8888211926099958e-05 1.9923910504581008e-03 0.0000000000000000e+00  -1.4171675444286269e-05 2.0244949833430172e-03 0.0000000000000000e+00  9.5013495096805197e-06 2.0577684293766356e-03 0.0000000000000000e+00  3.2015620712558620e-05 2.0918875375871295e-03 0.0000000000000000e+00  -2.9574081534563352e-04 1.6971185471339565e-03 0.0000000000000000e+00  -2.9672821547004118e-04 1.6792877845787219e-03 0.0000000000000000e+00  -2.9537430829837310e-04 1.7117713107575466e-03 0.0000000000000000e+00  -2.9535157283077279e-04 1.7210699724832239e-03 0.0000000000000000e+00  -2.7935797151361314e-04 1.7418203236027859e-03 0.0000000000000000e+00  -2.6059660403856253e-04 1.7623539715964703e-03 0.0000000000000000e+00  -2.3960514451150204e-04 1.7812784596923309e-03 0.0000000000000000e+00  -2.1610900187227542e-04 1.7994306682906716e-03 0.0000000000000000e+00  -1.9065364834251197e-04 1.8192323446587734e-03 0.0000000000000000e+00  -1.6395962858033043e-04 1.8412006643940136e-03 0.0000000000000000e+00  -1.3652083035774112e-04 1.8652607420542781e-03 0.0000000000000000e+00  -1.0872602448255090e-04 1.8914618842850348e-03 0.0000000000000000e+00  -8.1065260688530601e-05 1.9200776491121257e-03 0.0000000000000000e+00  -5.4038114909005400e-05 1.9510575999545734e-03 0.0000000000000000e+00  -2.8033825864422345e-05 1.9840680847862031e-03 0.0000000000000000e+00  -3.2837950323747557e-06 2.0186315402822984e-03 0.0000000000000000e+00  2.0124347518669365e-05 2.0542697603824480e-03 0.0000000000000000e+00  4.2203444020197972e-05 2.0905895309258136e-03 0.0000000000000000e+00  -3.0777525391736808e-04 1.6974465661502263e-03 0.0000000000000000e+00  -3.0883373320986197e-04 1.6798536577792942e-03 0.0000000000000000e+00  -3.0582829686760083e-04 1.7119781128488870e-03 0.0000000000000000e+00  -3.0497978367865835e-04 1.7203511526568895e-03 0.0000000000000000e+00  -3.0490814571057691e-04 1.7212659354951657e-03 0.0000000000000000e+00  -2.8510017378781063e-04 1.7381523336879674e-03 0.0000000000000000e+00  -2.6381327671196454e-04 1.7522363524621377e-03 0.0000000000000000e+00  -2.3924414142385188e-04 1.7649767176909758e-03 0.0000000000000000e+00  -2.1217802449611942e-04 1.7812237417893207e-03 0.0000000000000000e+00  -1.8381769174813186e-04 1.8008396169268965e-03 0.0000000000000000e+00  -1.5473318142331737e-04 1.8231699952882085e-03 0.0000000000000000e+00  -1.2526897864386627e-04 1.8482146964155365e-03 0.0000000000000000e+00  -9.6033390537303282e-05 1.8765887810976887e-03 0.0000000000000000e+00  -6.7657820032896668e-05 1.9081750591864121e-03 0.0000000000000000e+00  -4.0590750183879280e-05 1.9424142961623971e-03 0.0000000000000000e+00  -1.5049035129722478e-05 1.9785728896793316e-03 0.0000000000000000e+00  8.9378662028276736e-06 2.0159736184158020e-03 0.0000000000000000e+00  3.1452846958385176e-05 2.0541025542377320e-03 0.0000000000000000e+00  5.2625967646225312e-05 2.0926248467904376e-03 0.0000000000000000e+00  -2.9911509986215980e-04 1.6737013276489601e-03 0.0000000000000000e+00  -2.9409922582071378e-04 1.6428011010067398e-03 0.0000000000000000e+00  -3.0952954915661765e-04 1.7123533852967374e-03 0.0000000000000000e+00  -3.0679590115244396e-04 1.7206229219687487e-03 0.0000000000000000e+00  -3.0545695829787238e-04 1.7210426358747317e-03 0.0000000000000000e+00  -3.0497513484412645e-04 1.7150316011724526e-03 0.0000000000000000e+00  -2.8510906805313244e-04 1.7236532129565971e-03 0.0000000000000000e+00  -2.6083809003615746e-04 1.7283673401752480e-03 0.0000000000000000e+00  -2.3198286441430439e-04 1.7409113372798544e-03 0.0000000000000000e+00  -2.0178877238672278e-04 1.7584379424446055e-03 0.0000000000000000e+00  -1.7104562159558429e-04 1.7790390442100582e-03 0.0000000000000000e+00  -1.3990325428964501e-04 1.8027639447373137e-03 0.0000000000000000e+00  -1.0915127307650885e-04 1.8310817572162871e-03 0.0000000000000000e+00  -7.9598398902579079e-05 1.8636709744525449e-03 0.0000000000000000e+00  -5.1741689476231003e-05 1.8995967046452253e-03 0.0000000000000000e+00  -2.5743783158561880e-05 1.9377500822930296e-03 0.0000000000000000e+00  -1.5327870736962052e-06 1.9772036609348306e-03 0.0000000000000000e+00  2.1075934446226693e-05 2.0173208099430887e-03 0.0000000000000000e+00  4.2292190394213525e-05 2.0577317868571464e-03 0.0000000000000000e+00  6.2303040312127310e-05 2.0982668776781000e-03 0.0000000000000000e+00  -2.8523941094081183e-04 1.6477833642989791e-03 0.0000000000000000e+00  -2.8052653884079665e-04 1.6106694301807943e-03 0.0000000000000000e+00  -2.9278839131853296e-04 1.6857363312603663e-03 0.0000000000000000e+00  -3.0059264575664827e-04 1.7216759622980281e-03 0.0000000000000000e+00  -2.9849481978908786e-04 1.7212998372279830e-03 0.0000000000000000e+00  -2.9630410935720233e-04 1.7154811174898282e-03 0.0000000000000000e+00  -2.9475378144850337e-04 1.7020159495188549e-03 0.0000000000000000e+00  -2.8569753550209152e-04 1.6872835891689562e-03 0.0000000000000000e+00  -2.5116234612782489e-04 1.6972071133318290e-03 0.0000000000000000e+00  -2.1770921307474606e-04 1.7137501766157116e-03 0.0000000000000000e+00  -1.8510893066017866e-04 1.7327266661025438e-03 0.0000000000000000e+00  -1.5229646418330118e-04 1.7547233228695108e-03 0.0000000000000000e+00  -1.2016933212683899e-04 1.7833070467071352e-03 0.0000000000000000e+00  -8.9713316969638958e-05 1.8174932926288349e-03 0.0000000000000000e+00  -6.1435392217321837e-05 1.8557386859179938e-03 0.0000000000000000e+00  -3.5389315063552202e-05 1.8963895677862940e-03 0.0000000000000000e+00  -1.1352876235354896e-05 1.9382217574691516e-03 0.0000000000000000e+00  1.0989215006929664e-05 1.9804974422805255e-03 0.0000000000000000e+00  3.1937190748425684e-05 2.0228549754754605e-03 0.0000000000000000e+00  5.1730318520913835e-05 2.0651796599721714e-03 0.0000000000000000e+00  7.0536574536793714e-05 2.1075019425636095e-03 0.0000000000000000e+00  -2.6830402119725806e-04 1.6204427432571248e-03 0.0000000000000000e+00  -2.7276729622624800e-04 1.6577305732285023e-03 0.0000000000000000e+00  -2.7725051887759192e-04 1.6918679098986474e-03 0.0000000000000000e+00  -2.8067024251411953e-04 1.7233283275486474e-03 0.0000000000000000e+00  -2.7825321260019635e-04 1.7155084995446753e-03 0.0000000000000000e+00  -2.7354609974078090e-04 1.7031374807933977e-03 0.0000000000000000e+00  -2.6934417350107904e-04 1.6779165544980319e-03 0.0000000000000000e+00  -2.6708907483099137e-04 1.6476823441171292e-03 0.0000000000000000e+00  -2.2869053990744813e-04 1.6668800192774166e-03 0.0000000000000000e+00  -1.9531601864997695e-04 1.6844945363483801e-03 0.0000000000000000e+00  -1.6170676781983613e-04 1.7036206293145107e-03 0.0000000000000000e+00  -1.2881538673574787e-04 1.7330326325976596e-03 0.0000000000000000e+00  -9.7976150700450611e-05 1.7696539117731107e-03 0.0000000000000000e+00  -6.977277