<?xml version="1.0"?>
<VTKFile type="UnstructuredGrid"  version="0.1"  >
<UnstructuredGrid>
<Piece  NumberOfPoints="621" NumberOfCells="1125">
<Points>
<DataArray  type="Float64"  NumberOfComponents="3"  format="ascii">1.883478260869565 0 0  1.9 0 0  1.9 0.01666666666666667 0  1.883478260869565 0.01666666666666667 0  1.916521739130435 0 0  1.916521739130435 0.01666666666666667 0  1.933043478260869 0 0  1.933043478260869 0.01666666666666667 0  1.949565217391304 0 0  1.949565217391304 0.01666666666666667 0  1.966086956521739 0 0  1.966086956521739 0.01666666666666667 0  1.982608695652174 0 0  1.982608695652174 0.01666666666666667 0  1.999130434782608 0 0  1.999130434782608 0.01666666666666667 0  2.015652173913043 0 0  2.015652173913043 0.01666666666666667 0  2.032173913043478 0 0  2.032173913043478 0.01666666666666667 0  2.048695652173913 0 0  2.048695652173913 0.01666666666666667 0  2.065217391304348 0 0  2.065217391304348 0.01666666666666667 0  2.081739130434782 0 0  2.081739130434782 0.01666666666666667 0  2.098260869565217 0 0  2.098260869565217 0.01666666666666667 0  2.114782608695652 0 0  2.114782608695652 0.01666666666666667 0  2.131304347826087 0 0  2.131304347826087 0.01666666666666667 0  2.147826086956522 0 0  2.147826086956522 0.01666666666666667 0  2.164347826086956 0 0  2.164347826086956 0.01666666666666667 0  2.180869565217391 0 0  2.180869565217391 0.01666666666666667 0  2.197391304347826 0 0  2.197391304347826 0.01666666666666667 0  2.213913043478261 0 0  2.213913043478261 0.01666666666666667 0  2.230434782608695 0 0  2.230434782608695 0.01666666666666667 0  2.24695652173913 0 0  2.24695652173913 0.01666666666666667 0  2.263478260869565 0 0  2.263478260869565 0.01666666666666667 0  2.28 0 0  2.28 0.01666666666666667 0  2.296521739130434 0 0  2.296521739130434 0.01666666666666667 0  2.31304347826087 0 0  2.31304347826087 0.01666666666666667 0  2.329565217391304 0 0  2.329565217391304 0.01666666666666667 0  2.346086956521739 0 0  2.346086956521739 0.01666666666666667 0  2.362608695652174 0 0  2.362608695652174 0.01666666666666667 0  2.379130434782609 0 0  2.379130434782609 0.01666666666666667 0  2.395652173913044 0 0  2.395652173913044 0.01666666666666667 0  2.412173913043478 0 0  2.412173913043478 0.01666666666666667 0  2.428695652173913 0 0  2.428695652173913 0.01666666666666667 0  2.445217391304348 0 0  2.445217391304348 0.01666666666666667 0  2.461739130434782 0 0  2.461739130434782 0.01666666666666667 0  2.478260869565217 0 0  2.478260869565217 0.01666666666666667 0  2.494782608695652 0 0  2.494782608695652 0.01666666666666667 0  2.511304347826087 0 0  2.511304347826087 0.01666666666666667 0  2.527826086956522 0 0  2.527826086956522 0.01666666666666667 0  2.544347826086956 0 0  2.544347826086956 0.01666666666666667 0  2.560869565217391 0 0  2.560869565217391 0.01666666666666667 0  2.577391304347826 0 0  2.577391304347826 0.01666666666666667 0  1.916521739130435 0.03333333333333333 0  1.933043478260869 0.03333333333333333 0  1.949565217391304 0.03333333333333333 0  1.966086956521739 0.03333333333333333 0  1.982608695652174 0.03333333333333333 0  1.999130434782608 0.03333333333333333 0  2.015652173913043 0.03333333333333333 0  2.032173913043478 0.03333333333333333 0  2.048695652173913 0.03333333333333333 0  2.065217391304348 0.03333333333333333 0  2.081739130434782 0.03333333333333333 0  2.098260869565217 0.03333333333333333 0  2.114782608695652 0.03333333333333333 0  2.131304347826087 0.03333333333333333 0  2.147826086956522 0.03333333333333333 0  2.164347826086956 0.03333333333333333 0  2.180869565217391 0.03333333333333333 0  2.197391304347826 0.03333333333333333 0  2.213913043478261 0.03333333333333333 0  2.230434782608695 0.03333333333333333 0  2.24695652173913 0.03333333333333333 0  2.263478260869565 0.03333333333333333 0  2.28 0.03333333333333333 0  2.296521739130434 0.03333333333333333 0  2.31304347826087 0.03333333333333333 0  2.329565217391304 0.03333333333333333 0  2.346086956521739 0.03333333333333333 0  2.362608695652174 0.03333333333333333 0  2.379130434782609 0.03333333333333333 0  2.395652173913044 0.03333333333333333 0  2.412173913043478 0.03333333333333333 0  2.428695652173913 0.03333333333333333 0  2.445217391304348 0.03333333333333333 0  2.461739130434782 0.03333333333333333 0  2.478260869565217 0.03333333333333333 0  2.494782608695652 0.03333333333333333 0  2.511304347826087 0.03333333333333333 0  2.527826086956522 0.03333333333333333 0  2.544347826086956 0.03333333333333333 0  2.560869565217391 0.03333333333333333 0  2.577391304347826 0.03333333333333333 0  2.593913043478261 0.03333333333333333 0  1.933043478260869 0.05 0  1.949565217391304 0.05 0  1.966086956521739 0.05 0  1.982608695652174 0.05 0  1.999130434782608 0.05 0  2.015652173913043 0.05 0  2.032173913043478 0.05 0  2.048695652173913 0.05 0  2.065217391304348 0.05 0  2.081739130434782 0.05 0  2.098260869565217 0.05 0  2.114782608695652 0.05 0  2.131304347826087 0.05 0  2.147826086956522 0.05 0  2.164347826086956 0.05 0  2.180869565217391 0.05 0  2.197391304347826 0.05 0  2.213913043478261 0.05 0  2.230434782608695 0.05 0  2.24695652173913 0.05 0  2.263478260869565 0.05 0  2.28 0.05 0  2.296521739130434 0.05 0  2.31304347826087 0.05 0  2.329565217391304 0.05 0  2.346086956521739 0.05 0  2.362608695652174 0.05 0  2.379130434782609 0.05 0  2.395652173913044 0.05 0  2.412173913043478 0.05 0  2.428695652173913 0.05 0  2.445217391304348 0.05 0  2.461739130434782 0.05 0  2.478260869565217 0.05 0  2.494782608695652 0.05 0  2.511304347826087 0.05 0  2.527826086956522 0.05 0  2.544347826086956 0.05 0  2.560869565217391 0.05 0  2.577391304347826 0.05 0  2.593913043478261 0.05 0  2.610434782608696 0.05 0  1.949565217391304 0.06666666666666667 0  1.966086956521739 0.06666666666666667 0  1.982608695652174 0.06666666666666667 0  1.999130434782608 0.06666666666666667 0  2.015652173913043 0.06666666666666667 0  2.032173913043478 0.06666666666666667 0  2.048695652173913 0.06666666666666667 0  2.065217391304348 0.06666666666666667 0  2.081739130434782 0.06666666666666667 0  2.098260869565217 0.06666666666666667 0  2.114782608695652 0.06666666666666667 0  2.131304347826087 0.06666666666666667 0  2.147826086956522 0.06666666666666667 0  2.164347826086956 0.06666666666666667 0  2.180869565217391 0.06666666666666667 0  2.197391304347826 0.06666666666666667 0  2.213913043478261 0.06666666666666667 0  2.230434782608695 0.06666666666666667 0  2.24695652173913 0.06666666666666667 0  2.263478260869565 0.06666666666666667 0  2.28 0.06666666666666667 0  2.296521739130434 0.06666666666666667 0  2.31304347826087 0.06666666666666667 0  2.329565217391304 0.06666666666666667 0  2.346086956521739 0.06666666666666667 0  2.362608695652174 0.06666666666666667 0  2.379130434782609 0.06666666666666667 0  2.395652173913044 0.06666666666666667 0  2.412173913043478 0.06666666666666667 0  2.428695652173913 0.06666666666666667 0  2.445217391304348 0.06666666666666667 0  2.461739130434782 0.06666666666666667 0  2.478260869565217 0.06666666666666667 0  2.494782608695652 0.06666666666666667 0  2.511304347826087 0.06666666666666667 0  2.527826086956522 0.06666666666666667 0  2.544347826086956 0.06666666666666667 0  2.560869565217391 0.06666666666666667 0  2.577391304347826 0.06666666666666667 0  2.593913043478261 0.06666666666666667 0  2.610434782608696 0.06666666666666667 0  2.62695652173913 0.06666666666666667 0  1.966086956521739 0.08333333333333333 0  1.982608695652174 0.08333333333333333 0  1.999130434782608 0.08333333333333333 0  2.015652173913043 0.08333333333333333 0  2.032173913043478 0.08333333333333333 0  2.048695652173913 0.08333333333333333 0  2.065217391304348 0.08333333333333333 0  2.081739130434782 0.08333333333333333 0  2.098260869565217 0.08333333333333333 0  2.114782608695652 0.08333333333333333 0  2.131304347826087 0.08333333333333333 0  2.147826086956522 0.08333333333333333 0  2.164347826086956 0.08333333333333333 0  2.180869565217391 0.08333333333333333 0  2.197391304347826 0.08333333333333333 0  2.213913043478261 0.08333333333333333 0  2.230434782608695 0.08333333333333333 0  2.24695652173913 0.08333333333333333 0  2.263478260869565 0.08333333333333333 0  2.28 0.08333333333333333 0  2.296521739130434 0.08333333333333333 0  2.31304347826087 0.08333333333333333 0  2.329565217391304 0.08333333333333333 0  2.346086956521739 0.08333333333333333 0  2.362608695652174 0.08333333333333333 0  2.379130434782609 0.08333333333333333 0  2.395652173913044 0.08333333333333333 0  2.412173913043478 0.08333333333333333 0  2.428695652173913 0.08333333333333333 0  2.445217391304348 0.08333333333333333 0  2.461739130434782 0.08333333333333333 0  2.478260869565217 0.08333333333333333 0  2.494782608695652 0.08333333333333333 0  2.511304347826087 0.08333333333333333 0  2.527826086956522 0.08333333333333333 0  2.544347826086956 0.08333333333333333 0  2.560869565217391 0.08333333333333333 0  2.577391304347826 0.08333333333333333 0  2.593913043478261 0.08333333333333333 0  2.610434782608696 0.08333333333333333 0  2.62695652173913 0.08333333333333333 0  2.643478260869565 0.08333333333333333 0  1.982608695652174 0.1 0  1.999130434782608 0.1 0  2.015652173913043 0.1 0  2.032173913043478 0.1 0  2.048695652173913 0.1 0  2.065217391304348 0.1 0  2.081739130434782 0.1 0  2.098260869565217 0.1 0  2.114782608695652 0.1 0  2.131304347826087 0.1 0  2.147826086956522 0.1 0  2.164347826086956 0.1 0  2.180869565217391 0.1 0  2.197391304347826 0.1 0  2.213913043478261 0.1 0  2.230434782608695 0.1 0  2.24695652173913 0.1 0  2.263478260869565 0.1 0  2.28 0.1 0  2.296521739130434 0.1 0  2.31304347826087 0.1 0  2.329565217391304 0.1 0  2.346086956521739 0.1 0  2.362608695652174 0.1 0  2.379130434782609 0.1 0  2.395652173913044 0.1 0  2.412173913043478 0.1 0  2.428695652173913 0.1 0  2.445217391304348 0.1 0  2.461739130434782 0.1 0  2.478260869565217 0.1 0  2.494782608695652 0.1 0  2.511304347826087 0.1 0  2.527826086956522 0.1 0  2.544347826086956 0.1 0  2.560869565217391 0.1 0  2.5773
[...]
<CellData  Scalars="rho"> 
<DataArray  type="Float64"  Name="rho"  format="ascii">7.3594060914765380e-01   7.2153995199416843e-01   7.3527977002240663e-01   7.2082547878923142e-01   7.2284001564755795e-01   7.1071102607000125e-01   7.1157729625428745e-01   7.0076604341052628e-01   7.0509997423606918e-01   6.9793160046994884e-01   6.9264571661462415e-01   6.8714477660939943e-01   6.7584056156200578e-01   6.7153604134501710e-01   6.5166227917244846e-01   6.5008042214011730e-01   6.1958204625359636e-01   6.1769088103799319e-01   6.0204837397030386e-01   5.9324257317854667e-01   6.0146675262594340e-01   5.8325301718447031e-01   6.2412102861205365e-01   5.9961698617434778e-01   6.4887644459734006e-01   6.2254731845268274e-01   6.8566499120287738e-01   6.5179293282822615e-01   7.2238657284276153e-01   6.8373160759963403e-01   7.4695461575293876e-01   7.2128363818358066e-01   7.4374967027185157e-01   7.3808715364232702e-01   7.6185534375625308e-01   7.4110758015801947e-01   7.6397012443536949e-01   7.4419428801419263e-01   7.6051733443431135e-01   7.4233433216817690e-01   7.5520852477780709e-01   7.3736130589479543e-01   7.5071588532969058e-01   7.3453801969312771e-01   7.4800464173126668e-01   7.2977217036498776e-01   7.4606347563374575e-01   7.2752336480692181e-01   7.4465759444541324e-01   7.2616273365149175e-01   7.4283167554878937e-01   7.2466347552289390e-01   7.4047878140952061e-01   7.2270765569305706e-01   7.3649715746419497e-01   7.1976515157203946e-01   7.3249279121800204e-01   7.1524792667706494e-01   7.2747193373855668e-01   7.1073270182099146e-01   7.2079779319043047e-01   7.0492937062837446e-01   7.1588145823112437e-01   6.9996282898067252e-01   7.1846331365404104e-01   6.9677180307498432e-01   7.1588126644091998e-01   6.9892544322037709e-01   7.1380750931467041e-01   6.9666194035396400e-01   7.1253578078703073e-01   6.9490282090162170e-01   7.1227678574877740e-01   6.9429674092858984e-01   7.1309209994152700e-01   6.9473683175435674e-01   7.1484795668465373e-01   6.9636729837601952e-01   7.1722232424330246e-01   6.9855646352488865e-01   7.1067045308062515e-01   6.9241412005240732e-01   7.1433709053369521e-01   6.9551782361773773e-01   6.5912553826384768e-01   6.5876449128572712e-01   6.2073775142813070e-01   6.6035032687173834e-01   6.2954040112909215e-01   6.5769521773427675e-01   6.3148175585836186e-01   6.4617532527504318e-01   6.2465340586951068e-01   6.2953290165458231e-01   6.0862312681190434e-01   6.0357415164442763e-01   5.8685124423874491e-01   5.6333459143262277e-01   5.5054398325705878e-01   5.3744946554205597e-01   5.1001638116569781e-01   5.2734271275372713e-01   4.8956214696223332e-01   5.4518801587477661e-01   4.8782074622850319e-01   5.6810511685199716e-01   5.1344091071410169e-01   5.9600200109401991e-01   5.3974908089235540e-01   6.2500317221709822e-01   5.7036551086685938e-01   6.4502338465681264e-01   5.9010641495939486e-01   6.6096034982357588e-01   6.0656938340854960e-01   6.6208429240031175e-01   6.1503699455690108e-01   6.7446940223221530e-01   6.1255685610595934e-01   6.7390877147828920e-01   6.1133322583197158e-01   6.7051476075187311e-01   6.2051017710108836e-01   6.6530353984640900e-01   6.1791507407253055e-01   6.6113397365230397e-01   6.1297516985773770e-01   6.5878601970615369e-01   6.0927839077291934e-01   6.5745156777050051e-01   6.0795535985076965e-01   6.5635043645274260e-01   6.0681910858935750e-01   6.5428451821130351e-01   6.0544741758976350e-01   6.5165126323744371e-01   6.0316667185378026e-01   6.4742010890785917e-01   6.0019986704908124e-01   6.4296457389795947e-01   5.9583654654948182e-01   6.3892385900946513e-01   5.9341565301071109e-01   6.3572605924238634e-01   5.9077095549890057e-01   6.3470085160125089e-01   5.8536726702427344e-01   6.2941770229625627e-01   5.8564882406925733e-01   6.2688479494748461e-01   5.8205862223206273e-01   6.2528742588136743e-01   5.8060014227224277e-01   6.2721637548342934e-01   5.7971794533459120e-01   6.2760664759311047e-01   5.7978646948036727e-01   6.2913955506740560e-01   5.8345296004197322e-01   6.3108584078366514e-01   5.8533955937691340e-01   6.3172945572151451e-01   5.8619227075352642e-01   6.3461150332794702e-01   5.8736209076991519e-01   5.8999003079398871e-01   5.2847220627578961e-01   5.4889149274399840e-01   4.8815171382372308e-01   5.5474641332493213e-01   5.1158009498711543e-01   5.4759412976407906e-01   5.1861619116108049e-01   5.2405131765476776e-01   5.0016053956884265e-01   4.9992018884364431e-01   4.6336178258966054e-01   4.5499801425838721e-01   4.3175929147022191e-01   4.0932585134537353e-01   3.8431736612539313e-01   3.8724358686785154e-01   3.4351144367952718e-01   3.8425069853580363e-01   3.3011060035238199e-01   4.0636943907742107e-01   3.3583726016963050e-01   4.2841070545065330e-01   3.5973937806505402e-01   4.5573282335429227e-01   3.8511825891823170e-01   4.7005608330679305e-01   4.0180254701713836e-01   4.8083846839572875e-01   4.1220661012825766e-01   4.8852223201269940e-01   4.1859089123045001e-01   4.7961914263786209e-01   4.2133762087944326e-01   4.9639520798574371e-01   4.1429370311919633e-01   4.9380941159194230e-01   4.1794656965377747e-01   4.9100654537435601e-01   4.1561074731038117e-01   4.8803282348483490e-01   4.1290787594933176e-01   4.8780105545513253e-01   4.1177601228114746e-01   4.8579421766062275e-01   4.1050821956977396e-01   4.9665949980516227e-01   4.1376650062354486e-01   4.9613418003326931e-01   4.1281396948685856e-01   4.9366970746105637e-01   4.1198828751520267e-01   4.9234038763480792e-01   4.2009716170323236e-01   4.8709174900746260e-01   4.2985428074476362e-01   4.8458695780294991e-01   4.2720265736620255e-01   4.8141867079181216e-01   4.2494250856537896e-01   4.7859464034800331e-01   4.2241517143157992e-01   4.7598048281265282e-01   4.1992125174968303e-01   4.7388671187576048e-01   4.1985793369231444e-01   4.7975109403513727e-01   4.1747517999887790e-01   4.7925900952316342e-01   4.2270796692308399e-01   4.7945675877296323e-01   4.2622676512867097e-01   4.8031997486940503e-01   4.2750830840836845e-01   4.8475097346957657e-01   4.2843141232070453e-01   4.8624022847963022e-01   4.3022540674685289e-01   4.8653785001562222e-01   4.3258650321042080e-01   4.8830596493968959e-01   4.3401450017583237e-01   4.3614765887464280e-01   4.4826160989048031e-01   4.8486236658027165e-01   4.4471781059498078e-01   5.0173697348451973e-01   4.7640499880017179e-01   4.9102483374252232e-01   4.7663770522578591e-01   4.3262222797512995e-01   4.4752904718830461e-01   3.6850269238595174e-01   3.7990789011625253e-01   3.1170586521410715e-01   3.0534005923628033e-01   2.7452531793935120e-01   2.6320013949845406e-01   2.5912728898699577e-01   2.3276230297199113e-01   2.5988283150570801e-01   2.2499170131256396e-01   2.7692340992740067e-01   2.3423317568847959e-01   2.8864911044346597e-01   2.4180072056715859e-01   3.0577218740759110e-01   2.5647248347997681e-01   3.1428889841283941e-01   2.6335518137576203e-01   3.1829102893755379e-01   2.6995948542373532e-01   3.1939891339057697e-01   2.6858435871708214e-01   3.1873221533982121e-01   2.6814196054123723e-01   3.1736448843029280e-01   2.6708224210143572e-01   3.1497377962791462e-01   2.6566229489142579e-01   3.1127336819861007e-01   2.7024040552355766e-01   3.1135087254225691e-01   2.6917758600423158e-01   3.1231292865421190e-01   2.6873931328518325e-01   3.1091805145399015e-01   2.6299652492775183e-01   3.0506980064540701e-01   2.6148432245792108e-01   3.2340981001845770e-01   2.5957874276668119e-01   3.3064094377389319e-01   2.5771343982691963e-01   3.3021714545392628e-01   2.7872332890696977e-01   3.3221226380508007e-01   2.7826398633301014e-01   3.3088813104308856e-01   2.7756033731836821e-01   3.3097849081395503e-01   2.7785609860822758e-01   3.2947094878736555e-01   2.7662569191416886e-01   3.2754959715710102e-01   2.7530086692050049e-01   3.2620946426722419e-01   2.7406152993014632e-01   3.3204264754135498e-01   2.8156180814589521e-01   3.3194889919179776e-01   2.7934207122969246e-01   3.3239776037761004e-01   2.7923028355041563e-01   3.2911495305130084e-01   2.7513024131673841e-01   3.3099431512322669e-01   2.7547049977938637e-01   3.4191195210993480e-01   2.7581250827403031e-01   3.4152558819261553e-01   2.7640041810823662e-01   3.4444798454892123e-01   2.7694814151746655e-01   2.7746155633020442e-01   4.4129426455280024e-01   4.7030739742826289e-01   4.7517273453258713e-01   4.5723891165761210e-01   4.6842432804804196e-01   4.1625841044813544e-01   4.2974016106227048e-01   3.5888894996593207e-01   3.6960367831317392e-01   2.8894199787393238e-01   3.1846623666397406e-01   2.4622583503008191e-01   2.4783960393961257e-01   2.1162971004147410e-01   2.1591364012342820e-01   1.8809366876384573e-01   1.8717125335712453e-01   1.8283453523740398e-01   1.8149951306251594e-01   1.8400959963352517e-01   1.6199486810672534e-01   1.9172526717118243e-01   1.6133738982848697e-01   1.9426527090692181e-01   1.6712880624390206e-01   1.9524200383409063e-01   1.6782722298290459e-01   1.9499140032425491e-01   1.6698515780967155e-01   1.9401117992564273e-01   1.6591655251686041e-01   1.9231473394219167e-01   1.6433910528536566e-01   1.9015969093209595e-01   1.6293692880313662e-01   1.8876323144744972e-01   1.6132541608080370e-01   1.8798159923719671e-01   1.6089294810510441e-01   1.8693788487234134e-01   1.6049712157842275e-01   1.8675157574359028e-01   1.6099551531969788e-01   1.8675641213774941e-01   1.7034509655095412e-01   1.9532184869071212e-01   1.7149661786251799e-01   1.9553545371332567e-01   1.6709911171908418e-01   2.1296349566234457e-01   1.8576087698846994e-01   2.1357194652149811e-01   1.8721966485446531e-01   2.1527933640120547e-01   1.8964135704540722e-01   2.1531629762401652e-01   1.9717685759958267e-01   2.1878030221692427e-01   1.9751047703314045e-01   2.1825245745308205e-01   1.9746074508881342e-01   2.1725485690720356e-01   2.0034775362028440e-01   2.1634810569948912e-01   1.9938436820431843e-01   2.1449273688479978e-01   1.9814663308522570e-01   2.1355771139016699e-01   1.9595534124907033e-01   2.1197281185681671e-01   1.8982344500854387e-01   2.1077431537996555e-01   1.8803403009644315e-01   2.0939876496918708e-01   1.8191067210666353e-01   2.0631827402499844e-01   1.7954815703349844e-01   2.0095744315185227e-01   1.7577650178747539e-01   1.9981132039554367e-01   1.7368436582865643e-01   1.7179004635958459e-01   5.0565663834802954e-01   4.8556510488338711e-01   5.4055533556442881e-01   4.1902120329789655e-01   4.8272436329677687e-01   3.3824272492978258e-01   3.9616293749706755e-01   2.7863072999695010e-01   3.1279424131806238e-01   2.3205783072401073e-01   2.5207144579627305e-01   2.0048955210004263e-01   2.1150490901760891e-01   1.5596908461331879e-01   1.8616814075854954e-01   1.4890440380551984e-01   1.4745555898925181e-01   1.4338333382928539e-01   1.3624392897075110e-01   1.3949035524318229e-01   1.3395132168960255e-01   1.4167509818814672e-01   1.2943053585595457e-01   1.3931108944665968e-01   1.3037621986906736e-01   1.3670532646785696e-01   1.2688448413809819e-01   1.3431543842735136e-01   1.2332777716099097e-01   1.1830216844510080e-01   1.2037890481079787e-01   1.2597905441235011e-01   1.1847339891503068e-01   1.2478180300883228e-01   1.2295433839171313e-01   1.2494114922537153e-01   1.2268747452055120e-01   1.3200772509602116e-01   1.2303986947485626e-01   1.3349513189694770e-01   1.2483115878194161e-01   1.3580634821089968e-01   1.2764783130948520e-01   1.3888998852237294e-01   1.3138296810219910e-01   1.4617234225967432e-01   1.3593249148645076e-01   1.6621938840679407e-01   1.5669081797817655e-01   1.6886679512573977e-01   1.6005111892173182e-01   1.7226134833094572e-01   1.6644068536343859e-01   1.7736878305598611e-01   1.6586425606439678e-01   1.7836149057662803e-01   1.6955778735239108e-01   1.7915797099203545e-01   1.7109298603402859e-01   1.7665591956749649e-01   1.7152837977421914e-01   1.7769901529958196e-01   1.7105920457933607e-01   1.7538449157475616e-01   1.6953233164880788e-01   1.7328981552912762e-01   1.6638002970252053e-01   1.7063864384678995e-01   1.6433103659169043e-01   1.6709045381604332e-01   1.6071907974323907e-01   1.6351268521232887e-01   1.5655842637338885e-01   1.5967311467590872e-01   1.5160421246043301e-01   1.5084764262854228e-01   1.4563020358775389e-01   1.4696329700489416e-01   1.3731520260692920e-01   1.4293291157563207e-01   1.3262589456418625e-01   1.2794431695658712e-01   5.8425119140783921e-01   5.0926414704498946e-01   5.7641430881283551e-01   4.0847833453662485e-01   4.7943907519922646e-01   3.3181510200471442e-01   3.8265556053442196e-01   2.6215138455013909e-01   3.1124516630113208e-01   2.3237933760393670e-01   2.5615378452164894e-01   2.0383732367506607e-01   2.2097992911077111e-01   1.8082038595663352e-01   2.0601529666262952e-01   1.3866595551231722e-01   1.7257478889840727e-01   1.2404190331829977e-01   1.4538184754060141e-01   1.2542256289528103e-01   1.3154019178588419e-01   1.2171803575795068e-01   1.3023203596745822e-01   1.1535249643213090e-01   1.2655340763389725e-01   1.1200402827387548e-01   1.2017373704707440e-01   1.0853159438500203e-01   1.1499911947453291e-01   1.0636040977104280e-01   1.1184442888866238e-01   1.0546657302970751e-01   1.1053111997603608e-01   1.0585259637255053e-01   1.1049087827343382e-01   1.0784529381252998e-01   1.1306225015753403e-01   1.1140843645360481e-01   1.1714390771882535e-01   1.1631861437232102e-01   1.2065447664212990e-01   1.2240367010446175e-01   1.2727434809432869e-01   1.4509187318660227e-01   1.5098976291700833e-01   1.4974229214360138e-01   1.4370664980728409e-01   1.5324148694426001e-01   1.5497498575292754e-01   1.5724448917365128e-01   1.6635499639295798e-01   1.6711475936020448e-01   1.7772231501897665e-01   1.7463581150100538e-01   1.8292118606764288e-01   1.7637832245060459e-01   1.9156092301889391e-01   1.8032115860748510e-01   1.9711603109438647e-01   1.8092040592640188e-01   1.9906643567398830e-01   1.7805714524672805e-01   1.9720386043176610e-01   1.7135575195303016e-01   1.9107348998881260e-01   1.6562580616365866e-01   1.8204682798626295e-01   1.6004219543562917e-01   1.7263682433259020e-01   1.5163269257199855e-01   1.6018805273036418e-01   1.4544243034400522e-01   1.5029947830230453e-01   1.3758968068503194e-01   1.4325608488290215e-01   1.2779753748894454e-01   1.3481471840062817e-01   1.2130294910785193e-01   1.2422568781998940e-01   1.1533242154241805e-01   1.1720831274966681e-01   1.1084101268419602e-01   2.5567393089576473e-01   2.2956820534867800e-01   2.6071086047645414e-01   2.1733242663240979e-01   2.3846255339573535e-01   1.8735400807403335e-01   2.2662845549928179e-01   1.7067379184490977e-01   1.9754878085787930e-01   1.5704420291682394e-01   1.8183031795342389e-01   1.4800283986631382e-01   1.6825403270853972e-01   1.3986306326164724e-01   1.6066967365723991e-01   1.3424969263225359e-01   1.5330207160963577e-01   1.3259806166260085e-01   1.4876542626688916e-01   1.3160872587112532e-01   1.4646385736928000e-01   1.3272102031968039e-01   1.4774169108782234e-01   1.3642706459944265e-01   1.5054046980212205e-01   1.4235897983246351e-01   1.5410175996581302e-01   1.5023457533540327e-01   1.6078107473375203e-01   1.5942949295107020e-01   1.7200821650935119e-01   1.7017190310370423e-01   1.9077070557168152e-01   1.8389793209111599e-01   2.1619586170227029e-01   1.9863271807085806e-01   2.2373196610351129e-01   2.1277802122253744e-01   2.4055348643055646e-01   2.2319820028007714e-01   2.5403596510470722e-01   2.3676430331224296e-01   2.7048664644882209e-01   2.4631438932675898e-01   2.9009117969265008e-01   2.5183864559505287e-01   2.9903553402844069e-01   2.5291914518196490e-01   3.0288462395396815e-01   2.4938727670733302e-01   3.0132069541728435e-01   2.4091078497087390e-01   2.9429247917775697e-01   2.2879106742727687e-01   2.5891624574376026e-01   2.1316127711004038e-01   2.4080158893325773e-01   1.8580261942225651e-01   2.2254729097184683e-01   1.7203729403545670e-01   2.0504490011795484e-01   1.6110870779446762e-01   1.8989536679285132e-01   1.5187647621369049e-01   1.7799648113953787e-01   1.3971253237513659e-01   1.5894170812731107e-01   1.3135443907931493e-01   1.4662720832729903e-01   1.2371678351157464e-01   1.3825667856651239e-01   1.3080248121745597e-01   3.0574181675291001e-01   2.7431051444631577e-01   3.1887945037960491e-01   2.6267290824300843e-01   3.0353340447006449e-01   2.3246759916013454e-01   2.7281065839605834e-01   2.1496702681467267e-01   2.5268304274363335e-01   1.9984356765254790e-01   2.2969699223018267e-01   1.9510777609352131e-01   2.1510512384173780e-01   1.8622684102778003e-01   2.0613977791769020e-01   1.7775602203686364e-01   1.9865631797753808e-01   1.7620004147590612e-01   1.9208536262475165e-01   1.7752139302116313e-01   1.9242528024783670e-01   1.8256690391983768e-01   1.9586199046851302e-01   1.8912373827625167e-01   2.0097195597321002e-01   2.0062657824531610e-01   2.1190972446631529e-01   2.1452045946283069e-01   2.2547475472827380e-01   2.3382545119949838e-01   2.4085023748100970e-01   2.4702334925190159e-01   2.6673976333296445e-01   2.6585974212520358e-01   2.7662082123772808e-01   2.8125452426548092e-01   2.9529425693249928e-01   3.0782750185518182e-01   3.1993931560333494e-01   3.2508414084305171e-01   3.5848151352262003e-01   3.3862737971363316e-01   3.7369007417808098e-01   3.4673654386700536e-01   3.8367682870455933e-01   3.4949097880926683e-01   3.8848315272065936e-01   3.4664710936866250e-01   3.8781477485698079e-01   3.3818115452619657e-01   3.8155273969188719e-01   3.2399523006016068e-01   3.6943606394589629e-01   3.0532857979328509e-01   3.5255213215231451e-01   2.5825622282056859e-01   3.3110964110793045e-01   2.3493170152834916e-01   2.7650256583961508e-01   2.1775904968632284e-01   2.5358707183522439e-01   2.0144175508735968e-01   2.3685212604105699e-01   2.0893406301584583e-01   2.1988170907826901e-01   1.9281507747490328e-01   2.1266046705246708e-01   1.7710413456319848e-01   1.9515858710998782e-01   1.6864096454260949e-01   1.8091552691233304e-01   1.6136751626512444e-01   1.7329187021018833e-01   1.4073614665925149e-01   3.8381901965901249e-01   3.6040717759725943e-01   3.9788689365754248e-01   3.3288901465380355e-01   3.6992944533978711e-01   3.1053213781536249e-01   3.4115528529717770e-01   2.8931244461224648e-01   3.1847735245275555e-01   2.7298364018628735e-01   2.9783126804909771e-01   2.6814201885010508e-01   2.9054751883350638e-01   2.5969475248147833e-01   2.7935649250900013e-01   2.5258435678222502e-01   2.7267351052205602e-01   2.5317981361423808e-01   2.6700109363655800e-01   2.5506252193315532e-01   2.6560966324332469e-01   2.6343113717942784e-01   2.7183390697515603e-01   2.7587058999634312e-01   2.8078399674057675e-01   2.9074765088581211e-01   2.9312301362048221e-01   3.1242094752335281e-01   3.2159027795015988e-01   3.4146703774858567e-01   3.3471045221897822e-01   3.5267245614102277e-01   3.5331805309685604e-01   3.7148911250220307e-01   3.6444430095400460e-01   3.6843713506923931e-01   3.9529733341349249e-01   3.9367761689113878e-01   4.1234414042661294e-01   4.0690444549242211e-01   4.3503746671833587e-01   4.1596656454425740e-01   4.4574768271092841e-01   4.1961843675446248e-01   4.5136667357195737e-01   4.1811785226739584e-01   4.5211338407990193e-01   4.1132772411977903e-01   4.4780218882269868e-01   3.9890981063451086e-01   4.3827822189931964e-01   3.8174565504524111e-01   3.9511805881125622e-01   3.3329383715795191e-01   3.7345841493053422e-01   3.0856768891338721e-01   3.5290675644451519e-01   2.8697378058121020e-01   3.3277855880131280e-01   2.6935558840083340e-01   3.0606819190936374e-01   2.4874624581325511e-01   2.8703715467080654e-01   2.3890510478362342e-01   2.7150035473243783e-01   2.2494707675991946e-01   2.5200483382207006e-01   2.1191359858098657e-01   2.0764466759585812e-01   1.7675582304652745e-01   1.9558240536001317e-01   1.6847043230340603e-01   1.8617656295026738e-01   1.7942276619610367e-01   4.2798117101466676