<?xml version="1.0"?>
<VTKFile type="UnstructuredGrid"  version="0.1"  >
<UnstructuredGrid>
<Piece  NumberOfPoints="640" NumberOfCells="1181">
<Points>
<DataArray  type="Float64"  NumberOfComponents="3"  format="ascii">2.973913043478261 0 0  2.990434782608696 0 0  2.990434782608696 0.01666666666666667 0  2.973913043478261 0.01666666666666667 0  3.006956521739131 0 0  3.006956521739131 0.01666666666666667 0  3.023478260869565 0 0  3.023478260869565 0.01666666666666667 0  3.04 0 0  3.04 0.01666666666666667 0  3.056521739130435 0 0  3.056521739130435 0.01666666666666667 0  3.073043478260869 0 0  3.073043478260869 0.01666666666666667 0  3.089565217391304 0 0  3.089565217391304 0.01666666666666667 0  3.106086956521739 0 0  3.106086956521739 0.01666666666666667 0  3.122608695652174 0 0  3.122608695652174 0.01666666666666667 0  3.139130434782609 0 0  3.139130434782609 0.01666666666666667 0  3.155652173913043 0 0  3.155652173913043 0.01666666666666667 0  3.172173913043478 0 0  3.172173913043478 0.01666666666666667 0  3.188695652173913 0 0  3.188695652173913 0.01666666666666667 0  3.205217391304347 0 0  3.205217391304347 0.01666666666666667 0  3.221739130434782 0 0  3.221739130434782 0.01666666666666667 0  3.238260869565217 0 0  3.238260869565217 0.01666666666666667 0  2.990434782608696 0.03333333333333333 0  2.973913043478261 0.03333333333333333 0  3.006956521739131 0.03333333333333333 0  3.023478260869565 0.03333333333333333 0  3.04 0.03333333333333333 0  3.056521739130435 0.03333333333333333 0  3.073043478260869 0.03333333333333333 0  3.089565217391304 0.03333333333333333 0  3.106086956521739 0.03333333333333333 0  3.122608695652174 0.03333333333333333 0  3.139130434782609 0.03333333333333333 0  3.155652173913043 0.03333333333333333 0  3.172173913043478 0.03333333333333333 0  3.188695652173913 0.03333333333333333 0  3.205217391304347 0.03333333333333333 0  3.221739130434782 0.03333333333333333 0  3.238260869565217 0.03333333333333333 0  3.254782608695652 0.03333333333333333 0  2.990434782608696 0.05 0  3.006956521739131 0.05 0  3.023478260869565 0.05 0  3.04 0.05 0  3.056521739130435 0.05 0  3.073043478260869 0.05 0  3.089565217391304 0.05 0  3.106086956521739 0.05 0  3.122608695652174 0.05 0  3.139130434782609 0.05 0  3.155652173913043 0.05 0  3.172173913043478 0.05 0  3.188695652173913 0.05 0  3.205217391304347 0.05 0  3.221739130434782 0.05 0  3.238260869565217 0.05 0  3.254782608695652 0.05 0  3.271304347826087 0.05 0  3.006956521739131 0.06666666666666667 0  2.990434782608696 0.06666666666666667 0  3.023478260869565 0.06666666666666667 0  3.04 0.06666666666666667 0  3.056521739130435 0.06666666666666667 0  3.073043478260869 0.06666666666666667 0  3.089565217391304 0.06666666666666667 0  3.106086956521739 0.06666666666666667 0  3.122608695652174 0.06666666666666667 0  3.139130434782609 0.06666666666666667 0  3.155652173913043 0.06666666666666667 0  3.172173913043478 0.06666666666666667 0  3.188695652173913 0.06666666666666667 0  3.205217391304347 0.06666666666666667 0  3.221739130434782 0.06666666666666667 0  3.238260869565217 0.06666666666666667 0  3.254782608695652 0.06666666666666667 0  3.271304347826087 0.06666666666666667 0  3.287826086956521 0.06666666666666667 0  3.006956521739131 0.08333333333333333 0  3.023478260869565 0.08333333333333333 0  3.04 0.08333333333333333 0  3.056521739130435 0.08333333333333333 0  3.073043478260869 0.08333333333333333 0  3.089565217391304 0.08333333333333333 0  3.106086956521739 0.08333333333333333 0  3.122608695652174 0.08333333333333333 0  3.139130434782609 0.08333333333333333 0  3.155652173913043 0.08333333333333333 0  3.172173913043478 0.08333333333333333 0  3.188695652173913 0.08333333333333333 0  3.205217391304347 0.08333333333333333 0  3.221739130434782 0.08333333333333333 0  3.238260869565217 0.08333333333333333 0  3.254782608695652 0.08333333333333333 0  3.271304347826087 0.08333333333333333 0  3.287826086956521 0.08333333333333333 0  3.304347826086957 0.08333333333333333 0  3.023478260869565 0.1 0  3.006956521739131 0.1 0  3.04 0.1 0  3.056521739130435 0.1 0  3.073043478260869 0.1 0  3.089565217391304 0.1 0  3.106086956521739 0.1 0  3.122608695652174 0.1 0  3.139130434782609 0.1 0  3.155652173913043 0.1 0  3.172173913043478 0.1 0  3.188695652173913 0.1 0  3.205217391304347 0.1 0  3.221739130434782 0.1 0  3.238260869565217 0.1 0  3.254782608695652 0.1 0  3.271304347826087 0.1 0  3.287826086956521 0.1 0  3.304347826086957 0.1 0  3.320869565217391 0.1 0  3.023478260869565 0.1166666666666667 0  3.04 0.1166666666666667 0  3.056521739130435 0.1166666666666667 0  3.073043478260869 0.1166666666666667 0  3.089565217391304 0.1166666666666667 0  3.106086956521739 0.1166666666666667 0  3.122608695652174 0.1166666666666667 0  3.139130434782609 0.1166666666666667 0  3.155652173913043 0.1166666666666667 0  3.172173913043478 0.1166666666666667 0  3.188695652173913 0.1166666666666667 0  3.205217391304347 0.1166666666666667 0  3.221739130434782 0.1166666666666667 0  3.238260869565217 0.1166666666666667 0  3.254782608695652 0.1166666666666667 0  3.271304347826087 0.1166666666666667 0  3.287826086956521 0.1166666666666667 0  3.304347826086957 0.1166666666666667 0  3.320869565217391 0.1166666666666667 0  3.337391304347826 0.1166666666666667 0  3.04 0.1333333333333333 0  3.023478260869565 0.1333333333333333 0  3.056521739130435 0.1333333333333333 0  3.073043478260869 0.1333333333333333 0  3.089565217391304 0.1333333333333333 0  3.106086956521739 0.1333333333333333 0  3.122608695652174 0.1333333333333333 0  3.139130434782609 0.1333333333333333 0  3.155652173913043 0.1333333333333333 0  3.172173913043478 0.1333333333333333 0  3.188695652173913 0.1333333333333333 0  3.205217391304347 0.1333333333333333 0  3.221739130434782 0.1333333333333333 0  3.238260869565217 0.1333333333333333 0  3.254782608695652 0.1333333333333333 0  3.271304347826087 0.1333333333333333 0  3.287826086956521 0.1333333333333333 0  3.304347826086957 0.1333333333333333 0  3.320869565217391 0.1333333333333333 0  3.337391304347826 0.1333333333333333 0  3.353913043478261 0.1333333333333333 0  3.04 0.15 0  3.056521739130435 0.15 0  3.073043478260869 0.15 0  3.089565217391304 0.15 0  3.106086956521739 0.15 0  3.122608695652174 0.15 0  3.139130434782609 0.15 0  3.155652173913043 0.15 0  3.172173913043478 0.15 0  3.188695652173913 0.15 0  3.205217391304347 0.15 0  3.221739130434782 0.15 0  3.238260869565217 0.15 0  3.254782608695652 0.15 0  3.271304347826087 0.15 0  3.287826086956521 0.15 0  3.304347826086957 0.15 0  3.320869565217391 0.15 0  3.337391304347826 0.15 0  3.353913043478261 0.15 0  3.370434782608696 0.15 0  3.056521739130435 0.1666666666666667 0  3.073043478260869 0.1666666666666667 0  3.089565217391304 0.1666666666666667 0  3.106086956521739 0.1666666666666667 0  3.122608695652174 0.1666666666666667 0  3.139130434782609 0.1666666666666667 0  3.155652173913043 0.1666666666666667 0  3.172173913043478 0.1666666666666667 0  3.188695652173913 0.1666666666666667 0  3.205217391304347 0.1666666666666667 0  3.221739130434782 0.1666666666666667 0  3.238260869565217 0.1666666666666667 0  3.254782608695652 0.1666666666666667 0  3.271304347826087 0.1666666666666667 0  3.287826086956521 0.1666666666666667 0  3.304347826086957 0.1666666666666667 0  3.320869565217391 0.1666666666666667 0  3.337391304347826 0.1666666666666667 0  3.353913043478261 0.1666666666666667 0  3.370434782608696 0.1666666666666667 0  3.386956521739131 0.1666666666666667 0  3.073043478260869 0.1833333333333333 0  3.089565217391304 0.1833333333333333 0  3.106086956521739 0.1833333333333333 0  3.122608695652174 0.1833333333333333 0  3.139130434782609 0.1833333333333333 0  3.155652173913043 0.1833333333333333 0  3.172173913043478 0.1833333333333333 0  3.188695652173913 0.1833333333333333 0  3.205217391304347 0.1833333333333333 0  3.221739130434782 0.1833333333333333 0  3.238260869565217 0.1833333333333333 0  3.254782608695652 0.1833333333333333 0  3.271304347826087 0.1833333333333333 0  3.287826086956521 0.1833333333333333 0  3.304347826086957 0.1833333333333333 0  3.320869565217391 0.1833333333333333 0  3.337391304347826 0.1833333333333333 0  3.353913043478261 0.1833333333333333 0  3.370434782608696 0.1833333333333333 0  3.386956521739131 0.1833333333333333 0  3.403478260869565 0.1833333333333333 0  3.089565217391304 0.2 0  3.106086956521739 0.2 0  3.122608695652174 0.2 0  3.139130434782609 0.2 0  3.155652173913043 0.2 0  3.172173913043478 0.2 0  3.188695652173913 0.2 0  3.205217391304347 0.2 0  3.221739130434782 0.2 0  3.238260869565217 0.2 0  3.254782608695652 0.2 0  3.271304347826087 0.2 0  3.287826086956521 0.2 0  3.304347826086957 0.2 0  3.320869565217391 0.2 0  3.337391304347826 0.2 0  3.353913043478261 0.2 0  3.370434782608696 0.2 0  3.386956521739131 0.2 0  3.403478260869565 0.2 0  3.419999999999999 0.2 0  3.106086956521739 0.2166666666666667 0  3.122608695652174 0.2166666666666667 0  3.139130434782609 0.2166666666666667 0  3.155652173913043 0.2166666666666667 0  3.172173913043478 0.2166666666666667 0  3.188695652173913 0.2166666666666667 0  3.205217391304347 0.2166666666666667 0  3.221739130434782 0.2166666666666667 0  3.238260869565217 0.2166666666666667 0  3.254782608695652 0.2166666666666667 0  3.271304347826087 0.2166666666666667 0  3.287826086956521 0.2166666666666667 0  3.304347826086957 0.2166666666666667 0  3.320869565217391 0.2166666666666667 0  3.337391304347826 0.2166666666666667 0  3.353913043478261 0.2166666666666667 0  3.370434782608696 0.2166666666666667 0  3.386956521739131 0.2166666666666667 0  3.403478260869565 0.2166666666666667 0  3.419999999999999 0.2166666666666667 0  3.436521739130435 0.2166666666666667 0  3.122608695652174 0.2333333333333333 0  3.139130434782609 0.2333333333333333 0  3.155652173913043 0.2333333333333333 0  3.172173913043478 0.2333333333333333 0  3.188695652173913 0.2333333333333333 0  3.205217391304347 0.2333333333333333 0  3.221739130434782 0.2333333333333333 0  3.238260869565217 0.2333333333333333 0  3.254782
[...]
<PointData  Vectors="Displacement"> 
<DataArray  type="Float64"  Name="Displacement"  NumberOfComponents="3" format="ascii">6.6849338064730885e-04 1.0835139443713690e-02 0.0000000000000000e+00  6.7066581484069034e-04 1.0814981071036827e-02 0.0000000000000000e+00  6.9284405405511907e-04 1.0813915297721504e-02 0.0000000000000000e+00  6.7602100796320503e-04 1.0833655943457209e-02 0.0000000000000000e+00  6.7200268039296050e-04 1.0788617208172304e-02 0.0000000000000000e+00  6.9969980825285508e-04 1.0788135054398457e-02 0.0000000000000000e+00  6.7303072704041433e-04 1.0760592628216645e-02 0.0000000000000000e+00  7.0183817318594658e-04 1.0760213962136255e-02 0.0000000000000000e+00  6.7394618013982203e-04 1.0731580295520090e-02 0.0000000000000000e+00  7.0341998268211997e-04 1.0731333020106818e-02 0.0000000000000000e+00  6.7487099871873352e-04 1.0702206147041456e-02 0.0000000000000000e+00  7.0435266930431346e-04 1.0701920213726807e-02 0.0000000000000000e+00  6.7586841066738230e-04 1.0673009179096297e-02 0.0000000000000000e+00  7.0515862510424007e-04 1.0672673828236253e-02 0.0000000000000000e+00  6.7682269955026634e-04 1.0644258312624442e-02 0.0000000000000000e+00  7.0591750549241987e-04 1.0643926314443436e-02 0.0000000000000000e+00  6.7749758598481763e-04 1.0615886260158981e-02 0.0000000000000000e+00  7.0658123215583998e-04 1.0615695645555662e-02 0.0000000000000000e+00  6.7770044475597548e-04 1.0587444578847461e-02 0.0000000000000000e+00  7.0695220099222227e-04 1.0587542950594980e-02 0.0000000000000000e+00  6.7786669980671069e-04 1.0559031632736084e-02 0.0000000000000000e+00  7.0690853424984306e-04 1.0559088084489755e-02 0.0000000000000000e+00  7.4031683525658393e-04 1.0564915653018933e-02 0.0000000000000000e+00  7.4693716991380604e-04 1.0549534988660712e-02 0.0000000000000000e+00  7.9608820678254955e-04 1.0567678447660989e-02 0.0000000000000000e+00  7.9148376581851597e-04 1.0551461111118666e-02 0.0000000000000000e+00  8.5063414449209772e-04 1.0577896017936888e-02 0.0000000000000000e+00  8.3584724335745010e-04 1.0561597343892018e-02 0.0000000000000000e+00  9.0486646641331936e-04 1.0597849053270993e-02 0.0000000000000000e+00  8.7974434394460350e-04 1.0581595924960023e-02 0.0000000000000000e+00  9.5873110646675262e-04 1.0628538043732882e-02 0.0000000000000000e+00  9.2296763431590721e-04 1.0612422188940228e-02 0.0000000000000000e+00  1.0116062318673434e-03 1.0670880708773723e-02 0.0000000000000000e+00  9.6499927824096328e-04 1.0655194561131400e-02 0.0000000000000000e+00  7.4408553917530175e-04 1.0830963670346302e-02 0.0000000000000000e+00  7.4211905128351927e-04 1.0847345409759946e-02 0.0000000000000000e+00  7.4127028758404093e-04 1.0806192447825642e-02 0.0000000000000000e+00  7.3006524458941850e-04 1.0759542328356164e-02 0.0000000000000000e+00  7.3350879130920470e-04 1.0730959110757802e-02 0.0000000000000000e+00  7.3440882324498930e-04 1.0701735429836670e-02 0.0000000000000000e+00  7.3473605936721378e-04 1.0672336789548051e-02 0.0000000000000000e+00  7.3518439635215775e-04 1.0643494652379727e-02 0.0000000000000000e+00  7.3581536729504303e-04 1.0615377446602455e-02 0.0000000000000000e+00  7.3649862371586740e-04 1.0587821265880547e-02 0.0000000000000000e+00  7.3683464149892528e-04 1.0560664677876740e-02 0.0000000000000000e+00  7.6006390360325640e-04 1.0542783309850498e-02 0.0000000000000000e+00  7.8963885099977136e-04 1.0539941189853554e-02 0.0000000000000000e+00  8.2287798733329245e-04 1.0548713559557466e-02 0.0000000000000000e+00  8.5675284686400819e-04 1.0568393032247998e-02 0.0000000000000000e+00  8.9021270059125030e-04 1.0599090045024085e-02 0.0000000000000000e+00  9.2244492506364008e-04 1.0642335679383309e-02 0.0000000000000000e+00  9.5323873019232113e-04 1.0697423379891295e-02 0.0000000000000000e+00  8.0437580678880056e-04 1.0857536341463938e-02 0.0000000000000000e+00  7.9654921225689882e-04 1.0834876370841864e-02 0.0000000000000000e+00  7.8576347645236745e-04 1.0799029111723410e-02 0.0000000000000000e+00  7.7270773620041441e-04 1.0762021474713054e-02 0.0000000000000000e+00  7.6297390953160315e-04 1.0721180216595391e-02 0.0000000000000000e+00  7.6398294777881817e-04 1.0672069696209645e-02 0.0000000000000000e+00  7.6403572669891929e-04 1.0642998471798074e-02 0.0000000000000000e+00  7.6443280440686198e-04 1.0614836839724381e-02 0.0000000000000000e+00  7.6524169468481006e-04 1.0587624499295617e-02 0.0000000000000000e+00  7.6658744790444942e-04 1.0561896365667716e-02 0.0000000000000000e+00  7.6978018239813692e-04 1.0541825289586205e-02 0.0000000000000000e+00  7.8348117933114926e-04 1.0531778813477341e-02 0.0000000000000000e+00  8.0987742824846303e-04 1.0538510040226438e-02 0.0000000000000000e+00  8.3580026980746363e-04 1.0557655919209503e-02 0.0000000000000000e+00  8.6073322129956377e-04 1.0587894739490527e-02 0.0000000000000000e+00  8.8360430874698107e-04 1.0631722744568603e-02 0.0000000000000000e+00  9.0546577942181663e-04 1.0686992080610403e-02 0.0000000000000000e+00  9.2605395818119165e-04 1.0754762500535925e-02 0.0000000000000000e+00  8.5364140632013729e-04 1.0871455591328879e-02 0.0000000000000000e+00  8.6695736899326423e-04 1.0891541327373426e-02 0.0000000000000000e+00  8.3773122715792667e-04 1.0840663803737428e-02 0.0000000000000000e+00  8.1903183474111717e-04 1.0803466121116065e-02 0.0000000000000000e+00  7.9874023280540368e-04 1.0753854624466975e-02 0.0000000000000000e+00  7.9166982108880236e-04 1.0669925714428735e-02 0.0000000000000000e+00  7.9162792139281994e-04 1.0642469463178775e-02 0.0000000000000000e+00  7.9166596423072347e-04 1.0614354035929269e-02 0.0000000000000000e+00  7.9157159190902172e-04 1.0587319272223450e-02 0.0000000000000000e+00  7.9160657757206215e-04 1.0562029051478437e-02 0.0000000000000000e+00  7.9250615776746631e-04 1.0541480593539064e-02 0.0000000000000000e+00  7.9590843787459391e-04 1.0529172433952240e-02 0.0000000000000000e+00  8.0243598463148019e-04 1.0530227099399738e-02 0.0000000000000000e+00  8.1687928674266624e-04 1.0547279961644883e-02 0.0000000000000000e+00  8.3741313438789519e-04 1.0579026533370199e-02 0.0000000000000000e+00  8.4806172917139037e-04 1.0623416480422691e-02 0.0000000000000000e+00  8.6077883313931880e-04 1.0677872582816985e-02 0.0000000000000000e+00  8.7368282526891828e-04 1.0746242237297580e-02 0.0000000000000000e+00  8.8574269195973497e-04 1.0825799351225922e-02 0.0000000000000000e+00  9.1280092856135971e-04 1.0915546822074712e-02 0.0000000000000000e+00  8.9086522912909137e-04 1.0887986634646541e-02 0.0000000000000000e+00  8.6684252776300826e-04 1.0853030873593492e-02 0.0000000000000000e+00  8.4060242891921522e-04 1.0806955280095957e-02 0.0000000000000000e+00  8.1807039488832230e-04 1.0685596532105853e-02 0.0000000000000000e+00  8.1920850358174399e-04 1.0642637991538481e-02 0.0000000000000000e+00  8.1866739847199967e-04 1.0614180939082568e-02 0.0000000000000000e+00  8.1690223958876137e-04 1.0587728919642166e-02 0.0000000000000000e+00  8.1377462519244303e-04 1.0562895056223211e-02 0.0000000000000000e+00  8.0854115341195216e-04 1.0542389955549840e-02 0.0000000000000000e+00  8.0345066925521455e-04 1.0529440582273385e-02 0.0000000000000000e+00  8.0026714378317288e-04 1.0528912487347011e-02 0.0000000000000000e+00  8.0087715554832278e-04 1.0545211448680874e-02 0.0000000000000000e+00  8.0439658218929187e-04 1.0576534362854629e-02 0.0000000000000000e+00  8.0971354213327153e-04 1.0618262785571318e-02 0.0000000000000000e+00  8.1502337021010693e-04 1.0668683417070954e-02 0.0000000000000000e+00  8.2313830312201290e-04 1.0738366494401132e-02 0.0000000000000000e+00  8.2959035595756860e-04 1.0818061024715973e-02 0.0000000000000000e+00  8.3546168195146537e-04 1.0907993380115878e-02 0.0000000000000000e+00  9.4424960922990934e-04 1.0945076790863000e-02 0.0000000000000000e+00  9.7411134579321909e-04 1.0967673983903522e-02 0.0000000000000000e+00  9.0464899272704583e-04 1.0912971118841456e-02 0.0000000000000000e+00  8.6410077268286509e-04 1.0881372767627798e-02 0.0000000000000000e+00  8.6047848495697326e-04 1.0763569256755078e-02 0.0000000000000000e+00  8.5505461973191309e-04 1.0641842585993230e-02 0.0000000000000000e+00  8.5254927467987474e-04 1.0612785762296783e-02 0.0000000000000000e+00  8.4691957843609602e-04 1.0587789197597395e-02 0.0000000000000000e+00  8.3941439685665618e-04 1.0564278159213947e-02 0.0000000000000000e+00  8.3410625993745821e-04 1.0554723326356990e-02 0.0000000000000000e+00  8.1598761008088588e-04 1.0531251307751732e-02 0.0000000000000000e+00  7.8751887449896897e-04 1.0531010539164463e-02 0.0000000000000000e+00  7.7417450935976777e-04 1.0546160714167117e-02 0.0000000000000000e+00  7.7064868923561376e-04 1.0576048153928588e-02 0.0000000000000000e+00  7.7029280381936372e-04 1.0617475526183818e-02 0.0000000000000000e+00  7.7241358395703128e-04 1.0668991024253314e-02 0.0000000000000000e+00  7.7642259471786060e-04 1.0730745373778940e-02 0.0000000000000000e+00  7.7672937733555818e-04 1.0810347436554377e-02 0.0000000000000000e+00  7.7772948117674049e-04 1.0898616974309315e-02 0.0000000000000000e+00  7.7698781119628672e-04 1.1004317168419942e-02 0.0000000000000000e+00  1.0238651677411171e-03 1.0999987540290216e-02 0.0000000000000000e+00  1.0083522048128304e-03 1.0966267073901061e-02 0.0000000000000000e+00  1.0026753449284608e-03 1.0868878680743826e-02 0.0000000000000000e+00  9.9947386590714619e-04 1.0760237727053765e-02 0.0000000000000000e+00  9.9556614139659065e-04 1.0638872582068625e-02 0.0000000000000000e+00  9.9087287428487134e-04 1.0535708278365129e-02 0.0000000000000000e+00  9.6747955165202217e-04 1.0612450058737679e-02 0.0000000000000000e+00  9.2755329223245754e-04 1.0620228391759039e-02 0.0000000000000000e+00  8.8872241480611697e-04 1.0620106821072459e-02 0.0000000000000000e+00  8.5102676026987533e-04 1.0614732661970081e-02 0.0000000000000000e+00  8.1083791156845181e-04 1.0616266060739503e-02 0.0000000000000000e+00  7.7281275841873808e-04 1.0616265703288450e-02 0.0000000000000000e+00  7.2815320179852434e-04 1.0577536457908925e-02 0.0000000000000000e+00  7.2070051141306804e-04 1.0618175718634429e-02 0.0000000000000000e+00  7.1819733887147207e-04 1.0668915274261913e-02 0.0000000000000000e+00  7.1833142307261698e-04 1.0730529664259178e-02 0.0000000000000000e+00  7.2094519959246112e-04 1.0804350507387235e-02 0.0000000000000000e+00  7.2338891972789003e-04 1.0886978084087246e-02 0.0000000000000000e+00  7.1654800300755711e-04 1.0996238038272968e-02 0.0000000000000000e+00  7.0713272027383663e-04 1.1120115947007530e-02 0.0000000000000000e+00  1.1218695534222140e-03 1.0964686761362178e-02 0.0000000000000000e+00  1.1280684121752192e-03 1.1053897811002468e-02 0.0000000000000000e+00  1.1194185433465555e-03 1.0866424874203234e-02 0.0000000000000000e+00  1.1186091704297051e-03 1.0759473234251781e-02 0.0000000000000000e+00  1.1187888568111040e-03 1.0640854197864065e-02 0.0000000000000000e+00  1.0797564043260473e-03 1.0623519316712947e-02 0.0000000000000000e+00  1.0200781175310656e-03 1.0669288686237595e-02 0.0000000000000000e+00  9.7207323186502170e-04 1.0693364943306503e-02 0.0000000000000000e+00  9.2245383715486870e-04 1.0702195491898511e-02 0.0000000000000000e+00  8.7381517469737669e-04 1.0704802706038328e-02 0.0000000000000000e+00  8.2653948915062121e-04 1.0708037865887194e-02 0.0000000000000000e+00  7.8236586321747518e-04 1.0707306900779659e-02 0.0000000000000000e+00  7.3940429151220840e-04 1.0692960611580484e-02 0.0000000000000000e+00  6.9624153699586932e-04 1.0698896720889951e-02 0.0000000000000000e+00  6.5340068013168594e-04 1.0669746306827411e-02 0.0000000000000000e+00  6.4825711905183085e-04 1.0731326378686392e-02 0.0000000000000000e+00  6.4633892666482809e-04 1.0804140400273785e-02 0.0000000000000000e+00  6.4728015032737422e-04 1.0888404157490853e-02 0.0000000000000000e+00  6.5154878761862598e-04 1.0985977383049975e-02 0.0000000000000000e+00  6.3987962257798753e-04 1.1118659644542651e-02 0.0000000000000000e+00  6.2557321179365795e-04 1.1249031294766579e-02 0.0000000000000000e+00  1.2265078247194344e-03 1.0962576719367201e-02 0.0000000000000000e+00  1.2259241555596600e-03 1.0866022414132029e-02 0.0000000000000000e+00  1.2260618465195936e-03 1.0760101883598730e-02 0.0000000000000000e+00  1.2257051499483264e-03 1.0653455855181493e-02 0.0000000000000000e+00  1.1475331511094232e-03 1.0708505949473042e-02 0.0000000000000000e+00  1.0664999618988100e-03 1.0752140427733928e-02 0.0000000000000000e+00  9.9927335459544997e-04 1.0777942206217696e-02 0.0000000000000000e+00  9.3911871066742624e-04 1.0792671392225893e-02 0.0000000000000000e+00  8.8258828831895759e-04 1.0800396391129771e-02 0.0000000000000000e+00  8.2914939579505098e-04 1.0805512931844183e-02 0.0000000000000000e+00  7.7909009381771951e-04 1.0806744273310281e-02 0.0000000000000000e+00  7.3108294585118121e-04 1.0802264277498908e-02 0.0000000000000000e+00  6.8385547208907067e-04 1.0803975921057739e-02 0.0000000000000000e+00  6.3976547887541777e-04 1.0796494167523112e-02 0.0000000000000000e+00  5.9738330995416460e-04 1.0816604359691269e-02 0.0000000000000000e+00  5.5981186202454908e-04 1.0804580429238087e-02 0.0000000000000000e+00  5.5727923992515292e-04 1.0888894868810745e-02 0.0000000000000000e+00  5.5768991790350092e-04 1.0985909714897690e-02 0.0000000000000000e+00  5.6085940931491609e-04 1.1114153602374862e-02 0.0000000000000000e+00  5.6334208923977582e-04 1.1251817244756506e-02 0.0000000000000000e+00  5.3113599374081779e-04 1.1395212062074720e-02 0.0000000000000000e+00  1.3229429786763133e-03 1.0866427318167164e-02 0.0000000000000000e+00  1.3243357934830278e-03 1.0763999634694880e-02 0.0000000000000000e+00  1.2500245216145701e-03 1.0763826024318839e-02 0.0000000000000000e+00  1.1559704950097290e-03 1.0810741933847269e-02 0.0000000000000000e+00  1.0742525514227767e-03 1.0849937693020742e-02 0.0000000000000000e+00  1.0019471467464399e-03 1.0874607784955252e-02 0.0000000000000000e+00  9.3622822843814253e-04 1.0890651679127497e-02 0.0000000000000000e+00  8.7497848123477425e-04 1.0901013576179364e-02 0.0000000000000000e+00  8.1710557822510456e-04 1.0907995507374460e-02 0.0000000000000000e+00  7.6222901035061436e-04 1.0911727647218259e-02 0.0000000000000000e+00  7.0937763173720852e-04 1.0912627751570843e-02 0.0000000000000000e+00  6.5774314371249527e-04 1.0915474990156574e-02 0.0000000000000000e+00  6.0792165839702406e-04 1.0916408110650597e-02 0.0000000000000000e+00  5.5911978008929238e-04 1.0927854273065805e-02 0.0000000000000000e+00  5.1403806812222908e-04 1.0930108032462747e-02 0.0000000000000000e+00  4.6671195454798056e-04 1.0944705430722384e-02 0.0000000000000000e+00  4.3581064981945483e-04 1.0987738349069640e-02 0.0000000000000000e+00  4.3336621616739548e-04 1.1114413506565998e-02 0.0000000000000000e+00  4.3480381860156001e-04 1.1254398953016541e-02 0.0000000000000000e+00  4.3693773340311887e-04 1.1403260045757240e-02 0.0000000000000000e+00  4.0755511178416519e-04 1.1560155751925365e-02 0.0000000000000000e+00  1.3340720378445942e-03 1.0861918853656049e-02 0.0000000000000000e+00  1.2363236262097981e-03 1.0883007027096193e-02 0.0000000000000000e+00  1.1420961028384077e-03 1.0921321109780599e-02 0.0000000000000000e+00  1.0592325019297992e-03 1.0953508624406848e-02 0.0000000000000000e+00  9.8516169611916624e-04 1.0976805078561686e-02 0.0000000000000000e+00  9.1679679973835876e-04 1.0993432984534928e-02 0.0000000000000000e+00  8.5257266710567475e-04 1.1005441551501367e-02 0.0000000000000000e+00  7.9149297752870748e-04 1.1014319202034871e-02 0.0000000000000000e+00  7.3290158355027992e-04 1.1020647296106112e-02 0.0000000000000000e+00  6.7601035082600020e-04 1.1025353236478939e-02 0.0000000000000000e+00  6.2019909067690217e-04 1.1030775929767507e-02 0.0000000000000000e+00  5.6539527710645508e-04 1.1036490509093375e-02 0.0000000000000000e+00  5.1113766347746659e-04 1.1047097701778015e-02 0.0000000000000000e+00  4.5798682259828557e-04 1.1056435390223362e-02 0.0000000000000000e+00  4.0324107188391775e-04 1.1073829074483715e-02 0.0000000000000000e+00  3.4902455647148469e-04 1.1101205958879585e-02 0.0000000000000000e+00  2.9263855144637816e-04 1.1114774427607998e-02 0.0000000000000000e+00  2.9250296132611722e-04 1.1255083267642475e-02 0.0000000000000000e+00  2.9407005767541073e-04 1.1404907885262704e-02 0.0000000000000000e+00  2.9809346262791529e-04 1.1569111203569772e-02 0.0000000000000000e+00  2.7175245595928568e-04 1.1748582616617648e-02 0.0000000000000000e+00  1.1985197811597344e-03 1.1003093908901735e-02 0.0000000000000000e+00  1.1075209722538665e-03 1.1033537191056373e-02 0.0000000000000000e+00  1.0261774318048309e-03 1.1060524545231135e-02 0.0000000000000000e+00  9.5201799606396307e-04 1.1082165395009724e-02 0.0000000000000000e+00  8.8276599410456612e-04 1.1099193705678781e-02 0.0000000000000000e+00  8.1700000546073616e-04 1.1112636836531409e-02 0.0000000000000000e+00  7.5382646480093415e-04 1.1123478380846508e-02 0.0000000000000000e+00  6.9257949878898865e-04 1.1132400452444824e-02 0.0000000000000000e+00  6.3260405484079276e-04 1.1140333318442506e-02 0.0000000000000000e+00  5.7338239214674877e-04 1.1148700190578734e-02 0.0000000000000000e+00  5.1463760853718947e-04 1.1158043949162229e-02 0.0000000000000000e+00  4.5600396872287201e-04 1.1170433628794343e-02 0.0000000000000000e+00  3.9739789510035063e-04 1.1184395142720831e-02 0.0000000000000000e+00  3.3766674121065804e-04 1.1204075740846281e-02 0.0000000000000000e+00  2.7737522886432794e-04 1.1229151527002970e-02 0.0000000000000000e+00  2.1517470905291431e-04 1.1249840079051655e-02 0.0000000000000000e+00  1.4083989346974304e-04 1.1257914969997515e-02 0.0000000000000000e+00  1.3859406158199828e-04 1.1406187454591607e-02 0.0000000000000000e+00  1.4046246862627323e-04 1.1570232404587318e-02 0.0000000000000000e+00  1.4378049005621074e-04 1.1764067041682915e-02 0.0000000000000000e+00  1.4384407035344680e-04 1.1957533589096172e-02 0.0000000000000000e+00  1.0547017536505635e-03 1.1144481729446725e-02 0.0000000000000000e+00  9.7743288953857635e-04 1.1168268184513634e-02 0.0000000000000000e+00  9.0501775339877234e-04 1.1188983317698024e-02 0.0000000000000000e+00  8.3619670795469149e-04 1.1206617896253246e-02 0.0000000000000000e+00  7.7000223438204892e-04 1.1221607309490520e-02 0.0000000000000000e+00  7.0572220384118784e-04 1.1234559977329835e-02 0.0000000000000000e+00  6.4278852626434085e-04 1.1246097901365599e-02 0.0000000000000000e+00  5.8067739137905583e-04 1.1257036243529174e-02 0.0000000000000000e+00  5.1896240816787242e-04 1.1268399075855029e-02 0.0000000000000000e+00  4.5734435617722057e-04 1.1280945692252173e-02 0.0000000000000000e+00  3.9553615878940934e-04 1.1295896458459225e-02 0.0000000000000000e+00  3.3336749084612296e-04 1.1313319341302875e-02 0.0000000000000000e+00  2.7040357305530618e-04 1.1335226697208102e-02 0.0000000000000000e+00  2.0691800860899814e-04 1.1361402380871648e-02 0.0000000000000000e+00  1.4241584590890519e-04 1.1388993143467134e-02 0.0000000000000000e+00  7.4529447907153998e-05 1.1422063063042444e-02 0.0000000000000000e+00  9.3710223798687768e-06 1.1504707863472574e-02 0.0000000000000000e+00  -4.5546627201502439e-05 1.1572369666186706e-02 0.0000000000000000e+00  -4.4448107693578724e-05 1.1765313476753676e-02 0.0000000000000000e+00  -4.2346354596869091e-05 1.1961212542485335e-02 0.0000000000000000e+00  -4.1218238586593005e-05 1.2155066781464960e-02 0.0000000000000000e+00  9.1688571677791067e-04 1.1274895501684368e-02 0.0000000000000000e+00  8.4684562811858334e-04 1.1295873774898404e-02 0.0000000000000000e+00  7.7919497339103106e-04 1.1314687960842243e-02 0.0000000000000000e+00  7.1333238762270304e-04 1.1331521837222620e-02 0.0000000000000000e+00  6.4873632856748834e-04 1.1346780053607590e-02 0.0000000000000000e+00  5.8495279971451414e-04 1.1360992734386174e-02 0.0000000000000000e+00  5.2156792464142258e-04 1.1374854471937415e-02 0.0000000000000000e+00  4.5823207103954836e-04 1.1389183823857979e-02 0.0000000000000000e+00  3.9466683800312577e-04 1.1404742914584539e-02 0.0000000000000000e+00  3.3061868349589690e-04 1.1422445282486378e-02 0.00000000000000