<?xml version="1.0"?>
<VTKFile type="UnstructuredGrid"  version="0.1"  >
<UnstructuredGrid>
<Piece  NumberOfPoints="639" NumberOfCells="1175">
<Points>
<DataArray  type="Float64"  NumberOfComponents="3"  format="ascii">1.321739130434783 0 0  1.338260869565217 0 0  1.338260869565217 0.01666666666666667 0  1.354782608695652 0 0  1.354782608695652 0.01666666666666667 0  1.371304347826087 0 0  1.371304347826087 0.01666666666666667 0  1.387826086956522 0 0  1.387826086956522 0.01666666666666667 0  1.404347826086957 0 0  1.404347826086957 0.01666666666666667 0  1.420869565217391 0 0  1.420869565217391 0.01666666666666667 0  1.437391304347826 0 0  1.437391304347826 0.01666666666666667 0  1.453913043478261 0 0  1.453913043478261 0.01666666666666667 0  1.470434782608696 0 0  1.470434782608696 0.01666666666666667 0  1.486956521739131 0 0  1.486956521739131 0.01666666666666667 0  1.503478260869565 0 0  1.503478260869565 0.01666666666666667 0  1.52 0 0  1.52 0.01666666666666667 0  1.536521739130435 0 0  1.536521739130435 0.01666666666666667 0  1.55304347826087 0 0  1.55304347826087 0.01666666666666667 0  1.569565217391304 0 0  1.569565217391304 0.01666666666666667 0  1.586086956521739 0 0  1.586086956521739 0.01666666666666667 0  1.602608695652174 0 0  1.602608695652174 0.01666666666666667 0  1.619130434782609 0 0  1.619130434782609 0.01666666666666667 0  1.635652173913043 0 0  1.635652173913043 0.01666666666666667 0  1.652173913043478 0 0  1.652173913043478 0.01666666666666667 0  1.668695652173913 0 0  1.668695652173913 0.01666666666666667 0  1.685217391304348 0 0  1.685217391304348 0.01666666666666667 0  1.701739130434782 0 0  1.701739130434782 0.01666666666666667 0  1.718260869565217 0 0  1.718260869565217 0.01666666666666667 0  1.734782608695652 0 0  1.734782608695652 0.01666666666666667 0  1.751304347826087 0 0  1.751304347826087 0.01666666666666667 0  1.767826086956522 0 0  1.767826086956522 0.01666666666666667 0  1.784347826086957 0 0  1.784347826086957 0.01666666666666667 0  1.800869565217391 0 0  1.800869565217391 0.01666666666666667 0  1.817391304347826 0 0  1.817391304347826 0.01666666666666667 0  1.833913043478261 0 0  1.833913043478261 0.01666666666666667 0  1.850434782608696 0 0  1.850434782608696 0.01666666666666667 0  1.86695652173913 0 0  1.86695652173913 0.01666666666666667 0  1.883478260869565 0 0  1.883478260869565 0.01666666666666667 0  1.354782608695652 0.03333333333333333 0  1.371304347826087 0.03333333333333333 0  1.387826086956522 0.03333333333333333 0  1.404347826086957 0.03333333333333333 0  1.420869565217391 0.03333333333333333 0  1.437391304347826 0.03333333333333333 0  1.453913043478261 0.03333333333333333 0  1.470434782608696 0.03333333333333333 0  1.486956521739131 0.03333333333333333 0  1.503478260869565 0.03333333333333333 0  1.52 0.03333333333333333 0  1.536521739130435 0.03333333333333333 0  1.55304347826087 0.03333333333333333 0  1.569565217391304 0.03333333333333333 0  1.586086956521739 0.03333333333333333 0  1.602608695652174 0.03333333333333333 0  1.619130434782609 0.03333333333333333 0  1.635652173913043 0.03333333333333333 0  1.652173913043478 0.03333333333333333 0  1.668695652173913 0.03333333333333333 0  1.685217391304348 0.03333333333333333 0  1.701739130434782 0.03333333333333333 0  1.718260869565217 0.03333333333333333 0  1.734782608695652 0.03333333333333333 0  1.751304347826087 0.03333333333333333 0  1.767826086956522 0.03333333333333333 0  1.784347826086957 0.03333333333333333 0  1.800869565217391 0.03333333333333333 0  1.817391304347826 0.03333333333333333 0  1.833913043478261 0.03333333333333333 0  1.850434782608696 0.03333333333333333 0  1.86695652173913 0.03333333333333333 0  1.883478260869565 0.03333333333333333 0  1.371304347826087 0.05 0  1.387826086956522 0.05 0  1.404347826086957 0.05 0  1.420869565217391 0.05 0  1.437391304347826 0.05 0  1.453913043478261 0.05 0  1.470434782608696 0.05 0  1.486956521739131 0.05 0  1.503478260869565 0.05 0  1.52 0.05 0  1.536521739130435 0.05 0  1.55304347826087 0.05 0  1.569565217391304 0.05 0  1.586086956521739 0.05 0  1.602608695652174 0.05 0  1.619130434782609 0.05 0  1.635652173913043 0.05 0  1.652173913043478 0.05 0  1.668695652173913 0.05 0  1.685217391304348 0.05 0  1.701739130434782 0.05 0  1.718260869565217 0.05 0  1.734782608695652 0.05 0  1.751304347826087 0.05 0  1.767826086956522 0.05 0  1.784347826086957 0.05 0  1.800869565217391 0.05 0  1.817391304347826 0.05 0  1.833913043478261 0.05 0  1.850434782608696 0.05 0  1.86695652173913 0.05 0  1.883478260869565 0.05 0  1.387826086956522 0.06666666666666667 0  1.404347826086957 0.06666666666666667 0  1.420869565217391 0.06666666666666667 0  1.437391304347826 0.06666666666666667 0  1.453913043478261 0.06666666666666667 0  1.470434782608696 0.06666666666666667 0  1.486956521739131 0.06666666666666667 0  1.503478260869565 0.06666666666666667 0  1.52 0.06666666666666667 0  1.536521739130435 0.06666666666666667 0  1.55304347826087 0.06666666666666667 0  1.569565217391304 0.06666666666666667 0  1.586086956521739 0.06666666666666667 0  1.602608695652174 0.06666666666666667 0  1.619130434782609 0.06666666666666667 0  1.635652173913043 0.06666666666666667 0  1.652173913043478 0.06666666666666667 0  1.668695652173913 0.06666666666666667 0  1.685217391304348 0.06666666666666667 0  1.701739130434782 0.06666666666666667 0  1.718260869565217 0.06666666666666667 0  1.734782608695652 0.06666666666666667 0  1.751304347826087 0.06666666666666667 0  1.767826086956522 0.06666666666666667 0  1.784347826086957 0.06666666666666667 0  1.800869565217391 0.06666666666666667 0  1.817391304347826 0.06666666666666667 0  1.833913043478261 0.06666666666666667 0  1.850434782608696 0.06666666666666667 0  1.86695652173913 0.06666666666666667 0  1.883478260869565 0.06666666666666667 0  1.404347826086957 0.08333333333333333 0  1.420869565217391 0.08333333333333333 0  1.437391304347826 0.08333333333333333 0  1.453913043478261 0.08333333333333333 0  1.470434782608696 0.08333333333333333 0  1.486956521739131 0.08333333333333333 0  1.503478260869565 0.08333333333333333 0  1.52 0.08333333333333333 0  1.536521739130435 0.08333333333333333 0  1.55304347826087 0.08333333333333333 0  1.569565217391304 0.08333333333333333 0  1.586086956521739 0.08333333333333333 0  1.602608695652174 0.08333333333333333 0  1.619130434782609 0.08333333333333333 0  1.635652173913043 0.08333333333333333 0  1.652173913043478 0.08333333333333333 0  1.668695652173913 0.08333333333333333 0  1.685217391304348 0.08333333333333333 0  1.701739130434782 0.08333333333333333 0  1.718260869565217 0.08333333333333333 0  1.734782608695652 0.08333333333333333 0  1.751304347826087 0.08333333333333333 0  1.767826086956522 0.08333333333333333 0  1.784347826086957 0.08333333333333333 0  1.800869565217391 0.08333333333333333 0  1.817391304347826 0.08333333333333333 0  1.833913043478261 0.08333333333333333 0  1.850434782608696 0.08333333333333333 0  1.86695652173913 0.08333333333333333 0  1.883478260869565 0.08333333333333333 0  1.420869565217391 0.1 0  1.437391304347826 0.1 0  1.453913043478261 0.1 0  1.470434782608696 0.1 0  1.486956521739131 0.1 0  1.503478260869565 0.1 0  1.52 0.1 0  1.536521739130435 0.1 0  1.55304347826087 0.1 0  1.569565217391304 0.1 0  1.586086956521739 0.1 0  1.602608695652174 0.1 0  1.619130434782609 0.1 0  1.635652173913043 0.1 0  1.652173913043478 0.1 0  1.668695652173913 0.1 0  1.685217391304348 0.1 0  1.701739130434782 0.1 0  1.718260869565217 0.1 0  1.734782608695652 0.1 0  1.751304347826087 0.1 0  1.767826086956522 0.1 0  1.784347826086957 0.1 0  1.800869565217391 0.1 0  1.817391304347826 0.1 0  1.833913043478261 0.1 0  1.850434782608696 0.1 0  1.86695652173913 0.1 0  1.883478260869565 0.1 0  1.437391304347826 0.1166666666666667 0  1.453913043478261 0.1166666666666667 0  1.470434782608696 0.1166666666666667 0  1.486956521739131 0.1166666666666667 0  1.503478260869565 0.1166666666666667 0  1.52 0.1166666666666667 0  1.536521739130435 0.1166666666666667 0  1.55304347826087 0.1166666666666667 0  1.569565217391304 0.1166666666666667 0  1.586086956521739 0.1166666666666667 0  1.602608695652174 0.1166666666666667 0  1.619130434782609 0.1166666666666667 0  1.635652173913043 0.1166666666666667 0  1.652173913043478 0.1166666666666667 0  1.668695652173913 0.1166666666666667 0  1.685217391304348 0.1166666666666667 0  1.701739130434782 0.1166666666666667 0  1.718260869565217 0.1166666666666667 0  1.734782608695652 0.1166666666666667 0  1.751304347826087 0.1166666666666667 0  1.767826086956522 0.1166666666666667 0  1.784347826086957 0.1166666666666667 0  1.800869565217391 0.1166666666666667 0  1.817391304347826 0.1166666666666667 0  1.833913043478261 0.1166666666666667 0  1.850434782608696 0.1166666666666667 0  1.86695652173913 0.1166666666666667 0  1.883478260869565 0.1166666666666667 0  1.453913043478261 0.1333333333333333 0  1.470434782608696 0.1333333333333333 0  1.486956521739131 0.1333333333333333 0  1.503478260869565 0.1333333333333333 0  1.52 0.1333333333333333 0  1.536521739130435 0.1333333333333333 0  1.55304347826087 0.1333333333333333 0  1.569565217391304 0.1333333333333333 0  1.586086956521739 0.1333333333333333 0  1.602608695652174 0.1333333333333333 0  1.619130434782609 0.1333333333333333 0  1.635652173913043 0.1333333333333333 0  1.652173913043478 0.1333333333333333 0  1.668695652173913 0.1333333333333333 0  1.685217391304348 0.1333333333333333 0  1.701739130434782 0.1333333333333333 0  1.718260869565217 0.1333333333333333 0  1.734782608695652 0.1333333333333333 0  1.751304347826087 0.1333333333333333 0  1.767826086956522 0.1333333333333333 0  1.784347826086957 0.1333333333333333 0  1.800869565217391 0.1333333333333333 0  1.817391304347826 0.1333333333333333 0  1.833913043478261 0.1333333333333333 0  1.850434782608696 0.1333333333333333 0  1.86695652173913 0.1333333333333333 0  1.883478260869565 0.1333333333333333 0  1.470434782608696 0.15 0  1.486956521739131 0.15 0  1.503478260869565 0.15 0  1.52 0.15 0  1.5365217391304
[...]
<PointData  Vectors="Displacement"> 
<DataArray  type="Float64"  Name="Displacement"  NumberOfComponents="3" format="ascii">2.3975686858724779e-04 2.2146745228052594e-03 0.0000000000000000e+00  2.4255305603700539e-04 2.2316282691869321e-03 0.0000000000000000e+00  2.2575128876850225e-04 2.2305937096196225e-03 0.0000000000000000e+00  2.4534885235528384e-04 2.2479935709833281e-03 0.0000000000000000e+00  2.2915555168668577e-04 2.2469557165826072e-03 0.0000000000000000e+00  2.4814163834962149e-04 2.2637505920900755e-03 0.0000000000000000e+00  2.3257839560762407e-04 2.2627085669063443e-03 0.0000000000000000e+00  2.5092726423225090e-04 2.2788875488392374e-03 0.0000000000000000e+00  2.3601754924489218e-04 2.2778371630174719e-03 0.0000000000000000e+00  2.5369416479227141e-04 2.2933797087511961e-03 0.0000000000000000e+00  2.3948831762926308e-04 2.2923229759605280e-03 0.0000000000000000e+00  2.5642630595161737e-04 2.3071358589133377e-03 0.0000000000000000e+00  2.4301614307926855e-04 2.3060897029132592e-03 0.0000000000000000e+00  2.5913329642695724e-04 2.3200015370780603e-03 0.0000000000000000e+00  2.4659550894126989e-04 2.3189760412629648e-03 0.0000000000000000e+00  2.6185524398384221e-04 2.3319444564615594e-03 0.0000000000000000e+00  2.5014970208314023e-04 2.3309209194083448e-03 0.0000000000000000e+00  2.6446667061756055e-04 2.3429300239605189e-03 0.0000000000000000e+00  2.5365253644229428e-04 2.3422147016355383e-03 0.0000000000000000e+00  2.6703967756005250e-04 2.3535281321310627e-03 0.0000000000000000e+00  2.5598235337464555e-04 2.3527988115607862e-03 0.0000000000000000e+00  2.6972476209707077e-04 2.3645854732116250e-03 0.0000000000000000e+00  2.5799915910150006e-04 2.3638205887940851e-03 0.0000000000000000e+00  2.7248808348542976e-04 2.3765744868899995e-03 0.0000000000000000e+00  2.5986570516943317e-04 2.3757921402778851e-03 0.0000000000000000e+00  2.7521425658757993e-04 2.3896586992551653e-03 0.0000000000000000e+00  2.6164367392155478e-04 2.3889085298187396e-03 0.0000000000000000e+00  2.7782591331317952e-04 2.4037048366488205e-03 0.0000000000000000e+00  2.6335418329475599e-04 2.4030149389846320e-03 0.0000000000000000e+00  2.8038497506752889e-04 2.4184544189421843e-03 0.0000000000000000e+00  2.6504668689516614e-04 2.4177919435191091e-03 0.0000000000000000e+00  2.8309638143988493e-04 2.4337625151413136e-03 0.0000000000000000e+00  2.6683393033097503e-04 2.4330463368694199e-03 0.0000000000000000e+00  2.8617166733072420e-04 2.4498125540448152e-03 0.0000000000000000e+00  2.6879577523902679e-04 2.4489896826679854e-03 0.0000000000000000e+00  2.8971646486515996e-04 2.4670132998239995e-03 0.0000000000000000e+00  2.7092393540537974e-04 2.4660821144737535e-03 0.0000000000000000e+00  2.9371810091622633e-04 2.4858349077084472e-03 0.0000000000000000e+00  2.7313324247071495e-04 2.4848333065355401e-03 0.0000000000000000e+00  2.9815556018018087e-04 2.5066330313887075e-03 0.0000000000000000e+00  2.7536459762496091e-04 2.5055707831263220e-03 0.0000000000000000e+00  3.0294915412797211e-04 2.5299866098380912e-03 0.0000000000000000e+00  2.7744569275169056e-04 2.5289049388638346e-03 0.0000000000000000e+00  3.0814777258435304e-04 2.5562509790739382e-03 0.0000000000000000e+00  2.7943142644561099e-04 2.5550311786391236e-03 0.0000000000000000e+00  3.1339516800892280e-04 2.5865377399285987e-03 0.0000000000000000e+00  2.8108766546432992e-04 2.5854364576390894e-03 0.0000000000000000e+00  3.1846892192038116e-04 2.6205545908714826e-03 0.0000000000000000e+00  2.8242742111031548e-04 2.6195905343230344e-03 0.0000000000000000e+00  3.2350542798658473e-04 2.6583187615556230e-03 0.0000000000000000e+00  2.8341670481481018e-04 2.6572475726172017e-03 0.0000000000000000e+00  3.2841230335232659e-04 2.7007563792511438e-03 0.0000000000000000e+00  2.8420793282363612e-04 2.6995183524820532e-03 0.0000000000000000e+00  3.3268067048701104e-04 2.7476721886369754e-03 0.0000000000000000e+00  2.8533846356376718e-04 2.7465395766903527e-03 0.0000000000000000e+00  3.3608289092445533e-04 2.7971311668966840e-03 0.0000000000000000e+00  2.8701857492661705e-04 2.7960461481283329e-03 0.0000000000000000e+00  3.3857936248346483e-04 2.8475635095415830e-03 0.0000000000000000e+00  2.8932807183500929e-04 2.8465346417219720e-03 0.0000000000000000e+00  3.4016700895898302e-04 2.8973717674166742e-03 0.0000000000000000e+00  2.9227359147649957e-04 2.8964145064117619e-03 0.0000000000000000e+00  3.4074260751699580e-04 2.9448170657257787e-03 0.0000000000000000e+00  2.9583045074228379e-04 2.9442365606729103e-03 0.0000000000000000e+00  3.4044617925345046e-04 2.9882200999570975e-03 0.0000000000000000e+00  2.9918037618927864e-04 2.9880530801477136e-03 0.0000000000000000e+00  3.3979573987723911e-04 3.0276055299076946e-03 0.0000000000000000e+00  3.0153941771446255e-04 3.0274846016297083e-03 0.0000000000000000e+00  3.3897311474642542e-04 3.0643482520088163e-03 0.0000000000000000e+00  3.0315128540228762e-04 3.0643470476528398e-03 0.0000000000000000e+00  2.1271395587374071e-04 2.2458000432183478e-03 0.0000000000000000e+00  2.1672037434743643e-04 2.2615480668900212e-03 0.0000000000000000e+00  2.2069774957700819e-04 2.2766742719461429e-03 0.0000000000000000e+00  2.2462474631729804e-04 2.2911531432391451e-03 0.0000000000000000e+00  2.2876338388476132e-04 2.3049110516484526e-03 0.0000000000000000e+00  2.3360341446656031e-04 2.3177741646510422e-03 0.0000000000000000e+00  2.3869253889958006e-04 2.3297385688886975e-03 0.0000000000000000e+00  2.4247789695213973e-04 2.3410631940656928e-03 0.0000000000000000e+00  2.4586006589470563e-04 2.3523504852086146e-03 0.0000000000000000e+00  2.4677828685418853e-04 2.3633489486051592e-03 0.0000000000000000e+00  2.4747353375145737e-04 2.3753078320915945e-03 0.0000000000000000e+00  2.4809615224941989e-04 2.3884804976666498e-03 0.0000000000000000e+00  2.4878824361733242e-04 2.4027363623563502e-03 0.0000000000000000e+00  2.4947403174632894e-04 2.4176018154707661e-03 0.0000000000000000e+00  2.5023439540326282e-04 2.4327754311794839e-03 0.0000000000000000e+00  2.5109266108282240e-04 2.4485794214069417e-03 0.0000000000000000e+00  2.5193623903119221e-04 2.4656007779430065e-03 0.0000000000000000e+00  2.5253512721357617e-04 2.4844090168285354e-03 0.0000000000000000e+00  2.5281886076059142e-04 2.5051632578766457e-03 0.0000000000000000e+00  2.5251493856693773e-04 2.5287690136197205e-03 0.0000000000000000e+00  2.5155580321654106e-04 2.5546319974554255e-03 0.0000000000000000e+00  2.4962933018129134e-04 2.5853353814558645e-03 0.0000000000000000e+00  2.4776814519945325e-04 2.6194830074170502e-03 0.0000000000000000e+00  2.4636882317248011e-04 2.6567004702479752e-03 0.0000000000000000e+00  2.4319308909651248e-04 2.6989726534149307e-03 0.0000000000000000e+00  2.3882259361079168e-04 2.7461096405053042e-03 0.0000000000000000e+00  2.3775694815322877e-04 2.7954228888934438e-03 0.0000000000000000e+00  2.3910909763360787e-04 2.8456644399268071e-03 0.0000000000000000e+00  2.4308456441205932e-04 2.8952821093546177e-03 0.0000000000000000e+00  2.4924195215823386e-04 2.9427932552462720e-03 0.0000000000000000e+00  2.5865165218196359e-04 2.9867151665349642e-03 0.0000000000000000e+00  2.6553731854131235e-04 3.0268136078392969e-03 0.0000000000000000e+00  2.6839482995681256e-04 3.0636516829951306e-03 0.0000000000000000e+00  2.1343870090449789e-04 2.2595313767673868e-03 0.0000000000000000e+00  2.1652350645269116e-04 2.2750788842380455e-03 0.0000000000000000e+00  2.1958851189711007e-04 2.2899114706677790e-03 0.0000000000000000e+00  2.2268126546069191e-04 2.3039380776960720e-03 0.0000000000000000e+00  2.2581376473150398e-04 2.3170918537819465e-03 0.0000000000000000e+00  2.2881997843545075e-04 2.3295627574712002e-03 0.0000000000000000e+00  2.3141812584087499e-04 2.3416069365135000e-03 0.0000000000000000e+00  2.3357529969536255e-04 2.3530678245643677e-03 0.0000000000000000e+00  2.3528937476156953e-04 2.3631794621810824e-03 0.0000000000000000e+00  2.3431365885927751e-04 2.3752478092100020e-03 0.0000000000000000e+00  2.3400715977857719e-04 2.3883382919420559e-03 0.0000000000000000e+00  2.3390153143082909e-04 2.4028679049536063e-03 0.0000000000000000e+00  2.3376346259340957e-04 2.4179233999780825e-03 0.0000000000000000e+00  2.3369173595973649e-04 2.4329200550546582e-03 0.0000000000000000e+00  2.3369735015600228e-04 2.4484509930929057e-03 0.0000000000000000e+00  2.3356698165624795e-04 2.4653488454505594e-03 0.0000000000000000e+00  2.3295040473677575e-04 2.4843528532671097e-03 0.0000000000000000e+00  2.3176920592388092e-04 2.5049940614028494e-03 0.0000000000000000e+00  2.2980420390385730e-04 2.5288717182212314e-03 0.0000000000000000e+00  2.2817874160440177e-04 2.5543388650211465e-03 0.0000000000000000e+00  2.2116040831786867e-04 2.5857042029108204e-03 0.0000000000000000e+00  2.1592178339603670e-04 2.6197694888555017e-03 0.0000000000000000e+00  2.0940306691772520e-04 2.6572882298028610e-03 0.0000000000000000e+00  2.1445108399799671e-04 2.7063161466423951e-03 0.0000000000000000e+00  2.1486493380740493e-04 2.7525551583971589e-03 0.0000000000000000e+00  2.1513260712706573e-04 2.7991422521682495e-03 0.0000000000000000e+00  2.1654591185623164e-04 2.8463069963116359e-03 0.0000000000000000e+00  2.1940577461982422e-04 2.8929638957150773e-03 0.0000000000000000e+00  2.2347689704577725e-04 2.9381484299407469e-03 0.0000000000000000e+00  2.2798635050620008e-04 2.9809864908063302e-03 0.0000000000000000e+00  2.3119060389525142e-04 3.0222745121350381e-03 0.0000000000000000e+00  2.3128226702542716e-04 3.0626938793076532e-03 0.0000000000000000e+00  2.1156817260041430e-04 2.2743412551789930e-03 0.0000000000000000e+00  2.1369506963595211e-04 2.2895927311686569e-03 0.0000000000000000e+00  2.1571737533887468e-04 2.3040375810129909e-03 0.0000000000000000e+00  2.1758541841402750e-04 2.3176827502863987e-03 0.0000000000000000e+00  2.1919730759201278e-04 2.3306842803596985e-03 0.0000000000000000e+00  2.2044424118564403e-04 2.3432104133153790e-03 0.0000000000000000e+00  2.2122200092412664e-04 2.3552038376308355e-03 0.0000000000000000e+00  2.2130280455344691e-04 2.3665546434312721e-03 0.0000000000000000e+00  2.2036047354826951e-04 2.3785200277764455e-03 0.0000000000000000e+00  2.1854089110808094e-04 2.3882525744500041e-03 0.0000000000000000e+00  2.1839310521253172e-04 2.4031619703072360e-03 0.0000000000000000e+00  2.1803380245457652e-04 2.4186630447855639e-03 0.0000000000000000e+00  2.1759934420447491e-04 2.4332874495746554e-03 0.0000000000000000e+00  2.1722986570495492e-04 2.4483109955097449e-03 0.0000000000000000e+00  2.1659736841829694e-04 2.4649677841353072e-03 0.0000000000000000e+00  2.1519911311590511e-04 2.4841724986692554e-03 0.0000000000000000e+00  2.1381281185830724e-04 2.5046969512984942e-03 0.0000000000000000e+00  2.0815064859884677e-04 2.5292077179172429e-03 0.0000000000000000e+00  2.0285479220120232e-04 2.5550695423591416e-03 0.0000000000000000e+00  2.0327342517312527e-04 2.5951495711614239e-03 0.0000000000000000e+00  1.9995217325501029e-04 2.6309905568285140e-03 0.0000000000000000e+00  1.9621901223887734e-04 2.6692773847661337e-03 0.0000000000000000e+00  1.9400426167299657e-04 2.7120674008855108e-03 0.0000000000000000e+00  1.9377593055175033e-04 2.7573254033627483e-03 0.0000000000000000e+00  1.9390008560648292e-04 2.8023888644015242e-03 0.0000000000000000e+00  1.9480241684214020e-04 2.8474139408718249e-03 0.0000000000000000e+00  1.9673276442112354e-04 2.8919402614483712e-03 0.0000000000000000e+00  1.9955632352600171e-04 2.9354061941757994e-03 0.0000000000000000e+00  2.0286457954065001e-04 2.9773988236336331e-03 0.0000000000000000e+00  2.0616134143395506e-04 3.0181938982512101e-03 0.0000000000000000e+00  2.0945037762588265e-04 3.0575610969973879e-03 0.0000000000000000e+00  2.0721382726649851e-04 2.2901816546533902e-03 0.0000000000000000e+00  2.0828798527360742e-04 2.3051120045602075e-03 0.0000000000000000e+00  2.0913264242506532e-04 2.3192718701700449e-03 0.0000000000000000e+00  2.0968708509805801e-04 2.3327833033798253e-03 0.0000000000000000e+00  2.0989723014763415e-04 2.3457737402341168e-03 0.0000000000000000e+00  2.0970596073885140e-04 2.3582822941096353e-03 0.0000000000000000e+00  2.0900953892573712e-04 2.3703788406488208e-03 0.0000000000000000e+00  2.0773716720246272e-04 2.3825179444347472e-03 0.0000000000000000e+00  2.0598998739980424e-04 2.3936867204535327e-03 0.0000000000000000e+00  2.0335072107277312e-04 2.4044693514598545e-03 0.0000000000000000e+00  2.0286397573605612e-04 2.4197154117898889e-03 0.0000000000000000e+00  2.0260948618696658e-04 2.4335631281227023e-03 0.0000000000000000e+00  2.0247050845598736e-04 2.4476606181142199e-03 0.0000000000000000e+00  2.0207477598873741e-04 2.4639167663823864e-03 0.0000000000000000e+00  2.0076261033563723e-04 2.4830518852105494e-03 0.0000000000000000e+00  1.9380329362447311e-04 2.5050883106575716e-03 0.0000000000000000e+00  1.9438513767328484e-04 2.5375331696761805e-03 0.0000000000000000e+00  1.9089929107286808e-04 2.5676649158712125e-03 0.0000000000000000e+00  1.8666371591316385e-04 2.6035446275829836e-03 0.0000000000000000e+00  1.8334524200809899e-04 2.6407416739188342e-03 0.0000000000000000e+00  1.7959132211445159e-04 2.6791390227719420e-03 0.0000000000000000e+00  1.7635707839054119e-04 2.7199936032524141e-03 0.0000000000000000e+00  1.7439884310388890e-04 2.7626667461923592e-03 0.0000000000000000e+00  1.7366025056305914e-04 2.8059320193044193e-03 0.0000000000000000e+00  1.7386101010720997e-04 2.8491283660446146e-03 0.0000000000000000e+00  1.7499812274130873e-04 2.8918743630580472e-03 0.0000000000000000e+00  1.7697356768685624e-04 2.9338237568371827e-03 0.0000000000000000e+00  1.7956900451583576e-04 2.9747283097812582e-03 0.0000000000000000e+00  1.8254973657033785e-04 3.0145797604531959e-03 0.0000000000000000e+00  1.8580675928333245e-04 3.0530474483877502e-03 0.0000000000000000e+00  2.0056878063358740e-04 2.3070484719888372e-03 0.0000000000000000e+00  2.0057460362907009e-04 2.3217085748629168e-03 0.0000000000000000e+00  2.0028450990592202e-04 2.3356909256452224e-03 0.0000000000000000e+00  1.9967088891813156e-04 2.3491085105304585e-03 0.0000000000000000e+00  1.9870621762693770e-04 2.3620503405887587e-03 0.0000000000000000e+00  1.9734165087219926e-04 2.3746486840100457e-03 0.0000000000000000e+00  1.9547461678368397e-04 2.3871648210935258e-03 0.0000000000000000e+00  1.9310888922913739e-04 2.3992400903773731e-03 0.0000000000000000e+00  1.9043423113069226e-04 2.4116227781101562e-03 0.0000000000000000e+00  1.8989418826300343e-04 2.4216141453410694e-03 0.0000000000000000e+00  1.8957345256491903e-04 2.4336483116521304e-03 0.0000000000000000e+00  1.8956858245990267e-04 2.4462206414600091e-03 0.0000000000000000e+00  1.8941614980305885e-04 2.4619539464436333e-03 0.0000000000000000e+00  1.8963044989820353e-04 2.4822318552688355e-03 0.0000000000000000e+00  1.8687614999093771e-04 2.5133748566819598e-03 0.0000000000000000e+00  1.8204374254193298e-04 2.5449658509973079e-03 0.0000000000000000e+00  1.7732651214523955e-04 2.5780821269468139e-03 0.0000000000000000e+00  1.7193284446391117e-04 2.6135817875454991e-03 0.0000000000000000e+00  1.6703398442369813e-04 2.6503202531287262e-03 0.0000000000000000e+00  1.6257174968387604e-04 2.6883873347673011e-03 0.0000000000000000e+00  1.5868939065217445e-04 2.7279461440156997e-03 0.0000000000000000e+00  1.5582381600614831e-04 2.7687039188911901e-03 0.0000000000000000e+00  1.5413878834046841e-04 2.8100527127525184e-03 0.0000000000000000e+00  1.5355049521091876e-04 2.8514798661885476e-03 0.0000000000000000e+00  1.5394754153896011e-04 2.8925836826640189e-03 0.0000000000000000e+00  1.5521464551575829e-04 2.9330867724402759e-03 0.0000000000000000e+00  1.5719952242394372e-04 2.9728040603500066e-03 0.0000000000000000e+00  1.5973851347921166e-04 3.0116496976356952e-03 0.0000000000000000e+00  1.6267848433153679e-04 3.0494233836282441e-03 0.0000000000000000e+00  1.9198458005900823e-04 2.3248843199340885e-03 0.0000000000000000e+00  1.9101880816232145e-04 2.3392961603862727e-03 0.0000000000000000e+00  1.8974388872673161e-04 2.3530876738227478e-03 0.0000000000000000e+00  1.8816534840492371e-04 2.3663684383695748e-03 0.0000000000000000e+00  1.8628338396908242e-04 2.3792884448109787e-03 0.0000000000000000e+00  1.8406518633528449e-04 2.3922183570709837e-03 0.0000000000000000e+00  1.8152979962644269e-04 2.4045775192395578e-03 0.0000000000000000e+00  1.7980504192386678e-04 2.4156905870854669e-03 0.0000000000000000e+00  1.7957718519824733e-04 2.4233242607500623e-03 0.0000000000000000e+00  1.7930050517175783e-04 2.4335255651863259e-03 0.0000000000000000e+00  1.7943484500332894e-04 2.4441934715434040e-03 0.0000000000000000e+00  1.7992094038304631e-04 2.4558410056039893e-03 0.0000000000000000e+00  1.7959436107363577e-04 2.4868525509585235e-03 0.0000000000000000e+00  1.7491131885688627e-04 2.5204127149138804e-03 0.0000000000000000e+00  1.6914136992769694e-04 2.5542333343615228e-03 0.0000000000000000e+00  1.6281794357795283e-04 2.5884143199094377e-03 0.0000000000000000e+00  1.5648676093138169e-04 2.6239163213653926e-03 0.0000000000000000e+00  1.5060034524571871e-04 2.6602479645127840e-03 0.0000000000000000e+00  1.4532725788243725e-04 2.6975711787357447e-03 0.0000000000000000e+00  1.4082928918733134e-04 2.7359256099421130e-03 0.0000000000000000e+00  1.3731297934522973e-04 2.7750865080552888e-03 0.0000000000000000e+00  1.3490479187980908e-04 2.8147048971617775e-03 0.0000000000000000e+00  1.3359872327262413e-04 2.8544340376846253e-03 0.0000000000000000e+00  1.3331666379903600e-04 2.8939593282364100e-03 0.0000000000000000e+00  1.3394782478873431e-04 2.9330457480878491e-03 0.0000000000000000e+00  1.3536478570892900e-04 2.9715401981778031e-03 0.0000000000000000e+00  1.3743138819589755e-04 3.0093578921904203e-03 0.0000000000000000e+00  1.3999970578396965e-04 3.0464173871467127e-03 0.0000000000000000e+00  1.8193001688917486e-04 2.3435147266855161e-03 0.0000000000000000e+00  1.8013268299782396e-04 2.3576379826316927e-03 0.0000000000000000e+00  1.7803175008328649e-04 2.3711505720269512e-03 0.0000000000000000e+00  1.7574685259035236e-04 2.3842454375897003e-03 0.0000000000000000e+00  1.7309020001423620e-04 2.3973526975049901e-03 0.0000000000000000e+00  1.7124515482284177e-04 2.4098265001581531e-03 0.0000000000000000e+00  1.7122022829715926e-04 2.4169034705457705e-03 0.0000000000000000e+00  1.7105800840667846e-04 2.4242812164634248e-03 0.0000000000000000e+00  1.7084889508269289e-04 2.4332468538586839e-03 0.0000000000000000e+00  1.7092994489614085e-04 2.4426814851706644e-03 0.0000000000000000e+00  1.7137189847665372e-04 2.4516965070646912e-03 0.0000000000000000e+00  1.6841755944233672e-04 2.4913350051892647e-03 0.0000000000000000e+00  1.6209723953646555e-04 2.5285179035581407e-03 0.0000000000000000e+00  1.5480921414432594e-04 2.5640671205459280e-03 0.0000000000000000e+00  1.4736871254697465e-04 2.5991256834480775e-03 0.0000000000000000e+00  1.4017065607156817e-04 2.6345260010776539e-03 0.0000000000000000e+00  1.3355823274006161e-04 2.6703748651999847e-03 0.0000000000000000e+00  1.2767105482721665e-04 2.7068518421899924e-03 0.0000000000000000e+00  1.2264720011711614e-04 2.7440097076766277e-03 0.0000000000000000e+00  1.1861489614626140e-04 2.7817183161275671e-03 0.0000000000000000e+00  1.1564945695532986e-04 2.8197586628521116e-03 0.0000000000000000e+00  1.1375672424370566e-04 2.8578958010861558e-03 0.0000000000000000e+00  1.1288630704569843e-04 2.8959027261413819e-03 0.0000000000000000e+00  1.1294994524375526e-04 2.9335967799668568e-03 0.0000000000000000e+00  1.1383936498257165e-04 2.9708552540538983e-03 0.0000000000000000e+00  1.1543574216618964e-04 3.0076159062403223e-03 0.0000000000000000e+00  1.1760783559734067e-04 3.0438700984302524e-03 0.0000000000000000e+00  1.7097287433090369e-04 2.3626756325282731e-03 0.0000000000000000e+00  1.6856206852806425e-04 2.3763267323341753e-03 0.0000000000000000e+00  1.6604938219786459e-04 2.3890848112572945e-03 0.0000000000000000e+00  1.6413373126875492e-04 2.4023070613247003e-03 0.0000000000000000e+00  1.6390753578166169e-04 2.4101251701388127e-03 0.0000000000000000e+