<?xml version="1.0"?>
<VTKFile type="UnstructuredGrid"  version="0.1"  >
<UnstructuredGrid>
<Piece  NumberOfPoints="4754" NumberOfCells="9224">
<Points>
<DataArray  type="Float64"  NumberOfComponents="3"  format="ascii">0.4873913043478261 0 0  0.4956521739130435 0 0  0.4956521739130435 0.008333333333333333 0  0.4873913043478261 0.008333333333333333 0  0.5039130434782608 0 0  0.5039130434782608 0.008333333333333333 0  0.5121739130434783 0 0  0.5121739130434783 0.008333333333333333 0  0.5204347826086956 0 0  0.5204347826086956 0.008333333333333333 0  0.528695652173913 0 0  0.528695652173913 0.008333333333333333 0  0.5369565217391304 0 0  0.5369565217391304 0.008333333333333333 0  0.5452173913043478 0 0  0.5452173913043478 0.008333333333333333 0  0.5534782608695652 0 0  0.5534782608695652 0.008333333333333333 0  0.5617391304347825 0 0  0.5617391304347825 0.008333333333333333 0  0.57 0 0  0.57 0.008333333333333333 0  0.5782608695652174 0 0  0.5782608695652174 0.008333333333333333 0  0.5865217391304348 0 0  0.5865217391304348 0.008333333333333333 0  0.5947826086956521 0 0  0.5947826086956521 0.008333333333333333 0  0.6030434782608696 0 0  0.6030434782608696 0.008333333333333333 0  0.6113043478260869 0 0  0.6113043478260869 0.008333333333333333 0  0.6195652173913043 0 0  0.6195652173913043 0.008333333333333333 0  0.6278260869565218 0 0  0.6278260869565218 0.008333333333333333 0  0.6360869565217391 0 0  0.6360869565217391 0.008333333333333333 0  0.6443478260869565 0 0  0.6443478260869565 0.008333333333333333 0  0.6526086956521739 0 0  0.6526086956521739 0.008333333333333333 0  0.6608695652173913 0 0  0.6608695652173913 0.008333333333333333 0  0.6691304347826087 0 0  0.6691304347826087 0.008333333333333333 0  0.677391304347826 0 0  0.677391304347826 0.008333333333333333 0  0.6856521739130435 0 0  0.6856521739130435 0.008333333333333333 0  0.6939130434782609 0 0  0.6939130434782609 0.008333333333333333 0  0.7021739130434783 0 0  0.7021739130434783 0.008333333333333333 0  0.7104347826086956 0 0  0.7104347826086956 0.008333333333333333 0  0.718695652173913 0 0  0.718695652173913 0.008333333333333333 0  0.7269565217391304 0 0  0.7269565217391304 0.008333333333333333 0  0.7352173913043478 0 0  0.7352173913043478 0.008333333333333333 0  0.7434782608695653 0 0  0.7434782608695653 0.008333333333333333 0  0.7517391304347827 0 0  0.7517391304347827 0.008333333333333333 0  0.7599999999999999 0 0  0.7599999999999999 0.008333333333333333 0  0.7682608695652173 0 0  0.7682608695652173 0.008333333333333333 0  0.7765217391304348 0 0  0.7765217391304348 0.008333333333333333 0  0.7847826086956522 0 0  0.7847826086956522 0.008333333333333333 0  0.7930434782608695 0 0  0.7930434782608695 0.008333333333333333 0  0.8013043478260868 0 0  0.8013043478260868 0.008333333333333333 0  0.8095652173913043 0 0  0.8095652173913043 0.008333333333333333 0  0.8178260869565217 0 0  0.8178260869565217 0.008333333333333333 0  0.8260869565217391 0 0  0.8260869565217391 0.008333333333333333 0  0.8343478260869565 0 0  0.8343478260869565 0.008333333333333333 0  0.8426086956521739 0 0  0.8426086956521739 0.008333333333333333 0  0.8508695652173912 0 0  0.8508695652173912 0.008333333333333333 0  0.8591304347826086 0 0  0.8591304347826086 0.008333333333333333 0  0.8673913043478261 0 0  0.8673913043478261 0.008333333333333333 0  0.8756521739130434 0 0  0.8756521739130434 0.008333333333333333 0  0.8839130434782608 0 0  0.8839130434782608 0.008333333333333333 0  0.8921739130434783 0 0  0.8921739130434783 0.008333333333333333 0  0.9004347826086956 0 0  0.9004347826086956 0.008333333333333333 0  0.908695652173913 0 0  0.908695652173913 0.008333333333333333 0  0.9169565217391303 0 0  0.9169565217391303 0.008333333333333333 0  0.9252173913043478 0 0  0.9252173913043478 0.008333333333333333 0  0.9334782608695652 0 0  0.9334782608695652 0.008333333333333333 0  0.9417391304347826 0 0  0.9417391304347826 0.008333333333333333 0  0.95 0 0  0.95 0.008333333333333333 0  0.9582608695652173 0 0  0.9582608695652173 0.008333333333333333 0  0.9665217391304347 0 0  0.9665217391304347 0.008333333333333333 0  0.9747826086956521 0 0  0.9747826086956521 0.008333333333333333 0  0.9830434782608696 0 0  0.9830434782608696 0.008333333333333333 0  0.991304347826087 0 0  0.991304347826087 0.008333333333333333 0  0.9995652173913042 0 0  0.9995652173913042 0.008333333333333333 0  1.007826086956522 0 0  1.007826086956522 0.008333333333333333 0  1.016086956521739 0 0  1.016086956521739 0.008333333333333333 0  1.024347826086957 0 0  1.024347826086957 0.008333333333333333 0  1.032608695652174 0 0  1.032608695652174 0.008333333333333333 0  1.040869565217391 0 0  1.040869565217391 0.008333333333333333 0  1.049130434782609 0 0  1.049130434782609 0.008333333333333333 0  1.057391304347826 0 0  1.057391304347826 0.008333333333333333 0  1.065652173913043 0 0  1.065652173913043 0.008333333333333333 0  1.073913043478261 0 0  1.073913043478261 0.008333333333333333 0  1.082173913043478 0 0  1.082173913043478 0.008333333333333333 0  1.090434782608696 0 0  1.090434782608696 0.008333333333333333 0  1.098695652173913 0 0  1.098695652173913 0.008333333333333333 0  1.10695652173913 0 0  1.10695652173913 0.008333333333333333 0  1.115217391304348 0 0  1.115217391304348 0.008333333333333333 0  1.123478260869565 0 0  1.123478260869565 0.008333333333333333 0  1.131739130434783 0 0  1.131739130434783 0.008333333333333333 0  1.14 0 0  1.14 0.008333333333333333 0  1.148260869565217 0 0  1.148260869565217 0.008333333333333333 0  1.156521739130435 0 0  1.156521739130435 0.008333333333333333 0  1.164782608695652 0 0  1.164782608695652 0.008333333333333333 0  1.17304347826087 0 0  1.17304347826087 0.008333333333333333 0  0.4956521739130435 0.01666666666666667 0  0.5039130434782608 0.01666666666666667 0  0.5121739130434783 0.01666666666666667 0  0.5204347826086956 0.01666666666666667 0  0.528695652173913 0.01666666666666667 0  0.5369565217391304 0.01666666666666667 0  0.5452173913043478 0.01666666666666667 0  0.5534782608695652 0.01666666666666667 0  0.5617391304347825 0.01666666666666667 0  0.57 0.01666666666666667 0  0.5782608695652174 0.01666666666666667 0  0.5865217391304348 0.01666666666666667 0  0.5947826086956521 0.01666666666666667 0  0.6030434782608696 0.01666666666666667 0  0.6113043478260869 0.01666666666666667 0  0.6195652173913043 0.01666666666666667 0  0.6278260869565218 0.01666666666666667 0  0.6360869565217391 0.01666666666666667 0  0.6443478260869565 0.01666666666666667 0  0.6526086956521739 0.01666666666666667 0  0.6608695652173913 0.01666666666666667 0  0.6691304347826087 0.01666666666666667 0  0.677391304347826 0.01666666666666667 0  0.6856521739130435 0.01666666666666667 0  0.6939130434782609 0.01666666666666667 0  0.7021739130434783 0.01666666666666667 0  0.7104347826086956 0.01666666666666667 0  0.718695652173913 0.01666666666666667 0  0.7269565217391304 0.01666666666666667 0  0.7352173913043478 0.01666666666666667 0  0.7434782608695653 0.01666666666666667 0  0.7517391304347827 0.01666666666666667 0  0.7599999999999999 0.01666666666666667 0  0.7682608695652173 0.01666666666666667 0  0.7765217391304348 0.01666666666666667 0  0.7847826086956522 0.01666666666666667 0  0.7930434782608695 0.01666666666666667 0  0.8013043478260868 0.01666666666666667 0  0.8095652173913043 0.01666666666666667 0  0.8178260869565217 0.01666666666666667 0  0.8260869565217391 0.01666666666666667 0  0.8343478260869565 0.01666666666666667 0  0.8426086956521739 0.01666666666666667 0  0.8508695652173912 0.01666666666666667 0  0.8591304347826086 0.01666666666666667 0  0.8673913043478261 0.01666666666666667 0  0.8756521739130434 0.01666666666666667 0  0.8839130434782608 0.01666666666666667 0  0.8921739130434783 0.01666666666666667 0  0.9004347826086956 0.01666666666666667 0  0.908695652173913 0.01666666666666667 0  0.9169565217391303 0.01666666666666667 0  0.9252173913043478 0.01666666666666667 0  0.9334782608695652 0.01666666666666667 0  0.9417391304347826 0.01666666666666667 0  0.95 0.01666666666666667 0  0.9582608695652173 0.01666666666666667 0  0.9665217391304347 0.01666666666666667 0  0.9747826086956521 0.01666666666666667 0  0.9830434782608696 0.01666666666666667 0  0.991304347826087 0.01666666666666667 0  0.9995652173913042 0.01666666666666667 0  1.007826086956522 0.01666666666666667 0  1.016086956521739 0.01666666666666667 0  1.024347826086957 0.01666666666666667 0  1.032608695652174 0.01666666666666667 0  1.040869565217391 0.01666666666666667 0  1.049130434782609 0.01666666666666667 0  1.057391304347826 0.01666666666666667 0  1.065652173913043 0.01666666666666667 0  1.073913043478261 0.01666666666666667 0  1.082173913043478 0.01666666666666667 0  1.090434782608696 0.01666666666666667 0  1.098695652173913 0.01666666666666667 0  1.10695652173913 0.01666666666666667 0  1.115217391304348 0.01666666666666667 0  1.123478260869565 0.01666666666666667 0  1.131739130434783 0.01666666666666667 0  1.14 0.01666666666666667 0  1.148260869565217 0.01666666666666667 0  1.156521739130435 0.01666666666666667 0  1.164782608695652 0.01666666666666667 0  1.17304347826087 0.01666666666666667 0  0.5039130434782608 0.025 0  0.5121739130434783 0.025 0  0.5204347826086956 0.025 0  0.528695652173913 0.025 0  0.5369565217391304 0.025 0  0.5452173913043478 0.025 0  0.5534782608695652 0.025 0  0.5617391304347825 0.025 0  0.57 0.025 0  0.5782608695652174 0.025 0  0.5865217391304348 0.025 0  0.5947826086956521 0.025 0  0.6030434782608696 0.025 0  0.6113043478260869 0.025 0  0.6195652173913043 0.025 0  0.6278260869565218 0.025 0  0.6360869565217391 0.025 0  0.6443478260869565 0.025 0  0.6526086956521739 0.025 0  0.6608695652173913 0.025 0  0.6691304347826087 0.025 0  0.677391304347826 0.025 0  0.6856521739130435 0.025 0  0.6939130434782609 0.025 0  0.7021739130434783 0.025 0  0.7104347826086956 0.025 0  0.718695652173913 0.025 0  0.7269565217391304 0.025 0  0.7352173913043478 0.025 0  0.7434782608695653 0.025 0  0.7517391304347827 0.025 0  0.7599999999999999 0.0
[...]
<PointData  Vectors="Displacement"> 
<DataArray  type="Float64"  Name="Displacement"  NumberOfComponents="3" format="ascii">5.1301253826625228e-05 1.5759751286751971e-04 0.0000000000000000e+00  5.1946576487780663e-05 1.6018386265687133e-04 0.0000000000000000e+00  4.9344090047483258e-05 1.5996810007557494e-04 0.0000000000000000e+00  4.8693587562736037e-05 1.5738098027238899e-04 0.0000000000000000e+00  5.2589469814221483e-05 1.6276310569729967e-04 0.0000000000000000e+00  4.9994597116367069e-05 1.6254806589703619e-04 0.0000000000000000e+00  5.3231840856726260e-05 1.6533038304063376e-04 0.0000000000000000e+00  5.0646360951418910e-05 1.6511517675976467e-04 0.0000000000000000e+00  5.3876810538494731e-05 1.6788372946371742e-04 0.0000000000000000e+00  5.1301188077453699e-05 1.6766728695684588e-04 0.0000000000000000e+00  5.4527326838873330e-05 1.7042423344284719e-04 0.0000000000000000e+00  5.1960652317093967e-05 1.7020572490675977e-04 0.0000000000000000e+00  5.5185341936507010e-05 1.7295489803603563e-04 0.0000000000000000e+00  5.2625775190144943e-05 1.7273385147398464e-04 0.0000000000000000e+00  5.5851532608995039e-05 1.7547949038076784e-04 0.0000000000000000e+00  5.3296947786011823e-05 1.7525579584428167e-04 0.0000000000000000e+00  5.6525285505216797e-05 1.7800164582889352e-04 0.0000000000000000e+00  5.3973920046071602e-05 1.7777554456826469e-04 0.0000000000000000e+00  5.7204808522172963e-05 1.8052409419903276e-04 0.0000000000000000e+00  5.4655834468167130e-05 1.8029616942811386e-04 0.0000000000000000e+00  5.7887415308927504e-05 1.8304785870207051e-04 0.0000000000000000e+00  5.5341355578905652e-05 1.8281898647065601e-04 0.0000000000000000e+00  5.8570249830962372e-05 1.8557136040586817e-04 0.0000000000000000e+00  5.6029088227709794e-05 1.8534243184585656e-04 0.0000000000000000e+00  5.9251326784686929e-05 1.8809037848389792e-04 0.0000000000000000e+00  5.6718135342277595e-05 1.8786190421617513e-04 0.0000000000000000e+00  5.9929883420235289e-05 1.9059987641014461e-04 0.0000000000000000e+00  5.7407990041272496e-05 1.9037210776285949e-04 0.0000000000000000e+00  6.0607211747516491e-05 1.9309384624441401e-04 0.0000000000000000e+00  5.8099426044613699e-05 1.9286615756241053e-04 0.0000000000000000e+00  6.1286356980808516e-05 1.9556837720913716e-04 0.0000000000000000e+00  5.8794135834513972e-05 1.9533967383830072e-04 0.0000000000000000e+00  6.1970770938352034e-05 1.9802304220737756e-04 0.0000000000000000e+00  5.9493840371908192e-05 1.9779234286989520e-04 0.0000000000000000e+00  6.2663302020000920e-05 2.0046002566188154e-04 0.0000000000000000e+00  6.0199860063654014e-05 2.0022665280264605e-04 0.0000000000000000e+00  6.3365887731025734e-05 2.0288291010922546e-04 0.0000000000000000e+00  6.0913067003488916e-05 2.0264646252623691e-04 0.0000000000000000e+00  6.4079656578860692e-05 2.0529584599609873e-04 0.0000000000000000e+00  6.1633975749425998e-05 2.0505611795316737e-04 0.0000000000000000e+00  6.4805145362183730e-05 2.0770311152135359e-04 0.0000000000000000e+00  6.2362845161729525e-05 2.0746002587171305e-04 0.0000000000000000e+00  6.5542493865399480e-05 2.1010890426104644e-04 0.0000000000000000e+00  6.3099750250349205e-05 2.0986247095679185e-04 0.0000000000000000e+00  6.6291593605352758e-05 2.1251723848982369e-04 0.0000000000000000e+00  6.3844630478142181e-05 2.1226752658883363e-04 0.0000000000000000e+00  6.7052219305551740e-05 2.1493188412549476e-04 0.0000000000000000e+00  6.4597344483714061e-05 2.1467898990198183e-04 0.0000000000000000e+00  6.7824200210811871e-05 2.1735630887855507e-04 0.0000000000000000e+00  6.5357784585380163e-05 2.1710028747324328e-04 0.0000000000000000e+00  6.8607598792292513e-05 2.1979376916629899e-04 0.0000000000000000e+00  6.6126009969153050e-05 2.1953455918533301e-04 0.0000000000000000e+00  6.9402656581279387e-05 2.2224776433488666e-04 0.0000000000000000e+00  6.6902170894355502e-05 2.2198525736159301e-04 0.0000000000000000e+00  7.0209604370164339e-05 2.2472216850159439e-04 0.0000000000000000e+00  6.7686396546463216e-05 2.2445627699856638e-04 0.0000000000000000e+00  7.1028502650396917e-05 2.2722110000436720e-04 0.0000000000000000e+00  6.8478739743491293e-05 2.2695178901892477e-04 0.0000000000000000e+00  7.1859122205816922e-05 2.2974873552552744e-04 0.0000000000000000e+00  6.9279129554730603e-05 2.2947605906761023e-04 0.0000000000000000e+00  7.2700850299583258e-05 2.3230908112685763e-04 0.0000000000000000e+00  7.0087296736844496e-05 2.3203322295013723e-04 0.0000000000000000e+00  7.3552667348721751e-05 2.3490569266462676e-04 0.0000000000000000e+00  7.0902712677882874e-05 2.3462697133021297e-04 0.0000000000000000e+00  7.4413263628023349e-05 2.3754138842597752e-04 0.0000000000000000e+00  7.1724648619177512e-05 2.3726018825992394e-04 0.0000000000000000e+00  7.5281438843857168e-05 2.4021785973865753e-04 0.0000000000000000e+00  7.2552576719905358e-05 2.3993438372728161e-04 0.0000000000000000e+00  7.6156185938821828e-05 2.4293622693936166e-04 0.0000000000000000e+00  7.3386270288556204e-05 2.4265055334278890e-04 0.0000000000000000e+00  7.7036129055262285e-05 2.4569756121023596e-04 0.0000000000000000e+00  7.4225327623840412e-05 2.4541002915147810e-04 0.0000000000000000e+00  7.7918918874976686e-05 2.4850229681210311e-04 0.0000000000000000e+00  7.5068560610711763e-05 2.4821379618758884e-04 0.0000000000000000e+00  7.8801472756526627e-05 2.5134881861596449e-04 0.0000000000000000e+00  7.5913970514804999e-05 2.5106061931300051e-04 0.0000000000000000e+00  7.9681657497897163e-05 2.5423205855086561e-04 0.0000000000000000e+00  7.6759981158286509e-05 2.5394494707110679e-04 0.0000000000000000e+00  8.0561202474437854e-05 2.5714354314840520e-04 0.0000000000000000e+00  7.7607908011263744e-05 2.5685630214317292e-04 0.0000000000000000e+00  8.1444435971754156e-05 2.6007969132623153e-04 0.0000000000000000e+00  7.8460216459921254e-05 2.5979068082326601e-04 0.0000000000000000e+00  8.2335466164942263e-05 2.6304241599460243e-04 0.0000000000000000e+00  7.9318925595265244e-05 2.6275047806176890e-04 0.0000000000000000e+00  8.3236641607984719e-05 2.6603658216681610e-04 0.0000000000000000e+00  8.0185131905360229e-05 2.6574120796202288e-04 0.0000000000000000e+00  8.4148203798583350e-05 2.6906773959020489e-04 0.0000000000000000e+00  8.1058960676843464e-05 2.6876901482297361e-04 0.0000000000000000e+00  8.5068503235292907e-05 2.7214053532196973e-04 0.0000000000000000e+00  8.1939664312973801e-05 2.7183903836964292e-04 0.0000000000000000e+00  8.5994534605261878e-05 2.7525735655065282e-04 0.0000000000000000e+00  8.2825971470241118e-05 2.7495403898959464e-04 0.0000000000000000e+00  8.6923134363430546e-05 2.7841670712892684e-04 0.0000000000000000e+00  8.3716916270668736e-05 2.7811243994811023e-04 0.0000000000000000e+00  8.7851886493376939e-05 2.8161404874649259e-04 0.0000000000000000e+00  8.4611800726800193e-05 2.8130954220140805e-04 0.0000000000000000e+00  8.8779219560553412e-05 2.8484370077465630e-04 0.0000000000000000e+00  8.5509495108724971e-05 2.8453974923942641e-04 0.0000000000000000e+00  8.9706763241960083e-05 2.8809671720806643e-04 0.0000000000000000e+00  8.6410891264499223e-05 2.8779240369899300e-04 0.0000000000000000e+00  9.0638945692594149e-05 2.9136807388505483e-04 0.0000000000000000e+00  8.7318152075352589e-05 2.9106178704664521e-04 0.0000000000000000e+00  9.1580465442340228e-05 2.9465880380232716e-04 0.0000000000000000e+00  8.8233172964103605e-05 2.9434930835767881e-04 0.0000000000000000e+00  9.2534806325501341e-05 2.9797364202227577e-04 0.0000000000000000e+00  8.9157178847257588e-05 2.9766021487522833e-04 0.0000000000000000e+00  9.3504074876491107e-05 3.0131889558671765e-04 0.0000000000000000e+00  9.0090859060036567e-05 3.0100117174639848e-04 0.0000000000000000e+00  9.4489362569126533e-05 3.0470133359000403e-04 0.0000000000000000e+00  9.1034571461186690e-05 3.0437914744781347e-04 0.0000000000000000e+00  9.5491134958627889e-05 3.0812774356409300e-04 0.0000000000000000e+00  9.1988493315233363e-05 3.0780102923696595e-04 0.0000000000000000e+00  9.6509487163016301e-05 3.1160477252406479e-04 0.0000000000000000e+00  9.2952709340565344e-05 3.1127352573304628e-04 0.0000000000000000e+00  9.7544270553053119e-05 3.1513880933854081e-04 0.0000000000000000e+00  9.3927241403955199e-05 3.1480310644356387e-04 0.0000000000000000e+00  9.8595183542580291e-05 3.1873577801293240e-04 0.0000000000000000e+00  9.4912019910875400e-05 3.1839583222708755e-04 0.0000000000000000e+00  9.9662014572319407e-05 3.2240084868572031e-04 0.0000000000000000e+00  9.5906835378136714e-05 3.2205702372423655e-04 0.0000000000000000e+00  1.0074532723920750e-04 3.2613833937051391e-04 0.0000000000000000e+00  9.6911425370314622e-05 3.2579091710358118e-04 0.0000000000000000e+00  1.0184788011053475e-04 3.2995221958607334e-04 0.0000000000000000e+00  9.7926236601129853e-05 3.2960067608110553e-04 0.0000000000000000e+00  1.0297614729650473e-04 3.3384833366094271e-04 0.0000000000000000e+00  9.8953770848666541e-05 3.3349057263582898e-04 0.0000000000000000e+00  1.0414008559294243e-04 3.3783877702597625e-04 0.0000000000000000e+00  9.9998904336435991e-05 3.3747135697497036e-04 0.0000000000000000e+00  1.0534978034624621e-04 3.4194617984516831e-04 0.0000000000000000e+00  1.0106668355271951e-04 3.4156602033362976e-04 0.0000000000000000e+00  1.0661220375865017e-04 3.4620106392564974e-04 0.0000000000000000e+00  1.0216078959396395e-04 3.4580611321819024e-04 0.0000000000000000e+00  1.0792922805554749e-04 3.5063813458139530e-04 0.0000000000000000e+00  1.0328269672898092e-04 3.5022758761540999e-04 0.0000000000000000e+00  1.0929509719404703e-04 3.5529418589949602e-04 0.0000000000000000e+00  1.0442991494020220e-04 3.5486955731979823e-04 0.0000000000000000e+00  1.1069373056789408e-04 3.6020327089614397e-04 0.0000000000000000e+00  1.0559407709489718e-04 3.5976955183350523e-04 0.0000000000000000e+00  1.1209739344151664e-04 3.6538936976332015e-04 0.0000000000000000e+00  1.0675942981029057e-04 3.6495579594842623e-04 0.0000000000000000e+00  1.1347006133125879e-04 3.7085563729608452e-04 0.0000000000000000e+00  1.0790463643398055e-04 3.7043418426067784e-04 0.0000000000000000e+00  1.1477768896725826e-04 3.7657526691970143e-04 0.0000000000000000e+00  1.0900994542325058e-04 3.7617598721763514e-04 0.0000000000000000e+00  1.1599992690383691e-04 3.8249631112070777e-04 0.0000000000000000e+00  1.1006480593241169e-04 3.8212304314748049e-04 0.0000000000000000e+00  1.1713079191653930e-04 3.8856539839479725e-04 0.0000000000000000e+00  1.1106558205478011e-04 3.8821834533371021e-04 0.0000000000000000e+00  1.1817408894709383e-04 3.9473655319026158e-04 0.0000000000000000e+00  1.1201279545761800e-04 3.9441387486053691e-04 0.0000000000000000e+00  1.1913920043665307e-04 4.0097388800590947e-04 0.0000000000000000e+00  1.1290964419174349e-04 4.0067255969974296e-04 0.0000000000000000e+00  1.2003775326316802e-04 4.0725220750723355e-04 0.0000000000000000e+00  1.1376091369283311e-04 4.0696878455818899e-04 0.0000000000000000e+00  1.2088056050110669e-04 4.1355637264668579e-04 0.0000000000000000e+00  1.1457144084562708e-04 4.1328801034317900e-04 0.0000000000000000e+00  1.2167638528611128e-04 4.1987697200729552e-04 0.0000000000000000e+00  1.1534584474538948e-04 4.1962131821752244e-04 0.0000000000000000e+00  1.2243046547619880e-04 4.2620965708784105e-04 0.0000000000000000e+00  1.1608685509136844e-04 4.2596579332874275e-04 0.0000000000000000e+00  1.2314439881878203e-04 4.3255078139165431e-04 0.0000000000000000e+00  1.1679505911710141e-04 4.3231899793509605e-04 0.0000000000000000e+00  1.2381861285299338e-04 4.3889327532834475e-04 0.0000000000000000e+00  1.1747075346759390e-04 4.3867370451493889e-04 0.0000000000000000e+00  1.2445474276357777e-04 4.4522785086381883e-04 0.0000000000000000e+00  1.1811528252942782e-04 4.4501983272584504e-04 0.0000000000000000e+00  1.2505633621914710e-04 4.5154578975089096e-04 0.0000000000000000e+00  1.1873130008120941e-04 4.5134792377099356e-04 0.0000000000000000e+00  4.6739205723431902e-05 1.5975112649417868e-04 0.0000000000000000e+00  4.7395414400927394e-05 1.6233270329900750e-04 0.0000000000000000e+00  4.8053592095161117e-05 1.6489958314067226e-04 0.0000000000000000e+00  4.8715427252589289e-05 1.6744984599454207e-04 0.0000000000000000e+00  4.9381906689255902e-05 1.6998557739856548e-04 0.0000000000000000e+00  5.0053448042201054e-05 1.7251065837493697e-04 0.0000000000000000e+00  5.0730195793208656e-05 1.7502953106402600e-04 0.0000000000000000e+00  5.1412080528258021e-05 1.7754648421343595e-04 0.0000000000000000e+00  5.2098707264172990e-05 1.8006498281677001e-04 0.0000000000000000e+00  5.2789333671885558e-05 1.8258682405682944e-04 0.0000000000000000e+00  5.3483322626099829e-05 1.8511046207655938e-04 0.0000000000000000e+00  5.4180576563315327e-05 1.8763060109618855e-04 0.0000000000000000e+00  5.4880315377552561e-05 1.9014226213104416e-04 0.0000000000000000e+00  5.5583063538287844e-05 1.9263658289308297e-04 0.0000000000000000e+00  5.6290157855440211e-05 1.9510865300988829e-04 0.0000000000000000e+00  5.7002395262539307e-05 1.9755892539121062e-04 0.0000000000000000e+00  5.7719887542217320e-05 1.9999056825284161e-04 0.0000000000000000e+00  5.8442427799724512e-05 2.0240775613254746e-04 0.0000000000000000e+00  5.9169770046567698e-05 2.0481491611100668e-04 0.0000000000000000e+00  5.9901735014906633e-05 2.0721645448065908e-04 0.0000000000000000e+00  6.0638194408271394e-05 2.0961666430970149e-04 0.0000000000000000e+00  6.1378996509162318e-05 2.1201966067510740e-04 0.0000000000000000e+00  6.2123913972877322e-05 2.1442928333052807e-04 0.0000000000000000e+00  6.2872767096299069e-05 2.1684885565564720e-04 0.0000000000000000e+00  6.3625663686073264e-05 2.1928121353368576e-04 0.0000000000000000e+00  6.4382818947636791e-05 2.2172975880091280e-04 0.0000000000000000e+00  6.5144392964860967e-05 2.2419845067434151e-04 0.0000000000000000e+00  6.5910520047599965e-05 2.2669149180964371e-04 0.0000000000000000e+00  6.6681363157894646e-05 2.2921320257483381e-04 0.0000000000000000e+00  6.7457051301689840e-05 2.3176788782669529e-04 0.0000000000000000e+00  6.8237472177772377e-05 2.3435949704912350e-04 0.0000000000000000e+00  6.9022163515497642e-05 2.3699106294488813e-04 0.0000000000000000e+00  6.9811103587881301e-05 2.3966341049304289e-04 0.0000000000000000e+00  7.0605108205320090e-05 2.4237695943984646e-04 0.0000000000000000e+00  7.1405190534709184e-05 2.4513359216148903e-04 0.0000000000000000e+00  7.2211215151935253e-05 2.4793587320879533e-04 0.0000000000000000e+00  7.3020885706671270e-05 2.5078403886439352e-04 0.0000000000000000e+00  7.3831282180916225e-05 2.5367181834894126e-04 0.0000000000000000e+00  7.4644226016163683e-05 2.5658328592276279e-04 0.0000000000000000e+00  7.5462343094177584e-05 2.5951487543098473e-04 0.0000000000000000e+00  7.6286773682425561e-05 2.6247066001302286e-04 0.0000000000000000e+00  7.7117728617013946e-05 2.6545716361080310e-04 0.0000000000000000e+00  7.7955064659287278e-05 2.6848115479612215e-04 0.0000000000000000e+00  7.8798202731384225e-05 2.7154830594311978e-04 0.0000000000000000e+00  7.9646299944116043e-05 2.7466168520130731e-04 0.0000000000000000e+00  8.0500171708771162e-05 2.7781893121232246e-04 0.0000000000000000e+00  8.1361301935954736e-05 2.8101554395458457e-04 0.0000000000000000e+00  8.2227888634582488e-05 2.8424786541032148e-04 0.0000000000000000e+00  8.3100130634457150e-05 2.8750060130838735e-04 0.0000000000000000e+00  8.3979236224796333e-05 2.9076742400702739e-04 0.0000000000000000e+00  8.4865194899273432e-05 2.9405147506409031e-04 0.0000000000000000e+00  8.5757162786522108e-05 2.9735899049871295e-04 0.0000000000000000e+00  8.6654255190856471e-05 3.0069688888898866e-04 0.0000000000000000e+00  8.7555859099138628e-05 3.0407208362119435e-04 0.0000000000000000e+00  8.8461646834617097e-05 3.0749134478581862e-04 0.0000000000000000e+00  8.9371498498794187e-05 3.1096131274410639e-04 0.0000000000000000e+00  9.0285402079391314e-05 3.1448853075281542e-04 0.0000000000000000e+00  9.1203266058053072e-05 3.1807940530510152e-04 0.0000000000000000e+00  9.2124512070569311e-05 3.2173994698573416e-04 0.0000000000000000e+00  9.3047480326670601e-05 3.2547517499827627e-04 0.0000000000000000e+00  9.3969457553301773e-05 3.2928752691385705e-04 0.0000000000000000e+00  9.4888817488635017e-05 3.3317803623109500e-04 0.0000000000000000e+00  9.5807478341556956e-05 3.3715416776754106e-04 0.0000000000000000e+00  9.6728564111898252e-05 3.4123996758665464e-04 0.0000000000000000e+00  9.7655465326764641e-05 3.4546788125944076e-04 0.0000000000000000e+00  9.8592242145671523e-05 3.4987364423259089e-04 0.0000000000000000e+00  9.9541719615818528e-05 3.5449828760141043e-04 0.0000000000000000e+00  1.0050320513949763e-04 3.5938394197243496e-04 0.0000000000000000e+00  1.0146866621940817e-04 3.6456689391867018e-04 0.0000000000000000e+00  1.0242207733260152e-04 3.7005911681493831e-04 0.0000000000000000e+00  1.0334883191261401e-04 3.7582708159003016e-04 0.0000000000000000e+00  1.0424721726214521e-04 3.8179852228391900e-04 0.0000000000000000e+00  1.0511936674103474e-04 3.8791451309335009e-04 0.0000000000000000e+00  1.0596594520168175e-04 3.9412748494308848e-04 0.0000000000000000e+00  1.0678650018460230e-04 4.0040029537854489e-04 0.0000000000000000e+00  1.0758122800179104e-04 4.0670717302453759e-04 0.0000000000000000e+00  1.0835063351235368e-04 4.1303506849368996e-04 0.0000000000000000e+00  1.0909703104726074e-04 4.1937470746194669e-04 0.0000000000000000e+00  1.0982115178382290e-04 4.2572616146175176e-04 0.0000000000000000e+00  1.1052093655177364e-04 4.3208929685185991e-04 0.0000000000000000e+00  1.1119462536034601e-04 4.3845543055154052e-04 0.0000000000000000e+00  1.1184252640336501e-04 4.4481225633443669e-04 0.0000000000000000e+00  1.1246715998943027e-04 4.5114867454407989e-04 0.0000000000000000e+00  4.4788719489160957e-05 1.6211847082113441e-04 0.0000000000000000e+00  4.5452763629160764e-05 1.6468526874289049e-04 0.0000000000000000e+00  4.6121259886463459e-05 1.6723271583606551e-04 0.0000000000000000e+00  4.6794573807769237e-05 1.6976460040036016e-04 0.0000000000000000e+00  4.7472397610686945e-05 1.7228560715833966e-04 0.0000000000000000e+00  4.8154576445398800e-05 1.7480044219157767e-04 0.0000000000000000e+00  4.8841256616027631e-05 1.7731373826319202e-04 0.0000000000000000e+00  4.9532388255086765e-05 1.7982961891578684e-04 0.0000000000000000e+00  5.0227359069034277e-05 1.8235063219263216e-04 0.0000000000000000e+00  5.0926429825437571e-05 1.8487498471542868e-04 0.0000000000000000e+00  5.1631441106018920e-05 1.8739613883328002e-04 0.0000000000000000e+00  5.2341008316824957e-05 1.8991115664645190e-04 0.0000000000000000e+00  5.3055252347262382e-05 1.9240650780917657e-04 0.0000000000000000e+00  5.3775141018205786e-05 1.9487655561992078e-04 0.0000000000000000e+00  5.4500357796657370e-05 1.9732369568225050e-04 0.0000000000000000e+00  5.5229654365996172e-05 1.9975237163170063e-04 0.0000000000000000e+00  5.5961710311670527e-05 2.0216715942848962e-04 0.0000000000000000e+00  5.6695546873202781e-05 2.0457243825747209e-04 0.0000000000000000e+00  5.7430596157817994e-05 2.0697245222479357e-04 0.0000000000000000e+00  5.8166594832171100e-05 2.0937141221645314e-04 0.0000000000000000e+00  5.8903357185242038e-05 2.1177349975251767e-04 0.0000000000000000e+00  5.9640534898343207e-05 2.1418268899900424e-04 0.0000000000000000e+00  6.0377793422606968e-05 2.1660209778697151e-04 0.0000000000000000e+00  6.1115347553948037e-05 2.1903385725307838e-04 0.0000000000000000e+00  6.1853522938424733e-05 2.2148135343185162e-04 0.0000000000000000e+00  6.2592479077887251e-05 2.2394872385874534e-04 0.0000000000000000e+00  6.3332362657157447e-05 2.2644017720409749e-04 0.0000000000000000e+00  6.4073502878362508e-05 2.2895997624538118e-04 0.0000000000000000e+00  6.4816512837331084e-05 2.3151260277469210e-04 0.0000000000000000e+00  6.5561921881646668e-05 2.3410261223157203e-04 0.0000000000000000e+00  6.6309426981006573e-05 2.3673365811791207e-04 0.0000000000000000e+00  6.7059219882091819e-05 2.3940500515774984e-04 0.0000000000000000e+00  6.7812867698699913e-05 2.4211543433915017e-04 0.0000000000000000e+