<?xml version="1.0"?>
<VTKFile type="UnstructuredGrid"  version="0.1"  >
<UnstructuredGrid>
<Piece  NumberOfPoints="4670" NumberOfCells="9067">
<Points>
<DataArray  type="Float64"  NumberOfComponents="3"  format="ascii">0 0 0  0.008260869565217391 0 0  0.008260869565217391 0.008333333333333333 0  0 0.008333333333333333 0  0.01652173913043478 0 0  0.01652173913043478 0.008333333333333333 0  0.02478260869565217 0 0  0.02478260869565217 0.008333333333333333 0  0.03304347826086956 0 0  0.03304347826086956 0.008333333333333333 0  0.04130434782608695 0 0  0.04130434782608695 0.008333333333333333 0  0.04956521739130434 0 0  0.04956521739130434 0.008333333333333333 0  0.05782608695652174 0 0  0.05782608695652174 0.008333333333333333 0  0.06608695652173913 0 0  0.06608695652173913 0.008333333333333333 0  0.07434782608695652 0 0  0.07434782608695652 0.008333333333333333 0  0.08260869565217391 0 0  0.08260869565217391 0.008333333333333333 0  0.0908695652173913 0 0  0.0908695652173913 0.008333333333333333 0  0.09913043478260869 0 0  0.09913043478260869 0.008333333333333333 0  0.1073913043478261 0 0  0.1073913043478261 0.008333333333333333 0  0.1156521739130435 0 0  0.1156521739130435 0.008333333333333333 0  0.1239130434782609 0 0  0.1239130434782609 0.008333333333333333 0  0.1321739130434783 0 0  0.1321739130434783 0.008333333333333333 0  0.1404347826086956 0 0  0.1404347826086956 0.008333333333333333 0  0.148695652173913 0 0  0.148695652173913 0.008333333333333333 0  0.1569565217391304 0 0  0.1569565217391304 0.008333333333333333 0  0.1652173913043478 0 0  0.1652173913043478 0.008333333333333333 0  0.1734782608695652 0 0  0.1734782608695652 0.008333333333333333 0  0.1817391304347826 0 0  0.1817391304347826 0.008333333333333333 0  0.19 0 0  0.19 0.008333333333333333 0  0.1982608695652174 0 0  0.1982608695652174 0.008333333333333333 0  0.2065217391304348 0 0  0.2065217391304348 0.008333333333333333 0  0.2147826086956522 0 0  0.2147826086956522 0.008333333333333333 0  0.2230434782608696 0 0  0.2230434782608696 0.008333333333333333 0  0.2313043478260869 0 0  0.2313043478260869 0.008333333333333333 0  0.2395652173913043 0 0  0.2395652173913043 0.008333333333333333 0  0.2478260869565218 0 0  0.2478260869565218 0.008333333333333333 0  0.2560869565217391 0 0  0.2560869565217391 0.008333333333333333 0  0.2643478260869565 0 0  0.2643478260869565 0.008333333333333333 0  0.2726086956521739 0 0  0.2726086956521739 0.008333333333333333 0  0.2808695652173913 0 0  0.2808695652173913 0.008333333333333333 0  0.2891304347826087 0 0  0.2891304347826087 0.008333333333333333 0  0.2973913043478261 0 0  0.2973913043478261 0.008333333333333333 0  0.3056521739130434 0 0  0.3056521739130434 0.008333333333333333 0  0.3139130434782609 0 0  0.3139130434782609 0.008333333333333333 0  0.3221739130434783 0 0  0.3221739130434783 0.008333333333333333 0  0.3304347826086956 0 0  0.3304347826086956 0.008333333333333333 0  0.338695652173913 0 0  0.338695652173913 0.008333333333333333 0  0.3469565217391304 0 0  0.3469565217391304 0.008333333333333333 0  0.3552173913043478 0 0  0.3552173913043478 0.008333333333333333 0  0.3634782608695652 0 0  0.3634782608695652 0.008333333333333333 0  0.3717391304347826 0 0  0.3717391304347826 0.008333333333333333 0  0.3799999999999999 0 0  0.3799999999999999 0.008333333333333333 0  0.3882608695652174 0 0  0.3882608695652174 0.008333333333333333 0  0.3965217391304348 0 0  0.3965217391304348 0.008333333333333333 0  0.4047826086956521 0 0  0.4047826086956521 0.008333333333333333 0  0.4130434782608696 0 0  0.4130434782608696 0.008333333333333333 0  0.4213043478260869 0 0  0.4213043478260869 0.008333333333333333 0  0.4295652173913043 0 0  0.4295652173913043 0.008333333333333333 0  0.4378260869565217 0 0  0.4378260869565217 0.008333333333333333 0  0.4460869565217391 0 0  0.4460869565217391 0.008333333333333333 0  0.4543478260869565 0 0  0.4543478260869565 0.008333333333333333 0  0.4626086956521739 0 0  0.4626086956521739 0.008333333333333333 0  0.4708695652173913 0 0  0.4708695652173913 0.008333333333333333 0  0.4791304347826086 0 0  0.4791304347826086 0.008333333333333333 0  0.4873913043478261 0 0  0.4873913043478261 0.008333333333333333 0  0.008260869565217391 0.01666666666666667 0  0 0.01666666666666667 0  0.01652173913043478 0.01666666666666667 0  0.02478260869565217 0.01666666666666667 0  0.03304347826086956 0.01666666666666667 0  0.04130434782608695 0.01666666666666667 0  0.04956521739130434 0.01666666666666667 0  0.05782608695652174 0.01666666666666667 0  0.06608695652173913 0.01666666666666667 0  0.07434782608695652 0.01666666666666667 0  0.08260869565217391 0.01666666666666667 0  0.0908695652173913 0.01666666666666667 0  0.09913043478260869 0.01666666666666667 0  0.1073913043478261 0.01666666666666667 0  0.1156521739130435 0.01666666666666667 0  0.1239130434782609 0.01666666666666667 0  0.1321739130434783 0.01666666666666667 0  0.1404347826086956 0.01666666666666667 0  0.148695652173913 0.01666666666666667 0  0.1569565217391304 0.01666666666666667 0  0.1652173913043478 0.01666666666666667 0  0.1734782608695652 0.01666666666666667 0  0.1817391304347826 0.01666666666666667 0  0.19 0.01666666666666667 0  0.1982608695652174 0.01666666666666667 0  0.2065217391304348 0.01666666666666667 0  0.2147826086956522 0.01666666666666667 0  0.2230434782608696 0.01666666666666667 0  0.2313043478260869 0.01666666666666667 0  0.2395652173913043 0.01666666666666667 0  0.2478260869565218 0.01666666666666667 0  0.2560869565217391 0.01666666666666667 0  0.2643478260869565 0.01666666666666667 0  0.2726086956521739 0.01666666666666667 0  0.2808695652173913 0.01666666666666667 0  0.2891304347826087 0.01666666666666667 0  0.2973913043478261 0.01666666666666667 0  0.3056521739130434 0.01666666666666667 0  0.3139130434782609 0.01666666666666667 0  0.3221739130434783 0.01666666666666667 0  0.3304347826086956 0.01666666666666667 0  0.338695652173913 0.01666666666666667 0  0.3469565217391304 0.01666666666666667 0  0.3552173913043478 0.01666666666666667 0  0.3634782608695652 0.01666666666666667 0  0.3717391304347826 0.01666666666666667 0  0.3799999999999999 0.01666666666666667 0  0.3882608695652174 0.01666666666666667 0  0.3965217391304348 0.01666666666666667 0  0.4047826086956521 0.01666666666666667 0  0.4130434782608696 0.01666666666666667 0  0.4213043478260869 0.01666666666666667 0  0.4295652173913043 0.01666666666666667 0  0.4378260869565217 0.01666666666666667 0  0.4460869565217391 0.01666666666666667 0  0.4543478260869565 0.01666666666666667 0  0.4626086956521739 0.01666666666666667 0  0.4708695652173913 0.01666666666666667 0  0.4791304347826086 0.01666666666666667 0  0.4873913043478261 0.01666666666666667 0  0.4956521739130435 0.01666666666666667 0  0.008260869565217391 0.025 0  0 0.025 0  0.01652173913043478 0.025 0  0.02478260869565217 0.025 0  0.03304347826086956 0.025 0  0.04130434782608695 0.025 0  0.04956521739130434 0.025 0  0.05782608695652174 0.025 0  0.06608695652173913 0.025 0  0.07434782608695652 0.025 0  0.08260869565217391 0.025 0  0.0908695652173913 0.025 0  0.09913043478260869 0.025 0  0.1073913043478261 0.025 0  0.1156521739130435 0.025 0  0.1239130434782609 0.025 0  0.1321739130434783 0.025 0  0.1404347826086956 0.025 0  0.148695652173913 0.025 0  0.1569565217391304 0.025 0  0.1652173913043478 0.025 0  0.1734782608695652 0.025 0  0.1817391304347826 0.025 0  0.19 0.025 0  0.1982608695652174 0.025 0  0.2065217391304348 0.025 0  0.2147826086956522 0.025 0  0.2230434782608696 0.025 0  0.2313043478260869 0.025 0  0.2395652173913043 0.025 0  0.2478260869565218 0.025 0  0.2560869565217391 0.025 0  0.2643478260869565 0.025 0  0.2726086956521739 0.025 0  0.2808695652173913 0.025 0  0.2891304347826087 0.025 0  0.2973913043478261 0.025 0  0.3056521739130434 0.025 0  0.3139130434782609 0.025 0  0.3221739130434783 0.025 0  0.3304347826086956 0.025 0  0.338695652173913 0.025 0  0.3469565217391304 0.025 0  0.3552173913043478 0.025 0  0.3634782608695652 0.025 0  0.3717391304347826 0.025 0  0.3799999999999999 0.025 0  0.3882608695652174 0.025 0  0.3965217391304348 0.025 0  0.4047826086956521 0.025 0  0.4130434782608696 0.025 0  0.4213043478260869 0.025 0  0.4295652173913043 0.025 0  0.4378260869565217 0.025 0  0.4460869565217391 0.025 0  0.4543478260869565 0.025 0  0.4626086956521739 0.025 0  0.4708695652173913 0.025 0  0.4791304347826086 0.025 0  0.4873913043478261 0.025 0  0.4956521739130435 0.025 0  0.5039130434782608 0.025 0  0.008260869565217391 0.03333333333333333 0  0 0.03333333333333333 0  0.01652173913043478 0.03333333333333333 0  0.02478260869565217 0.03333333333333333 0  0.03304347826086956 0.03333333333333333 0  0.04130434782608695 0.03333333333333333 0  0.04956521739130434 0.03333333333333333 0  0.05782608695652174 0.03333333333333333 0  0.06608695652173913 0.03333333333333333 0  0.07434782608695652 0.03333333333333333 0  0.08260869565217391 0.03333333333333333 0  0.0908695652173913 0.03333333333333333 0  0.09913043478260869 0.03333333333333333 0  0.1073913043478261 0.03333333333333333 0  0.1156521739130435 0.03333333333333333 0  0.1239130434782609 0.03333333333333333 0  0.1321739130434783 0.03333333333333333 0  0.1404347826086956 0.03333333333333333 0  0.148695652173913 0.03333333333333333 0  0.1569565217391304 0.03333333333333333 0  0.1652173913043478 0.03333333333333333 0  0.1734782608695652 0.03333333333333333 0  0.1817391304347826 0.03333333333333333 0  0.19 0.03333333333333333 0  0.1982608695652174 0.03333333333333333 0  0.2065217391304348 0.03333333333333333 0  0.2147826086956522 0.03333333333333333 0  0.2230434782608696 0.03333333333333333 0  0.2313043478260869 0.03333333333333333 0  0.2395652173913043 0.03333333333333333 0  0.2478260869565218 0.03333333333333333 0  0.2560869565217391 0.03333333333333333 0  0.2643478260869565 0.03333333333333333 0  0.2726086956521739 0.03333333333333333 0  0.2808695652173913 0.03333333333333333 0  0.2891304347826087 0.03333333333333333 0  0.2973913043478261 0.03333333333333333 0  0.3056521739
[...]
<CellData  Scalars="sigma_m"> 
<DataArray  type="Float64"  Name="sigma_m"  format="ascii">2.3047807045808751e+07   1.6180788082224563e+07   1.8877335491261512e+07   1.6445822386263609e+07   1.7224677561590925e+07   1.5425383073419346e+07   1.6063823710143007e+07   1.4474093467272144e+07   1.5062077310624925e+07   1.3634272907707127e+07   1.4145340154499244e+07   1.2877296275068808e+07   1.3292911784410791e+07   1.2183780338313758e+07   1.2492100497203220e+07   1.1536035958998259e+07   1.1746358855420267e+07   1.0931283851776201e+07   1.1063170334126882e+07   1.0373464104581254e+07   1.0438123163346194e+07   9.8583187393074762e+06   9.8604545368912779e+06   9.3772127429168280e+06   9.3255770791623984e+06   8.9271468433931433e+06   8.8341020708427951e+06   8.5094585280488078e+06   8.3827505681424541e+06   8.1221260607321709e+06   7.9645150732387304e+06   7.7601374287239052e+06   7.5737526185211921e+06   7.4197297401763359e+06   7.2080428159288066e+06   7.0994755686745895e+06   6.8666142720993217e+06   6.7988401563502355e+06   6.5494584602383487e+06   6.5176715810880139e+06   6.2574369757208070e+06   6.2564737772472147e+06   5.9930618039954184e+06   6.0171050912038274e+06   5.7597053771298686e+06   5.8021041111616343e+06   5.5596370190910064e+06   5.6130963674743120e+06   5.3935719963324321e+06   5.4505934376380285e+06   5.2616274722399954e+06   5.3148753881785562e+06   5.1635264460415766e+06   5.2061266853821818e+06   5.0979626958388053e+06   5.1240455674825776e+06   5.0615596792667313e+06   5.0672732704140730e+06   5.0474362705020010e+06   5.0324271174421413e+06   5.0441149485112773e+06   5.0131400842842842e+06   5.0358475245255018e+06   4.9997273652018616e+06   5.0052385466670357e+06   4.9801898443901353e+06   4.9383443630249202e+06   4.9432062269550841e+06   4.8311581758870389e+06   4.8829425707478467e+06   4.6955938906113924e+06   4.8045106104160929e+06   4.5649308030312201e+06   4.7304014491665410e+06   4.4709826439348422e+06   4.6815411231179722e+06   4.4264123531357851e+06   4.6642223181592487e+06   4.4268397821449926e+06   4.6739560223141443e+06   4.4603839599811798e+06   4.7029154368864307e+06   4.5147960054620896e+06   4.7439512906923639e+06   4.5805713601107905e+06   4.7917480956267612e+06   4.6515693218938773e+06   4.8428417365005277e+06   4.7246143788436307e+06   4.8953797561175376e+06   4.7991103033329630e+06   4.9491311680934597e+06   4.8758174983749064e+06   5.0046844369316716e+06   4.9547928747683326e+06   5.0619575900019519e+06   5.0344359708047640e+06   5.1197169546121042e+06   5.1124390098491805e+06   5.1764953904857151e+06   5.1867651840112954e+06   5.2311899358661380e+06   5.2558888980573788e+06   5.2830434829125870e+06   5.3186648549740668e+06   5.3314629298275961e+06   5.3736732477253657e+06   5.3755167066848073e+06   5.4193207982449224e+06   5.4142893663291959e+06   5.4551387071103277e+06   5.4481487244508034e+06   5.4803102627175292e+06   5.4770565952637885e+06   5.4922584744884809e+06   5.4989547413249956e+06   5.4882836423245082e+06   5.5108198396893041e+06   1.5322935383129058e+07   1.2115098430609649e+07   1.6246671623588333e+07   1.2992093219571123e+07   1.5233121259910652e+07   1.3016132388216786e+07   1.4298606095848195e+07   1.2545602114021121e+07   1.3473497260696035e+07   1.1990488663406642e+07   1.2736046593563659e+07   1.1449855721500723e+07   1.2062707509092985e+07   1.0951459456367435e+07   1.1431954361537352e+07   1.0474281078999965e+07   1.0844128344777025e+07   1.0015091082759835e+07   1.0303256086860891e+07   9.5912344355062358e+06   9.8023774126115832e+06   9.1997941144888233e+06   9.3320647095553484e+06   8.8249057080331203e+06   8.8911334400478080e+06   8.4638170200832505e+06   8.4822024470240287e+06   8.1253335733513096e+06   8.1024941162781781e+06   7.8107028671218548e+06   7.7466183128989767e+06   7.5129021447495418e+06   7.4111437271859804e+06   7.2276640217208890e+06   7.0950001343688359e+06   6.9551550251602894e+06   6.7975555660693673e+06   6.6958359995195651e+06   6.5184831755988477e+06   6.4491772806345308e+06   6.2581373178047221e+06   6.2149550504016317e+06   6.0186233842684869e+06   5.9951875996653279e+06   5.8028092500332166e+06   5.7935075559027456e+06   5.6124237520787343e+06   5.6118884259301862e+06   5.4481182128897794e+06   5.4503634425008940e+06   5.3105859478297587e+06   5.3094333114839755e+06   5.2005036554373577e+06   5.1906364310042802e+06   5.1180486897921748e+06   5.0959723567765029e+06   5.0622103844094258e+06   5.0275088084283667e+06   5.0295588003514390e+06   4.9861592278531343e+06   5.0131856768287765e+06   4.9699000455908030e+06   5.0025492662219740e+06   4.9721078139089374e+06   4.9848716041952446e+06   4.9807260777966958e+06   4.9484332181067448e+06   4.9798743903859882e+06   4.8872751609940855e+06   4.9554555304635400e+06   4.8067759511683332e+06   4.9052092100931499e+06   4.7332491968085049e+06   4.8586677682112129e+06   4.6871008506690590e+06   4.8434966179198278e+06   4.6730428259582808e+06   4.8593752851402918e+06   4.6856587950308109e+06   4.8929077099643881e+06   4.7166678101182263e+06   4.9327591956775114e+06   4.7587837332169907e+06   4.9729473997808509e+06   4.8067716550105475e+06   5.0111185708163306e+06   4.8573642394421063e+06   5.0466271366850073e+06   4.9089533123640614e+06   5.0796792080627866e+06   4.9617316328630634e+06   5.1120592999279480e+06   5.0166074469633596e+06   5.1462750712837903e+06   5.0733736748804338e+06   5.1829555813913960e+06   5.1304599616785804e+06   5.2204110053785983e+06   5.1863269639371941e+06   5.2570661578230225e+06   5.2399758078454453e+06   5.2925683603368951e+06   5.2907736027947580e+06   5.3273172267155861e+06   5.3382404221066991e+06   5.3617929619620908e+06   5.3813459469003780e+06   5.3951599123747163e+06   5.4191682258786187e+06   5.4262704797526831e+06   5.4526420141124530e+06   5.4575199140608422e+06   5.4816523211345254e+06   5.4910937298790310e+06   5.5033894863266656e+06   5.5239496516125761e+06   5.5140323137706639e+06   5.5481003845178112e+06   5.5565845017145462e+06   1.1490133998982914e+07   9.0533483838091306e+06   1.2575164574837293e+07   1.0195155362297114e+07   1.2670743136724008e+07   1.0566415638342591e+07   1.2244712546108922e+07   1.0520601322110992e+07   1.1725639625619659e+07   1.0286399808389908e+07   1.1229809610292794e+07   9.9766551874683462e+06   1.0771378645203628e+07   9.7003118447117303e+06   1.0321869847609319e+07   9.4098901603105981e+06   9.8916095801205095e+06   9.0907236740373671e+06   9.4980304772644900e+06   8.7985149623326212e+06   9.1300868558307085e+06   8.5367109242506512e+06   8.7706212207465786e+06   8.2699755205990802e+06   8.4228085465257615e+06   7.9932243271813644e+06   8.0983957923606168e+06   7.7310754325664919e+06   7.7954319515219107e+06   7.4907978000565432e+06   7.5059433235945860e+06   7.2585854456692012e+06   7.2268916163237030e+06   7.0278617735659322e+06   6.9594858595980117e+06   6.8016699758264050e+06   6.7038324310951093e+06   6.5821930035301698e+06   6.4590306564996243e+06   6.3677106817195993e+06   6.2245749788228925e+06   6.1564104861995103e+06   6.0032799428467816e+06   5.9508918768021381e+06   5.7994299442874640e+06   5.7576562511763703e+06   5.6148042221791483e+06   5.5796342034557778e+06   5.4494338121214677e+06   5.4155862887835437e+06   5.3045549202018809e+06   5.2658841207012860e+06   5.1825075066028088e+06   5.1336837298108870e+06   5.0861456329714237e+06   5.0237037469344009e+06   5.0183847848985177e+06   4.9423138679921553e+06   4.9804581861456353e+06   4.8959488363387492e+06   4.9697836233106591e+06   4.8881660264095059e+06   4.9780938148116963e+06   4.9161549172435105e+06   4.9907653746373029e+06   4.9668734006313793e+06   4.9893773712828178e+06   5.0152266373022664e+06   4.9588670636470588e+06   5.0301879643454971e+06   4.8995543668797528e+06   4.9956149933543401e+06   4.8538095286777643e+06   4.9641981397324260e+06   4.8446445587250711e+06   4.9823965706346575e+06   4.8659597641028659e+06   5.0368397118337732e+06   4.9028943026402444e+06   5.0991820337432362e+06   4.9444826342969462e+06   5.1534713141624574e+06   4.9853047186858524e+06   5.1954729246640336e+06   5.0233342086801054e+06   5.2262231586191552e+06   5.0580842527676336e+06   5.2477201979990937e+06   5.0899189830622785e+06   5.2616695363824796e+06   5.1213274457598412e+06   5.2724000662303157e+06   5.1553396905323500e+06   5.2856852421781635e+06   5.1921736717710150e+06   5.3031700410938254e+06   5.2294393027796475e+06   5.3217536671952298e+06   5.2655591603977205e+06   5.3391362120470703e+06   5.3004358665205147e+06   5.3556661443228330e+06   5.3346765802621311e+06   5.3734231150402259e+06   5.3688812810370354e+06   5.3949187259030156e+06   5.4017143520250069e+06   5.4186745272247205e+06   5.4318967847541254e+06   5.4411952062385846e+06   5.4634002487420533e+06   5.4678582328892369e+06   5.4982423201991720e+06   5.5057786530530294e+06   5.5315201819032114e+06   5.5526069002361316e+06   5.5531095181391481e+06   5.5925412732676091e+06   5.5555715457873745e+06   5.6050218549650405e+06   5.6018447110362854e+06   8.5102571352015678e+06   5.7568728471161211e+06   9.5840293521349728e+06   8.0926375893658167e+06   9.9445570972083006e+06   8.2069071415266367e+06   1.0001106676556963e+07   8.4555192714534923e+06   9.8390988384338319e+06   8.5922437575895209e+06   9.6149627048308048e+06   8.4252861216280423e+06   9.4110251270815302e+06   8.3988853915794156e+06   9.1636978146175649e+06   8.3495143789193202e+06   8.8939263575113583e+06   8.1591461225059237e+06   8.6545006026563495e+06   7.9865540248687714e+06   8.4298842665171437e+06   7.8683964387154812e+06   8.1837178940609293e+06   7.7174622629456958e+06   7.9261417940116106e+06   7.5159568748517334e+06   7.6873386109277532e+06   7.3242777213180931e+06   7.4651879143690420e+06   7.1621999173518931e+06   7.2443522541446593e+06   6.9975784809358465e+06   7.0218429869773546e+06   6.8195977903548479e+06   6.8032208634465877e+06   6.6385869646945596e+06   6.5895784185125101e+06   6.4603069653374040e+06   6.3784531879516607e+06   6.2794387388657937e+06   6.1673461463642390e+06   6.0901475711515080e+06   5.9607647766243229e+06   5.8955922809156515e+06   5.7662645642684763e+06   5.7082790802455209e+06   5.5856254732115464e+06   5.5326361235861294e+06   5.4171082026380291e+06   5.3639165981649067e+06   5.2622232623510053e+06   5.2014536201871252e+06   5.1250606695175320e+06   5.0500301962141497e+06   5.0114422450430961e+06   4.9166337310487563e+06   4.9292397396361632e+06   4.8122074938764675e+06   4.8859713860167945e+06   4.7499964678804642e+06   4.8853472801724551e+06   4.7416818546902221e+06   4.9228258593314765e+06   4.7926027741850605e+06   4.9807762328356924e+06   4.8938219314508270e+06   5.0275673047974957e+06   5.0130983549388852e+06   5.0286908514322210e+06   5.0912807840623753e+06   4.9749195115511529e+06   5.0760850300119976e+06   4.9504457105905507e+06   5.0658477729675239e+06   4.9827341055398630e+06   5.1361672701430954e+06   5.0460125691822423e+06   5.2394104954011943e+06   5.1117432273010658e+06   5.3285544420127990e+06   5.1664347140242308e+06   5.3898077922022678e+06   5.2076525757405842e+06   5.4262562663881993e+06   5.2371593995374832e+06   5.4448822053578738e+06   5.2569898686034605e+06   5.4502795458466718e+06   5.2687478537469488e+06   5.4434549939439818e+06   5.2780535442975415e+06   5.4307448207666911e+06   5.2915770207367959e+06   5.4225901385127278e+06   5.3098930026995391e+06   5.4215564450066639e+06   5.3284825069733886e+06   5.4213897626192840e+06   5.3452864289044114e+06   5.4186809066032870e+06   5.3612109687478971e+06   5.4144541179160839e+06   5.3788501462568566e+06   5.4125809455399141e+06   5.4010327028727718e+06   5.4203694006357957e+06   5.4246787401622478e+06   5.4362002433566479e+06   5.4455698065455519e+06   5.4494104418323962e+06   5.4730121910793334e+06   5.4678197302199565e+06   5.5142832491108906e+06   5.5052592225649217e+06   5.5637567024632422e+06   5.5670268875858104e+06   5.6003900088774227e+06   5.6345005875116503e+06   5.6014001813289812e+06   5.6598742815502090e+06   5.5932368303722953e+06   5.6542909082667194e+06   5.6779405813227613e+06   4.9281551130421609e+06   1.5521687354260832e+06   6.7436904885640536e+06   3.7023777603209177e+06   7.2409129350113776e+06   5.9318595029173428e+06   7.5952729694286743e+06   5.6065604802887039e+06   7.9583883180264682e+06   7.4809044112334661e+06   7.8932896310976921e+06   6.7358399726400562e+06   7.9646227008048696e+06   6.8759851571057150e+06   7.9793537476320984e+06   7.3282271329618860e+06   7.8767323975435421e+06   7.2955865445026504e+06   7.7842148451203601e+06   7.1405319870479982e+06   7.7151843499781350e+06   7.1819383133806186e+06   7.5855568517985586e+06   7.1834751826501386e+06   7.4096022970778318e+06   7.0416346462469492e+06   7.2554088520439677e+06   6.9033404781543007e+06   7.1191034094269639e+06   6.8276435589794265e+06   6.9677336776734386e+06   6.7342178929906236e+06   6.7994593382469211e+06   6.6038356876805704e+06   6.6297193081182046e+06   6.4652055694477782e+06   6.4609918599290522e+06   6.3329525154190809e+06   6.2865856524326950e+06   6.1925557148886314e+06   6.0987494369868878e+06   6.0280726510765469e+06   5.9049940691379923e+06   5.8418216984059550e+06   5.7194608394760350e+06   5.6593281092700269e+06   5.5432471878216555e+06   5.4876327350277882e+06   5.3702972490334287e+06   5.3136992875360167e+06   5.2020067214871543e+06   5.1346008286450794e+06   5.0438974368975051e+06   4.9570893918645773e+06   4.9040046519604065e+06   4.7886071968267001e+06   4.7954698884728877e+06   4.6437890144768963e+06   4.7336273461935157e+06   4.5430205751603777e+06   4.7320976560142888e+06   4.5079753740542401e+06   4.7963724665625487e+06   4.5583205653119609e+06   4.9121535847578691e+06   4.7009849635701021e+06   5.0339614269491546e+06   4.9104663247461189e+06   5.0880258329547998e+06   5.1067760375010641e+06   5.0345525040213112e+06   5.1514221504971106e+06   5.0476668807174256e+06   5.2086868940031873e+06   5.1430168030242361e+06   5.3734756134451898e+06   5.2560231802745815e+06   5.5258257509454936e+06   5.3461922212444441e+06   5.6192773775175866e+06   5.4052651429465488e+06   5.6628414044685783e+06   5.4390661207951400e+06   5.6746918366174763e+06   5.4554035414474243e+06   5.6697480163344573e+06   5.4583437005316326e+06   5.6551609471534463e+06   5.4478688977285195e+06   5.6266307652670434e+06   5.4328559224862568e+06   5.5892524083236326e+06   5.4255298952136440e+06   5.5588720372898811e+06   5.4261385312149152e+06   5.5387959965866050e+06   5.4257758451524246e+06   5.5176253900686093e+06   5.4219621222946886e+06   5.4922668305141926e+06   5.4165204058605367e+06   5.4646618171695182e+06   5.4142574599632304e+06   5.4379928710518824e+06   5.4242941548271393e+06   5.4252074190393398e+06   5.4411149177374123e+06   5.4338816081022285e+06   5.4507832406348698e+06   5.4430030491240695e+06   5.4698375663926844e+06   5.4546757213631617e+06   5.5125415638457714e+06   5.4816739926363230e+06   5.5821087382392092e+06   5.5362758506807666e+06   5.6494068656887887e+06   5.6371681586692920e+06   5.6543605344385216e+06   5.7136945042686006e+06   5.6414354030937022e+06   5.7411899999060659e+06   5.6788444931423534e+06   5.7970237042956213e+06   5.8548696150944410e+06   0.0000000000000000e+00   0.0000000000000000e+00   0.0000000000000000e+00   0.0000000000000000e+00   1.2675738039163607e-05   0.0000000000000000e+00   3.1958488193800701e+06   0.0000000000000000e+00   5.9117586530135302e+06   2.6804661521996348e+06   6.1106199532177700e+06   5.3250019444722077e+06   6.2306348377848407e+06   4.3627960468096891e+06   6.7739533536444074e+06   5.9759979698492065e+06   7.0194229627298797e+06   7.3147161915609026e+06   6.9079665365970740e+06   6.1878731788566923e+06   6.9750087873137500e+06   6.3067391377965575e+06   6.9940407271028990e+06   6.6954008760089064e+06   6.8942258410613649e+06   6.6399479352332428e+06   6.8129298980707740e+06   6.4651442476873165e+06   6.7677977074875133e+06   6.4857614032479245e+06   6.6848556612142837e+06   6.4770461708588675e+06   6.5636213174824174e+06   6.3837268436063780e+06   6.4411851360421432e+06   6.2772664600839177e+06   6.3233898210806958e+06   6.1986565018093353e+06   6.1942669250854123e+06   6.1151386290594684e+06   6.0325527005453538e+06   5.9860782775016427e+06   5.8502921289131558e+06   5.8042919225617805e+06   5.6752746927055204e+06   5.6253153946387460e+06   5.5065942541161552e+06   5.4623705844721105e+06   5.3290444311192036e+06   5.2844339551114412e+06   5.1442362252008999e+06   5.0857228101516441e+06   4.9587826238132287e+06   4.8771810970398085e+06   4.7805427355765216e+06   4.6623307088394230e+06   4.6268188404314714e+06   4.4567818267074237e+06   4.5205476739543127e+06   4.2863141644500531e+06   4.4876950481656278e+06   4.1802415276364218e+06   4.5532544764360106e+06   4.1747930168041866e+06   4.7239230521765407e+06   4.3071172706052503e+06   4.9552233202801906e+06   4.5870834023635965e+06   5.1265863413031138e+06   4.9413729853988066e+06   5.0893366040111324e+06   5.2132596782148248e+06   5.2026643210198609e+06   5.5587892746892199e+06   5.3969990393761322e+06   5.8571142664373359e+06   5.5521764243908646e+06   5.9808742187712686e+06   5.6414315023067454e+06   6.0019601639369931e+06   5.6797572597893123e+06   5.9783427570829522e+06   5.6872742697797483e+06   5.9373952858477216e+06   5.6797257395965224e+06   5.8921211119441139e+06   5.6631159611832341e+06   5.8524750857921913e+06   5.6294445819148803e+06   5.8079869744878076e+06   5.5884894991558837e+06   5.7547155873442227e+06   5.5597933942990275e+06   5.7045790819976302e+06   5.5422734929707879e+06   5.6598337439219104e+06   5.5199173170869742e+06   5.6079444731702982e+06   5.4926385568799358e+06   5.5535808137864377e+06   5.4627395288438620e+06   5.5026740642896770e+06   5.4339669283687193e+06   5.4495227275750656e+06   5.4238272620617300e+06   5.4052367215044098e+06   5.4378461464079842e+06   5.3734510167037873e+06   5.4415665748420563e+06   5.4017464338151300e+06   5.4528262580647953e+06   5.4485388145192480e+06   5.4836156628408516e+06   5.4604151143763261e+06   5.5463233278009295e+06   5.4528216557534374e+06   5.6657847221238976e+06   5.4617892602035627e+06   5.7162772803242346e+06   5.6684886997819794e+06   5.7295079361128388e+06   5.9504594997150721e+06   5.8071805338758044e+06   6.1075490115800826e+06   5.8684204973708093e+06   6.1059777077927534e+06   5.8881717640730049e+06   6.0456361219557589e+06   5.9677894424970960e+06   0.0000000000000000e+00   0.0000000000000000e+00   0.0000000000000000e+00   0.0000000000000000e+00   0.0000000000000000e+00   0.0000000000000000e+00   0.0000000000000000e+00   0.0000000000000000e+00   0.0000000000000000e+00   0.0000000000000000e+00   0.0000000000000000e+00   0.0000000000000000e+00   2.8935544971269999e+04   0.0000000000000000e+00   4.7284147873169547e+06   1.7113088680765348e-03   6.3577715896220803e+06   4.3470001710496275e+06   6.0235037702613100e+06   5.8059460881625917e+06   5.9602127175704055e+06   4.3613015516428649e+06   6.3766646352847619e+06   5.8727758388175005e+06   6.5258934423853587e+06   7.0819461980766542e+06   6.3788479661983363e+06   5.9130894155572532e+06   6.4114592732382184e+06   6.0609158884809725e+06   6.4030262702208050e+06   6.2297647323912969e+06   6.3199050128298430e+06   6.1866102342005661e+06   6.2360655256313067e+06   6.0645832075288799e+06   6.1762671271103928e+06   6.0436654940144839e+06   6.1103467062609885e+06   6.0429193563091354e+06   5.9851945736314300e+06   5.9897607391825346e+06   5.8134097500738418e+06   5.8071039733219109e+06   5.6515535009028427e+06   5.6229654062956888e+06   5.4962974081474263e+06   5.4759027944355197e+06   5.3145813160594814e+06   5.2957548881118530e+06   5.1115103277250323e+06   5.0751969330526842e+06   4.8954503253605021e+06   4.8374281930051381e+06   4.6689149609742528e+06   4.5719515501843011e+06   4.4502764248349648e+06   4.2905121937627345e+06   4.2663886395525858e+06   4.0211535363436476e+06   4.1515143483594265e+06   3.79044283