<?xml version="1.0"?>
<VTKFile type="UnstructuredGrid"  version="0.1"  >
<UnstructuredGrid>
<Piece  NumberOfPoints="4670" NumberOfCells="9067">
<Points>
<DataArray  type="Float64"  NumberOfComponents="3"  format="ascii">0 0 0  0.008260869565217391 0 0  0.008260869565217391 0.008333333333333333 0  0 0.008333333333333333 0  0.01652173913043478 0 0  0.01652173913043478 0.008333333333333333 0  0.02478260869565217 0 0  0.02478260869565217 0.008333333333333333 0  0.03304347826086956 0 0  0.03304347826086956 0.008333333333333333 0  0.04130434782608695 0 0  0.04130434782608695 0.008333333333333333 0  0.04956521739130434 0 0  0.04956521739130434 0.008333333333333333 0  0.05782608695652174 0 0  0.05782608695652174 0.008333333333333333 0  0.06608695652173913 0 0  0.06608695652173913 0.008333333333333333 0  0.07434782608695652 0 0  0.07434782608695652 0.008333333333333333 0  0.08260869565217391 0 0  0.08260869565217391 0.008333333333333333 0  0.0908695652173913 0 0  0.0908695652173913 0.008333333333333333 0  0.09913043478260869 0 0  0.09913043478260869 0.008333333333333333 0  0.1073913043478261 0 0  0.1073913043478261 0.008333333333333333 0  0.1156521739130435 0 0  0.1156521739130435 0.008333333333333333 0  0.1239130434782609 0 0  0.1239130434782609 0.008333333333333333 0  0.1321739130434783 0 0  0.1321739130434783 0.008333333333333333 0  0.1404347826086956 0 0  0.1404347826086956 0.008333333333333333 0  0.148695652173913 0 0  0.148695652173913 0.008333333333333333 0  0.1569565217391304 0 0  0.1569565217391304 0.008333333333333333 0  0.1652173913043478 0 0  0.1652173913043478 0.008333333333333333 0  0.1734782608695652 0 0  0.1734782608695652 0.008333333333333333 0  0.1817391304347826 0 0  0.1817391304347826 0.008333333333333333 0  0.19 0 0  0.19 0.008333333333333333 0  0.1982608695652174 0 0  0.1982608695652174 0.008333333333333333 0  0.2065217391304348 0 0  0.2065217391304348 0.008333333333333333 0  0.2147826086956522 0 0  0.2147826086956522 0.008333333333333333 0  0.2230434782608696 0 0  0.2230434782608696 0.008333333333333333 0  0.2313043478260869 0 0  0.2313043478260869 0.008333333333333333 0  0.2395652173913043 0 0  0.2395652173913043 0.008333333333333333 0  0.2478260869565218 0 0  0.2478260869565218 0.008333333333333333 0  0.2560869565217391 0 0  0.2560869565217391 0.008333333333333333 0  0.2643478260869565 0 0  0.2643478260869565 0.008333333333333333 0  0.2726086956521739 0 0  0.2726086956521739 0.008333333333333333 0  0.2808695652173913 0 0  0.2808695652173913 0.008333333333333333 0  0.2891304347826087 0 0  0.2891304347826087 0.008333333333333333 0  0.2973913043478261 0 0  0.2973913043478261 0.008333333333333333 0  0.3056521739130434 0 0  0.3056521739130434 0.008333333333333333 0  0.3139130434782609 0 0  0.3139130434782609 0.008333333333333333 0  0.3221739130434783 0 0  0.3221739130434783 0.008333333333333333 0  0.3304347826086956 0 0  0.3304347826086956 0.008333333333333333 0  0.338695652173913 0 0  0.338695652173913 0.008333333333333333 0  0.3469565217391304 0 0  0.3469565217391304 0.008333333333333333 0  0.3552173913043478 0 0  0.3552173913043478 0.008333333333333333 0  0.3634782608695652 0 0  0.3634782608695652 0.008333333333333333 0  0.3717391304347826 0 0  0.3717391304347826 0.008333333333333333 0  0.3799999999999999 0 0  0.3799999999999999 0.008333333333333333 0  0.3882608695652174 0 0  0.3882608695652174 0.008333333333333333 0  0.3965217391304348 0 0  0.3965217391304348 0.008333333333333333 0  0.4047826086956521 0 0  0.4047826086956521 0.008333333333333333 0  0.4130434782608696 0 0  0.4130434782608696 0.008333333333333333 0  0.4213043478260869 0 0  0.4213043478260869 0.008333333333333333 0  0.4295652173913043 0 0  0.4295652173913043 0.008333333333333333 0  0.4378260869565217 0 0  0.4378260869565217 0.008333333333333333 0  0.4460869565217391 0 0  0.4460869565217391 0.008333333333333333 0  0.4543478260869565 0 0  0.4543478260869565 0.008333333333333333 0  0.4626086956521739 0 0  0.4626086956521739 0.008333333333333333 0  0.4708695652173913 0 0  0.4708695652173913 0.008333333333333333 0  0.4791304347826086 0 0  0.4791304347826086 0.008333333333333333 0  0.4873913043478261 0 0  0.4873913043478261 0.008333333333333333 0  0.008260869565217391 0.01666666666666667 0  0 0.01666666666666667 0  0.01652173913043478 0.01666666666666667 0  0.02478260869565217 0.01666666666666667 0  0.03304347826086956 0.01666666666666667 0  0.04130434782608695 0.01666666666666667 0  0.04956521739130434 0.01666666666666667 0  0.05782608695652174 0.01666666666666667 0  0.06608695652173913 0.01666666666666667 0  0.07434782608695652 0.01666666666666667 0  0.08260869565217391 0.01666666666666667 0  0.0908695652173913 0.01666666666666667 0  0.09913043478260869 0.01666666666666667 0  0.1073913043478261 0.01666666666666667 0  0.1156521739130435 0.01666666666666667 0  0.1239130434782609 0.01666666666666667 0  0.1321739130434783 0.01666666666666667 0  0.1404347826086956 0.01666666666666667 0  0.148695652173913 0.01666666666666667 0  0.1569565217391304 0.01666666666666667 0  0.1652173913043478 0.01666666666666667 0  0.1734782608695652 0.01666666666666667 0  0.1817391304347826 0.01666666666666667 0  0.19 0.01666666666666667 0  0.1982608695652174 0.01666666666666667 0  0.2065217391304348 0.01666666666666667 0  0.2147826086956522 0.01666666666666667 0  0.2230434782608696 0.01666666666666667 0  0.2313043478260869 0.01666666666666667 0  0.2395652173913043 0.01666666666666667 0  0.2478260869565218 0.01666666666666667 0  0.2560869565217391 0.01666666666666667 0  0.2643478260869565 0.01666666666666667 0  0.2726086956521739 0.01666666666666667 0  0.2808695652173913 0.01666666666666667 0  0.2891304347826087 0.01666666666666667 0  0.2973913043478261 0.01666666666666667 0  0.3056521739130434 0.01666666666666667 0  0.3139130434782609 0.01666666666666667 0  0.3221739130434783 0.01666666666666667 0  0.3304347826086956 0.01666666666666667 0  0.338695652173913 0.01666666666666667 0  0.3469565217391304 0.01666666666666667 0  0.3552173913043478 0.01666666666666667 0  0.3634782608695652 0.01666666666666667 0  0.3717391304347826 0.01666666666666667 0  0.3799999999999999 0.01666666666666667 0  0.3882608695652174 0.01666666666666667 0  0.3965217391304348 0.01666666666666667 0  0.4047826086956521 0.01666666666666667 0  0.4130434782608696 0.01666666666666667 0  0.4213043478260869 0.01666666666666667 0  0.4295652173913043 0.01666666666666667 0  0.4378260869565217 0.01666666666666667 0  0.4460869565217391 0.01666666666666667 0  0.4543478260869565 0.01666666666666667 0  0.4626086956521739 0.01666666666666667 0  0.4708695652173913 0.01666666666666667 0  0.4791304347826086 0.01666666666666667 0  0.4873913043478261 0.01666666666666667 0  0.4956521739130435 0.01666666666666667 0  0.008260869565217391 0.025 0  0 0.025 0  0.01652173913043478 0.025 0  0.02478260869565217 0.025 0  0.03304347826086956 0.025 0  0.04130434782608695 0.025 0  0.04956521739130434 0.025 0  0.05782608695652174 0.025 0  0.06608695652173913 0.025 0  0.07434782608695652 0.025 0  0.08260869565217391 0.025 0  0.0908695652173913 0.025 0  0.09913043478260869 0.025 0  0.1073913043478261 0.025 0  0.1156521739130435 0.025 0  0.1239130434782609 0.025 0  0.1321739130434783 0.025 0  0.1404347826086956 0.025 0  0.148695652173913 0.025 0  0.1569565217391304 0.025 0  0.1652173913043478 0.025 0  0.1734782608695652 0.025 0  0.1817391304347826 0.025 0  0.19 0.025 0  0.1982608695652174 0.025 0  0.2065217391304348 0.025 0  0.2147826086956522 0.025 0  0.2230434782608696 0.025 0  0.2313043478260869 0.025 0  0.2395652173913043 0.025 0  0.2478260869565218 0.025 0  0.2560869565217391 0.025 0  0.2643478260869565 0.025 0  0.2726086956521739 0.025 0  0.2808695652173913 0.025 0  0.2891304347826087 0.025 0  0.2973913043478261 0.025 0  0.3056521739130434 0.025 0  0.3139130434782609 0.025 0  0.3221739130434783 0.025 0  0.3304347826086956 0.025 0  0.338695652173913 0.025 0  0.3469565217391304 0.025 0  0.3552173913043478 0.025 0  0.3634782608695652 0.025 0  0.3717391304347826 0.025 0  0.3799999999999999 0.025 0  0.3882608695652174 0.025 0  0.3965217391304348 0.025 0  0.4047826086956521 0.025 0  0.4130434782608696 0.025 0  0.4213043478260869 0.025 0  0.4295652173913043 0.025 0  0.4378260869565217 0.025 0  0.4460869565217391 0.025 0  0.4543478260869565 0.025 0  0.4626086956521739 0.025 0  0.4708695652173913 0.025 0  0.4791304347826086 0.025 0  0.4873913043478261 0.025 0  0.4956521739130435 0.025 0  0.5039130434782608 0.025 0  0.008260869565217391 0.03333333333333333 0  0 0.03333333333333333 0  0.01652173913043478 0.03333333333333333 0  0.02478260869565217 0.03333333333333333 0  0.03304347826086956 0.03333333333333333 0  0.04130434782608695 0.03333333333333333 0  0.04956521739130434 0.03333333333333333 0  0.05782608695652174 0.03333333333333333 0  0.06608695652173913 0.03333333333333333 0  0.07434782608695652 0.03333333333333333 0  0.08260869565217391 0.03333333333333333 0  0.0908695652173913 0.03333333333333333 0  0.09913043478260869 0.03333333333333333 0  0.1073913043478261 0.03333333333333333 0  0.1156521739130435 0.03333333333333333 0  0.1239130434782609 0.03333333333333333 0  0.1321739130434783 0.03333333333333333 0  0.1404347826086956 0.03333333333333333 0  0.148695652173913 0.03333333333333333 0  0.1569565217391304 0.03333333333333333 0  0.1652173913043478 0.03333333333333333 0  0.1734782608695652 0.03333333333333333 0  0.1817391304347826 0.03333333333333333 0  0.19 0.03333333333333333 0  0.1982608695652174 0.03333333333333333 0  0.2065217391304348 0.03333333333333333 0  0.2147826086956522 0.03333333333333333 0  0.2230434782608696 0.03333333333333333 0  0.2313043478260869 0.03333333333333333 0  0.2395652173913043 0.03333333333333333 0  0.2478260869565218 0.03333333333333333 0  0.2560869565217391 0.03333333333333333 0  0.2643478260869565 0.03333333333333333 0  0.2726086956521739 0.03333333333333333 0  0.2808695652173913 0.03333333333333333 0  0.2891304347826087 0.03333333333333333 0  0.2973913043478261 0.03333333333333333 0  0.3056521739
[...]
<CellData  Scalars="sigma_m"> 
<DataArray  type="Float64"  Name="sigma_m"  format="ascii">2.4549391845820908e+07   1.7025848733312104e+07   2.0168252148019675e+07   1.7349285940999076e+07   1.8321544341544051e+07   1.6226089631327607e+07   1.6979372809797704e+07   1.5165767304524988e+07   1.5835902205609592e+07   1.4239559277139015e+07   1.4802923101190627e+07   1.3408091885653531e+07   1.3859722875875218e+07   1.2652713353090636e+07   1.2993178076277791e+07   1.1960070409504713e+07   1.2187903443903565e+07   1.1313904773707626e+07   1.1441933385538587e+07   1.0710152656196378e+07   1.0762051894810421e+07   1.0153769360637227e+07   1.0145054595818575e+07   9.6426639443792440e+06   9.5800932184979953e+06   9.1690046442586686e+06   9.0585698461347502e+06   8.7274132540035360e+06   8.5759292367982026e+06   8.3155701937694382e+06   8.1264300506093865e+06   7.9295453148206435e+06   7.7044341278336085e+06   7.5650647225116771e+06   7.3080174496602248e+06   7.2207163175771115e+06   6.9399306585782804e+06   6.8986439556933269e+06   6.6041495718895216e+06   6.6018001466992926e+06   6.3017510763769196e+06   6.3307711964456234e+06   6.0316533923514672e+06   6.0846464194742544e+06   5.7941502776281219e+06   5.8638667116411645e+06   5.5916955483678943e+06   5.6705085154413404e+06   5.4269329400240276e+06   5.5065739964968516e+06   5.3014844442444220e+06   5.3733231689348221e+06   5.2157943479221985e+06   5.2714771942680450e+06   5.1682927885653377e+06   5.2007372945097042e+06   5.1539414977391521e+06   5.1588664122873507e+06   5.1629045894338479e+06   5.1407597729578670e+06   5.1801404423491349e+06   5.1377666556788562e+06   5.1868389328193283e+06   5.1378372866487810e+06   5.1644321541298311e+06   5.1274302773649413e+06   5.1008843952362603e+06   5.0956661974844197e+06   4.9976155915271891e+06   5.0399162162546776e+06   4.8783626080290806e+06   4.9745662971955696e+06   4.7766057296744352e+06   4.9215037422495047e+06   4.7155818176691523e+06   4.8949290471885325e+06   4.7001959103266224e+06   4.8962916409357730e+06   4.7226208980008662e+06   4.9196780616661618e+06   4.7709489700172869e+06   4.9577865005456200e+06   4.8345910542280553e+06   5.0046575166717982e+06   4.9061925082499571e+06   5.0562721517316811e+06   4.9817378309504669e+06   5.1104654815981211e+06   5.0596078785641016e+06   5.1663215078118052e+06   5.1392774159251349e+06   5.2233987068898128e+06   5.2204634328693068e+06   5.2813386883442169e+06   5.3027367938783709e+06   5.3397582421212494e+06   5.3852002148592127e+06   5.3981555115032271e+06   5.4659569552097181e+06   5.4557027326597488e+06   5.5413131624316648e+06   5.5108519612253159e+06   5.6049670199999148e+06   5.5607244531097505e+06   5.6478626129383286e+06   5.6005617180346791e+06   5.6595496492923507e+06   5.6240460893652951e+06   5.6313963595641479e+06   5.6252606514483839e+06   5.5613666663714955e+06   5.6020394909423720e+06   5.4628370036241822e+06   5.5630037082038354e+06   5.3564415142910434e+06   5.5199190254767369e+06   5.2632564223678550e+06   5.4840431113680070e+06   1.6073427023256177e+07   1.2419210806977522e+07   1.7091787500688281e+07   1.3504385610623015e+07   1.5984971000159869e+07   1.3533689648051687e+07   1.4953194558266846e+07   1.2999715638432890e+07   1.4054680646001216e+07   1.2409547055687243e+07   1.3247112891880101e+07   1.1837998390206499e+07   1.2518042015107896e+07   1.1302014094797630e+07   1.1849142211682944e+07   1.0811789812674914e+07   1.1221723013245223e+07   1.0340737444663882e+07   1.0634541694952276e+07   9.8826915451935083e+06   1.0094440844692795e+07   9.4556072178651579e+06   9.5971146276297439e+06   9.0630825856768228e+06   9.1343390707223043e+06   8.6927482142575905e+06   8.7019066753928903e+06   8.3398691695357757e+06   8.2985445682420339e+06   8.0072929609122360e+06   7.9196445925698327e+06   7.6928641821778724e+06   7.5606159116810123e+06   7.3899767738639638e+06   7.2201754307932379e+06   7.0965175535889519e+06   6.9010201345151030e+06   6.8166690940275397e+06   6.6063384282517247e+06   6.5559994554545339e+06   6.3362639230968738e+06   6.3147429978276510e+06   6.0895627688591741e+06   6.0895332923568785e+06   5.8670093490651669e+06   5.8800677628188524e+06   5.6712339603676191e+06   5.6897791335476693e+06   5.5046309699033480e+06   5.5218147852522312e+06   5.3689384080174742e+06   5.3780637556661591e+06   5.2655605263810158e+06   5.2608184772690078e+06   5.1947629092433732e+06   5.1726901852521719e+06   5.1544750054121893e+06   5.1153930646347925e+06   5.1391716717410190e+06   5.0884806146940468e+06   5.1392321382587152e+06   5.0877339853372984e+06   5.1414554049007567e+06   5.1033975682102591e+06   5.1315279339627372e+06   5.1199499262377741e+06   5.0984281279755058e+06   5.1197512179179601e+06   5.0398018024438191e+06   5.0911744229410011e+06   4.9734060248674387e+06   5.0498531294754557e+06   4.9220952883851258e+06   5.0245301167295491e+06   4.8989403858312266e+06   5.0289720570775270e+06   4.9038470845558951e+06   5.0568464556625504e+06   4.9300069720530594e+06   5.0957396540343873e+06   4.9697785437463196e+06   5.1370099673684835e+06   5.0172420104874549e+06   5.1767459443534240e+06   5.0686195476796282e+06   5.2139187564129867e+06   5.1221141985316109e+06   5.2491993794069504e+06   5.1771099880010290e+06   5.2838243012173250e+06   5.2332890523426738e+06   5.3185405146256667e+06   5.2903406042502122e+06   5.3535616605603052e+06   5.3479395552912103e+06   5.3890276380201690e+06   5.4056707647662321e+06   5.4253262484335573e+06   5.4627999310790654e+06   5.4632016280454146e+06   5.5178208479844490e+06   5.5036114623693256e+06   5.5677556416236619e+06   5.5470383295290312e+06   5.6075795679742899e+06   5.5918282053647041e+06   5.6306870978234624e+06   5.6324205339389872e+06   5.6310210052440707e+06   5.6602071917006010e+06   5.6063823796273656e+06   5.6686318847993659e+06   5.5677836616383186e+06   5.6687637733028643e+06   5.5260078264996493e+06   5.6706849017677689e+06   5.4913519314521980e+06   5.6772183180245552e+06   5.6978198545899792e+06   1.1687887829722574e+07   8.6591074058181494e+06   1.2944056258747350e+07   1.0328860600069351e+07   1.3069833591390448e+07   1.0893075712370697e+07   1.2616705367239878e+07   1.0750618629228409e+07   1.2098470866570203e+07   1.0528468481068321e+07   1.1576890082877204e+07   1.0241187287369955e+07   1.1094797495010953e+07   9.9225470273333900e+06   1.0648269828946216e+07   9.6526919706979487e+06   1.0207065621289384e+07   9.3686787547439616e+06   9.7759668780050967e+06   9.0502884195975978e+06   9.3779137049984038e+06   8.7468341851900499e+06   9.0083684917984959e+06   8.4759418895359281e+06   8.6543443426147327e+06   8.2101868159795608e+06   8.3147909410627438e+06   7.9438291382352104e+06   7.9952409978142027e+06   7.6901883338549249e+06   7.6909386934691221e+06   7.4500117558282781e+06   7.3947237375113415e+06   7.2092492159925951e+06   7.1052713467999548e+06   6.9630909116412997e+06   6.8285934977616724e+06   6.7199641162892813e+06   6.5706725861045448e+06   6.4917737810280016e+06   6.3300931677695140e+06   6.2783222376800543e+06   6.1026599660263173e+06   6.0707973039283650e+06   5.8891259339621421e+06   5.8673683721253788e+06   5.6940476973183742e+06   5.6744890371601647e+06   5.5208769482078627e+06   5.4973621165491836e+06   5.3720684032794740e+06   5.3382678839045381e+06   5.2510945616717190e+06   5.2013524441028852e+06   5.1616363219914837e+06   5.0929630120385541e+06   5.1060737953668702e+06   5.0197125524430899e+06   5.0838887396411514e+06   4.9870414022707166e+06   5.0896648138505686e+06   4.9966449104357325e+06   5.1111237202705750e+06   5.0418323306049444e+06   5.1295456061051497e+06   5.1024451085749390e+06   5.1250879588215463e+06   5.1459038010213207e+06   5.0866712363701975e+06   5.1411857731666965e+06   5.0413212894111993e+06   5.1121660711372700e+06   5.0194738859137585e+06   5.1083746539486954e+06   5.0301261953192148e+06   5.1458676281859707e+06   5.0628983074428327e+06   5.2047951780292699e+06   5.1046238622735897e+06   5.2628106169164712e+06   5.1471092330899779e+06   5.3097723017262034e+06   5.1869739876330737e+06   5.3442607482302822e+06   5.2235714195710141e+06   5.3682879671846246e+06   5.2580438442726033e+06   5.3855517876165584e+06   5.2919342201139797e+06   5.3998007159981094e+06   5.3260050201113624e+06   5.4130939345300598e+06   5.3604655360547164e+06   5.4261897249492919e+06   5.3955483981427010e+06   5.4397129190144744e+06   5.4318196272445414e+06   5.4548471854218915e+06   5.4702557109365957e+06   5.4737047205560375e+06   5.5120214080597917e+06   5.4995370784462634e+06   5.5575584278897010e+06   5.5364362434370816e+06   5.6044663985056728e+06   5.5873378228918808e+06   5.6455729773592008e+06   5.6480108451019619e+06   5.6706016358382134e+06   5.7025923147850884e+06   5.6727053885382293e+06   5.7323949286152162e+06   5.6711372693366110e+06   5.7625234685681835e+06   5.6733254569769446e+06   5.8104575288665071e+06   5.6802166011847006e+06   5.8632880505945077e+06   5.7043310700996220e+06   5.9246321802525064e+06   5.9967193471886693e+06   8.0192976693811445e+06   4.4790607466171160e+06   9.3791195008953754e+06   6.8222455168842077e+06   1.0120962144506019e+07   9.1963004567735065e+06   1.0099716653658811e+07   8.4099159836062416e+06   1.0013715422044121e+07   8.5920809070297088e+06   9.8116799173323438e+06   8.6671282899424508e+06   9.5882042026626393e+06   8.4775733047957756e+06   9.3912605368619729e+06   8.4536804497180264e+06   9.1518256086782254e+06   8.4025763168326300e+06   8.8763695393768065e+06   8.2171354936616104e+06   8.6237356297502816e+06   8.0233730854070587e+06   8.3893943938085716e+06   7.8834266988629876e+06   8.1464499243118363e+06   7.7245355307005374e+06   7.8985756490186928e+06   7.5361150596552864e+06   7.6653173954003956e+06   7.3571676199514065e+06   7.4400913372363597e+06   7.1974500244825603e+06   7.2083126803040458e+06   7.0237225718844319e+06   6.9672486363408193e+06   6.8234103226785529e+06   6.7296859494572794e+06   6.6123111687815543e+06   6.5080098058956293e+06   6.4161279907005504e+06   6.2976549980124766e+06   6.2336502249088688e+06   6.0881210496548656e+06   6.0441804270649049e+06   5.8802551222951980e+06   5.8433243624033537e+06   5.6824242668799981e+06   5.6440733616051441e+06   5.4993515918746088e+06   5.4543681574089443e+06   5.3335522207371369e+06   5.2747783072180785e+06   5.1907972598435851e+06   5.1105904464647872e+06   5.0788949998258865e+06   4.9721147759310463e+06   5.0058017837876650e+06   4.8710815298626060e+06   4.9779378438455127e+06   4.8202480171286212e+06   4.9967180266027646e+06   4.8311499469730426e+06   5.0522800229864633e+06   4.9068556192463702e+06   5.1174887885412425e+06   5.0293197073327135e+06   5.1525982524907291e+06   5.1453400364042548e+06   5.1267384831956346e+06   5.1800800709442319e+06   5.0930803184807571e+06   5.1705599839090472e+06   5.0994576675231252e+06   5.2020213125514053e+06   5.1487181867350619e+06   5.2864206824932424e+06   5.2140019876556145e+06   5.3793063106918149e+06   5.2739424242050434e+06   5.4504938925137166e+06   5.3205428703400968e+06   5.4950133768757405e+06   5.3537078273871960e+06   5.5179682683214275e+06   5.3759848017988848e+06   5.5249482401605183e+06   5.3917530193498675e+06   5.5221547431677040e+06   5.4050626006321972e+06   5.5153826445600735e+06   5.4177132217273014e+06   5.5072855040086312e+06   5.4303063176233787e+06   5.4985291918700291e+06   5.4435444483080646e+06   5.4898067867125757e+06   5.4588297798541188e+06   5.4826068411237272e+06   5.4786044000655282e+06   5.4796116149607673e+06   5.5065400874357997e+06   5.4852814090956617e+06   5.5470769417391652e+06   5.5065149864360671e+06   5.6027047191748517e+06   5.5525264333648337e+06   5.6658338241284667e+06   5.6301749003337659e+06   5.7151014075936684e+06   5.7183012602709513e+06   5.7301383533126730e+06   5.7656992990809996e+06   5.7598825037615607e+06   5.8168498328061104e+06   5.8116051883719629e+06   5.9324719635206582e+06   5.8654976599564459e+06   6.0758740861078408e+06   5.9331064979794826e+06   6.2068601544262739e+06   6.0111618056240939e+06   6.3148538106172923e+06   6.3866468154862188e+06   2.2057544660416334e+06   1.9999866026674725e-10   5.0127095983352261e+06   1.5616000129076399e-01   7.5771566111314557e+06   5.0111013228503242e+06   7.4420837030792795e+06   6.0904972509600567e+06   7.7713309932112852e+06   5.8423277143231891e+06   8.0822460426077703e+06   7.7240526236429624e+06   7.9984450260877777e+06   6.8743620454445211e+06   8.0663522256087055e+06   7.0713589663327672e+06   8.0770550197529327e+06   7.4637754582542982e+06   7.9612772871291889e+06   7.4485984761161767e+06   7.8479634971356830e+06   7.2792573057620944e+06   7.7574873732419647e+06   7.2879825059823990e+06   7.6247314919749508e+06   7.2514936587431189e+06   7.4582121418498950e+06   7.1212718683572840e+06   7.3095319334069444e+06   6.9979683882475169e+06   7.1700025218419880e+06   6.9290215561624393e+06   7.0076120879399218e+06   6.8371388183732713e+06   6.8135522131108604e+06   6.6863381132978704e+06   6.6124532087184470e+06   6.5000966778654344e+06   6.4301819338254575e+06   6.3366986344817718e+06   6.2554617376218159e+06   6.1948174452590756e+06   6.0647948586760992e+06   6.0274914915010305e+06   5.8602696839130260e+06   5.8259483475046344e+06   5.6579099404873168e+06   5.6178665754351513e+06   5.4630299076568428e+06   5.4148248124218890e+06   5.2756947454436803e+06   5.2104577400044994e+06   5.1034419958737744e+06   5.0096924191108244e+06   4.9580523380765235e+06   4.8267312664190391e+06   4.8531104597072192e+06   4.6767812467443598e+06   4.8039853230368365e+06   4.5793766118023563e+06   4.8247783244525632e+06   4.5595363336563911e+06   4.9176899782098169e+06   4.6406297484422419e+06   5.0545487842117231e+06   4.8256588973130621e+06   5.1607591902922792e+06   5.0636435238533141e+06   5.1531681826273054e+06   5.1928706886136811e+06   5.1422670168245453e+06   5.2521782176043987e+06   5.1955820823440133e+06   5.3658475582648152e+06   5.2970592393495413e+06   5.5165824342023898e+06   5.3951279216620382e+06   5.6288543300869903e+06   5.4654664148504417e+06   5.6869199917770810e+06   5.5072400187144270e+06   5.7058296730066193e+06   5.5272447569246991e+06   5.7025038479699530e+06   5.5311395953993192e+06   5.6856134272865644e+06   5.5260510099916235e+06   5.6604439228151515e+06   5.5181203154944610e+06   5.6320102134994455e+06   5.5092743063277574e+06   5.6021606978016486e+06   5.4998377646953063e+06   5.5709615043730438e+06   5.4905668094443418e+06   5.5389269388073310e+06   5.4831353788061207e+06   5.5073016292786505e+06   5.4805221014213758e+06   5.4781313580391090e+06   5.4876901771165505e+06   5.4549690107544279e+06   5.5123775892750816e+06   5.4443233703035424e+06   5.5648825936987558e+06   5.4581088485879274e+06   5.6513314911997644e+06   5.5171415051173838e+06   5.7351473611170417e+06   5.6493502078696694e+06   5.7529366621720567e+06   5.7387345477372743e+06   5.8076727016753657e+06   5.8292917239055252e+06   5.9445240533531392e+06   5.9615137986158757e+06   6.0916986255045980e+06   6.3445820290959217e+06   6.2256675033877054e+06   6.6833317969439505e+06   6.3372059592028139e+06   6.7864394612609614e+06   6.4065038468102571e+06   6.8018195839658752e+06   6.7740283917815378e+06   0.0000000000000000e+00   0.0000000000000000e+00   0.0000000000000000e+00   0.0000000000000000e+00   0.0000000000000000e+00   0.0000000000000000e+00   5.0385566450502775e-05   0.0000000000000000e+00   3.4821770843130583e+06   0.0000000000000000e+00   6.1420767389129773e+06   2.4088269098114576e+06   6.3734154771065749e+06   5.6378030414198767e+06   6.5200370696087964e+06   4.7758640746586928e+06   6.9717613823275575e+06   6.0556095951849483e+06   7.1844311166294655e+06   7.5032635045249416e+06   7.0737733254473265e+06   6.3991028986033630e+06   7.1250422996519888e+06   6.6316218038849300e+06   7.1122244632851277e+06   6.8166980225644466e+06   7.0088440213522371e+06   6.7520341324702287e+06   6.9264685983234188e+06   6.5928040756257148e+06   6.8781885607628655e+06   6.6170009402087042e+06   6.7982366885135444e+06   6.6422499670211282e+06   6.6557334874806423e+06   6.5747508791995719e+06   6.4874667082284857e+06   6.4003344273962146e+06   6.3498395676372182e+06   6.2600123749154815e+06   6.2215951255326057e+06   6.1755866250258051e+06   6.0524034419399044e+06   6.0404104195794165e+06   5.8484964925198471e+06   5.8329710673507340e+06   5.6417425530985808e+06   5.6144985621153042e+06   5.4361236646088120e+06   5.4024813623887291e+06   5.2238285431961501e+06   5.1721590961257527e+06   5.0134199129073769e+06   4.9266771735483343e+06   4.8197261205938095e+06   4.6852957576703979e+06   4.6594177485659616e+06   4.4618519681049045e+06   4.5557668397884136e+06   4.2770018025716832e+06   4.5407514502426675e+06   4.1667420171643202e+06   4.6451037744496185e+06   4.1823794752050699e+06   4.8677634314867305e+06   4.3708970213301582e+06   5.1193602249043891e+06   4.7289950025735255e+06   5.1645136306027249e+06   5.1133493231748724e+06   5.2295441886856081e+06   5.4585033878754070e+06   5.3754940670431443e+06   5.7674887405696204e+06   5.5405961806013947e+06   5.9682478607493406e+06   5.6514317709000371e+06   6.0111773604046572e+06   5.7043961897497121e+06   5.9857470124127930e+06   5.7180862830536207e+06   5.9390622298413115e+06   5.7110915789653994e+06   5.8863750254250122e+06   5.6906340671524182e+06   5.8405615670340909e+06   5.6627352923451932e+06   5.8002275842484459e+06   5.6331251347122863e+06   5.7535181200805735e+06   5.6023975922208950e+06   5.7005288036305532e+06   5.5701716753506446e+06   5.6451875595108792e+06   5.5370845394999357e+06   5.5885309940462233e+06   5.5044503392917328e+06   5.5311061379455039e+06   5.4743695379172657e+06   5.4729878248382900e+06   5.4505855338481665e+06   5.4141227596771261e+06   5.4402698837867575e+06   5.3551860632027118e+06   5.4572863183489358e+06   5.2999460785520002e+06   5.5274322396548558e+06   5.2617276872113300e+06   5.6854980973736038e+06   5.2854602123001842e+06   5.7213469401109032e+06   5.5888359488205984e+06   5.8257280415947260e+06   5.8716905805827258e+06   5.9659983759057149e+06   6.0343181712700762e+06   6.4920520888308920e+06   6.0435099432817781e+06   6.7229093926356984e+06   8.1034083699325826e+06   6.8144851809045849e+06   7.5821684515741458e+06   6.8230795570242889e+06   7.3182492164134886e+06   6.7894374299519472e+06   7.1513984064760115e+06   6.7367753734225109e+06   7.0257230748993633e+06   6.9182026548791425e+06   0.0000000000000000e+00   0.0000000000000000e+00   0.0000000000000000e+00   0.0000000000000000e+00   0.0000000000000000e+00   0.0000000000000000e+00   0.0000000000000000e+00   0.0000000000000000e+00   0.0000000000000000e+00   0.0000000000000000e+00   0.0000000000000000e+00   0.0000000000000000e+00   0.0000000000000000e+00   0.0000000000000000e+00   2.7335273492101317e+02   0.0000000000000000e+00   4.5959881433526892e+06   3.7684158254666100e-06   6.3154929231671654e+06   3.4011744615464252e+06   6.3227275213890802e+06   6.4595063563609039e+06   6.4522875874569705e+06   5.3270945981352869e+06   6.5763230904857107e+06   5.7654605634796778e+06   6.6698974453729596e+06   7.1288982214966267e+06   6.5066888462672140e+06   5.9749426256754501e+06   6.5345568374818852e+06   6.1992886201464385e+06   6.5612063985716049e+06   6.3249175889685331e+06   6.5154140336095532e+06   6.5426243017346701e+06   6.3840086127023445e+06   6.4119302700003488e+06   6.2818850427033929e+06   6.1853463463596059e+06   6.2125591342563387e+06   6.1681026784653002e+06   6.0700312744862484e+06   6.1036371648879191e+06   5.8629329423872996e+06   5.8845732060811175e+06   5.6546378076535128e+06   5.6509205387055539e+06   5.4450901206601067e+06   5.4428928994608233e+06   5.2080135751592442e+06   5.1910889936673567e+06   4.9537104848294612e+06   4.8965880293908790e+06   4.6999060470164018e+06   4.5911221631608289e+06   4.4600695203988785e+06   4.2785391579937255e+06   4.2571668192480532e+06   3.9680944940821393e+06   4.1360580762740835e+06   3.68995241