<?xml version="1.0"?>
<VTKFile type="UnstructuredGrid"  version="0.1"  >
<UnstructuredGrid>
<Piece  NumberOfPoints="4738" NumberOfCells="9201">
<Points>
<DataArray  type="Float64"  NumberOfComponents="3"  format="ascii">3.015217391304348 0 0  3.023478260869565 0 0  3.023478260869565 0.008333333333333333 0  3.015217391304348 0.008333333333333333 0  3.031739130434782 0 0  3.031739130434782 0.008333333333333333 0  3.04 0 0  3.04 0.008333333333333333 0  3.048260869565218 0 0  3.048260869565218 0.008333333333333333 0  3.056521739130435 0 0  3.056521739130435 0.008333333333333333 0  3.064782608695652 0 0  3.064782608695652 0.008333333333333333 0  3.073043478260869 0 0  3.073043478260869 0.008333333333333333 0  3.081304347826087 0 0  3.081304347826087 0.008333333333333333 0  3.089565217391304 0 0  3.089565217391304 0.008333333333333333 0  3.097826086956522 0 0  3.097826086956522 0.008333333333333333 0  3.106086956521739 0 0  3.106086956521739 0.008333333333333333 0  3.114347826086956 0 0  3.114347826086956 0.008333333333333333 0  3.122608695652174 0 0  3.122608695652174 0.008333333333333333 0  3.130869565217391 0 0  3.130869565217391 0.008333333333333333 0  3.139130434782609 0 0  3.139130434782609 0.008333333333333333 0  3.147391304347826 0 0  3.147391304347826 0.008333333333333333 0  3.155652173913043 0 0  3.155652173913043 0.008333333333333333 0  3.163913043478261 0 0  3.163913043478261 0.008333333333333333 0  3.172173913043478 0 0  3.172173913043478 0.008333333333333333 0  3.180434782608696 0 0  3.180434782608696 0.008333333333333333 0  3.188695652173913 0 0  3.188695652173913 0.008333333333333333 0  3.19695652173913 0 0  3.19695652173913 0.008333333333333333 0  3.205217391304347 0 0  3.205217391304347 0.008333333333333333 0  3.213478260869565 0 0  3.213478260869565 0.008333333333333333 0  3.221739130434782 0 0  3.221739130434782 0.008333333333333333 0  3.23 0 0  3.23 0.008333333333333333 0  3.238260869565217 0 0  3.238260869565217 0.008333333333333333 0  3.246521739130435 0 0  3.246521739130435 0.008333333333333333 0  3.254782608695652 0 0  3.254782608695652 0.008333333333333333 0  3.26304347826087 0 0  3.26304347826087 0.008333333333333333 0  3.271304347826087 0 0  3.271304347826087 0.008333333333333333 0  3.279565217391304 0 0  3.279565217391304 0.008333333333333333 0  3.287826086956521 0 0  3.287826086956521 0.008333333333333333 0  3.296086956521739 0 0  3.296086956521739 0.008333333333333333 0  3.304347826086957 0 0  3.304347826086957 0.008333333333333333 0  3.312608695652174 0 0  3.312608695652174 0.008333333333333333 0  3.320869565217391 0 0  3.320869565217391 0.008333333333333333 0  3.329130434782608 0 0  3.329130434782608 0.008333333333333333 0  3.337391304347826 0 0  3.337391304347826 0.008333333333333333 0  3.345652173913043 0 0  3.345652173913043 0.008333333333333333 0  3.353913043478261 0 0  3.353913043478261 0.008333333333333333 0  3.362173913043478 0 0  3.362173913043478 0.008333333333333333 0  3.370434782608696 0 0  3.370434782608696 0.008333333333333333 0  3.378695652173913 0 0  3.378695652173913 0.008333333333333333 0  3.386956521739131 0 0  3.386956521739131 0.008333333333333333 0  3.395217391304348 0 0  3.395217391304348 0.008333333333333333 0  3.403478260869565 0 0  3.403478260869565 0.008333333333333333 0  3.411739130434782 0 0  3.411739130434782 0.008333333333333333 0  3.419999999999999 0 0  3.419999999999999 0.008333333333333333 0  3.428260869565217 0 0  3.428260869565217 0.008333333333333333 0  3.436521739130435 0 0  3.436521739130435 0.008333333333333333 0  3.444782608695652 0 0  3.444782608695652 0.008333333333333333 0  3.453043478260869 0 0  3.453043478260869 0.008333333333333333 0  3.461304347826087 0 0  3.461304347826087 0.008333333333333333 0  3.469565217391304 0 0  3.469565217391304 0.008333333333333333 0  3.477826086956522 0 0  3.477826086956522 0.008333333333333333 0  3.486086956521739 0 0  3.486086956521739 0.008333333333333333 0  3.494347826086956 0 0  3.494347826086956 0.008333333333333333 0  3.502608695652174 0 0  3.502608695652174 0.008333333333333333 0  3.510869565217391 0 0  3.510869565217391 0.008333333333333333 0  3.519130434782609 0 0  3.519130434782609 0.008333333333333333 0  3.527391304347826 0 0  3.527391304347826 0.008333333333333333 0  3.535652173913043 0 0  3.535652173913043 0.008333333333333333 0  3.54391304347826 0 0  3.54391304347826 0.008333333333333333 0  3.552173913043478 0 0  3.552173913043478 0.008333333333333333 0  3.560434782608696 0 0  3.560434782608696 0.008333333333333333 0  3.568695652173913 0 0  3.568695652173913 0.008333333333333333 0  3.57695652173913 0 0  3.57695652173913 0.008333333333333333 0  3.585217391304347 0 0  3.585217391304347 0.008333333333333333 0  3.593478260869565 0 0  3.593478260869565 0.008333333333333333 0  3.601739130434782 0 0  3.601739130434782 0.008333333333333333 0  3.61 0 0  3.61 0.008333333333333333 0  3.618260869565217 0 0  3.618260869565217 0.008333333333333333 0  3.626521739130435 0 0  3.626521739130435 0.008333333333333333 0  3.634782608695652 0 0  3.634782608695652 0.008333333333333333 0  3.64304347826087 0 0  3.64304347826087 0.008333333333333333 0  3.651304347826087 0 0  3.651304347826087 0.008333333333333333 0  3.659565217391304 0 0  3.659565217391304 0.008333333333333333 0  3.667826086956521 0 0  3.667826086956521 0.008333333333333333 0  3.676086956521739 0 0  3.676086956521739 0.008333333333333333 0  3.684347826086956 0 0  3.684347826086956 0.008333333333333333 0  3.692608695652174 0 0  3.692608695652174 0.008333333333333333 0  3.700869565217391 0 0  3.700869565217391 0.008333333333333333 0  3.709130434782608 0 0  3.709130434782608 0.008333333333333333 0  3.717391304347826 0 0  3.717391304347826 0.008333333333333333 0  3.725652173913043 0 0  3.725652173913043 0.008333333333333333 0  3.733913043478261 0 0  3.733913043478261 0.008333333333333333 0  3.742173913043478 0 0  3.742173913043478 0.008333333333333333 0  3.750434782608695 0 0  3.750434782608695 0.008333333333333333 0  3.758695652173913 0 0  3.758695652173913 0.008333333333333333 0  3.766956521739131 0 0  3.766956521739131 0.008333333333333333 0  3.775217391304348 0 0  3.775217391304348 0.008333333333333333 0  3.783478260869565 0 0  3.783478260869565 0.008333333333333333 0  3.791739130434782 0 0  3.791739130434782 0.008333333333333333 0  3.8 0 0  3.8 0.008333333333333333 0  3.023478260869565 0.01666666666666667 0  3.015217391304348 0.01666666666666667 0  3.031739130434782 0.01666666666666667 0  3.04 0.01666666666666667 0  3.048260869565218 0.01666666666666667 0  3.056521739130435 0.01666666666666667 0  3.064782608695652 0.01666666666666667 0  3.073043478260869 0.01666666666666667 0  3.081304347826087 0.01666666666666667 0  3.089565217391304 0.01666666666666667 0  3.097826086956522 0.01666666666666667 0  3.106086956521739 0.01666666666666667 0  3.114347826086956 0.01666666666666667 0  3.122608695652174 0.01666666666666667 0  3.130869565217391 0.01666666666666667 0  3.139130434782609 0.01666666666666667 0  3.147391304347826 0.01666666666666667 0  3.155652173913043 0.01666666666666667 0  3.163913043478261 0.01666666666666667 0  3.172173913043478 0.01666666666666667 0  3.180434782608696 0.01666666666666667 0  3.188695652173913 0.01666666666666667 0  3.19695652173913 0.01666666666666667 0  3.205217391304347 0.01666666666666667 0  3.213478260869565 0.01666666666666667 0  3.221739130434782 0.01666666666666667 0  3.23 0.01666666666666667 0  3.238260869565217 0.01666666666666667 0  3.246521739130435 0.01666666666666667 0  3.254782608695652 0.01666666666666667 0  3.26304347826087 0.01666666666666667 0  3.271304347826087 0.01666666666666667 0  3.279565217391304 0.01666666666666667 0  3.287826086956521 0.01666666666666667 0  3.296086956521739 0.01666666666666667 0  3.304347826086957 0.01666666666666667 0  3.312608695652174 0.01666666666666667 0  3.320869565217391 0.01666666666666667 0  3.329130434782608 0.01666666666666667 0  3.337391304347826 0.01666666666666667 0  3.345652173913043 0.01666666666666667 0  3.353913043478261 0.01666666666666667 0  3.362173913043478 0.01666666666666667 0  3.370434782608696 0.01666666666666667 0  3.378695652173913 0.01666666666666667 0  3.386956521739131 0.01666666666666667 0  3.395217391304348 0.01666666666666667 0  3.403478260869565 0.01666666666666667 0  3.411739130434782 0.01666666666666667 0  3.419999999999999 0.01666666666666667 0  3.428260869565217 0.01666666666666667 0  3.436521739130435 0.01666666666666667 0  3.444782608695652 0.01666666666666667 0  3.453043478260869 0.01666666666666667 0  3.461304347826087 0.01666666666666667 0  3.469565217391304 0.01666666666666667 0  3.477826086956522 0.01666666666666667 0  3.486086956521739 0.01666666666666667 0  3.494347826086956 0.01666666666666667 0  3.502608695652174 0.01666666666666667 0  3.510869565217391 0.01666666666666667 0  3.519130434782609 0.01666666666666667 0  3.527391304347826 0.01666666666666667 0  3.535652173913043 0.01666666666666667 0  3.54391304347826 0.01666666666666667 0  3.552173913043478 0.01666666666666667 0  3.560434782608696 0.01666666666666667 0  3.568695652173913 0.01666666666666667 0  3.57695652173913 0.01666666666666667 0  3.585217391304347 0.01666666666666667 0  3.593478260869565 0.01666666666666667 0  3.601739130434782 0.01666666666666667 0  3.61 0.01666666666666667 0  3.618260869565217 0.01666666666666667 0  3.626521739130435 0.01666666666666667 0  3.634782608695652 0.01666666666666667 0  3.64304347826087 0.01666666666666667 0  3.651304347826087 0.01666666666666667 0  3.659565217391304 0.01666666666666667 0  3.667826086956521 0.01666666666666667 0  3.676086956521739 0.01666666666666667 0  3.684347826086956 0.01666666666666667 0  3.692608695652174 0.01666666666666667 0  3.700869565217391 0.01666666666666667 0  3.709130434782608 0.01666666666666667 0  3.717391304347826 0.01666666666666667 0  3.725652173913043 0.01666666666666667 0  3.733913043478261 0.01666666666666667 0  3.742173913043478 0.01666666666666667 0  3.750434782608695 0.01666666666666667 0  3.75869565
[...]
<CellData  Scalars="rho_bar"> 
<DataArray  type="Float64"  Name="rho_bar"  format="ascii">8.2373238227134671e-01   8.1548913970905790e-01   8.2233760615337748e-01   8.1410335336174944e-01   8.2078523151530236e-01   8.1255460346362862e-01   8.1907781184822837e-01   8.1085726761027122e-01   8.1720016538698004e-01   8.0900162166107481e-01   8.1513615228763903e-01   8.0697005737077787e-01   8.1290592644085580e-01   8.0476330340361035e-01   8.1066547289191992e-01   8.0247975329148269e-01   8.0880558621559595e-01   8.0043660565160624e-01   8.0794520424771143e-01   7.9921476246240020e-01   8.0882844311776225e-01   7.9957626928130254e-01   8.1211154042087341e-01   8.0228216541702502e-01   8.1806655305815590e-01   8.0779960894865233e-01   8.2633315955144937e-01   8.1600298255724413e-01   8.3576796054130198e-01   8.2597646388020396e-01   8.4449763215166729e-01   8.3598095642711967e-01   8.5031597608982246e-01   8.4375454856817367e-01   8.5110565375502245e-01   8.4704440583627316e-01   8.4477243164828941e-01   8.4380940222599743e-01   8.2868426869473055e-01   8.3181707606412580e-01   7.9916667462202751e-01   8.0802183104554148e-01   7.5148245194345886e-01   7.6829987526449062e-01   6.8050371661606524e-01   7.0776612804506067e-01   5.8340297059192525e-01   6.2227954635629734e-01   4.6562001012725796e-01   5.1293319766516821e-01   3.4441756186702949e-01   3.9183889137478123e-01   2.3983766132838319e-01   2.7926892146493842e-01   1.6160044233407100e-01   1.9019539084766088e-01   1.0803310173978611e-01   1.2722144340688832e-01   7.2824661521048398e-02   8.5298131566244925e-02   4.9890095821905567e-02   5.7970683193340464e-02   3.4817316008817829e-02   4.0114328576400078e-02   2.4737555546620649e-02   2.8276075345508342e-02   1.7858042283894142e-02   2.0272370644017341e-02   1.3066414830213950e-02   1.4748115610346729e-02   9.6662528770715527e-03   1.0859815819122579e-02   7.2139794330948357e-03   8.0749391054986634e-03   5.4210339170638437e-03   6.0505470573893258e-03   4.0954236107097666e-03   4.5608198321708000e-03   3.1065327106769339e-03   3.4536494938206650e-03   2.3636210413443327e-03   2.6243247158334823e-03   1.8024521687599372e-03   1.9993145057051122e-03   1.3767960105011510e-03   1.5260672820987470e-03   1.0529131085574787e-03   1.1664542264290534e-03   8.0589375040250361e-04   8.9246053017241907e-04   6.1717462727706521e-04   6.8329010150000775e-04   4.7281921361078751e-04   5.2337856679956108e-04   3.6230400077983277e-04   4.0100189408267395e-04   2.7764720895227346e-04   3.0728461015452571e-04   2.1277468825622303e-04   2.3548206955229160e-04   1.6305259467190296e-04   1.8045458586598003e-04   1.2493909137509029e-04   1.3827691403547757e-04   9.5723744664245013e-05   1.0594695068226664e-04   7.3330252311390860e-05   8.1165974571911480e-05   5.6167297242865310e-05   6.2172689933126526e-05   4.3014712661297439e-05   4.7616862166836614e-05   3.2936799360668638e-05   3.6463170152426958e-05   2.5215936686250168e-05   2.7917631551091416e-05   1.9301762962972423e-05   2.1371335593184985e-05   1.4772233625236968e-05   1.6357339031204470e-05   1.1303702734862409e-05   1.2517561126475702e-05   8.6480999967454295e-06   9.5774987832816314e-06   6.6152312562833949e-06   7.3267122138649687e-06   5.0593395211707522e-06   5.6039045314558133e-06   3.8687155946080785e-06   4.2854397364748211e-06   2.9577917398785194e-06   3.2766252020134838e-06   2.2609594986724424e-06   2.5048610926705573e-06   1.7280000693603858e-06   1.9145448734492460e-06   1.3204457191731901e-06   1.4630953958119016e-06   1.0088485064771063e-06   1.1179113416992681e-06   7.7065572122039436e-07   8.5402494041323449e-07   5.8860925568305719e-07   6.5232590973225517e-07   4.4949564972243137e-07   4.9818559536209568e-07   3.4320653588895318e-07   3.8040767786806795e-07   2.6201162550539906e-07   2.9042947438203620e-07   1.9999750089938387e-07   2.2170235413186270e-07   1.5264069566264730e-07   1.6921535227101913e-07   1.1648510242780859e-07   1.2913990111223580e-07   8.8885612719120597e-08   9.8545732788169923e-08   6.7822271894917573e-08   7.5195151367019083e-08   5.1747774396638631e-08   5.7374674363025753e-08   3.9483482801439194e-08   4.3777098696475290e-08   3.0129222382880322e-08   3.3404262517121896e-08   2.2998405460705523e-08   2.5495574405574951e-08   1.7564887232279862e-08   1.9468101414312294e-08   1.3429557057963988e-08   1.4878788543091225e-08   1.0286795243285130e-08   1.1388814056125846e-08   7.9050214860905284e-09   8.7411795785535870e-09   6.1074457646974365e-09   6.7394756347721097e-09   4.7620016056869531e-09   5.2364051998217226e-09   3.7691575792638885e-09   4.1209483221515785e-09   3.0560793132072018e-09   3.3109972982838271e-09   2.5707595005284594e-09   2.7470847735765742e-09   2.2791391566385572e-09   2.3885493500536668e-09   2.1636630846971708e-09   2.2095893209673525e-09   7.7671861232125849e-01   7.4590500865540221e-01   7.7511301441012215e-01   7.4423309595560827e-01   7.7337947065844070e-01   7.4244054497232315e-01   7.7152982424678185e-01   7.4056342642284356e-01   7.6955929037407422e-01   7.3860666418743337e-01   7.6745884331408376e-01   7.3656903278907260e-01   7.6524252005349647e-01   7.3445592519871938e-01   7.6308281387818933e-01   7.3237352725596527e-01   7.6149150616785544e-01   7.3074971672772793e-01   7.6129088293493130e-01   7.3042072993321772e-01   7.6346033517523948e-01   7.3247449417313371e-01   7.6887153705765587e-01   7.3799252262690862e-01   7.7789701627746044e-01   7.4765121664802670e-01   7.9008877024315016e-01   7.6129794808441309e-01   8.0395706572324921e-01   7.7765192031978092e-01   8.1700804558208662e-01   7.9420108357028119e-01   8.2641376356521778e-01   8.0772488039117152e-01   8.2983535295481248e-01   8.1537871215678803e-01   8.2554711595631702e-01   8.1530829338317901e-01   8.1183371633476753e-01   8.0627698534523629e-01   7.8636105895794783e-01   7.8687891898344264e-01   7.4590490343671800e-01   7.5500961178009862e-01   6.8630885932989549e-01   7.0750981794889101e-01   6.0368535492929121e-01   6.4022571433771802e-01   4.9872647355654504e-01   5.5028265418097455e-01   3.8240709062664691e-01   4.4172944238826495e-01   2.7347053786586961e-01   3.2908563838340887e-01   1.8646402370239712e-01   2.3026669585006754e-01   1.2460274621518418e-01   1.5521874773012223e-01   8.3356049714233257e-02   1.0345073588284889e-01   5.6502647146533691e-02   6.9404967443906729e-02   3.9003737407484584e-02   4.7310175166014760e-02   2.7438834981901430e-02   3.2871877982753796e-02   1.9642342737393136e-02   2.3273482262521201e-02   1.4273572048885432e-02   1.6756249961410841e-02   1.0501355949597418e-02   1.2235478437143404e-02   7.8031624653262990e-03   9.0374391838681165e-03   5.8437290840575610e-03   6.7363226791740376e-03   4.4029283661484037e-03   5.0569266201367820e-03   3.3328024277153364e-03   3.8170650127296027e-03   2.5316585328216891e-03   2.8932562567423538e-03   1.9281690412025897e-03   2.1999556007729934e-03   1.4714037923961975e-03   1.6767328072623811e-03   1.1244392628188416e-03   1.2801721121660486e-03   8.6016467080680308e-04   9.7863532587634137e-04   6.5846789717662719e-04   7.4879560438131628e-04   5.0430522704584331e-04   5.7329104210124748e-04   3.8635080805587599e-04   4.3910194319855334e-04   2.9603473827984099e-04   3.3640731126559028e-04   2.2684747106300763e-04   2.5776527831349684e-04   1.7383004309448236e-04   1.9751705458742020e-04   1.3319671082400079e-04   1.5134874188082255e-04   1.0205263479155427e-04   1.1596510046867851e-04   7.8181904782560833e-05   8.8845670860343603e-05   5.9886904314823039e-05   6.8060580776554069e-05   4.5866519752315200e-05   5.2131277483544998e-05   3.5123230788351987e-05   3.9924494570941837e-05   2.6892106734957260e-05   3.0571372603809239e-05   2.0586619816520821e-05   2.3405718067657141e-05   1.5756968468640054e-05   1.7916689514678639e-05   1.2058306427663707e-05   1.3712615923813908e-05   9.2262296763977628e-06   1.0493183360056184e-05   7.0580833303295277e-06   8.0282046029529240e-06   5.3984825490910156e-06   6.1411819107827969e-06   4.1283898912338709e-06   4.6968685843380181e-06   3.1565534945810236e-06   3.5915945629990207e-06   2.4130778583675769e-06   2.7459371031769573e-06   1.8443899566683963e-06   2.0990215260272890e-06   1.4094834103405921e-06   1.6042332715053601e-06   1.0769446412124361e-06   1.2258670942429374e-06   8.2272759132024982e-07   9.3658449258886358e-07   6.2841817858633640e-07   7.1545066182636834e-07   4.7992584108881626e-07   5.4644178244256489e-07   3.6646500831697023e-07   4.1729323303828825e-07   2.7978565449858445e-07   3.1862005061954038e-07   2.1357816531457551e-07   2.4324361924232077e-07   1.6301720873634239e-07   1.8567516995819202e-07   1.2441152157406157e-07   1.4171417342474307e-07   9.4940841941093993e-08   1.0815183251281582e-07   7.2445969802231342e-08   8.2531540566378374e-08   5.5279826264890761e-08   6.2978242385548262e-08   4.2181827424248887e-08   4.8057655122248128e-08   3.2191557558681891e-08   3.6675506637952405e-08   2.4574509829746787e-08   2.7995452867806330e-08   1.8771170999165475e-08   2.1380410479327632e-08   1.4353365105655181e-08   1.6342533379696997e-08   1.0996329304353392e-08   1.2511648878352576e-08   8.4513425657520929e-09   9.6044734883082685e-09   6.5312169788073957e-09   7.4069258173243203e-09   5.0939284184084458e-09   5.7567103561107109e-09   4.0336840643355199e-09   4.5322605760547078e-09   3.2721694913514695e-09   3.6430654857242049e-09   2.7538520457594278e-09   3.0240187496664312e-09   2.4407150378027941e-09   2.6296924796546191e-09   2.3089668038569967e-09   2.4306823176802399e-09   6.5197519080119626e-01   6.5022038775818003e-01   5.8746549443870855e-01   6.4849322960470002e-01   5.8589685180255036e-01   6.4684248518639897e-01   5.8451546509079055e-01   6.4530803601515452e-01   5.8337956965518689e-01   6.4394851208797566e-01   5.8258042558996925e-01   6.4282920740408478e-01   5.8222972779214588e-01   6.4217911196959676e-01   5.8251979182540869e-01   6.4271342753804184e-01   5.8402395520733053e-01   6.4564929023858919e-01   5.8791635354713379e-01   6.5240338048227975e-01   5.9572425012872543e-01   6.6422532985969085e-01   6.0892955458421005e-01   6.8166472803412559e-01   6.2846776237112767e-01   7.0407275598734220e-01   6.5411464194602909e-01   7.2917921368867333e-01   6.8394222292978135e-01   7.5303939847386847e-01   7.1399737791566076e-01   7.7125956076898572e-01   7.3912376223842058e-01   7.8083917590435348e-01   7.5516637489768312e-01   7.8077728952002068e-01   7.6052592738532176e-01   7.7129203648470712e-01   7.5581242154736561e-01   7.5274930569540199e-01   7.4253252166300099e-01   7.2477124171666452e-01   7.2181004893116973e-01   6.8514320753882629e-01   6.9304521396903962e-01   6.2932559589051340e-01   6.5266734065579457e-01   5.5261363907455285e-01   5.9479010460329762e-01   4.5554514543357794e-01   5.1501259541026645e-01   3.4834918689544137e-01   4.1617746809311834e-01   2.4797632043228146e-01   3.1108328584842171e-01   1.6794707184433799e-01   2.1707937440790648e-01   1.1139541389562382e-01   1.4516412986436131e-01   7.4034955680250009e-02   9.5774531595992848e-02   4.9949466522587270e-02   6.3661639251294727e-02   3.4385331737106110e-02   4.3094205391769301e-02   2.4159293339812281e-02   2.9806131594233828e-02   1.7288536892598939e-02   2.1044635435525809e-02   1.2564214181595975e-02   1.5126851949256113e-02   9.2458615218320994e-03   1.1034704547479571e-02   6.8717177039213321e-03   8.1450863379192804e-03   5.1468634796940499e-03   6.0681080113004233e-03   3.8780346998318056e-03   4.5533489353257505e-03   2.9353632079680701e-03   3.4356278940526276e-03   2.2295302073832846e-03   2.6032085269032290e-03   1.6978232502363087e-03   1.9787642545954290e-03   1.2954168080917257e-03   1.5077013673016578e-03   9.8978577912722950e-04   1.1508139461606625e-03   7.5703512990255820e-04   8.7954336254567262e-04   5.7943269050119317e-04   6.7284277557416261e-04   4.4371330710373311e-04   5.1505469175768925e-04   3.3989073794744997e-04   3.9444358164786238e-04   2.6040981427274669e-04   3.0216154519868905e-04   1.9953299213267824e-04   2.3150727806748328e-04   1.5289061465888326e-04   1.7738746689228502e-04   1.1714754420043218e-04   1.3592080214183455e-04   8.9754358914902337e-05   1.0414363485767543e-04   6.8759976995602458e-05   7.9789911755608002e-05   5.2670190519251582e-05   6.1125168088915394e-05   4.0340024399308539e-05   4.6820935794012127e-05   3.0891887582762441e-05   3.5859259755945123e-05   2.3652932587958843e-05   2.7459826864564519e-05   1.8107341727554797e-05   2.1024481007504519e-05   1.3859575826615108e-05   1.6094577302832738e-05   1.0606425293399579e-05   1.2318506323372861e-05   8.1153945264197286e-06   9.4266603843308284e-06   6.2082902486392267e-06   7.2123809133688967e-06   4.7484788811249182e-06   5.5172007827487712e-06   3.6312714418188898e-06   4.2196768304355465e-06   2.7764083765145514e-06   3.2267015070720495e-06   2.1224186437812581e-06   2.4669461673272532e-06   1.6221862121774971e-06   1.8857399667155770e-06   1.2396410908847078e-06   1.4412103192567125e-06   9.4714649266231506e-07   1.1012806212287231e-06   7.2354933244451553e-07   8.4138825222281769e-07   5.5264931119136269e-07   6.4272437219502818e-07   4.2205229722453951e-07   4.9089243067448100e-07   3.2226896268070885e-07   3.7487298260658378e-07   2.4604273041149586e-07   2.8623367657727734e-07   1.8782197504577754e-07   2.1852408090913704e-07   1.4336260175442101e-07   1.6681244174093102e-07   1.0941656939477772e-07   1.2732468654577415e-07   8.3503756983870663e-08   9.7177795086994766e-08   6.3725695533977448e-08   7.4165639300973231e-08   4.8634815228761228e-08   5.6604439491041761e-08   3.7122512510235208e-08   4.3205993393447688e-08   2.8344527816835827e-08   3.2987638360800018e-08   2.1654892658285055e-08   2.5198066948136619e-08   1.6562351978954126e-08   1.9265471767782935e-08   1.2691108675851485e-08   1.4752643492814125e-08   9.7565847778278961e-09   1.1327900400969019e-08   7.5419331363397756e-09   8.7384611838842618e-09   5.8845332942587548e-09   6.7940472551650726e-09   4.6615829346056113e-09   5.3510737151073940e-09   3.7832938323221470e-09   4.3032347694843676e-09   3.1851211776362633e-09   3.5735002659192441e-09   2.8231377119572725e-09   3.1083997060319136e-09   2.6701091998452855e-09   2.8735871522704947e-09   4.4335380793909457e-01   4.4296037543451405e-01   3.6795484214746471e-01   4.4311238828139354e-01   3.6881137575558925e-01   4.4394919853529363e-01   3.7050265346043765e-01   4.4569020796052117e-01   3.7327100967144067e-01   4.4860446356789746e-01   3.7745311639404011e-01   4.5309471986030819e-01   3.8347505678797922e-01   4.6001177553241479e-01   3.9204700736320386e-01   4.7077937713652240e-01   4.0441225842329298e-01   4.8709385378630193e-01   4.2222532518965078e-01   5.1046323537775440e-01   4.4713838049352100e-01   5.4159644343846003e-01   4.8026064256410844e-01   5.7964271404011691e-01   5.2134841004396026e-01   6.2135885703305327e-01   5.6783361063524707e-01   6.6078536611882033e-01   6.1407506592221306e-01   6.9115884747144940e-01   6.5243113530144758e-01   7.0828707727412077e-01   6.7684333357943915e-01   7.1215830367313282e-01   6.8587743830028869e-01   7.0596002515188283e-01   6.8269473444981832e-01   6.9408001929486385e-01   6.7298800532595726e-01   6.7981843987997992e-01   6.6221106700809873e-01   6.6295606859515266e-01   6.5253378387770178e-01   6.3853761435801326e-01   6.4068157235623679e-01   5.9871022030446774e-01   6.1879714048350054e-01   5.3673983346275622e-01   5.7811817478388938e-01   4.5117708892578617e-01   5.1274092721608855e-01   3.4982566244564312e-01   4.2312749300732222e-01   2.4974066557297034e-01   3.2014973674831215e-01   1.6764953313887204e-01   2.2310594253639196e-01   1.0952456556291588e-01   1.4725898632997966e-01   7.1702331152011509e-02   9.5477608001279551e-02   4.7807234748800234e-02   6.2485484291982897e-02   3.2639477841602552e-02   4.1814477473522897e-02   2.2805619636071084e-02   2.8693733889631867e-02   1.6258888783038012e-02   2.0151258933728183e-02   1.1785318238611965e-02   1.4431402764367388e-02   8.6564740272522239e-03   1.0499847161665072e-02   6.4246606109023248e-03   7.7354283220077589e-03   4.8068054828275262e-03   5.7546017551142808e-03   3.6187031684923147e-03   4.3133277062350787e-03   2.7371868516573297e-03   3.2517313622620159e-03   2.0778549880374935e-03   2.4622153009476759e-03   1.5816135625899993e-03   1.8706088322048957e-03   1.2063181773012391e-03   1.4247091192298557e-03   9.2144640007786659e-04   1.0871216617790865e-03   7.0460951396058343e-04   8.3066360846641867e-04   5.3921534720335819e-04   6.3533608397453633e-04   4.1286553987818518e-04   4.8628192266262716e-04   3.1623519738210485e-04   3.7237816182126399e-04   2.4227509681097159e-04   2.8524648761171268e-04   1.8563537534289782e-04   2.1854590340491712e-04   1.4224394074215631e-04   1.6746000703873526e-04   1.0899415603086861e-04   1.2832023079115067e-04   8.3512387891302827e-05   9.8326783529266947e-05   6.3982654511800929e-05   7.5339602363789021e-05   4.9014703389019727e-05   5.7721245962652228e-05   3.7543437390497752e-05   4.4217852656716229e-05   2.8752674981805222e-05   3.3868844439673461e-05   2.2016727621784622e-05   2.5937986739369025e-05   1.6855956230041828e-05   1.9860943377081188e-05   1.2902552827539432e-05   1.5204987192218735e-05   9.8745655431486741e-06   1.1638368681773810e-05   7.5557532972544165e-06   8.9066672014219415e-06   5.7803739648738836e-06   6.8148329540935085e-06   4.4213048220429626e-06   5.2132783736777754e-06   3.3811417360127333e-06   3.9873386754503366e-06   2.5852023431438173e-06   3.0491042019723104e-06   1.9762714370209209e-06   2.3312059502046034e-06   1.5104972396021560e-06   1.7820044036311042e-06   1.1543008581736111e-06   1.3619481315128247e-06   8.8195120884493826e-07   1.0407296179076462e-06   6.7375462142028763e-07   7.9514249829122869e-07   5.1462583221403550e-07   6.0741293854887621e-07   3.9302590491563191e-07   4.6393860740688719e-07   3.0011693585721885e-07   3.5430513626572624e-07   2.2914239330380022e-07   2.7054429742191527e-07   1.7493225152164691e-07   2.0656009450518044e-07   1.3353571826086867e-07   1.5769344164751764e-07   1.0192840909391458e-07   1.2037821417627730e-07   7.7801978062215811e-08   9.1890709204999022e-08   5.9388629048569896e-08   7.0146223555238448e-08   4.5341444548854465e-08   5.3554455768948534e-08   3.4627852167668349e-08   4.0898177366942336e-08   2.6462286499012931e-08   3.1248961116997923e-08   2.0244104088833579e-08   2.3897744482226568e-08   1.5516939791658178e-08   1.8305280560460467e-08   1.1932374283596104e-08   1.4059878857322630e-08   9.2272686459056223e-09   1.0849866151267607e-08   7.2019434732041193e-09   8.4386368259972696e-09   5.7078063350481960e-09   6.6491621322386067e-09   4.6344586626121238e-09   5.3495394092858141e-09   3.9033889832262448e-09   4.4444064235627258e-09   3.4609250581014045e-09   3.8675352470127541e-09   3.2747413960534401e-09   3.5768172982126211e-09   2.4287591816803086e-01   1.9308972971489294e-01   2.4566717656192544e-01   1.9611372662059456e-01   2.4969287155322584e-01   2.0036892542020909e-01   2.5532537056006671e-01   2.0622153625577475e-01   2.6306581963310444e-01   2.1418249606291773e-01   2.7357934132889083e-01   2.2492712807846321e-01   2.8785211892748869e-01   2.3938470960686911e-01   3.0730877456779448e-01   2.5887930958890604e-01   3.3367455220143938e-01   2.8510943442670089e-01   3.6856934535924152e-01   3.1984377156068544e-01   4.1278825682947629e-01   3.6428216544747205e-01   4.6517366297347862e-01   4.1792527801534152e-01   5.2130849779311395e-01   4.7711688367797295e-01   5.7311214482099615e-01   5.3421694354494254e-01   6.1138712000823725e-01   5.7920766862268025e-01   6.3060555019970965e-01   6.0435003491231198e-01   6.3174593338055318e-01   6.0839777013027174e-01   6.2159275600354014e-01   5.9731240685911025e-01   6.0975258423192480e-01   5.8185155908244479e-01   6.0432132863169719e-01   5.7304413122701725e-01   6.07375480