<?xml version="1.0"?>
<VTKFile type="UnstructuredGrid"  version="0.1"  >
<UnstructuredGrid>
<Piece  NumberOfPoints="4754" NumberOfCells="9224">
<Points>
<DataArray  type="Float64"  NumberOfComponents="3"  format="ascii">0.4873913043478261 0 0  0.4956521739130435 0 0  0.4956521739130435 0.008333333333333333 0  0.4873913043478261 0.008333333333333333 0  0.5039130434782608 0 0  0.5039130434782608 0.008333333333333333 0  0.5121739130434783 0 0  0.5121739130434783 0.008333333333333333 0  0.5204347826086956 0 0  0.5204347826086956 0.008333333333333333 0  0.528695652173913 0 0  0.528695652173913 0.008333333333333333 0  0.5369565217391304 0 0  0.5369565217391304 0.008333333333333333 0  0.5452173913043478 0 0  0.5452173913043478 0.008333333333333333 0  0.5534782608695652 0 0  0.5534782608695652 0.008333333333333333 0  0.5617391304347825 0 0  0.5617391304347825 0.008333333333333333 0  0.57 0 0  0.57 0.008333333333333333 0  0.5782608695652174 0 0  0.5782608695652174 0.008333333333333333 0  0.5865217391304348 0 0  0.5865217391304348 0.008333333333333333 0  0.5947826086956521 0 0  0.5947826086956521 0.008333333333333333 0  0.6030434782608696 0 0  0.6030434782608696 0.008333333333333333 0  0.6113043478260869 0 0  0.6113043478260869 0.008333333333333333 0  0.6195652173913043 0 0  0.6195652173913043 0.008333333333333333 0  0.6278260869565218 0 0  0.6278260869565218 0.008333333333333333 0  0.6360869565217391 0 0  0.6360869565217391 0.008333333333333333 0  0.6443478260869565 0 0  0.6443478260869565 0.008333333333333333 0  0.6526086956521739 0 0  0.6526086956521739 0.008333333333333333 0  0.6608695652173913 0 0  0.6608695652173913 0.008333333333333333 0  0.6691304347826087 0 0  0.6691304347826087 0.008333333333333333 0  0.677391304347826 0 0  0.677391304347826 0.008333333333333333 0  0.6856521739130435 0 0  0.6856521739130435 0.008333333333333333 0  0.6939130434782609 0 0  0.6939130434782609 0.008333333333333333 0  0.7021739130434783 0 0  0.7021739130434783 0.008333333333333333 0  0.7104347826086956 0 0  0.7104347826086956 0.008333333333333333 0  0.718695652173913 0 0  0.718695652173913 0.008333333333333333 0  0.7269565217391304 0 0  0.7269565217391304 0.008333333333333333 0  0.7352173913043478 0 0  0.7352173913043478 0.008333333333333333 0  0.7434782608695653 0 0  0.7434782608695653 0.008333333333333333 0  0.7517391304347827 0 0  0.7517391304347827 0.008333333333333333 0  0.7599999999999999 0 0  0.7599999999999999 0.008333333333333333 0  0.7682608695652173 0 0  0.7682608695652173 0.008333333333333333 0  0.7765217391304348 0 0  0.7765217391304348 0.008333333333333333 0  0.7847826086956522 0 0  0.7847826086956522 0.008333333333333333 0  0.7930434782608695 0 0  0.7930434782608695 0.008333333333333333 0  0.8013043478260868 0 0  0.8013043478260868 0.008333333333333333 0  0.8095652173913043 0 0  0.8095652173913043 0.008333333333333333 0  0.8178260869565217 0 0  0.8178260869565217 0.008333333333333333 0  0.8260869565217391 0 0  0.8260869565217391 0.008333333333333333 0  0.8343478260869565 0 0  0.8343478260869565 0.008333333333333333 0  0.8426086956521739 0 0  0.8426086956521739 0.008333333333333333 0  0.8508695652173912 0 0  0.8508695652173912 0.008333333333333333 0  0.8591304347826086 0 0  0.8591304347826086 0.008333333333333333 0  0.8673913043478261 0 0  0.8673913043478261 0.008333333333333333 0  0.8756521739130434 0 0  0.8756521739130434 0.008333333333333333 0  0.8839130434782608 0 0  0.8839130434782608 0.008333333333333333 0  0.8921739130434783 0 0  0.8921739130434783 0.008333333333333333 0  0.9004347826086956 0 0  0.9004347826086956 0.008333333333333333 0  0.908695652173913 0 0  0.908695652173913 0.008333333333333333 0  0.9169565217391303 0 0  0.9169565217391303 0.008333333333333333 0  0.9252173913043478 0 0  0.9252173913043478 0.008333333333333333 0  0.9334782608695652 0 0  0.9334782608695652 0.008333333333333333 0  0.9417391304347826 0 0  0.9417391304347826 0.008333333333333333 0  0.95 0 0  0.95 0.008333333333333333 0  0.9582608695652173 0 0  0.9582608695652173 0.008333333333333333 0  0.9665217391304347 0 0  0.9665217391304347 0.008333333333333333 0  0.9747826086956521 0 0  0.9747826086956521 0.008333333333333333 0  0.9830434782608696 0 0  0.9830434782608696 0.008333333333333333 0  0.991304347826087 0 0  0.991304347826087 0.008333333333333333 0  0.9995652173913042 0 0  0.9995652173913042 0.008333333333333333 0  1.007826086956522 0 0  1.007826086956522 0.008333333333333333 0  1.016086956521739 0 0  1.016086956521739 0.008333333333333333 0  1.024347826086957 0 0  1.024347826086957 0.008333333333333333 0  1.032608695652174 0 0  1.032608695652174 0.008333333333333333 0  1.040869565217391 0 0  1.040869565217391 0.008333333333333333 0  1.049130434782609 0 0  1.049130434782609 0.008333333333333333 0  1.057391304347826 0 0  1.057391304347826 0.008333333333333333 0  1.065652173913043 0 0  1.065652173913043 0.008333333333333333 0  1.073913043478261 0 0  1.073913043478261 0.008333333333333333 0  1.082173913043478 0 0  1.082173913043478 0.008333333333333333 0  1.090434782608696 0 0  1.090434782608696 0.008333333333333333 0  1.098695652173913 0 0  1.098695652173913 0.008333333333333333 0  1.10695652173913 0 0  1.10695652173913 0.008333333333333333 0  1.115217391304348 0 0  1.115217391304348 0.008333333333333333 0  1.123478260869565 0 0  1.123478260869565 0.008333333333333333 0  1.131739130434783 0 0  1.131739130434783 0.008333333333333333 0  1.14 0 0  1.14 0.008333333333333333 0  1.148260869565217 0 0  1.148260869565217 0.008333333333333333 0  1.156521739130435 0 0  1.156521739130435 0.008333333333333333 0  1.164782608695652 0 0  1.164782608695652 0.008333333333333333 0  1.17304347826087 0 0  1.17304347826087 0.008333333333333333 0  0.4956521739130435 0.01666666666666667 0  0.5039130434782608 0.01666666666666667 0  0.5121739130434783 0.01666666666666667 0  0.5204347826086956 0.01666666666666667 0  0.528695652173913 0.01666666666666667 0  0.5369565217391304 0.01666666666666667 0  0.5452173913043478 0.01666666666666667 0  0.5534782608695652 0.01666666666666667 0  0.5617391304347825 0.01666666666666667 0  0.57 0.01666666666666667 0  0.5782608695652174 0.01666666666666667 0  0.5865217391304348 0.01666666666666667 0  0.5947826086956521 0.01666666666666667 0  0.6030434782608696 0.01666666666666667 0  0.6113043478260869 0.01666666666666667 0  0.6195652173913043 0.01666666666666667 0  0.6278260869565218 0.01666666666666667 0  0.6360869565217391 0.01666666666666667 0  0.6443478260869565 0.01666666666666667 0  0.6526086956521739 0.01666666666666667 0  0.6608695652173913 0.01666666666666667 0  0.6691304347826087 0.01666666666666667 0  0.677391304347826 0.01666666666666667 0  0.6856521739130435 0.01666666666666667 0  0.6939130434782609 0.01666666666666667 0  0.7021739130434783 0.01666666666666667 0  0.7104347826086956 0.01666666666666667 0  0.718695652173913 0.01666666666666667 0  0.7269565217391304 0.01666666666666667 0  0.7352173913043478 0.01666666666666667 0  0.7434782608695653 0.01666666666666667 0  0.7517391304347827 0.01666666666666667 0  0.7599999999999999 0.01666666666666667 0  0.7682608695652173 0.01666666666666667 0  0.7765217391304348 0.01666666666666667 0  0.7847826086956522 0.01666666666666667 0  0.7930434782608695 0.01666666666666667 0  0.8013043478260868 0.01666666666666667 0  0.8095652173913043 0.01666666666666667 0  0.8178260869565217 0.01666666666666667 0  0.8260869565217391 0.01666666666666667 0  0.8343478260869565 0.01666666666666667 0  0.8426086956521739 0.01666666666666667 0  0.8508695652173912 0.01666666666666667 0  0.8591304347826086 0.01666666666666667 0  0.8673913043478261 0.01666666666666667 0  0.8756521739130434 0.01666666666666667 0  0.8839130434782608 0.01666666666666667 0  0.8921739130434783 0.01666666666666667 0  0.9004347826086956 0.01666666666666667 0  0.908695652173913 0.01666666666666667 0  0.9169565217391303 0.01666666666666667 0  0.9252173913043478 0.01666666666666667 0  0.9334782608695652 0.01666666666666667 0  0.9417391304347826 0.01666666666666667 0  0.95 0.01666666666666667 0  0.9582608695652173 0.01666666666666667 0  0.9665217391304347 0.01666666666666667 0  0.9747826086956521 0.01666666666666667 0  0.9830434782608696 0.01666666666666667 0  0.991304347826087 0.01666666666666667 0  0.9995652173913042 0.01666666666666667 0  1.007826086956522 0.01666666666666667 0  1.016086956521739 0.01666666666666667 0  1.024347826086957 0.01666666666666667 0  1.032608695652174 0.01666666666666667 0  1.040869565217391 0.01666666666666667 0  1.049130434782609 0.01666666666666667 0  1.057391304347826 0.01666666666666667 0  1.065652173913043 0.01666666666666667 0  1.073913043478261 0.01666666666666667 0  1.082173913043478 0.01666666666666667 0  1.090434782608696 0.01666666666666667 0  1.098695652173913 0.01666666666666667 0  1.10695652173913 0.01666666666666667 0  1.115217391304348 0.01666666666666667 0  1.123478260869565 0.01666666666666667 0  1.131739130434783 0.01666666666666667 0  1.14 0.01666666666666667 0  1.148260869565217 0.01666666666666667 0  1.156521739130435 0.01666666666666667 0  1.164782608695652 0.01666666666666667 0  1.17304347826087 0.01666666666666667 0  0.5039130434782608 0.025 0  0.5121739130434783 0.025 0  0.5204347826086956 0.025 0  0.528695652173913 0.025 0  0.5369565217391304 0.025 0  0.5452173913043478 0.025 0  0.5534782608695652 0.025 0  0.5617391304347825 0.025 0  0.57 0.025 0  0.5782608695652174 0.025 0  0.5865217391304348 0.025 0  0.5947826086956521 0.025 0  0.6030434782608696 0.025 0  0.6113043478260869 0.025 0  0.6195652173913043 0.025 0  0.6278260869565218 0.025 0  0.6360869565217391 0.025 0  0.6443478260869565 0.025 0  0.6526086956521739 0.025 0  0.6608695652173913 0.025 0  0.6691304347826087 0.025 0  0.677391304347826 0.025 0  0.6856521739130435 0.025 0  0.6939130434782609 0.025 0  0.7021739130434783 0.025 0  0.7104347826086956 0.025 0  0.718695652173913 0.025 0  0.7269565217391304 0.025 0  0.7352173913043478 0.025 0  0.7434782608695653 0.025 0  0.7517391304347827 0.025 0  0.7599999999999999 0.0
[...]
<PointData  Vectors="Displacement"> 
<DataArray  type="Float64"  Name="Displacement"  NumberOfComponents="3" format="ascii">4.9638429301808601e-05 1.4693303198215328e-04 0.0000000000000000e+00  5.0258559216202308e-05 1.4926627401855647e-04 0.0000000000000000e+00  4.7901690355687968e-05 1.4905809685209124e-04 0.0000000000000000e+00  4.7274471686016236e-05 1.4672636672154006e-04 0.0000000000000000e+00  5.0884325839252060e-05 1.5159217376836044e-04 0.0000000000000000e+00  4.8533576144365063e-05 1.5138230060455672e-04 0.0000000000000000e+00  5.1516498579531677e-05 1.5391148527302132e-04 0.0000000000000000e+00  4.9170565113155542e-05 1.5369965502944695e-04 0.0000000000000000e+00  5.2155939102737039e-05 1.5622571829130427e-04 0.0000000000000000e+00  4.9813103865716448e-05 1.5601169084398397e-04 0.0000000000000000e+00  5.2803417890607185e-05 1.5853695841953905e-04 0.0000000000000000e+00  5.0461576215350320e-05 1.5832053663710047e-04 0.0000000000000000e+00  5.3459541695915016e-05 1.6084770546871682e-04 0.0000000000000000e+00  5.1116282701089883e-05 1.6062873269955100e-04 0.0000000000000000e+00  5.4124706786514622e-05 1.6316078595854234e-04 0.0000000000000000e+00  5.1777422860790595e-05 1.6293914954349588e-04 0.0000000000000000e+00  5.4799026753517670e-05 1.6547927328759658e-04 0.0000000000000000e+00  5.2445067692568134e-05 1.6525492160685180e-04 0.0000000000000000e+00  5.5482210385868146e-05 1.6780636004472464e-04 0.0000000000000000e+00  5.3119107455276777e-05 1.6757934590531237e-04 0.0000000000000000e+00  5.6173392166284722e-05 1.7014512039089657e-04 0.0000000000000000e+00  5.3799153392571951e-05 1.6991567652737934e-04 0.0000000000000000e+00  5.6870979466292858e-05 1.7249810910686855e-04 0.0000000000000000e+00  5.4484402778463470e-05 1.7226672511201022e-04 0.0000000000000000e+00  5.7572652841888049e-05 1.7486681362692056e-04 0.0000000000000000e+00  5.5173560245063491e-05 1.7463424591042403e-04 0.0000000000000000e+00  5.8275670757968300e-05 1.7725107898295200e-04 0.0000000000000000e+00  5.5864975219384304e-05 1.7701823077713032e-04 0.0000000000000000e+00  5.8977555976715527e-05 1.7964870539211340e-04 0.0000000000000000e+00  5.6557106494663396e-05 1.7941635339825069e-04 0.0000000000000000e+00  5.9677410731419590e-05 1.8205508789372429e-04 0.0000000000000000e+00  5.7249637746588802e-05 1.8182319408608895e-04 0.0000000000000000e+00  6.0375902758603146e-05 1.8446620132152287e-04 0.0000000000000000e+00  5.7943169591677186e-05 1.8423427296987977e-04 0.0000000000000000e+00  6.1074050683695730e-05 1.8688007116285903e-04 0.0000000000000000e+00  5.8638310725735970e-05 1.8664774526570922e-04 0.0000000000000000e+00  6.1772337037134547e-05 1.8929582280948550e-04 0.0000000000000000e+00  5.9335322037611408e-05 1.8906303390171466e-04 0.0000000000000000e+00  6.2470784589762832e-05 1.9171212446904951e-04 0.0000000000000000e+00  6.0034403053691708e-05 1.9147888641479397e-04 0.0000000000000000e+00  6.3169204190053962e-05 1.9412704652208745e-04 0.0000000000000000e+00  6.0735709656018662e-05 1.9389343149383287e-04 0.0000000000000000e+00  6.3867072907415894e-05 1.9653850676779085e-04 0.0000000000000000e+00  6.1438934643965416e-05 1.9630486351727671e-04 0.0000000000000000e+00  6.4564128594599637e-05 1.9894318712683452e-04 0.0000000000000000e+00  6.2143793747738508e-05 1.9870972305117461e-04 0.0000000000000000e+00  6.5261579268134583e-05 2.0133658878424072e-04 0.0000000000000000e+00  6.2851007302612154e-05 2.0110277484310828e-04 0.0000000000000000e+00  6.5962050584145464e-05 2.0371585169061369e-04 0.0000000000000000e+00  6.3562043018599004e-05 2.0348075842137320e-04 0.0000000000000000e+00  6.6668523957873893e-05 2.0608101412404345e-04 0.0000000000000000e+00  6.4278398055948158e-05 2.0584379336602464e-04 0.0000000000000000e+00  6.7383490314175805e-05 2.0843436469767767e-04 0.0000000000000000e+00  6.5001232848413697e-05 2.0819442203463858e-04 0.0000000000000000e+00  6.8108678003994831e-05 2.1077943395407970e-04 0.0000000000000000e+00  6.5731323021994825e-05 2.1053641102865362e-04 0.0000000000000000e+00  6.8845138697568861e-05 2.1312028577462146e-04 0.0000000000000000e+00  6.6469138050949446e-05 2.1287398722597621e-04 0.0000000000000000e+00  6.9593441629861894e-05 2.1546115422257879e-04 0.0000000000000000e+00  6.7214938770744935e-05 2.1521148009334074e-04 0.0000000000000000e+00  7.0353839015883457e-05 2.1780630309291697e-04 0.0000000000000000e+00  6.7968852660121569e-05 2.1755320521039750e-04 0.0000000000000000e+00  7.1126351800616196e-05 2.2015998627137343e-04 0.0000000000000000e+00  6.8730913767076478e-05 2.1990345276475933e-04 0.0000000000000000e+00  7.1910769655980232e-05 2.2252641468502359e-04 0.0000000000000000e+00  6.9501062965018003e-05 2.2226648353594052e-04 0.0000000000000000e+00  7.2706586530913212e-05 2.2490965598673119e-04 0.0000000000000000e+00  7.0279109271006342e-05 2.2464645559946742e-04 0.0000000000000000e+00  7.3512927811027711e-05 2.2731341745781895e-04 0.0000000000000000e+00  7.1064663525681118e-05 2.2704721619405099e-04 0.0000000000000000e+00  7.4328572782648227e-05 2.2974071615172997e-04 0.0000000000000000e+00  7.1857095476581475e-05 2.2947193265105017e-04 0.0000000000000000e+00  7.5152291153124438e-05 2.3219340759780374e-04 0.0000000000000000e+00  7.2655733263263491e-05 2.3192244340288271e-04 0.0000000000000000e+00  7.5983321441546362e-05 2.3467229957730359e-04 0.0000000000000000e+00  7.3460139100754628e-05 2.3439936864208863e-04 0.0000000000000000e+00  7.6821857749648505e-05 2.3717755914693156e-04 0.0000000000000000e+00  7.4270476374594725e-05 2.3690247671952086e-04 0.0000000000000000e+00  7.7668884860426362e-05 2.3971014083741659e-04 0.0000000000000000e+00  7.5087295493191583e-05 2.3943253035887336e-04 0.0000000000000000e+00  7.8525608785974239e-05 2.4227232882751733e-04 0.0000000000000000e+00  7.5911162269020715e-05 2.4199185307733918e-04 0.0000000000000000e+00  7.9393096471518969e-05 2.4486736289291641e-04 0.0000000000000000e+00  7.6742535477836990e-05 2.4458375873081525e-04 0.0000000000000000e+00  8.0272169759698384e-05 2.4749910322459221e-04 0.0000000000000000e+00  7.7581768905066057e-05 2.4721215592442503e-04 0.0000000000000000e+00  8.1163344506547132e-05 2.5017190554983150e-04 0.0000000000000000e+00  7.8429102942850334e-05 2.4988144646228769e-04 0.0000000000000000e+00  8.2066700679046071e-05 2.5289050456791059e-04 0.0000000000000000e+00  7.9284632106640192e-05 2.5259644275599653e-04 0.0000000000000000e+00  8.2981637759471343e-05 2.5565976128225402e-04 0.0000000000000000e+00  8.0148221128596112e-05 2.5536218549273188e-04 0.0000000000000000e+00  8.3906540637762768e-05 2.5848413513008314e-04 0.0000000000000000e+00  8.1019293863749095e-05 2.5818349461204565e-04 0.0000000000000000e+00  8.4838564902405564e-05 2.6136680418380556e-04 0.0000000000000000e+00  8.1896530681920422e-05 2.6106404450959721e-04 0.0000000000000000e+00  8.5773913067578760e-05 2.6430858078112625e-04 0.0000000000000000e+00  8.2777813193880747e-05 2.6400503919695611e-04 0.0000000000000000e+00  8.6708907202232157e-05 2.6730698104129332e-04 0.0000000000000000e+00  8.3660861319774193e-05 2.6700393459362735e-04 0.0000000000000000e+00  8.7642721658317521e-05 2.7035485656452178e-04 0.0000000000000000e+00  8.4545647334393796e-05 2.7005199086885018e-04 0.0000000000000000e+00  8.8577191589460689e-05 2.7344682785955461e-04 0.0000000000000000e+00  8.5433543808143041e-05 2.7314318932741735e-04 0.0000000000000000e+00  8.9514479709869074e-05 2.7658152515353364e-04 0.0000000000000000e+00  8.6325534895500069e-05 2.7627661137418673e-04 0.0000000000000000e+00  9.0455949526419460e-05 2.7975929316876859e-04 0.0000000000000000e+00  8.7221860850501245e-05 2.7945305562936964e-04 0.0000000000000000e+00  9.1403102009757133e-05 2.8297974567469624e-04 0.0000000000000000e+00  8.8123117262722966e-05 2.8267179526564790e-04 0.0000000000000000e+00  9.2358563316103479e-05 2.8624268778868449e-04 0.0000000000000000e+00  8.9030945079895845e-05 2.8593197256620401e-04 0.0000000000000000e+00  9.3324926771236078e-05 2.8955122874267750e-04 0.0000000000000000e+00  8.9946804659359823e-05 2.8923701369405058e-04 0.0000000000000000e+00  9.4303686567919563e-05 2.9291016599349067e-04 0.0000000000000000e+00  9.0871495224159428e-05 2.9259226718814850e-04 0.0000000000000000e+00  9.5295286074447281e-05 2.9632403574759249e-04 0.0000000000000000e+00  9.1805179772320503e-05 2.9600272231003163e-04 0.0000000000000000e+00  9.6300028087239955e-05 2.9979612535678611e-04 0.0000000000000000e+00  9.2747623105180271e-05 2.9947177941021708e-04 0.0000000000000000e+00  9.7319712244683826e-05 3.0332850988737609e-04 0.0000000000000000e+00  9.3699058355522344e-05 3.0300091982761403e-04 0.0000000000000000e+00  9.8359598981982352e-05 3.0692351981690508e-04 0.0000000000000000e+00  9.4661743538544720e-05 3.0659094768456128e-04 0.0000000000000000e+00  9.9428172641747494e-05 3.1058891166630537e-04 0.0000000000000000e+00  9.5639766376153236e-05 3.1024858910036501e-04 0.0000000000000000e+00  1.0053519935866232e-04 3.1434020038488759e-04 0.0000000000000000e+00  9.6638147208619242e-05 3.1398902407259459e-04 0.0000000000000000e+00  1.0168865170829282e-04 3.1820148675630659e-04 0.0000000000000000e+00  9.7660944920779274e-05 3.1783718991103656e-04 0.0000000000000000e+00  1.0289216922540121e-04 3.2220256306377535e-04 0.0000000000000000e+00  9.8709902471594071e-05 3.2182428418033027e-04 0.0000000000000000e+00  1.0414400541968721e-04 3.2637463097243884e-04 0.0000000000000000e+00  9.9784186210572114e-05 3.2598282823582156e-04 0.0000000000000000e+00  1.0543608605982731e-04 3.3074774973385480e-04 0.0000000000000000e+00  1.0087980987963629e-04 3.3034458336189091e-04 0.0000000000000000e+00  1.0675251281009418e-04 3.3534786647365655e-04 0.0000000000000000e+00  1.0198842059651069e-04 3.3493803275447471e-04 0.0000000000000000e+00  1.0806850639794111e-04 3.4019184924506327e-04 0.0000000000000000e+00  1.0309603740148796e-04 3.3978329280923646e-04 0.0000000000000000e+00  1.0935196564829164e-04 3.4528031615369811e-04 0.0000000000000000e+00  1.0418335752331286e-04 3.4488383982985560e-04 0.0000000000000000e+00  1.1057221466237121e-04 3.5058717850062977e-04 0.0000000000000000e+00  1.0523222222477673e-04 3.5021203164260453e-04 0.0000000000000000e+00  1.1171012896239534e-04 3.5606456113690421e-04 0.0000000000000000e+00  1.0623171568564221e-04 3.5571500608626993e-04 0.0000000000000000e+00  1.1276091713974796e-04 3.6166052002479545e-04 0.0000000000000000e+00  1.0717827465008276e-04 3.6133643889837237e-04 0.0000000000000000e+00  1.1373112079604225e-04 3.6733094717223390e-04 0.0000000000000000e+00  1.0807394154716672e-04 3.6702926843448796e-04 0.0000000000000000e+00  1.1463370196669671e-04 3.7304473071549078e-04 0.0000000000000000e+00  1.0892455293782707e-04 3.7276088049273664e-04 0.0000000000000000e+00  1.1548204298618574e-04 3.7878563537259473e-04 0.0000000000000000e+00  1.0973649444754008e-04 3.7851571484231723e-04 0.0000000000000000e+00  1.1628482758979277e-04 3.8454854461684139e-04 0.0000000000000000e+00  1.1051347323993806e-04 3.8429098774386632e-04 0.0000000000000000e+00  1.1704558248192499e-04 3.9033012181373470e-04 0.0000000000000000e+00  1.1125672112556629e-04 3.9008486334297926e-04 0.0000000000000000e+00  1.1776527758914467e-04 3.9612436205261660e-04 0.0000000000000000e+00  1.1196652712959703e-04 3.9589163262937797e-04 0.0000000000000000e+00  1.1844525398207563e-04 4.0192234736329761e-04 0.0000000000000000e+00  1.1264387822762484e-04 4.0170172372718693e-04 0.0000000000000000e+00  1.1908883183174153e-04 4.0771457966443342e-04 0.0000000000000000e+00  1.1329133818756730e-04 4.0750465883229676e-04 0.0000000000000000e+00  1.1970044835351169e-04 4.1349466372608834e-04 0.0000000000000000e+00  1.1391210069974158e-04 4.1329385529753377e-04 0.0000000000000000e+00  1.2028337834716837e-04 4.1926034396895371e-04 0.0000000000000000e+00  1.1450825143449254e-04 4.1906792145554383e-04 0.0000000000000000e+00  4.5533287618195061e-05 1.4884831431762825e-04 0.0000000000000000e+00  4.6170520326550333e-05 1.5117138995025234e-04 0.0000000000000000e+00  4.6811444628937112e-05 1.5348724866739359e-04 0.0000000000000000e+00  4.7456290378464256e-05 1.5579757470617230e-04 0.0000000000000000e+00  4.8105171117183040e-05 1.5810457664561158e-04 0.0000000000000000e+00  4.8758167631213370e-05 1.6041079862597957e-04 0.0000000000000000e+00  4.9415371272166060e-05 1.6271908495004119e-04 0.0000000000000000e+00  5.0076912045640847e-05 1.6503253544912340e-04 0.0000000000000000e+00  5.0742973242222391e-05 1.6735445237933924e-04 0.0000000000000000e+00  5.1413739651833119e-05 1.6968823841828165e-04 0.0000000000000000e+00  5.2089186292307754e-05 1.7203709106658634e-04 0.0000000000000000e+00  5.2768722787942257e-05 1.7440332433382361e-04 0.0000000000000000e+00  5.3451012559175820e-05 1.7678738159209733e-04 0.0000000000000000e+00  5.4134417961527564e-05 1.7918687457976640e-04 0.0000000000000000e+00  5.4819276502859540e-05 1.8159424183593584e-04 0.0000000000000000e+00  5.5507054471137665e-05 1.8400441187703108e-04 0.0000000000000000e+00  5.6198559970942269e-05 1.8641641404661951e-04 0.0000000000000000e+00  5.6893766524571883e-05 1.8883043210911991e-04 0.0000000000000000e+00  5.7592991623074317e-05 1.9124500322924068e-04 0.0000000000000000e+00  5.8296916954084459e-05 1.9365826889367700e-04 0.0000000000000000e+00  5.9005032793809072e-05 1.9606954928627453e-04 0.0000000000000000e+00  5.9716197425841357e-05 1.9847523572451354e-04 0.0000000000000000e+00  6.0430659127774797e-05 2.0086821762569575e-04 0.0000000000000000e+00  6.1149462621030670e-05 2.0324471907772011e-04 0.0000000000000000e+00  6.1873266996573581e-05 2.0560545227211869e-04 0.0000000000000000e+00  6.2602169458794580e-05 2.0795353601446055e-04 0.0000000000000000e+00  6.3335984680547199e-05 2.1029301985573838e-04 0.0000000000000000e+00  6.4074480081853988e-05 2.1262820089242278e-04 0.0000000000000000e+00  6.4817484058333740e-05 2.1496337573692357e-04 0.0000000000000000e+00  6.5564918616919577e-05 2.1730279019561234e-04 0.0000000000000000e+00  6.6316802772545982e-05 2.1965066780537876e-04 0.0000000000000000e+00  6.7073235547449533e-05 2.2201124550180184e-04 0.0000000000000000e+00  6.7834340219710329e-05 2.2438875438381020e-04 0.0000000000000000e+00  6.8600141435114597e-05 2.2678727615789695e-04 0.0000000000000000e+00  6.9370345696631079e-05 2.2921036485429018e-04 0.0000000000000000e+00  7.0144467642493453e-05 2.3165988345636660e-04 0.0000000000000000e+00  7.0922051378744151e-05 2.3413617915778030e-04 0.0000000000000000e+00  7.1703359165949926e-05 2.3663814545277651e-04 0.0000000000000000e+00  7.2488937867111122e-05 2.3916640159798327e-04 0.0000000000000000e+00  7.3279033603102628e-05 2.4172361790520346e-04 0.0000000000000000e+00  7.4073654429125590e-05 2.4431327524277716e-04 0.0000000000000000e+00  7.4872796374882513e-05 2.4693925102461342e-04 0.0000000000000000e+00  7.5676542508538200e-05 2.4960585685894433e-04 0.0000000000000000e+00  7.6485127649602826e-05 2.5231779785706368e-04 0.0000000000000000e+00  7.7299003726579205e-05 2.5508010473526764e-04 0.0000000000000000e+00  7.8118752887151237e-05 2.5789800413352810e-04 0.0000000000000000e+00  7.8944442268014212e-05 2.6077619523283901e-04 0.0000000000000000e+00  7.9774625401626034e-05 2.6371707654753389e-04 0.0000000000000000e+00  8.0606444894443856e-05 2.6671847627078918e-04 0.0000000000000000e+00  8.1440775285006000e-05 2.6976712745711623e-04 0.0000000000000000e+00  8.2280180948410164e-05 2.7285649637890194e-04 0.0000000000000000e+00  8.3125310272539501e-05 2.7598797162169272e-04 0.0000000000000000e+00  8.3974688513810140e-05 2.7916380536320199e-04 0.0000000000000000e+00  8.4827456307769733e-05 2.8238197765048249e-04 0.0000000000000000e+00  8.5685004245615758e-05 2.8563958756602179e-04 0.0000000000000000e+00  8.6548250553686060e-05 2.8894132577642263e-04 0.0000000000000000e+00  8.7417175153283743e-05 2.9229369337791975e-04 0.0000000000000000e+00  8.8291209497853851e-05 2.9570264664354715e-04 0.0000000000000000e+00  8.9168689698538743e-05 2.9917237942197046e-04 0.0000000000000000e+00  9.0046984504492617e-05 3.0270376723508024e-04 0.0000000000000000e+00  9.0925289994719564e-05 3.0629428895923716e-04 0.0000000000000000e+00  9.1804723867182792e-05 3.0994892968151541e-04 0.0000000000000000e+00  9.2688275994693656e-05 3.1368192926588766e-04 0.0000000000000000e+00  9.3578803483414070e-05 3.1751962391631205e-04 0.0000000000000000e+00  9.4477893042351356e-05 3.2149483939910895e-04 0.0000000000000000e+00  9.5386890257478791e-05 3.2564020924010168e-04 0.0000000000000000e+00  9.6306896697109220e-05 3.2998817518293025e-04 0.0000000000000000e+00  9.7237077060964588e-05 3.3457020313473800e-04 0.0000000000000000e+00  9.8171350837185617e-05 3.3941241312538951e-04 0.0000000000000000e+00  9.9095256923852730e-05 3.4452553790555439e-04 0.0000000000000000e+00  9.9995080574017179e-05 3.4987791201077990e-04 0.0000000000000000e+00  1.0086599965668729e-04 3.5540662140029830e-04 0.0000000000000000e+00  1.0170783956174859e-04 3.6105050315112446e-04 0.0000000000000000e+00  1.0252144578021692e-04 3.6676019222045070e-04 0.0000000000000000e+00  1.0330997698392033e-04 3.7250154237499460e-04 0.0000000000000000e+00  1.0407720657494207e-04 3.7826141318942074e-04 0.0000000000000000e+00  1.0482324642110823e-04 3.8404267629552324e-04 0.0000000000000000e+00  1.0554582914308689e-04 3.8984549770214164e-04 0.0000000000000000e+00  1.0624246888293362e-04 3.9566355541147135e-04 0.0000000000000000e+00  1.0691246300998991e-04 4.0148498299111144e-04 0.0000000000000000e+00  1.0755824495789541e-04 4.0729662541977990e-04 0.0000000000000000e+00  1.0818346162866789e-04 4.1309179606827779e-04 0.0000000000000000e+00  1.0878957325711199e-04 4.1887178509699709e-04 0.0000000000000000e+00  4.3798450798426809e-05 1.5095986014987926e-04 0.0000000000000000e+00  4.4443209042726794e-05 1.5327464957088637e-04 0.0000000000000000e+00  4.5090317245312123e-05 1.5558367781569787e-04 0.0000000000000000e+00  4.5739615800979826e-05 1.5788929604246263e-04 0.0000000000000000e+00  4.6390971136928355e-05 1.6019401387486971e-04 0.0000000000000000e+00  4.7044360088646467e-05 1.6250058041950463e-04 0.0000000000000000e+00  4.7699937617825440e-05 1.6481195147472930e-04 0.0000000000000000e+00  4.8358124989914537e-05 1.6713128328099127e-04 0.0000000000000000e+00  4.9019665567014214e-05 1.6946200475418454e-04 0.0000000000000000e+00  4.9685487794158198e-05 1.7180785221655324e-04 0.0000000000000000e+00  5.0355983904751341e-05 1.7417234468166843e-04 0.0000000000000000e+00  5.1029952259086304e-05 1.7655722791742323e-04 0.0000000000000000e+00  5.1704721086569251e-05 1.7896035262260915e-04 0.0000000000000000e+00  5.2381486948242497e-05 1.8136894046889973e-04 0.0000000000000000e+00  5.3063204377455962e-05 1.8377714577384529e-04 0.0000000000000000e+00  5.3750865042891822e-05 1.8618647319069515e-04 0.0000000000000000e+00  5.4443513182438351e-05 1.8859866705495362e-04 0.0000000000000000e+00  5.5141486311493353e-05 1.9101100390745383e-04 0.0000000000000000e+00  5.5846940613359310e-05 1.9342137226888254e-04 0.0000000000000000e+00  5.6559625231595567e-05 1.9583238823549939e-04 0.0000000000000000e+00  5.7277090511264771e-05 1.9824046799120070e-04 0.0000000000000000e+00  5.7998995021045121e-05 2.0063411629969214e-04 0.0000000000000000e+00  5.8725941202496018e-05 2.0300881695426091e-04 0.0000000000000000e+00  5.9457594871074170e-05 2.0536678752506064e-04 0.0000000000000000e+00  6.0192869278864882e-05 2.0771223390135830e-04 0.0000000000000000e+00  6.0930597923254089e-05 2.1004958191890905e-04 0.0000000000000000e+00  6.1669880880950426e-05 2.1238310484239146e-04 0.0000000000000000e+00  6.2410152790404725e-05 2.1471692516132680e-04 0.0000000000000000e+00  6.3151144605431381e-05 2.1705507998393637e-04 0.0000000000000000e+00  6.3892842502437123e-05 2.1940159636192600e-04 0.0000000000000000e+00  6.4635473058909516e-05 2.2176058098491276e-04 0.0000000000000000e+00  6.5379450699688195e-05 2.2413629159902894e-04 0.0000000000000000e+00  6.6125219273450872e-05 2.2653313560656657e-04 0.0000000000000000e+