<?xml version="1.0"?>
<VTKFile type="UnstructuredGrid"  version="0.1"  >
<UnstructuredGrid>
<Piece  NumberOfPoints="2513" NumberOfCells="4795">
<Points>
<DataArray  type="Float64"  NumberOfComponents="3"  format="ascii">0 0 0  0.008260869565217391 0 0  0.008260869565217391 0.008333333333333333 0  0 0.008333333333333333 0  0.01652173913043478 0 0  0.01652173913043478 0.008333333333333333 0  0.02478260869565217 0 0  0.02478260869565217 0.008333333333333333 0  0.03304347826086956 0 0  0.03304347826086956 0.008333333333333333 0  0.04130434782608695 0 0  0.04130434782608695 0.008333333333333333 0  0.04956521739130434 0 0  0.04956521739130434 0.008333333333333333 0  0.05782608695652174 0 0  0.05782608695652174 0.008333333333333333 0  0.06608695652173913 0 0  0.06608695652173913 0.008333333333333333 0  0.07434782608695652 0 0  0.07434782608695652 0.008333333333333333 0  0.08260869565217391 0 0  0.08260869565217391 0.008333333333333333 0  0.0908695652173913 0 0  0.0908695652173913 0.008333333333333333 0  0.09913043478260869 0 0  0.09913043478260869 0.008333333333333333 0  0.1073913043478261 0 0  0.1073913043478261 0.008333333333333333 0  0.1156521739130435 0 0  0.1156521739130435 0.008333333333333333 0  0.1239130434782609 0 0  0.1239130434782609 0.008333333333333333 0  0.1321739130434783 0 0  0.1321739130434783 0.008333333333333333 0  0.1404347826086956 0 0  0.1404347826086956 0.008333333333333333 0  0.148695652173913 0 0  0.148695652173913 0.008333333333333333 0  0.1569565217391304 0 0  0.1569565217391304 0.008333333333333333 0  0.1652173913043478 0 0  0.1652173913043478 0.008333333333333333 0  0.1734782608695652 0 0  0.1734782608695652 0.008333333333333333 0  0.1817391304347826 0 0  0.1817391304347826 0.008333333333333333 0  0.19 0 0  0.19 0.008333333333333333 0  0.1982608695652174 0 0  0.1982608695652174 0.008333333333333333 0  0.2065217391304348 0 0  0.2065217391304348 0.008333333333333333 0  0.2147826086956522 0 0  0.2147826086956522 0.008333333333333333 0  0.2230434782608696 0 0  0.2230434782608696 0.008333333333333333 0  0.2313043478260869 0 0  0.2313043478260869 0.008333333333333333 0  0.2395652173913043 0 0  0.2395652173913043 0.008333333333333333 0  0.2478260869565218 0 0  0.2478260869565218 0.008333333333333333 0  0.2560869565217391 0 0  0.2560869565217391 0.008333333333333333 0  0.2643478260869565 0 0  0.2643478260869565 0.008333333333333333 0  0.2726086956521739 0 0  0.2726086956521739 0.008333333333333333 0  0.2808695652173913 0 0  0.2808695652173913 0.008333333333333333 0  0.2891304347826087 0 0  0.2891304347826087 0.008333333333333333 0  0.2973913043478261 0 0  0.2973913043478261 0.008333333333333333 0  0.3056521739130434 0 0  0.3056521739130434 0.008333333333333333 0  0.3139130434782609 0 0  0.3139130434782609 0.008333333333333333 0  0.3221739130434783 0 0  0.3221739130434783 0.008333333333333333 0  0.3304347826086956 0 0  0.3304347826086956 0.008333333333333333 0  0.338695652173913 0 0  0.338695652173913 0.008333333333333333 0  0.3469565217391304 0 0  0.3469565217391304 0.008333333333333333 0  0.3552173913043478 0 0  0.3552173913043478 0.008333333333333333 0  0.3634782608695652 0 0  0.3634782608695652 0.008333333333333333 0  0.3717391304347826 0 0  0.3717391304347826 0.008333333333333333 0  0.3799999999999999 0 0  0.3799999999999999 0.008333333333333333 0  0.3882608695652174 0 0  0.3882608695652174 0.008333333333333333 0  0.3965217391304348 0 0  0.3965217391304348 0.008333333333333333 0  0.4047826086956521 0 0  0.4047826086956521 0.008333333333333333 0  0.4130434782608696 0.008333333333333333 0  0.008260869565217391 0.01666666666666667 0  0 0.01666666666666667 0  0.01652173913043478 0.01666666666666667 0  0.02478260869565217 0.01666666666666667 0  0.03304347826086956 0.01666666666666667 0  0.04130434782608695 0.01666666666666667 0  0.04956521739130434 0.01666666666666667 0  0.05782608695652174 0.01666666666666667 0  0.06608695652173913 0.01666666666666667 0  0.07434782608695652 0.01666666666666667 0  0.08260869565217391 0.01666666666666667 0  0.0908695652173913 0.01666666666666667 0  0.09913043478260869 0.01666666666666667 0  0.1073913043478261 0.01666666666666667 0  0.1156521739130435 0.01666666666666667 0  0.1239130434782609 0.01666666666666667 0  0.1321739130434783 0.01666666666666667 0  0.1404347826086956 0.01666666666666667 0  0.148695652173913 0.01666666666666667 0  0.1569565217391304 0.01666666666666667 0  0.1652173913043478 0.01666666666666667 0  0.1734782608695652 0.01666666666666667 0  0.1817391304347826 0.01666666666666667 0  0.19 0.01666666666666667 0  0.1982608695652174 0.01666666666666667 0  0.2065217391304348 0.01666666666666667 0  0.2147826086956522 0.01666666666666667 0  0.2230434782608696 0.01666666666666667 0  0.2313043478260869 0.01666666666666667 0  0.2395652173913043 0.01666666666666667 0  0.2478260869565218 0.01666666666666667 0  0.2560869565217391 0.01666666666666667 0  0.2643478260869565 0.01666666666666667 0  0.2726086956521739 0.01666666666666667 0  0.2808695652173913 0.01666666666666667 0  0.2891304347826087 0.01666666666666667 0  0.2973913043478261 0.01666666666666667 0  0.3056521739130434 0.01666666666666667 0  0.3139130434782609 0.01666666666666667 0  0.3221739130434783 0.01666666666666667 0  0.3304347826086956 0.01666666666666667 0  0.338695652173913 0.01666666666666667 0  0.3469565217391304 0.01666666666666667 0  0.3552173913043478 0.01666666666666667 0  0.3634782608695652 0.01666666666666667 0  0.3717391304347826 0.01666666666666667 0  0.3799999999999999 0.01666666666666667 0  0.3882608695652174 0.01666666666666667 0  0.3965217391304348 0.01666666666666667 0  0.4047826086956521 0.01666666666666667 0  0.4130434782608696 0.01666666666666667 0  0.008260869565217391 0.025 0  0 0.025 0  0.01652173913043478 0.025 0  0.02478260869565217 0.025 0  0.03304347826086956 0.025 0  0.04130434782608695 0.025 0  0.04956521739130434 0.025 0  0.05782608695652174 0.025 0  0.06608695652173913 0.025 0  0.07434782608695652 0.025 0  0.08260869565217391 0.025 0  0.0908695652173913 0.025 0  0.09913043478260869 0.025 0  0.1073913043478261 0.025 0  0.1156521739130435 0.025 0  0.1239130434782609 0.025 0  0.1321739130434783 0.025 0  0.1404347826086956 0.025 0  0.148695652173913 0.025 0  0.1569565217391304 0.025 0  0.1652173913043478 0.025 0  0.1734782608695652 0.025 0  0.1817391304347826 0.025 0  0.19 0.025 0  0.1982608695652174 0.025 0  0.2065217391304348 0.025 0  0.2147826086956522 0.025 0  0.2230434782608696 0.025 0  0.2313043478260869 0.025 0  0.2395652173913043 0.025 0  0.2478260869565218 0.025 0  0.2560869565217391 0.025 0  0.2643478260869565 0.025 0  0.2726086956521739 0.025 0  0.2808695652173913 0.025 0  0.2891304347826087 0.025 0  0.2973913043478261 0.025 0  0.3056521739130434 0.025 0  0.3139130434782609 0.025 0  0.3221739130434783 0.025 0  0.3304347826086956 0.025 0  0.338695652173913 0.025 0  0.3469565217391304 0.025 0  0.3552173913043478 0.025 0  0.3634782608695652 0.025 0  0.3717391304347826 0.025 0  0.3799999999999999 0.025 0  0.3882608695652174 0.025 0  0.3965217391304348 0.025 0  0.4047826086956521 0.025 0  0.4130434782608696 0.025 0  0.4213043478260869 0.025 0  0.008260869565217391 0.03333333333333333 0  0 0.03333333333333333 0  0.01652173913043478 0.03333333333333333 0  0.02478260869565217 0.03333333333333333 0  0.03304347826086956 0.03333333333333333 0  0.04130434782608695 0.03333333333333333 0  0.04956521739130434 0.03333333333333333 0  0.05782608695652174 0.03333333333333333 0  0.06608695652173913 0.03333333333333333 0  0.07434782608695652 0.03333333333333333 0  0.08260869565217391 0.03333333333333333 0  0.0908695652173913 0.03333333333333333 0  0.09913043478260869 0.03333333333333333 0  0.1073913043478261 0.03333333333333333 0  0.1156521739130435 0.03333333333333333 0  0.1239130434782609 0.03333333333333333 0  0.1321739130434783 0.03333333333333333 0  0.1404347826086956 0.03333333333333333 0  0.148695652173913 0.03333333333333333 0  0.1569565217391304 0.03333333333333333 0  0.1652173913043478 0.03333333333333333 0  0.1734782608695652 0.03333333333333333 0  0.1817391304347826 0.03333333333333333 0  0.19 0.03333333333333333 0  0.1982608695652174 0.03333333333333333 0  0.2065217391304348 0.03333333333333333 0  0.2147826086956522 0.03333333333333333 0  0.2230434782608696 0.03333333333333333 0  0.2313043478260869 0.03333333333333333 0  0.2395652173913043 0.03333333333333333 0  0.2478260869565218 0.03333333333333333 0  0.2560869565217391 0.03333333333333333 0  0.2643478260869565 0.03333333333333333 0  0.2726086956521739 0.03333333333333333 0  0.2808695652173913 0.03333333333333333 0  0.2891304347826087 0.03333333333333333 0  0.2973913043478261 0.03333333333333333 0  0.3056521739130434 0.03333333333333333 0  0.3139130434782609 0.03333333333333333 0  0.3221739130434783 0.03333333333333333 0  0.3304347826086956 0.03333333333333333 0  0.338695652173913 0.03333333333333333 0  0.3469565217391304 0.03333333333333333 0  0.3552173913043478 0.03333333333333333 0  0.3634782608695652 0.03333333333333333 0  0.3717391304347826 0.03333333333333333 0  0.3799999999999999 0.03333333333333333 0  0.3882608695652174 0.03333333333333333 0  0.3965217391304348 0.03333333333333333 0  0.4047826086956521 0.03333333333333333 0  0.4130434782608696 0.03333333333333333 0  0.4213043478260869 0.03333333333333333 0  0.4295652173913043 0.03333333333333333 0  0.008260869565217391 0.04166666666666666 0  0 0.04166666666666666 0  0.01652173913043478 0.04166666666666666 0  0.02478260869565217 0.04166666666666666 0  0.03304347826086956 0.04166666666666666 0  0.04130434782608695 0.04166666666666666 0  0.04956521739130434 0.04166666666666666 0  0.05782608695652174 0.04166666666666666 0  0.06608695652173913 0.04166666666666666 0  0.07434782608695652 0.04166666666666666 0  0.08260869565217391 0.04166666666666666 0  0.0908695652173913 0.04166666666666666 0  0.09913043478260869 0.04166666666666666 0  0.1073913043478261 0.04166666666666666 0  0.1156521739130435 0.04166666666666666 0  0.1239130434782609 0.04166666666666666 0  0
[...]
<PointData  Vectors="Displacement"> 
<DataArray  type="Float64"  Name="Displacement"  NumberOfComponents="3" format="ascii">0.0000000000000000e+00 0.0000000000000000e+00 0.0000000000000000e+00  2.5651915269719351e-06 2.1132181265357524e-06 0.0000000000000000e+00  1.6332466175555125e-06 1.1222592342163330e-06 0.0000000000000000e+00  0.0000000000000000e+00 0.0000000000000000e+00 0.0000000000000000e+00  4.7445553584119040e-06 3.3832994612198833e-06 0.0000000000000000e+00  3.6030612208832671e-06 2.3917749393822193e-06 0.0000000000000000e+00  6.8522967498130529e-06 4.6349823303432827e-06 0.0000000000000000e+00  5.5218024023064475e-06 3.6523402357211280e-06 0.0000000000000000e+00  8.9537448309481769e-06 6.0410679252443606e-06 0.0000000000000000e+00  7.4028089858713796e-06 5.0601604479883261e-06 0.0000000000000000e+00  1.1065992555656704e-05 7.6717647432884228e-06 0.0000000000000000e+00  9.2629523997438092e-06 6.6892184036321273e-06 0.0000000000000000e+00  1.3193685116732864e-05 9.5641509641687665e-06 0.0000000000000000e+00  1.1112856086695667e-05 8.5782846171634944e-06 0.0000000000000000e+00  1.5338601028940194e-05 1.1741883445853903e-05 0.0000000000000000e+00  1.2959128482868085e-05 1.0751554707443654e-05 0.0000000000000000e+00  1.7502118414081789e-05 1.4223428957230661e-05 0.0000000000000000e+00  1.4805879406185699e-05 1.3227772485263865e-05 0.0000000000000000e+00  1.9685921261888352e-05 1.7025007420684696e-05 0.0000000000000000e+00  1.6655841432430170e-05 1.6023167381034606e-05 0.0000000000000000e+00  2.1892176554219872e-05 2.0162555459690238e-05 0.0000000000000000e+00  1.8511010759571615e-05 1.9153599509099019e-05 0.0000000000000000e+00  2.4123059751227514e-05 2.3653711447770317e-05 0.0000000000000000e+00  2.0372590117901763e-05 2.2636905009816763e-05 0.0000000000000000e+00  2.6380169672121637e-05 2.7518255543849465e-05 0.0000000000000000e+00  2.2240904253419251e-05 2.6493201648894507e-05 0.0000000000000000e+00  2.8664005689639141e-05 3.1778122909046811e-05 0.0000000000000000e+00  2.4115383231744260e-05 3.0744866827256257e-05 0.0000000000000000e+00  3.0972103826742499e-05 3.6459563753057255e-05 0.0000000000000000e+00  2.5993259459666171e-05 3.5419633522581848e-05 0.0000000000000000e+00  3.3298319821569583e-05 4.1588929938493102e-05 0.0000000000000000e+00  2.7869975715517757e-05 4.0545008470761533e-05 0.0000000000000000e+00  3.5630203819521220e-05 4.7194952124718168e-05 0.0000000000000000e+00  2.9737410696884185e-05 4.6152512819939780e-05 0.0000000000000000e+00  3.7948718559861430e-05 5.3298955603072059e-05 0.0000000000000000e+00  3.1585307391925353e-05 5.2265434506400771e-05 0.0000000000000000e+00  4.0224192708815160e-05 5.9918905849445887e-05 0.0000000000000000e+00  3.3397539188168518e-05 5.8906913261838835e-05 0.0000000000000000e+00  4.2418918733747939e-05 6.7047499471477873e-05 0.0000000000000000e+00  3.5156033651581345e-05 6.6071911694377746e-05 0.0000000000000000e+00  4.4484564171718169e-05 7.4661265231306233e-05 0.0000000000000000e+00  3.6835268198299197e-05 7.3743576614547927e-05 0.0000000000000000e+00  4.6374759400300720e-05 8.2686018490992240e-05 0.0000000000000000e+00  3.8411666443004165e-05 8.1844689639913275e-05 0.0000000000000000e+00  4.8055991934326242e-05 9.1017373734940280e-05 0.0000000000000000e+00  3.9865752252798605e-05 9.0265251327579940e-05 0.0000000000000000e+00  4.9517853059154356e-05 9.9529491799263411e-05 0.0000000000000000e+00  4.1189333416209025e-05 9.8868058471733277e-05 0.0000000000000000e+00  5.0779216438144028e-05 1.0809524929825954e-04 0.0000000000000000e+00  4.2392198283081093e-05 1.0751250844495855e-04 0.0000000000000000e+00  5.1871949068898901e-05 1.1663489299927580e-04 0.0000000000000000e+00  4.3488349213283624e-05 1.1611784263394446e-04 0.0000000000000000e+00  5.2826043814932794e-05 1.2510456628364363e-04 0.0000000000000000e+00  4.4489181973526742e-05 1.2464302782338202e-04 0.0000000000000000e+00  5.3665117800863006e-05 1.3347999924274190e-04 0.0000000000000000e+00  4.5403254595277151e-05 1.3306637430226463e-04 0.0000000000000000e+00  5.4411211054457180e-05 1.4173970463358048e-04 0.0000000000000000e+00  4.6241705577386583e-05 1.4136503399032251e-04 0.0000000000000000e+00  5.5084975329475566e-05 1.4987452962888674e-04 0.0000000000000000e+00  4.7016581537244898e-05 1.4953044675168774e-04 0.0000000000000000e+00  5.5701009042447612e-05 1.5789010327532145e-04 0.0000000000000000e+00  4.7736373182519424e-05 1.5757172141580471e-04 0.0000000000000000e+00  5.6267067835300394e-05 1.6579500504740696e-04 0.0000000000000000e+00  4.8406053134727125e-05 1.6550007250967568e-04 0.0000000000000000e+00  5.6787608516935277e-05 1.7359271800643358e-04 0.0000000000000000e+00  4.9029748036249080e-05 1.7331943324128588e-04 0.0000000000000000e+00  5.7264544314203213e-05 1.8128712837813291e-04 0.0000000000000000e+00  4.9609814779941811e-05 1.8103493733477694e-04 0.0000000000000000e+00  5.7698049896639306e-05 1.8887963593674297e-04 0.0000000000000000e+00  5.0147374777295237e-05 1.8864855311521143e-04 0.0000000000000000e+00  5.8088396088338076e-05 1.9636778656502844e-04 0.0000000000000000e+00  5.0643688121597920e-05 1.9615743246656015e-04 0.0000000000000000e+00  5.8437690937611138e-05 2.0374613640673333e-04 0.0000000000000000e+00  5.1101326446114692e-05 2.0355504401613510e-04 0.0000000000000000e+00  5.8750182300708456e-05 2.1100947150219749e-04 0.0000000000000000e+00  5.1524161272471360e-05 2.1083530311882560e-04 0.0000000000000000e+00  5.9030716187699846e-05 2.1815615055701239e-04 0.0000000000000000e+00  5.1916021856600177e-05 2.1799674254372264e-04 0.0000000000000000e+00  5.9283906920861375e-05 2.2518620481200841e-04 0.0000000000000000e+00  5.2280453176578262e-05 2.2503959134973205e-04 0.0000000000000000e+00  5.9514883382419657e-05 2.3209907764630165e-04 0.0000000000000000e+00  5.2621577808888040e-05 2.3196283403236211e-04 0.0000000000000000e+00  5.9730136445412578e-05 2.3889426462310660e-04 0.0000000000000000e+00  5.2944641386921676e-05 2.3876522222080284e-04 0.0000000000000000e+00  5.9937390081046456e-05 2.4557329932440561e-04 0.0000000000000000e+00  5.3255705183347721e-05 2.4544784852503586e-04 0.0000000000000000e+00  6.0145357827892345e-05 2.5213977280611952e-04 0.0000000000000000e+00  5.3561517934563996e-05 2.5201392055868938e-04 0.0000000000000000e+00  6.0363952056100566e-05 2.5859885734966687e-04 0.0000000000000000e+00  5.3869764899574962e-05 2.5846803157677899e-04 0.0000000000000000e+00  6.0604439827103352e-05 2.6495796610163236e-04 0.0000000000000000e+00  5.4189112755673395e-05 2.6481700677119828e-04 0.0000000000000000e+00  6.0879379086598278e-05 2.7122746366520098e-04 0.0000000000000000e+00  5.4529091280831769e-05 2.7107069653748464e-04 0.0000000000000000e+00  6.1202434893790564e-05 2.7742123755904982e-04 0.0000000000000000e+00  5.4899924780846780e-05 2.7724256256145052e-04 0.0000000000000000e+00  6.1588021499006738e-05 2.8355741023442698e-04 0.0000000000000000e+00  5.5312248690535777e-05 2.8335046698328573e-04 0.0000000000000000e+00  6.2050581384837818e-05 2.8965925398018785e-04 0.0000000000000000e+00  5.5776591348425986e-05 2.8941775276847053e-04 0.0000000000000000e+00  5.6302609846949555e-05 2.9547419038668103e-04 0.0000000000000000e+00  1.2505361959368890e-06 6.2337118422772588e-07 0.0000000000000000e+00  0.0000000000000000e+00 0.0000000000000000e+00 0.0000000000000000e+00  2.7440004691215634e-06 1.6036994755306275e-06 0.0000000000000000e+00  4.3379283172723504e-06 2.8125231840875070e-06 0.0000000000000000e+00  5.9274807345984019e-06 4.2146419789597085e-06 0.0000000000000000e+00  7.4966169273025877e-06 5.8474029867141713e-06 0.0000000000000000e+00  9.0463891527110502e-06 7.7410491058262245e-06 0.0000000000000000e+00  1.0580629640725787e-05 9.9177751283136450e-06 0.0000000000000000e+00  1.2102309125357946e-05 1.2396505234085577e-05 0.0000000000000000e+00  1.3613361181576356e-05 1.5193488533940442e-05 0.0000000000000000e+00  1.5115167652882322e-05 1.8324385208353289e-05 0.0000000000000000e+00  1.6608255364625117e-05 2.1807370829068769e-05 0.0000000000000000e+00  1.8092489113822651e-05 2.5662656722815380e-05 0.0000000000000000e+00  1.9567803800234479e-05 2.9912070359081467e-05 0.0000000000000000e+00  2.1032244088449425e-05 3.4585151656675487e-05 0.0000000000000000e+00  2.2484267025943620e-05 3.9708318454650548e-05 0.0000000000000000e+00  2.3919926997507455e-05 4.5316166069936798e-05 0.0000000000000000e+00  2.5338048955482250e-05 5.1429662421990401e-05 0.0000000000000000e+00  2.6732968252473032e-05 5.8080346294808055e-05 0.0000000000000000e+00  2.8102969499230303e-05 6.5259837812574708e-05 0.0000000000000000e+00  2.9436473520018634e-05 7.2967940250291303e-05 0.0000000000000000e+00  3.0727306722563857e-05 8.1120313304234968e-05 0.0000000000000000e+00  3.1965351703446358e-05 8.9607297527605090e-05 0.0000000000000000e+00  3.3140888272703064e-05 9.8278341905827513e-05 0.0000000000000000e+00  3.4262937972605956e-05 1.0696966579890247e-04 0.0000000000000000e+00  3.5338422076713660e-05 1.1561105837655469e-04 0.0000000000000000e+00  3.6363542014620453e-05 1.2417073085462882e-04 0.0000000000000000e+00  3.7329316487047962e-05 1.3263074030798533e-04 0.0000000000000000e+00  3.8236770954411976e-05 1.4095925238544478e-04 0.0000000000000000e+00  3.9093344258605482e-05 1.4914665141375241e-04 0.0000000000000000e+00  3.9902682519804879e-05 1.5720841112701748e-04 0.0000000000000000e+00  4.0665427309369744e-05 1.6515827015552769e-04 0.0000000000000000e+00  4.1384783453316859e-05 1.7299734998276549e-04 0.0000000000000000e+00  4.2062580731955598e-05 1.8073305375894671e-04 0.0000000000000000e+00  4.2698919525582308e-05 1.8836803187400076e-04 0.0000000000000000e+00  4.3294366804970115e-05 1.9589840861239323e-04 0.0000000000000000e+00  4.3851664513123575e-05 2.0331555079748358e-04 0.0000000000000000e+00  4.4375241794620548e-05 2.1061219469108806e-04 0.0000000000000000e+00  4.4868283848428429e-05 2.1778847609488274e-04 0.0000000000000000e+00  4.5332539468049732e-05 2.2484558540310681e-04 0.0000000000000000e+00  4.5770376524590461e-05 2.3178160455561241e-04 0.0000000000000000e+00  4.6185707620513521e-05 2.3859406916219592e-04 0.0000000000000000e+00  4.6582988549804842e-05 2.4528403114908924e-04 0.0000000000000000e+00  4.6966871597403122e-05 2.5185466243670513e-04 0.0000000000000000e+00  4.7342824127948890e-05 2.5830987846734213e-04 0.0000000000000000e+00  4.7717239149501604e-05 2.6465589461550622e-04 0.0000000000000000e+00  4.8097259973156769e-05 2.7090206002607005e-04 0.0000000000000000e+00  4.8490715763797046e-05 2.7706128456316139e-04 0.0000000000000000e+00  4.8906052776073024e-05 2.8315085150790788e-04 0.0000000000000000e+00  4.9352053419006704e-05 2.8919368891914594e-04 0.0000000000000000e+00  4.9837404842524078e-05 2.9521942569277248e-04 0.0000000000000000e+00  9.5937619540829235e-07 3.1663921296687658e-07 0.0000000000000000e+00  0.0000000000000000e+00 0.0000000000000000e+00 0.0000000000000000e+00  2.0801906206739721e-06 1.0773844217500934e-06 0.0000000000000000e+00  3.2983112167676319e-06 2.1721753008165096e-06 0.0000000000000000e+00  4.5501544481057631e-06 3.5406229474279727e-06 0.0000000000000000e+00  5.7969105317725793e-06 5.1682189687604070e-06 0.0000000000000000e+00  7.0266698152864084e-06 7.0655988995341950e-06 0.0000000000000000e+00  8.2370445672578898e-06 9.2482232596383668e-06 0.0000000000000000e+00  9.4272887112174899e-06 1.1733921299965638e-05 0.0000000000000000e+00  1.0596961446735987e-05 1.4537878525064087e-05 0.0000000000000000e+00  1.1746177103707768e-05 1.7674601779641249e-05 0.0000000000000000e+00  1.2874413790522847e-05 2.1162593138197749e-05 0.0000000000000000e+00  1.3980912498808770e-05 2.5021580623009717e-05 0.0000000000000000e+00  1.5066588762232562e-05 2.9271285400166782e-05 0.0000000000000000e+00  1.6129456050402945e-05 3.3944763637860546e-05 0.0000000000000000e+00  1.7170523787134962e-05 3.9063935964361748e-05 0.0000000000000000e+00  1.8187500474993053e-05 4.4669718180098916e-05 0.0000000000000000e+00  1.9186036675255534e-05 5.0772949506143267e-05 0.0000000000000000e+00  2.0166533204149734e-05 5.7421583119306399e-05 0.0000000000000000e+00  2.1145299857004818e-05 6.4593083565434842e-05 0.0000000000000000e+00  2.2118618509529408e-05 7.2321059293482302e-05 0.0000000000000000e+00  2.3108364252555195e-05 8.0497795386981795e-05 0.0000000000000000e+00  2.4131835936746175e-05 8.9032136086845972e-05 0.0000000000000000e+00  2.5177200426175547e-05 9.7760663808939049e-05 0.0000000000000000e+00  2.6241999397177582e-05 1.0647121890006286e-04 0.0000000000000000e+00  2.7314603810053802e-05 1.1511860978586502e-04 0.0000000000000000e+00  2.8378362191600799e-05 1.2369337549607986e-04 0.0000000000000000e+00  2.9401653426550256e-05 1.3218465630178476e-04 0.0000000000000000e+00  3.0375371130395909e-05 1.4053557194829838e-04 0.0000000000000000e+00  3.1307291299585063e-05 1.4873392132237702e-04 0.0000000000000000e+00  3.2197987211832461e-05 1.5680892096128231e-04 0.0000000000000000e+00  3.3044064250658454e-05 1.6477730671383942e-04 0.0000000000000000e+00  3.3850385293334580e-05 1.7263178671507305e-04 0.0000000000000000e+00  3.4618946824667294e-05 1.8038559476899954e-04 0.0000000000000000e+00  3.5347729357178195e-05 1.8804262107572625e-04 0.0000000000000000e+00  3.6035408605538459e-05 1.9559662092295823e-04 0.0000000000000000e+00  3.6684857804256876e-05 2.0303449082283005e-04 0.0000000000000000e+00  3.7301863522011811e-05 2.1034691592431611e-04 0.0000000000000000e+00  3.7888761321806982e-05 2.1753844345197371e-04 0.0000000000000000e+00  3.8444543414024574e-05 2.2461255199229040e-04 0.0000000000000000e+00  3.8969303863399726e-05 2.3156534375024527e-04 0.0000000000000000e+00  3.9465744196775258e-05 2.3839208589791907e-04 0.0000000000000000e+00  3.9936696580306489e-05 2.4509450085080870e-04 0.0000000000000000e+00  4.0384530576671138e-05 2.5167620522508394e-04 0.0000000000000000e+00  4.0812589765428424e-05 2.5814000737087552e-04 0.0000000000000000e+00  4.1225337634442017e-05 2.6449129534220398e-04 0.0000000000000000e+00  4.1628049605295317e-05 2.7073876501601334e-04 0.0000000000000000e+00  4.2026910742651081e-05 2.7689438909465089e-04 0.0000000000000000e+00  4.2429198124193859e-05 2.8297424390587913e-04 0.0000000000000000e+00  4.2843115567802720e-05 2.8900014953300033e-04 0.0000000000000000e+00  4.3277445235043271e-05 2.9500084238649006e-04 0.0000000000000000e+00  4.3741392897030130e-05 3.0101228888248789e-04 0.0000000000000000e+00  6.9832439949086273e-07 1.2621133989872594e-07 0.0000000000000000e+00  0.0000000000000000e+00 0.0000000000000000e+00 0.0000000000000000e+00  1.4966731028230999e-06 7.3694330138584589e-07 0.0000000000000000e+00  2.3644894671626799e-06 1.7341251638116185e-06 0.0000000000000000e+00  3.2669774670641339e-06 3.0541209336153552e-06 0.0000000000000000e+00  4.1755003989027212e-06 4.6656764327919209e-06 0.0000000000000000e+00  5.0732948384954036e-06 6.5613938588924686e-06 0.0000000000000000e+00  5.9530685753784101e-06 8.7479687902574781e-06 0.0000000000000000e+00  6.8095088802826886e-06 1.1242010063923409e-05 0.0000000000000000e+00  7.6388769077818504e-06 1.4056029207115336e-05 0.0000000000000000e+00  8.4395767931261008e-06 1.7201774914834097e-05 0.0000000000000000e+00  9.2093269661924186e-06 2.0698600077021236e-05 0.0000000000000000e+00  9.9458966345134750e-06 2.4565003959609641e-05 0.0000000000000000e+00  1.0651130735151619e-05 2.8815692204598214e-05 0.0000000000000000e+00  1.1320944569126098e-05 3.3492735883585171e-05 0.0000000000000000e+00  1.1957438903525316e-05 3.8606895951300254e-05 0.0000000000000000e+00  1.2553861537443618e-05 4.4213950516162319e-05 0.0000000000000000e+00  1.3123269058988303e-05 5.0302509839237967e-05 0.0000000000000000e+00  1.3654353182973705e-05 5.6950020224283032e-05 0.0000000000000000e+00  1.4191540131483480e-05 6.4091675058986365e-05 0.0000000000000000e+00  1.4735097549561994e-05 7.1839734951503710e-05 0.0000000000000000e+00  1.5337361257320288e-05 7.9996451531435937e-05 0.0000000000000000e+00  1.6094693585700533e-05 8.8517752830619397e-05 0.0000000000000000e+00  1.7059956749557228e-05 9.7276998709722650e-05 0.0000000000000000e+00  1.8176894211580037e-05 1.0598103914772834e-04 0.0000000000000000e+00  1.9328114489743903e-05 1.1461786889073489e-04 0.0000000000000000e+00  2.0466601013876952e-05 1.2318538866025989e-04 0.0000000000000000e+00  2.1589900032870633e-05 1.3172148896846626e-04 0.0000000000000000e+00  2.2647771749185335e-05 1.4009702254428927e-04 0.0000000000000000e+00  2.3657586111196924e-05 1.4829577521763043e-04 0.0000000000000000e+00  2.4625071360935430e-05 1.5637936439728906e-04 0.0000000000000000e+00  2.5542801403438715e-05 1.6436630692674221e-04 0.0000000000000000e+00  2.6423722973824062e-05 1.7222878290221495e-04 0.0000000000000000e+00  2.7273845163487797e-05 1.7999665062747437e-04 0.0000000000000000e+00  2.8088465747859695e-05 1.8767669622681051e-04 0.0000000000000000e+00  2.8862007295775769e-05 1.9525780447718867e-04 0.0000000000000000e+00  2.9597259730634716e-05 2.0271773375941257e-04 0.0000000000000000e+00  3.0303000988459807e-05 2.1004374887363154e-04 0.0000000000000000e+00  3.0980059484762180e-05 2.1725066212596261e-04 0.0000000000000000e+00  3.1622817898616581e-05 2.2434590682770156e-04 0.0000000000000000e+00  3.2228567131475649e-05 2.3132089453142460e-04 0.0000000000000000e+00  3.2799437717339976e-05 2.3816675609274781e-04 0.0000000000000000e+00  3.3336589610371595e-05 2.4488763095424876e-04 0.0000000000000000e+00  3.3839621409325864e-05 2.5148825041923267e-04 0.0000000000000000e+00  3.4309838658433708e-05 2.5796920852006833e-04 0.0000000000000000e+00  3.4750125405974529e-05 2.6433477855940653e-04 0.0000000000000000e+00  3.5164247521335335e-05 2.7059285851835618e-04 0.0000000000000000e+00  3.5557224381838039e-05 2.7675394344225279e-04 0.0000000000000000e+00  3.5935812364070382e-05 2.8283210036507671e-04 0.0000000000000000e+00  3.6308226164139512e-05 2.8884741955534669e-04 0.0000000000000000e+00  3.6683515930648892e-05 2.9482735317032469e-04 0.0000000000000000e+00  3.7071307454319434e-05 3.0080666960746207e-04 0.0000000000000000e+00  3.7481914471165373e-05 3.0682738381980338e-04 0.0000000000000000e+00  4.5218639793416927e-07 2.0131439193968581e-08 0.0000000000000000e+00  0.0000000000000000e+00 0.0000000000000000e+00 0.0000000000000000e+00  9.5513586005024984e-07 5.4082149665708784e-07 0.0000000000000000e+00  1.4969143755514868e-06 1.4719118196188684e-06 0.0000000000000000e+00  2.0611227505932892e-06 2.7511255271178170e-06 0.0000000000000000e+00  2.6314799638855810e-06 4.3426954816761762e-06 0.0000000000000000e+00  3.1955419622548401e-06 6.2312906169372985e-06 0.0000000000000000e+00  3.7452270083678481e-06 8.4172713092216769e-06 0.0000000000000000e+00  4.2708958921027976e-06 1.0919122926914062e-05 0.0000000000000000e+00  4.7655285784428759e-06 1.3744623640118072e-05 0.0000000000000000e+00  5.2261632159766342e-06 1.6900692429887412e-05 0.0000000000000000e+00  5.6473284262219477e-06 2.0409351996037499e-05 0.0000000000000000e+00  6.0246223446535474e-06 2.4287135392773859e-05 0.0000000000000000e+00  6.3614068731612298e-06 2.8538451510349047e-05 0.0000000000000000e+00  6.6453696872287842e-06 3.3225514962457118e-05 0.0000000000000000e+00  6.8840954604589749e-06 3.8336578320570991e-05 0.0000000000000000e+00  7.0509186249054675e-06 4.3962781455619639e-05 0.0000000000000000e+00  7.1670286110817013e-06 5.0035003537117794e-05 0.0000000000000000e+00  7.2046884096861759e-06 5.6728984991896169e-05 0.0000000000000000e+00  7.1867462569651062e-06 6.3813123301897007e-05 0.0000000000000000e+00  7.1638482300098855e-06 7.1608207639662242e-05 0.0000000000000000e+00  7.2519038923606574e-06 7.9712680949239024e-05 0.0000000000000000e+00  7.4995079560929149e-06 8.8086932940358725e-05 0.0000000000000000e+00  8.3210217075054920e-06 9.6765989433749219e-05 0.0000000000000000e+00  1.0076927959409573e-05 1.0542327637705103e-04 0.0000000000000000e+00  1.1589669696721147e-05 1.1415995221904445e-04 0.0000000000000000e+00  1.2584849796465862e-05 1.2261368197972729e-04 0.0000000000000000e+