<?xml version="1.0"?>
<VTKFile type="UnstructuredGrid"  version="0.1"  >
<UnstructuredGrid>
<Piece  NumberOfPoints="2358" NumberOfCells="4523">
<Points>
<DataArray  type="Float64"  NumberOfComponents="3"  format="ascii">2.618695652173913 0 0  2.62695652173913 0 0  2.62695652173913 0.008333333333333333 0  2.618695652173913 0.008333333333333333 0  2.635217391304348 0 0  2.635217391304348 0.008333333333333333 0  2.643478260869565 0 0  2.643478260869565 0.008333333333333333 0  2.651739130434783 0 0  2.651739130434783 0.008333333333333333 0  2.66 0 0  2.66 0.008333333333333333 0  2.668260869565217 0 0  2.668260869565217 0.008333333333333333 0  2.676521739130435 0 0  2.676521739130435 0.008333333333333333 0  2.684782608695652 0 0  2.684782608695652 0.008333333333333333 0  2.693043478260869 0 0  2.693043478260869 0.008333333333333333 0  2.701304347826087 0 0  2.701304347826087 0.008333333333333333 0  2.709565217391304 0 0  2.709565217391304 0.008333333333333333 0  2.717826086956522 0 0  2.717826086956522 0.008333333333333333 0  2.726086956521739 0 0  2.726086956521739 0.008333333333333333 0  2.734347826086956 0 0  2.734347826086956 0.008333333333333333 0  2.742608695652174 0 0  2.742608695652174 0.008333333333333333 0  2.750869565217391 0 0  2.750869565217391 0.008333333333333333 0  2.759130434782609 0 0  2.759130434782609 0.008333333333333333 0  2.767391304347826 0 0  2.767391304347826 0.008333333333333333 0  2.775652173913044 0 0  2.775652173913044 0.008333333333333333 0  2.783913043478261 0 0  2.783913043478261 0.008333333333333333 0  2.792173913043478 0 0  2.792173913043478 0.008333333333333333 0  2.800434782608696 0 0  2.800434782608696 0.008333333333333333 0  2.808695652173913 0 0  2.808695652173913 0.008333333333333333 0  2.81695652173913 0 0  2.81695652173913 0.008333333333333333 0  2.825217391304347 0 0  2.825217391304347 0.008333333333333333 0  2.833478260869565 0 0  2.833478260869565 0.008333333333333333 0  2.841739130434783 0 0  2.841739130434783 0.008333333333333333 0  2.85 0 0  2.85 0.008333333333333333 0  2.858260869565217 0 0  2.858260869565217 0.008333333333333333 0  2.866521739130435 0 0  2.866521739130435 0.008333333333333333 0  2.874782608695652 0 0  2.874782608695652 0.008333333333333333 0  2.88304347826087 0 0  2.88304347826087 0.008333333333333333 0  2.891304347826087 0 0  2.891304347826087 0.008333333333333333 0  2.899565217391304 0 0  2.899565217391304 0.008333333333333333 0  2.907826086956522 0 0  2.907826086956522 0.008333333333333333 0  2.916086956521739 0 0  2.916086956521739 0.008333333333333333 0  2.924347826086957 0 0  2.924347826086957 0.008333333333333333 0  2.932608695652174 0 0  2.932608695652174 0.008333333333333333 0  2.940869565217391 0 0  2.940869565217391 0.008333333333333333 0  2.949130434782608 0 0  2.949130434782608 0.008333333333333333 0  2.62695652173913 0.01666666666666667 0  2.618695652173913 0.01666666666666667 0  2.635217391304348 0.01666666666666667 0  2.643478260869565 0.01666666666666667 0  2.651739130434783 0.01666666666666667 0  2.66 0.01666666666666667 0  2.668260869565217 0.01666666666666667 0  2.676521739130435 0.01666666666666667 0  2.684782608695652 0.01666666666666667 0  2.693043478260869 0.01666666666666667 0  2.701304347826087 0.01666666666666667 0  2.709565217391304 0.01666666666666667 0  2.717826086956522 0.01666666666666667 0  2.726086956521739 0.01666666666666667 0  2.734347826086956 0.01666666666666667 0  2.742608695652174 0.01666666666666667 0  2.750869565217391 0.01666666666666667 0  2.759130434782609 0.01666666666666667 0  2.767391304347826 0.01666666666666667 0  2.775652173913044 0.01666666666666667 0  2.783913043478261 0.01666666666666667 0  2.792173913043478 0.01666666666666667 0  2.800434782608696 0.01666666666666667 0  2.808695652173913 0.01666666666666667 0  2.81695652173913 0.01666666666666667 0  2.825217391304347 0.01666666666666667 0  2.833478260869565 0.01666666666666667 0  2.841739130434783 0.01666666666666667 0  2.85 0.01666666666666667 0  2.858260869565217 0.01666666666666667 0  2.866521739130435 0.01666666666666667 0  2.874782608695652 0.01666666666666667 0  2.88304347826087 0.01666666666666667 0  2.891304347826087 0.01666666666666667 0  2.899565217391304 0.01666666666666667 0  2.907826086956522 0.01666666666666667 0  2.916086956521739 0.01666666666666667 0  2.924347826086957 0.01666666666666667 0  2.932608695652174 0.01666666666666667 0  2.940869565217391 0.01666666666666667 0  2.949130434782608 0.01666666666666667 0  2.957391304347826 0.01666666666666667 0  2.62695652173913 0.025 0  2.635217391304348 0.025 0  2.643478260869565 0.025 0  2.651739130434783 0.025 0  2.66 0.025 0  2.668260869565217 0.025 0  2.676521739130435 0.025 0  2.684782608695652 0.025 0  2.693043478260869 0.025 0  2.701304347826087 0.025 0  2.709565217391304 0.025 0  2.717826086956522 0.025 0  2.726086956521739 0.025 0  2.734347826086956 0.025 0  2.742608695652174 0.025 0  2.750869565217391 0.025 0  2.759130434782609 0.025 0  2.767391304347826 0.025 0  2.775652173913044 0.025 0  2.783913043478261 0.025 0  2.792173913043478 0.025 0  2.800434782608696 0.025 0  2.808695652173913 0.025 0  2.81695652173913 0.025 0  2.825217391304347 0.025 0  2.833478260869565 0.025 0  2.841739130434783 0.025 0  2.85 0.025 0  2.858260869565217 0.025 0  2.866521739130435 0.025 0  2.874782608695652 0.025 0  2.88304347826087 0.025 0  2.891304347826087 0.025 0  2.899565217391304 0.025 0  2.907826086956522 0.025 0  2.916086956521739 0.025 0  2.924347826086957 0.025 0  2.932608695652174 0.025 0  2.940869565217391 0.025 0  2.949130434782608 0.025 0  2.957391304347826 0.025 0  2.965652173913043 0.025 0  2.635217391304348 0.03333333333333333 0  2.643478260869565 0.03333333333333333 0  2.651739130434783 0.03333333333333333 0  2.66 0.03333333333333333 0  2.668260869565217 0.03333333333333333 0  2.676521739130435 0.03333333333333333 0  2.684782608695652 0.03333333333333333 0  2.693043478260869 0.03333333333333333 0  2.701304347826087 0.03333333333333333 0  2.709565217391304 0.03333333333333333 0  2.717826086956522 0.03333333333333333 0  2.726086956521739 0.03333333333333333 0  2.734347826086956 0.03333333333333333 0  2.742608695652174 0.03333333333333333 0  2.750869565217391 0.03333333333333333 0  2.759130434782609 0.03333333333333333 0  2.767391304347826 0.03333333333333333 0  2.775652173913044 0.03333333333333333 0  2.783913043478261 0.03333333333333333 0  2.792173913043478 0.03333333333333333 0  2.800434782608696 0.03333333333333333 0  2.808695652173913 0.03333333333333333 0  2.81695652173913 0.03333333333333333 0  2.825217391304347 0.03333333333333333 0  2.833478260869565 0.03333333333333333 0  2.841739130434783 0.03333333333333333 0  2.85 0.03333333333333333 0  2.858260869565217 0.03333333333333333 0  2.866521739130435 0.03333333333333333 0  2.874782608695652 0.03333333333333333 0  2.88304347826087 0.03333333333333333 0  2.891304347826087 0.03333333333333333 0  2.899565217391304 0.03333333333333333 0  2.907826086956522 0.03333333333333333 0  2.916086956521739 0.03333333333333333 0  2.924347826086957 0.03333333333333333 0  2.932608695652174 0.03333333333333333 0  2.940869565217391 0.03333333333333333 0  2.949130434782608 0.03333333333333333 0  2.957391304347826 0.03333333333333333 0  2.965652173913043 0.03333333333333333 0  2.973913043478261 0.03333333333333333 0  2.643478260869565 0.04166666666666666 0  2.651739130434783 0.04166666666666666 0  2.66 0.04166666666666666 0  2.668260869565217 0.04166666666666666 0  2.676521739130435 0.04166666666666666 0  2.684782608695652 0.04166666666666666 0  2.693043478260869 0.04166666666666666 0  2.701304347826087 0.04166666666666666 0  2.709565217391304 0.04166666666666666 0  2.717826086956522 0.04166666666666666 0  2.726086956521739 0.04166666666666666 0  2.734347826086956 0.04166666666666666 0  2.742608695652174 0.04166666666666666 0  2.750869565217391 0.04166666666666666 0  2.759130434782609 0.04166666666666666 0  2.767391304347826 0.04166666666666666 0  2.775652173913044 0.04166666666666666 0  2.783913043478261 0.04166666666666666 0  2.792173913043478 0.04166666666666666 0  2.800434782608696 0.04166666666666666 0  2.808695652173913 0.04166666666666666 0  2.81695652173913 0.04166666666666666 0  2.825217391304347 0.04166666666666666 0  2.833478260869565 0.04166666666666666 0  2.841739130434783 0.04166666666666666 0  2.85 0.04166666666666666 0  2.858260869565217 0.04166666666666666 0  2.866521739130435 0.04166666666666666 0  2.874782608695652 0.04166666666666666 0  2.88304347826087 0.04166666666666666 0  2.891304347826087 0.04166666666666666 0  2.899565217391304 0.04166666666666666 0  2.907826086956522 0.04166666666666666 0  2.916086956521739 0.04166666666666666 0  2.924347826086957 0.04166666666666666 0  2.932608695652174 0.04166666666666666 0  2.940869565217391 0.04166666666666666 0  2.949130434782608 0.04166666666666666 0  2.957391304347826 0.04166666666666666 0  2.965652173913043 0.04166666666666666 0  2.973913043478261 0.04166666666666666 0  2.982173913043478 0.04166666666666666 0  2.651739130434783 0.05 0  2.66 0.05 0  2.668260869565217 0.05 0  2.676521739130435 0.05 0  2.684782608695652 0.05 0  2.693043478260869 0.05 0  2.701304347826087 0.05 0  2.709565217391304 0.05 0  2.717826086956522 0.05 0  2.726086956521739 0.05 0  2.734347826086956 0.05 0  2.742608695652174 0.05 0  2.750869565217391 0.05 0  2.759130434782609 0.05 0  2.767391304347826 0.05 0  2.775652173913044 0.05 0  2.783913043478261 0.05 0  2.792173913043478 0.05 0  2.800434782608696 0.05 0  2.808695652173913 0.05 0  2.81695652173913 0.05 0  2.825217391304347 0.05 0  2.833478260869565 0.05 0  2.841739130434783 0.05 0  2.85 0.05 0  2.858260869565217 0.05 0  2.866521739130435 0.05 0  2.874782608695652 0.05 0  2.88304347826087 0.05 0  2.891304347826087 0.05 0  2.899565217391304 0.05 0  2.907826086956522 0.05 0  2.916086956521739 0.05 0  2.924347826086957 0.05 0  2.932608695652174 0.05 0  2.940869565217391 0.05 0  2.949130434782608 0.05 0  2.957391304347826 0.05 0  2.965652173913043 0.05 0  2
[...]
<PointData  Vectors="Displacement"> 
<DataArray  type="Float64"  Name="Displacement"  NumberOfComponents="3" format="ascii">2.7001307794736020e-04 2.4911898891623223e-03 0.0000000000000000e+00  2.7048850792487310e-04 2.5037585264689071e-03 0.0000000000000000e+00  2.5783776197867744e-04 2.5035115713902614e-03 0.0000000000000000e+00  2.5731836757688709e-04 2.4909416810699569e-03 0.0000000000000000e+00  2.7096026639925291e-04 2.5162823349268236e-03 0.0000000000000000e+00  2.5835583606714985e-04 2.5160366140913118e-03 0.0000000000000000e+00  2.7142838509052744e-04 2.5287590566740758e-03 0.0000000000000000e+00  2.5887259122011805e-04 2.5285145577428410e-03 0.0000000000000000e+00  2.7189286550250010e-04 2.5411864474326543e-03 0.0000000000000000e+00  2.5938803513517682e-04 2.5409431651862587e-03 0.0000000000000000e+00  2.7235367949406824e-04 2.5535622332039589e-03 0.0000000000000000e+00  2.5990218131194306e-04 2.5533201700813934e-03 0.0000000000000000e+00  2.7281077303654619e-04 2.5658840716534501e-03 0.0000000000000000e+00  2.6041504691215689e-04 2.5656432379429130e-03 0.0000000000000000e+00  2.7326407360517572e-04 2.5781495206737880e-03 0.0000000000000000e+00  2.6092664982404611e-04 2.5779099336896115e-03 0.0000000000000000e+00  2.7371350108829138e-04 2.5903560203207341e-03 0.0000000000000000e+00  2.6143700509306128e-04 2.5901177026979526e-03 0.0000000000000000e+00  2.7415898202556659e-04 2.6025008931062936e-03 0.0000000000000000e+00  2.6194612079744181e-04 2.6022638694392854e-03 0.0000000000000000e+00  2.7460046660321831e-04 2.6145813676220829e-03 0.0000000000000000e+00  2.6245399535758352e-04 2.6143456584249536e-03 0.0000000000000000e+00  2.7503794388392144e-04 2.6265946299822199e-03 0.0000000000000000e+00  2.6296061800119472e-04 2.6263602449629491e-03 0.0000000000000000e+00  2.7547144781034860e-04 2.6385378949456899e-03 0.0000000000000000e+00  2.6346597187157893e-04 2.6383048294826715e-03 0.0000000000000000e+00  2.7590104982704207e-04 2.6504084738241574e-03 0.0000000000000000e+00  2.6397003802004738e-04 2.6501767106156360e-03 0.0000000000000000e+00  2.7632684092532397e-04 2.6622038156201718e-03 0.0000000000000000e+00  2.6447279897018371e-04 2.6619733302452051e-03 0.0000000000000000e+00  2.7674891053413496e-04 2.6739215115217799e-03 0.0000000000000000e+00  2.6497424118544685e-04 2.6736922789333587e-03 0.0000000000000000e+00  2.7716732939217986e-04 2.6855592681389951e-03 0.0000000000000000e+00  2.6547435664846795e-04 2.6853312676378411e-03 0.0000000000000000e+00  2.7758213967217564e-04 2.6971148637274325e-03 0.0000000000000000e+00  2.6597314342891368e-04 2.6968880817970628e-03 0.0000000000000000e+00  2.7799335258542915e-04 2.7085861004665112e-03 0.0000000000000000e+00  2.6647060520837743e-04 2.7083605312469491e-03 0.0000000000000000e+00  2.7840095189754147e-04 2.7199707625822959e-03 0.0000000000000000e+00  2.6696675079356013e-04 2.7197464061634387e-03 0.0000000000000000e+00  2.7880489954540942e-04 2.7312665863069058e-03 0.0000000000000000e+00  2.6746159417996075e-04 2.7310434466779128e-03 0.0000000000000000e+00  2.7920513953796211e-04 2.7424712394522248e-03 0.0000000000000000e+00  2.6795515432121819e-04 2.7422493237174812e-03 0.0000000000000000e+00  2.7960159973112645e-04 2.7535823032120731e-03 0.0000000000000000e+00  2.6844745447674660e-04 2.7533616213856428e-03 0.0000000000000000e+00  2.7999419269339064e-04 2.7645972533170524e-03 0.0000000000000000e+00  2.6893852210263573e-04 2.7643778181500379e-03 0.0000000000000000e+00  2.8038281501883131e-04 2.7755134402056110e-03 0.0000000000000000e+00  2.6942838884287592e-04 2.7752952691273629e-03 0.0000000000000000e+00  2.8076734469514750e-04 2.7863280617791996e-03 0.0000000000000000e+00  2.6991708747423147e-04 2.7861111838816174e-03 0.0000000000000000e+00  2.8114764297008948e-04 2.7970381214817738e-03 0.0000000000000000e+00  2.7040464075623905e-04 2.7968225886331869e-03 0.0000000000000000e+00  2.8152358085808076e-04 2.8076403889975153e-03 0.0000000000000000e+00  2.7089103878742536e-04 2.8074262767331273e-03 0.0000000000000000e+00  2.8189511542076951e-04 2.8181314349758819e-03 0.0000000000000000e+00  2.7137621969060635e-04 2.8179188062622865e-03 0.0000000000000000e+00  2.8226239324329863e-04 2.8285078519640159e-03 0.0000000000000000e+00  2.7186008685044401e-04 2.8282966903177055e-03 0.0000000000000000e+00  2.8262577421929810e-04 2.8387666638204664e-03 0.0000000000000000e+00  2.7234256174399270e-04 2.8385568510035518e-03 0.0000000000000000e+00  2.8298569091490979e-04 2.8489056442366186e-03 0.0000000000000000e+00  2.7282361085652660e-04 2.8486970443039714e-03 0.0000000000000000e+00  2.8334244271173485e-04 2.8589231876242102e-03 0.0000000000000000e+00  2.7330319875277142e-04 2.8587157733825901e-03 0.0000000000000000e+00  2.8369617622742437e-04 2.8688178410795854e-03 0.0000000000000000e+00  2.7378119756689515e-04 2.8686116832921968e-03 0.0000000000000000e+00  2.8404713722694628e-04 2.8785881130945347e-03 0.0000000000000000e+00  2.7425741933573066e-04 2.8783831861973782e-03 0.0000000000000000e+00  2.8439584485618068e-04 2.8882330399071098e-03 0.0000000000000000e+00  2.7473176527204697e-04 2.8880291125502598e-03 0.0000000000000000e+00  2.8474289923497890e-04 2.8977528879235376e-03 0.0000000000000000e+00  2.7520428948056038e-04 2.8975496019078076e-03 0.0000000000000000e+00  2.8508853141876795e-04 2.9071489193339059e-03 0.0000000000000000e+00  2.7567528453083310e-04 2.9069460091902103e-03 0.0000000000000000e+00  2.8543212381198227e-04 2.9164222823662603e-03 0.0000000000000000e+00  2.7614513230134479e-04 2.9162198823535703e-03 0.0000000000000000e+00  2.8577226718043321e-04 2.9255721635947549e-03 0.0000000000000000e+00  2.7661407739318778e-04 2.9253707626103759e-03 0.0000000000000000e+00  2.8610741790014484e-04 2.9345947989803107e-03 0.0000000000000000e+00  2.7708223822600219e-04 2.9343949074629176e-03 0.0000000000000000e+00  2.4519035642474015e-04 2.5032422020173791e-03 0.0000000000000000e+00  2.4462694976576746e-04 2.4906722476442959e-03 0.0000000000000000e+00  2.4575477794018514e-04 2.5157673094684933e-03 0.0000000000000000e+00  2.4632018071962954e-04 2.5282453114710965e-03 0.0000000000000000e+00  2.4688657723260273e-04 2.5406739612678954e-03 0.0000000000000000e+00  2.4745402343700058e-04 2.5530509845905522e-03 0.0000000000000000e+00  2.4802261164242478e-04 2.5653740437206873e-03 0.0000000000000000e+00  2.4859245703747656e-04 2.5776407054221178e-03 0.0000000000000000e+00  2.4916367950665223e-04 2.5898484227462638e-03 0.0000000000000000e+00  2.4973638190340091e-04 2.6019945341688314e-03 0.0000000000000000e+00  2.5031062467433874e-04 2.6140762799183818e-03 0.0000000000000000e+00  2.5088640496458744e-04 2.6260908465051552e-03 0.0000000000000000e+00  2.5146365245027664e-04 2.6380354386576011e-03 0.0000000000000000e+00  2.5204224605853190e-04 2.6499073538345541e-03 0.0000000000000000e+00  2.5262204430823973e-04 2.6617040293689291e-03 0.0000000000000000e+00  2.5320291718573617e-04 2.6734230495133568e-03 0.0000000000000000e+00  2.5378476919405465e-04 2.6850621172615076e-03 0.0000000000000000e+00  2.5436755091873763e-04 2.6966190094590988e-03 0.0000000000000000e+00  2.5495126017016965e-04 2.7080915280779027e-03 0.0000000000000000e+00  2.5553593476610798e-04 2.7194774551541324e-03 0.0000000000000000e+00  2.5612164341678063e-04 2.7307745215377961e-03 0.0000000000000000e+00  2.5670848093290919e-04 2.7419803897583686e-03 0.0000000000000000e+00  2.5729656621729322e-04 2.7530926374544000e-03 0.0000000000000000e+00  2.5788603972069340e-04 2.7641087369673755e-03 0.0000000000000000e+00  2.5847706229639088e-04 2.7750260387601955e-03 0.0000000000000000e+00  2.5906981579017631e-04 2.7858417579985023e-03 0.0000000000000000e+00  2.5966449431666437e-04 2.7965529535199573e-03 0.0000000000000000e+00  2.6026126043552495e-04 2.8071564947614413e-03 0.0000000000000000e+00  2.6086012954410517e-04 2.8176490312358756e-03 0.0000000000000000e+00  2.6146081349658388e-04 2.8280270922498036e-03 0.0000000000000000e+00  2.6206270094087736e-04 2.8382875053404623e-03 0.0000000000000000e+00  2.6266511020647831e-04 2.8484279451044606e-03 0.0000000000000000e+00  2.6326761401928602e-04 2.8584469988773976e-03 0.0000000000000000e+00  2.6387004191993544e-04 2.8683435525572653e-03 0.0000000000000000e+00  2.6447198049050417e-04 2.8781160262221590e-03 0.0000000000000000e+00  2.6507254111411368e-04 2.8877629085653912e-03 0.0000000000000000e+00  2.6567092243993766e-04 2.8972840504602579e-03 0.0000000000000000e+00  2.6626698391227818e-04 2.9066804164492744e-03 0.0000000000000000e+00  2.6686205150608199e-04 2.9159536812058237e-03 0.0000000000000000e+00  2.6745861023708774e-04 2.9251038555690974e-03 0.0000000000000000e+00  2.6805893504353685e-04 2.9341272863543512e-03 0.0000000000000000e+00  2.6866437564160073e-04 2.9430178999270036e-03 0.0000000000000000e+00  2.3254020236288217e-04 2.5029504492982625e-03 0.0000000000000000e+00  2.3315111741633904e-04 2.5154745014640549e-03 0.0000000000000000e+00  2.3376518175097054e-04 2.5279514454853002e-03 0.0000000000000000e+00  2.3438242405445691e-04 2.5403790070572612e-03 0.0000000000000000e+00  2.3500295624883622e-04 2.5527548844019509e-03 0.0000000000000000e+00  2.3562697046817488e-04 2.5650767189567460e-03 0.0000000000000000e+00  2.3625472208660625e-04 2.5773420697414893e-03 0.0000000000000000e+00  2.3688648964781791e-04 2.5895483957068324e-03 0.0000000000000000e+00  2.3752253302759149e-04 2.6016930571943239e-03 0.0000000000000000e+00  2.3816304501273272e-04 2.6137733374537704e-03 0.0000000000000000e+00  2.3880807670029910e-04 2.6257864766984691e-03 0.0000000000000000e+00  2.3945749110690164e-04 2.6377297235882155e-03 0.0000000000000000e+00  2.4011099336366306e-04 2.6496003953568477e-03 0.0000000000000000e+00  2.4076822213289602e-04 2.6613959237117815e-03 0.0000000000000000e+00  2.4142884789789395e-04 2.6731138688234138e-03 0.0000000000000000e+00  2.4209264083744944e-04 2.6847519025328666e-03 0.0000000000000000e+00  2.4275948912649641e-04 2.6963077690896160e-03 0.0000000000000000e+00  2.4342939425493816e-04 2.7077792420150105e-03 0.0000000000000000e+00  2.4410244949656234e-04 2.7191640840300369e-03 0.0000000000000000e+00  2.4477880038755291e-04 2.7304600114492687e-03 0.0000000000000000e+00  2.4545862124423790e-04 2.7416646700837077e-03 0.0000000000000000e+00  2.4614212487282646e-04 2.7527756218670252e-03 0.0000000000000000e+00  2.4682956759587596e-04 2.7637903279745706e-03 0.0000000000000000e+00  2.4752123950304463e-04 2.7747061256804895e-03 0.0000000000000000e+00  2.4821747626657664e-04 2.7855202094038871e-03 0.0000000000000000e+00  2.4891870058510836e-04 2.7962296220986867e-03 0.0000000000000000e+00  2.4962544135053653e-04 2.8068312661109307e-03 0.0000000000000000e+00  2.5033820991159376e-04 2.8173219658183973e-03 0.0000000000000000e+00  2.5105696527562201e-04 2.8276985781658165e-03 0.0000000000000000e+00  2.5178037366213732e-04 2.8379581470179445e-03 0.0000000000000000e+00  2.5250606895367165e-04 2.8480981557159452e-03 0.0000000000000000e+00  2.5323236606576780e-04 2.8581167765431869e-03 0.0000000000000000e+00  2.5395950193399176e-04 2.8680128232088735e-03 0.0000000000000000e+00  2.5468858004059947e-04 2.8777854912720321e-03 0.0000000000000000e+00  2.5541799789456453e-04 2.8874337288884492e-03 0.0000000000000000e+00  2.5614374438185197e-04 2.8969566426328254e-03 0.0000000000000000e+00  2.5686388167031230e-04 2.9063544526134162e-03 0.0000000000000000e+00  2.5757871754156561e-04 2.9156269396636322e-03 0.0000000000000000e+00  2.5829533293471676e-04 2.9247738601534900e-03 0.0000000000000000e+00  2.5902259752660380e-04 2.9337930773916760e-03 0.0000000000000000e+00  2.5976389962504686e-04 2.9426793540639675e-03 0.0000000000000000e+00  2.6051921313550736e-04 2.9514268631182722e-03 0.0000000000000000e+00  2.2125750748962358e-04 2.5151464195842040e-03 0.0000000000000000e+00  2.2170492626778765e-04 2.5276313391185026e-03 0.0000000000000000e+00  2.2220341974651356e-04 2.5400636196697664e-03 0.0000000000000000e+00  2.2276604769153930e-04 2.5524415642360940e-03 0.0000000000000000e+00  2.2338813764845064e-04 2.5647636130025869e-03 0.0000000000000000e+00  2.2405987336126929e-04 2.5770280427664842e-03 0.0000000000000000e+00  2.2477676351317216e-04 2.5892328315024775e-03 0.0000000000000000e+00  2.2554226771274473e-04 2.6013758370219101e-03 0.0000000000000000e+00  2.2635533628359762e-04 2.6134552613879653e-03 0.0000000000000000e+00  2.2719128757561259e-04 2.6254695554336054e-03 0.0000000000000000e+00  2.2800490583423165e-04 2.6374159578461567e-03 0.0000000000000000e+00  2.2875766139360970e-04 2.6492896995000477e-03 0.0000000000000000e+00  2.2943825176395424e-04 2.6610856450944033e-03 0.0000000000000000e+00  2.3006489162089337e-04 2.6728005601267188e-03 0.0000000000000000e+00  2.3067412389974495e-04 2.6844334602322433e-03 0.0000000000000000e+00  2.3130256054239672e-04 2.6959839857762830e-03 0.0000000000000000e+00  2.3197158148983293e-04 2.7074510343203899e-03 0.0000000000000000e+00  2.3268186045528658e-04 2.7188325068068890e-03 0.0000000000000000e+00  2.3342230843608443e-04 2.7301258100643749e-03 0.0000000000000000e+00  2.3418253873053033e-04 2.7413282805297226e-03 0.0000000000000000e+00  2.3495702339523198e-04 2.7524372933909022e-03 0.0000000000000000e+00  2.3574475192304764e-04 2.7634502820912447e-03 0.0000000000000000e+00  2.3655005772648400e-04 2.7743648040242774e-03 0.0000000000000000e+00  2.3738819380439291e-04 2.7851786871403647e-03 0.0000000000000000e+00  2.3829781750955736e-04 2.7958903125069562e-03 0.0000000000000000e+00  2.3933042834731918e-04 2.8065009849244787e-03 0.0000000000000000e+00  2.4045104817053630e-04 2.8170179131007740e-03 0.0000000000000000e+00  2.4150225780104884e-04 2.8274337355782332e-03 0.0000000000000000e+00  2.4234800139715768e-04 2.8377114842998447e-03 0.0000000000000000e+00  2.4295449595321695e-04 2.8478187438187516e-03 0.0000000000000000e+00  2.4342140275795016e-04 2.8577795853456478e-03 0.0000000000000000e+00  2.4402601059689399e-04 2.8676546326984551e-03 0.0000000000000000e+00  2.4483488645078396e-04 2.8774236060237625e-03 0.0000000000000000e+00  2.4568583939013882e-04 2.8870713701313095e-03 0.0000000000000000e+00  2.4653752823539142e-04 2.8965960687525705e-03 0.0000000000000000e+00  2.4738375527197739e-04 2.9059966562989762e-03 0.0000000000000000e+00  2.4822497456685881e-04 2.9152717738355123e-03 0.0000000000000000e+00  2.4906824767764518e-04 2.9244178091189731e-03 0.0000000000000000e+00  2.4992435068538514e-04 2.9334317356494778e-03 0.0000000000000000e+00  2.5079981557505401e-04 2.9423110398237753e-03 0.0000000000000000e+00  2.5169543773616326e-04 2.9510515988325015e-03 0.0000000000000000e+00  2.5261626348022841e-04 2.9596486335885502e-03 0.0000000000000000e+00  2.1758109089241052e-04 2.5271565759866555e-03 0.0000000000000000e+00  2.1807210425720531e-04 2.5396193564972847e-03 0.0000000000000000e+00  2.1859322090612141e-04 2.5520211067317222e-03 0.0000000000000000e+00  2.1914832985934563e-04 2.5643656994903895e-03 0.0000000000000000e+00  2.1973661152329017e-04 2.5766533745394840e-03 0.0000000000000000e+00  2.2035536921391217e-04 2.5888815791071636e-03 0.0000000000000000e+00  2.2100098308603159e-04 2.6010476485446867e-03 0.0000000000000000e+00  2.2166737492967605e-04 2.6131523241976493e-03 0.0000000000000000e+00  2.2234375209901841e-04 2.6251997480304444e-03 0.0000000000000000e+00  2.2301532963978603e-04 2.6371908297493133e-03 0.0000000000000000e+00  2.2366854107765517e-04 2.6491177818400626e-03 0.0000000000000000e+00  2.2429720417732306e-04 2.6609672496209487e-03 0.0000000000000000e+00  2.2490509235848421e-04 2.6727269757178067e-03 0.0000000000000000e+00  2.2550383307808205e-04 2.6843902164578486e-03 0.0000000000000000e+00  2.2610771844008059e-04 2.6959565484844807e-03 0.0000000000000000e+00  2.2672819380919207e-04 2.7074296053280016e-03 0.0000000000000000e+00  2.2737084455488069e-04 2.7188134921563396e-03 0.0000000000000000e+00  2.2803601503623431e-04 2.7301092994136433e-03 0.0000000000000000e+00  2.2872182396326191e-04 2.7413145531814706e-03 0.0000000000000000e+00  2.2942693247751387e-04 2.7524252077641576e-03 0.0000000000000000e+00  2.3015185436134100e-04 2.7634369343464537e-03 0.0000000000000000e+00  2.3089941079553345e-04 2.7743452164266580e-03 0.0000000000000000e+00  2.3167467830277879e-04 2.7851451317261995e-03 0.0000000000000000e+00  2.3248329666082567e-04 2.7958324437837461e-03 0.0000000000000000e+00  2.3332545265900172e-04 2.8064119325641543e-03 0.0000000000000000e+00  2.3418572138177922e-04 2.8169098763307513e-03 0.0000000000000000e+00  2.3502971538891883e-04 2.8273429663541916e-03 0.0000000000000000e+00  2.3581943616385068e-04 2.8376763906447821e-03 0.0000000000000000e+00  2.3653781662635935e-04 2.8478568328950795e-03 0.0000000000000000e+00  2.3720407117030638e-04 2.8578580324621337e-03 0.0000000000000000e+00  2.3787142901261042e-04 2.8676844011482471e-03 0.0000000000000000e+00  2.3858781814556932e-04 2.8773835446457676e-03 0.0000000000000000e+00  2.3934958394476768e-04 2.8869953409938983e-03 0.0000000000000000e+00  2.4013322833732340e-04 2.8964968339037743e-03 0.0000000000000000e+00  2.4092836405752697e-04 2.9058757904375431e-03 0.0000000000000000e+00  2.4173246228462959e-04 2.9151265515037989e-03 0.0000000000000000e+00  2.4254701120367524e-04 2.9242436786107956e-03 0.0000000000000000e+00  2.4337564774315563e-04 2.9332231591771897e-03 0.0000000000000000e+00  2.4422302808196455e-04 2.9420628750160978e-03 0.0000000000000000e+00  2.4509436987151813e-04 2.9507596106872003e-03 0.0000000000000000e+00  2.4599616971868443e-04 2.9593060095107026e-03 0.0000000000000000e+00  2.4693362841650234e-04 2.9676760752069481e-03 0.0000000000000000e+00  2.1371236562070341e-04 2.5392089137919933e-03 0.0000000000000000e+00  2.1419297632346664e-04 2.5516527566384721e-03 0.0000000000000000e+00  2.1469037106307888e-04 2.5640349446069506e-03 0.0000000000000000e+00  2.1520625724533548e-04 2.5763574456979291e-03 0.0000000000000000e+00  2.1574007706542364e-04 2.5886196110875381e-03 0.0000000000000000e+00  2.1628924450523397e-04 2.6008203627821778e-03 0.0000000000000000e+00  2.1684957285489150e-04 2.6129607018759060e-03 0.0000000000000000e+00  2.1741616976388148e-04 2.6250434029425375e-03 0.0000000000000000e+00  2.1798453530093360e-04 2.6370682892554605e-03 0.0000000000000000e+00  2.1855123409255493e-04 2.6490279995736998e-03 0.0000000000000000e+00  2.1911438408842138e-04 2.6609096238314105e-03 0.0000000000000000e+00  2.1967431263162401e-04 2.6727001512150796e-03 0.0000000000000000e+00  2.2023376375686869e-04 2.6843911581384090e-03 0.0000000000000000e+00  2.2079722934914759e-04 2.6959805003297526e-03 0.0000000000000000e+00  2.2136971420468431e-04 2.7074708555875114e-03 0.0000000000000000e+00  2.2195555833433387e-04 2.7188663647560196e-03 0.0000000000000000e+00  2.2255779398554045e-04 2.7301691626313300e-03 0.0000000000000000e+00  2.2317809480430764e-04 2.7413780834108004e-03 0.0000000000000000e+00  2.2381726653725103e-04 2.7524897370062897e-03 0.0000000000000000e+00  2.2447588331959503e-04 2.7634998967333902e-03 0.0000000000000000e+00  2.2515447290139890e-04 2.7744042469755093e-03 0.0000000000000000e+00  2.2585296109916157e-04 2.7851990453072024e-03 0.0000000000000000e+00  2.2656931140172565e-04 2.7958830982195925e-03 0.0000000000000000e+00  2.2729812272703390e-04 2.8064632786664332e-03 0.0000000000000000e+00  2.2803178732247608e-04 2.8169585068643687e-03 0.0000000000000000e+00  2.2876440247787121e-04 2.8273794917480183e-03 0.0000000000000000e+00  2.2949152301402935e-04 2.8377026859482978e-03 0.0000000000000000e+00  2.3020777483021159e-04 2.8478850648377694e-03 0.0000000000000000e+00  2.3091128506326887e-04 2.8578956033221106e-03 0.0000000000000000e+00  2.3160781878920819e-04 2.8677294940986139e-03 0.0000000000000000e+00  2.3230801740009262e-04 2.8774182545219617e-03 0.0000000000000000e+00  2.3302354253398015e-04 2.8869992689936966e-03 0.0000000000000000e+00  2.3375961657625291e-04 2.8964706955464437e-03 0.0000000000000000e+00  2.3451265727257389e-04 2.9058211044136286e-03 0.0000000000000000e+