<?xml version="1.0"?>
<VTKFile type="UnstructuredGrid"  version="0.1"  >
<UnstructuredGrid>
<Piece  NumberOfPoints="2444" NumberOfCells="4695">
<Points>
<DataArray  type="Float64"  NumberOfComponents="3"  format="ascii">2.453478260869565 0 0  2.461739130434782 0 0  2.461739130434782 0.008333333333333333 0  2.453478260869565 0.008333333333333333 0  2.47 0 0  2.47 0.008333333333333333 0  2.478260869565217 0 0  2.478260869565217 0.008333333333333333 0  2.486521739130435 0 0  2.486521739130435 0.008333333333333333 0  2.494782608695652 0 0  2.494782608695652 0.008333333333333333 0  2.503043478260869 0 0  2.503043478260869 0.008333333333333333 0  2.511304347826087 0 0  2.511304347826087 0.008333333333333333 0  2.519565217391305 0 0  2.519565217391305 0.008333333333333333 0  2.527826086956522 0 0  2.527826086956522 0.008333333333333333 0  2.536086956521739 0 0  2.536086956521739 0.008333333333333333 0  2.544347826086956 0 0  2.544347826086956 0.008333333333333333 0  2.552608695652174 0 0  2.552608695652174 0.008333333333333333 0  2.560869565217391 0 0  2.560869565217391 0.008333333333333333 0  2.569130434782608 0 0  2.569130434782608 0.008333333333333333 0  2.577391304347826 0 0  2.577391304347826 0.008333333333333333 0  2.585652173913043 0 0  2.585652173913043 0.008333333333333333 0  2.593913043478261 0 0  2.593913043478261 0.008333333333333333 0  2.602173913043478 0 0  2.602173913043478 0.008333333333333333 0  2.610434782608696 0 0  2.610434782608696 0.008333333333333333 0  2.618695652173913 0 0  2.618695652173913 0.008333333333333333 0  2.461739130434782 0.01666666666666667 0  2.47 0.01666666666666667 0  2.478260869565217 0.01666666666666667 0  2.486521739130435 0.01666666666666667 0  2.494782608695652 0.01666666666666667 0  2.503043478260869 0.01666666666666667 0  2.511304347826087 0.01666666666666667 0  2.519565217391305 0.01666666666666667 0  2.527826086956522 0.01666666666666667 0  2.536086956521739 0.01666666666666667 0  2.544347826086956 0.01666666666666667 0  2.552608695652174 0.01666666666666667 0  2.560869565217391 0.01666666666666667 0  2.569130434782608 0.01666666666666667 0  2.577391304347826 0.01666666666666667 0  2.585652173913043 0.01666666666666667 0  2.593913043478261 0.01666666666666667 0  2.602173913043478 0.01666666666666667 0  2.610434782608696 0.01666666666666667 0  2.618695652173913 0.01666666666666667 0  2.47 0.025 0  2.461739130434782 0.025 0  2.478260869565217 0.025 0  2.486521739130435 0.025 0  2.494782608695652 0.025 0  2.503043478260869 0.025 0  2.511304347826087 0.025 0  2.519565217391305 0.025 0  2.527826086956522 0.025 0  2.536086956521739 0.025 0  2.544347826086956 0.025 0  2.552608695652174 0.025 0  2.560869565217391 0.025 0  2.569130434782608 0.025 0  2.577391304347826 0.025 0  2.585652173913043 0.025 0  2.593913043478261 0.025 0  2.602173913043478 0.025 0  2.610434782608696 0.025 0  2.618695652173913 0.025 0  2.62695652173913 0.025 0  2.47 0.03333333333333333 0  2.478260869565217 0.03333333333333333 0  2.486521739130435 0.03333333333333333 0  2.494782608695652 0.03333333333333333 0  2.503043478260869 0.03333333333333333 0  2.511304347826087 0.03333333333333333 0  2.519565217391305 0.03333333333333333 0  2.527826086956522 0.03333333333333333 0  2.536086956521739 0.03333333333333333 0  2.544347826086956 0.03333333333333333 0  2.552608695652174 0.03333333333333333 0  2.560869565217391 0.03333333333333333 0  2.569130434782608 0.03333333333333333 0  2.577391304347826 0.03333333333333333 0  2.585652173913043 0.03333333333333333 0  2.593913043478261 0.03333333333333333 0  2.602173913043478 0.03333333333333333 0  2.610434782608696 0.03333333333333333 0  2.618695652173913 0.03333333333333333 0  2.62695652173913 0.03333333333333333 0  2.635217391304348 0.03333333333333333 0  2.478260869565217 0.04166666666666666 0  2.47 0.04166666666666666 0  2.486521739130435 0.04166666666666666 0  2.494782608695652 0.04166666666666666 0  2.503043478260869 0.04166666666666666 0  2.511304347826087 0.04166666666666666 0  2.519565217391305 0.04166666666666666 0  2.527826086956522 0.04166666666666666 0  2.536086956521739 0.04166666666666666 0  2.544347826086956 0.04166666666666666 0  2.552608695652174 0.04166666666666666 0  2.560869565217391 0.04166666666666666 0  2.569130434782608 0.04166666666666666 0  2.577391304347826 0.04166666666666666 0  2.585652173913043 0.04166666666666666 0  2.593913043478261 0.04166666666666666 0  2.602173913043478 0.04166666666666666 0  2.610434782608696 0.04166666666666666 0  2.618695652173913 0.04166666666666666 0  2.62695652173913 0.04166666666666666 0  2.635217391304348 0.04166666666666666 0  2.643478260869565 0.04166666666666666 0  2.478260869565217 0.05 0  2.47 0.05 0  2.486521739130435 0.05 0  2.494782608695652 0.05 0  2.503043478260869 0.05 0  2.511304347826087 0.05 0  2.519565217391305 0.05 0  2.527826086956522 0.05 0  2.536086956521739 0.05 0  2.544347826086956 0.05 0  2.552608695652174 0.05 0  2.560869565217391 0.05 0  2.569130434782608 0.05 0  2.577391304347826 0.05 0  2.585652173913043 0.05 0  2.593913043478261 0.05 0  2.602173913043478 0.05 0  2.610434782608696 0.05 0  2.618695652173913 0.05 0  2.62695652173913 0.05 0  2.635217391304348 0.05 0  2.643478260869565 0.05 0  2.651739130434783 0.05 0  2.478260869565217 0.05833333333333333 0  2.486521739130435 0.05833333333333333 0  2.494782608695652 0.05833333333333333 0  2.503043478260869 0.05833333333333333 0  2.511304347826087 0.05833333333333333 0  2.519565217391305 0.05833333333333333 0  2.527826086956522 0.05833333333333333 0  2.536086956521739 0.05833333333333333 0  2.544347826086956 0.05833333333333333 0  2.552608695652174 0.05833333333333333 0  2.560869565217391 0.05833333333333333 0  2.569130434782608 0.05833333333333333 0  2.577391304347826 0.05833333333333333 0  2.585652173913043 0.05833333333333333 0  2.593913043478261 0.05833333333333333 0  2.602173913043478 0.05833333333333333 0  2.610434782608696 0.05833333333333333 0  2.618695652173913 0.05833333333333333 0  2.62695652173913 0.05833333333333333 0  2.635217391304348 0.05833333333333333 0  2.643478260869565 0.05833333333333333 0  2.651739130434783 0.05833333333333333 0  2.66 0.05833333333333333 0  2.486521739130435 0.06666666666666667 0  2.478260869565217 0.06666666666666667 0  2.494782608695652 0.06666666666666667 0  2.503043478260869 0.06666666666666667 0  2.511304347826087 0.06666666666666667 0  2.519565217391305 0.06666666666666667 0  2.527826086956522 0.06666666666666667 0  2.536086956521739 0.06666666666666667 0  2.544347826086956 0.06666666666666667 0  2.552608695652174 0.06666666666666667 0  2.560869565217391 0.06666666666666667 0  2.569130434782608 0.06666666666666667 0  2.577391304347826 0.06666666666666667 0  2.585652173913043 0.06666666666666667 0  2.593913043478261 0.06666666666666667 0  2.602173913043478 0.06666666666666667 0  2.610434782608696 0.06666666666666667 0  2.618695652173913 0.06666666666666667 0  2.62695652173913 0.06666666666666667 0  2.635217391304348 0.06666666666666667 0  2.643478260869565 0.06666666666666667 0  2.651739130434783 0.06666666666666667 0  2.66 0.06666666666666667 0  2.668260869565217 0.06666666666666667 0  2.486521739130435 0.075 0  2.478260869565217 0.075 0  2.494782608695652 0.075 0  2.503043478260869 0.075 0  2.511304347826087 0.075 0  2.519565217391305 0.075 0  2.527826086956522 0.075 0  2.536086956521739 0.075 0  2.544347826086956 0.075 0  2.552608695652174 0.075 0  2.560869565217391 0.075 0  2.569130434782608 0.075 0  2.577391304347826 0.075 0  2.585652173913043 0.075 0  2.593913043478261 0.075 0  2.602173913043478 0.075 0  2.610434782608696 0.075 0  2.618695652173913 0.075 0  2.62695652173913 0.075 0  2.635217391304348 0.075 0  2.643478260869565 0.075 0  2.651739130434783 0.075 0  2.66 0.075 0  2.668260869565217 0.075 0  2.676521739130435 0.075 0  2.486521739130435 0.08333333333333333 0  2.478260869565217 0.08333333333333333 0  2.494782608695652 0.08333333333333333 0  2.503043478260869 0.08333333333333333 0  2.511304347826087 0.08333333333333333 0  2.519565217391305 0.08333333333333333 0  2.527826086956522 0.08333333333333333 0  2.536086956521739 0.08333333333333333 0  2.544347826086956 0.08333333333333333 0  2.552608695652174 0.08333333333333333 0  2.560869565217391 0.08333333333333333 0  2.569130434782608 0.08333333333333333 0  2.577391304347826 0.08333333333333333 0  2.585652173913043 0.08333333333333333 0  2.593913043478261 0.08333333333333333 0  2.602173913043478 0.08333333333333333 0  2.610434782608696 0.08333333333333333 0  2.618695652173913 0.08333333333333333 0  2.62695652173913 0.08333333333333333 0  2.635217391304348 0.08333333333333333 0  2.643478260869565 0.08333333333333333 0  2.651739130434783 0.08333333333333333 0  2.66 0.08333333333333333 0  2.668260869565217 0.08333333333333333 0  2.676521739130435 0.08333333333333333 0  2.684782608695652 0.08333333333333333 0  2.486521739130435 0.09166666666666666 0  2.478260869565217 0.09166666666666666 0  2.494782608695652 0.09166666666666666 0  2.503043478260869 0.09166666666666666 0  2.511304347826087 0.09166666666666666 0  2.519565217391305 0.09166666666666666 0  2.527826086956522 0.09166666666666666 0  2.536086956521739 0.09166666666666666 0  2.544347826086956 0.09166666666666666 0  2.552608695652174 0.09166666666666666 0  2.560869565217391 0.09166666666666666 0  2.569130434782608 0.09166666666666666 0  2.577391304347826 0.09166666666666666 0  2.585652173913043 0.09166666666666666 0  2.593913043478261 0.09166666666666666 0  2.602173913043478 0.09166666666666666 0  2.610434782608696 0.09166666666666666 0  2.618695652173913 0.09166666666666666 0  2.62695652173913 0.09166666666666666 0  2.635217391304348 0.09166666666666666 0  2.643478260869565 0.09166666666666666 0  2.651739130434783 0.09166666666666666 0  2.66 0.09166666666666666 0  2.668260869565217 0.09166666666666666 0  2.676521739130435 0.09166666666666666 0  2.684782608695652 0.09166666666666666 0  2.693043478260869 0.09166666666666666 0  2.486521739130435 0.1 0  2.478260869565217 0.1 0  2.49478
[...]
<CellData  Scalars="rho"> 
<DataArray  type="Float64"  Name="rho"  format="ascii">1.0000000000000000e+00   1.0000000000000000e+00   1.0000000000000000e+00   1.0000000000000000e+00   1.0000000000000000e+00   1.0000000000000000e+00   1.0000000000000000e+00   1.0000000000000000e+00   1.0000000000000000e+00   1.0000000000000000e+00   1.0000000000000000e+00   1.0000000000000000e+00   1.0000000000000000e+00   1.0000000000000000e+00   1.0000000000000000e+00   1.0000000000000000e+00   1.0000000000000000e+00   1.0000000000000000e+00   1.0000000000000000e+00   1.0000000000000000e+00   1.0000000000000000e+00   1.0000000000000000e+00   1.0000000000000000e+00   1.0000000000000000e+00   1.0000000000000000e+00   1.0000000000000000e+00   1.0000000000000000e+00   1.0000000000000000e+00   1.0000000000000000e+00   1.0000000000000000e+00   1.0000000000000000e+00   1.0000000000000000e+00   1.0000000000000000e+00   1.0000000000000000e+00   1.0000000000000000e+00   1.0000000000000000e+00   1.0000000000000000e+00   1.0000000000000000e+00   1.0000000000000000e+00   1.0000000000000000e+00   1.0000000000000000e+00   1.0000000000000000e+00   1.0000000000000000e+00   1.0000000000000000e+00   1.0000000000000000e+00   1.0000000000000000e+00   1.0000000000000000e+00   1.0000000000000000e+00   1.0000000000000000e+00   1.0000000000000000e+00   1.0000000000000000e+00   1.0000000000000000e+00   1.0000000000000000e+00   1.0000000000000000e+00   1.0000000000000000e+00   1.0000000000000000e+00   1.0000000000000000e+00   1.0000000000000000e+00   1.0000000000000000e+00   1.0000000000000000e+00   1.0000000000000000e+00   1.0000000000000000e+00   1.0000000000000000e+00   1.0000000000000000e+00   1.0000000000000000e+00   1.0000000000000000e+00   1.0000000000000000e+00   1.0000000000000000e+00   1.0000000000000000e+00   1.0000000000000000e+00   1.0000000000000000e+00   1.0000000000000000e+00   1.0000000000000000e+00   1.0000000000000000e+00   1.0000000000000000e+00   1.0000000000000000e+00   1.0000000000000000e+00   1.0000000000000000e+00   1.0000000000000000e+00   1.0000000000000000e+00   1.0000000000000000e+00   1.0000000000000000e+00   1.0000000000000000e+00   1.0000000000000000e+00   1.0000000000000000e+00   1.0000000000000000e+00   1.0000000000000000e+00   1.0000000000000000e+00   1.0000000000000000e+00   1.0000000000000000e+00   1.0000000000000000e+00   1.0000000000000000e+00   1.0000000000000000e+00   1.0000000000000000e+00   1.0000000000000000e+00   1.0000000000000000e+00   1.0000000000000000e+00   1.0000000000000000e+00   1.0000000000000000e+00   1.0000000000000000e+00   1.0000000000000000e+00   1.0000000000000000e+00   1.0000000000000000e+00   1.0000000000000000e+00   1.0000000000000000e+00   1.0000000000000000e+00   1.0000000000000000e+00   1.0000000000000000e+00   1.0000000000000000e+00   1.0000000000000000e+00   1.0000000000000000e+00   1.0000000000000000e+00   1.0000000000000000e+00   1.0000000000000000e+00   1.0000000000000000e+00   1.0000000000000000e+00   1.0000000000000000e+00   1.0000000000000000e+00   1.0000000000000000e+00   1.0000000000000000e+00   1.0000000000000000e+00   1.0000000000000000e+00   1.0000000000000000e+00   1.0000000000000000e+00   9.7859597839830981e-01   9.7053571655084225e-01   9.6576843302139448e-01   1.0000000000000000e+00   9.3048955932326416e-01   1.0000000000000000e+00   9.8901144698721288e-01   9.8889571088915862e-01   7.8719353332120068e-01   9.8255903104885711e-01   8.5020998199992892e-01   9.8336613421264585e-01   8.8242200522810987e-01   9.8478581421433342e-01   8.9605144023768957e-01   9.8138279464339873e-01   9.2208404273236833e-01   9.8503782435740161e-01   9.8545537022127117e-01   9.8943129116771045e-01   9.7483991712760332e-01   9.9423322489162302e-01   9.8624768818776554e-01   1.0000000000000000e+00   9.9135881489922772e-01   1.0000000000000000e+00   9.9640419340114450e-01   1.0000000000000000e+00   1.0000000000000000e+00   1.0000000000000000e+00   1.0000000000000000e+00   1.0000000000000000e+00   1.0000000000000000e+00   1.0000000000000000e+00   5.3583834030465494e-01   4.5318197532039756e-01   5.4450292190043192e-01   4.6014424474610910e-01   5.5272699545129689e-01   4.6358502567601306e-01   5.6693776634817628e-01   4.7444654618688392e-01   5.7775485272495930e-01   4.8656263337241240e-01   5.9447792198642435e-01   4.9230384003611716e-01   6.6354211116133011e-01   4.9631110245007420e-01   6.8271569221378381e-01   5.0064777886582845e-01   7.0269616817985547e-01   5.0339706338785295e-01   7.5282099274438474e-01   5.0930307484410342e-01   7.7309632967306818e-01   5.1513758335386983e-01   7.9084790901186419e-01   5.2102068420800352e-01   8.0989590853498361e-01   5.2755500469664207e-01   8.3096619195974464e-01   5.3458921235618062e-01   8.5974236764999701e-01   5.4348268413086043e-01   7.1430667920693747e-01   5.4916075164183187e-01   7.3011187697791713e-01   5.4668920144836675e-01   7.5762040629541849e-01   5.5412241036476462e-01   7.4010089659774103e-01   5.6381529401138353e-01   7.6297792023662725e-01   5.8199537066004858e-01   5.6898867747159676e-01   1.9108193135664306e-01   3.1078203813677029e-03   1.7852631858294493e-01   1.8587907769654142e-03   2.1159332751765264e-01   2.6380548055474325e-03   2.9465565124356302e-01   2.0642526350540666e-03   3.0470339142544950e-01   2.7647582336396827e-02   3.1248492014430046e-01   3.3087051525507456e-02   3.4004248257973030e-01   3.6974395472761538e-02   3.5066683580017427e-01   4.6581703302268650e-02   3.5271165467268129e-01   4.7339621667712987e-02   3.5566293959403650e-01   9.1153119715470479e-02   3.5951752115672919e-01   8.3455650742540313e-02   3.6421045637976612e-01   7.8482064830734041e-02   3.7707881396301512e-01   1.8428779216389529e-01   3.8268360979591948e-01   1.9934505825372301e-01   3.8720443705509466e-01   1.7918636507141050e-01   3.7994921508137414e-01   1.3788276958965837e-01   3.8644046349726757e-01   1.5080624523810530e-02   3.4717858028426601e-01   3.9036713596756999e-03   3.5387115172678402e-01   0.0000000000000000e+00   3.5605882207179940e-01   2.5505218395927677e-03   3.4277941973177312e-01   9.3522262819537971e-03   1.3916044946638305e-02   5.0923274059507125e-04   5.6295754976718902e-04   0.0000000000000000e+00   1.4480667216702322e-04   2.8815926561828861e-04   1.2753601154456490e-04   2.8008535445593835e-04   3.2999645136507573e-04   2.0257007625740906e-04   2.2019219909114897e-04   1.2562863233400156e-04   1.5128974126139272e-04   1.6504338237010576e-04   1.7499744520347362e-04   0.0000000000000000e+00   0.0000000000000000e+00   0.0000000000000000e+00   0.0000000000000000e+00   0.0000000000000000e+00   0.0000000000000000e+00   0.0000000000000000e+00   0.0000000000000000e+00   0.0000000000000000e+00   0.0000000000000000e+00   0.0000000000000000e+00   0.0000000000000000e+00   0.0000000000000000e+00   0.0000000000000000e+00   0.0000000000000000e+00   0.0000000000000000e+00   0.0000000000000000e+00   0.0000000000000000e+00   0.0000000000000000e+00   0.0000000000000000e+00   0.0000000000000000e+00   0.0000000000000000e+00   0.0000000000000000e+00   0.0000000000000000e+00   0.0000000000000000e+00   0.0000000000000000e+00   0.0000000000000000e+00   0.0000000000000000e+00   0.0000000000000000e+00   0.0000000000000000e+00   0.0000000000000000e+00   0.0000000000000000e+00   0.0000000000000000e+00   0.0000000000000000e+00   0.0000000000000000e+00   0.0000000000000000e+00   0.0000000000000000e+00   0.0000000000000000e+00   0.0000000000000000e+00   0.0000000000000000e+00   0.0000000000000000e+00   0.0000000000000000e+00   0.0000000000000000e+00   0.0000000000000000e+00   0.0000000000000000e+00   0.0000000000000000e+00   0.0000000000000000e+00   0.0000000000000000e+00   0.0000000000000000e+00   0.0000000000000000e+00   0.0000000000000000e+00   0.0000000000000000e+00   0.0000000000000000e+00   0.0000000000000000e+00   0.0000000000000000e+00   0.0000000000000000e+00   0.0000000000000000e+00   0.0000000000000000e+00   0.0000000000000000e+00   0.0000000000000000e+00   0.0000000000000000e+00   0.0000000000000000e+00   0.0000000000000000e+00   0.0000000000000000e+00   0.0000000000000000e+00   0.0000000000000000e+00   0.0000000000000000e+00   0.0000000000000000e+00   0.0000000000000000e+00   0.0000000000000000e+00   0.0000000000000000e+00   0.0000000000000000e+00   0.0000000000000000e+00   0.0000000000000000e+00   0.0000000000000000e+00   0.0000000000000000e+00   0.0000000000000000e+00   0.0000000000000000e+00   0.0000000000000000e+00   0.0000000000000000e+00   0.0000000000000000e+00   0.0000000000000000e+00   0.0000000000000000e+00   0.0000000000000000e+00   0.0000000000000000e+00   0.0000000000000000e+00   0.0000000000000000e+00   0.0000000000000000e+00   0.0000000000000000e+00   0.0000000000000000e+00   0.0000000000000000e+00   0.0000000000000000e+00   0.0000000000000000e+00   0.0000000000000000e+00   0.0000000000000000e+00   0.0000000000000000e+00   0.0000000000000000e+00   0.0000000000000000e+00   0.0000000000000000e+00   0.0000000000000000e+00   0.0000000000000000e+00   0.0000000000000000e+00   0.0000000000000000e+00   0.0000000000000000e+00   0.0000000000000000e+00   0.0000000000000000e+00   0.0000000000000000e+00   0.0000000000000000e+00   0.0000000000000000e+00   0.0000000000000000e+00   0.0000000000000000e+00   0.0000000000000000e+00   0.0000000000000000e+00   0.0000000000000000e+00   0.0000000000000000e+00   0.0000000000000000e+00   0.0000000000000000e+00   0.0000000000000000e+00   0.0000000000000000e+00   0.0000000000000000e+00   0.0000000000000000e+00   0.0000000000000000e+00   0.0000000000000000e+00   0.0000000000000000e+00   0.0000000000000000e+00   0.0000000000000000e+00   0.0000000000000000e+00   0.0000000000000000e+00   0.0000000000000000e+00   0.0000000000000000e+00   0.0000000000000000e+00   0.0000000000000000e+00   0.0000000000000000e+00   0.0000000000000000e+00   0.0000000000000000e+00   0.0000000000000000e+00   0.0000000000000000e+00   0.0000000000000000e+00   0.0000000000000000e+00   0.0000000000000000e+00   0.0000000000000000e+00   0.0000000000000000e+00   0.0000000000000000e+00   0.0000000000000000e+00   0.0000000000000000e+00   0.0000000000000000e+00   0.0000000000000000e+00   0.0000000000000000e+00   0.0000000000000000e+00   0.0000000000000000e+00   0.0000000000000000e+00   0.0000000000000000e+00   0.0000000000000000e+00   0.0000000000000000e+00   0.0000000000000000e+00   0.0000000000000000e+00   0.0000000000000000e+00   0.0000000000000000e+00   0.0000000000000000e+00   0.0000000000000000e+00   0.0000000000000000e+00   0.0000000000000000e+00   0.0000000000000000e+00   0.0000000000000000e+00   0.0000000000000000e+00   0.0000000000000000e+00   0.0000000000000000e+00   0.0000000000000000e+00   0.0000000000000000e+00   0.0000000000000000e+00   0.0000000000000000e+00   0.0000000000000000e+00   0.0000000000000000e+00   0.0000000000000000e+00   0.0000000000000000e+00   0.0000000000000000e+00   0.0000000000000000e+00   0.0000000000000000e+00   0.0000000000000000e+00   0.0000000000000000e+00   0.0000000000000000e+00   0.0000000000000000e+00   0.0000000000000000e+00   0.0000000000000000e+00   0.0000000000000000e+00   0.0000000000000000e+00   0.0000000000000000e+00   0.0000000000000000e+00   0.0000000000000000e+00   0.0000000000000000e+00   0.0000000000000000e+00   0.0000000000000000e+00   0.0000000000000000e+00   0.0000000000000000e+00   0.0000000000000000e+00   0.0000000000000000e+00   0.0000000000000000e+00   0.0000000000000000e+00   0.0000000000000000e+00   0.0000000000000000e+00   0.0000000000000000e+00   0.0000000000000000e+00   0.0000000000000000e+00   0.0000000000000000e+00   0.0000000000000000e+00   0.0000000000000000e+00   0.0000000000000000e+00   0.0000000000000000e+00   0.0000000000000000e+00   0.0000000000000000e+00   0.0000000000000000e+00   0.0000000000000000e+00   0.0000000000000000e+00   0.0000000000000000e+00   0.0000000000000000e+00   0.0000000000000000e+00   0.0000000000000000e+00   0.0000000000000000e+00   0.0000000000000000e+00   0.0000000000000000e+00   0.0000000000000000e+00   0.0000000000000000e+00   0.0000000000000000e+00   0.0000000000000000e+00   0.0000000000000000e+00   0.0000000000000000e+00   0.0000000000000000e+00   0.0000000000000000e+00   0.0000000000000000e+00   0.0000000000000000e+00   0.0000000000000000e+00   0.0000000000000000e+00   0.0000000000000000e+00   0.0000000000000000e+00   0.0000000000000000e+00   0.0000000000000000e+00   0.0000000000000000e+00   0.0000000000000000e+00   0.0000000000000000e+00   0.0000000000000000e+00   0.0000000000000000e+00   0.0000000000000000e+00   0.0000000000000000e+00   0.0000000000000000e+00   0.0000000000000000e+00   0.0000000000000000e+00   0.0000000000000000e+00   0.0000000000000000e+00   0.0000000000000000e+00   0.0000000000000000e+00   0.0000000000000000e+00   0.0000000000000000e+00   0.0000000000000000e+00   0.0000000000000000e+00   0.0000000000000000e+00   0.0000000000000000e+00   0.0000000000000000e+00   0.0000000000000000e+00   0.0000000000000000e+00   0.0000000000000000e+00   0.0000000000000000e+00   0.0000000000000000e+00   0.0000000000000000e+00   0.0000000000000000e+00   0.0000000000000000e+00   0.0000000000000000e+00   0.0000000000000000e+00   0.0000000000000000e+00   0.0000000000000000e+00   0.0000000000000000e+00   0.0000000000000000e+00   0.0000000000000000e+00   0.0000000000000000e+00   0.0000000000000000e+00   0.0000000000000000e+00   8.4431796025888323e-02   2.7483040683146476e-01   7.4254677631392776e-02   2.6092247486786668e-01   4.8212365485450943e-03   8.0767928297013902e-02   0.0000000000000000e+00   9.6460031313510327e-03   0.0000000000000000e+00   0.0000000000000000e+00   0.0000000000000000e+00   0.0000000000000000e+00   0.0000000000000000e+00   0.0000000000000000e+00   0.0000000000000000e+00   0.0000000000000000e+00   0.0000000000000000e+00   0.0000000000000000e+00   0.0000000000000000e+00   0.0000000000000000e+00   0.0000000000000000e+00   0.0000000000000000e+00   0.0000000000000000e+00   0.0000000000000000e+00   0.0000000000000000e+00   0.0000000000000000e+00   0.0000000000000000e+00   0.0000000000000000e+00   0.0000000000000000e+00   0.0000000000000000e+00   0.0000000000000000e+00   0.0000000000000000e+00   0.0000000000000000e+00   0.0000000000000000e+00   0.0000000000000000e+00   0.0000000000000000e+00   0.0000000000000000e+00   0.0000000000000000e+00   0.0000000000000000e+00   0.0000000000000000e+00   0.0000000000000000e+00   0.0000000000000000e+00   0.0000000000000000e+00   0.0000000000000000e+00   0.0000000000000000e+00   0.0000000000000000e+00   0.0000000000000000e+00   0.0000000000000000e+00   0.0000000000000000e+00   0.0000000000000000e+00   0.0000000000000000e+00   0.0000000000000000e+00   0.0000000000000000e+00   0.0000000000000000e+00   0.0000000000000000e+00   3.0345215559816596e-01   6.7604979204620796e-01   2.8741697660632759e-01   3.0186934941772531e-01   2.5496453693954235e-01   2.7709568939226892e-01   7.8133017118464390e-02   9.6144136884103198e-02   7.5204038854732045e-04   1.4966193092659827e-02   0.0000000000000000e+00   0.0000000000000000e+00   0.0000000000000000e+00   0.0000000000000000e+00   0.0000000000000000e+00   0.0000000000000000e+00   0.0000000000000000e+00   0.0000000000000000e+00   0.0000000000000000e+00   0.0000000000000000e+00   0.0000000000000000e+00   0.0000000000000000e+00   0.0000000000000000e+00   0.0000000000000000e+00   0.0000000000000000e+00   0.0000000000000000e+00   0.0000000000000000e+00   0.0000000000000000e+00   0.0000000000000000e+00   0.0000000000000000e+00   0.0000000000000000e+00   0.0000000000000000e+00   0.0000000000000000e+00   0.0000000000000000e+00   0.0000000000000000e+00   0.0000000000000000e+00   0.0000000000000000e+00   0.0000000000000000e+00   0.0000000000000000e+00   0.0000000000000000e+00   0.0000000000000000e+00   0.0000000000000000e+00   0.0000000000000000e+00   0.0000000000000000e+00   0.0000000000000000e+00   0.0000000000000000e+00   0.0000000000000000e+00   0.0000000000000000e+00   0.0000000000000000e+00   0.0000000000000000e+00   0.0000000000000000e+00   0.0000000000000000e+00   0.0000000000000000e+00   0.0000000000000000e+00   0.0000000000000000e+00   0.0000000000000000e+00   0.0000000000000000e+00   6.7832270157696783e-01   5.4167259837510617e-01   6.6586174413706645e-01   5.3944594199953944e-01   2.6954834027903823e-01   4.9622220469918688e-01   1.0073506788563262e-01   1.0929305260552380e-01   2.5379930788018958e-02   3.4792900058884808e-02   9.9374253360386341e-03   2.1813088856095446e-02   0.0000000000000000e+00   0.0000000000000000e+00   0.0000000000000000e+00   0.0000000000000000e+00   0.0000000000000000e+00   0.0000000000000000e+00   0.0000000000000000e+00   0.0000000000000000e+00   0.0000000000000000e+00   0.0000000000000000e+00   0.0000000000000000e+00   0.0000000000000000e+00   0.0000000000000000e+00   0.0000000000000000e+00   0.0000000000000000e+00   0.0000000000000000e+00   0.0000000000000000e+00   0.0000000000000000e+00   0.0000000000000000e+00   0.0000000000000000e+00   0.0000000000000000e+00   0.0000000000000000e+00   0.0000000000000000e+00   0.0000000000000000e+00   0.0000000000000000e+00   0.0000000000000000e+00   0.0000000000000000e+00   0.0000000000000000e+00   0.0000000000000000e+00   0.0000000000000000e+00   0.0000000000000000e+00   0.0000000000000000e+00   0.0000000000000000e+00   0.0000000000000000e+00   0.0000000000000000e+00   0.0000000000000000e+00   0.0000000000000000e+00   0.0000000000000000e+00   0.0000000000000000e+00   0.0000000000000000e+00   0.0000000000000000e+00   0.0000000000000000e+00   0.0000000000000000e+00   0.0000000000000000e+00   0.0000000000000000e+00   0.0000000000000000e+00   0.0000000000000000e+00   4.1044769526772246e-01   3.3635992060271552e-01   4.1206906805252175e-01   3.1000534878731911e-01   3.9972504221751182e-01   3.7257581700072406e-01   1.0884791377548809e-01   1.0537277093188917e-01   7.9329873604880419e-02   7.8592614358168805e-02   5.1316172919391147e-02   6.5599704158935776e-02   0.0000000000000000e+00   1.6171883560845375e-02   0.0000000000000000e+00   0.0000000000000000e+00   0.0000000000000000e+00   0.0000000000000000e+00   0.0000000000000000e+00   0.0000000000000000e+00   0.0000000000000000e+00   0.0000000000000000e+00   0.0000000000000000e+00   0.0000000000000000e+00   0.0000000000000000e+00   0.0000000000000000e+00   0.0000000000000000e+00   0.0000000000000000e+00   0.0000000000000000e+00   0.0000000000000000e+00   0.0000000000000000e+00   0.0000000000000000e+00   0.0000000000000000e+00   0.0000000000000000e+00   0.0000000000000000e+00   0.0000000000000000e+00   0.0000000000000000e+00   0.0000000000000000e+00   0.0000000000000000e+00   0.0000000000000000e+00   0.0000000000000000e+00   0.0000000000000000e+00   0.0000000000000000e+00   0.0000000000000000e+00   0.0000000000000000e+00   0.0000000000000000e+00   0.0000000000000000e+00   0.0000000000000000e+00   0.0000000000000000e+00   0.0000000000000000e+00   0.0000000000000000e+00   0.0000000000000000e+00   0.0000000000000000e+00   0.0000000000000000e+00   0.0000000000000000e+00   0.0000000000000000e+00   6.7884819659943271e-04   4.5965804065385354e-04   1.8441855340809628e-03   1.7047202972988924e-03   0.0000000000000000e+00   3.4317657953679354e-01   3.3309800926884514e-01   3.5673255448821406e-01   3.4502512955783171e-01   3.5728483970663305e-01   3.5021258561114976e-01   1.2155852702331704e-01   1.3397530831861171e-01   1.0908574349951282e-01   1.3187330445453613e-01   9.8108144620541113e-02   1.1746952972952437e-01   0.0000000000000000e+00   5.6652016884267624e-02   0.0000000000000000e+00   2.9418369751942789e-02   0.0000000000000000e+00   3.6522969507703978e-02   0.0000000000000000e+00   0.0000000000000000e+00   0.0000000000000000e+00   0.0000000000000000e+00   0.0000000000000000e+00   0.0000000000000000e+00   0.0000000000000000e+00   0.0000000000000000e+00   0.0000000000000000e+00   0.0000000000000000e+00   0.0000000000000000e+00   0.0000000000000000e+00   0.0000000000000000e+00   0.0000000000000000e+00   0.0000000000000000e+00   0.0000000000000000