<?xml version="1.0"?>
<VTKFile type="UnstructuredGrid"  version="0.1"  >
<UnstructuredGrid>
<Piece  NumberOfPoints="2417" NumberOfCells="4629">
<Points>
<DataArray  type="Float64"  NumberOfComponents="3"  format="ascii">1.561304347826087 0 0  1.569565217391304 0 0  1.569565217391304 0.008333333333333333 0  1.561304347826087 0.008333333333333333 0  1.577826086956522 0 0  1.577826086956522 0.008333333333333333 0  1.586086956521739 0 0  1.586086956521739 0.008333333333333333 0  1.594347826086957 0 0  1.594347826086957 0.008333333333333333 0  1.602608695652174 0 0  1.602608695652174 0.008333333333333333 0  1.610869565217391 0 0  1.610869565217391 0.008333333333333333 0  1.619130434782609 0 0  1.619130434782609 0.008333333333333333 0  1.627391304347826 0 0  1.627391304347826 0.008333333333333333 0  1.635652173913043 0 0  1.635652173913043 0.008333333333333333 0  1.643913043478261 0 0  1.643913043478261 0.008333333333333333 0  1.652173913043478 0 0  1.652173913043478 0.008333333333333333 0  1.660434782608696 0 0  1.660434782608696 0.008333333333333333 0  1.668695652173913 0 0  1.668695652173913 0.008333333333333333 0  1.67695652173913 0 0  1.67695652173913 0.008333333333333333 0  1.685217391304348 0 0  1.685217391304348 0.008333333333333333 0  1.693478260869565 0 0  1.693478260869565 0.008333333333333333 0  1.701739130434782 0 0  1.701739130434782 0.008333333333333333 0  1.71 0 0  1.71 0.008333333333333333 0  1.718260869565217 0 0  1.718260869565217 0.008333333333333333 0  1.726521739130435 0 0  1.726521739130435 0.008333333333333333 0  1.734782608695652 0 0  1.734782608695652 0.008333333333333333 0  1.743043478260869 0 0  1.743043478260869 0.008333333333333333 0  1.751304347826087 0 0  1.751304347826087 0.008333333333333333 0  1.759565217391304 0 0  1.759565217391304 0.008333333333333333 0  1.767826086956522 0 0  1.767826086956522 0.008333333333333333 0  1.776086956521739 0.008333333333333333 0  1.569565217391304 0.01666666666666667 0  1.577826086956522 0.01666666666666667 0  1.586086956521739 0.01666666666666667 0  1.594347826086957 0.01666666666666667 0  1.602608695652174 0.01666666666666667 0  1.610869565217391 0.01666666666666667 0  1.619130434782609 0.01666666666666667 0  1.627391304347826 0.01666666666666667 0  1.635652173913043 0.01666666666666667 0  1.643913043478261 0.01666666666666667 0  1.652173913043478 0.01666666666666667 0  1.660434782608696 0.01666666666666667 0  1.668695652173913 0.01666666666666667 0  1.67695652173913 0.01666666666666667 0  1.685217391304348 0.01666666666666667 0  1.693478260869565 0.01666666666666667 0  1.701739130434782 0.01666666666666667 0  1.71 0.01666666666666667 0  1.718260869565217 0.01666666666666667 0  1.726521739130435 0.01666666666666667 0  1.734782608695652 0.01666666666666667 0  1.743043478260869 0.01666666666666667 0  1.751304347826087 0.01666666666666667 0  1.759565217391304 0.01666666666666667 0  1.767826086956522 0.01666666666666667 0  1.776086956521739 0.01666666666666667 0  1.577826086956522 0.025 0  1.569565217391304 0.025 0  1.586086956521739 0.025 0  1.594347826086957 0.025 0  1.602608695652174 0.025 0  1.610869565217391 0.025 0  1.619130434782609 0.025 0  1.627391304347826 0.025 0  1.635652173913043 0.025 0  1.643913043478261 0.025 0  1.652173913043478 0.025 0  1.660434782608696 0.025 0  1.668695652173913 0.025 0  1.67695652173913 0.025 0  1.685217391304348 0.025 0  1.693478260869565 0.025 0  1.701739130434782 0.025 0  1.71 0.025 0  1.718260869565217 0.025 0  1.726521739130435 0.025 0  1.734782608695652 0.025 0  1.743043478260869 0.025 0  1.751304347826087 0.025 0  1.759565217391304 0.025 0  1.767826086956522 0.025 0  1.776086956521739 0.025 0  1.577826086956522 0.03333333333333333 0  1.569565217391304 0.03333333333333333 0  1.586086956521739 0.03333333333333333 0  1.594347826086957 0.03333333333333333 0  1.602608695652174 0.03333333333333333 0  1.610869565217391 0.03333333333333333 0  1.619130434782609 0.03333333333333333 0  1.627391304347826 0.03333333333333333 0  1.635652173913043 0.03333333333333333 0  1.643913043478261 0.03333333333333333 0  1.652173913043478 0.03333333333333333 0  1.660434782608696 0.03333333333333333 0  1.668695652173913 0.03333333333333333 0  1.67695652173913 0.03333333333333333 0  1.685217391304348 0.03333333333333333 0  1.693478260869565 0.03333333333333333 0  1.701739130434782 0.03333333333333333 0  1.71 0.03333333333333333 0  1.718260869565217 0.03333333333333333 0  1.726521739130435 0.03333333333333333 0  1.734782608695652 0.03333333333333333 0  1.743043478260869 0.03333333333333333 0  1.751304347826087 0.03333333333333333 0  1.759565217391304 0.03333333333333333 0  1.767826086956522 0.03333333333333333 0  1.776086956521739 0.03333333333333333 0  1.577826086956522 0.04166666666666666 0  1.569565217391304 0.04166666666666666 0  1.586086956521739 0.04166666666666666 0  1.594347826086957 0.04166666666666666 0  1.602608695652174 0.04166666666666666 0  1.610869565217391 0.04166666666666666 0  1.619130434782609 0.04166666666666666 0  1.627391304347826 0.04166666666666666 0  1.635652173913043 0.04166666666666666 0  1.643913043478261 0.04166666666666666 0  1.652173913043478 0.04166666666666666 0  1.660434782608696 0.04166666666666666 0  1.668695652173913 0.04166666666666666 0  1.67695652173913 0.04166666666666666 0  1.685217391304348 0.04166666666666666 0  1.693478260869565 0.04166666666666666 0  1.701739130434782 0.04166666666666666 0  1.71 0.04166666666666666 0  1.718260869565217 0.04166666666666666 0  1.726521739130435 0.04166666666666666 0  1.734782608695652 0.04166666666666666 0  1.743043478260869 0.04166666666666666 0  1.751304347826087 0.04166666666666666 0  1.759565217391304 0.04166666666666666 0  1.767826086956522 0.04166666666666666 0  1.776086956521739 0.04166666666666666 0  1.784347826086957 0.04166666666666666 0  1.577826086956522 0.05 0  1.569565217391304 0.05 0  1.586086956521739 0.05 0  1.594347826086957 0.05 0  1.602608695652174 0.05 0  1.610869565217391 0.05 0  1.619130434782609 0.05 0  1.627391304347826 0.05 0  1.635652173913043 0.05 0  1.643913043478261 0.05 0  1.652173913043478 0.05 0  1.660434782608696 0.05 0  1.668695652173913 0.05 0  1.67695652173913 0.05 0  1.685217391304348 0.05 0  1.693478260869565 0.05 0  1.701739130434782 0.05 0  1.71 0.05 0  1.718260869565217 0.05 0  1.726521739130435 0.05 0  1.734782608695652 0.05 0  1.743043478260869 0.05 0  1.751304347826087 0.05 0  1.759565217391304 0.05 0  1.767826086956522 0.05 0  1.776086956521739 0.05 0  1.784347826086957 0.05 0  1.792608695652174 0.05 0  1.577826086956522 0.05833333333333333 0  1.569565217391304 0.05833333333333333 0  1.586086956521739 0.05833333333333333 0  1.594347826086957 0.05833333333333333 0  1.602608695652174 0.05833333333333333 0  1.610869565217391 0.05833333333333333 0  1.619130434782609 0.05833333333333333 0  1.627391304347826 0.05833333333333333 0  1.635652173913043 0.05833333333333333 0  1.643913043478261 0.05833333333333333 0  1.652173913043478 0.05833333333333333 0  1.660434782608696 0.05833333333333333 0  1.668695652173913 0.05833333333333333 0  1.67695652173913 0.05833333333333333 0  1.685217391304348 0.05833333333333333 0  1.693478260869565 0.05833333333333333 0  1.701739130434782 0.05833333333333333 0  1.71 0.05833333333333333 0  1.718260869565217 0.05833333333333333 0  1.726521739130435 0.05833333333333333 0  1.734782608695652 0.05833333333333333 0  1.743043478260869 0.05833333333333333 0  1.751304347826087 0.05833333333333333 0  1.759565217391304 0.05833333333333333 0  1.767826086956522 0.05833333333333333 0  1.776086956521739 0.05833333333333333 0  1.784347826086957 0.05833333333333333 0  1.792608695652174 0.05833333333333333 0  1.800869565217391 0.05833333333333333 0  1.577826086956522 0.06666666666666667 0  1.569565217391304 0.06666666666666667 0  1.586086956521739 0.06666666666666667 0  1.594347826086957 0.06666666666666667 0  1.602608695652174 0.06666666666666667 0  1.610869565217391 0.06666666666666667 0  1.619130434782609 0.06666666666666667 0  1.627391304347826 0.06666666666666667 0  1.635652173913043 0.06666666666666667 0  1.643913043478261 0.06666666666666667 0  1.652173913043478 0.06666666666666667 0  1.660434782608696 0.06666666666666667 0  1.668695652173913 0.06666666666666667 0  1.67695652173913 0.06666666666666667 0  1.685217391304348 0.06666666666666667 0  1.693478260869565 0.06666666666666667 0  1.701739130434782 0.06666666666666667 0  1.71 0.06666666666666667 0  1.718260869565217 0.06666666666666667 0  1.726521739130435 0.06666666666666667 0  1.734782608695652 0.06666666666666667 0  1.743043478260869 0.06666666666666667 0  1.751304347826087 0.06666666666666667 0  1.759565217391304 0.06666666666666667 0  1.767826086956522 0.06666666666666667 0  1.776086956521739 0.06666666666666667 0  1.784347826086957 0.06666666666666667 0  1.792608695652174 0.06666666666666667 0  1.800869565217391 0.06666666666666667 0  1.577826086956522 0.075 0  1.569565217391304 0.075 0  1.586086956521739 0.075 0  1.594347826086957 0.075 0  1.602608695652174 0.075 0  1.610869565217391 0.075 0  1.619130434782609 0.075 0  1.627391304347826 0.075 0  1.635652173913043 0.075 0  1.643913043478261 0.075 0  1.652173913043478 0.075 0  1.660434782608696 0.075 0  1.668695652173913 0.075 0  1.67695652173913 0.075 0  1.685217391304348 0.075 0  1.693478260869565 0.075 0  1.701739130434782 0.075 0  1.71 0.075 0  1.718260869565217 0.075 0  1.726521739130435 0.075 0  1.734782608695652 0.075 0  1.743043478260869 0.075 0  1.751304347826087 0.075 0  1.759565217391304 0.075 0  1.767826086956522 0.075 0  1.776086956521739 0.075 0  1.784347826086957 0.075 0  1.792608695652174 0.075 0  1.800869565217391 0.075 0  1.809130434782608 0.075 0  1.577826086956522 0.08333333333333333 0  1.569565217391304 0.08333333333333333 0  1.586086956521739 0.08333333333333333 0  1.594347826086957 0.08333333333333333 0  1.602608695652174 0.08333333333333333 0  1.610869565217391 0.08333333333333333 0  1.619130434782609 0.08333333333333333 0  1.627391304347826 0.08333333333333333 0  1.6
[...]
<PointData  Vectors="Displacement"> 
<DataArray  type="Float64"  Name="Displacement"  NumberOfComponents="3" format="ascii">1.9148971559504425e-04 1.0609682608922904e-03 0.0000000000000000e+00  1.9340890631245106e-04 1.0694917889152295e-03 0.0000000000000000e+00  1.8450778645443832e-04 1.0686718020625843e-03 0.0000000000000000e+00  1.8315642631292194e-04 1.0601542657544382e-03 0.0000000000000000e+00  1.9528643244194605e-04 1.0787070040588790e-03 0.0000000000000000e+00  1.8582069842369849e-04 1.0779122936137660e-03 0.0000000000000000e+00  1.9705106671486251e-04 1.0885664210423685e-03 0.0000000000000000e+00  1.8707186068601408e-04 1.0878196655719026e-03 0.0000000000000000e+00  1.9863994481091011e-04 1.0989764790666780e-03 0.0000000000000000e+00  1.8824246241353539e-04 1.0983025338969919e-03 0.0000000000000000e+00  1.9999925512919722e-04 1.1098093822130106e-03 0.0000000000000000e+00  1.8930140712195186e-04 1.1092319567605046e-03 0.0000000000000000e+00  2.0111713380889436e-04 1.1208695918966734e-03 0.0000000000000000e+00  1.9024042259763673e-04 1.1203861441628797e-03 0.0000000000000000e+00  2.0202026344997345e-04 1.1319970523089669e-03 0.0000000000000000e+00  1.9107099441934420e-04 1.1315919338547443e-03 0.0000000000000000e+00  2.0274048166515625e-04 1.1431038141728913e-03 0.0000000000000000e+00  1.9180317872430071e-04 1.1427670709039473e-03 0.0000000000000000e+00  2.0330189989984100e-04 1.1541288926068738e-03 0.0000000000000000e+00  1.9244135726400257e-04 1.1538546754587280e-03 0.0000000000000000e+00  2.0372270781870484e-04 1.1650251650510313e-03 0.0000000000000000e+00  1.9298658562151048e-04 1.1648087093470078e-03 0.0000000000000000e+00  2.0402555796538192e-04 1.1757432142439209e-03 0.0000000000000000e+00  1.9344800582115926e-04 1.1755744190559659e-03 0.0000000000000000e+00  2.0423879252024103e-04 1.1862492731223786e-03 0.0000000000000000e+00  1.9384177087367340e-04 1.1861156093918059e-03 0.0000000000000000e+00  2.0438152086017225e-04 1.1965475141731635e-03 0.0000000000000000e+00  1.9417594542387511e-04 1.1964441922305395e-03 0.0000000000000000e+00  2.0446278726872697e-04 1.2066430764647660e-03 0.0000000000000000e+00  1.9445338551280227e-04 1.2065683881064446e-03 0.0000000000000000e+00  2.0449193433774937e-04 1.2165284780913384e-03 0.0000000000000000e+00  1.9468016534452057e-04 1.2164779217128988e-03 0.0000000000000000e+00  2.0448317075350635e-04 1.2261966968821227e-03 0.0000000000000000e+00  1.9486675147356512e-04 1.2261631409523483e-03 0.0000000000000000e+00  2.0445000353477283e-04 1.2356563406689099e-03 0.0000000000000000e+00  1.9502194404469190e-04 1.2356346019877697e-03 0.0000000000000000e+00  2.0440347133970387e-04 1.2449196842255635e-03 0.0000000000000000e+00  1.9515309405747494e-04 1.2449055279406076e-03 0.0000000000000000e+00  2.0435550771786957e-04 1.2539959427495513e-03 0.0000000000000000e+00  1.9526927349950037e-04 1.2539838153634412e-03 0.0000000000000000e+00  2.0431993374069984e-04 1.2628974893709917e-03 0.0000000000000000e+00  1.9538097622907622e-04 1.2628810724494241e-03 0.0000000000000000e+00  2.0431256504633313e-04 1.2716400272858972e-03 0.0000000000000000e+00  1.9550010165878936e-04 1.2716121296707230e-03 0.0000000000000000e+00  2.0435123197677199e-04 1.2802435226172816e-03 0.0000000000000000e+00  1.9563991639316388e-04 1.2801961114649960e-03 0.0000000000000000e+00  2.0445499599015766e-04 1.2887342839264350e-03 0.0000000000000000e+00  1.9581429877760324e-04 1.2886590144580326e-03 0.0000000000000000e+00  2.0464295120505862e-04 1.2971457752086694e-03 0.0000000000000000e+00  1.9603687559981156e-04 1.2970345153195235e-03 0.0000000000000000e+00  2.0493264599763617e-04 1.3055193606797703e-03 0.0000000000000000e+00  1.9631990607941422e-04 1.3053648910864770e-03 0.0000000000000000e+00  1.9667280142310090e-04 1.3137017724107595e-03 0.0000000000000000e+00  1.7572505184084233e-04 1.0680683247838887e-03 0.0000000000000000e+00  1.7653467241235681e-04 1.0773389510717155e-03 0.0000000000000000e+00  1.7730488512945048e-04 1.0872668486732709e-03 0.0000000000000000e+00  1.7807895279211845e-04 1.0977764963430580e-03 0.0000000000000000e+00  1.7885690760459334e-04 1.1087772566399335e-03 0.0000000000000000e+00  1.7961606424720208e-04 1.1199883751453412e-03 0.0000000000000000e+00  1.8036247963997977e-04 1.1312232577163602e-03 0.0000000000000000e+00  1.8109143225959908e-04 1.1424237677000709e-03 0.0000000000000000e+00  1.8179511667999645e-04 1.1535450978020167e-03 0.0000000000000000e+00  1.8244915163238400e-04 1.1645434389845157e-03 0.0000000000000000e+00  1.8304502086345241e-04 1.1753440302098093e-03 0.0000000000000000e+00  1.8359786387902785e-04 1.1859027928498584e-03 0.0000000000000000e+00  1.8410763414451436e-04 1.1962541350872223e-03 0.0000000000000000e+00  1.8456425933877183e-04 1.2064088433111166e-03 0.0000000000000000e+00  1.8496755400220408e-04 1.2163456275820783e-03 0.0000000000000000e+00  1.8532753148500726e-04 1.2260485379902825e-03 0.0000000000000000e+00  1.8564932226883155e-04 1.2355358323008778e-03 0.0000000000000000e+00  1.8593432046015197e-04 1.2448225704324077e-03 0.0000000000000000e+00  1.8618774487731948e-04 1.2539124448966484e-03 0.0000000000000000e+00  1.8641687583704673e-04 1.2628166039341489e-03 0.0000000000000000e+00  1.8663039029569777e-04 1.2715488318437037e-03 0.0000000000000000e+00  1.8683864707728630e-04 1.2801269507285503e-03 0.0000000000000000e+00  1.8705271949273503e-04 1.2885765499511361e-03 0.0000000000000000e+00  1.8728374776688173e-04 1.2969311000717006e-03 0.0000000000000000e+00  1.8754227004619655e-04 1.3052331552549459e-03 0.0000000000000000e+00  1.8783697043276484e-04 1.3135355203307750e-03 0.0000000000000000e+00  1.6733807233953465e-04 1.0769887856651912e-03 0.0000000000000000e+00  1.6706001013237965e-04 1.0676535644209093e-03 0.0000000000000000e+00  1.6756779766969039e-04 1.0869328071514809e-03 0.0000000000000000e+00  1.6784253515059975e-04 1.0973913601224630e-03 0.0000000000000000e+00  1.6830580603810304e-04 1.1084039784764166e-03 0.0000000000000000e+00  1.6898534086729448e-04 1.1196664396164505e-03 0.0000000000000000e+00  1.6969384727838377e-04 1.1308831277484664e-03 0.0000000000000000e+00  1.7045469622874277e-04 1.1420748713958269e-03 0.0000000000000000e+00  1.7123078612055236e-04 1.1531885778064536e-03 0.0000000000000000e+00  1.7202839278311150e-04 1.1642322067349088e-03 0.0000000000000000e+00  1.7277321169701325e-04 1.1750670930138680e-03 0.0000000000000000e+00  1.7348115640392062e-04 1.1856188719986851e-03 0.0000000000000000e+00  1.7416303433385070e-04 1.1959833459525397e-03 0.0000000000000000e+00  1.7479342817707847e-04 1.2061755806566355e-03 0.0000000000000000e+00  1.7536287183633382e-04 1.2161462910126671e-03 0.0000000000000000e+00  1.7588487510628975e-04 1.2258663054840991e-03 0.0000000000000000e+00  1.7636085072965076e-04 1.2353740544317345e-03 0.0000000000000000e+00  1.7678421877389170e-04 1.2446877038077323e-03 0.0000000000000000e+00  1.7715674330483322e-04 1.2538008352291402e-03 0.0000000000000000e+00  1.7748292686541934e-04 1.2627250251753734e-03 0.0000000000000000e+00  1.7776897548105777e-04 1.2714722458018420e-03 0.0000000000000000e+00  1.7802385935991797e-04 1.2800578155793959e-03 0.0000000000000000e+00  1.7825758172935628e-04 1.2885066676723716e-03 0.0000000000000000e+00  1.7848069317065048e-04 1.2968513025833053e-03 0.0000000000000000e+00  1.7870402848431217e-04 1.3051336332032507e-03 0.0000000000000000e+00  1.7893744228689886e-04 1.3134073644288432e-03 0.0000000000000000e+00  1.5827946484500046e-04 1.0768788966506241e-03 0.0000000000000000e+00  1.5862406691774940e-04 1.0674434749429449e-03 0.0000000000000000e+00  1.5798466612039472e-04 1.0867961020751677e-03 0.0000000000000000e+00  1.5773609179410106e-04 1.0971816574997127e-03 0.0000000000000000e+00  1.5741769488056588e-04 1.1081587920684756e-03 0.0000000000000000e+00  1.5787278510414764e-04 1.1193085485484090e-03 0.0000000000000000e+00  1.5899710212090166e-04 1.1305441061550047e-03 0.0000000000000000e+00  1.5989939289780665e-04 1.1417484778653072e-03 0.0000000000000000e+00  1.6063790719676006e-04 1.1527769061130237e-03 0.0000000000000000e+00  1.6155770054626146e-04 1.1637892325899091e-03 0.0000000000000000e+00  1.6265213600401710e-04 1.1747552027098335e-03 0.0000000000000000e+00  1.6349819246858199e-04 1.1852707689146923e-03 0.0000000000000000e+00  1.6432396604519329e-04 1.1956225435083155e-03 0.0000000000000000e+00  1.6513954027392796e-04 1.2058696967534486e-03 0.0000000000000000e+00  1.6588010576989396e-04 1.2158888300610616e-03 0.0000000000000000e+00  1.6656234741797794e-04 1.2256209919036221e-03 0.0000000000000000e+00  1.6718949117140817e-04 1.2351550957510418e-03 0.0000000000000000e+00  1.6774373188517254e-04 1.2445115718828187e-03 0.0000000000000000e+00  1.6822506418805188e-04 1.2536613580386949e-03 0.0000000000000000e+00  1.6863579038433262e-04 1.2626206222757354e-03 0.0000000000000000e+00  1.6898025098229617e-04 1.2713977980016603e-03 0.0000000000000000e+00  1.6926780685719070e-04 1.2800036296077549e-03 0.0000000000000000e+00  1.6950897024896460e-04 1.2884626484922950e-03 0.0000000000000000e+00  1.6971521068457062e-04 1.2968053545096563e-03 0.0000000000000000e+00  1.6989927379560380e-04 1.3050716682289402e-03 0.0000000000000000e+00  1.7007399572244118e-04 1.3133153036701932e-03 0.0000000000000000e+00  1.5036223677945896e-04 1.0768079493670337e-03 0.0000000000000000e+00  1.5120669691587164e-04 1.0672660961939680e-03 0.0000000000000000e+00  1.4825083770711171e-04 1.0869243674446248e-03 0.0000000000000000e+00  1.4968900896350271e-04 1.0984862730014935e-03 0.0000000000000000e+00  1.5015317021530790e-04 1.1094222335741107e-03 0.0000000000000000e+00  1.5040135252093203e-04 1.1202899775871480e-03 0.0000000000000000e+00  1.5055911397676269e-04 1.1312597845240698e-03 0.0000000000000000e+00  1.5044773275039983e-04 1.1423125063156523e-03 0.0000000000000000e+00  1.4954448434829272e-04 1.1524114296678184e-03 0.0000000000000000e+00  1.5106825489870319e-04 1.1633231019954043e-03 0.0000000000000000e+00  1.5236316792389276e-04 1.1741904603341576e-03 0.0000000000000000e+00  1.5385633596932995e-04 1.1849580879200253e-03 0.0000000000000000e+00  1.5456741214849441e-04 1.1951933809760493e-03 0.0000000000000000e+00  1.5549246955375400e-04 1.2054251872583533e-03 0.0000000000000000e+00  1.5657255434800961e-04 1.2155875934179022e-03 0.0000000000000000e+00  1.5739682520465769e-04 1.2253109014367569e-03 0.0000000000000000e+00  1.5817168388765007e-04 1.2348759802117651e-03 0.0000000000000000e+00  1.5885642131637168e-04 1.2442996878656192e-03 0.0000000000000000e+00  1.5944364544904639e-04 1.2535005016347867e-03 0.0000000000000000e+00  1.5993305328818242e-04 1.2625127068051592e-03 0.0000000000000000e+00  1.6032720941194317e-04 1.2713366201246895e-03 0.0000000000000000e+00  1.6063863521134072e-04 1.2799748769570451e-03 0.0000000000000000e+00  1.6088026638960687e-04 1.2884535277674592e-03 0.0000000000000000e+00  1.6106613777430140e-04 1.2967996533482711e-03 0.0000000000000000e+00  1.6121255053024565e-04 1.3050493823759794e-03 0.0000000000000000e+00  1.6133668581354258e-04 1.3132547252483679e-03 0.0000000000000000e+00  1.6145779333917706e-04 1.3214823405904737e-03 0.0000000000000000e+00  1.4448944901680779e-04 1.0784598677193616e-03 0.0000000000000000e+00  1.4426489160684821e-04 1.0671629440733993e-03 0.0000000000000000e+00  1.4399454621293558e-04 1.0890327167852004e-03 0.0000000000000000e+00  1.4365688961466195e-04 1.0994456446524884e-03 0.0000000000000000e+00  1.4378089077387644e-04 1.1104802397912399e-03 0.0000000000000000e+00  1.4383908811824492e-04 1.1213716079085734e-03 0.0000000000000000e+00  1.4386754159534835e-04 1.1322550224611952e-03 0.0000000000000000e+00  1.4392313455991501e-04 1.1431238884383468e-03 0.0000000000000000e+00  1.4403068773040674e-04 1.1535421876187433e-03 0.0000000000000000e+00  1.4423358095269260e-04 1.1637154326865943e-03 0.0000000000000000e+00  1.4474067660362683e-04 1.1743904048065288e-03 0.0000000000000000e+00  1.4519019494227571e-04 1.1849355544746145e-03 0.0000000000000000e+00  1.4527336624658532e-04 1.1949491829146436e-03 0.0000000000000000e+00  1.4583791854902545e-04 1.2049574278228342e-03 0.0000000000000000e+00  1.4713747312609463e-04 1.2150383654154042e-03 0.0000000000000000e+00  1.4858214924989019e-04 1.2250190190323011e-03 0.0000000000000000e+00  1.4927837742886936e-04 1.2345014958630690e-03 0.0000000000000000e+00  1.5016574146881618e-04 1.2440539478400104e-03 0.0000000000000000e+00  1.5086531138093297e-04 1.2533186119339000e-03 0.0000000000000000e+00  1.5143408533983545e-04 1.2624073399708823e-03 0.0000000000000000e+00  1.5187195047271207e-04 1.2712984680804643e-03 0.0000000000000000e+00  1.5219986195250712e-04 1.2799803267849706e-03 0.0000000000000000e+00  1.5243624176082790e-04 1.2884868976703562e-03 0.0000000000000000e+00  1.5259966835057416e-04 1.2968396485558622e-03 0.0000000000000000e+00  1.5271117346574316e-04 1.3050695441405812e-03 0.0000000000000000e+00  1.5279063604824563e-04 1.3132267595908269e-03 0.0000000000000000e+00  1.5286040989560587e-04 1.3213719271030922e-03 0.0000000000000000e+00  1.5295165076750279e-04 1.3295848605382977e-03 0.0000000000000000e+00  1.3863171008807992e-04 1.0798274605036396e-03 0.0000000000000000e+00  1.3916561455083572e-04 1.0691187250116939e-03 0.0000000000000000e+00  1.3831984599412130e-04 1.0905801618730779e-03 0.0000000000000000e+00  1.3796554534773790e-04 1.1010676730762252e-03 0.0000000000000000e+00  1.3767845505925074e-04 1.1117734380697306e-03 0.0000000000000000e+00  1.3755022748054689e-04 1.1225621746750541e-03 0.0000000000000000e+00  1.3748471080528581e-04 1.1333180800175981e-03 0.0000000000000000e+00  1.3749941547320881e-04 1.1439918478569609e-03 0.0000000000000000e+00  1.3759875880989909e-04 1.1543855266912353e-03 0.0000000000000000e+00  1.3772253346708806e-04 1.1646005442740729e-03 0.0000000000000000e+00  1.3789717042823329e-04 1.1749733773437042e-03 0.0000000000000000e+00  1.3820597079350892e-04 1.1853414702739538e-03 0.0000000000000000e+00  1.3855913747148207e-04 1.1954342408230653e-03 0.0000000000000000e+00  1.3892276269720900e-04 1.2052729183590913e-03 0.0000000000000000e+00  1.3937048167845739e-04 1.2150725743810412e-03 0.0000000000000000e+00  1.3977655373208073e-04 1.2248840903682076e-03 0.0000000000000000e+00  1.3973762486241742e-04 1.2341551982035202e-03 0.0000000000000000e+00  1.4148347045156955e-04 1.2436471035872235e-03 0.0000000000000000e+00  1.4255790541807444e-04 1.2531116162748158e-03 0.0000000000000000e+00  1.4320181335101444e-04 1.2623076461646284e-03 0.0000000000000000e+00  1.4368078747211194e-04 1.2712963882994094e-03 0.0000000000000000e+00  1.4401270838715899e-04 1.2800302692519742e-03 0.0000000000000000e+00  1.4423464040775715e-04 1.2885710813885668e-03 0.0000000000000000e+00  1.4437383664795889e-04 1.2969297274973452e-03 0.0000000000000000e+00  1.4445900374562650e-04 1.3051311571902920e-03 0.0000000000000000e+00  1.4451310654204738e-04 1.3132268459313460e-03 0.0000000000000000e+00  1.4456129193164046e-04 1.3212653284419801e-03 0.0000000000000000e+00  1.4464724660406025e-04 1.3293016165485010e-03 0.0000000000000000e+00  1.4484901027244827e-04 1.3374112529160747e-03 0.0000000000000000e+00  1.3294839298068895e-04 1.0815256368176046e-03 0.0000000000000000e+00  1.3340007895944111e-04 1.0707496541752966e-03 0.0000000000000000e+00  1.3248657188414669e-04 1.0921486627815979e-03 0.0000000000000000e+00  1.3207520476985493e-04 1.1026779418645525e-03 0.0000000000000000e+00  1.3168628585958196e-04 1.1132615605476764e-03 0.0000000000000000e+00  1.3139437984096295e-04 1.1238753113493390e-03 0.0000000000000000e+00  1.3121217824191430e-04 1.1344746463992643e-03 0.0000000000000000e+00  1.3112877201785036e-04 1.1449846937477708e-03 0.0000000000000000e+00  1.3112934953329167e-04 1.1553088717455766e-03 0.0000000000000000e+00  1.3117133782982490e-04 1.1655077244044300e-03 0.0000000000000000e+00  1.3125820806759805e-04 1.1757283416195296e-03 0.0000000000000000e+00  1.3144578898767570e-04 1.1858979813425784e-03 0.0000000000000000e+00  1.3172844933490222e-04 1.1958968398928904e-03 0.0000000000000000e+00  1.3205604437725052e-04 1.2057066042807760e-03 0.0000000000000000e+00  1.3241744865811949e-04 1.2154158283607427e-03 0.0000000000000000e+00  1.3284618224237421e-04 1.2250725399936937e-03 0.0000000000000000e+00  1.3335744077743288e-04 1.2344517853004596e-03 0.0000000000000000e+00  1.3396213855547591e-04 1.2435166309021318e-03 0.0000000000000000e+00  1.3471040398421825e-04 1.2529928891307459e-03 0.0000000000000000e+00  1.3536848763705215e-04 1.2622759446788436e-03 0.0000000000000000e+00  1.3587302554752474e-04 1.2713697064841436e-03 0.0000000000000000e+00  1.3613835395844009e-04 1.2801450825343510e-03 0.0000000000000000e+00  1.3631637296404202e-04 1.2887203745458296e-03 0.0000000000000000e+00  1.3642200053161132e-04 1.2970774646188191e-03 0.0000000000000000e+00  1.3648606268762536e-04 1.3052343704984264e-03 0.0000000000000000e+00  1.3652851885865311e-04 1.3132542833431482e-03 0.0000000000000000e+00  1.3656864202899870e-04 1.3211728220624693e-03 0.0000000000000000e+00  1.3664025154014689e-04 1.3290070994604612e-03 0.0000000000000000e+00  1.3682693626575155e-04 1.3367798109252165e-03 0.0000000000000000e+00  1.2728918642314401e-04 1.0832775653943571e-03 0.0000000000000000e+00  1.2795860863559338e-04 1.0726682239842196e-03 0.0000000000000000e+00  1.2670726635418040e-04 1.0938444919806720e-03 0.0000000000000000e+00  1.2617189079758740e-04 1.1043306641696342e-03 0.0000000000000000e+00  1.2568997722277919e-04 1.1148205712524087e-03 0.0000000000000000e+00  1.2529090180599627e-04 1.1252969835014548e-03 0.0000000000000000e+00  1.2499392161467913e-04 1.1357394158270217e-03 0.0000000000000000e+00  1.2480098598256970e-04 1.1461023526046479e-03 0.0000000000000000e+00  1.2469558417856227e-04 1.1563343106889921e-03 0.0000000000000000e+00  1.2465107469026855e-04 1.1664666826715618e-03 0.0000000000000000e+00  1.2466724281593640e-04 1.1765612748955651e-03 0.0000000000000000e+00  1.2477041932638491e-04 1.1865785040349975e-03 0.0000000000000000e+00  1.2496198786922976e-04 1.1964615969667926e-03 0.0000000000000000e+00  1.2521839847760228e-04 1.2062004976499323e-03 0.0000000000000000e+00  1.2552484720142784e-04 1.2158276339657996e-03 0.0000000000000000e+00  1.2589379637714183e-04 1.2253520160496060e-03 0.0000000000000000e+00  1.2633089602372228e-04 1.2346777983855851e-03 0.0000000000000000e+00  1.2678856723350883e-04 1.2438175959987490e-03 0.0000000000000000e+00  1.2724956696795781e-04 1.2530983567393529e-03 0.0000000000000000e+00  1.2777073319376333e-04 1.2623528285282976e-03 0.0000000000000000e+00  1.2829901229665459e-04 1.2715884246009485e-03 0.0000000000000000e+00  1.2850694749342085e-04 1.2803457833166054e-03 0.0000000000000000e+00  1.2866086529518813e-04 1.2889512036494447e-03 0.0000000000000000e+00  1.2874346855717785e-04 1.2972924017983496e-03 0.0000000000000000e+00  1.2879988861640808e-04 1.3053790054112669e-03 0.0000000000000000e+00  1.2884737754712179e-04 1.3133085481539118e-03 0.0000000000000000e+00  1.2889741420171510e-04 1.3211046208160976e-03 0.0000000000000000e+00  1.2897031490046804e-04 1.3287570519783080e-03 0.0000000000000000e+00  1.2909543464876587e-04 1.3361934606123597e-03 0.0000000000000000e+00  1.2938999430188935e-04 1.3434169591001657e-03 0.0000000000000000e+00  1.2166731813340756e-04 1.0851809050325643e-03 0.0000000000000000e+00  1.2248471736512332e-04 1.0746559900562964e-03 0.0000000000000000e+00  1.2092997627038594e-04 1.0956527407992645e-03 0.0000000000000000e+00  1.2027142965491800e-04 1.1060678202824492e-03 0.0000000000000000e+00  1.1968664758640069e-04 1.1164543762672756e-03 0.0000000000000000e+00  1.1919111809804899e-04 1.1268052791940334e-03 0.0000000000000000e+00  1.1879448395679841e-04 1.1371065444369408e-03 0.0000000000000000e+00  1.1849892087931786e-04 1.1473324129386581e-03 0.0000000000000000e+00  1.1829427875560556e-04 1.1574574949769782e-03 0.0000000000000000e+00  1.1816438152638908e-04 1.1674955831467151e-03 0.0000000000000000e+