<?xml version="1.0"?>
<VTKFile type="UnstructuredGrid"  version="0.1"  >
<UnstructuredGrid>
<Piece  NumberOfPoints="2417" NumberOfCells="4629">
<Points>
<DataArray  type="Float64"  NumberOfComponents="3"  format="ascii">1.561304347826087 0 0  1.569565217391304 0 0  1.569565217391304 0.008333333333333333 0  1.561304347826087 0.008333333333333333 0  1.577826086956522 0 0  1.577826086956522 0.008333333333333333 0  1.586086956521739 0 0  1.586086956521739 0.008333333333333333 0  1.594347826086957 0 0  1.594347826086957 0.008333333333333333 0  1.602608695652174 0 0  1.602608695652174 0.008333333333333333 0  1.610869565217391 0 0  1.610869565217391 0.008333333333333333 0  1.619130434782609 0 0  1.619130434782609 0.008333333333333333 0  1.627391304347826 0 0  1.627391304347826 0.008333333333333333 0  1.635652173913043 0 0  1.635652173913043 0.008333333333333333 0  1.643913043478261 0 0  1.643913043478261 0.008333333333333333 0  1.652173913043478 0 0  1.652173913043478 0.008333333333333333 0  1.660434782608696 0 0  1.660434782608696 0.008333333333333333 0  1.668695652173913 0 0  1.668695652173913 0.008333333333333333 0  1.67695652173913 0 0  1.67695652173913 0.008333333333333333 0  1.685217391304348 0 0  1.685217391304348 0.008333333333333333 0  1.693478260869565 0 0  1.693478260869565 0.008333333333333333 0  1.701739130434782 0 0  1.701739130434782 0.008333333333333333 0  1.71 0 0  1.71 0.008333333333333333 0  1.718260869565217 0 0  1.718260869565217 0.008333333333333333 0  1.726521739130435 0 0  1.726521739130435 0.008333333333333333 0  1.734782608695652 0 0  1.734782608695652 0.008333333333333333 0  1.743043478260869 0 0  1.743043478260869 0.008333333333333333 0  1.751304347826087 0 0  1.751304347826087 0.008333333333333333 0  1.759565217391304 0 0  1.759565217391304 0.008333333333333333 0  1.767826086956522 0 0  1.767826086956522 0.008333333333333333 0  1.776086956521739 0.008333333333333333 0  1.569565217391304 0.01666666666666667 0  1.577826086956522 0.01666666666666667 0  1.586086956521739 0.01666666666666667 0  1.594347826086957 0.01666666666666667 0  1.602608695652174 0.01666666666666667 0  1.610869565217391 0.01666666666666667 0  1.619130434782609 0.01666666666666667 0  1.627391304347826 0.01666666666666667 0  1.635652173913043 0.01666666666666667 0  1.643913043478261 0.01666666666666667 0  1.652173913043478 0.01666666666666667 0  1.660434782608696 0.01666666666666667 0  1.668695652173913 0.01666666666666667 0  1.67695652173913 0.01666666666666667 0  1.685217391304348 0.01666666666666667 0  1.693478260869565 0.01666666666666667 0  1.701739130434782 0.01666666666666667 0  1.71 0.01666666666666667 0  1.718260869565217 0.01666666666666667 0  1.726521739130435 0.01666666666666667 0  1.734782608695652 0.01666666666666667 0  1.743043478260869 0.01666666666666667 0  1.751304347826087 0.01666666666666667 0  1.759565217391304 0.01666666666666667 0  1.767826086956522 0.01666666666666667 0  1.776086956521739 0.01666666666666667 0  1.577826086956522 0.025 0  1.569565217391304 0.025 0  1.586086956521739 0.025 0  1.594347826086957 0.025 0  1.602608695652174 0.025 0  1.610869565217391 0.025 0  1.619130434782609 0.025 0  1.627391304347826 0.025 0  1.635652173913043 0.025 0  1.643913043478261 0.025 0  1.652173913043478 0.025 0  1.660434782608696 0.025 0  1.668695652173913 0.025 0  1.67695652173913 0.025 0  1.685217391304348 0.025 0  1.693478260869565 0.025 0  1.701739130434782 0.025 0  1.71 0.025 0  1.718260869565217 0.025 0  1.726521739130435 0.025 0  1.734782608695652 0.025 0  1.743043478260869 0.025 0  1.751304347826087 0.025 0  1.759565217391304 0.025 0  1.767826086956522 0.025 0  1.776086956521739 0.025 0  1.577826086956522 0.03333333333333333 0  1.569565217391304 0.03333333333333333 0  1.586086956521739 0.03333333333333333 0  1.594347826086957 0.03333333333333333 0  1.602608695652174 0.03333333333333333 0  1.610869565217391 0.03333333333333333 0  1.619130434782609 0.03333333333333333 0  1.627391304347826 0.03333333333333333 0  1.635652173913043 0.03333333333333333 0  1.643913043478261 0.03333333333333333 0  1.652173913043478 0.03333333333333333 0  1.660434782608696 0.03333333333333333 0  1.668695652173913 0.03333333333333333 0  1.67695652173913 0.03333333333333333 0  1.685217391304348 0.03333333333333333 0  1.693478260869565 0.03333333333333333 0  1.701739130434782 0.03333333333333333 0  1.71 0.03333333333333333 0  1.718260869565217 0.03333333333333333 0  1.726521739130435 0.03333333333333333 0  1.734782608695652 0.03333333333333333 0  1.743043478260869 0.03333333333333333 0  1.751304347826087 0.03333333333333333 0  1.759565217391304 0.03333333333333333 0  1.767826086956522 0.03333333333333333 0  1.776086956521739 0.03333333333333333 0  1.577826086956522 0.04166666666666666 0  1.569565217391304 0.04166666666666666 0  1.586086956521739 0.04166666666666666 0  1.594347826086957 0.04166666666666666 0  1.602608695652174 0.04166666666666666 0  1.610869565217391 0.04166666666666666 0  1.619130434782609 0.04166666666666666 0  1.627391304347826 0.04166666666666666 0  1.635652173913043 0.04166666666666666 0  1.643913043478261 0.04166666666666666 0  1.652173913043478 0.04166666666666666 0  1.660434782608696 0.04166666666666666 0  1.668695652173913 0.04166666666666666 0  1.67695652173913 0.04166666666666666 0  1.685217391304348 0.04166666666666666 0  1.693478260869565 0.04166666666666666 0  1.701739130434782 0.04166666666666666 0  1.71 0.04166666666666666 0  1.718260869565217 0.04166666666666666 0  1.726521739130435 0.04166666666666666 0  1.734782608695652 0.04166666666666666 0  1.743043478260869 0.04166666666666666 0  1.751304347826087 0.04166666666666666 0  1.759565217391304 0.04166666666666666 0  1.767826086956522 0.04166666666666666 0  1.776086956521739 0.04166666666666666 0  1.784347826086957 0.04166666666666666 0  1.577826086956522 0.05 0  1.569565217391304 0.05 0  1.586086956521739 0.05 0  1.594347826086957 0.05 0  1.602608695652174 0.05 0  1.610869565217391 0.05 0  1.619130434782609 0.05 0  1.627391304347826 0.05 0  1.635652173913043 0.05 0  1.643913043478261 0.05 0  1.652173913043478 0.05 0  1.660434782608696 0.05 0  1.668695652173913 0.05 0  1.67695652173913 0.05 0  1.685217391304348 0.05 0  1.693478260869565 0.05 0  1.701739130434782 0.05 0  1.71 0.05 0  1.718260869565217 0.05 0  1.726521739130435 0.05 0  1.734782608695652 0.05 0  1.743043478260869 0.05 0  1.751304347826087 0.05 0  1.759565217391304 0.05 0  1.767826086956522 0.05 0  1.776086956521739 0.05 0  1.784347826086957 0.05 0  1.792608695652174 0.05 0  1.577826086956522 0.05833333333333333 0  1.569565217391304 0.05833333333333333 0  1.586086956521739 0.05833333333333333 0  1.594347826086957 0.05833333333333333 0  1.602608695652174 0.05833333333333333 0  1.610869565217391 0.05833333333333333 0  1.619130434782609 0.05833333333333333 0  1.627391304347826 0.05833333333333333 0  1.635652173913043 0.05833333333333333 0  1.643913043478261 0.05833333333333333 0  1.652173913043478 0.05833333333333333 0  1.660434782608696 0.05833333333333333 0  1.668695652173913 0.05833333333333333 0  1.67695652173913 0.05833333333333333 0  1.685217391304348 0.05833333333333333 0  1.693478260869565 0.05833333333333333 0  1.701739130434782 0.05833333333333333 0  1.71 0.05833333333333333 0  1.718260869565217 0.05833333333333333 0  1.726521739130435 0.05833333333333333 0  1.734782608695652 0.05833333333333333 0  1.743043478260869 0.05833333333333333 0  1.751304347826087 0.05833333333333333 0  1.759565217391304 0.05833333333333333 0  1.767826086956522 0.05833333333333333 0  1.776086956521739 0.05833333333333333 0  1.784347826086957 0.05833333333333333 0  1.792608695652174 0.05833333333333333 0  1.800869565217391 0.05833333333333333 0  1.577826086956522 0.06666666666666667 0  1.569565217391304 0.06666666666666667 0  1.586086956521739 0.06666666666666667 0  1.594347826086957 0.06666666666666667 0  1.602608695652174 0.06666666666666667 0  1.610869565217391 0.06666666666666667 0  1.619130434782609 0.06666666666666667 0  1.627391304347826 0.06666666666666667 0  1.635652173913043 0.06666666666666667 0  1.643913043478261 0.06666666666666667 0  1.652173913043478 0.06666666666666667 0  1.660434782608696 0.06666666666666667 0  1.668695652173913 0.06666666666666667 0  1.67695652173913 0.06666666666666667 0  1.685217391304348 0.06666666666666667 0  1.693478260869565 0.06666666666666667 0  1.701739130434782 0.06666666666666667 0  1.71 0.06666666666666667 0  1.718260869565217 0.06666666666666667 0  1.726521739130435 0.06666666666666667 0  1.734782608695652 0.06666666666666667 0  1.743043478260869 0.06666666666666667 0  1.751304347826087 0.06666666666666667 0  1.759565217391304 0.06666666666666667 0  1.767826086956522 0.06666666666666667 0  1.776086956521739 0.06666666666666667 0  1.784347826086957 0.06666666666666667 0  1.792608695652174 0.06666666666666667 0  1.800869565217391 0.06666666666666667 0  1.577826086956522 0.075 0  1.569565217391304 0.075 0  1.586086956521739 0.075 0  1.594347826086957 0.075 0  1.602608695652174 0.075 0  1.610869565217391 0.075 0  1.619130434782609 0.075 0  1.627391304347826 0.075 0  1.635652173913043 0.075 0  1.643913043478261 0.075 0  1.652173913043478 0.075 0  1.660434782608696 0.075 0  1.668695652173913 0.075 0  1.67695652173913 0.075 0  1.685217391304348 0.075 0  1.693478260869565 0.075 0  1.701739130434782 0.075 0  1.71 0.075 0  1.718260869565217 0.075 0  1.726521739130435 0.075 0  1.734782608695652 0.075 0  1.743043478260869 0.075 0  1.751304347826087 0.075 0  1.759565217391304 0.075 0  1.767826086956522 0.075 0  1.776086956521739 0.075 0  1.784347826086957 0.075 0  1.792608695652174 0.075 0  1.800869565217391 0.075 0  1.809130434782608 0.075 0  1.577826086956522 0.08333333333333333 0  1.569565217391304 0.08333333333333333 0  1.586086956521739 0.08333333333333333 0  1.594347826086957 0.08333333333333333 0  1.602608695652174 0.08333333333333333 0  1.610869565217391 0.08333333333333333 0  1.619130434782609 0.08333333333333333 0  1.627391304347826 0.08333333333333333 0  1.6
[...]
<PointData  Vectors="Displacement"> 
<DataArray  type="Float64"  Name="Displacement"  NumberOfComponents="3" format="ascii">1.7807710639151917e-04 9.0844251141743789e-04 0.0000000000000000e+00  1.7967664812140554e-04 9.1563943657827949e-04 0.0000000000000000e+00  1.7220389009509643e-04 9.1494036002529088e-04 0.0000000000000000e+00  1.7100748432741721e-04 9.0774675558780388e-04 0.0000000000000000e+00  1.8124835628952700e-04 9.2331578671495660e-04 0.0000000000000000e+00  1.7337537261364686e-04 9.2263470941478286e-04 0.0000000000000000e+00  1.8274341073526369e-04 9.3144800574991734e-04 0.0000000000000000e+00  1.7449942380199206e-04 9.3080270754164018e-04 0.0000000000000000e+00  1.8411070383055151e-04 9.3999882354506162e-04 0.0000000000000000e+00  1.7554835643358456e-04 9.3941115884182903e-04 0.0000000000000000e+00  1.8531673745412518e-04 9.4886680401885532e-04 0.0000000000000000e+00  1.7650845945020442e-04 9.4834649779985481e-04 0.0000000000000000e+00  1.8634810050151957e-04 9.5794756261031902e-04 0.0000000000000000e+00  1.7737245680316576e-04 9.5749834213844072e-04 0.0000000000000000e+00  1.8720801907986506e-04 9.6714219836854830e-04 0.0000000000000000e+00  1.7813851371267406e-04 9.6676145897420728e-04 0.0000000000000000e+00  1.8791349551388421e-04 9.7636565922978185e-04 0.0000000000000000e+00  1.7881245162746173e-04 9.7604517010092188e-04 0.0000000000000000e+00  1.8849049918355409e-04 9.8555314880223932e-04 0.0000000000000000e+00  1.7940679802488276e-04 9.8528149512318005e-04 0.0000000000000000e+00  1.8896053700337024e-04 9.9467572335212081e-04 0.0000000000000000e+00  1.7992975432357591e-04 9.9444644389615612e-04 0.0000000000000000e+00  1.8933803901817803e-04 1.0037129064814567e-03 0.0000000000000000e+00  1.8038629354047821e-04 1.0035219279064689e-03 0.0000000000000000e+00  1.8963435781568845e-04 1.0126452004847325e-03 0.0000000000000000e+00  1.8078123768176452e-04 1.0124885943193251e-03 0.0000000000000000e+00  1.8986167242081601e-04 1.0214537287536909e-03 0.0000000000000000e+00  1.8112145863543469e-04 1.0213262925422256e-03 0.0000000000000000e+00  1.9003269878805924e-04 1.0301269870633067e-03 0.0000000000000000e+00  1.8141453441274184e-04 1.0300234953975007e-03 0.0000000000000000e+00  1.9015865116010783e-04 1.0386613379666312e-03 0.0000000000000000e+00  1.8166706947882728e-04 1.0385775803336845e-03 0.0000000000000000e+00  1.9024884417984534e-04 1.0470569019720832e-03 0.0000000000000000e+00  1.8188472655038504e-04 1.0469893755830682e-03 0.0000000000000000e+00  1.9031303789356562e-04 1.0553126679665520e-03 0.0000000000000000e+00  1.8207437034929697e-04 1.0552569766503375e-03 0.0000000000000000e+00  1.9036141609772946e-04 1.0634319550142273e-03 0.0000000000000000e+00  1.8224321584969108e-04 1.0633837026788032e-03 0.0000000000000000e+00  1.9040459100095201e-04 1.0714204724363852e-03 0.0000000000000000e+00  1.8239900915911376e-04 1.0713749730637211e-03 0.0000000000000000e+00  1.9045427190099624e-04 1.0792856455390104e-03 0.0000000000000000e+00  1.8255058815219865e-04 1.0792375551771322e-03 0.0000000000000000e+00  1.9052322896462493e-04 1.0870382626122217e-03 0.0000000000000000e+00  1.8270761035853861e-04 1.0869818370754262e-03 0.0000000000000000e+00  1.9062455353187482e-04 1.0946935265801544e-03 0.0000000000000000e+00  1.8287984493484623e-04 1.0946230751338987e-03 0.0000000000000000e+00  1.9077107273078063e-04 1.1022706346933409e-03 0.0000000000000000e+00  1.8307676138606998e-04 1.1021806917452606e-03 0.0000000000000000e+00  1.9097503520540244e-04 1.1097924884965905e-03 0.0000000000000000e+00  1.8330730825420928e-04 1.1096778842139140e-03 0.0000000000000000e+00  1.9124768192966093e-04 1.1172859847389160e-03 0.0000000000000000e+00  1.8357958775260869e-04 1.1171420319290208e-03 0.0000000000000000e+00  1.8390034051434897e-04 1.1246052343981457e-03 0.0000000000000000e+00  1.6481313591775438e-04 9.1439479052453137e-04 0.0000000000000000e+00  1.6563643941319893e-04 9.2210456313504942e-04 0.0000000000000000e+00  1.6643483205075243e-04 9.3029243134936160e-04 0.0000000000000000e+00  1.6719392011447536e-04 9.3894725928249931e-04 0.0000000000000000e+00  1.6791934381156054e-04 9.4792496623306551e-04 0.0000000000000000e+00  1.6861834248801683e-04 9.5712154010035790e-04 0.0000000000000000e+00  1.6928304232498767e-04 9.6642902396930071e-04 0.0000000000000000e+00  1.6990838488623855e-04 9.7574902101492996e-04 0.0000000000000000e+00  1.7050211092181774e-04 9.8500749241276745e-04 0.0000000000000000e+00  1.7106292675672085e-04 9.9419593845416401e-04 0.0000000000000000e+00  1.7158430816761048e-04 1.0032980874015226e-03 0.0000000000000000e+00  1.7206216430693937e-04 1.0122920244273628e-03 0.0000000000000000e+00  1.7249839902852879e-04 1.0211529356865584e-03 0.0000000000000000e+00  1.7289694052561824e-04 1.0298694538821310e-03 0.0000000000000000e+00  1.7325989561800748e-04 1.0384414031867606e-03 0.0000000000000000e+00  1.7358783842292544e-04 1.0468708591566379e-03 0.0000000000000000e+00  1.7388439533020839e-04 1.0551526445779118e-03 0.0000000000000000e+00  1.7415364976459166e-04 1.0632909409199567e-03 0.0000000000000000e+00  1.7440014158811741e-04 1.0712907571211198e-03 0.0000000000000000e+00  1.7463023595689863e-04 1.0791574537105605e-03 0.0000000000000000e+00  1.7485155362954483e-04 1.0869008468056590e-03 0.0000000000000000e+00  1.7507166854096814e-04 1.0945365520745973e-03 0.0000000000000000e+00  1.7529773374627016e-04 1.1020842497440910e-03 0.0000000000000000e+00  1.7553659820992808e-04 1.1095671197369590e-03 0.0000000000000000e+00  1.7579475966111283e-04 1.1170125238144715e-03 0.0000000000000000e+00  1.7607815289496392e-04 1.1244527157272780e-03 0.0000000000000000e+00  1.5797131942753853e-04 9.2171030154556733e-04 0.0000000000000000e+00  1.5750335879447129e-04 9.1397869808905257e-04 0.0000000000000000e+00  1.5842893001349171e-04 9.2990033673637142e-04 0.0000000000000000e+00  1.5887938615758275e-04 9.3860199287150719e-04 0.0000000000000000e+00  1.5935799857627817e-04 9.4759743743772656e-04 0.0000000000000000e+00  1.5989180479273268e-04 9.5680436392086307e-04 0.0000000000000000e+00  1.6048701517738724e-04 9.6614125643475982e-04 0.0000000000000000e+00  1.6108646333671357e-04 9.7548321860047916e-04 0.0000000000000000e+00  1.6169036729107942e-04 9.8473550663162775e-04 0.0000000000000000e+00  1.6229448005808037e-04 9.9392812733126992e-04 0.0000000000000000e+00  1.6288317463851148e-04 1.0030470730614093e-03 0.0000000000000000e+00  1.6344261077484416e-04 1.0120640331912432e-03 0.0000000000000000e+00  1.6397066145514645e-04 1.0209431126775143e-03 0.0000000000000000e+00  1.6446911723066768e-04 1.0296740664604018e-03 0.0000000000000000e+00  1.6493561927952868e-04 1.0382623953967400e-03 0.0000000000000000e+00  1.6536467546931230e-04 1.0467127628859371e-03 0.0000000000000000e+00  1.6575739505834096e-04 1.0550120424582309e-03 0.0000000000000000e+00  1.6611452333484595e-04 1.0631675164655581e-03 0.0000000000000000e+00  1.6643706019203286e-04 1.0711833005575026e-03 0.0000000000000000e+00  1.6672951468629517e-04 1.0790616589997054e-03 0.0000000000000000e+00  1.6699859102778180e-04 1.0868114325434809e-03 0.0000000000000000e+00  1.6725066052713700e-04 1.0944491925803234e-03 0.0000000000000000e+00  1.6749143767571072e-04 1.1019949859952965e-03 0.0000000000000000e+00  1.6772655246492793e-04 1.1094715533162929e-03 0.0000000000000000e+00  1.6796172001387085e-04 1.1169056259773208e-03 0.0000000000000000e+00  1.6820273803138367e-04 1.1243288459628334e-03 0.0000000000000000e+00  1.5036325488851869e-04 9.2149836968761416e-04 0.0000000000000000e+00  1.5029829420034376e-04 9.1369652834331959e-04 0.0000000000000000e+00  1.5037734564743319e-04 9.2965609514320479e-04 0.0000000000000000e+00  1.5042482935198167e-04 9.3840572026018267e-04 0.0000000000000000e+00  1.5061471395344894e-04 9.4737260346749812e-04 0.0000000000000000e+00  1.5097743337481390e-04 9.5653521839661557e-04 0.0000000000000000e+00  1.5152108124962658e-04 9.6582236785121354e-04 0.0000000000000000e+00  1.5226922041358979e-04 9.7523799645532515e-04 0.0000000000000000e+00  1.5290585656777564e-04 9.8445311928437593e-04 0.0000000000000000e+00  1.5356835490727862e-04 9.9363300147622545e-04 0.0000000000000000e+00  1.5423685792974822e-04 1.0027609273473802e-03 0.0000000000000000e+00  1.5489227280824586e-04 1.0118032398511191e-03 0.0000000000000000e+00  1.5552046998220081e-04 1.0206974897791958e-03 0.0000000000000000e+00  1.5612382824432134e-04 1.0294380126048552e-03 0.0000000000000000e+00  1.5669628999301729e-04 1.0380426578333033e-03 0.0000000000000000e+00  1.5722464255026568e-04 1.0465206191995547e-03 0.0000000000000000e+00  1.5771034338530159e-04 1.0548411866994148e-03 0.0000000000000000e+00  1.5815032926337080e-04 1.0630214956736711e-03 0.0000000000000000e+00  1.5854084625054935e-04 1.0710631093805607e-03 0.0000000000000000e+00  1.5888535687677338e-04 1.0789617533850659e-03 0.0000000000000000e+00  1.5919119924156025e-04 1.0867249394258486e-03 0.0000000000000000e+00  1.5946458681552028e-04 1.0943715784685437e-03 0.0000000000000000e+00  1.5971060473656283e-04 1.1019222973275484e-03 0.0000000000000000e+00  1.5993445930824097e-04 1.1093989127764982e-03 0.0000000000000000e+00  1.6014161928928951e-04 1.1168270438673975e-03 0.0000000000000000e+00  1.6033784949423972e-04 1.1242370565172979e-03 0.0000000000000000e+00  1.4306209315351814e-04 9.2142146055945154e-04 0.0000000000000000e+00  1.4337293494107897e-04 9.1352561314940310e-04 0.0000000000000000e+00  1.4279151927458239e-04 9.2953100663831830e-04 0.0000000000000000e+00  1.4194305299351372e-04 9.3836658651430158e-04 0.0000000000000000e+00  1.4169505059016393e-04 9.4726626869184242e-04 0.0000000000000000e+00  1.4180340629562922e-04 9.5635093394376707e-04 0.0000000000000000e+00  1.4233689977366561e-04 9.6554722725041150e-04 0.0000000000000000e+00  1.4305210864792078e-04 9.7483989929376318e-04 0.0000000000000000e+00  1.4424581261984664e-04 9.8418320528409551e-04 0.0000000000000000e+00  1.4489654873336998e-04 9.9332507614311935e-04 0.0000000000000000e+00  1.4557632388982484e-04 1.0024129473824145e-03 0.0000000000000000e+00  1.4637493287916091e-04 1.0114912473777567e-03 0.0000000000000000e+00  1.4714473755734963e-04 1.0204114846882333e-03 0.0000000000000000e+00  1.4786068391976718e-04 1.0291537974150022e-03 0.0000000000000000e+00  1.4854940045337046e-04 1.0377770299506814e-03 0.0000000000000000e+00  1.4918061060665959e-04 1.0462956121831981e-03 0.0000000000000000e+00  1.4976228960983975e-04 1.0546391821057851e-03 0.0000000000000000e+00  1.5028825964313246e-04 1.0628550607481638e-03 0.0000000000000000e+00  1.5074529325569315e-04 1.0709367383080640e-03 0.0000000000000000e+00  1.5113631405293360e-04 1.0788660770668747e-03 0.0000000000000000e+00  1.5147178374247435e-04 1.0866494017581286e-03 0.0000000000000000e+00  1.5175924714830286e-04 1.0943110664478665e-03 0.0000000000000000e+00  1.5200430982405854e-04 1.1018724786314884e-03 0.0000000000000000e+00  1.5221299740809208e-04 1.1093538423343034e-03 0.0000000000000000e+00  1.5239143081667136e-04 1.1167794476607054e-03 0.0000000000000000e+00  1.5254577708991246e-04 1.1241778236891428e-03 0.0000000000000000e+00  1.5268328009078913e-04 1.1315825072476930e-03 0.0000000000000000e+00  1.3619309487809719e-04 9.2144907637599393e-04 0.0000000000000000e+00  1.3721982214347318e-04 9.1334790486651603e-04 0.0000000000000000e+00  1.3668089457617274e-04 9.3057667198936695e-04 0.0000000000000000e+00  1.3664922424247986e-04 9.3961931437384059e-04 0.0000000000000000e+00  1.3651768381437856e-04 9.4840673682627800e-04 0.0000000000000000e+00  1.3648673240607500e-04 9.5731493837361711e-04 0.0000000000000000e+00  1.3658791505633027e-04 9.6631552887150175e-04 0.0000000000000000e+00  1.3678339472576186e-04 9.7544269224362091e-04 0.0000000000000000e+00  1.3698057641405628e-04 9.8458284362745643e-04 0.0000000000000000e+00  1.3699928745263126e-04 9.9373561932519392e-04 0.0000000000000000e+00  1.3642473746904569e-04 1.0020742107690577e-03 0.0000000000000000e+00  1.3765209308017865e-04 1.0110845664489192e-03 0.0000000000000000e+00  1.3878222821854305e-04 1.0200296489973793e-03 0.0000000000000000e+00  1.3980698158870650e-04 1.0288728806905766e-03 0.0000000000000000e+00  1.4045620013202601e-04 1.0374273486347301e-03 0.0000000000000000e+00  1.4126624633106224e-04 1.0460466213727995e-03 0.0000000000000000e+00  1.4192883768338141e-04 1.0543960710442390e-03 0.0000000000000000e+00  1.4255562866094865e-04 1.0626623053410500e-03 0.0000000000000000e+00  1.4308866086109822e-04 1.0708075305534001e-03 0.0000000000000000e+00  1.4352520030646071e-04 1.0787816271198511e-03 0.0000000000000000e+00  1.4388449530056187e-04 1.0865914637717775e-03 0.0000000000000000e+00  1.4417902887693158e-04 1.0942737100943236e-03 0.0000000000000000e+00  1.4441726786218418e-04 1.1018503846756693e-03 0.0000000000000000e+00  1.4460816494376338e-04 1.1093390085748721e-03 0.0000000000000000e+00  1.4475968396613823e-04 1.1167630396947043e-03 0.0000000000000000e+00  1.4487857749139618e-04 1.1241492213167599e-03 0.0000000000000000e+00  1.4497226188096561e-04 1.1315269023017365e-03 0.0000000000000000e+00  1.4505196418375748e-04 1.1389311679876040e-03 0.0000000000000000e+00  1.3173984010933057e-04 9.2274483521377116e-04 0.0000000000000000e+00  1.3158469114570655e-04 9.1309184886631393e-04 0.0000000000000000e+00  1.3144651343195506e-04 9.3155516901381036e-04 0.0000000000000000e+00  1.3131138430848139e-04 9.4063454168005572e-04 0.0000000000000000e+00  1.3116908653870152e-04 9.4951456866466716e-04 0.0000000000000000e+00  1.3102552763972252e-04 9.5837851088626110e-04 0.0000000000000000e+00  1.3093811973273638e-04 9.6729576588121138e-04 0.0000000000000000e+00  1.3091603785389042e-04 9.7629683696703396e-04 0.0000000000000000e+00  1.3095627426272180e-04 9.8532734604667009e-04 0.0000000000000000e+00  1.3104664885764061e-04 9.9432927585793997e-04 0.0000000000000000e+00  1.3117630774757874e-04 1.0029500766120397e-03 0.0000000000000000e+00  1.3135345910753277e-04 1.0114098841407623e-03 0.0000000000000000e+00  1.3173103866756777e-04 1.0202271490648586e-03 0.0000000000000000e+00  1.3199498569577381e-04 1.0289693169305899e-03 0.0000000000000000e+00  1.3183405310286425e-04 1.0371045357354706e-03 0.0000000000000000e+00  1.3308928861058506e-04 1.0456315946659647e-03 0.0000000000000000e+00  1.3432039330274313e-04 1.0541511715926187e-03 0.0000000000000000e+00  1.3494755030351376e-04 1.0624099141271352e-03 0.0000000000000000e+00  1.3562120375262729e-04 1.0706743021031181e-03 0.0000000000000000e+00  1.3610981462154167e-04 1.0787181994332403e-03 0.0000000000000000e+00  1.3648041775753903e-04 1.0865601715957754e-03 0.0000000000000000e+00  1.3676785870994464e-04 1.0942674889413337e-03 0.0000000000000000e+00  1.3698872928291137e-04 1.1018618216885783e-03 0.0000000000000000e+00  1.3715776815461552e-04 1.1093563273791417e-03 0.0000000000000000e+00  1.3728596648348733e-04 1.1167754541568057e-03 0.0000000000000000e+00  1.3738116540294791e-04 1.1241448877674380e-03 0.0000000000000000e+00  1.3745165880255984e-04 1.1314884647323463e-03 0.0000000000000000e+00  1.3751133504996183e-04 1.1388291773296274e-03 0.0000000000000000e+00  1.3758970294231921e-04 1.1461958654509859e-03 0.0000000000000000e+00  1.2646754794786030e-04 9.2379273292066252e-04 0.0000000000000000e+00  1.2689157768312412e-04 9.1467523734361004e-04 0.0000000000000000e+00  1.2622886671102295e-04 9.3281581213548585e-04 0.0000000000000000e+00  1.2594073643094837e-04 9.4177347768393204e-04 0.0000000000000000e+00  1.2570998523474969e-04 9.5065827029175063e-04 0.0000000000000000e+00  1.2549292214883317e-04 9.5950750677912492e-04 0.0000000000000000e+00  1.2530774103084637e-04 9.6836534669751358e-04 0.0000000000000000e+00  1.2517939550929280e-04 9.7726005530472801e-04 0.0000000000000000e+00  1.2512722463872868e-04 9.8616006567540959e-04 0.0000000000000000e+00  1.2515978261143373e-04 9.9500447158307366e-04 0.0000000000000000e+00  1.2526259428740022e-04 1.0036255765050422e-03 0.0000000000000000e+00  1.2537828382570875e-04 1.0121232375048914e-03 0.0000000000000000e+00  1.2552997172260858e-04 1.0207311518986087e-03 0.0000000000000000e+00  1.2578370370966863e-04 1.0293352873751195e-03 0.0000000000000000e+00  1.2608385290426038e-04 1.0376412154409476e-03 0.0000000000000000e+00  1.2642178622084853e-04 1.0457583557704102e-03 0.0000000000000000e+00  1.2686788259374978e-04 1.0541187277980971e-03 0.0000000000000000e+00  1.2706243063111735e-04 1.0620836737247137e-03 0.0000000000000000e+00  1.2839419768398387e-04 1.0704858309997659e-03 0.0000000000000000e+00  1.2903171194089425e-04 1.0787149153660912e-03 0.0000000000000000e+00  1.2932897394887267e-04 1.0865787635384310e-03 0.0000000000000000e+00  1.2956494831794805e-04 1.0943084779611054e-03 0.0000000000000000e+00  1.2974499192423705e-04 1.1019173280922112e-03 0.0000000000000000e+00  1.2988279810767489e-04 1.1094097309835493e-03 0.0000000000000000e+00  1.2998869560416166e-04 1.1168151358569021e-03 0.0000000000000000e+00  1.3006886223346288e-04 1.1241597476486906e-03 0.0000000000000000e+00  1.3012979588702901e-04 1.1314620847068394e-03 0.0000000000000000e+00  1.3018259475566318e-04 1.1387321774385445e-03 0.0000000000000000e+00  1.3024991145660779e-04 1.1459690541194534e-03 0.0000000000000000e+00  1.2134541345607307e-04 9.2514557533144475e-04 0.0000000000000000e+00  1.2177007989223846e-04 9.1603603252223172e-04 0.0000000000000000e+00  1.2094053196078142e-04 9.3410183469875858e-04 0.0000000000000000e+00  1.2057520226794299e-04 9.4302809063311543e-04 0.0000000000000000e+00  1.2024012207101782e-04 9.5187601841388711e-04 0.0000000000000000e+00  1.1993918366109369e-04 9.6069073778114048e-04 0.0000000000000000e+00  1.1967751889956348e-04 9.6949133573131282e-04 0.0000000000000000e+00  1.1947179649594542e-04 9.7829169833936881e-04 0.0000000000000000e+00  1.1934046884949687e-04 9.8707255462074069e-04 0.0000000000000000e+00  1.1929165401562756e-04 9.9578988434399144e-04 0.0000000000000000e+00  1.1931264583511125e-04 1.0043659508608073e-03 0.0000000000000000e+00  1.1936750908343816e-04 1.0128529178145341e-03 0.0000000000000000e+00  1.1946165311716922e-04 1.0213496539908436e-03 0.0000000000000000e+00  1.1963967928977853e-04 1.0297977789806914e-03 0.0000000000000000e+00  1.1989817599694224e-04 1.0380709126598952e-03 0.0000000000000000e+00  1.2018874919586394e-04 1.0462087431923660e-03 0.0000000000000000e+00  1.2052552271870120e-04 1.0543937466141041e-03 0.0000000000000000e+00  1.2095949292546219e-04 1.0624496223744335e-03 0.0000000000000000e+00  1.2148050580360314e-04 1.0704740411296633e-03 0.0000000000000000e+00  1.2220189374979258e-04 1.0788844597141394e-03 0.0000000000000000e+00  1.2238353523290685e-04 1.0866862275192698e-03 0.0000000000000000e+00  1.2254883278487138e-04 1.0944194134532069e-03 0.0000000000000000e+00  1.2267742514873091e-04 1.1020311598370673e-03 0.0000000000000000e+00  1.2278098433901759e-04 1.1095044802954897e-03 0.0000000000000000e+00  1.2286794915010752e-04 1.1168815309945096e-03 0.0000000000000000e+00  1.2294114905936780e-04 1.1241904355031721e-03 0.0000000000000000e+00  1.2300406387938379e-04 1.1314451611905776e-03 0.0000000000000000e+00  1.2306341790362682e-04 1.1386462770046864e-03 0.0000000000000000e+00  1.2313090914895704e-04 1.1457732604811786e-03 0.0000000000000000e+00  1.2322199898341009e-04 1.1527538708786470e-03 0.0000000000000000e+00  1.1621443023892032e-04 9.2658623827796937e-04 0.0000000000000000e+00  1.1683858477799015e-04 9.1762582436416985e-04 0.0000000000000000e+00  1.1568202007182691e-04 9.3550292646226905e-04 0.0000000000000000e+00  1.1519776809572858e-04 9.4436897039745630e-04 0.0000000000000000e+00  1.1476443300381157e-04 9.5317454965576024e-04 0.0000000000000000e+00  1.1437598723810770e-04 9.6193775839495562e-04 0.0000000000000000e+00  1.1403841501289003e-04 9.7067307228309555e-04 0.0000000000000000e+00  1.1376123350060325e-04 9.7938542327948887e-04 0.0000000000000000e+00  1.1355573066352974e-04 9.8806149666302748e-04 0.0000000000000000e+00  1.1342653698513462e-04 9.9667354632293893e-04 0.0000000000000000e+