<?xml version="1.0"?>
<VTKFile type="UnstructuredGrid"  version="0.1"  >
<UnstructuredGrid>
<Piece  NumberOfPoints="2342" NumberOfCells="4483">
<Points>
<DataArray  type="Float64"  NumberOfComponents="3"  format="ascii">2.139565217391304 0 0  2.147826086956522 0 0  2.147826086956522 0.008333333333333333 0  2.139565217391304 0.008333333333333333 0  2.156086956521739 0 0  2.156086956521739 0.008333333333333333 0  2.164347826086956 0 0  2.164347826086956 0.008333333333333333 0  2.172608695652174 0 0  2.172608695652174 0.008333333333333333 0  2.180869565217391 0 0  2.180869565217391 0.008333333333333333 0  2.189130434782609 0 0  2.189130434782609 0.008333333333333333 0  2.197391304347826 0 0  2.197391304347826 0.008333333333333333 0  2.205652173913043 0 0  2.205652173913043 0.008333333333333333 0  2.213913043478261 0 0  2.213913043478261 0.008333333333333333 0  2.222173913043478 0 0  2.222173913043478 0.008333333333333333 0  2.230434782608695 0 0  2.230434782608695 0.008333333333333333 0  2.238695652173913 0 0  2.238695652173913 0.008333333333333333 0  2.24695652173913 0 0  2.24695652173913 0.008333333333333333 0  2.255217391304348 0 0  2.255217391304348 0.008333333333333333 0  2.263478260869565 0 0  2.263478260869565 0.008333333333333333 0  2.271739130434783 0 0  2.271739130434783 0.008333333333333333 0  2.28 0 0  2.28 0.008333333333333333 0  2.288260869565217 0 0  2.288260869565217 0.008333333333333333 0  2.296521739130434 0 0  2.296521739130434 0.008333333333333333 0  2.304782608695652 0 0  2.304782608695652 0.008333333333333333 0  2.31304347826087 0 0  2.31304347826087 0.008333333333333333 0  2.321304347826087 0 0  2.321304347826087 0.008333333333333333 0  2.329565217391304 0 0  2.329565217391304 0.008333333333333333 0  2.337826086956521 0 0  2.337826086956521 0.008333333333333333 0  2.346086956521739 0 0  2.346086956521739 0.008333333333333333 0  2.354347826086956 0 0  2.354347826086956 0.008333333333333333 0  2.362608695652174 0 0  2.362608695652174 0.008333333333333333 0  2.370869565217391 0 0  2.370869565217391 0.008333333333333333 0  2.379130434782609 0 0  2.379130434782609 0.008333333333333333 0  2.387391304347826 0 0  2.387391304347826 0.008333333333333333 0  2.395652173913044 0 0  2.395652173913044 0.008333333333333333 0  2.403913043478261 0 0  2.403913043478261 0.008333333333333333 0  2.412173913043478 0 0  2.412173913043478 0.008333333333333333 0  2.420434782608695 0 0  2.420434782608695 0.008333333333333333 0  2.428695652173913 0 0  2.428695652173913 0.008333333333333333 0  2.43695652173913 0 0  2.43695652173913 0.008333333333333333 0  2.445217391304348 0 0  2.445217391304348 0.008333333333333333 0  2.453478260869565 0 0  2.453478260869565 0.008333333333333333 0  2.147826086956522 0.01666666666666667 0  2.139565217391304 0.01666666666666667 0  2.156086956521739 0.01666666666666667 0  2.164347826086956 0.01666666666666667 0  2.172608695652174 0.01666666666666667 0  2.180869565217391 0.01666666666666667 0  2.189130434782609 0.01666666666666667 0  2.197391304347826 0.01666666666666667 0  2.205652173913043 0.01666666666666667 0  2.213913043478261 0.01666666666666667 0  2.222173913043478 0.01666666666666667 0  2.230434782608695 0.01666666666666667 0  2.238695652173913 0.01666666666666667 0  2.24695652173913 0.01666666666666667 0  2.255217391304348 0.01666666666666667 0  2.263478260869565 0.01666666666666667 0  2.271739130434783 0.01666666666666667 0  2.28 0.01666666666666667 0  2.288260869565217 0.01666666666666667 0  2.296521739130434 0.01666666666666667 0  2.304782608695652 0.01666666666666667 0  2.31304347826087 0.01666666666666667 0  2.321304347826087 0.01666666666666667 0  2.329565217391304 0.01666666666666667 0  2.337826086956521 0.01666666666666667 0  2.346086956521739 0.01666666666666667 0  2.354347826086956 0.01666666666666667 0  2.362608695652174 0.01666666666666667 0  2.370869565217391 0.01666666666666667 0  2.379130434782609 0.01666666666666667 0  2.387391304347826 0.01666666666666667 0  2.395652173913044 0.01666666666666667 0  2.403913043478261 0.01666666666666667 0  2.412173913043478 0.01666666666666667 0  2.420434782608695 0.01666666666666667 0  2.428695652173913 0.01666666666666667 0  2.43695652173913 0.01666666666666667 0  2.445217391304348 0.01666666666666667 0  2.453478260869565 0.01666666666666667 0  2.461739130434782 0.01666666666666667 0  2.147826086956522 0.025 0  2.139565217391304 0.025 0  2.156086956521739 0.025 0  2.164347826086956 0.025 0  2.172608695652174 0.025 0  2.180869565217391 0.025 0  2.189130434782609 0.025 0  2.197391304347826 0.025 0  2.205652173913043 0.025 0  2.213913043478261 0.025 0  2.222173913043478 0.025 0  2.230434782608695 0.025 0  2.238695652173913 0.025 0  2.24695652173913 0.025 0  2.255217391304348 0.025 0  2.263478260869565 0.025 0  2.271739130434783 0.025 0  2.28 0.025 0  2.288260869565217 0.025 0  2.296521739130434 0.025 0  2.304782608695652 0.025 0  2.31304347826087 0.025 0  2.321304347826087 0.025 0  2.329565217391304 0.025 0  2.337826086956521 0.025 0  2.346086956521739 0.025 0  2.354347826086956 0.025 0  2.362608695652174 0.025 0  2.370869565217391 0.025 0  2.379130434782609 0.025 0  2.387391304347826 0.025 0  2.395652173913044 0.025 0  2.403913043478261 0.025 0  2.412173913043478 0.025 0  2.420434782608695 0.025 0  2.428695652173913 0.025 0  2.43695652173913 0.025 0  2.445217391304348 0.025 0  2.453478260869565 0.025 0  2.461739130434782 0.025 0  2.147826086956522 0.03333333333333333 0  2.156086956521739 0.03333333333333333 0  2.164347826086956 0.03333333333333333 0  2.172608695652174 0.03333333333333333 0  2.180869565217391 0.03333333333333333 0  2.189130434782609 0.03333333333333333 0  2.197391304347826 0.03333333333333333 0  2.205652173913043 0.03333333333333333 0  2.213913043478261 0.03333333333333333 0  2.222173913043478 0.03333333333333333 0  2.230434782608695 0.03333333333333333 0  2.238695652173913 0.03333333333333333 0  2.24695652173913 0.03333333333333333 0  2.255217391304348 0.03333333333333333 0  2.263478260869565 0.03333333333333333 0  2.271739130434783 0.03333333333333333 0  2.28 0.03333333333333333 0  2.288260869565217 0.03333333333333333 0  2.296521739130434 0.03333333333333333 0  2.304782608695652 0.03333333333333333 0  2.31304347826087 0.03333333333333333 0  2.321304347826087 0.03333333333333333 0  2.329565217391304 0.03333333333333333 0  2.337826086956521 0.03333333333333333 0  2.346086956521739 0.03333333333333333 0  2.354347826086956 0.03333333333333333 0  2.362608695652174 0.03333333333333333 0  2.370869565217391 0.03333333333333333 0  2.379130434782609 0.03333333333333333 0  2.387391304347826 0.03333333333333333 0  2.395652173913044 0.03333333333333333 0  2.403913043478261 0.03333333333333333 0  2.412173913043478 0.03333333333333333 0  2.420434782608695 0.03333333333333333 0  2.428695652173913 0.03333333333333333 0  2.43695652173913 0.03333333333333333 0  2.445217391304348 0.03333333333333333 0  2.453478260869565 0.03333333333333333 0  2.461739130434782 0.03333333333333333 0  2.47 0.03333333333333333 0  2.156086956521739 0.04166666666666666 0  2.164347826086956 0.04166666666666666 0  2.172608695652174 0.04166666666666666 0  2.180869565217391 0.04166666666666666 0  2.189130434782609 0.04166666666666666 0  2.197391304347826 0.04166666666666666 0  2.205652173913043 0.04166666666666666 0  2.213913043478261 0.04166666666666666 0  2.222173913043478 0.04166666666666666 0  2.230434782608695 0.04166666666666666 0  2.238695652173913 0.04166666666666666 0  2.24695652173913 0.04166666666666666 0  2.255217391304348 0.04166666666666666 0  2.263478260869565 0.04166666666666666 0  2.271739130434783 0.04166666666666666 0  2.28 0.04166666666666666 0  2.288260869565217 0.04166666666666666 0  2.296521739130434 0.04166666666666666 0  2.304782608695652 0.04166666666666666 0  2.31304347826087 0.04166666666666666 0  2.321304347826087 0.04166666666666666 0  2.329565217391304 0.04166666666666666 0  2.337826086956521 0.04166666666666666 0  2.346086956521739 0.04166666666666666 0  2.354347826086956 0.04166666666666666 0  2.362608695652174 0.04166666666666666 0  2.370869565217391 0.04166666666666666 0  2.379130434782609 0.04166666666666666 0  2.387391304347826 0.04166666666666666 0  2.395652173913044 0.04166666666666666 0  2.403913043478261 0.04166666666666666 0  2.412173913043478 0.04166666666666666 0  2.420434782608695 0.04166666666666666 0  2.428695652173913 0.04166666666666666 0  2.43695652173913 0.04166666666666666 0  2.445217391304348 0.04166666666666666 0  2.453478260869565 0.04166666666666666 0  2.461739130434782 0.04166666666666666 0  2.47 0.04166666666666666 0  2.164347826086956 0.05 0  2.172608695652174 0.05 0  2.180869565217391 0.05 0  2.189130434782609 0.05 0  2.197391304347826 0.05 0  2.205652173913043 0.05 0  2.213913043478261 0.05 0  2.222173913043478 0.05 0  2.230434782608695 0.05 0  2.238695652173913 0.05 0  2.24695652173913 0.05 0  2.255217391304348 0.05 0  2.263478260869565 0.05 0  2.271739130434783 0.05 0  2.28 0.05 0  2.288260869565217 0.05 0  2.296521739130434 0.05 0  2.304782608695652 0.05 0  2.31304347826087 0.05 0  2.321304347826087 0.05 0  2.329565217391304 0.05 0  2.337826086956521 0.05 0  2.346086956521739 0.05 0  2.354347826086956 0.05 0  2.362608695652174 0.05 0  2.370869565217391 0.05 0  2.379130434782609 0.05 0  2.387391304347826 0.05 0  2.395652173913044 0.05 0  2.403913043478261 0.05 0  2.412173913043478 0.05 0  2.420434782608695 0.05 0  2.428695652173913 0.05 0  2.43695652173913 0.05 0  2.445217391304348 0.05 0  2.453478260869565 0.05 0  2.461739130434782 0.05 0  2.47 0.05 0  2.172608695652174 0.05833333333333333 0  2.164347826086956 0.05833333333333333 0  2.180869565217391 0.05833333333333333 0  2.189130434782609 0.05833333333333333 0  2.197391304347826 0.05833333333333333 0  2.205652173913043 0.05833333333333333 0  2.213913043478261 0.05833333333333333 0  2.222173913043478 0.05833333333333333 0  2.230434782608695 0.05833333333333333 0  2.238695652173913 0.05833333333333333 0  2.24695652173913 0.05833333333333333 0 
[...]
<CellData  Scalars="rho"> 
<DataArray  type="Float64"  Name="rho"  format="ascii">1.0000000000000000e+00   1.0000000000000000e+00   1.0000000000000000e+00   1.0000000000000000e+00   1.0000000000000000e+00   1.0000000000000000e+00   1.0000000000000000e+00   1.0000000000000000e+00   1.0000000000000000e+00   1.0000000000000000e+00   1.0000000000000000e+00   1.0000000000000000e+00   1.0000000000000000e+00   1.0000000000000000e+00   1.0000000000000000e+00   1.0000000000000000e+00   1.0000000000000000e+00   1.0000000000000000e+00   1.0000000000000000e+00   1.0000000000000000e+00   1.0000000000000000e+00   1.0000000000000000e+00   1.0000000000000000e+00   1.0000000000000000e+00   1.0000000000000000e+00   1.0000000000000000e+00   1.0000000000000000e+00   1.0000000000000000e+00   1.0000000000000000e+00   1.0000000000000000e+00   1.0000000000000000e+00   1.0000000000000000e+00   1.0000000000000000e+00   1.0000000000000000e+00   1.0000000000000000e+00   1.0000000000000000e+00   1.0000000000000000e+00   1.0000000000000000e+00   1.0000000000000000e+00   1.0000000000000000e+00   1.0000000000000000e+00   1.0000000000000000e+00   1.0000000000000000e+00   1.0000000000000000e+00   1.0000000000000000e+00   1.0000000000000000e+00   1.0000000000000000e+00   1.0000000000000000e+00   1.0000000000000000e+00   1.0000000000000000e+00   1.0000000000000000e+00   1.0000000000000000e+00   1.0000000000000000e+00   1.0000000000000000e+00   1.0000000000000000e+00   1.0000000000000000e+00   1.0000000000000000e+00   1.0000000000000000e+00   1.0000000000000000e+00   1.0000000000000000e+00   1.0000000000000000e+00   1.0000000000000000e+00   1.0000000000000000e+00   1.0000000000000000e+00   1.0000000000000000e+00   1.0000000000000000e+00   1.0000000000000000e+00   1.0000000000000000e+00   1.0000000000000000e+00   1.0000000000000000e+00   1.0000000000000000e+00   1.0000000000000000e+00   1.0000000000000000e+00   1.0000000000000000e+00   1.0000000000000000e+00   1.0000000000000000e+00   1.0000000000000000e+00   1.0000000000000000e+00   1.0000000000000000e+00   1.0000000000000000e+00   1.0000000000000000e+00   1.0000000000000000e+00   1.0000000000000000e+00   1.0000000000000000e+00   1.0000000000000000e+00   1.0000000000000000e+00   1.0000000000000000e+00   1.0000000000000000e+00   1.0000000000000000e+00   1.0000000000000000e+00   1.0000000000000000e+00   1.0000000000000000e+00   1.0000000000000000e+00   1.0000000000000000e+00   1.0000000000000000e+00   1.0000000000000000e+00   1.0000000000000000e+00   1.0000000000000000e+00   1.0000000000000000e+00   1.0000000000000000e+00   1.0000000000000000e+00   1.0000000000000000e+00   1.0000000000000000e+00   1.0000000000000000e+00   1.0000000000000000e+00   1.0000000000000000e+00   1.0000000000000000e+00   1.0000000000000000e+00   1.0000000000000000e+00   1.0000000000000000e+00   1.0000000000000000e+00   1.0000000000000000e+00   1.0000000000000000e+00   1.0000000000000000e+00   1.0000000000000000e+00   1.0000000000000000e+00   1.0000000000000000e+00   1.0000000000000000e+00   1.0000000000000000e+00   1.0000000000000000e+00   1.0000000000000000e+00   1.0000000000000000e+00   1.0000000000000000e+00   1.0000000000000000e+00   1.0000000000000000e+00   1.0000000000000000e+00   1.0000000000000000e+00   1.0000000000000000e+00   1.0000000000000000e+00   1.0000000000000000e+00   1.0000000000000000e+00   1.0000000000000000e+00   1.0000000000000000e+00   1.0000000000000000e+00   1.0000000000000000e+00   1.0000000000000000e+00   1.0000000000000000e+00   1.0000000000000000e+00   1.0000000000000000e+00   1.0000000000000000e+00   1.0000000000000000e+00   1.0000000000000000e+00   1.0000000000000000e+00   1.0000000000000000e+00   1.0000000000000000e+00   1.0000000000000000e+00   1.0000000000000000e+00   1.0000000000000000e+00   1.0000000000000000e+00   1.0000000000000000e+00   1.0000000000000000e+00   1.0000000000000000e+00   1.0000000000000000e+00   1.0000000000000000e+00   1.0000000000000000e+00   1.0000000000000000e+00   1.0000000000000000e+00   1.0000000000000000e+00   1.0000000000000000e+00   1.0000000000000000e+00   1.0000000000000000e+00   1.0000000000000000e+00   1.0000000000000000e+00   1.0000000000000000e+00   1.0000000000000000e+00   1.0000000000000000e+00   1.0000000000000000e+00   1.0000000000000000e+00   1.0000000000000000e+00   1.0000000000000000e+00   1.0000000000000000e+00   1.0000000000000000e+00   1.0000000000000000e+00   1.0000000000000000e+00   1.0000000000000000e+00   1.0000000000000000e+00   1.0000000000000000e+00   1.0000000000000000e+00   1.0000000000000000e+00   1.0000000000000000e+00   1.0000000000000000e+00   1.0000000000000000e+00   1.0000000000000000e+00   1.0000000000000000e+00   1.0000000000000000e+00   1.0000000000000000e+00   1.0000000000000000e+00   1.0000000000000000e+00   1.0000000000000000e+00   1.0000000000000000e+00   1.0000000000000000e+00   1.0000000000000000e+00   1.0000000000000000e+00   1.0000000000000000e+00   1.0000000000000000e+00   1.0000000000000000e+00   1.0000000000000000e+00   1.0000000000000000e+00   1.0000000000000000e+00   1.0000000000000000e+00   1.0000000000000000e+00   1.0000000000000000e+00   1.0000000000000000e+00   1.0000000000000000e+00   1.0000000000000000e+00   1.0000000000000000e+00   1.0000000000000000e+00   1.0000000000000000e+00   1.0000000000000000e+00   1.0000000000000000e+00   1.0000000000000000e+00   1.0000000000000000e+00   1.0000000000000000e+00   1.0000000000000000e+00   1.0000000000000000e+00   1.0000000000000000e+00   1.0000000000000000e+00   1.0000000000000000e+00   1.0000000000000000e+00   1.0000000000000000e+00   1.0000000000000000e+00   1.0000000000000000e+00   1.0000000000000000e+00   1.0000000000000000e+00   1.0000000000000000e+00   1.0000000000000000e+00   1.0000000000000000e+00   1.0000000000000000e+00   1.0000000000000000e+00   1.0000000000000000e+00   1.0000000000000000e+00   1.0000000000000000e+00   1.0000000000000000e+00   1.0000000000000000e+00   1.0000000000000000e+00   1.0000000000000000e+00   1.0000000000000000e+00   1.0000000000000000e+00   1.0000000000000000e+00   1.0000000000000000e+00   1.0000000000000000e+00   1.0000000000000000e+00   1.0000000000000000e+00   1.0000000000000000e+00   1.0000000000000000e+00   1.0000000000000000e+00   1.0000000000000000e+00   1.0000000000000000e+00   1.0000000000000000e+00   1.0000000000000000e+00   1.0000000000000000e+00   1.0000000000000000e+00   1.0000000000000000e+00   1.0000000000000000e+00   1.0000000000000000e+00   1.0000000000000000e+00   1.0000000000000000e+00   1.0000000000000000e+00   1.0000000000000000e+00   1.0000000000000000e+00   1.0000000000000000e+00   1.0000000000000000e+00   1.0000000000000000e+00   1.0000000000000000e+00   1.0000000000000000e+00   1.0000000000000000e+00   1.0000000000000000e+00   1.0000000000000000e+00   1.0000000000000000e+00   1.0000000000000000e+00   1.0000000000000000e+00   1.0000000000000000e+00   1.0000000000000000e+00   1.0000000000000000e+00   1.0000000000000000e+00   1.0000000000000000e+00   1.0000000000000000e+00   1.0000000000000000e+00   1.0000000000000000e+00   1.0000000000000000e+00   1.0000000000000000e+00   1.0000000000000000e+00   1.0000000000000000e+00   1.0000000000000000e+00   1.0000000000000000e+00   1.0000000000000000e+00   1.0000000000000000e+00   1.0000000000000000e+00   1.0000000000000000e+00   1.0000000000000000e+00   1.0000000000000000e+00   9.9841563436338210e-01   1.0000000000000000e+00   9.9305705677705691e-01   1.0000000000000000e+00   9.8849518943837700e-01   1.0000000000000000e+00   9.8466548132639597e-01   1.0000000000000000e+00   9.8149061136622084e-01   1.0000000000000000e+00   9.7887170235604937e-01   1.0000000000000000e+00   9.7669761771531760e-01   1.0000000000000000e+00   9.7483897306509981e-01   1.0000000000000000e+00   7.8383913735067867e-01   7.8246173045015699e-01   1.0000000000000000e+00   8.0459311086611141e-01   6.7954659662906569e-01   7.9869765082798971e-01   6.7635301511874102e-01   7.9254553353320056e-01   6.7306378115873722e-01   7.8619626017501676e-01   6.6970183130406846e-01   7.7970782044220399e-01   6.6628847057567975e-01   7.7313521716664824e-01   6.6284477097243699e-01   7.6652601393779607e-01   6.5938807660998322e-01   7.5992076170450451e-01   6.5593443194719914e-01   7.5335000572060296e-01   6.5249523324132286e-01   7.4683775229709692e-01   6.4908031401325961e-01   7.4040141378046631e-01   6.4569649034098242e-01   7.3405576110629234e-01   6.4235093003924482e-01   8.6640832943920043e-01   6.3904915883255675e-01   7.3792854571548305e-01   6.3579837058639255e-01   7.3190023612770727e-01   6.3260523793977452e-01   7.2603519536545191e-01   6.2947903551292050e-01   7.2035249783360544e-01   6.4279830757530565e-01   7.1487447050353836e-01   6.3771438208983910e-01   7.0962324428088408e-01   6.3281475668765896e-01   7.0462126901504518e-01   6.2812130432088120e-01   6.9988711713409724e-01   6.2556793208086681e-01   6.9543652642438447e-01   6.2290132670595211e-01   6.9127928751415779e-01   6.1910816375201572e-01   6.8742145777695951e-01   6.1476815185777656e-01   6.8386263186640028e-01   6.1193464902438466e-01   6.8060054676818216e-01   6.0930583309433883e-01   6.7762984542442606e-01   6.1162438320290446e-01   7.2871199711511714e-01   6.0492449390845537e-01   7.2307415078234660e-01   6.0290996547826103e-01   7.1814003694051320e-01   6.0107008263142059e-01   7.1386446563285166e-01   5.9374882810482443e-01   7.1019335599012101e-01   5.9800057152015840e-01   6.5475123015695347e-01   5.9633706556586297e-01   6.5295047397235373e-01   5.9482674304532435e-01   6.5272210596636193e-01   5.9339081544381778e-01   6.5110355512693574e-01   5.8181283059070155e-01   6.4952468300207455e-01   5.8035403430451049e-01   6.1609600400821829e-01   5.7893304200875906e-01   5.7537354846011635e-01   5.7347480901103676e-01   5.3805458347009483e-01   5.7184839951527233e-01   5.3626915575645917e-01   5.6956341154700652e-01   5.3446026492035037e-01   5.6750047937423620e-01   5.3263341478782555e-01   5.6574556050926406e-01   5.3058577719341515e-01   5.6370863173026031e-01   5.2871247482842199e-01   5.6166571549019773e-01   5.2683213468192203e-01   5.5962043804725115e-01   5.2494785533260691e-01   5.4899992712909618e-01   5.2306152548903972e-01   5.4677350841887296e-01   5.2117535694895378e-01   5.4397365513623996e-01   5.1929124134009763e-01   5.4170122382874364e-01   5.1741188433655250e-01   5.3944821221885819e-01   5.1553968783441773e-01   5.3721970595898072e-01   5.1367810156475013e-01   5.3502131754757720e-01   5.1183038253099589e-01   5.3285998824190750e-01   5.1000061941643615e-01   5.3683266176477884e-01   5.0819218647361253e-01   5.3508203459873960e-01   5.0640872713606855e-01   5.3337528717087701e-01   5.0465303035251441e-01   5.3171571744135848e-01   5.0292773228104071e-01   5.3010468435291391e-01   5.0123398416169129e-01   5.2854281202622611e-01   4.9957267353054602e-01   4.9854330542970776e-01   4.9794323070842467e-01   4.9692513507263714e-01   4.1791998466320163e-01   4.9537622212614879e-01   4.1559179338755847e-01   5.0267661851388867e-01   4.1336334890046011e-01   5.0031835823040982e-01   4.0927585303330738e-01   4.9803491150792684e-01   4.7032130017051393e-01   4.9583269261949764e-01   4.6840804459057722e-01   5.1683258820491706e-01   4.6653481024078380e-01   5.1509170941494831e-01   4.6469998236403137e-01   5.1338953671898546e-01   4.6290309654900003e-01   5.1172875402964624e-01   4.6114243041084030e-01   5.1011360980782416e-01   4.5941757112176745e-01   5.0854798866572637e-01   4.5772662179488216e-01   5.0685360732217422e-01   4.1047044165369617e-01   5.0550054294242908e-01   4.0843699344406537e-01   4.0499939920109645e-01   4.3132345511792169e-01   4.4550811840711052e-01   4.2968957423913973e-01   4.5924955171383780e-01   4.2805048522851258e-01   4.5777880487447853e-01   4.2641310167751045e-01   4.5630090372506715e-01   4.2478383316618662e-01   4.5481710824569421e-01   4.2316734886691731e-01   4.5332823501065395e-01   3.9612513699475654e-01   4.5183422544347329e-01   3.9467778476094412e-01   4.5033502368413053e-01   4.1361174549350194e-01   4.4883004322668157e-01   4.1230776085388954e-01   4.4731943879146735e-01   4.1099448326773630e-01   4.4580348767557854e-01   4.0967085034326473e-01   4.4428343520532326e-01   4.0833699070346424e-01   4.4276077974653688e-01   4.0699323522550529e-01   4.4123800591006879e-01   4.1265754097011498e-01   4.3971756434634512e-01   4.1115051363242455e-01   4.3820247263279116e-01   4.0963843489629242e-01   4.3669508356106013e-01   3.7106537062723799e-01   4.3519786941109356e-01   3.6936147159976490e-01   4.0285486139125315e-01   2.4126794838851442e-01   4.0114662864123490e-01   3.7603749625153171e-01   3.9945565091649377e-01   3.7449512242166738e-01   2.9237470600426718e-01   3.7295957579898703e-01   2.9014937862885742e-01   3.7143192598365604e-01   2.8797051888836483e-01   3.6991389680813797e-01   2.8584374905737625e-01   3.6840693870038466e-01   2.8377640962035688e-01   3.6691345083513199e-01   2.8476850299989082e-01   3.6543565854567078e-01   2.8267860757301655e-01   2.7709117121935384e-01   6.6138756926787723e-02   2.7526106182017090e-01   6.3041691224414165e-02   2.7346227124798467e-01   6.0066500524779194e-02   2.7169524507908560e-01   5.7205186176957086e-02   2.6995986806482947e-01   3.0531479271727785e-01   2.6825306451728309e-01   3.0350586830954018e-01   2.6657089923974608e-01   3.0171166264610677e-01   2.6490603996542728e-01   2.9992289432146513e-01   2.6325002466345021e-01   2.6159316562492718e-01   1.1151441793418485e-02   1.1061414694360332e-02   1.1414166572631888e-02   1.0990243083926985e-02   1.1336204567447645e-02   1.0938928773253533e-02   1.1278871392626469e-02   2.5054501589899220e-01   1.1242919823180970e-02   2.4931939282084153e-01   1.1228747713725732e-02   2.4815385120035965e-01   1.1236411993388413e-02   2.4704220533388571e-01   1.1265622212648204e-02   2.4597351522865668e-01   1.1315783231050728e-02   2.4493391386380409e-01   1.1386008586107103e-02   1.1152022745836930e-02   1.1475169564298124e-02   1.1257548380138522e-02   1.1581914980737155e-02   1.1378358060505300e-02   1.1704732251096965e-02   1.1512874507688052e-02   1.1841974891243652e-02   1.1659447089506635e-02   1.1991915900203197e-02   1.1816376358899979e-02   1.2152770584199753e-02   1.1981965268890355e-02   1.2322752511059024e-02   1.2154537678999964e-02   1.2500091909731949e-02   1.2332483429600385e-02   1.2683083950942153e-02   1.2514269097145059e-02   1.2870101033179232e-02   1.2698470803352674e-02   1.3059628894188820e-02   1.2883778234525054e-02   1.3250270258373619e-02   1.3069020938162665e-02   1.3440774236829258e-02   1.3253163573607972e-02   1.3630030711879628e-02   1.3435316994856531e-02   1.3817088859725222e-02   1.3614715588103555e-02   1.4001131955197933e-02   1.3790722200629111e-02   1.4181485683339367e-02   1.3962797768872352e-02   1.4357586043217062e-02   1.4130500822156385e-02   1.4528981000280956e-02   1.4293452356023433e-02   1.4695292941280393e-02   1.4451326207653220e-02   1.4856211227101080e-02   1.4603802514133067e-02   1.5011445619452951e-02   1.4750561476469828e-02   1.5160713110359195e-02   1.4891261180723939e-02   1.5303710579202360e-02   1.5025549910266800e-02   1.5440124080960814e-02   1.5153076681320167e-02   1.5569625832404874e-02   1.5273524033410370e-02   1.5691913025879970e-02   1.5386605259547902e-02   1.5806706323499311e-02   1.2141795031414302e-02   1.2603378530152896e-02   1.2069885738563308e-02   1.2522814130605469e-02   1.2021087627037432e-02   1.2466220707161621e-02   1.1995941450227187e-02   1.2434235273593858e-02   1.1994605342098575e-02   1.2427086664724514e-02   1.2016853806397113e-02   1.2444598397886060e-02   1.2062109540504604e-02   1.2486220209492494e-02   1.2129468348947190e-02   1.2551050468266794e-02   1.2217748535438040e-02   1.2637892458588132e-02   1.2325518410710371e-02   1.2745280941086016e-02   1.2451154834048538e-02   1.2871544581949185e-02   1.2592875734779298e-02   1.3014837412725241e-02   1.2748799022961764e-02   1.3173202589285463e-02   1.2916970634015330e-02   1.3344600624686034e-02   1.3095418702076421e-02   1.3526967209203222e-02   1.3282180871021003e-02   1.3718239955149637e-02   1.3475352585024839e-02   1.3916411674712650e-02   1.3673105969017808e-02   1.4119548510281507e-02   1.3873730357586100e-02   1.4325834722925083e-02   1.4075640269156642e-02   1.4533582354516388e-02   1.4277403368591486e-02   1.4741261600206539e-02   1.4477744273220305e-02   1.4947503151407700e-02   1.4675563057564397e-02   1.5151122767297558e-02   1.4869921199013793e-02   1.5351107017932587e-02   1.5060044957899938e-02   1.5546622123097313e-02   1.5245299815009937e-02   1.5736985082148554e-02   1.5425189174384166e-02   1.5921666224116678e-02   1.5599320730650909e-02   1.6100253639406842e-02   1.5767394595910349e-02   1.6272443626518293e-02   1.5929160865907177e-02   1.6437995300610395e-02   1.6084399766654350e-02   1.6596713305223026e-02   1.6232881717439945e-02   1.6748401393318232e-02   1.6374365822892648e-02   1.6892855636753343e-02   1.6508586498062007e-02   1.7029844480845803e-02   1.6635277356374548e-02   1.7159127069108798e-02   1.6754178967697275e-02   1.7280457000557359e-02   1.6865059921883172e-02   1.7393607926930583e-02   1.3539672792644966e-02   1.4105123456079902e-02   1.3464932443808570e-02   1.4019945427731903e-02   1.3416716319981451e-02   1.3962222795344212e-02   1.3395440704455131e-02   1.3932494122031600e-02   1.3401063193608460e-02   1.3930807810599051e-02   1.3433117817931155e-02   1.3956762164698001e-02   1.3490741490118897e-02   1.4009529339671688e-02   1.3572726087597204e-02   1.4087912622548288e-02   1.3677558749317470e-02   1.4190385109567877e-02   1.3803481882339295e-02   1.4315157424750185e-02   1.3948535705700271e-02   1.4460217394922970e-02   1.4110619009777744e-02   1.4623397877945560e-02   1.4287526589242698e-02   1.4802413204579715e-02   1.4477007079347924e-02   1.4994922015121426e-02   1.4676798642489802e-02   1.5198561252553859e-02   1.4884680487302583e-02   1.5411003876732153e-02   1.5098501614286585e-02   1.5629985608057742e-02   1.5316224110233759e-02   1.5853354686939717e-02   1.5535942175571528e-02   1.6079089203574315e-02   1.5755913586486446e-02   1.6305334413986735e-02   1.5974567929644794e-02   1.6530409919387368e-02   1.6190529087949719e-02   1.6752836817966445e-02   1.6402614823951892e-02   1.6971335118036567e-02   1.6609843790924991e-02   1.7184838976958692e-02   1.6811415532218044e-02   1.7392474749886738e-02   1.7006707667812860e-02   1.7593562868127098e-02   1.7195248148372890e-02   1.7787586991767877e-02   1.7376700755304099e-02   1.7974184451781991e-02   1.7550826246173233e-02   1.8153102981825920e-02   1.7717457792958489e-02   1.8324181234690120e-02   1.7876454351969381e-02   1.8487296666212606e-02   1.8027680292906856e-02   1.8642344196158692e-02   1.8170975093717942e-02   1.8789197860047267e-02   1.8306156317250737e-02   1.8927709684333490e-02   1.8433018697860171e-02   1.9057699319667987e-02   1.8551353875428497e-02   1.9178974665475784e-02   1.8660955240313960e-02   1.9291333534572366e-02   1.5231547425389999e-02   1.5889133026654616e-02   1.5152310146386610e-02   1.5797811742458444e-02   1.5103134913222436e-02   1.5737539086249495e-02   1.5084305650226278e-02   1.5708745231823425e-02   1.5095589736696688e-02   1.5711311071911357e-02   1.5136270672695842e-02   1.5744598859451710e-02   1.5205202899775656e-02   1.5807510919084538e-02   1.5300861562090524e-02   1.5898538274259754e-02   1.5421408065921103e-02   1.6015833478188142e-02   1.5564745672701902e-02   1.6157264958846309e-02   1.5728583952512618e-02   1.6320490150413446e-02   1.5910487824840776e-02   1.6503002542704447e-02   1.6107938703459137e-02   1.6702200243438908e-02   1.6318377838194880e-02   1.6915428076046068e-02   1.6539261694562952e-02   1.7140037725840992e-02   1.6768100617067076e-02   1.7373424740714138e-02   1.7002505346956891e-02   1.7613081578366309e-02   1.7240216987226113e-02   1.7856625394129542e-02   1.7479141283092928e-02   1.8101839365522170