<?xml version="1.0"?>
<VTKFile type="UnstructuredGrid"  version="0.1"  >
<UnstructuredGrid>
<Piece  NumberOfPoints="2419" NumberOfCells="4629">
<Points>
<DataArray  type="Float64"  NumberOfComponents="3"  format="ascii">0.9582608695652173 0.2083333333333333 0  0.9582608695652173 0.2166666666666667 0  0.9665217391304347 0.2166666666666667 0  0.9665217391304347 0.225 0  0.9582608695652173 0.225 0  0.9747826086956521 0.225 0  0.9665217391304347 0.2333333333333333 0  0.9582608695652173 0.2333333333333333 0  0.9747826086956521 0.2333333333333333 0  0.9830434782608696 0.225 0  0.9830434782608696 0.2333333333333333 0  0.991304347826087 0.2333333333333333 0  0.9665217391304347 0.2416666666666667 0  0.9582608695652173 0.2416666666666667 0  0.9747826086956521 0.2416666666666667 0  0.9830434782608696 0.2416666666666667 0  0.991304347826087 0.2416666666666667 0  0.9995652173913042 0.2333333333333333 0  0.9995652173913042 0.2416666666666667 0  1.007826086956522 0.2333333333333333 0  1.007826086956522 0.2416666666666667 0  1.016086956521739 0.2333333333333333 0  1.016086956521739 0.2416666666666667 0  1.024347826086957 0.2333333333333333 0  1.024347826086957 0.2416666666666667 0  1.032608695652174 0.2333333333333333 0  1.032608695652174 0.2416666666666667 0  1.040869565217391 0.2333333333333333 0  1.040869565217391 0.2416666666666667 0  1.049130434782609 0.2333333333333333 0  1.049130434782609 0.2416666666666667 0  1.057391304347826 0.2333333333333333 0  1.057391304347826 0.2416666666666667 0  1.065652173913043 0.2333333333333333 0  1.065652173913043 0.2416666666666667 0  1.073913043478261 0.2333333333333333 0  1.073913043478261 0.2416666666666667 0  1.082173913043478 0.2333333333333333 0  1.082173913043478 0.2416666666666667 0  1.090434782608696 0.2333333333333333 0  1.090434782608696 0.2416666666666667 0  1.098695652173913 0.2333333333333333 0  1.098695652173913 0.2416666666666667 0  1.10695652173913 0.2333333333333333 0  1.10695652173913 0.2416666666666667 0  1.115217391304348 0.2333333333333333 0  1.115217391304348 0.2416666666666667 0  1.123478260869565 0.2416666666666667 0  0.9665217391304347 0.25 0  0.9582608695652173 0.25 0  0.9747826086956521 0.25 0  0.9830434782608696 0.25 0  0.991304347826087 0.25 0  0.9995652173913042 0.25 0  1.007826086956522 0.25 0  1.016086956521739 0.25 0  1.024347826086957 0.25 0  1.032608695652174 0.25 0  1.040869565217391 0.25 0  1.049130434782609 0.25 0  1.057391304347826 0.25 0  1.065652173913043 0.25 0  1.073913043478261 0.25 0  1.082173913043478 0.25 0  1.090434782608696 0.25 0  1.098695652173913 0.25 0  1.10695652173913 0.25 0  1.115217391304348 0.25 0  1.123478260869565 0.25 0  1.131739130434783 0.2416666666666667 0  1.131739130434783 0.25 0  1.14 0.2416666666666667 0  1.14 0.25 0  1.148260869565217 0.2416666666666667 0  1.148260869565217 0.25 0  1.156521739130435 0.2416666666666667 0  1.156521739130435 0.25 0  1.164782608695652 0.2416666666666667 0  1.164782608695652 0.25 0  1.17304347826087 0.2416666666666667 0  1.17304347826087 0.25 0  1.181304347826087 0.2416666666666667 0  1.181304347826087 0.25 0  1.189565217391304 0.2416666666666667 0  1.189565217391304 0.25 0  1.197826086956522 0.2416666666666667 0  1.197826086956522 0.25 0  1.206086956521739 0.2416666666666667 0  1.206086956521739 0.25 0  1.214347826086956 0.2416666666666667 0  1.214347826086956 0.25 0  1.222608695652174 0.2416666666666667 0  1.222608695652174 0.25 0  1.230869565217391 0.2416666666666667 0  1.230869565217391 0.25 0  1.239130434782609 0.2416666666666667 0  1.239130434782609 0.25 0  1.247391304347826 0.2416666666666667 0  1.247391304347826 0.25 0  1.255652173913044 0.2416666666666667 0  1.255652173913044 0.25 0  1.263913043478261 0.2416666666666667 0  1.263913043478261 0.25 0  1.272173913043478 0.2416666666666667 0  1.272173913043478 0.25 0  1.280434782608696 0.2416666666666667 0  1.280434782608696 0.25 0  1.288695652173913 0.2416666666666667 0  1.288695652173913 0.25 0  1.296956521739131 0.2416666666666667 0  1.296956521739131 0.25 0  1.305217391304348 0.2416666666666667 0  1.305217391304348 0.25 0  1.313478260869565 0.2416666666666667 0  1.313478260869565 0.25 0  1.321739130434783 0.2416666666666667 0  1.321739130434783 0.25 0  1.33 0.2416666666666667 0  1.33 0.25 0  1.338260869565217 0.2416666666666667 0  1.338260869565217 0.25 0  1.346521739130435 0.2416666666666667 0  1.346521739130435 0.25 0  1.354782608695652 0.2416666666666667 0  1.354782608695652 0.25 0  1.36304347826087 0.2416666666666667 0  1.36304347826087 0.25 0  1.371304347826087 0.2416666666666667 0  1.371304347826087 0.25 0  1.379565217391304 0.2416666666666667 0  1.379565217391304 0.25 0  1.387826086956522 0.2416666666666667 0  1.387826086956522 0.25 0  1.396086956521739 0.2416666666666667 0  1.396086956521739 0.25 0  1.404347826086957 0.2416666666666667 0  1.404347826086957 0.25 0  1.412608695652174 0.2416666666666667 0  1.412608695652174 0.25 0  1.420869565217391 0.2416666666666667 0  1.420869565217391 0.25 0  1.429130434782609 0.2416666666666667 0  1.429130434782609 0.25 0  1.437391304347826 0.2416666666666667 0  1.437391304347826 0.25 0  1.445652173913043 0.2416666666666667 0  1.445652173913043 0.25 0  1.453913043478261 0.2416666666666667 0  1.453913043478261 0.25 0  1.462173913043478 0.2416666666666667 0  1.462173913043478 0.25 0  1.470434782608696 0.25 0  0.9665217391304347 0.2583333333333334 0  0.9582608695652173 0.2583333333333334 0  0.9747826086956521 0.2583333333333334 0  0.9830434782608696 0.2583333333333334 0  0.991304347826087 0.2583333333333334 0  0.9995652173913042 0.2583333333333334 0  1.007826086956522 0.2583333333333334 0  1.016086956521739 0.2583333333333334 0  1.024347826086957 0.2583333333333334 0  1.032608695652174 0.2583333333333334 0  1.040869565217391 0.2583333333333334 0  1.049130434782609 0.2583333333333334 0  1.057391304347826 0.2583333333333334 0  1.065652173913043 0.2583333333333334 0  1.073913043478261 0.2583333333333334 0  1.082173913043478 0.2583333333333334 0  1.090434782608696 0.2583333333333334 0  1.098695652173913 0.2583333333333334 0  1.10695652173913 0.2583333333333334 0  1.115217391304348 0.2583333333333334 0  1.123478260869565 0.2583333333333334 0  1.131739130434783 0.2583333333333334 0  1.14 0.2583333333333334 0  1.148260869565217 0.2583333333333334 0  1.156521739130435 0.2583333333333334 0  1.164782608695652 0.2583333333333334 0  1.17304347826087 0.2583333333333334 0  1.181304347826087 0.2583333333333334 0  1.189565217391304 0.2583333333333334 0  1.197826086956522 0.2583333333333334 0  1.206086956521739 0.2583333333333334 0  1.214347826086956 0.2583333333333334 0  1.222608695652174 0.2583333333333334 0  1.230869565217391 0.2583333333333334 0  1.239130434782609 0.2583333333333334 0  1.247391304347826 0.2583333333333334 0  1.255652173913044 0.2583333333333334 0  1.263913043478261 0.2583333333333334 0  1.272173913043478 0.2583333333333334 0  1.280434782608696 0.2583333333333334 0  1.288695652173913 0.2583333333333334 0  1.296956521739131 0.2583333333333334 0  1.305217391304348 0.2583333333333334 0  1.313478260869565 0.2583333333333334 0  1.321739130434783 0.2583333333333334 0  1.33 0.2583333333333334 0  1.338260869565217 0.2583333333333334 0  1.346521739130435 0.2583333333333334 0  1.354782608695652 0.2583333333333334 0  1.36304347826087 0.2583333333333334 0  1.371304347826087 0.2583333333333334 0  1.379565217391304 0.2583333333333334 0  1.387826086956522 0.2583333333333334 0  1.396086956521739 0.2583333333333334 0  1.404347826086957 0.2583333333333334 0  1.412608695652174 0.2583333333333334 0  1.420869565217391 0.2583333333333334 0  1.429130434782609 0.2583333333333334 0  1.437391304347826 0.2583333333333334 0  1.445652173913043 0.2583333333333334 0  1.453913043478261 0.2583333333333334 0  1.462173913043478 0.2583333333333334 0  1.470434782608696 0.2583333333333334 0  1.478695652173913 0.2583333333333334 0  0.9665217391304347 0.2666666666666667 0  0.9582608695652173 0.2666666666666667 0  0.9747826086956521 0.2666666666666667 0  0.9830434782608696 0.2666666666666667 0  0.991304347826087 0.2666666666666667 0  0.9995652173913042 0.2666666666666667 0  1.007826086956522 0.2666666666666667 0  1.016086956521739 0.2666666666666667 0  1.024347826086957 0.2666666666666667 0  1.032608695652174 0.2666666666666667 0  1.040869565217391 0.2666666666666667 0  1.049130434782609 0.2666666666666667 0  1.057391304347826 0.2666666666666667 0  1.065652173913043 0.2666666666666667 0  1.073913043478261 0.2666666666666667 0  1.082173913043478 0.2666666666666667 0  1.090434782608696 0.2666666666666667 0  1.098695652173913 0.2666666666666667 0  1.10695652173913 0.2666666666666667 0  1.115217391304348 0.2666666666666667 0  1.123478260869565 0.2666666666666667 0  1.131739130434783 0.2666666666666667 0  1.14 0.2666666666666667 0  1.148260869565217 0.2666666666666667 0  1.156521739130435 0.2666666666666667 0  1.164782608695652 0.2666666666666667 0  1.17304347826087 0.2666666666666667 0  1.181304347826087 0.2666666666666667 0  1.189565217391304 0.2666666666666667 0  1.197826086956522 0.2666666666666667 0  1.206086956521739 0.2666666666666667 0  1.214347826086956 0.2666666666666667 0  1.222608695652174 0.2666666666666667 0  1.230869565217391 0.2666666666666667 0  1.239130434782609 0.2666666666666667 0  1.247391304347826 0.2666666666666667 0  1.255652173913044 0.2666666666666667 0  1.263913043478261 0.2666666666666667 0  1.272173913043478 0.2666666666666667 0  1.280434782608696 0.2666666666666667 0  1.288695652173913 0.2666666666666667 0  1.296956521739131 0.2666666666666667 0  1.305217391304348 0.2666666666666667 0  1.313478260869565 0.2666666666666667 0  1.321739130434783 0.2666666666666667 0  1.33 0.2666666666666667 0  1.338260869565217 0.2666666666666667 0  1.346521739130435 0.2666666666666667 0  1.354782608695652 0.2666666666666667 0  1.36304347826087 0.2666666666666667 0  1.371304347826087 0.2666666666666667 0  1.379565217391304 0.2666666666666667 0  1.387826086956522 0.2666666666666667 0  1.396086956521739 0.2666666666666667 0 
[...]
<PointData  Vectors="Displacement"> 
<DataArray  type="Float64"  Name="Displacement"  NumberOfComponents="3" format="ascii">3.5246635992377755e-05 5.2200650282625794e-04 0.0000000000000000e+00  3.1829579757937692e-05 5.1899526671693496e-04 0.0000000000000000e+00  3.3078499865004150e-05 5.2501636823749161e-04 0.0000000000000000e+00  2.9590748184153195e-05 5.2208490271349350e-04 0.0000000000000000e+00  2.8347802527716355e-05 5.1598603380947135e-04 0.0000000000000000e+00  3.0791602925567630e-05 5.2818942813211882e-04 0.0000000000000000e+00  2.6037454656345407e-05 5.1915755197397067e-04 0.0000000000000000e+00  2.4802247642016113e-05 5.1297977687387144e-04 0.0000000000000000e+00  2.7229471947820017e-05 5.2534228407125191e-04 0.0000000000000000e+00  3.1949896994929046e-05 5.3429826361244524e-04 0.0000000000000000e+00  2.8377826424967443e-05 5.3153252988181890e-04 0.0000000000000000e+00  2.9482135380283030e-05 5.3772676381541194e-04 0.0000000000000000e+00  2.2419533043983688e-05 5.1623533685056858e-04 0.0000000000000000e+00  2.1193858460639111e-05 5.0997746750659735e-04 0.0000000000000000e+00  2.3600872952585676e-05 5.2250149149519109e-04 0.0000000000000000e+00  2.4737408703753147e-05 5.2877437865225612e-04 0.0000000000000000e+00  2.5828777141213484e-05 5.3505235163342013e-04 0.0000000000000000e+00  3.0542110282698162e-05 5.4392338773951820e-04 0.0000000000000000e+00  2.6874724801544321e-05 5.4133368539124144e-04 0.0000000000000000e+00  3.1557556311220278e-05 5.5012074126319001e-04 0.0000000000000000e+00  2.7875106104971519e-05 5.4761659202928119e-04 0.0000000000000000e+00  3.2528368136360030e-05 5.5631711096617144e-04 0.0000000000000000e+00  2.8829876999056165e-05 5.5389923447047185e-04 0.0000000000000000e+00  3.3454522631882868e-05 5.6251073726769243e-04 0.0000000000000000e+00  2.9739084855972629e-05 5.6017973678636375e-04 0.0000000000000000e+00  3.4336069353028174e-05 5.6869981789833693e-04 0.0000000000000000e+00  3.0602855579750788e-05 5.6645618997479285e-04 0.0000000000000000e+00  3.5173119754373217e-05 5.7488250723133634e-04 0.0000000000000000e+00  3.1421379024936860e-05 5.7272665228607993e-04 0.0000000000000000e+00  3.5965836238660632e-05 5.8105691105861065e-04 0.0000000000000000e+00  3.2194893956169205e-05 5.7898914355577927e-04 0.0000000000000000e+00  3.6714422229976745e-05 5.8722107675070342e-04 0.0000000000000000e+00  3.2923673899103875e-05 5.8524163337530003e-04 0.0000000000000000e+00  3.7419114555038614e-05 5.9337297911943093e-04 0.0000000000000000e+00  3.3608015362026288e-05 5.9148202332262817e-04 0.0000000000000000e+00  3.8080179499295881e-05 5.9951050270963069e-04 0.0000000000000000e+00  3.4248230065545270e-05 5.9770812387988440e-04 0.0000000000000000e+00  3.8697913950033526e-05 6.0563142175588979e-04 0.0000000000000000e+00  3.4844642960199466e-05 6.0391762723774225e-04 0.0000000000000000e+00  3.9272652989814143e-05 6.1173337968439714e-04 0.0000000000000000e+00  3.5397597857276211e-05 6.1010807798649708e-04 0.0000000000000000e+00  3.9804785111764752e-05 6.1781387075969529e-04 0.0000000000000000e+00  3.5907472411501065e-05 6.1627684461731307e-04 0.0000000000000000e+00  4.0294775831532147e-05 6.2387022721241696e-04 0.0000000000000000e+00  3.6374703935658903e-05 6.2242109578471356e-04 0.0000000000000000e+00  4.0743199771746670e-05 6.2989961583094901e-04 0.0000000000000000e+00  3.6799826990067116e-05 6.2853778636034769e-04 0.0000000000000000e+00  3.7183522619435439e-05 6.3462365934415584e-04 0.0000000000000000e+00  1.8737908319238953e-05 5.1331930943771485e-04 0.0000000000000000e+00  1.7523611117598422e-05 5.0698008969398821e-04 0.0000000000000000e+00  1.9906658369582320e-05 5.1966817045767948e-04 0.0000000000000000e+00  2.1029403632336672e-05 5.2602499411190612e-04 0.0000000000000000e+00  2.2105811673780379e-05 5.3238799572658067e-04 0.0000000000000000e+00  2.3135678014625812e-05 5.3875530723094796e-04 0.0000000000000000e+00  2.4118922698516380e-05 5.4512499903236987e-04 0.0000000000000000e+00  2.5055581447224535e-05 5.5149509908946324e-04 0.0000000000000000e+00  2.5945792326404319e-05 5.5786360750488615e-04 0.0000000000000000e+00  2.6789778996166669e-05 5.6422850524089920e-04 0.0000000000000000e+00  2.7587831767606941e-05 5.7058775588771993e-04 0.0000000000000000e+00  2.8340287812034984e-05 5.7693929980482859e-04 0.0000000000000000e+00  2.9047511998226827e-05 5.8328104033306485e-04 0.0000000000000000e+00  2.9709879999129298e-05 5.8961082214693860e-04 0.0000000000000000e+00  3.0327765568972619e-05 5.9592640215358310e-04 0.0000000000000000e+00  3.0901534163884506e-05 6.0222541396818088e-04 0.0000000000000000e+00  3.1431545229089712e-05 6.0850532797654909e-04 0.0000000000000000e+00  3.1918165498747277e-05 6.1476341009680834e-04 0.0000000000000000e+00  3.2361795579071403e-05 6.2099668361325364e-04 0.0000000000000000e+00  3.2762911887414411e-05 6.2720189993880639e-04 0.0000000000000000e+00  3.3122125403621751e-05 6.3337552603095657e-04 0.0000000000000000e+00  3.7526677114252444e-05 6.4067527036589715e-04 0.0000000000000000e+00  3.3440256946217123e-05 6.3951375828114553e-04 0.0000000000000000e+00  3.7830444971374799e-05 6.4668904109627470e-04 0.0000000000000000e+00  3.3718424851901907e-05 6.4561257397354691e-04 0.0000000000000000e+00  3.8096306681775525e-05 6.5266134554055506e-04 0.0000000000000000e+00  3.3958134510829479e-05 6.5166782975861477e-04 0.0000000000000000e+00  3.8326108351680396e-05 6.5858862878129547e-04 0.0000000000000000e+00  3.4161351508320457e-05 6.5767541066118923e-04 0.0000000000000000e+00  3.8522068609951970e-05 6.6446755214713939e-04 0.0000000000000000e+00  3.4330534670415260e-05 6.6363142399982768e-04 0.0000000000000000e+00  3.8686738954826977e-05 6.7029515439775175e-04 0.0000000000000000e+00  3.4468604122618592e-05 6.6953242645535565e-04 0.0000000000000000e+00  3.8822903729937336e-05 6.7606901853733004e-04 0.0000000000000000e+00  3.4578816450727047e-05 6.7537567877459792e-04 0.0000000000000000e+00  3.8933435759670374e-05 6.8178736806257531e-04 0.0000000000000000e+00  3.4664583398377559e-05 6.8115927892097657e-04 0.0000000000000000e+00  3.9021053105577381e-05 6.8744923208576133e-04 0.0000000000000000e+00  3.4729093012404845e-05 6.8688253821952406e-04 0.0000000000000000e+00  3.9088038941618670e-05 6.9305437094012131e-04 0.0000000000000000e+00  3.4774849614918617e-05 6.9254591951376160e-04 0.0000000000000000e+00  3.9136298211574276e-05 6.9860238806113844e-04 0.0000000000000000e+00  3.4803921304727013e-05 6.9814929974416180e-04 0.0000000000000000e+00  3.9167511684436974e-05 7.0409241718353774e-04 0.0000000000000000e+00  3.4818329128698821e-05 7.0369176992817167e-04 0.0000000000000000e+00  3.9182971491073729e-05 7.0952318650664172e-04 0.0000000000000000e+00  3.4819870545683087e-05 7.0917243950633171e-04 0.0000000000000000e+00  3.9183335671525990e-05 7.1489217061294864e-04 0.0000000000000000e+00  3.4809344869037927e-05 7.1458940676368465e-04 0.0000000000000000e+00  3.9169553389528724e-05 7.2019477989103701e-04 0.0000000000000000e+00  3.4784844133315254e-05 7.1993626515356231e-04 0.0000000000000000e+00  3.9149599656741472e-05 7.2543357991342321e-04 0.0000000000000000e+00  3.4739471730174604e-05 7.2519896189863098e-04 0.0000000000000000e+00  3.9138450983530119e-05 7.3061580393479330e-04 0.0000000000000000e+00  3.4708520474346707e-05 7.3037699036152546e-04 0.0000000000000000e+00  3.9109374419477167e-05 7.3583585468563065e-04 0.0000000000000000e+00  3.4643128722689348e-05 7.3567851360771422e-04 0.0000000000000000e+00  3.9063897999664316e-05 7.4102167279227634e-04 0.0000000000000000e+00  3.4546543314161155e-05 7.4091270871116325e-04 0.0000000000000000e+00  3.9004013011573977e-05 7.4616756708250178e-04 0.0000000000000000e+00  3.4443889488668765e-05 7.4612477339660427e-04 0.0000000000000000e+00  3.8950701798658519e-05 7.5126228285825021e-04 0.0000000000000000e+00  3.4302100380144773e-05 7.5124438224774320e-04 0.0000000000000000e+00  3.8772730694046923e-05 7.5632169450898386e-04 0.0000000000000000e+00  3.4195457146956073e-05 7.5627372857485628e-04 0.0000000000000000e+00  3.8674419121796855e-05 7.6126226635360613e-04 0.0000000000000000e+00  3.4094738566740720e-05 7.6123175251397660e-04 0.0000000000000000e+00  3.8568621216336842e-05 7.6617328196058074e-04 0.0000000000000000e+00  3.3995354612701436e-05 7.6615473921961890e-04 0.0000000000000000e+00  3.8463263429379968e-05 7.7106422933819038e-04 0.0000000000000000e+00  3.3902870225547488e-05 7.7104017535508328e-04 0.0000000000000000e+00  3.8369204883750839e-05 7.7587984596751993e-04 0.0000000000000000e+00  3.3822531229590125e-05 7.7586196796351769e-04 0.0000000000000000e+00  3.8282950588360682e-05 7.8063662651577201e-04 0.0000000000000000e+00  3.3750366962493914e-05 7.8062519304043809e-04 0.0000000000000000e+00  3.8204642415422591e-05 7.8534268399723653e-04 0.0000000000000000e+00  3.3687067742417352e-05 7.8533531143095575e-04 0.0000000000000000e+00  3.8135282040838370e-05 7.9000222671254039e-04 0.0000000000000000e+00  3.3633533996382684e-05 7.8999632200943881e-04 0.0000000000000000e+00  3.8075227262427183e-05 7.9461928260750737e-04 0.0000000000000000e+00  3.3590446876916001e-05 7.9461371944802254e-04 0.0000000000000000e+00  3.8024729244756392e-05 7.9919836749394639e-04 0.0000000000000000e+00  3.3553722144993342e-05 7.9919288884277065e-04 0.0000000000000000e+00  3.7978600770320991e-05 8.0374849464079953e-04 0.0000000000000000e+00  3.3521886310088493e-05 8.0374226170059314e-04 0.0000000000000000e+00  3.7934802495299650e-05 8.0828260206905857e-04 0.0000000000000000e+00  3.3106191722480554e-05 8.0878704231566014e-04 0.0000000000000000e+00  3.7873232496977530e-05 8.1278812850966629e-04 0.0000000000000000e+00  3.2251415724644840e-05 8.1514251046967059e-04 0.0000000000000000e+00  3.7023251394359297e-05 8.1944665389413853e-04 0.0000000000000000e+00  3.0821811402636624e-05 8.2191639211520902e-04 0.0000000000000000e+00  3.5537827888498670e-05 8.2624057810317634e-04 0.0000000000000000e+00  2.9360624628416004e-05 8.2887796589494530e-04 0.0000000000000000e+00  3.4037154331090076e-05 8.3317415511011974e-04 0.0000000000000000e+00  2.7844101561923656e-05 8.3581299402197455e-04 0.0000000000000000e+00  3.2489344915143335e-05 8.4006209487018238e-04 0.0000000000000000e+00  2.6321484361833290e-05 8.4273621223281863e-04 0.0000000000000000e+00  3.0931101733439502e-05 8.4692808020570280e-04 0.0000000000000000e+00  2.4775830460260281e-05 8.4964566777984423e-04 0.0000000000000000e+00  2.9333403175175173e-05 8.5380886633592743e-04 0.0000000000000000e+00  2.3202100826164470e-05 8.5658212423366962e-04 0.0000000000000000e+00  2.7700801223331458e-05 8.6080213409073540e-04 0.0000000000000000e+00  2.1603263613055131e-05 8.6359422946818531e-04 0.0000000000000000e+00  1.9999743531303011e-05 8.7068002205712965e-04 0.0000000000000000e+00  1.4993544833271020e-05 5.1041057094278674e-04 0.0000000000000000e+00  1.3792546577560623e-05 5.0398865625370071e-04 0.0000000000000000e+00  1.6147694251551619e-05 5.1684351006667391e-04 0.0000000000000000e+00  1.7254558582933303e-05 5.2328564850935902e-04 0.0000000000000000e+00  1.8313848846279256e-05 5.2973504266848705e-04 0.0000000000000000e+00  1.9325425251350269e-05 5.3618966165562803e-04 0.0000000000000000e+00  2.0289291851326450e-05 5.4264741678893230e-04 0.0000000000000000e+00  2.1205584862669005e-05 5.4910618712884654e-04 0.0000000000000000e+00  2.2074555702797155e-05 5.5556383922982845e-04 0.0000000000000000e+00  2.2896549935059997e-05 5.6201823951907543e-04 0.0000000000000000e+00  2.3671983451927273e-05 5.6846725805498625e-04 0.0000000000000000e+00  2.4401317326965610e-05 5.7490876285795156e-04 0.0000000000000000e+00  2.5085032878311199e-05 5.8134060436611104e-04 0.0000000000000000e+00  2.5723608680145624e-05 5.8776058987315086e-04 0.0000000000000000e+00  2.6317501662945155e-05 5.9416644795421401e-04 0.0000000000000000e+00  2.6867134895777134e-05 6.0055578355875847e-04 0.0000000000000000e+00  2.7372894899354966e-05 6.0692602569207687e-04 0.0000000000000000e+00  2.7835141439770913e-05 6.1327437085192461e-04 0.0000000000000000e+00  2.8254232813725883e-05 6.1959772673876720e-04 0.0000000000000000e+00  2.8630569837598906e-05 6.2589266237307486e-04 0.0000000000000000e+00  2.8964661992192169e-05 6.3215537334179674e-04 0.0000000000000000e+00  2.9257218579415504e-05 6.3838167492909843e-04 0.0000000000000000e+00  2.9509264626702734e-05 6.4456704050354970e-04 0.0000000000000000e+00  2.9722273504366152e-05 6.5070670441228059e-04 0.0000000000000000e+00  2.9898294320472176e-05 6.5679584297419203e-04 0.0000000000000000e+00  3.0040036735118518e-05 6.6282983240357367e-04 0.0000000000000000e+00  3.0150865714069385e-05 6.6880457141263309e-04 0.0000000000000000e+00  3.0234646821082147e-05 6.7471687697794568e-04 0.0000000000000000e+00  3.0295528648941341e-05 6.8056464145216768e-04 0.0000000000000000e+00  3.0337324135782455e-05 6.8634766464035970e-04 0.0000000000000000e+00  3.0362725861832712e-05 6.9206762938943335e-04 0.0000000000000000e+00  3.0374056009690234e-05 6.9772456539419104e-04 0.0000000000000000e+00  3.0374105707571403e-05 7.0331703200962842e-04 0.0000000000000000e+00  3.0366012598131008e-05 7.0884411077802741e-04 0.0000000000000000e+00  3.0353544342276368e-05 7.1430497938517325e-04 0.0000000000000000e+00  3.0339311264654004e-05 7.1969678318685893e-04 0.0000000000000000e+00  3.0311824971181823e-05 7.2501265795988778e-04 0.0000000000000000e+00  3.0236016060681427e-05 7.3013961121827042e-04 0.0000000000000000e+00  3.0101902959473291e-05 7.3556713871921874e-04 0.0000000000000000e+00  2.9965699306497704e-05 7.4085473673707368e-04 0.0000000000000000e+00  2.9793864654264462e-05 7.4607762776400977e-04 0.0000000000000000e+00  2.9675729669265923e-05 7.5119461640266616e-04 0.0000000000000000e+00  2.9570079070966307e-05 7.5623212888180640e-04 0.0000000000000000e+00  2.9471802097935362e-05 7.6120884170959263e-04 0.0000000000000000e+00  2.9378888854395796e-05 7.6613957107406260e-04 0.0000000000000000e+00  2.9296783616457586e-05 7.7102350305795675e-04 0.0000000000000000e+00  2.9227617554083998e-05 7.7584877306538156e-04 0.0000000000000000e+00  2.9169467421939639e-05 7.8061623968118422e-04 0.0000000000000000e+00  2.9121918583442893e-05 7.8532851593853524e-04 0.0000000000000000e+00  2.9085529010904113e-05 7.8999113390368586e-04 0.0000000000000000e+00  2.9054628559879943e-05 7.9461000213223315e-04 0.0000000000000000e+00  2.9026217827665434e-05 7.9919400717864291e-04 0.0000000000000000e+00  2.8520817098147001e-05 8.0540402026391599e-04 0.0000000000000000e+00  2.7407584272102285e-05 8.1120475236675846e-04 0.0000000000000000e+00  2.6041607673126462e-05 8.1768830024047247e-04 0.0000000000000000e+00  2.4609680077882519e-05 8.2456265084120920e-04 0.0000000000000000e+00  2.3130405046716820e-05 8.3150145868461937e-04 0.0000000000000000e+00  2.1644769426568274e-05 8.3845417700339716e-04 0.0000000000000000e+00  2.0139875444254390e-05 8.4539665247663814e-04 0.0000000000000000e+00  1.8614805973398147e-05 8.5234237709044423e-04 0.0000000000000000e+00  1.7065432576482416e-05 8.5931514448821971e-04 0.0000000000000000e+00  1.5497633201715180e-05 8.6634307504289204e-04 0.0000000000000000e+00  1.3924703004517258e-05 8.7342814558022093e-04 0.0000000000000000e+00  1.2357472238090938e-05 8.8056882829907850e-04 0.0000000000000000e+00  1.1187472015165077e-05 5.0751029233359925e-04 0.0000000000000000e+00  1.0001800399619721e-05 5.0100422842100747e-04 0.0000000000000000e+00  1.2324882662260189e-05 5.1402879021096310e-04 0.0000000000000000e+00  1.3413628238895011e-05 5.2055772494452178e-04 0.0000000000000000e+00  1.4453477388797715e-05 5.2709496846057322e-04 0.0000000000000000e+00  1.5444372337999178e-05 5.3363830310283321e-04 0.0000000000000000e+00  1.6386421316896984e-05 5.4018546008763096e-04 0.0000000000000000e+00  1.7279883706185040e-05 5.4673415262771407e-04 0.0000000000000000e+00  1.8125149083119364e-05 5.5328210181534608e-04 0.0000000000000000e+00  1.8922711474291160e-05 5.5982705346521581e-04 0.0000000000000000e+00  1.9673140251688267e-05 5.6636678449527745e-04 0.0000000000000000e+00  2.0377049139377993e-05 5.7289909796435937e-04 0.0000000000000000e+00  2.1035064848073286e-05 5.7942180619361512e-04 0.0000000000000000e+00  2.1647797051062983e-05 5.8593270156278622e-04 0.0000000000000000e+00  2.2215812040973421e-05 5.9242951429901961e-04 0.0000000000000000e+00  2.2739613120384870e-05 5.9890985733403439e-04 0.0000000000000000e+00  2.3219631132930903e-05 6.0537116000506676e-04 0.0000000000000000e+00  2.3656228688230078e-05 6.1181059375290368e-04 0.0000000000000000e+00  2.4049721722810929e-05 6.1822499428817546e-04 0.0000000000000000e+00  2.4400422436147024e-05 6.2461078591429312e-04 0.0000000000000000e+00  2.4708708731238151e-05 6.3096391626074350e-04 0.0000000000000000e+00  2.4975126740916336e-05 6.3727981546511951e-04 0.0000000000000000e+00  2.5200532740017590e-05 6.4355340295580018e-04 0.0000000000000000e+00  2.5386275457236343e-05 6.4977917427123770e-04 0.0000000000000000e+00  2.5534403433875672e-05 6.5595140333134098e-04 0.0000000000000000e+00  2.5647847877612918e-05 6.6206447774152285e-04 0.0000000000000000e+00  2.5730490807846255e-05 6.6811336392867020e-04 0.0000000000000000e+00  2.5786978129858566e-05 6.7409424302384408e-04 0.0000000000000000e+00  2.5822477152648689e-05 6.8000463002148052e-04 0.0000000000000000e+00  2.5841577164945799e-05 6.8584519182277167e-04 0.0000000000000000e+00  2.5846869932434278e-05 6.9161980363537773e-04 0.0000000000000000e+00  2.5840855903772498e-05 6.9732812332740199e-04 0.0000000000000000e+00  2.5827706896875913e-05 7.0296718761211322e-04 0.0000000000000000e+00  2.5812691173199898e-05 7.0853515919749215e-04 0.0000000000000000e+00  2.5803796106996505e-05 7.1402849389385974e-04 0.0000000000000000e+00  2.5817782464613566e-05 7.1944449648179011e-04 0.0000000000000000e+00  2.5866131455266661e-05 7.2480248389440814e-04 0.0000000000000000e+00  2.5965445627238065e-05 7.3001906482729744e-04 0.0000000000000000e+00  2.5359617731747633e-05 7.3551917236162954e-04 0.0000000000000000e+00  2.5220178281075699e-05 7.4082126700147671e-04 0.0000000000000000e+00  2.5097330267995071e-05 7.4602824618675624e-04 0.0000000000000000e+00  2.4985319655798893e-05 7.5115210722688020e-04 0.0000000000000000e+00  2.4884141449824958e-05 7.5620383454395033e-04 0.0000000000000000e+00  2.4791239405912545e-05 7.6119325640877503e-04 0.0000000000000000e+00  2.4707965964093320e-05 7.6612964108027334e-04 0.0000000000000000e+00  2.4637575201690750e-05 7.7101331970975896e-04 0.0000000000000000e+00  2.4581030885238164e-05 7.7584092141042644e-04 0.0000000000000000e+00  2.4537163547045954e-05 7.8060996105404758e-04 0.0000000000000000e+00  2.4506353273803489e-05 7.8532398607343329e-04 0.0000000000000000e+00  2.4482257943719919e-05 7.8998826192702102e-04 0.0000000000000000e+00  2.4461854578578172e-05 7.9461323438769057e-04 0.0000000000000000e+00  2.3866544624063758e-05 8.0100565780196939e-04 0.0000000000000000e+00  2.2696617076798728e-05 8.0741092956733949e-04 0.0000000000000000e+00  2.1423277051472013e-05 8.1374891283211924e-04 0.0000000000000000e+00  1.9950510764776909e-05 8.2035239071383563e-04 0.0000000000000000e+00  1.8447417850167147e-05 8.2719693905859346e-04 0.0000000000000000e+00  1.6958052683616190e-05 8.3412966604729964e-04 0.0000000000000000e+00  1.5468438036778089e-05 8.4108333867324424e-04 0.0000000000000000e+00  1.3971619806955604e-05 8.4804468460320740e-04 0.0000000000000000e+00  1.2459562913051626e-05 8.5501669529280510e-04 0.0000000000000000e+00  1.0930541044393346e-05 8.6201500231688978e-04 0.0000000000000000e+00  9.3886479150185666e-06 8.6905523905821038e-04 0.0000000000000000e+00  7.8429355956311153e-06 8.7614061697654979e-04 0.0000000000000000e+00  6.3016837895851910e-06 8.8327114778941952e-04 0.0000000000000000e+00  4.7719768776849770e-06 8.9044443798065261e-04 0.0000000000000000e+00  7.3208057468512416e-06 5.0461973775147860e-04 0.0000000000000000e+00  6.1526281272335611e-06 4.9802793870031643e-04 0.0000000000000000e+00  8.4391799901311403e-06 5.1122540561131919e-04 0.0000000000000000e+