<?xml version="1.0"?>
<VTKFile type="UnstructuredGrid"  version="0.1"  >
<UnstructuredGrid>
<Piece  NumberOfPoints="2444" NumberOfCells="4695">
<Points>
<DataArray  type="Float64"  NumberOfComponents="3"  format="ascii">2.453478260869565 0 0  2.461739130434782 0 0  2.461739130434782 0.008333333333333333 0  2.453478260869565 0.008333333333333333 0  2.47 0 0  2.47 0.008333333333333333 0  2.478260869565217 0 0  2.478260869565217 0.008333333333333333 0  2.486521739130435 0 0  2.486521739130435 0.008333333333333333 0  2.494782608695652 0 0  2.494782608695652 0.008333333333333333 0  2.503043478260869 0 0  2.503043478260869 0.008333333333333333 0  2.511304347826087 0 0  2.511304347826087 0.008333333333333333 0  2.519565217391305 0 0  2.519565217391305 0.008333333333333333 0  2.527826086956522 0 0  2.527826086956522 0.008333333333333333 0  2.536086956521739 0 0  2.536086956521739 0.008333333333333333 0  2.544347826086956 0 0  2.544347826086956 0.008333333333333333 0  2.552608695652174 0 0  2.552608695652174 0.008333333333333333 0  2.560869565217391 0 0  2.560869565217391 0.008333333333333333 0  2.569130434782608 0 0  2.569130434782608 0.008333333333333333 0  2.577391304347826 0 0  2.577391304347826 0.008333333333333333 0  2.585652173913043 0 0  2.585652173913043 0.008333333333333333 0  2.593913043478261 0 0  2.593913043478261 0.008333333333333333 0  2.602173913043478 0 0  2.602173913043478 0.008333333333333333 0  2.610434782608696 0 0  2.610434782608696 0.008333333333333333 0  2.618695652173913 0 0  2.618695652173913 0.008333333333333333 0  2.461739130434782 0.01666666666666667 0  2.47 0.01666666666666667 0  2.478260869565217 0.01666666666666667 0  2.486521739130435 0.01666666666666667 0  2.494782608695652 0.01666666666666667 0  2.503043478260869 0.01666666666666667 0  2.511304347826087 0.01666666666666667 0  2.519565217391305 0.01666666666666667 0  2.527826086956522 0.01666666666666667 0  2.536086956521739 0.01666666666666667 0  2.544347826086956 0.01666666666666667 0  2.552608695652174 0.01666666666666667 0  2.560869565217391 0.01666666666666667 0  2.569130434782608 0.01666666666666667 0  2.577391304347826 0.01666666666666667 0  2.585652173913043 0.01666666666666667 0  2.593913043478261 0.01666666666666667 0  2.602173913043478 0.01666666666666667 0  2.610434782608696 0.01666666666666667 0  2.618695652173913 0.01666666666666667 0  2.47 0.025 0  2.461739130434782 0.025 0  2.478260869565217 0.025 0  2.486521739130435 0.025 0  2.494782608695652 0.025 0  2.503043478260869 0.025 0  2.511304347826087 0.025 0  2.519565217391305 0.025 0  2.527826086956522 0.025 0  2.536086956521739 0.025 0  2.544347826086956 0.025 0  2.552608695652174 0.025 0  2.560869565217391 0.025 0  2.569130434782608 0.025 0  2.577391304347826 0.025 0  2.585652173913043 0.025 0  2.593913043478261 0.025 0  2.602173913043478 0.025 0  2.610434782608696 0.025 0  2.618695652173913 0.025 0  2.62695652173913 0.025 0  2.47 0.03333333333333333 0  2.478260869565217 0.03333333333333333 0  2.486521739130435 0.03333333333333333 0  2.494782608695652 0.03333333333333333 0  2.503043478260869 0.03333333333333333 0  2.511304347826087 0.03333333333333333 0  2.519565217391305 0.03333333333333333 0  2.527826086956522 0.03333333333333333 0  2.536086956521739 0.03333333333333333 0  2.544347826086956 0.03333333333333333 0  2.552608695652174 0.03333333333333333 0  2.560869565217391 0.03333333333333333 0  2.569130434782608 0.03333333333333333 0  2.577391304347826 0.03333333333333333 0  2.585652173913043 0.03333333333333333 0  2.593913043478261 0.03333333333333333 0  2.602173913043478 0.03333333333333333 0  2.610434782608696 0.03333333333333333 0  2.618695652173913 0.03333333333333333 0  2.62695652173913 0.03333333333333333 0  2.635217391304348 0.03333333333333333 0  2.478260869565217 0.04166666666666666 0  2.47 0.04166666666666666 0  2.486521739130435 0.04166666666666666 0  2.494782608695652 0.04166666666666666 0  2.503043478260869 0.04166666666666666 0  2.511304347826087 0.04166666666666666 0  2.519565217391305 0.04166666666666666 0  2.527826086956522 0.04166666666666666 0  2.536086956521739 0.04166666666666666 0  2.544347826086956 0.04166666666666666 0  2.552608695652174 0.04166666666666666 0  2.560869565217391 0.04166666666666666 0  2.569130434782608 0.04166666666666666 0  2.577391304347826 0.04166666666666666 0  2.585652173913043 0.04166666666666666 0  2.593913043478261 0.04166666666666666 0  2.602173913043478 0.04166666666666666 0  2.610434782608696 0.04166666666666666 0  2.618695652173913 0.04166666666666666 0  2.62695652173913 0.04166666666666666 0  2.635217391304348 0.04166666666666666 0  2.643478260869565 0.04166666666666666 0  2.478260869565217 0.05 0  2.47 0.05 0  2.486521739130435 0.05 0  2.494782608695652 0.05 0  2.503043478260869 0.05 0  2.511304347826087 0.05 0  2.519565217391305 0.05 0  2.527826086956522 0.05 0  2.536086956521739 0.05 0  2.544347826086956 0.05 0  2.552608695652174 0.05 0  2.560869565217391 0.05 0  2.569130434782608 0.05 0  2.577391304347826 0.05 0  2.585652173913043 0.05 0  2.593913043478261 0.05 0  2.602173913043478 0.05 0  2.610434782608696 0.05 0  2.618695652173913 0.05 0  2.62695652173913 0.05 0  2.635217391304348 0.05 0  2.643478260869565 0.05 0  2.651739130434783 0.05 0  2.478260869565217 0.05833333333333333 0  2.486521739130435 0.05833333333333333 0  2.494782608695652 0.05833333333333333 0  2.503043478260869 0.05833333333333333 0  2.511304347826087 0.05833333333333333 0  2.519565217391305 0.05833333333333333 0  2.527826086956522 0.05833333333333333 0  2.536086956521739 0.05833333333333333 0  2.544347826086956 0.05833333333333333 0  2.552608695652174 0.05833333333333333 0  2.560869565217391 0.05833333333333333 0  2.569130434782608 0.05833333333333333 0  2.577391304347826 0.05833333333333333 0  2.585652173913043 0.05833333333333333 0  2.593913043478261 0.05833333333333333 0  2.602173913043478 0.05833333333333333 0  2.610434782608696 0.05833333333333333 0  2.618695652173913 0.05833333333333333 0  2.62695652173913 0.05833333333333333 0  2.635217391304348 0.05833333333333333 0  2.643478260869565 0.05833333333333333 0  2.651739130434783 0.05833333333333333 0  2.66 0.05833333333333333 0  2.486521739130435 0.06666666666666667 0  2.478260869565217 0.06666666666666667 0  2.494782608695652 0.06666666666666667 0  2.503043478260869 0.06666666666666667 0  2.511304347826087 0.06666666666666667 0  2.519565217391305 0.06666666666666667 0  2.527826086956522 0.06666666666666667 0  2.536086956521739 0.06666666666666667 0  2.544347826086956 0.06666666666666667 0  2.552608695652174 0.06666666666666667 0  2.560869565217391 0.06666666666666667 0  2.569130434782608 0.06666666666666667 0  2.577391304347826 0.06666666666666667 0  2.585652173913043 0.06666666666666667 0  2.593913043478261 0.06666666666666667 0  2.602173913043478 0.06666666666666667 0  2.610434782608696 0.06666666666666667 0  2.618695652173913 0.06666666666666667 0  2.62695652173913 0.06666666666666667 0  2.635217391304348 0.06666666666666667 0  2.643478260869565 0.06666666666666667 0  2.651739130434783 0.06666666666666667 0  2.66 0.06666666666666667 0  2.668260869565217 0.06666666666666667 0  2.486521739130435 0.075 0  2.478260869565217 0.075 0  2.494782608695652 0.075 0  2.503043478260869 0.075 0  2.511304347826087 0.075 0  2.519565217391305 0.075 0  2.527826086956522 0.075 0  2.536086956521739 0.075 0  2.544347826086956 0.075 0  2.552608695652174 0.075 0  2.560869565217391 0.075 0  2.569130434782608 0.075 0  2.577391304347826 0.075 0  2.585652173913043 0.075 0  2.593913043478261 0.075 0  2.602173913043478 0.075 0  2.610434782608696 0.075 0  2.618695652173913 0.075 0  2.62695652173913 0.075 0  2.635217391304348 0.075 0  2.643478260869565 0.075 0  2.651739130434783 0.075 0  2.66 0.075 0  2.668260869565217 0.075 0  2.676521739130435 0.075 0  2.486521739130435 0.08333333333333333 0  2.478260869565217 0.08333333333333333 0  2.494782608695652 0.08333333333333333 0  2.503043478260869 0.08333333333333333 0  2.511304347826087 0.08333333333333333 0  2.519565217391305 0.08333333333333333 0  2.527826086956522 0.08333333333333333 0  2.536086956521739 0.08333333333333333 0  2.544347826086956 0.08333333333333333 0  2.552608695652174 0.08333333333333333 0  2.560869565217391 0.08333333333333333 0  2.569130434782608 0.08333333333333333 0  2.577391304347826 0.08333333333333333 0  2.585652173913043 0.08333333333333333 0  2.593913043478261 0.08333333333333333 0  2.602173913043478 0.08333333333333333 0  2.610434782608696 0.08333333333333333 0  2.618695652173913 0.08333333333333333 0  2.62695652173913 0.08333333333333333 0  2.635217391304348 0.08333333333333333 0  2.643478260869565 0.08333333333333333 0  2.651739130434783 0.08333333333333333 0  2.66 0.08333333333333333 0  2.668260869565217 0.08333333333333333 0  2.676521739130435 0.08333333333333333 0  2.684782608695652 0.08333333333333333 0  2.486521739130435 0.09166666666666666 0  2.478260869565217 0.09166666666666666 0  2.494782608695652 0.09166666666666666 0  2.503043478260869 0.09166666666666666 0  2.511304347826087 0.09166666666666666 0  2.519565217391305 0.09166666666666666 0  2.527826086956522 0.09166666666666666 0  2.536086956521739 0.09166666666666666 0  2.544347826086956 0.09166666666666666 0  2.552608695652174 0.09166666666666666 0  2.560869565217391 0.09166666666666666 0  2.569130434782608 0.09166666666666666 0  2.577391304347826 0.09166666666666666 0  2.585652173913043 0.09166666666666666 0  2.593913043478261 0.09166666666666666 0  2.602173913043478 0.09166666666666666 0  2.610434782608696 0.09166666666666666 0  2.618695652173913 0.09166666666666666 0  2.62695652173913 0.09166666666666666 0  2.635217391304348 0.09166666666666666 0  2.643478260869565 0.09166666666666666 0  2.651739130434783 0.09166666666666666 0  2.66 0.09166666666666666 0  2.668260869565217 0.09166666666666666 0  2.676521739130435 0.09166666666666666 0  2.684782608695652 0.09166666666666666 0  2.693043478260869 0.09166666666666666 0  2.486521739130435 0.1 0  2.478260869565217 0.1 0  2.49478
[...]
<PointData  Vectors="Displacement"> 
<DataArray  type="Float64"  Name="Displacement"  NumberOfComponents="3" format="ascii">3.4920788443506428e-04 3.4388619089730935e-03 0.0000000000000000e+00  3.5000621668183478e-04 3.4592100475831014e-03 0.0000000000000000e+00  3.2952151749394433e-04 3.4587977070319716e-03 0.0000000000000000e+00  3.2865979018444666e-04 3.4384476985303519e-03 0.0000000000000000e+00  3.5079797610169342e-04 3.4794959992621782e-03 0.0000000000000000e+00  3.3038060880842817e-04 3.4790854213715946e-03 0.0000000000000000e+00  3.5158224377106840e-04 3.4997141961790241e-03 0.0000000000000000e+00  3.3123871781052074e-04 3.4993054157378867e-03 0.0000000000000000e+00  3.5235826387880546e-04 3.5198565025404780e-03 0.0000000000000000e+00  3.3209698235739534e-04 3.5194496051520114e-03 0.0000000000000000e+00  3.5312554680776853e-04 3.5399133020377338e-03 0.0000000000000000e+00  3.3295601518439771e-04 3.5395083847639085e-03 0.0000000000000000e+00  3.5388383868489024e-04 3.5598743351366218e-03 0.0000000000000000e+00  3.3381601587320072e-04 3.5594715266503178e-03 0.0000000000000000e+00  3.5463307236661582e-04 3.5797292147700189e-03 0.0000000000000000e+00  3.3467683104806219e-04 3.5793286980008898e-03 0.0000000000000000e+00  3.5537336584977872e-04 3.5994679147751930e-03 0.0000000000000000e+00  3.3553793536998319e-04 3.5990699078398912e-03 0.0000000000000000e+00  3.5610505033431702e-04 3.6190814194842396e-03 0.0000000000000000e+00  3.3639843751668061e-04 3.6186861051413287e-03 0.0000000000000000e+00  3.5682865112019954e-04 3.6385624283022688e-03 0.0000000000000000e+00  3.3725722372322944e-04 3.6381698771690836e-03 0.0000000000000000e+00  3.5754477578350282e-04 3.6579057178071314e-03 0.0000000000000000e+00  3.3811325382375517e-04 3.6575158550278234e-03 0.0000000000000000e+00  3.5825394101506633e-04 3.6771078781495333e-03 0.0000000000000000e+00  3.3896587933762170e-04 3.6767205053354433e-03 0.0000000000000000e+00  3.5895641296211666e-04 3.6961664469098939e-03 0.0000000000000000e+00  3.3981505184517674e-04 3.6957813046444672e-03 0.0000000000000000e+00  3.5965212016887151e-04 3.7150787338371197e-03 0.0000000000000000e+00  3.4066133872764183e-04 3.7146955867404545e-03 0.0000000000000000e+00  3.6034067085261511e-04 3.7338406992698165e-03 0.0000000000000000e+00  3.4150574209728036e-04 3.7334594182751382e-03 0.0000000000000000e+00  3.6102147065320613e-04 3.7524462424577596e-03 0.0000000000000000e+00  3.4234936825761460e-04 3.7520668656053900e-03 0.0000000000000000e+00  3.6169392576687300e-04 3.7708871492465766e-03 0.0000000000000000e+00  3.4319303139283076e-04 3.7705098800283779e-03 0.0000000000000000e+00  3.6235767795625933e-04 3.7891538536762330e-03 0.0000000000000000e+00  3.4403692464272798e-04 3.7887789724243854e-03 0.0000000000000000e+00  3.6301275727808547e-04 3.8072368061227348e-03 0.0000000000000000e+00  3.4488054430264586e-04 3.8068645459431367e-03 0.0000000000000000e+00  3.6365955639486070e-04 3.8251278241543726e-03 0.0000000000000000e+00  3.4572291582509715e-04 3.8247582950538734e-03 0.0000000000000000e+00  3.0904315962678038e-04 3.4583567117723738e-03 0.0000000000000000e+00  3.0996411852138008e-04 3.4786436396787982e-03 0.0000000000000000e+00  3.1089144742876173e-04 3.4988618162129482e-03 0.0000000000000000e+00  3.1182874912911009e-04 3.5190036384532340e-03 0.0000000000000000e+00  3.1277762418666533e-04 3.5390598286347249e-03 0.0000000000000000e+00  3.1373846001402799e-04 3.5590203781320781e-03 0.0000000000000000e+00  3.1471102140736412e-04 3.5788752137422041e-03 0.0000000000000000e+00  3.1569428813393516e-04 3.5986146613270105e-03 0.0000000000000000e+00  3.1668609845325119e-04 3.6182299574129780e-03 0.0000000000000000e+00  3.1768311736309475e-04 3.6377137565407991e-03 0.0000000000000000e+00  3.1868169575490803e-04 3.6570604605854580e-03 0.0000000000000000e+00  3.1967910886068957e-04 3.6762660689577962e-03 0.0000000000000000e+00  3.2067452831409924e-04 3.6953275160448236e-03 0.0000000000000000e+00  3.2166926029112195e-04 3.7142416831437578e-03 0.0000000000000000e+00  3.2266634778146627e-04 3.7330044332505533e-03 0.0000000000000000e+00  3.2366959789857148e-04 3.7516099456327912e-03 0.0000000000000000e+00  3.2468239221403997e-04 3.7700506244264763e-03 0.0000000000000000e+00  3.2570632426524572e-04 3.7883176118035876e-03 0.0000000000000000e+00  3.2674038087474164e-04 3.8064018233168640e-03 0.0000000000000000e+00  3.2778136977523297e-04 3.8242951219375314e-03 0.0000000000000000e+00  3.0028292666967640e-04 3.4742776287325504e-03 0.0000000000000000e+00  3.0015867596079891e-04 3.4535845241963330e-03 0.0000000000000000e+00  3.0075104553233911e-04 3.4946924104167529e-03 0.0000000000000000e+00  3.0150904828130239e-04 3.5149044165438460e-03 0.0000000000000000e+00  3.0244744667044408e-04 3.5349806359719627e-03 0.0000000000000000e+00  3.0346544592526139e-04 3.5549559446531559e-03 0.0000000000000000e+00  3.0448206577346037e-04 3.5748468624422097e-03 0.0000000000000000e+00  3.0542346981604488e-04 3.5946711714462051e-03 0.0000000000000000e+00  3.0621842845895584e-04 3.6144515411391429e-03 0.0000000000000000e+00  3.0681319332504214e-04 3.6342004706095229e-03 0.0000000000000000e+00  3.0719694926674109e-04 3.6539024455908339e-03 0.0000000000000000e+00  3.0742322992021500e-04 3.6735087652076275e-03 0.0000000000000000e+00  3.0761112385751567e-04 3.6929519929799143e-03 0.0000000000000000e+00  3.0791359405140365e-04 3.7121709463988554e-03 0.0000000000000000e+00  3.0845520173563711e-04 3.7311319792966667e-03 0.0000000000000000e+00  3.0927724913183631e-04 3.7498326605923684e-03 0.0000000000000000e+00  3.1032436660150084e-04 3.7682955421248811e-03 0.0000000000000000e+00  3.1146930833007218e-04 3.7865628105026960e-03 0.0000000000000000e+00  3.1256753769377501e-04 3.8046811872517361e-03 0.0000000000000000e+00  3.1352082691822022e-04 3.8226740147420278e-03 0.0000000000000000e+00  3.1431039964083897e-04 3.8405286981279792e-03 0.0000000000000000e+00  3.0251874376185516e-04 3.4651343538827650e-03 0.0000000000000000e+00  3.0320372675195055e-04 3.4856048632836249e-03 0.0000000000000000e+00  3.0400432893646116e-04 3.5059049216808239e-03 0.0000000000000000e+00  3.0488737326766769e-04 3.5261035796754049e-03 0.0000000000000000e+00  3.0581011484541681e-04 3.5462339937385031e-03 0.0000000000000000e+00  3.0672852508906862e-04 3.5663098064087008e-03 0.0000000000000000e+00  3.0760234282017099e-04 3.5863420558585818e-03 0.0000000000000000e+00  3.0840094915979662e-04 3.6063398903109834e-03 0.0000000000000000e+00  3.0911072030586782e-04 3.6262974276990495e-03 0.0000000000000000e+00  3.0974081677082954e-04 3.6461812082233206e-03 0.0000000000000000e+00  3.1032391727998129e-04 3.6659305145221115e-03 0.0000000000000000e+00  3.1090982539057989e-04 3.6854749460953642e-03 0.0000000000000000e+00  3.1155221438180109e-04 3.7047614653320702e-03 0.0000000000000000e+00  3.1229151531560049e-04 3.7237757836768685e-03 0.0000000000000000e+00  3.1314039020251608e-04 3.7425422305826838e-03 0.0000000000000000e+00  3.1407882908017937e-04 3.7611071384679611e-03 0.0000000000000000e+00  3.1506275085965431e-04 3.7795204551686916e-03 0.0000000000000000e+00  3.1604345052445743e-04 3.7978156156830366e-03 0.0000000000000000e+00  3.1698809500937519e-04 3.8159914350090005e-03 0.0000000000000000e+00  3.1789049719505805e-04 3.8340129786849464e-03 0.0000000000000000e+00  3.1876957864017928e-04 3.8518299387643642e-03 0.0000000000000000e+00  3.0487205879682486e-04 3.4764336057811944e-03 0.0000000000000000e+00  3.0397532891890817e-04 3.4558143577849993e-03 0.0000000000000000e+00  3.0579511323584820e-04 3.4968940785034788e-03 0.0000000000000000e+00  3.0673526426711409e-04 3.5172566929655277e-03 0.0000000000000000e+00  3.0768002143551890e-04 3.5375564300821698e-03 0.0000000000000000e+00  3.0861322055974490e-04 3.5578088782643258e-03 0.0000000000000000e+00  3.0951914993000858e-04 3.5780206493711106e-03 0.0000000000000000e+00  3.1038846932899096e-04 3.5981905332353238e-03 0.0000000000000000e+00  3.1122240917434230e-04 3.6183022199038580e-03 0.0000000000000000e+00  3.1203294802843306e-04 3.6383180647572826e-03 0.0000000000000000e+00  3.1283895392957662e-04 3.6581823116121283e-03 0.0000000000000000e+00  3.1366009039345021e-04 3.6778361282417443e-03 0.0000000000000000e+00  3.1451116025486977e-04 3.6972384410327635e-03 0.0000000000000000e+00  3.1539891246445810e-04 3.7163813509593028e-03 0.0000000000000000e+00  3.1632170954309051e-04 3.7352896313333096e-03 0.0000000000000000e+00  3.1727106481014910e-04 3.7540062437087752e-03 0.0000000000000000e+00  3.1823516690709556e-04 3.7725735603506357e-03 0.0000000000000000e+00  3.1920432798134506e-04 3.7910151920173057e-03 0.0000000000000000e+00  3.2017528788240998e-04 3.8093240643093779e-03 0.0000000000000000e+00  3.2115175671743290e-04 3.8274656136275589e-03 0.0000000000000000e+00  3.2214241863440262e-04 3.8453936858021671e-03 0.0000000000000000e+00  3.2315844328247251e-04 3.8630689161305637e-03 0.0000000000000000e+00  3.0593007647252394e-04 3.4671683815870463e-03 0.0000000000000000e+00  3.0484614829532042e-04 3.4463685847703615e-03 0.0000000000000000e+00  3.0699993919190027e-04 3.4878203519877696e-03 0.0000000000000000e+00  3.0805182719317994e-04 3.5083713182139406e-03 0.0000000000000000e+00  3.0908486032732815e-04 3.5288528074548572e-03 0.0000000000000000e+00  3.1009771316558644e-04 3.5492806759266043e-03 0.0000000000000000e+00  3.1108921593258845e-04 3.5696593070716261e-03 0.0000000000000000e+00  3.1206125416922319e-04 3.5899823783151260e-03 0.0000000000000000e+00  3.1302061016737735e-04 3.6102298234854495e-03 0.0000000000000000e+00  3.1397779112417399e-04 3.6303661019314155e-03 0.0000000000000000e+00  3.1494331155106705e-04 3.6503446417552304e-03 0.0000000000000000e+00  3.1592357682281924e-04 3.6701194455958891e-03 0.0000000000000000e+00  3.1691880419454236e-04 3.6896595792148129e-03 0.0000000000000000e+00  3.1792416009010949e-04 3.7089591499793969e-03 0.0000000000000000e+00  3.1893322535519477e-04 3.7280365140611332e-03 0.0000000000000000e+00  3.1994151218127571e-04 3.7469235897993544e-03 0.0000000000000000e+00  3.2094864913736961e-04 3.7656510644938270e-03 0.0000000000000000e+00  3.2195902476286762e-04 3.7842343805299127e-03 0.0000000000000000e+00  3.2298048793832251e-04 3.8026657196208380e-03 0.0000000000000000e+00  3.2402143968190489e-04 3.8209168188971378e-03 0.0000000000000000e+00  3.2508827098573289e-04 3.8389504709581295e-03 0.0000000000000000e+00  3.2618465139803402e-04 3.8567338476259961e-03 0.0000000000000000e+00  3.2731256621707834e-04 3.8742469569334140e-03 0.0000000000000000e+00  3.0647884119590813e-04 3.4578144602175273e-03 0.0000000000000000e+00  3.0769855075062313e-04 3.4786671886591031e-03 0.0000000000000000e+00  3.0888395522688975e-04 3.4994164845373265e-03 0.0000000000000000e+00  3.1003744138925120e-04 3.5200871475550267e-03 0.0000000000000000e+00  3.1116361438015151e-04 3.5406926826135679e-03 0.0000000000000000e+00  3.1226808493580002e-04 3.5612357805708959e-03 0.0000000000000000e+00  3.1335786641575896e-04 3.5817083150994533e-03 0.0000000000000000e+00  3.1444147869093324e-04 3.6020904324722833e-03 0.0000000000000000e+00  3.1552748421586664e-04 3.6223511875557936e-03 0.0000000000000000e+00  3.1662180880868876e-04 3.6424531134201044e-03 0.0000000000000000e+00  3.1772540087543743e-04 3.6623608283909603e-03 0.0000000000000000e+00  3.1883388233811503e-04 3.6820507252168112e-03 0.0000000000000000e+00  3.1993977849499795e-04 3.7015171247788089e-03 0.0000000000000000e+00  3.2103633298271098e-04 3.7207713341198471e-03 0.0000000000000000e+00  3.2212092958978971e-04 3.7398341419928329e-03 0.0000000000000000e+00  3.2319666501972287e-04 3.7587252589012044e-03 0.0000000000000000e+00  3.2427168652827699e-04 3.7774534259073667e-03 0.0000000000000000e+00  3.2535656627089021e-04 3.7960110753789988e-03 0.0000000000000000e+00  3.2646082196805296e-04 3.8143762856980303e-03 0.0000000000000000e+00  3.2759038314898373e-04 3.8325204822574044e-03 0.0000000000000000e+00  3.2874713647507267e-04 3.8504175122377961e-03 0.0000000000000000e+00  3.2993032126727974e-04 3.8680498113122025e-03 0.0000000000000000e+00  3.3113853121107223e-04 3.8854097756582315e-03 0.0000000000000000e+00  3.0793948240204428e-04 3.4694318472145449e-03 0.0000000000000000e+00  3.0657351416095235e-04 3.4483778450375546e-03 0.0000000000000000e+00  3.0926431339541651e-04 3.4903816451881931e-03 0.0000000000000000e+00  3.1055077318839210e-04 3.5112448021689391e-03 0.0000000000000000e+00  3.1180489864379067e-04 3.5320310970480343e-03 0.0000000000000000e+00  3.1303439092468885e-04 3.5527414298907778e-03 0.0000000000000000e+00  3.1424776694167084e-04 3.5733673129987047e-03 0.0000000000000000e+00  3.1545349521476442e-04 3.5938908046516654e-03 0.0000000000000000e+00  3.1665852559928208e-04 3.6142860191611149e-03 0.0000000000000000e+00  3.1786648652931205e-04 3.6345231853707454e-03 0.0000000000000000e+00  3.1907651264247372e-04 3.6545748916954283e-03 0.0000000000000000e+00  3.2028366248679267e-04 3.6744224781391516e-03 0.0000000000000000e+00  3.2148113734411897e-04 3.6940597552003731e-03 0.0000000000000000e+00  3.2266347195873571e-04 3.7134920832090908e-03 0.0000000000000000e+00  3.2382925631784594e-04 3.7327312183176469e-03 0.0000000000000000e+00  3.2498225722595828e-04 3.7517881154444286e-03 0.0000000000000000e+00  3.2613057943044232e-04 3.7706662840978609e-03 0.0000000000000000e+00  3.2728421980830530e-04 3.7893583104491521e-03 0.0000000000000000e+00  3.2845207268474079e-04 3.8078471046297819e-03 0.0000000000000000e+00  3.2963977843965633e-04 3.8261108561948570e-03 0.0000000000000000e+00  3.3084925215700126e-04 3.8441289980127051e-03 0.0000000000000000e+00  3.3207974778505950e-04 3.8618865150785082e-03 0.0000000000000000e+00  3.3332957230310789e-04 3.8793753280957888e-03 0.0000000000000000e+00  3.3459746414023434e-04 3.8965931707112917e-03 0.0000000000000000e+00  3.0775058922397319e-04 3.4601162779997001e-03 0.0000000000000000e+00  3.0624363785717375e-04 3.4388629878316906e-03 0.0000000000000000e+00  3.0921378272668151e-04 3.4812657564591456e-03 0.0000000000000000e+00  3.1063557221886796e-04 3.5023226047662401e-03 0.0000000000000000e+00  3.1202159125381929e-04 3.5232926901973610e-03 0.0000000000000000e+00  3.1337932913602998e-04 3.5441750709184366e-03 0.0000000000000000e+00  3.1471691709957227e-04 3.5649613281245607e-03 0.0000000000000000e+00  3.1604192723261667e-04 3.5856357692758667e-03 0.0000000000000000e+00  3.1736003624966271e-04 3.6061770290435383e-03 0.0000000000000000e+00  3.1867380888892476e-04 3.6265613541362966e-03 0.0000000000000000e+00  3.1998217469170496e-04 3.6467670524191679e-03 0.0000000000000000e+00  3.2128109805683959e-04 3.6667786953716746e-03 0.0000000000000000e+00  3.2256544298924682e-04 3.6865893588075346e-03 0.0000000000000000e+00  3.2383139504342241e-04 3.7061998346992514e-03 0.0000000000000000e+00  3.2507845349141583e-04 3.7256151463436449e-03 0.0000000000000000e+00  3.2631020653698365e-04 3.7448397696507978e-03 0.0000000000000000e+00  3.2753362592444164e-04 3.7638732981085266e-03 0.0000000000000000e+00  3.2875717890147740e-04 3.7827082252020906e-03 0.0000000000000000e+00  3.2998856217918133e-04 3.8013307224825680e-03 0.0000000000000000e+00  3.3123303925500127e-04 3.8197237663631727e-03 0.0000000000000000e+00  3.3249297616052452e-04 3.8378709775981823e-03 0.0000000000000000e+00  3.3376851805855002e-04 3.8557595457579057e-03 0.0000000000000000e+00  3.3505884373774818e-04 3.8733814073258648e-03 0.0000000000000000e+00  3.3636332983502675e-04 3.8907328290174689e-03 0.0000000000000000e+00  3.3768222859898329e-04 3.9078131728982725e-03 0.0000000000000000e+00  3.0714727928251467e-04 3.4507238519091957e-03 0.0000000000000000e+00  3.0550489694869127e-04 3.4292732491507587e-03 0.0000000000000000e+00  3.0874488617648252e-04 3.4720716950817979e-03 0.0000000000000000e+00  3.1029953512852563e-04 3.4933228139924833e-03 0.0000000000000000e+00  3.1181588272440026e-04 3.5144795939820437e-03 0.0000000000000000e+00  3.1330031629109588e-04 3.5355393775941264e-03 0.0000000000000000e+00  3.1475979628325143e-04 3.5564938422810296e-03 0.0000000000000000e+00  3.1620068571793576e-04 3.5773292573128908e-03 0.0000000000000000e+00  3.1762762825652017e-04 3.5980278621336979e-03 0.0000000000000000e+00  3.1904271145309876e-04 3.6185703643014026e-03 0.0000000000000000e+00  3.2044526279764480e-04 3.6389390541965911e-03 0.0000000000000000e+00  3.2183251780586278e-04 3.6591205662263827e-03 0.0000000000000000e+00  3.2320106807352713e-04 3.6791072395215749e-03 0.0000000000000000e+00  3.2454861584296156e-04 3.6988965040600052e-03 0.0000000000000000e+00  3.2587537452220166e-04 3.7184885593831412e-03 0.0000000000000000e+00  3.2718459410633276e-04 3.7378832578927657e-03 0.0000000000000000e+00  3.2848204020007483e-04 3.7570773303419657e-03 0.0000000000000000e+00  3.2977465123606168e-04 3.7760629981190511e-03 0.0000000000000000e+00  3.3106893464946195e-04 3.7948284630535448e-03 0.0000000000000000e+00  3.3236975854131841e-04 3.8133598671728731e-03 0.0000000000000000e+00  3.3367994621897462e-04 3.8316437389969669e-03 0.0000000000000000e+00  3.3500066709368461e-04 3.8496689413821269e-03 0.0000000000000000e+00  3.3633228727593644e-04 3.8674275861949312e-03 0.0000000000000000e+00  3.3767525194156565e-04 3.8849149441607827e-03 0.0000000000000000e+00  3.3903071141744480e-04 3.9021287416465345e-03 0.0000000000000000e+00  3.4040083808299084e-04 3.9190682403491845e-03 0.0000000000000000e+00  3.0613771309593923e-04 3.4412582891261401e-03 0.0000000000000000e+00  3.0436539032363134e-04 3.4196115058860747e-03 0.0000000000000000e+00  3.0786468042627991e-04 3.4628037225385693e-03 0.0000000000000000e+00  3.0954762490993627e-04 3.4842498720757372e-03 0.0000000000000000e+00  3.1119016655923535e-04 3.5055962641654019e-03 0.0000000000000000e+00  3.1279739697985174e-04 3.5268387547457750e-03 0.0000000000000000e+00  3.1437492435901204e-04 3.5479690285690575e-03 0.0000000000000000e+00  3.1592788835010325e-04 3.5689748372978239e-03 0.0000000000000000e+00  3.1746007570516315e-04 3.5898410799656433e-03 0.0000000000000000e+00  3.1897333861589738e-04 3.6105516241862483e-03 0.0000000000000000e+00  3.2046753257230424e-04 3.6310914527098192e-03 0.0000000000000000e+00  3.2194107939352432e-04 3.6514484767940477e-03 0.0000000000000000e+00  3.2339203878749002e-04 3.6716143743522763e-03 0.0000000000000000e+00  3.2481934524372207e-04 3.6915841451807662e-03 0.0000000000000000e+00  3.2622377209570795e-04 3.7113545893730010e-03 0.0000000000000000e+00  3.2760828581372410e-04 3.7309223051136078e-03 0.0000000000000000e+00  3.2897768624836135e-04 3.7502819402967847e-03 0.0000000000000000e+00  3.3033769404081093e-04 3.7694253408598350e-03 0.0000000000000000e+00  3.3169386010082822e-04 3.7883418688425194e-03 0.0000000000000000e+00  3.3305072364698857e-04 3.8070196339617863e-03 0.0000000000000000e+00  3.3441148967371608e-04 3.8254470484186645e-03 0.0000000000000000e+00  3.3577824113562623e-04 3.8436141107573269e-03 0.0000000000000000e+00  3.3715249151424414e-04 3.8615130780448180e-03 0.0000000000000000e+00  3.3853581230976280e-04 3.8791385055557339e-03 0.0000000000000000e+00  3.3993033603150612e-04 3.8964868439986160e-03 0.0000000000000000e+00  3.4133906248547824e-04 3.9135558056813072e-03 0.0000000000000000e+00  3.4276598928867190e-04 3.9303436171015333e-03 0.0000000000000000e+00  3.0472580156681921e-04 3.4317233231805151e-03 0.0000000000000000e+00  3.0282891359161267e-04 3.4098805062009341e-03 0.0000000000000000e+00  3.0657673396454650e-04 3.4534664106939529e-03 0.0000000000000000e+00  3.0838263668713422e-04 3.4751088388387582e-03 0.0000000000000000e+00  3.1014621082795738e-04 3.4966478802137030e-03 0.0000000000000000e+00  3.1187134902261763e-04 3.5180781527466803e-03 0.0000000000000000e+00  3.1356240265479918e-04 3.5393912475359928e-03 0.0000000000000000e+00  3.1522341599817758e-04 3.5605759276021360e-03 0.0000000000000000e+00  3.1685746175864643e-04 3.5816189328670457e-03 0.0000000000000000e+00  3.1846623738179602e-04 3.6025062708536408e-03 0.0000000000000000e+