<?xml version="1.0"?>
<VTKFile type="UnstructuredGrid"  version="0.1"  >
<UnstructuredGrid>
<Piece  NumberOfPoints="7161" NumberOfCells="13800">
<Points>
<DataArray  type="Float64"  NumberOfComponents="3"  format="ascii">0 0 0  0.01652173913043478 0 0  0.03304347826086956 0 0  0.04956521739130434 0 0  0.06608695652173913 0 0  0.08260869565217391 0 0  0.09913043478260869 0 0  0.1156521739130435 0 0  0.1321739130434783 0 0  0.148695652173913 0 0  0.1652173913043478 0 0  0.1817391304347826 0 0  0.1982608695652174 0 0  0.2147826086956522 0 0  0.2313043478260869 0 0  0.2478260869565218 0 0  0.2643478260869565 0 0  0.2808695652173913 0 0  0.2973913043478261 0 0  0.3139130434782609 0 0  0.3304347826086956 0 0  0.3469565217391304 0 0  0.3634782608695652 0 0  0.3799999999999999 0 0  0.3965217391304348 0 0  0.4130434782608696 0 0  0.4295652173913043 0 0  0.4460869565217391 0 0  0.4626086956521739 0 0  0.4791304347826086 0 0  0.4956521739130435 0 0  0.5121739130434783 0 0  0.528695652173913 0 0  0.5452173913043478 0 0  0.5617391304347825 0 0  0.5782608695652174 0 0  0.5947826086956521 0 0  0.6113043478260869 0 0  0.6278260869565218 0 0  0.6443478260869565 0 0  0.6608695652173913 0 0  0.677391304347826 0 0  0.6939130434782609 0 0  0.7104347826086956 0 0  0.7269565217391304 0 0  0.7434782608695653 0 0  0.7599999999999999 0 0  0.7765217391304348 0 0  0.7930434782608695 0 0  0.8095652173913043 0 0  0.8260869565217391 0 0  0.8426086956521739 0 0  0.8591304347826086 0 0  0.8756521739130434 0 0  0.8921739130434783 0 0  0.908695652173913 0 0  0.9252173913043478 0 0  0.9417391304347826 0 0  0.9582608695652173 0 0  0.9747826086956521 0 0  0.991304347826087 0 0  1.007826086956522 0 0  1.024347826086957 0 0  1.040869565217391 0 0  1.057391304347826 0 0  1.073913043478261 0 0  1.090434782608696 0 0  1.10695652173913 0 0  1.123478260869565 0 0  1.14 0 0  1.156521739130435 0 0  1.17304347826087 0 0  1.189565217391304 0 0  1.206086956521739 0 0  1.222608695652174 0 0  1.239130434782609 0 0  1.255652173913044 0 0  1.272173913043478 0 0  1.288695652173913 0 0  1.305217391304348 0 0  1.321739130434783 0 0  1.338260869565217 0 0  1.354782608695652 0 0  1.371304347826087 0 0  1.387826086956522 0 0  1.404347826086957 0 0  1.420869565217391 0 0  1.437391304347826 0 0  1.453913043478261 0 0  1.470434782608696 0 0  1.486956521739131 0 0  1.503478260869565 0 0  1.52 0 0  1.536521739130435 0 0  1.55304347826087 0 0  1.569565217391304 0 0  1.586086956521739 0 0  1.602608695652174 0 0  1.619130434782609 0 0  1.635652173913043 0 0  1.652173913043478 0 0  1.668695652173913 0 0  1.685217391304348 0 0  1.701739130434782 0 0  1.718260869565217 0 0  1.734782608695652 0 0  1.751304347826087 0 0  1.767826086956522 0 0  1.784347826086957 0 0  1.800869565217391 0 0  1.817391304347826 0 0  1.833913043478261 0 0  1.850434782608696 0 0  1.86695652173913 0 0  1.883478260869565 0 0  1.9 0 0  1.916521739130435 0 0  1.933043478260869 0 0  1.949565217391304 0 0  1.966086956521739 0 0  1.982608695652174 0 0  1.999130434782608 0 0  2.015652173913043 0 0  2.032173913043478 0 0  2.048695652173913 0 0  2.065217391304348 0 0  2.081739130434782 0 0  2.098260869565217 0 0  2.114782608695652 0 0  2.131304347826087 0 0  2.147826086956522 0 0  2.164347826086956 0 0  2.180869565217391 0 0  2.197391304347826 0 0  2.213913043478261 0 0  2.230434782608695 0 0  2.24695652173913 0 0  2.263478260869565 0 0  2.28 0 0  2.296521739130434 0 0  2.31304347826087 0 0  2.329565217391304 0 0  2.346086956521739 0 0  2.362608695652174 0 0  2.379130434782609 0 0  2.395652173913044 0 0  2.412173913043478 0 0  2.428695652173913 0 0  2.445217391304348 0 0  2.461739130434782 0 0  2.478260869565217 0 0  2.494782608695652 0 0  2.511304347826087 0 0  2.527826086956522 0 0  2.544347826086956 0 0  2.560869565217391 0 0  2.577391304347826 0 0  2.593913043478261 0 0  2.610434782608696 0 0  2.62695652173913 0 0  2.643478260869565 0 0  2.66 0 0  2.676521739130435 0 0  2.693043478260869 0 0  2.709565217391304 0 0  2.726086956521739 0 0  2.742608695652174 0 0  2.759130434782609 0 0  2.775652173913044 0 0  2.792173913043478 0 0  2.808695652173913 0 0  2.825217391304347 0 0  2.841739130434783 0 0  2.858260869565217 0 0  2.874782608695652 0 0  2.891304347826087 0 0  2.907826086956522 0 0  2.924347826086957 0 0  2.940869565217391 0 0  2.957391304347826 0 0  2.973913043478261 0 0  2.990434782608696 0 0  3.006956521739131 0 0  3.023478260869565 0 0  3.04 0 0  3.056521739130435 0 0  3.073043478260869 0 0  3.089565217391304 0 0  3.106086956521739 0 0  3.122608695652174 0 0  3.139130434782609 0 0  3.155652173913043 0 0  3.172173913043478 0 0  3.188695652173913 0 0  3.205217391304347 0 0  3.221739130434782 0 0  3.238260869565217 0 0  3.254782608695652 0 0  3.271304347826087 0 0  3.287826086956521 0 0  3.304347826086957 0 0  3.320869565217391 0 0  3.337391304347826 0 0  3.353913043478261 0 0  3.370434782608696 0 0  3.386956521739131 0 0  3.403478260869565 0 0  3.419999999999999 0 0  3.436521739130435 0 0  3.453043478260869 0 0  3.469565217391304 0 0  3.486086956521739 0 0  3.502608695652174 0 0  3.519130434782609 0 0  3.535652173913043 0 0  3.552173913043478 0 0  3.568695652173913 0 0  3.585217391304347 0 0  3.601739130434782 0 0  3.618260869565217 0 0  3.634782608695652 0 0  3.651304347826087 0 0  3.667826086956521 0 0  3.684347826086956 0 0  3.700869565217391 0 0  3.717391304347826 0 0  3.733913043478261 0 0  3.750434782608695 0 0  3.766956521739131 0 0  3.783478260869565 0 0  3.8 0 0  0 0.01666666666666667 0  0.01652173913043478 0.01666666666666667 0  0.03304347826086956 0.01666666666666667 0  0.04956521739130434 0.01666666666666667 0  0.06608695652173913 0.01666666666666667 0  0.08260869565217391 0.01666666666666667 0  0.09913043478260869 0.01666666666666667 0  0.1156521739130435 0.01666666666666667 0  0.1321739130434783 0.01666666666666667 0  0.148695652173913 0.01666666666666667 0  0.1652173913043478 0.01666666666666667 0  0.1817391304347826 0.01666666666666667 0  0.1982608695652174 0.01666666666666667 0  0.2147826086956522 0.01666666666666667 0  0.2313043478260869 0.01666666666666667 0  0.2478260869565218 0.01666666666666667 0  0.2643478260869565 0.01666666666666667 0  0.2808695652173913 0.01666666666666667 0  0.2973913043478261 0.01666666666666667 0  0.3139130434782609 0.01666666666666667 0  0.3304347826086956 0.01666666666666667 0  0.3469565217391304 0.01666666666666667 0  0.3634782608695652 0.01666666666666667 0  0.3799999999999999 0.01666666666666667 0  0.3965217391304348 0.01666666666666667 0  0.4130434782608696 0.01666666666666667 0  0.4295652173913043 0.01666666666666667 0  0.4460869565217391 0.01666666666666667 0  0.4626086956521739 0.01666666666666667 0  0.4791304347826086 0.01666666666666667 0  0.4956521739130435 0.01666666666666667 0  0.5121739130434783 0.01666666666666667 0  0.528695652173913 0.01666666666666667 0  0.5452173913043478 0.01666666666666667 0  0.5617391304347825 0.01666666666666667 0  0.5782608695652174 0.01666666666666667 0  0.5947826086956521 0.01666666666666667 0  0.6113043478260869 0.01666666666666667 0  0.6278260869565218 0.01666666666666667 0  0.6443478260869565 0.01666666666666667 0  0.6608695652173913 0.01666666666666667 0  0.677391304347826 0.01666666666666667 0  0.6939130434782609 0.01666666666666667 0  0.7104347826086956 0.01666666666666667 0  0.7269565217391304 0.01666666666666667 0  0.7434782608695653 0.01666666666666667 0  0.7599999999999999 0.01666666666666667 0  0.7765217391304348 0.01666666666666667 0  0.7930434782608695 0.01666666666666667 0  0.8095652173913043 0.01666666666666667 0  0.8260869565217391 0.01666666666666667 0  0.8426086956521739 0.01666666666666667 0  0.8591304347826086 0.01666666666666667 0  0.8756521739130434 0.01666666666666667 0  0.8921739130434783 0.01666666666666667 0  0.908695652173913 0.01666666666666667 0  0.9252173913043478 0.01666666666666667 0  0.9417391304347826 0.01666666666666667 0  0.9582608695652173 0.01666666666666667 0  0.9747826086956521 0.01666666666666667 0  0.991304347826087 0.01666666666666667 0  1.007826086956522 0.01666666666666667 0  1.024347826086957 0.01666666666666667 0  1.040869565217391 0.01666666666666667 0  1.057391304347826 0.01666666666666667 0  1.073913043478261 0.01666666666666667 0  1.090434782608696 0.01666666666666667 0  1.10695652173913 0.01666666666666667 0  1.123478260869565 0.01666666666666667 0  1.14 0.01666666666666667 0  1.156521739130435 0.01666666666666667 0  1.17304347826087 0.01666666666666667 0  1.189565217391304 0.01666666666666667 0  1.206086956521739 0.01666666666666667 0  1.222608695652174 0.01666666666666667 0  1.239130434782609 0.01666666666666667 0  1.255652173913044 0.01666666666666667 0  1.272173913043478 0.01666666666666667 0  1.288695652173913 0.01666666666666667 0  1.305217391304348 0.01666666666666667 0  1.321739130434783 0.01666666666666667 0  1.338260869565217 0.01666666666666667 0  1.354782608695652 0.01666666666666667 0  1.371304347826087 0.01666666666666667 0  1.387826086956522 0.01666666666666667 0  1.404347826086957 0.01666666666666667 0  1.420869565217391 0.01666666666666667 0  1.437391304347826 0.01666666666666667 0  1.453913043478261 0.01666666666666667 0  1.470434782608696 0.01666666666666667 0  1.486956521739131 0.01666666666666667 0  1.503478260869565 0.01666666666666667 0  1.52 0.01666666666666667 0  1.536521739130435 0.01666666666666667 0  1.55304347826087 0.01666666666666667 0  1.569565217391304 0.01666666666666667 0  1.586086956521739 0.01666666666666667 0  1.602608695652174 0.01666666666666667 0  1.619130434782609 0.01666666666666667 0  1.635652173913043 0.01666666666666667 0  1.652173913043478 0.01666666666666667 0  1.668695652173913 0.01666666666666667 0  1.685217391304348 0.01666666666666667 0  1.701739130434782 0.01666666666666667 0  1.718260869565217 0.01666666666666667 0  1.734782608695652 0.01666666666666667 0  1.751304347826087 0.01666666666666667 0  1.767826086956522 0.01666666666666667 0  1.784347826086957 0.01666666666666667 0  1.800869565217391 0.0166666666666666
[...]
<PointData  Scalars="rho_bar"> 
<DataArray  type="Float64"  Name="rho_bar"  format="ascii">9.9843270316804955e-01  9.9825195936630118e-01  9.9809934657710853e-01  9.9756967988816347e-01  9.9670290506965520e-01  9.9571787438567372e-01  9.9489092111854416e-01  9.9417659629139765e-01  9.9333322908695676e-01  9.9234286625166535e-01  9.9151436331664411e-01  9.9121852618918993e-01  9.9161055875701654e-01  9.9255023629210903e-01  9.9373701245793944e-01  9.9490379405652107e-01  9.9589763886365479e-01  9.9666526583932757e-01  9.9722687823851286e-01  9.9764082156623568e-01  9.9796619264299713e-01  9.9824796530408810e-01  9.9850932757757072e-01  9.9874430363904187e-01  9.9893573909137945e-01  9.9908260734629484e-01  9.9919399673763087e-01  9.9926876803159848e-01  9.9930464365826155e-01  9.9927258848603739e-01  9.9916081196964812e-01  9.9898522553892599e-01  9.9842089045155447e-01  9.9724375856135750e-01  9.9581164269275713e-01  9.9356320005840071e-01  9.8923629871278229e-01  9.8351815796830788e-01  9.7864948782788075e-01  9.7590877705380763e-01  9.7512178089985813e-01  9.7553121769747952e-01  9.7645614992793373e-01  9.7747475978967602e-01  9.7836263371446697e-01  9.7900696536684950e-01  9.7940397210649677e-01  9.7962205092987487e-01  9.7973015449895640e-01  9.7977915881710997e-01  9.7981883250965485e-01  9.7988699590061534e-01  9.7998870771474378e-01  9.8010963173469479e-01  9.8023759636796204e-01  9.8036584789656367e-01  9.8048654369001409e-01  9.8058636673211874e-01  9.8064950944568674e-01  9.8067104265564675e-01  9.8066891617053986e-01  9.8067327936287485e-01  9.8071025641042520e-01  9.8079803939421117e-01  9.8093092764357770e-01  9.8106018151540886e-01  9.8111823999366254e-01  9.8107962501048351e-01  9.8097281341127318e-01  9.8083424913580375e-01  9.8068424187194569e-01  9.8053823230889292e-01  9.8041928132866663e-01  9.8037088847400744e-01  9.8042814010696222e-01  9.8056756332076866e-01  9.8073819307693877e-01  9.8092084263390444e-01  9.8111902789581518e-01  9.8131986137058536e-01  9.8147119552507278e-01  9.8149789998862580e-01  9.8133883575335901e-01  9.8093807239471142e-01  9.8022093466365845e-01  9.7910635482364927e-01  9.7754713098926616e-01  9.7564721728197989e-01  9.7389926648519309e-01  9.7327283042309265e-01  9.7488395681004836e-01  9.7920403767804576e-01  9.8504442504643064e-01  9.9028185877927444e-01  9.9380676565592374e-01  9.9578513872663865e-01  9.9684581462638922e-01  9.9741867017343400e-01  9.9727714123284195e-01  9.9622220985094945e-01  9.9510850074664925e-01  9.9446519861534410e-01  9.9285598530339536e-01  9.8874138191038186e-01  9.8295867673796988e-01  9.7811767573301200e-01  9.7629494990347265e-01  9.7755737905412909e-01  9.8056665401511844e-01  9.8417267205265835e-01  9.8786840675440435e-01  9.9117175172652927e-01  9.9361869291293836e-01  9.9521366503752617e-01  9.9619345623234179e-01  9.9668266796405480e-01  9.9671359405543758e-01  9.9593172158570642e-01  9.9419765329903997e-01  9.9053586894939927e-01  9.8031864282183301e-01  9.5856239952828104e-01  9.2712518681206457e-01  8.9644337493708282e-01  8.7622252072653561e-01  8.6862009546650298e-01  8.6994619458030065e-01  8.7527391777493146e-01  8.8104770890196649e-01  8.8556040190283136e-01  8.8843591231752095e-01  8.8996090920428605e-01  8.9049789852707328e-01  8.9010133846073092e-01  8.8860036164346468e-01  8.8608943441133214e-01  8.8327881137749775e-01  8.8138972767707113e-01  8.8152375383655224e-01  8.8395804450689031e-01  8.8795507063727652e-01  8.9221994234481694e-01  8.9568541624558451e-01  8.9776108152767109e-01  8.9829066020066495e-01  8.9762223795298135e-01  8.9660534153749616e-01  8.9617064026651294e-01  8.9671101770693118e-01  8.9795824373364053e-01  8.9938083611171038e-01  9.0060036435332380e-01  9.0159267608636096e-01  9.0254253841479259e-01  9.0361636823644365e-01  9.0480109177466750e-01  9.0605945128189525e-01  9.0745697439357975e-01  9.0908084179815163e-01  9.1093095824979120e-01  9.1288638695401936e-01  9.1474779864171463e-01  9.1637096910248483e-01  9.1775057965828122e-01  9.1902599390210749e-01  9.2041865948285195e-01  9.2208887930410788e-01  9.2403660612267635e-01  9.2609230838620349e-01  9.2799176288411878e-01  9.2948866447448675e-01  9.3044367139337703e-01  9.3085093552724230e-01  9.3067954075739268e-01  9.2969051247223555e-01  9.2757628499821720e-01  9.2422160504699336e-01  9.1976912464433958e-01  9.1463399557832159e-01  9.0960024011906271e-01  9.0599490560693030e-01  9.0576982449279186e-01  9.1069678928036901e-01  9.2066372142466046e-01  9.3238020297938273e-01  9.4176421273685029e-01  9.4655814604285504e-01  9.4557164178204833e-01  9.3692108674315056e-01  9.1609826090978119e-01  8.7209924587404952e-01  7.7823528183617563e-01  5.9415920413987799e-01  3.4885120329457109e-01  1.6204236263518659e-01  6.9561982418540683e-02  3.0708186931048046e-02  1.4429669886867093e-02  7.2666455649586228e-03  3.9408831135438940e-03  2.2818620163133838e-03  1.4008513858076962e-03  9.0329459093778657e-04  6.0562094689862382e-04  4.1902070825826972e-04  2.9702651376177459e-04  2.1456923852947440e-04  1.5727333442363872e-04  1.1657547353591090e-04  8.7158570037219652e-05  6.5601659486340698e-05  4.9634615937965446e-05  3.7708591898252185e-05  2.8742424872174146e-05  2.1967036373122232e-05  1.6826539732793138e-05  1.2914016193552908e-05  9.9285676767299630e-06  7.6458602127839849e-06  5.8976711549373365e-06  4.5572772542902852e-06  3.5290268404167457e-06  2.7405677307022802e-06  2.1372203725743572e-06  1.6777159077775790e-06  1.3310587284012006e-06  1.0742177864249845e-06  8.9043417824325016e-07  7.6813022026799639e-07  7.0049190133849677e-07  6.8686203183381993e-07  9.9717698237639296e-01  9.9732965257264183e-01  9.9697283747699250e-01  9.9684893094037663e-01  9.9697880466901456e-01  9.9701897148479357e-01  9.9617435732536419e-01  9.9410636600595559e-01  9.9147303690670152e-01  9.8937421954960414e-01  9.8856176608020763e-01  9.8909901680458556e-01  9.9043900609808122e-01  9.9188672417228230e-01  9.9307200085957470e-01  9.9397602974878074e-01  9.9471702378417270e-01  9.9541706961845466e-01  9.9613120077472206e-01  9.9683010366101099e-01  9.9745453023330943e-01  9.9795969937329321e-01  9.9832521096170912e-01  9.9857378281137721e-01  9.9876590472853821e-01  9.9893965901411907e-01  9.9908380178139122e-01  9.9918163406772798e-01  9.9922749174081571e-01  9.9920008142775707e-01  9.9911862194817003e-01  9.9881116160448946e-01  9.9816191148619560e-01  9.9749753104714811e-01  9.9538029106177506e-01  9.8950839120783185e-01  9.8086904438053613e-01  9.7216851529612092e-01  9.6526912946451648e-01  9.6118093743117505e-01  9.5983395655983128e-01  9.6026072469473744e-01  9.6147564592076451e-01  9.6282123189688884e-01  9.6394469900328128e-01  9.6471106221888381e-01  9.6515576385501878e-01  9.6537947155184234e-01  9.6547245099780887e-01  9.6552144738038803e-01  9.6559338683516538e-01  9.6571143017145977e-01  9.6585942849458506e-01  9.6601691177909865e-01  9.6617550827314014e-01  9.6633010672384956e-01  9.6647266825609357e-01  9.6658701579905326e-01  9.6665460851374874e-01  9.6667855403318548e-01  9.6669313173823346e-01  9.6675131948734772e-01  9.6689315698011868e-01  9.6712003561668025e-01  9.6736659523176083e-01  9.6752947870876926e-01  9.6754972073472689e-01  9.6744620562043881e-01  9.6726140062483179e-01  9.6702945879801228e-01  9.6678200619555932e-01  9.6656920774720112e-01  9.6646077703006539e-01  9.6650646976935151e-01  9.6669046674500725e-01  9.6695581519824592e-01  9.6727549284569869e-01  9.6765669199155502e-01  9.6807576218120750e-01  9.6844570646241512e-01  9.6865904956336091e-01  9.6865266659207394e-01  9.6838819093195172e-01  9.6779614141963388e-01  9.6679490194574458e-01  9.6534983561142673e-01  9.6353061868805667e-01  9.6157185599344075e-01  9.5997435814078513e-01  9.5975794866491837e-01  9.6270861587226653e-01  9.6998272417886178e-01  9.7945431293947671e-01  9.8734535287664005e-01  9.9231075067055863e-01  9.9505758822713020e-01  9.9642880370697184e-01  9.9673099893714701e-01  9.9645709968385299e-01  9.9665220545752709e-01  9.9646011054306771e-01  9.9293614713143463e-01  9.8569972782960968e-01  9.7755015138227008e-01  9.7011412468255409e-01  9.6399661476466469e-01  9.6121058462565101e-01  9.6333899827826630e-01  9.6959293115317968e-01  9.7747551282090595e-01  9.8431013449936344e-01  9.8890516414350393e-01  9.9189747875054923e-01  9.9406838343410453e-01  9.9547483766877431e-01  9.9617707721975690e-01  9.9621310354592141e-01  9.9550297536121890e-01  9.9379536125973345e-01  9.8775848392472665e-01  9.7403197538104569e-01  9.4917922601551630e-01  9.0882756652969565e-01  8.6388431591650494e-01  8.3291204900369775e-01  8.2149985266469561e-01  8.2390025528500876e-01  8.3231251511876980e-01  8.4125791793799642e-01  8.4819387627259413e-01  8.5256540167573924e-01  8.5485991005036011e-01  8.5578916958245321e-01  8.5557906515079973e-01  8.5387955084720901e-01  8.5041536670515105e-01  8.4585307245883190e-01  8.4223746655391796e-01  8.4172395372869124e-01  8.4498734968386635e-01  8.5094339955141851e-01  8.5743246222255376e-01  8.6276887987237383e-01  8.6611786183119965e-01  8.6719573846620279e-01  8.6627497628850891e-01  8.6444086627086680e-01  8.6327098708038419e-01  8.6368482301776761e-01  8.6541177494462851e-01  8.6759962881846842e-01  8.6954061693331641e-01  8.7105553898194377e-01  8.7238354488562686e-01  8.7389256314263508e-01  8.7556955874435394e-01  8.7727996671743491e-01  8.7911207196523955e-01  8.8123402494168768e-01  8.8368234848728999e-01  8.8634524140789706e-01  8.8894316897764214e-01  8.9122666177580778e-01  8.9313238903096359e-01  8.9476300230722705e-01  8.9639468877408879e-01  8.9829169141303500e-01  9.0052407627441577e-01  9.0293883334885872e-01  9.0523409160106216e-01  9.0710566946983795e-01  9.0831447251021302e-01  9.0877500091917029e-01  9.0855692646684783e-01  9.0747546597432438e-01  9.0499742551248052e-01  9.0070841158613035e-01  8.9456331160154412e-01  8.8699118597377768e-01  8.7917474135951190e-01  8.7335730943781109e-01  8.7300455647641317e-01  8.8108146621037953e-01  8.9699657841044866e-01  9.1529471999934131e-01  9.2978378761951475e-01  9.3783213711637858e-01  9.3883239255275830e-01  9.3168964027676771e-01  9.1295744189209649e-01  8.7399776811549579e-01  7.9409117542305907e-01  6.3945095566476473e-01  4.1204459214319017e-01  2.0603731356446026e-01  9.0863063339522293e-02  3.9774795297002181e-02  1.8126765086416471e-02  8.8734511563045501e-03  4.6527704456201541e-03  2.6207474349797489e-03  1.5758110058166459e-03  9.9805360120498255e-04  6.6095069233621699e-04  4.5277116233798597e-04  3.1862419796455517e-04  2.2889945325540762e-04  1.6707459465229517e-04  1.2345002236241234e-04  9.2077524615160347e-05  6.9179551154844918e-05  5.2271373695277937e-05  3.9672450353377212e-05  3.0217714341227784e-05  2.3082996915210017e-05  1.7675510117524711e-05  1.3562927309049440e-05  1.0426497628195215e-05  8.0292106970701668e-06  6.1936293423918698e-06  4.7863554871330405e-06  3.7067587922733484e-06  2.8788568600818478e-06  2.2452309476462445e-06  1.7625880759403331e-06  1.3984283139915920e-06  1.1285858407118287e-06  9.3545014500410628e-07  8.0665504536864115e-07  7.3412341835881451e-07  7.1282100257334594e-07  9.9819562773275605e-01  9.9720765321308857e-01  9.9748338512627810e-01  9.9662450833992455e-01  9.9392320736402340e-01  9.8905249531888373e-01  9.8375909886688928e-01  9.8016447012728292e-01  9.7808216925924141e-01  9.7593191540603286e-01  9.7351979966982105e-01  9.7207071654525523e-01  9.7264064241921611e-01  9.7543669966949575e-01  9.7979905697616554e-01  9.8459071322546865e-01  9.8889603080511468e-01  9.9222073848463288e-01  9.9439725104274246e-01  9.9560204001740316e-01  9.9621328642946738e-01  9.9658150817746838e-01  9.9695921593109271e-01  9.9746266353125279e-01  9.9800125290330088e-01  9.9840899161659202e-01  9.9866664858510501e-01  9.9884741949207911e-01  9.9895378170230498e-01  9.9896836356633967e-01  9.9886339198293350e-01  9.9837622971713669e-01  9.9797624672550500e-01  9.9591088153343754e-01  9.8916546862649712e-01  9.8126064987035988e-01  9.6901183180991923e-01  9.4585780979801837e-01  9.2243151760300546e-01  9.1024133102984572e-01  9.0885207452511729e-01  9.1292623929186223e-01  9.1850685936372911e-01  9.2374949695282749e-01  9.2803832321326973e-01  9.3094307608046678e-01  9.3245994441959734e-01  9.3310287684240767e-01  9.3333394534531855e-01  9.3337946292541885e-01  9.3340889731627430e-01  9.3365557240398200e-01  9.3412428635120393e-01  9.3467992800476818e-01  9.3524300037694930e-01  9.3579670350899347e-01  9.3634228399948383e-01  9.3682475949299160e-01  9.3714543031199882e-01  9.3722147023882774e-01  9.3711584829548344e-01  9.3705057110531043e-01  9.3717097244437408e-01  9.3757785861273590e-01  9.3826829355102304e-01  9.3902869405832667e-01  9.3945003776597269e-01  9.3929012217123975e-01  9.3870343172429427e-01  9.3800170602712740e-01  9.3726215814820224e-01  9.3653545823783479e-01  9.3592967866340371e-01  9.3559697726128133e-01  9.3580401009053837e-01  9.3653168213748317e-01  9.3738292339958629e-01  9.3821261340636541e-01  9.3911722059356906e-01  9.4007704692849547e-01  9.4092177136791011e-01  9.4132767090635494e-01  9.4099692937277157e-01  9.3975185726466814e-01  9.3726786819652708e-01  9.3308724793820885e-01  9.2678632152713403e-01  9.1813930323635606e-01  9.0808541674211118e-01  9.0074839801591045e-01  9.0395956255984045e-01  9.2228241084485352e-01  9.4906936039672884e-01  9.7186077881335009e-01  9.8553107191108114e-01  9.9186278192846700e-01  9.9432399594067744e-01  9.9530884823350785e-01  9.9632232983511271e-01  9.9469786118819126e-01  9.8746775089837613e-01  9.8058314285159531e-01  9.7850742144442016e-01  9.7031153386977365e-01  9.4656460386398056e-01  9.1876415820762303e-01  9.0615315020692266e-01  9.1335990937994382e-01  9.3069629188098091e-01  9.4735561763440823e-01  9.6046723867891715e-01  9.7225323404161479e-01  9.8250808370331477e-01  9.8900104691463686e-01  9.9228451944386209e-01  9.9403410373470880e-01  9.9447726736580788e-01  9.9389374151987631e-01  9.9039677756942801e-01  9.8044012097165367e-01  9.6035534555904378e-01  8.9397156063986383e-01  7.6650838187290726e-01  6.3936393736068931e-01  5.6120128328362184e-01  5.3105892730341109e-01  5.3163408670670986e-01  5.4665454883246889e-01  5.6367807821725446e-01  5.7602999146203893e-01  5.8207863476906763e-01  5.8347900246013285e-01  5.8238568616560760e-01  5.7894007442334638e-01  5.7140870619451423e-01  5.5833378266409550e-01  5.4190296866825993e-01  5.2930877286934463e-01  5.2691151674580672e-01  5.3613596323878721e-01  5.5384103305746268e-01  5.7285325092524253e-01  5.8806675932288210e-01  5.9745294095979185e-01  6.0031988169781469e-01  5.9746977378961563e-01  5.9260411574167715e-01  5.9123167404376220e-01  5.9595717643899859e-01  6.0477437457271899e-01  6.1368221847047399e-01  6.1967671355188203e-01  6.2204817456529526e-01  6.2202557871236941e-01  6.2184263624138658e-01  6.2206587274997449e-01  6.2294688815450250e-01  6.2531120904393367e-01  6.2957783385893906e-01  6.3557631277493842e-01  6.4280208471322187e-01  6.4995560634493499e-01  6.5591767710187265e-01  6.6052001806228089e-01  6.6423736296187241e-01  6.6854781384513429e-01  6.7478987747259300e-01  6.8325904857813746e-01  6.9327824950135419e-01  7.0330279166355125e-01  7.1182627701766810e-01  7.1778338077725035e-01  7.2109418257746205e-01  7.2285080080360298e-01  7.2254381210599805e-01  7.1791868681796289e-01  7.0835197868149213e-01  6.9544389891056713e-01  6.8225138723556145e-01  6.7349970745139831e-01  6.7535405847836083e-01  6.9480458348993290e-01  7.3543153768013958e-01  7.9052125774853255e-01  8.4376037078620170e-01  8.8266145354211578e-01  9.0518685915937169e-01  9.1434585059828566e-01  9.1266318787417411e-01  9.0013428139537399e-01  8.7324572133921963e-01  8.2240782637907528e-01  7.2920828999465470e-01  5.7309207625960168e-01  3.6769067629756602e-01  1.8733346104462842e-01  8.3108194717663508e-02  3.6311887538296013e-02  1.6140412723213142e-02  7.7021947489927271e-03  4.0117714699498142e-03  2.2429872882235302e-03  1.3522492076264549e-03  8.5914005235908971e-04  5.7132182998756887e-04  3.9303700406232274e-04  2.7757714704084309e-04  2.0003900664323913e-04  1.4638309637884226e-04  1.0839435965555614e-04  8.0995378702971291e-05  6.0950972684450282e-05  4.6121191646493516e-05  3.5052964057305431e-05  2.6735324342933320e-05  2.0450877227283359e-05  1.5682324301383101e-05  1.2051589352144654e-05  9.2795225198795174e-06  7.1583644865006956e-06  5.5325983256486069e-06  4.2853720360404241e-06  3.3286578945978853e-06  2.5961282973248855e-06  2.0378341087984423e-06  1.6163245956783155e-06  1.3037603318252815e-06  1.0798075226447725e-06  9.3009930083732309e-07  8.4508411519189335e-07  8.1908604602539173e-07  9.8523029726558198e-01  9.8757014257107412e-01  9.8438289054312134e-01  9.8150310946864461e-01  9.8043321477753231e-01  9.8277564615835078e-01  9.8310227969594610e-01  9.6918661569242925e-01  9.3618880898095569e-01  8.9664830804115314e-01  8.7118201972709330e-01  8.7187710199608837e-01  8.9466171217064683e-01  9.2437410330874614e-01  9.4800055150280915e-01  9.6201631233305485e-01  9.6921251311337919e-01  9.7329710684514603e-01  9.7694459120982058e-01  9.8125969899807497e-01  9.8592703875940824e-01  9.9019535774156708e-01  9.9348697462680335e-01  9.9546171472453882e-01  9.9630954276486561e-01  9.9680486679633973e-01  9.9742804970935306e-01  9.9798557959302392e-01  9.9829388969802491e-01  9.9842719755989473e-01  9.9825924908641617e-01  9.9779083140644531e-01  9.9675530963378089e-01  9.9049475970915069e-01  9.8343601455710394e-01  9.5332042153037988e-01  8.4495711214761948e-01  6.9368484711421408e-01  5.8302871070700535e-01  5.3268873583461018e-01  5.2291186089798791e-01  5.3310353272838784e-01  5.4970722672234784e-01  5.6644948785639149e-01  5.8051894062490539e-01  5.8835903121403266e-01  5.8978203171846477e-01  5.8888311717974051e-01  5.8763285222036277e-01  5.8621886510364785e-01  5.8555665930068324e-01  5.8717219405943366e-01  5.9001941806402414e-01  5.9253079880192783e-01  5.9441539473233251e-01  5.9599302130966325e-01  5.9747556984340933e-01  5.9871474642299249e-01  5.9943974834714342e-01  5.9916205224405039e-01  5.9831836836205354e-01  5.9831425896937573e-01  5.9993769367335925e-01  6.0378380653818320e-01  6.0951711525881092e-01  6.1482817327824735e-01  6.1639884853265237e-01  6.1393844541173437e-01  6.1001643712075004e-01  6.0642304958509008e-01  6.0258584945558236e-01  5.9857970188539822e-01  5.9551953796350865e-01  5.9512382226082228e-01  5.9893454717969929e-01  6.0513692183302215e-01  6.1016438490576108e-01  6.1490754039167117e-01  6.2138939009391425e-01  6.2889243575759468e-01  6.3491366801436788e-01  6.3675982982157620e-01  6.3438892083037013e-01  6.2912218475716097e-01  6.1960196868756079e-01  6.0430118597421789e-01  5.8313060727017496e-01  5.5793084057163067e-01  5.3493364316424130e-01  5.2695801099239692e-01  5.5643317640281020e-01  6.4542136423068486e-01  7.8202862853744182e-01  9.0085938532749377e-01  9.5966510563966845e-01  9.8156762378002516e-01  9.8922690552418380e-01  9.9226773663452084e-01  9.8958682964772859e-01  9.8198381461754336e-01  9.8238558179597057e-01  9.7807592878731631e-01  9.1630167551036212e-01  7.8263401077731798e-01  6.3162048482702016e-01  5.2440633475002940e-01  4.8658745318264662e-01  5.1373997262565696e-01  5.9260862346657450e-01  7.0238477897259421e-01  8.1436519630364190e-01  8.9861496441275923e-01  9.4408704426889867e-01  9.6653473468983053e-01  9.8047214471583932e-01  9.8754474434408324e-01  9.8982444683966919e-01  9.8945381038566071e-01  9.8272602562972533e-01  9.6748502793969859e-01  8.9875633162867152e-01  6.8468666273363554e-01  4.2188708366432537e-01  2.5403284548870014e-01  1.7704099272476406e-01  1.4536105507697519e-01  1.3497326660339676e-01  1.3496314836215018e-01  1.3835840458961446e-01  1.4083326866287579e-01  1.4058298675123260e-01  1.3806326290025372e-01  1.3452774785843932e-01  1.3012027095594858e-01  1.2389418511983316e-01  1.1521601589565279e-01  1.05135357824