<?xml version="1.0"?>
<VTKFile type="UnstructuredGrid"  version="0.1"  >
<UnstructuredGrid>
<Piece  NumberOfPoints="7161" NumberOfCells="13800">
<Points>
<DataArray  type="Float64"  NumberOfComponents="3"  format="ascii">0 0 0  0.01652173913043478 0 0  0.03304347826086956 0 0  0.04956521739130434 0 0  0.06608695652173913 0 0  0.08260869565217391 0 0  0.09913043478260869 0 0  0.1156521739130435 0 0  0.1321739130434783 0 0  0.148695652173913 0 0  0.1652173913043478 0 0  0.1817391304347826 0 0  0.1982608695652174 0 0  0.2147826086956522 0 0  0.2313043478260869 0 0  0.2478260869565218 0 0  0.2643478260869565 0 0  0.2808695652173913 0 0  0.2973913043478261 0 0  0.3139130434782609 0 0  0.3304347826086956 0 0  0.3469565217391304 0 0  0.3634782608695652 0 0  0.3799999999999999 0 0  0.3965217391304348 0 0  0.4130434782608696 0 0  0.4295652173913043 0 0  0.4460869565217391 0 0  0.4626086956521739 0 0  0.4791304347826086 0 0  0.4956521739130435 0 0  0.5121739130434783 0 0  0.528695652173913 0 0  0.5452173913043478 0 0  0.5617391304347825 0 0  0.5782608695652174 0 0  0.5947826086956521 0 0  0.6113043478260869 0 0  0.6278260869565218 0 0  0.6443478260869565 0 0  0.6608695652173913 0 0  0.677391304347826 0 0  0.6939130434782609 0 0  0.7104347826086956 0 0  0.7269565217391304 0 0  0.7434782608695653 0 0  0.7599999999999999 0 0  0.7765217391304348 0 0  0.7930434782608695 0 0  0.8095652173913043 0 0  0.8260869565217391 0 0  0.8426086956521739 0 0  0.8591304347826086 0 0  0.8756521739130434 0 0  0.8921739130434783 0 0  0.908695652173913 0 0  0.9252173913043478 0 0  0.9417391304347826 0 0  0.9582608695652173 0 0  0.9747826086956521 0 0  0.991304347826087 0 0  1.007826086956522 0 0  1.024347826086957 0 0  1.040869565217391 0 0  1.057391304347826 0 0  1.073913043478261 0 0  1.090434782608696 0 0  1.10695652173913 0 0  1.123478260869565 0 0  1.14 0 0  1.156521739130435 0 0  1.17304347826087 0 0  1.189565217391304 0 0  1.206086956521739 0 0  1.222608695652174 0 0  1.239130434782609 0 0  1.255652173913044 0 0  1.272173913043478 0 0  1.288695652173913 0 0  1.305217391304348 0 0  1.321739130434783 0 0  1.338260869565217 0 0  1.354782608695652 0 0  1.371304347826087 0 0  1.387826086956522 0 0  1.404347826086957 0 0  1.420869565217391 0 0  1.437391304347826 0 0  1.453913043478261 0 0  1.470434782608696 0 0  1.486956521739131 0 0  1.503478260869565 0 0  1.52 0 0  1.536521739130435 0 0  1.55304347826087 0 0  1.569565217391304 0 0  1.586086956521739 0 0  1.602608695652174 0 0  1.619130434782609 0 0  1.635652173913043 0 0  1.652173913043478 0 0  1.668695652173913 0 0  1.685217391304348 0 0  1.701739130434782 0 0  1.718260869565217 0 0  1.734782608695652 0 0  1.751304347826087 0 0  1.767826086956522 0 0  1.784347826086957 0 0  1.800869565217391 0 0  1.817391304347826 0 0  1.833913043478261 0 0  1.850434782608696 0 0  1.86695652173913 0 0  1.883478260869565 0 0  1.9 0 0  1.916521739130435 0 0  1.933043478260869 0 0  1.949565217391304 0 0  1.966086956521739 0 0  1.982608695652174 0 0  1.999130434782608 0 0  2.015652173913043 0 0  2.032173913043478 0 0  2.048695652173913 0 0  2.065217391304348 0 0  2.081739130434782 0 0  2.098260869565217 0 0  2.114782608695652 0 0  2.131304347826087 0 0  2.147826086956522 0 0  2.164347826086956 0 0  2.180869565217391 0 0  2.197391304347826 0 0  2.213913043478261 0 0  2.230434782608695 0 0  2.24695652173913 0 0  2.263478260869565 0 0  2.28 0 0  2.296521739130434 0 0  2.31304347826087 0 0  2.329565217391304 0 0  2.346086956521739 0 0  2.362608695652174 0 0  2.379130434782609 0 0  2.395652173913044 0 0  2.412173913043478 0 0  2.428695652173913 0 0  2.445217391304348 0 0  2.461739130434782 0 0  2.478260869565217 0 0  2.494782608695652 0 0  2.511304347826087 0 0  2.527826086956522 0 0  2.544347826086956 0 0  2.560869565217391 0 0  2.577391304347826 0 0  2.593913043478261 0 0  2.610434782608696 0 0  2.62695652173913 0 0  2.643478260869565 0 0  2.66 0 0  2.676521739130435 0 0  2.693043478260869 0 0  2.709565217391304 0 0  2.726086956521739 0 0  2.742608695652174 0 0  2.759130434782609 0 0  2.775652173913044 0 0  2.792173913043478 0 0  2.808695652173913 0 0  2.825217391304347 0 0  2.841739130434783 0 0  2.858260869565217 0 0  2.874782608695652 0 0  2.891304347826087 0 0  2.907826086956522 0 0  2.924347826086957 0 0  2.940869565217391 0 0  2.957391304347826 0 0  2.973913043478261 0 0  2.990434782608696 0 0  3.006956521739131 0 0  3.023478260869565 0 0  3.04 0 0  3.056521739130435 0 0  3.073043478260869 0 0  3.089565217391304 0 0  3.106086956521739 0 0  3.122608695652174 0 0  3.139130434782609 0 0  3.155652173913043 0 0  3.172173913043478 0 0  3.188695652173913 0 0  3.205217391304347 0 0  3.221739130434782 0 0  3.238260869565217 0 0  3.254782608695652 0 0  3.271304347826087 0 0  3.287826086956521 0 0  3.304347826086957 0 0  3.320869565217391 0 0  3.337391304347826 0 0  3.353913043478261 0 0  3.370434782608696 0 0  3.386956521739131 0 0  3.403478260869565 0 0  3.419999999999999 0 0  3.436521739130435 0 0  3.453043478260869 0 0  3.469565217391304 0 0  3.486086956521739 0 0  3.502608695652174 0 0  3.519130434782609 0 0  3.535652173913043 0 0  3.552173913043478 0 0  3.568695652173913 0 0  3.585217391304347 0 0  3.601739130434782 0 0  3.618260869565217 0 0  3.634782608695652 0 0  3.651304347826087 0 0  3.667826086956521 0 0  3.684347826086956 0 0  3.700869565217391 0 0  3.717391304347826 0 0  3.733913043478261 0 0  3.750434782608695 0 0  3.766956521739131 0 0  3.783478260869565 0 0  3.8 0 0  0 0.01666666666666667 0  0.01652173913043478 0.01666666666666667 0  0.03304347826086956 0.01666666666666667 0  0.04956521739130434 0.01666666666666667 0  0.06608695652173913 0.01666666666666667 0  0.08260869565217391 0.01666666666666667 0  0.09913043478260869 0.01666666666666667 0  0.1156521739130435 0.01666666666666667 0  0.1321739130434783 0.01666666666666667 0  0.148695652173913 0.01666666666666667 0  0.1652173913043478 0.01666666666666667 0  0.1817391304347826 0.01666666666666667 0  0.1982608695652174 0.01666666666666667 0  0.2147826086956522 0.01666666666666667 0  0.2313043478260869 0.01666666666666667 0  0.2478260869565218 0.01666666666666667 0  0.2643478260869565 0.01666666666666667 0  0.2808695652173913 0.01666666666666667 0  0.2973913043478261 0.01666666666666667 0  0.3139130434782609 0.01666666666666667 0  0.3304347826086956 0.01666666666666667 0  0.3469565217391304 0.01666666666666667 0  0.3634782608695652 0.01666666666666667 0  0.3799999999999999 0.01666666666666667 0  0.3965217391304348 0.01666666666666667 0  0.4130434782608696 0.01666666666666667 0  0.4295652173913043 0.01666666666666667 0  0.4460869565217391 0.01666666666666667 0  0.4626086956521739 0.01666666666666667 0  0.4791304347826086 0.01666666666666667 0  0.4956521739130435 0.01666666666666667 0  0.5121739130434783 0.01666666666666667 0  0.528695652173913 0.01666666666666667 0  0.5452173913043478 0.01666666666666667 0  0.5617391304347825 0.01666666666666667 0  0.5782608695652174 0.01666666666666667 0  0.5947826086956521 0.01666666666666667 0  0.6113043478260869 0.01666666666666667 0  0.6278260869565218 0.01666666666666667 0  0.6443478260869565 0.01666666666666667 0  0.6608695652173913 0.01666666666666667 0  0.677391304347826 0.01666666666666667 0  0.6939130434782609 0.01666666666666667 0  0.7104347826086956 0.01666666666666667 0  0.7269565217391304 0.01666666666666667 0  0.7434782608695653 0.01666666666666667 0  0.7599999999999999 0.01666666666666667 0  0.7765217391304348 0.01666666666666667 0  0.7930434782608695 0.01666666666666667 0  0.8095652173913043 0.01666666666666667 0  0.8260869565217391 0.01666666666666667 0  0.8426086956521739 0.01666666666666667 0  0.8591304347826086 0.01666666666666667 0  0.8756521739130434 0.01666666666666667 0  0.8921739130434783 0.01666666666666667 0  0.908695652173913 0.01666666666666667 0  0.9252173913043478 0.01666666666666667 0  0.9417391304347826 0.01666666666666667 0  0.9582608695652173 0.01666666666666667 0  0.9747826086956521 0.01666666666666667 0  0.991304347826087 0.01666666666666667 0  1.007826086956522 0.01666666666666667 0  1.024347826086957 0.01666666666666667 0  1.040869565217391 0.01666666666666667 0  1.057391304347826 0.01666666666666667 0  1.073913043478261 0.01666666666666667 0  1.090434782608696 0.01666666666666667 0  1.10695652173913 0.01666666666666667 0  1.123478260869565 0.01666666666666667 0  1.14 0.01666666666666667 0  1.156521739130435 0.01666666666666667 0  1.17304347826087 0.01666666666666667 0  1.189565217391304 0.01666666666666667 0  1.206086956521739 0.01666666666666667 0  1.222608695652174 0.01666666666666667 0  1.239130434782609 0.01666666666666667 0  1.255652173913044 0.01666666666666667 0  1.272173913043478 0.01666666666666667 0  1.288695652173913 0.01666666666666667 0  1.305217391304348 0.01666666666666667 0  1.321739130434783 0.01666666666666667 0  1.338260869565217 0.01666666666666667 0  1.354782608695652 0.01666666666666667 0  1.371304347826087 0.01666666666666667 0  1.387826086956522 0.01666666666666667 0  1.404347826086957 0.01666666666666667 0  1.420869565217391 0.01666666666666667 0  1.437391304347826 0.01666666666666667 0  1.453913043478261 0.01666666666666667 0  1.470434782608696 0.01666666666666667 0  1.486956521739131 0.01666666666666667 0  1.503478260869565 0.01666666666666667 0  1.52 0.01666666666666667 0  1.536521739130435 0.01666666666666667 0  1.55304347826087 0.01666666666666667 0  1.569565217391304 0.01666666666666667 0  1.586086956521739 0.01666666666666667 0  1.602608695652174 0.01666666666666667 0  1.619130434782609 0.01666666666666667 0  1.635652173913043 0.01666666666666667 0  1.652173913043478 0.01666666666666667 0  1.668695652173913 0.01666666666666667 0  1.685217391304348 0.01666666666666667 0  1.701739130434782 0.01666666666666667 0  1.718260869565217 0.01666666666666667 0  1.734782608695652 0.01666666666666667 0  1.751304347826087 0.01666666666666667 0  1.767826086956522 0.01666666666666667 0  1.784347826086957 0.01666666666666667 0  1.800869565217391 0.0166666666666666
[...]
<PointData  Scalars="rho"> 
<DataArray  type="Float64"  Name="rho"  format="ascii">9.9931462055226983e-01  9.9883550702555091e-01  9.9850229653048150e-01  9.9818510032717489e-01  9.9763311062660898e-01  9.9715638973480181e-01  9.9683956719832634e-01  9.9691417194694198e-01  9.9717806006230358e-01  9.9805009499931263e-01  9.9918187075303144e-01  1.0000000000000000e+00  1.0000000000000000e+00  1.0000000000000000e+00  1.0000000000000000e+00  1.0000000000000000e+00  1.0000000000000000e+00  1.0000000000000000e+00  1.0000000000000000e+00  1.0000000000000000e+00  1.0000000000000000e+00  1.0000000000000000e+00  1.0000000000000000e+00  1.0000000000000000e+00  1.0000000000000000e+00  1.0000000000000000e+00  1.0000000000000000e+00  1.0000000000000000e+00  1.0000000000000000e+00  1.0000000000000000e+00  9.7714688503916347e-01  9.5814245836412359e-01  8.9431759376597353e-01  9.1401876065164023e-01  9.6925160929379373e-01  9.4718962461403000e-01  9.9366616510448447e-01  9.9491853759413484e-01  9.9542153181996718e-01  9.9613221168033050e-01  9.9699314851312848e-01  9.9758519720323646e-01  9.9786274876495062e-01  9.9792208783243141e-01  9.9786086080608283e-01  9.9775510321314154e-01  9.9749185039162303e-01  9.9746285697146664e-01  9.9742721198554651e-01  9.9732854692112904e-01  9.9726909199315772e-01  9.9718984077850814e-01  9.9709064042634721e-01  9.9697204376703985e-01  9.9683683109816623e-01  9.9681459473422174e-01  9.9668425372540836e-01  9.9655296491837719e-01  9.9586907437668726e-01  9.9568730648887849e-01  9.9553516126678354e-01  9.9541982090133518e-01  9.9534771611377004e-01  9.9532565777209303e-01  9.9536150146189384e-01  9.9546330110661074e-01  9.9563646277834406e-01  9.9587975201007384e-01  9.9661836332280385e-01  9.9682515992949050e-01  9.9696255427331271e-01  9.9720474278702353e-01  9.9745671154276005e-01  9.9764574861845567e-01  9.9806223743161093e-01  9.9832879051190659e-01  9.9855130829674765e-01  9.9873573641868607e-01  9.9798315766067680e-01  9.9796634523348982e-01  9.9763812100943461e-01  9.9751324535762609e-01  9.9731348612739867e-01  9.9705807668025070e-01  9.9671124972495395e-01  9.9616218063085604e-01  9.9534263863231465e-01  9.9415798474052353e-01  9.9255719426848366e-01  9.9063672344085307e-01  9.8876695990131336e-01  9.6931747118554601e-01  9.8574538323902750e-01  9.1714982185969507e-01  9.0903149626267399e-01  9.8305251755037304e-01  9.8728023985834024e-01  9.9592384464706019e-01  9.9724205575084701e-01  9.9785262552485354e-01  9.9122792917824931e-01  9.7425923523135971e-01  9.9649623055518488e-01  9.9494737835830760e-01  9.6004870066536752e-01  9.9449165167353926e-01  9.9511030281434143e-01  9.9683756458896899e-01  9.9795098041246799e-01  9.9974509165200509e-01  1.0000000000000000e+00  1.0000000000000000e+00  1.0000000000000000e+00  9.7402698308268310e-01  9.9910797173342625e-01  9.9484295792979027e-01  9.1426080451780734e-01  8.3895064246251161e-01  7.5513570842735078e-01  7.6143695029517777e-01  7.5553332971786746e-01  7.3845861267784030e-01  8.7996856591654016e-01  9.8482672376590208e-01  9.8703442224942273e-01  9.8844790346030431e-01  9.8895509944668025e-01  9.8882506917115853e-01  9.8837862574944790e-01  9.8784809205997848e-01  9.8728084931446425e-01  9.8677781891725902e-01  9.8636130269052158e-01  9.8602228390837998e-01  9.8068870536888497e-01  9.8294185349204988e-01  9.8216966027268804e-01  9.8152582710578118e-01  9.8100867291413241e-01  9.7525549358699593e-01  9.7485813325729687e-01  9.7501774827769649e-01  9.7574543093518773e-01  9.8304947934005227e-01  9.8401844742456457e-01  9.8857068410015181e-01  9.8915562356167774e-01  9.8960865872073356e-01  9.8988896567748519e-01  9.9020188432763667e-01  9.9026626487057334e-01  9.8915648289394831e-01  9.8907872300524435e-01  9.8901056547643951e-01  9.8896027748204951e-01  9.8892788764887407e-01  9.8891703916563733e-01  9.8894113971568620e-01  9.8902505810076702e-01  9.8920058776142206e-01  9.8953337272463571e-01  9.8996973519609766e-01  9.9053765324037768e-01  9.9116167799461830e-01  9.9184730818792044e-01  9.9247065748827268e-01  9.9294633372683960e-01  9.9322754344451869e-01  9.9326063844070922e-01  9.9312025460668851e-01  9.9287458065073664e-01  9.9262692791099838e-01  9.9247579915148154e-01  9.9250201005767924e-01  9.9275839657961606e-01  9.9562301574485990e-01  9.9562885828478520e-01  9.9527671377106541e-01  9.9520756562851631e-01  9.9522244319121067e-01  9.6498779637492771e-01  9.2153097827369590e-01  8.8013056058554318e-01  8.4340015497477305e-01  7.2954864790155960e-01  6.9696319352471625e-01  6.8128509356234845e-01  6.5024391324639919e-01  5.9523961304667250e-01  5.3445441858593512e-01  5.1163328213785175e-01  3.9529684100987311e-01  2.6826318165928836e-01  2.0841145424691004e-01  4.8235561132752125e-02  8.9726393246230884e-02  5.1017015753258427e-02  4.5580586835111549e-02  3.7610885179793434e-02  3.1873998820326349e-02  3.5515840038307753e-02  3.2893198285987774e-02  2.9061178109700263e-02  2.4691078814801884e-02  2.0266251740698536e-02  1.6115621045378833e-02  1.2434634604033167e-02  9.4393487836403212e-03  6.9140012505050979e-03  4.9067469333154900e-03  2.7826742542145168e-03  1.8704343392989162e-03  1.2027604097857218e-03  7.2534366393436499e-04  3.6132886808822430e-04  1.7871318584699683e-04  7.0374736026784836e-05  1.1225911641321281e-05  4.3249403976391923e-08  0.0000000000000000e+00  0.0000000000000000e+00  0.0000000000000000e+00  0.0000000000000000e+00  0.0000000000000000e+00  0.0000000000000000e+00  0.0000000000000000e+00  0.0000000000000000e+00  0.0000000000000000e+00  0.0000000000000000e+00  0.0000000000000000e+00  0.0000000000000000e+00  9.9898647909576499e-01  9.9774336653645135e-01  9.9706984527285125e-01  9.9608794765725206e-01  9.9513643300655552e-01  9.9161810013749752e-01  9.6862498353352477e-01  9.9297549203848656e-01  9.9371928583725755e-01  9.9530386121969616e-01  9.9768725782448919e-01  1.0000000000000000e+00  1.0000000000000000e+00  1.0000000000000000e+00  1.0000000000000000e+00  1.0000000000000000e+00  1.0000000000000000e+00  1.0000000000000000e+00  1.0000000000000000e+00  1.0000000000000000e+00  1.0000000000000000e+00  1.0000000000000000e+00  1.0000000000000000e+00  1.0000000000000000e+00  1.0000000000000000e+00  1.0000000000000000e+00  1.0000000000000000e+00  1.0000000000000000e+00  1.0000000000000000e+00  1.0000000000000000e+00  9.7984041497386676e-01  9.4885037723479837e-01  8.8956881270670229e-01  8.0876815258232559e-01  8.3141155168340075e-01  7.5266497183911907e-01  9.8678577634550180e-01  9.8926327701019279e-01  9.9042051327801517e-01  9.9191696674755814e-01  9.9373298438347790e-01  9.9490975755626199e-01  9.9545132965807059e-01  9.9555439750633123e-01  9.9541961473050655e-01  9.9520772450814865e-01  9.9470812181329749e-01  9.9465963057202089e-01  9.9460065570361234e-01  9.9440727750848024e-01  9.9430153922049835e-01  9.9415444968597877e-01  9.9396600882353914e-01  9.9373780392233313e-01  9.9347410436748829e-01  9.9339868184075986e-01  9.9313331591448484e-01  9.9286308320920291e-01  9.9161294191482618e-01  9.9124321827450512e-01  9.9093010747782451e-01  9.9068746768371496e-01  9.9052717516217759e-01  9.9046195877358545e-01  9.9050782685053562e-01  9.9068336806174973e-01  9.9100373425492994e-01  9.9147097678812446e-01  9.9288956236690940e-01  9.9331567506502050e-01  9.9361360192887360e-01  9.9410820440645853e-01  9.9462390700500147e-01  9.9500457324629887e-01  9.9527096412393390e-01  9.9623718943557726e-01  9.9664830410827143e-01  9.9698334584735093e-01  9.9562142287891431e-01  9.9556566810387281e-01  9.9499023309147228e-01  9.9472602964517076e-01  9.9431343024451391e-01  9.9379478955196798e-01  9.9310201504411877e-01  9.9201647693393313e-01  9.9039291979657795e-01  9.8801076098353358e-01  9.8469466831846009e-01  9.8054367692283861e-01  9.7631188468700980e-01  8.6277461504811082e-01  8.4355608927035119e-01  8.3687617105482492e-01  8.5386578383575817e-01  9.6516336663855884e-01  9.7498275902714415e-01  9.9093289805714402e-01  9.9400064816707778e-01  9.9545992317987242e-01  9.8968275729104627e-01  9.4957052345300308e-01  8.9732125926385442e-01  8.6006098008307175e-01  9.5319064627728889e-01  8.9121071437306931e-01  9.8928000292006824e-01  9.9300233209566358e-01  9.9553556915528185e-01  9.9911814727385062e-01  1.0000000000000000e+00  1.0000000000000000e+00  1.0000000000000000e+00  9.9622520845273888e-01  9.9877072828093538e-01  9.9507596269109344e-01  9.3786461669276922e-01  8.4417063204577303e-01  7.3405050048373943e-01  6.7251128341389044e-01  6.4964878533918036e-01  6.2440968587874646e-01  6.5312100512656335e-01  8.2087548944605204e-01  9.7130582258834786e-01  9.7431974426262191e-01  9.7557629496550557e-01  9.7555125622845973e-01  9.7490955719022965e-01  9.7408725878684255e-01  9.7314389475355767e-01  9.7230415604670783e-01  9.7163316401981670e-01  9.7111014865349710e-01  9.5984978221545270e-01  9.6515807692878508e-01  9.6391518587678360e-01  9.6284971943162645e-01  9.6193089785782571e-01  9.5036841996416310e-01  9.4943983355589734e-01  9.4957957075357835e-01  9.5082310546089588e-01  9.5303575058765377e-01  9.6729449565238479e-01  9.7659270794773667e-01  9.7782072704713086e-01  9.7880905143525410e-01  9.7945525723718230e-01  9.8008414435845892e-01  9.8024092742611180e-01  9.7828761454537350e-01  9.7820503370585032e-01  9.7813820268921947e-01  9.7810310183917915e-01  9.7809157249658341e-01  9.7810193662219647e-01  9.7815515224684724e-01  9.7830029086681569e-01  9.7860397213101114e-01  9.7921011652922130e-01  9.8001163738648978e-01  9.8108497887783563e-01  9.8228580968061363e-01  9.8364473265679830e-01  9.8490904250283895e-01  9.8590190488305118e-01  9.8652139973444708e-01  9.8663855651350774e-01  9.8639747666243249e-01  9.8592617233599678e-01  9.8543403334481416e-01  9.8511749750374789e-01  9.8513437362220546e-01  9.8559510043347642e-01  9.9110872697837438e-01  9.9116681843962351e-01  9.9058729388479949e-01  9.9057156227657572e-01  9.9065671944023204e-01  9.2904739682107274e-01  9.2277505709030994e-01  8.0814262191238229e-01  6.6135615241283907e-01  7.6747867761927535e-01  7.5443429510272353e-01  7.2354640279984128e-01  7.1314985356228222e-01  6.6771673787708963e-01  5.3786101245323081e-01  4.9802697361762388e-01  5.3389642734446563e-01  3.3596153861472566e-01  2.4144876670862808e-01  1.2091224967936612e-01  7.3617408083062247e-02  7.8954018954573504e-02  7.9182071165011247e-02  6.6471599745555277e-02  5.1624293947155966e-02  5.7441198025676411e-02  5.4556270901345245e-02  4.9466816947419091e-02  4.3148097490737086e-02  3.6356585439034687e-02  2.9664074989787806e-02  2.3462528174684399e-02  1.8191126382061589e-02  1.3603216140269979e-02  9.8289368423611252e-03  5.7305331800681751e-03  3.8926794228982828e-03  2.5241550740630761e-03  1.5317126544926534e-03  7.6965728875623136e-04  3.8037212606562427e-04  1.4906171459350910e-04  2.2293906400932186e-05  0.0000000000000000e+00  0.0000000000000000e+00  0.0000000000000000e+00  0.0000000000000000e+00  0.0000000000000000e+00  0.0000000000000000e+00  0.0000000000000000e+00  0.0000000000000000e+00  0.0000000000000000e+00  0.0000000000000000e+00  0.0000000000000000e+00  0.0000000000000000e+00  0.0000000000000000e+00  9.9959839282772234e-01  9.9773913447486329e-01  9.9679133506430717e-01  9.9538672441467391e-01  9.9391442557249754e-01  9.4976818130074248e-01  8.7943739398156906e-01  8.3651483023682172e-01  8.4378375945899364e-01  9.7936288483695833e-01  9.9704873531921978e-01  1.0000000000000000e+00  1.0000000000000000e+00  1.0000000000000000e+00  1.0000000000000000e+00  1.0000000000000000e+00  1.0000000000000000e+00  1.0000000000000000e+00  1.0000000000000000e+00  1.0000000000000000e+00  1.0000000000000000e+00  1.0000000000000000e+00  1.0000000000000000e+00  1.0000000000000000e+00  1.0000000000000000e+00  1.0000000000000000e+00  1.0000000000000000e+00  1.0000000000000000e+00  1.0000000000000000e+00  1.0000000000000000e+00  9.9864711771562964e-01  9.7390420198537331e-01  8.5637962848093241e-01  6.2427028627222814e-01  5.0262312636616624e-01  6.2858992042799622e-01  5.7391115019503769e-01  6.4799424807791484e-01  9.2814791011952902e-01  9.9022107814214355e-01  9.9272456941083131e-01  9.9405893425137648e-01  9.9451830093588367e-01  9.9443446846227679e-01  9.9410611593954135e-01  9.9340073859708422e-01  9.9333777173995219e-01  9.9329052523988759e-01  9.9309533631392699e-01  9.9302718569525728e-01  9.9291219855969215e-01  9.9273869940832049e-01  9.9251068234454543e-01  9.9223273353745967e-01  9.9191028203434572e-01  9.9181139690996578e-01  9.9147592935433815e-01  9.9010033020324262e-01  9.8958668483569356e-01  9.8912382214507955e-01  9.8873368866932221e-01  9.8843023710790223e-01  9.7765176113440011e-01  9.7455476236071259e-01  9.7302223638126273e-01  9.7396722854487250e-01  9.7821053747190789e-01  9.8576795446823728e-01  9.9010969345462885e-01  9.9170017409582434e-01  9.9210659540706247e-01  9.9274241994189172e-01  9.9338719463452096e-01  9.9384103441558047e-01  9.9413486811746188e-01  9.9515217775950859e-01  9.9561317399842275e-01  9.9600522006128400e-01  9.5224395824650909e-01  9.4748706114655701e-01  9.2564660541781729e-01  9.4525416029072040e-01  9.9305474002589211e-01  9.9250627700283844e-01  9.9179354611223713e-01  9.9066356470710293e-01  9.8890753645875262e-01  9.8617489964714333e-01  9.8209867237966386e-01  9.7660687883319075e-01  9.2703038508427549e-01  6.0670695435586897e-01  6.5758938718649862e-01  5.6083871224334181e-01  5.4670619243397500e-01  9.2670182394153022e-01  9.8120166817881094e-01  9.9065659093032932e-01  9.9416807568837073e-01  9.9589125899138431e-01  9.9183033541786314e-01  9.1619062545201690e-01  8.0443812829102790e-01  6.8383473542931172e-01  6.5296623385189323e-01  7.0392600966156782e-01  7.9270164359682216e-01  8.9059120936554448e-01  9.9657521621435863e-01  1.0000000000000000e+00  1.0000000000000000e+00  1.0000000000000000e+00  1.0000000000000000e+00  1.0000000000000000e+00  9.9985811653083090e-01  9.9654735098755620e-01  9.9219547816015508e-01  9.2449074344622828e-01  8.4512322763949221e-01  6.8184257625458200e-01  2.6843596182218005e-01  3.4268447699442128e-01  5.2258205707120309e-01  5.6532851673274598e-01  5.7301776591781417e-01  6.2939654024931213e-01  6.6716841657939441e-01  7.1123193533972173e-01  7.1441847303909345e-01  7.2107496178595287e-01  7.3610964649283839e-01  7.5126182915416462e-01  7.6262615371989007e-01  7.4577709570415107e-01  7.6025613457343677e-01  7.7671477736389549e-01  8.6912868301980428e-01  9.5571966296272992e-01  9.4259936921913523e-01  9.4046522490095619e-01  9.0229818043333032e-01  8.2961788324399155e-01  7.7437456486295841e-01  7.9988970649793489e-01  8.0949040715820408e-01  8.2768473958923117e-01  8.3789665356280685e-01  8.4893757508206891e-01  8.5225618937247738e-01  8.6680625103206832e-01  8.9770895245003435e-01  8.9881860103221467e-01  9.0867164042922433e-01  8.1013098783014847e-01  8.2978431673749886e-01  8.6031801413954301e-01  9.3909088124179230e-01  9.2913853925483991e-01  9.4582791086378870e-01  9.3196193906943403e-01  9.6500513940281507e-01  9.7584462172968200e-01  9.3339831254678685e-01  9.5993792125210176e-01  9.4765509652247382e-01  9.5558195772512244e-01  9.6175305809818956e-01  9.5753116777109870e-01  9.8382198835638701e-01  9.4910850144791858e-01  9.4277634083536077e-01  9.3337321727085043e-01  8.1477542099628664e-01  8.0065468320937949e-01  9.0610591848689026e-01  8.7906605915442382e-01  7.9979411836227743e-01  7.5556295750168978e-01  6.6355287869485791e-01  5.7947760812010030e-01  5.2433713234530632e-01  4.6198558772641329e-01  3.8768030996065816e-01  4.1283045329998824e-01  4.6344187706639367e-01  5.0392383787286177e-01  5.2572158704787397e-01  5.0311263410019491e-01  4.9803493398283488e-01  5.2013202250557977e-01  5.1444283176260253e-01  5.1733346125380064e-01  4.9536408456230663e-01  4.4325789647674574e-01  3.2619153455689082e-01  2.3709032097729532e-01  1.3345963173001382e-01  1.2398595169069832e-01  1.1334030632513985e-01  9.0352884496046809e-02  7.0662911395669145e-02  6.4991456704240017e-02  5.7634344227602032e-02  4.9425555426345601e-02  4.1074322217289155e-02  3.3114296232599039e-02  2.6092380651861258e-02  1.9909456201265972e-02  1.4711802140086879e-02  1.0478352401568154e-02  6.0546612256166870e-03  4.0301609956603984e-03  2.5364088314345258e-03  1.2875740631270840e-03  7.1373822440847781e-04  2.8550293753044421e-04  4.4330865492313713e-05  5.6753990280765051e-06  0.0000000000000000e+00  0.0000000000000000e+00  0.0000000000000000e+00  0.0000000000000000e+00  0.0000000000000000e+00  0.0000000000000000e+00  0.0000000000000000e+00  0.0000000000000000e+00  0.0000000000000000e+00  0.0000000000000000e+00  0.0000000000000000e+00  0.0000000000000000e+00  0.0000000000000000e+00  1.0000000000000000e+00  9.9934949492691239e-01  9.9650925995078155e-01  9.9431597864206656e-01  9.6139620477832244e-01  8.0536888657289130e-01  6.2916327500441094e-01  5.1383540602619449e-01  5.0111055751541067e-01  6.1991547226602850e-01  7.6810924802737690e-01  8.5409600370786931e-01  1.0000000000000000e+00  1.0000000000000000e+00  1.0000000000000000e+00  1.0000000000000000e+00  1.0000000000000000e+00  1.0000000000000000e+00  1.0000000000000000e+00  1.0000000000000000e+00  1.0000000000000000e+00  1.0000000000000000e+00  1.0000000000000000e+00  1.0000000000000000e+00  1.0000000000000000e+00  1.0000000000000000e+00  1.0000000000000000e+00  1.0000000000000000e+00  1.0000000000000000e+00  1.0000000000000000e+00  9.9922316953668544e-01  9.8897101377747110e-01  9.3933972626875795e-01  7.6268928657462431e-01  0.0000000000000000e+00  0.0000000000000000e+00  0.0000000000000000e+00  0.0000000000000000e+00  1.0673138750813647e-01  4.1974493169257215e-01  5.0926871105257510e-01  6.6903796967241569e-01  6.6735986994102992e-01  6.2278094429069730e-01  7.2249681040623159e-01  7.3891942623349260e-01  6.6364176060333402e-01  6.7595175404022767e-01  6.5731666347436701e-01  6.6743752761804331e-01  6.5447355657814421e-01  7.1244874870916486e-01  7.2759519323578836e-01  6.9577639500921629e-01  7.1308994648421486e-01  7.6346410739316217e-01  7.4034128800772103e-01  7.5484545282414028e-01  7.9668104367080406e-01  8.0290750279102774e-01  7.6907580737769765e-01  7.9875268366160068e-01  7.9766925081476714e-01  7.8468614210079879e-01  7.6179263618483584e-01  8.4308398279555463e-01  8.4274725699449327e-01  8.8558253126738162e-01  8.0424102257376606e-01  7.5705925949434238e-01  7.1487889097770196e-01  6.8702654063598956e-01  6.7333885326884024e-01  6.6312466241082080e-01  6.4742993340790067e-01  6.7742641213194577e-01  6.7741622505980115e-01  6.7481530327943573e-01  7.1396002921123836e-01  7.1096493110546566e-01  7.1440591901501371e-01  7.1396263884366218e-01  7.2142576919991508e-01  7.9437396001184202e-01  7.9674849293782390e-01  7.7822886766693045e-01  7.8319347972851117e-01  6.8068665220448499e-01  6.1872217934122764e-01  4.7670317530176470e-01  6.5778124688500750e-02  2.9523583872360843e-03  1.6936636914836242e-03  1.0746890786761795e-03  3.6774896420460665e-05  7.0446198034815677e-01  9.8277204217052427e-01  9.9025169443088468e-01  9.9472364370066224e-01  9.9688169137234528e-01  9.9687551272269126e-01  8.6994151380651386e-01  5.0260334852866895e-01  2.2796100822196144e-01  7.8914359003012260e-02  0.0000000000000000e+00  1.6115928266549540e-01  4.3280943920368714e-01  6.4648988552662290e-01  8.8844669595873149e-01  1.0000000000000000e+00  1.0000000000000000e+00  1.0000000000000000e+00  1.0000000000000000e+00  1.0000000000000000e+00  9.9846929082032077e-01  9.9266897445074487e-01  9.8283041331518062e-01  8.8941694430751672e-01  6.1763614315382187e-01  0.0000000000000000e+00  0.0000000000000000e+00  0.0000000000000000e+00  0.0000000000000000e+00  0.0000000000000000e+00  1.1843942278407911e-01  1.6672698904762742e-01  3.2708441987995718e-01  3.6797984894158392e-01  3.8203507072216070e-01  3.2683726471665092e-01  2.2802137432700695e-01  1.0757726210370337e-01  2.3804906093094375e-01  2.6937165368472799e-01  3.6501930819349931e-01  2.4902893068182061e-0