<?xml version="1.0"?>
<VTKFile type="UnstructuredGrid"  version="0.1"  >
<UnstructuredGrid>
<Piece  NumberOfPoints="7161" NumberOfCells="13800">
<Points>
<DataArray  type="Float64"  NumberOfComponents="3"  format="ascii">0 0 0  0.01652173913043478 0 0  0.03304347826086956 0 0  0.04956521739130434 0 0  0.06608695652173913 0 0  0.08260869565217391 0 0  0.09913043478260869 0 0  0.1156521739130435 0 0  0.1321739130434783 0 0  0.148695652173913 0 0  0.1652173913043478 0 0  0.1817391304347826 0 0  0.1982608695652174 0 0  0.2147826086956522 0 0  0.2313043478260869 0 0  0.2478260869565218 0 0  0.2643478260869565 0 0  0.2808695652173913 0 0  0.2973913043478261 0 0  0.3139130434782609 0 0  0.3304347826086956 0 0  0.3469565217391304 0 0  0.3634782608695652 0 0  0.3799999999999999 0 0  0.3965217391304348 0 0  0.4130434782608696 0 0  0.4295652173913043 0 0  0.4460869565217391 0 0  0.4626086956521739 0 0  0.4791304347826086 0 0  0.4956521739130435 0 0  0.5121739130434783 0 0  0.528695652173913 0 0  0.5452173913043478 0 0  0.5617391304347825 0 0  0.5782608695652174 0 0  0.5947826086956521 0 0  0.6113043478260869 0 0  0.6278260869565218 0 0  0.6443478260869565 0 0  0.6608695652173913 0 0  0.677391304347826 0 0  0.6939130434782609 0 0  0.7104347826086956 0 0  0.7269565217391304 0 0  0.7434782608695653 0 0  0.7599999999999999 0 0  0.7765217391304348 0 0  0.7930434782608695 0 0  0.8095652173913043 0 0  0.8260869565217391 0 0  0.8426086956521739 0 0  0.8591304347826086 0 0  0.8756521739130434 0 0  0.8921739130434783 0 0  0.908695652173913 0 0  0.9252173913043478 0 0  0.9417391304347826 0 0  0.9582608695652173 0 0  0.9747826086956521 0 0  0.991304347826087 0 0  1.007826086956522 0 0  1.024347826086957 0 0  1.040869565217391 0 0  1.057391304347826 0 0  1.073913043478261 0 0  1.090434782608696 0 0  1.10695652173913 0 0  1.123478260869565 0 0  1.14 0 0  1.156521739130435 0 0  1.17304347826087 0 0  1.189565217391304 0 0  1.206086956521739 0 0  1.222608695652174 0 0  1.239130434782609 0 0  1.255652173913044 0 0  1.272173913043478 0 0  1.288695652173913 0 0  1.305217391304348 0 0  1.321739130434783 0 0  1.338260869565217 0 0  1.354782608695652 0 0  1.371304347826087 0 0  1.387826086956522 0 0  1.404347826086957 0 0  1.420869565217391 0 0  1.437391304347826 0 0  1.453913043478261 0 0  1.470434782608696 0 0  1.486956521739131 0 0  1.503478260869565 0 0  1.52 0 0  1.536521739130435 0 0  1.55304347826087 0 0  1.569565217391304 0 0  1.586086956521739 0 0  1.602608695652174 0 0  1.619130434782609 0 0  1.635652173913043 0 0  1.652173913043478 0 0  1.668695652173913 0 0  1.685217391304348 0 0  1.701739130434782 0 0  1.718260869565217 0 0  1.734782608695652 0 0  1.751304347826087 0 0  1.767826086956522 0 0  1.784347826086957 0 0  1.800869565217391 0 0  1.817391304347826 0 0  1.833913043478261 0 0  1.850434782608696 0 0  1.86695652173913 0 0  1.883478260869565 0 0  1.9 0 0  1.916521739130435 0 0  1.933043478260869 0 0  1.949565217391304 0 0  1.966086956521739 0 0  1.982608695652174 0 0  1.999130434782608 0 0  2.015652173913043 0 0  2.032173913043478 0 0  2.048695652173913 0 0  2.065217391304348 0 0  2.081739130434782 0 0  2.098260869565217 0 0  2.114782608695652 0 0  2.131304347826087 0 0  2.147826086956522 0 0  2.164347826086956 0 0  2.180869565217391 0 0  2.197391304347826 0 0  2.213913043478261 0 0  2.230434782608695 0 0  2.24695652173913 0 0  2.263478260869565 0 0  2.28 0 0  2.296521739130434 0 0  2.31304347826087 0 0  2.329565217391304 0 0  2.346086956521739 0 0  2.362608695652174 0 0  2.379130434782609 0 0  2.395652173913044 0 0  2.412173913043478 0 0  2.428695652173913 0 0  2.445217391304348 0 0  2.461739130434782 0 0  2.478260869565217 0 0  2.494782608695652 0 0  2.511304347826087 0 0  2.527826086956522 0 0  2.544347826086956 0 0  2.560869565217391 0 0  2.577391304347826 0 0  2.593913043478261 0 0  2.610434782608696 0 0  2.62695652173913 0 0  2.643478260869565 0 0  2.66 0 0  2.676521739130435 0 0  2.693043478260869 0 0  2.709565217391304 0 0  2.726086956521739 0 0  2.742608695652174 0 0  2.759130434782609 0 0  2.775652173913044 0 0  2.792173913043478 0 0  2.808695652173913 0 0  2.825217391304347 0 0  2.841739130434783 0 0  2.858260869565217 0 0  2.874782608695652 0 0  2.891304347826087 0 0  2.907826086956522 0 0  2.924347826086957 0 0  2.940869565217391 0 0  2.957391304347826 0 0  2.973913043478261 0 0  2.990434782608696 0 0  3.006956521739131 0 0  3.023478260869565 0 0  3.04 0 0  3.056521739130435 0 0  3.073043478260869 0 0  3.089565217391304 0 0  3.106086956521739 0 0  3.122608695652174 0 0  3.139130434782609 0 0  3.155652173913043 0 0  3.172173913043478 0 0  3.188695652173913 0 0  3.205217391304347 0 0  3.221739130434782 0 0  3.238260869565217 0 0  3.254782608695652 0 0  3.271304347826087 0 0  3.287826086956521 0 0  3.304347826086957 0 0  3.320869565217391 0 0  3.337391304347826 0 0  3.353913043478261 0 0  3.370434782608696 0 0  3.386956521739131 0 0  3.403478260869565 0 0  3.419999999999999 0 0  3.436521739130435 0 0  3.453043478260869 0 0  3.469565217391304 0 0  3.486086956521739 0 0  3.502608695652174 0 0  3.519130434782609 0 0  3.535652173913043 0 0  3.552173913043478 0 0  3.568695652173913 0 0  3.585217391304347 0 0  3.601739130434782 0 0  3.618260869565217 0 0  3.634782608695652 0 0  3.651304347826087 0 0  3.667826086956521 0 0  3.684347826086956 0 0  3.700869565217391 0 0  3.717391304347826 0 0  3.733913043478261 0 0  3.750434782608695 0 0  3.766956521739131 0 0  3.783478260869565 0 0  3.8 0 0  0 0.01666666666666667 0  0.01652173913043478 0.01666666666666667 0  0.03304347826086956 0.01666666666666667 0  0.04956521739130434 0.01666666666666667 0  0.06608695652173913 0.01666666666666667 0  0.08260869565217391 0.01666666666666667 0  0.09913043478260869 0.01666666666666667 0  0.1156521739130435 0.01666666666666667 0  0.1321739130434783 0.01666666666666667 0  0.148695652173913 0.01666666666666667 0  0.1652173913043478 0.01666666666666667 0  0.1817391304347826 0.01666666666666667 0  0.1982608695652174 0.01666666666666667 0  0.2147826086956522 0.01666666666666667 0  0.2313043478260869 0.01666666666666667 0  0.2478260869565218 0.01666666666666667 0  0.2643478260869565 0.01666666666666667 0  0.2808695652173913 0.01666666666666667 0  0.2973913043478261 0.01666666666666667 0  0.3139130434782609 0.01666666666666667 0  0.3304347826086956 0.01666666666666667 0  0.3469565217391304 0.01666666666666667 0  0.3634782608695652 0.01666666666666667 0  0.3799999999999999 0.01666666666666667 0  0.3965217391304348 0.01666666666666667 0  0.4130434782608696 0.01666666666666667 0  0.4295652173913043 0.01666666666666667 0  0.4460869565217391 0.01666666666666667 0  0.4626086956521739 0.01666666666666667 0  0.4791304347826086 0.01666666666666667 0  0.4956521739130435 0.01666666666666667 0  0.5121739130434783 0.01666666666666667 0  0.528695652173913 0.01666666666666667 0  0.5452173913043478 0.01666666666666667 0  0.5617391304347825 0.01666666666666667 0  0.5782608695652174 0.01666666666666667 0  0.5947826086956521 0.01666666666666667 0  0.6113043478260869 0.01666666666666667 0  0.6278260869565218 0.01666666666666667 0  0.6443478260869565 0.01666666666666667 0  0.6608695652173913 0.01666666666666667 0  0.677391304347826 0.01666666666666667 0  0.6939130434782609 0.01666666666666667 0  0.7104347826086956 0.01666666666666667 0  0.7269565217391304 0.01666666666666667 0  0.7434782608695653 0.01666666666666667 0  0.7599999999999999 0.01666666666666667 0  0.7765217391304348 0.01666666666666667 0  0.7930434782608695 0.01666666666666667 0  0.8095652173913043 0.01666666666666667 0  0.8260869565217391 0.01666666666666667 0  0.8426086956521739 0.01666666666666667 0  0.8591304347826086 0.01666666666666667 0  0.8756521739130434 0.01666666666666667 0  0.8921739130434783 0.01666666666666667 0  0.908695652173913 0.01666666666666667 0  0.9252173913043478 0.01666666666666667 0  0.9417391304347826 0.01666666666666667 0  0.9582608695652173 0.01666666666666667 0  0.9747826086956521 0.01666666666666667 0  0.991304347826087 0.01666666666666667 0  1.007826086956522 0.01666666666666667 0  1.024347826086957 0.01666666666666667 0  1.040869565217391 0.01666666666666667 0  1.057391304347826 0.01666666666666667 0  1.073913043478261 0.01666666666666667 0  1.090434782608696 0.01666666666666667 0  1.10695652173913 0.01666666666666667 0  1.123478260869565 0.01666666666666667 0  1.14 0.01666666666666667 0  1.156521739130435 0.01666666666666667 0  1.17304347826087 0.01666666666666667 0  1.189565217391304 0.01666666666666667 0  1.206086956521739 0.01666666666666667 0  1.222608695652174 0.01666666666666667 0  1.239130434782609 0.01666666666666667 0  1.255652173913044 0.01666666666666667 0  1.272173913043478 0.01666666666666667 0  1.288695652173913 0.01666666666666667 0  1.305217391304348 0.01666666666666667 0  1.321739130434783 0.01666666666666667 0  1.338260869565217 0.01666666666666667 0  1.354782608695652 0.01666666666666667 0  1.371304347826087 0.01666666666666667 0  1.387826086956522 0.01666666666666667 0  1.404347826086957 0.01666666666666667 0  1.420869565217391 0.01666666666666667 0  1.437391304347826 0.01666666666666667 0  1.453913043478261 0.01666666666666667 0  1.470434782608696 0.01666666666666667 0  1.486956521739131 0.01666666666666667 0  1.503478260869565 0.01666666666666667 0  1.52 0.01666666666666667 0  1.536521739130435 0.01666666666666667 0  1.55304347826087 0.01666666666666667 0  1.569565217391304 0.01666666666666667 0  1.586086956521739 0.01666666666666667 0  1.602608695652174 0.01666666666666667 0  1.619130434782609 0.01666666666666667 0  1.635652173913043 0.01666666666666667 0  1.652173913043478 0.01666666666666667 0  1.668695652173913 0.01666666666666667 0  1.685217391304348 0.01666666666666667 0  1.701739130434782 0.01666666666666667 0  1.718260869565217 0.01666666666666667 0  1.734782608695652 0.01666666666666667 0  1.751304347826087 0.01666666666666667 0  1.767826086956522 0.01666666666666667 0  1.784347826086957 0.01666666666666667 0  1.800869565217391 0.0166666666666666
[...]
<PointData  Scalars="rho"> 
<DataArray  type="Float64"  Name="rho"  format="ascii">9.9959910018896170e-01  9.9937938102229329e-01  9.9932937460904192e-01  9.9925580844942818e-01  9.9916411328114152e-01  9.9906584529978071e-01  9.9897848857033833e-01  9.9892106718688545e-01  9.9890590987341898e-01  9.9893355113492399e-01  9.9899474129419286e-01  9.9907617066267329e-01  9.9916507810519528e-01  9.9925168361238670e-01  9.9933009563307984e-01  9.9939798428560089e-01  9.9945553414284438e-01  9.9950408854849759e-01  9.9954503415310514e-01  9.9957933449247649e-01  9.9960761799040576e-01  9.9963039059233549e-01  9.9964805694625458e-01  9.9966071310949900e-01  9.9966780975905878e-01  9.9966774222854760e-01  9.9965737929892917e-01  9.9963161287722047e-01  9.9958308722277933e-01  9.9950226551904031e-01  9.7751941483654514e-01  9.5915059053491236e-01  8.9651995232677406e-01  9.1723828581431099e-01  9.7333837261682254e-01  9.5168171478402941e-01  9.9791611155577198e-01  9.9785281097393241e-01  9.9787977855069854e-01  9.9796118234777931e-01  9.9806561221586143e-01  9.9817229661144080e-01  9.9826998371441822e-01  9.9835403090799513e-01  9.9842337225847155e-01  9.9847891892229779e-01  9.9852301508724983e-01  9.9855853030562935e-01  9.9858795988854432e-01  9.9861314689687364e-01  9.9863523627206729e-01  9.9865471497995573e-01  9.9867176725607665e-01  9.9868671371303808e-01  9.9869994043267762e-01  9.9871164757357456e-01  9.9872190664051919e-01  9.9873072773913751e-01  9.9873803044817033e-01  9.9874383416997492e-01  9.9874843789263179e-01  9.9875230236634460e-01  9.9875590563242544e-01  9.9875966379273573e-01  9.9876362128861229e-01  9.9876713725748489e-01  9.9876910333024227e-01  9.9876862306068714e-01  9.9876556315817133e-01  9.9876057309087851e-01  9.9875456537503304e-01  9.9874825685945190e-01  9.9874197787855590e-01  9.9873561410172751e-01  9.9872854469362382e-01  9.9871973820690330e-01  9.9870810902605844e-01  9.9869267673764195e-01  9.9867233970439739e-01  9.9864562151113190e-01  9.9861037375202377e-01  9.9856330396692528e-01  9.9849946766851572e-01  9.9841214366725206e-01  9.9829338908834175e-01  9.9813503480876598e-01  9.9793032826507644e-01  9.9767748715572679e-01  9.9738666887412042e-01  9.9708861754258571e-01  9.9683175919527134e-01  9.7844060459129212e-01  9.9494444582707464e-01  9.2544529539507525e-01  9.1570749407316698e-01  9.8791049239293949e-01  9.9049343981057902e-01  9.9775346522219877e-01  9.9803845921274936e-01  9.9815430472709898e-01  9.9157081486506060e-01  9.7499960412591491e-01  9.9806251752157427e-01  9.9798557495443219e-01  9.6360808074764259e-01  9.9800703105389410e-01  9.9812368388741668e-01  9.9827765998943163e-01  9.9843581420357852e-01  9.9857550125475836e-01  9.9868573575678643e-01  9.9876252677905286e-01  9.9880300926972965e-01  9.7259939465261347e-01  9.9873767240025579e-01  9.9618412048168914e-01  9.1695575854473244e-01  8.4326136938111074e-01  7.6172610306802657e-01  7.7070030114638843e-01  7.6718920941720414e-01  7.5144025314419582e-01  8.9188120223846779e-01  9.9447233380003608e-01  9.9463855558171255e-01  9.9491304090931798e-01  9.9521664091742745e-01  9.9550402650930536e-01  9.9575418969856944e-01  9.9596327965811016e-01  9.9613746773581624e-01  9.9628680889576393e-01  9.9642012719170381e-01  9.9654210796685150e-01  9.9665359193949166e-01  9.9675337153930021e-01  9.9683966584894179e-01  9.9691045044013060e-01  9.9696395670891791e-01  9.9699995025147869e-01  9.9702069634605350e-01  9.9703247843334997e-01  9.9704398132768446e-01  9.9706040426673714e-01  9.9708152106802084e-01  9.9710575363085496e-01  9.9713314255142482e-01  9.9716366342529394e-01  9.9719496637614025e-01  9.9722317864877863e-01  9.9724530235393150e-01  9.9726138318145718e-01  9.9727540256466951e-01  9.9729389046682893e-01  9.9732149645525081e-01  9.9735740823753261e-01  9.9739721769390388e-01  9.9743647752759590e-01  9.9747257274934176e-01  9.9750430595795780e-01  9.9753089552739349e-01  9.9755171938463549e-01  9.9756688535162752e-01  9.9757662612075348e-01  9.9758048166470614e-01  9.9757734257812036e-01  9.9756526238255827e-01  9.9754158790317748e-01  9.9750321912609152e-01  9.9744680475537539e-01  9.9736896522683238e-01  9.9726666112897577e-01  9.9713717670860624e-01  9.9697533454214093e-01  9.9677032324088732e-01  9.9650787994063317e-01  9.9617509723607400e-01  9.9576297999043173e-01  9.9526966696714414e-01  9.9470747207653798e-01  9.6414777644988514e-01  9.2006639591323036e-01  8.7813530424422903e-01  8.4093378215156511e-01  7.2621004525796784e-01  6.9256438736518255e-01  6.7576388833464873e-01  6.4433908096438086e-01  5.8898903584591433e-01  5.2861341394761574e-01  5.0666521873796999e-01  3.9337707187867577e-01  2.6747202287152411e-01  2.0738318283014168e-01  4.8014234081209993e-02  8.8588942954903285e-02  4.7143126334476891e-02  3.9912844067870767e-02  3.1177778491583402e-02  2.5435167967724336e-02  2.9542279648268496e-02  2.7614785699104503e-02  2.4604405357753146e-02  2.1051392357165764e-02  1.7376350347513246e-02  1.3876454202133811e-02  1.0737118225398839e-02  8.1780965278651953e-03  5.9948194622725251e-03  4.2497439309070566e-03  2.3248367643162160e-03  1.5575193068191049e-03  9.9474160166192985e-04  5.9185569818602296e-04  2.8023165464985563e-04  1.3332881938802704e-04  4.8289756548019427e-05  0.0000000000000000e+00  0.0000000000000000e+00  0.0000000000000000e+00  0.0000000000000000e+00  0.0000000000000000e+00  0.0000000000000000e+00  0.0000000000000000e+00  0.0000000000000000e+00  0.0000000000000000e+00  0.0000000000000000e+00  0.0000000000000000e+00  0.0000000000000000e+00  0.0000000000000000e+00  0.0000000000000000e+00  9.9934598982763190e-01  9.9869765895508600e-01  9.9859815852694434e-01  9.9844261135091117e-01  9.9824082716710316e-01  9.9562712021844602e-01  9.7326815970578695e-01  9.9766721028599747e-01  9.9762385119671693e-01  9.9768080085244437e-01  9.9781518685712967e-01  9.9799530189967323e-01  9.9819164444527575e-01  9.9838188703156239e-01  9.9855286923815656e-01  9.9869974092805147e-01  9.9882355730228567e-01  9.9892795468659390e-01  9.9901630263064456e-01  9.9909063616118721e-01  9.9915213575094153e-01  9.9920187465431143e-01  9.9924095206799946e-01  9.9927000768032537e-01  9.9928847794456721e-01  9.9929372534884231e-01  9.9927995958467852e-01  9.9923710652586117e-01  9.9915004875814117e-01  9.9899849681280295e-01  9.8017015717106371e-01  9.5068284708256101e-01  8.9367895729656510e-01  8.1501553931841442e-01  8.3961446016937646e-01  7.6189037240674762e-01  9.9557784480305622e-01  9.9543984336236901e-01  9.9550467820663213e-01  9.9568548326393724e-01  9.9591146457639768e-01  9.9613876206965668e-01  9.9634475580900572e-01  9.9652108051203825e-01  9.9666604654339153e-01  9.9678138276532924e-01  9.9687227229974762e-01  9.9694525528429367e-01  9.9700576361255133e-01  9.9705776068519647e-01  9.9710371692726030e-01  9.9714443991851798e-01  9.9717993983769670e-01  9.9721090751844532e-01  9.9723837461250131e-01  9.9726275054896818e-01  9.9728415295377770e-01  9.9730266230886178e-01  9.9731796192565381e-01  9.9732989854799758e-01  9.9733914646517108e-01  9.9734677739766753e-01  9.9735386894122657e-01  9.9736162883336910e-01  9.9737058765252129e-01  9.9737940647821333e-01  9.9738523856875805e-01  9.9738560970144241e-01  9.9737999374652053e-01  9.9737001056381291e-01  9.9735788773521838e-01  9.9734529642411007e-01  9.9733302876164087e-01  9.9732099400151919e-01  9.9730794344749374e-01  9.9729152197778714e-01  9.9726935436488406e-01  9.9723959321351952e-01  9.9720019934785697e-01  9.9714848039968262e-01  9.9708064172828537e-01  9.9699072908578967e-01  9.9686916033139339e-01  9.9670205735550776e-01  9.9647246227607877e-01  9.9616209933490985e-01  9.9575335278084198e-01  9.9523475324090727e-01  9.9461662446164079e-01  9.9396150304025932e-01  9.9338207182432947e-01  8.8238920216270578e-01  8.6356851955270275e-01  8.5506897216253741e-01  8.6855535551367358e-01  9.7585651907450000e-01  9.8205673574334129e-01  9.9510841944010431e-01  9.9585541824150792e-01  9.9612715232177429e-01  9.9018306423350311e-01  9.5094924109233858e-01  9.0030530210417892e-01  8.6632252005371557e-01  9.6094645030246695e-01  8.9901426759234604e-01  9.9597992039118344e-01  9.9631921280108238e-01  9.9666724534575946e-01  9.9697252890344901e-01  9.9721321111065631e-01  9.9738463165300717e-01  9.9748581157863081e-01  9.9308364205314070e-01  9.9741971378808225e-01  9.9717068537149900e-01  9.4243148518773467e-01  8.5211198269777944e-01  7.4601997208292392e-01  6.9209935686649959e-01  6.7456739959546441e-01  6.5048757458612838e-01  6.7850311509373806e-01  8.4275051008827118e-01  9.8915772994942586e-01  9.8966358315459380e-01  9.9024256730695681e-01  9.9079955131153652e-01  9.9128749354518431e-01  9.9169564362680784e-01  9.9203511610790995e-01  9.9232615362977639e-01  9.9258727534013880e-01  9.9282832645016295e-01  9.9305089271790337e-01  9.9325214516517146e-01  9.9342824753825065e-01  9.9357421244390853e-01  9.9368469324286468e-01  9.9375807660022908e-01  9.9379757988815443e-01  9.9381656955740161e-01  9.9383736533456701e-01  9.9387343713363752e-01  9.9392187040908864e-01  9.9397588477097276e-01  9.9403476351111830e-01  9.9409937169625540e-01  9.9416521321238716e-01  9.9422392900666112e-01  9.9426843479172289e-01  9.9429792109728043e-01  9.9432065910048717e-01  9.9435261669854702e-01  9.9440673837364935e-01  9.9448130616062480e-01  9.9456518671142691e-01  9.9464758426901001e-01  9.9472306279994449e-01  9.9478988166042626e-01  9.9484689955263050e-01  9.9489241867117106e-01  9.9492687845644112e-01  9.9495136214977908e-01  9.9496485280462788e-01  9.9496510491775980e-01  9.9494796598656110e-01  9.9490784740972849e-01  9.9483851310845017e-01  9.9473344697636101e-01  9.9458631266983022e-01  9.9439174250441509e-01  9.9414737518327179e-01  9.9384788962013815e-01  9.9347397191644427e-01  9.9299718642018431e-01  9.9239369352573414e-01  9.9164801027151128e-01  9.9075626929437222e-01  9.8973756888401021e-01  9.2746868724583942e-01  9.2004123402266658e-01  8.0475366563290041e-01  6.5650670564699043e-01  7.6085596182660442e-01  7.4585981394016954e-01  7.1265852692285403e-01  7.0143995434651540e-01  6.5554426472946847e-01  5.2651557876970967e-01  4.8915029203504301e-01  5.2639389786096247e-01  3.3204172488884615e-01  2.3925239093428433e-01  1.1903516194185501e-01  7.0971039534912905e-02  7.1703948511079363e-02  6.8939078571188611e-02  5.4763345212303007e-02  3.9711316135500628e-02  4.6169944931858650e-02  4.4384820624212215e-02  4.0708424980190311e-02  3.5864562922817686e-02  3.0479626430152704e-02  2.5047172921096733e-02  1.9922126283440277e-02  1.5536311847538592e-02  1.1654621478756136e-02  8.4344736508418158e-03  4.7515987702180986e-03  3.2223420654129463e-03  2.0783929381271685e-03  1.2460877703182360e-03  5.9694215394115306e-04  2.8458504599036252e-04  1.0341469097465726e-04  0.0000000000000000e+00  0.0000000000000000e+00  0.0000000000000000e+00  0.0000000000000000e+00  0.0000000000000000e+00  0.0000000000000000e+00  0.0000000000000000e+00  0.0000000000000000e+00  0.0000000000000000e+00  0.0000000000000000e+00  0.0000000000000000e+00  0.0000000000000000e+00  0.0000000000000000e+00  0.0000000000000000e+00  9.9920641876901828e-01  9.9844433871529159e-01  9.9831552869770146e-01  9.9810389432317215e-01  9.9781694784274666e-01  9.5514470444228861e-01  8.8598024504412642e-01  8.4330646589132019e-01  8.4938047239048187e-01  9.8278482408171652e-01  9.9722254879978744e-01  9.9748671571924308e-01  9.9776065573303163e-01  9.9801397990360974e-01  9.9823180504628650e-01  9.9841178200429770e-01  9.9855993067384552e-01  9.9868455067680462e-01  9.9879112043905327e-01  9.9888145725219890e-01  9.9895605660704700e-01  9.9901613671325529e-01  9.9906376298960553e-01  9.9910075583299196e-01  9.9912758445936567e-01  9.9914234765946408e-01  9.9913918216056430e-01  9.9910630019033786e-01  9.9902469986877029e-01  9.9886756479115890e-01  9.9859993084216880e-01  9.7598501234403223e-01  8.6111474726239678e-01  6.3205011347092477e-01  5.1318124555582845e-01  6.4090449650554449e-01  5.8605926368584715e-01  6.5762431897368478e-01  9.3453378937721066e-01  9.9470540003154406e-01  9.9500854063434996e-01  9.9529922718235031e-01  9.9555195681869402e-01  9.9576236235141713e-01  9.9593240162609831e-01  9.9606432327653860e-01  9.9616576639910326e-01  9.9624693914687790e-01  9.9631499446459337e-01  9.9637461365680513e-01  9.9642865278241433e-01  9.9647730069264040e-01  9.9651912080376437e-01  9.9655505708823355e-01  9.9658732832699837e-01  9.9661615709149476e-01  9.9664130065333856e-01  9.9666327334975569e-01  9.9668130717046810e-01  9.9669448562281227e-01  9.9670400576987184e-01  9.9671171856168783e-01  9.8614616305828595e-01  9.8315277901427811e-01  9.8159565917569780e-01  9.8235651865144913e-01  9.8622183568643818e-01  9.9319163750882544e-01  9.9675853467545106e-01  9.9674500733512084e-01  9.9672945862629170e-01  9.9671424178688384e-01  9.9670012137881259e-01  9.9668696736124218e-01  9.9667351555494421e-01  9.9665648611068980e-01  9.9663238874793714e-01  9.9659921484228176e-01  9.5253147192436138e-01  9.4956153024980294e-01  9.2786042774445443e-01  9.4806464126680778e-01  9.9618721569006541e-01  9.9600273342147250e-01  9.9574400862337797e-01  9.9538650604832390e-01  9.9490335948028208e-01  9.9426966630116176e-01  9.9348227018498214e-01  9.9262208277240849e-01  9.4829538685440773e-01  6.3188882847952454e-01  6.8371661474584433e-01  5.8434778408060561e-01  5.6471415368705347e-01  9.3884218342905290e-01  9.8868953384600577e-01  9.9433900801366160e-01  9.9512407621867016e-01  9.9544508208601601e-01  9.9131945386644027e-01  9.1711824696276945e-01  8.0759071179455855e-01  6.9242946054405008e-01  6.6930546899155097e-01  7.2072117161725213e-01  8.0114243811953978e-01  8.9468207583365300e-01  9.9595609432128440e-01  9.9634564997682062e-01  9.9664141868740297e-01  9.9685079013309641e-01  9.9698751951292564e-01  9.9705304067651368e-01  9.9701558201842178e-01  9.9680458142968231e-01  9.9631904727918408e-01  9.3238920283111770e-01  8.5975267490809215e-01  7.0440143520753618e-01  2.9864500338522226e-01  3.7661298340272931e-01  5.5318731352520623e-01  5.9346245037650869e-01  5.9692600553303399e-01  6.4990885913170038e-01  6.8646462638101979e-01  7.3096572802740367e-01  7.3517846584032864e-01  7.4308936817643090e-01  7.5938030056720962e-01  7.7564661836447824e-01  7.8793263637537192e-01  7.8451132326713968e-01  7.9306408712339804e-01  8.1116464599856197e-01  9.0490242611486837e-01  9.9262697395595001e-01  9.9274419882257203e-01  9.9280733229444296e-01  9.5603986206270386e-01  8.8336654934454406e-01  8.2672672991008078e-01  8.4971882287041967e-01  8.5581985333656485e-01  8.5719883959998244e-01  8.5675385788748681e-01  8.6669115269307717e-01  8.6930531079728324e-01  8.8354382231334838e-01  9.1691499454585890e-01  9.1815740052162798e-01  9.2815609434182700e-01  8.2971322866866326e-01  8.4943422777900324e-01  8.8003464389429598e-01  9.5888067310391312e-01  9.4898326527801069e-01  9.6564020684611696e-01  9.5147082155813822e-01  9.8402225662816478e-01  9.9401526173663923e-01  9.5034827649650511e-01  9.7536636788678999e-01  9.6151882160428259e-01  9.6787106139545187e-01  9.7278813229812100e-01  9.6780609595611500e-01  9.9389308654004549e-01  9.5946129258631885e-01  9.5368598050468834e-01  9.4481624557716914e-01  8.2646993316828110e-01  8.1213013965210934e-01  9.1673571158527101e-01  8.8238659557509747e-01  8.0170166884588823e-01  7.5659412619916810e-01  6.6368368584048087e-01  5.7979685400446013e-01  5.2263962102021566e-01  4.5977469493582185e-01  3.8434113361884253e-01  4.0772505180585883e-01  4.5577341185403419e-01  4.9339544344524222e-01  5.1181401289179917e-01  4.8787028463201054e-01  4.8280374844264723e-01  5.0600500884068222e-01  5.0324429592289388e-01  5.0817255052746846e-01  4.8688105728082398e-01  4.3474109339808953e-01  3.1708133662355742e-01  2.2621011571270125e-01  1.2003881118898699e-01  1.0886826737109266e-01  9.7723145809962858e-02  7.5255686535855973e-02  5.6737354703016135e-02  5.2760424676791762e-02  4.7277625766467123e-02  4.0932466988104856e-02  3.4305479696507990e-02  2.7856985472555554e-02  2.2104863016770310e-02  1.6952193169499197e-02  1.2566381041296790e-02  8.9636826315659165e-03  5.0074737645547547e-03  3.3264432021704524e-03  2.0797552607431965e-03  1.0047876511714298e-03  5.5272684965413190e-04  2.0394472042772977e-04  0.0000000000000000e+00  0.0000000000000000e+00  0.0000000000000000e+00  0.0000000000000000e+00  0.0000000000000000e+00  0.0000000000000000e+00  0.0000000000000000e+00  0.0000000000000000e+00  0.0000000000000000e+00  0.0000000000000000e+00  0.0000000000000000e+00  0.0000000000000000e+00  0.0000000000000000e+00  0.0000000000000000e+00  0.0000000000000000e+00  9.9897111349834378e-01  9.9800800954731617e-01  9.9783026709982492e-01  9.9752516498526456e-01  9.6648631960243025e-01  8.1282244769288958e-01  6.3862404148725416e-01  5.2392691146263048e-01  5.0987303911835402e-01  6.2549447896049792e-01  7.6883839591394709e-01  8.3957752738657643e-01  9.9702769239125610e-01  9.9737019524974513e-01  9.9766209411606022e-01  9.9789453194638833e-01  9.9808111847136138e-01  9.9823988372443739e-01  9.9837960168738094e-01  9.9849965526001583e-01  9.9859788619084766e-01  9.9867575542388753e-01  9.9873770464116751e-01  9.9878808263005536e-01  9.9882942385473872e-01  9.9886178053189334e-01  9.9888014855587481e-01  9.9887033578123630e-01  9.9880697154777431e-01  9.9865288123665086e-01  9.9835770639170418e-01  9.9102258256273557e-01  9.4455145627870429e-01  7.7201129593193163e-01  0.0000000000000000e+00  0.0000000000000000e+00  0.0000000000000000e+00  0.0000000000000000e+00  1.1515456422152613e-01  4.2608036899876467e-01  5.1388727709625082e-01  6.7180775546629778e-01  6.6980842472074398e-01  6.2561070256065776e-01  7.2611775020723601e-01  7.4300763762969713e-01  6.6789017495698466e-01  6.8030426878204220e-01  6.6176456504472814e-01  6.7200202158580147e-01  6.5920696145417446e-01  7.1742820471595559e-01  7.3289141119347856e-01  7.0118946013911898e-01  7.1886249403819980e-01  7.6964202431300033e-01  7.4811486809258509e-01  7.6329876316083123e-01  8.0579192630319763e-01  8.1260743455678841e-01  7.7926829551955523e-01  8.0933090376183703e-01  8.0851898079999684e-01  7.9568441360049946e-01  7.7279775758016678e-01  8.5391124531772722e-01  8.5315274646485229e-01  8.9528588065836423e-01  8.1298379440951563e-01  7.6362729664735063e-01  7.2068667500981609e-01  6.9227914823898484e-01  6.7791036734898402e-01  6.6702951519187403e-01  6.5100358281559623e-01  6.8077896278994310e-01  6.7991182553687290e-01  6.7680556443984352e-01  7.1560017607942583e-01  7.1247314653329041e-01  7.1778719054269613e-01  7.1761861728166665e-01  7.2551556544531970e-01  7.9880233400955258e-01  8.0167446237666573e-01  7.8382528311531585e-01  7.9001669399821273e-01  6.8961688834732826e-01  6.3106878829558244e-01  4.9397074527940782e-01  8.8857640242755373e-02  0.0000000000000000e+00  0.0000000000000000e+00  0.0000000000000000e+00  0.0000000000000000e+00  7.1861371428120224e-01  9.9046428853697666e-01  9.9293886273273824e-01  9.9388863979730624e-01  9.9429708182677390e-01  9.9435427231365181e-01  8.6934610166361725e-01  5.0553477081386089e-01  2.3702509762893570e-01  9.8219873051196172e-02  0.0000000000000000e+00  1.7768645129235472e-01  4.3895116350148861e-01  6.4579342166310549e-01  8.8273431317621254e-01  9.9574775691873441e-01  9.9593650508764020e-01  9.9608918352707454e-01  9.9408953349989071e-01  9.9629434927166050e-01  9.9618601250224637e-01  9.9574823733158813e-01  9.8997579550393588e-01  9.0180516654335419e-01  6.4091376666962496e-01  0.0000000000000000e+00  0.0000000000000000e+00  0.0000000000000000e+00  0.0000000000000000e+00  0.0000000000000000e+00  1.4025584533741856e-01  1.8728636695407672e-01  3.4792494729052309e-01  3.8982333509851053e-01  4.0498609174170852e-01  3.5077902611487127e-01  2.5280048344046857e-01  1.4517010876356845e-01  2.7049853497111481e-01  3.0373360436644165e-01  4.0096924976393583e-01  2.8607978098756875e-0