<?xml version="1.0"?>
<VTKFile type="UnstructuredGrid"  version="0.1"  >
<UnstructuredGrid>
<Piece  NumberOfPoints="7161" NumberOfCells="13800">
<Points>
<DataArray  type="Float64"  NumberOfComponents="3"  format="ascii">0 0 0  0.01652173913043478 0 0  0.03304347826086956 0 0  0.04956521739130434 0 0  0.06608695652173913 0 0  0.08260869565217391 0 0  0.09913043478260869 0 0  0.1156521739130435 0 0  0.1321739130434783 0 0  0.148695652173913 0 0  0.1652173913043478 0 0  0.1817391304347826 0 0  0.1982608695652174 0 0  0.2147826086956522 0 0  0.2313043478260869 0 0  0.2478260869565218 0 0  0.2643478260869565 0 0  0.2808695652173913 0 0  0.2973913043478261 0 0  0.3139130434782609 0 0  0.3304347826086956 0 0  0.3469565217391304 0 0  0.3634782608695652 0 0  0.3799999999999999 0 0  0.3965217391304348 0 0  0.4130434782608696 0 0  0.4295652173913043 0 0  0.4460869565217391 0 0  0.4626086956521739 0 0  0.4791304347826086 0 0  0.4956521739130435 0 0  0.5121739130434783 0 0  0.528695652173913 0 0  0.5452173913043478 0 0  0.5617391304347825 0 0  0.5782608695652174 0 0  0.5947826086956521 0 0  0.6113043478260869 0 0  0.6278260869565218 0 0  0.6443478260869565 0 0  0.6608695652173913 0 0  0.677391304347826 0 0  0.6939130434782609 0 0  0.7104347826086956 0 0  0.7269565217391304 0 0  0.7434782608695653 0 0  0.7599999999999999 0 0  0.7765217391304348 0 0  0.7930434782608695 0 0  0.8095652173913043 0 0  0.8260869565217391 0 0  0.8426086956521739 0 0  0.8591304347826086 0 0  0.8756521739130434 0 0  0.8921739130434783 0 0  0.908695652173913 0 0  0.9252173913043478 0 0  0.9417391304347826 0 0  0.9582608695652173 0 0  0.9747826086956521 0 0  0.991304347826087 0 0  1.007826086956522 0 0  1.024347826086957 0 0  1.040869565217391 0 0  1.057391304347826 0 0  1.073913043478261 0 0  1.090434782608696 0 0  1.10695652173913 0 0  1.123478260869565 0 0  1.14 0 0  1.156521739130435 0 0  1.17304347826087 0 0  1.189565217391304 0 0  1.206086956521739 0 0  1.222608695652174 0 0  1.239130434782609 0 0  1.255652173913044 0 0  1.272173913043478 0 0  1.288695652173913 0 0  1.305217391304348 0 0  1.321739130434783 0 0  1.338260869565217 0 0  1.354782608695652 0 0  1.371304347826087 0 0  1.387826086956522 0 0  1.404347826086957 0 0  1.420869565217391 0 0  1.437391304347826 0 0  1.453913043478261 0 0  1.470434782608696 0 0  1.486956521739131 0 0  1.503478260869565 0 0  1.52 0 0  1.536521739130435 0 0  1.55304347826087 0 0  1.569565217391304 0 0  1.586086956521739 0 0  1.602608695652174 0 0  1.619130434782609 0 0  1.635652173913043 0 0  1.652173913043478 0 0  1.668695652173913 0 0  1.685217391304348 0 0  1.701739130434782 0 0  1.718260869565217 0 0  1.734782608695652 0 0  1.751304347826087 0 0  1.767826086956522 0 0  1.784347826086957 0 0  1.800869565217391 0 0  1.817391304347826 0 0  1.833913043478261 0 0  1.850434782608696 0 0  1.86695652173913 0 0  1.883478260869565 0 0  1.9 0 0  1.916521739130435 0 0  1.933043478260869 0 0  1.949565217391304 0 0  1.966086956521739 0 0  1.982608695652174 0 0  1.999130434782608 0 0  2.015652173913043 0 0  2.032173913043478 0 0  2.048695652173913 0 0  2.065217391304348 0 0  2.081739130434782 0 0  2.098260869565217 0 0  2.114782608695652 0 0  2.131304347826087 0 0  2.147826086956522 0 0  2.164347826086956 0 0  2.180869565217391 0 0  2.197391304347826 0 0  2.213913043478261 0 0  2.230434782608695 0 0  2.24695652173913 0 0  2.263478260869565 0 0  2.28 0 0  2.296521739130434 0 0  2.31304347826087 0 0  2.329565217391304 0 0  2.346086956521739 0 0  2.362608695652174 0 0  2.379130434782609 0 0  2.395652173913044 0 0  2.412173913043478 0 0  2.428695652173913 0 0  2.445217391304348 0 0  2.461739130434782 0 0  2.478260869565217 0 0  2.494782608695652 0 0  2.511304347826087 0 0  2.527826086956522 0 0  2.544347826086956 0 0  2.560869565217391 0 0  2.577391304347826 0 0  2.593913043478261 0 0  2.610434782608696 0 0  2.62695652173913 0 0  2.643478260869565 0 0  2.66 0 0  2.676521739130435 0 0  2.693043478260869 0 0  2.709565217391304 0 0  2.726086956521739 0 0  2.742608695652174 0 0  2.759130434782609 0 0  2.775652173913044 0 0  2.792173913043478 0 0  2.808695652173913 0 0  2.825217391304347 0 0  2.841739130434783 0 0  2.858260869565217 0 0  2.874782608695652 0 0  2.891304347826087 0 0  2.907826086956522 0 0  2.924347826086957 0 0  2.940869565217391 0 0  2.957391304347826 0 0  2.973913043478261 0 0  2.990434782608696 0 0  3.006956521739131 0 0  3.023478260869565 0 0  3.04 0 0  3.056521739130435 0 0  3.073043478260869 0 0  3.089565217391304 0 0  3.106086956521739 0 0  3.122608695652174 0 0  3.139130434782609 0 0  3.155652173913043 0 0  3.172173913043478 0 0  3.188695652173913 0 0  3.205217391304347 0 0  3.221739130434782 0 0  3.238260869565217 0 0  3.254782608695652 0 0  3.271304347826087 0 0  3.287826086956521 0 0  3.304347826086957 0 0  3.320869565217391 0 0  3.337391304347826 0 0  3.353913043478261 0 0  3.370434782608696 0 0  3.386956521739131 0 0  3.403478260869565 0 0  3.419999999999999 0 0  3.436521739130435 0 0  3.453043478260869 0 0  3.469565217391304 0 0  3.486086956521739 0 0  3.502608695652174 0 0  3.519130434782609 0 0  3.535652173913043 0 0  3.552173913043478 0 0  3.568695652173913 0 0  3.585217391304347 0 0  3.601739130434782 0 0  3.618260869565217 0 0  3.634782608695652 0 0  3.651304347826087 0 0  3.667826086956521 0 0  3.684347826086956 0 0  3.700869565217391 0 0  3.717391304347826 0 0  3.733913043478261 0 0  3.750434782608695 0 0  3.766956521739131 0 0  3.783478260869565 0 0  3.8 0 0  0 0.01666666666666667 0  0.01652173913043478 0.01666666666666667 0  0.03304347826086956 0.01666666666666667 0  0.04956521739130434 0.01666666666666667 0  0.06608695652173913 0.01666666666666667 0  0.08260869565217391 0.01666666666666667 0  0.09913043478260869 0.01666666666666667 0  0.1156521739130435 0.01666666666666667 0  0.1321739130434783 0.01666666666666667 0  0.148695652173913 0.01666666666666667 0  0.1652173913043478 0.01666666666666667 0  0.1817391304347826 0.01666666666666667 0  0.1982608695652174 0.01666666666666667 0  0.2147826086956522 0.01666666666666667 0  0.2313043478260869 0.01666666666666667 0  0.2478260869565218 0.01666666666666667 0  0.2643478260869565 0.01666666666666667 0  0.2808695652173913 0.01666666666666667 0  0.2973913043478261 0.01666666666666667 0  0.3139130434782609 0.01666666666666667 0  0.3304347826086956 0.01666666666666667 0  0.3469565217391304 0.01666666666666667 0  0.3634782608695652 0.01666666666666667 0  0.3799999999999999 0.01666666666666667 0  0.3965217391304348 0.01666666666666667 0  0.4130434782608696 0.01666666666666667 0  0.4295652173913043 0.01666666666666667 0  0.4460869565217391 0.01666666666666667 0  0.4626086956521739 0.01666666666666667 0  0.4791304347826086 0.01666666666666667 0  0.4956521739130435 0.01666666666666667 0  0.5121739130434783 0.01666666666666667 0  0.528695652173913 0.01666666666666667 0  0.5452173913043478 0.01666666666666667 0  0.5617391304347825 0.01666666666666667 0  0.5782608695652174 0.01666666666666667 0  0.5947826086956521 0.01666666666666667 0  0.6113043478260869 0.01666666666666667 0  0.6278260869565218 0.01666666666666667 0  0.6443478260869565 0.01666666666666667 0  0.6608695652173913 0.01666666666666667 0  0.677391304347826 0.01666666666666667 0  0.6939130434782609 0.01666666666666667 0  0.7104347826086956 0.01666666666666667 0  0.7269565217391304 0.01666666666666667 0  0.7434782608695653 0.01666666666666667 0  0.7599999999999999 0.01666666666666667 0  0.7765217391304348 0.01666666666666667 0  0.7930434782608695 0.01666666666666667 0  0.8095652173913043 0.01666666666666667 0  0.8260869565217391 0.01666666666666667 0  0.8426086956521739 0.01666666666666667 0  0.8591304347826086 0.01666666666666667 0  0.8756521739130434 0.01666666666666667 0  0.8921739130434783 0.01666666666666667 0  0.908695652173913 0.01666666666666667 0  0.9252173913043478 0.01666666666666667 0  0.9417391304347826 0.01666666666666667 0  0.9582608695652173 0.01666666666666667 0  0.9747826086956521 0.01666666666666667 0  0.991304347826087 0.01666666666666667 0  1.007826086956522 0.01666666666666667 0  1.024347826086957 0.01666666666666667 0  1.040869565217391 0.01666666666666667 0  1.057391304347826 0.01666666666666667 0  1.073913043478261 0.01666666666666667 0  1.090434782608696 0.01666666666666667 0  1.10695652173913 0.01666666666666667 0  1.123478260869565 0.01666666666666667 0  1.14 0.01666666666666667 0  1.156521739130435 0.01666666666666667 0  1.17304347826087 0.01666666666666667 0  1.189565217391304 0.01666666666666667 0  1.206086956521739 0.01666666666666667 0  1.222608695652174 0.01666666666666667 0  1.239130434782609 0.01666666666666667 0  1.255652173913044 0.01666666666666667 0  1.272173913043478 0.01666666666666667 0  1.288695652173913 0.01666666666666667 0  1.305217391304348 0.01666666666666667 0  1.321739130434783 0.01666666666666667 0  1.338260869565217 0.01666666666666667 0  1.354782608695652 0.01666666666666667 0  1.371304347826087 0.01666666666666667 0  1.387826086956522 0.01666666666666667 0  1.404347826086957 0.01666666666666667 0  1.420869565217391 0.01666666666666667 0  1.437391304347826 0.01666666666666667 0  1.453913043478261 0.01666666666666667 0  1.470434782608696 0.01666666666666667 0  1.486956521739131 0.01666666666666667 0  1.503478260869565 0.01666666666666667 0  1.52 0.01666666666666667 0  1.536521739130435 0.01666666666666667 0  1.55304347826087 0.01666666666666667 0  1.569565217391304 0.01666666666666667 0  1.586086956521739 0.01666666666666667 0  1.602608695652174 0.01666666666666667 0  1.619130434782609 0.01666666666666667 0  1.635652173913043 0.01666666666666667 0  1.652173913043478 0.01666666666666667 0  1.668695652173913 0.01666666666666667 0  1.685217391304348 0.01666666666666667 0  1.701739130434782 0.01666666666666667 0  1.718260869565217 0.01666666666666667 0  1.734782608695652 0.01666666666666667 0  1.751304347826087 0.01666666666666667 0  1.767826086956522 0.01666666666666667 0  1.784347826086957 0.01666666666666667 0  1.800869565217391 0.0166666666666666
[...]
<PointData  Scalars="rho_bar"> 
<DataArray  type="Float64"  Name="rho_bar"  format="ascii">9.7113422732886867e-01  9.7045912833601466e-01  9.6992331955364974e-01  9.6929875065909066e-01  9.6849975579608971e-01  9.6748420654873901e-01  9.6624376731087669e-01  9.6480922930580826e-01  9.6325852126975453e-01  9.6171491032975920e-01  9.6033195386994441e-01  9.5926653716270216e-01  9.5864698250709934e-01  9.5854641039086241e-01  9.5897100397800061e-01  9.5986562656841723e-01  9.6113319726225643e-01  9.6265914627780047e-01  9.6433368969267530e-01  9.6606678874726626e-01  9.6779353914728472e-01  9.6947122865418411e-01  9.7107281692584480e-01  9.7257842363232982e-01  9.7396577413446783e-01  9.7520133428904809e-01  9.7623582825178223e-01  9.7700504770643770e-01  9.7743470405507904e-01  9.7744762886926517e-01  9.7697344271869158e-01  9.7596082395866235e-01  9.7439343505492193e-01  9.7230777783764455e-01  9.6980521219485472e-01  9.6704407391373726e-01  9.6421010674372487e-01  9.6148119418132327e-01  9.5899874633559812e-01  9.5685093696737056e-01  9.5506934845261571e-01  9.5363655726559138e-01  9.5249978839069460e-01  9.5158551419168214e-01  9.5081258972189964e-01  9.5009988284173974e-01  9.4937250413630947e-01  9.4856947931342450e-01  9.4764612978004026e-01  9.4656917006162222e-01  9.4530976264080191e-01  9.4383899132438143e-01  9.4212944017399269e-01  9.4016380215052531e-01  9.3795015116581149e-01  9.3553771410570774e-01  9.3302874021601967e-01  9.3058600761221399e-01  9.2842627711619752e-01  9.2677764212336611e-01  9.2581013343808538e-01  9.2558857184666066e-01  9.2607508019140450e-01  9.2716368381746850e-01  9.2871986136877283e-01  9.3061098305220513e-01  9.3272449246412970e-01  9.3496925098303707e-01  9.3726563122316309e-01  9.3954210688361028e-01  9.4174790959944565e-01  9.4385930337027057e-01  9.4586558795045628e-01  9.4774427002275130e-01  9.4943947591916422e-01  9.5085257794426381e-01  9.5184807303915653e-01  9.5226698257023135e-01  9.5194241005103242e-01  9.5072287344007711e-01  9.4851275290760240e-01  9.4533055060200910e-01  9.4137005861256007e-01  9.3701405661382542e-01  9.3277168596940807e-01  9.2916161859410773e-01  9.2658177000031494e-01  9.2522273504916630e-01  9.2504702578164444e-01  9.2581994206076401e-01  9.2718915368066146e-01  9.2877936130409289e-01  9.3025468767936759e-01  9.3134427601503011e-01  9.3184713449750323e-01  9.3162273112451732e-01  9.3057300522335140e-01  9.2862849838501982e-01  9.2575231432353877e-01  9.2196041405994644e-01  9.1734932147240134e-01  9.1212119420154214e-01  9.0660988930644160e-01  9.0127265338642593e-01  8.9660811658643380e-01  8.9304108322877107e-01  8.9085417818813795e-01  8.9016880778154783e-01  8.9094603670886408e-01  8.9298799591009270e-01  8.9595670262218430e-01  8.9943896215671515e-01  9.0303269039442668e-01  9.0639001807310038e-01  9.0921436742836048e-01  9.1124754667631847e-01  9.1227003124487538e-01  9.1211528379240414e-01  9.1069656872218907e-01  9.0803904367491806e-01  9.0431150078374312e-01  8.9983548588789286e-01  8.9502777857592253e-01  8.9027572635652075e-01  8.8583610030730331e-01  8.8182047250353124e-01  8.7824074143673514e-01  8.7503514583517783e-01  8.7209595613582136e-01  8.6931220045997526e-01  8.6661896562383600e-01  8.6402071725883212e-01  8.6154935891248674e-01  8.5919285505192700e-01  8.5689131029286270e-01  8.5456458202511698e-01  8.5212033736930393e-01  8.4943872279531041e-01  8.4639644806350822e-01  8.4297572391040132e-01  8.3930232326627818e-01  8.3550918332612800e-01  8.3164311297828419e-01  8.2764852358785757e-01  8.2341360665549745e-01  8.1886906946058358e-01  8.1410159609192945e-01  8.0936379950359094e-01  8.0492042150641530e-01  8.0087301659059840e-01  7.9712018915342508e-01  7.9342249668364973e-01  7.8949923233349417e-01  7.8512147032145996e-01  7.8021250392705455e-01  7.7492677373672825e-01  7.6957678940659846e-01  7.6443683786900773e-01  7.5965386777590993e-01  7.5521104187260124e-01  7.5098672725192683e-01  7.4684771563662478e-01  7.4274460291865640e-01  7.3875968081512866e-01  7.3510972699258992e-01  7.3204150985194871e-01  7.2965908520571643e-01  7.2784730900818595e-01  7.2625916531510204e-01  7.2446163613349368e-01  7.2218365135167994e-01  7.1941196009988806e-01  7.1644045523476008e-01  7.1372563202618133e-01  7.1160443540458629e-01  7.1024194420937403e-01  7.0968521590543832e-01  7.0990653647107349e-01  7.1080049828502800e-01  7.1212148971913214e-01  7.1337342945758586e-01  7.1375365598825180e-01  7.1234085362377153e-01  7.0829671136471639e-01  7.0065137853537029e-01  6.8813842665749747e-01  6.6856349398135939e-01  6.3895131029459429e-01  5.9620512692432348e-01  5.3808418620042231e-01  4.6430763562913457e-01  3.7825981491009159e-01  2.8902757739859802e-01  2.0907460934056871e-01  1.4668549703614620e-01  1.0253427234780155e-01  7.2585741845478044e-02  5.2385245203255319e-02  3.8572909668878649e-02  2.8923593913591623e-02  2.2024857385198892e-02  1.6983867138856534e-02  1.3228923347986256e-02  1.0386211196833833e-02  8.2052839322061793e-03  6.5140750255924980e-03  5.1914314456608882e-03  4.1500967451711755e-03  3.3259310041118609e-03  2.6709464249748387e-03  2.1486997736299565e-03  1.7311721711570885e-03  1.3966138152338916e-03  1.1280116703826532e-03  9.1198766336584214e-04  7.3797441379880942e-04  5.9759535520809322e-04  4.8419319032890054e-04  3.9247553143953673e-04  3.1823651410125035e-04  2.5813582370903858e-04  2.0952301046040628e-04  1.7029576801331445e-04  1.3879011458376857e-04  1.1369252803335469e-04  9.3973768557611585e-05  7.8838234495625140e-05  6.7688791679017894e-05  6.0108299227779905e-05  5.5872675706171181e-05  5.5073146465809647e-05  9.6716013586656657e-01  9.6684196991828553e-01  9.6634619699815838e-01  9.6567779801631703e-01  9.6478301990305126e-01  9.6362612846855267e-01  9.6219643706121949e-01  9.6052656611243248e-01  9.5870514888735159e-01  9.5687763637288747e-01  9.5522988131718778e-01  9.5395501128242322e-01  9.5321195072011478e-01  9.5309078133972691e-01  9.5359737694236779e-01  9.5466156719045259e-01  9.5616223553356650e-01  9.5795850675149297e-01  9.5991731489625387e-01  9.6193232149423202e-01  9.6392976261720886e-01  9.6586347605407175e-01  9.6770613069689282e-01  9.6943931598042532e-01  9.7104173113717751e-01  9.7247797484921539e-01  9.7369253134462397e-01  9.7461092601150445e-01  9.7514534425995558e-01  9.7520279107774610e-01  9.7469595317506641e-01  9.7355879309115967e-01  9.7176619986935575e-01  9.6935587410725921e-01  9.6644581507620608e-01  9.6322714358240236e-01  9.5992424941195087e-01  9.5675013692840594e-01  9.5387196159204979e-01  9.5139204098680685e-01  9.4934460456185166e-01  9.4770617890934949e-01  9.4641216132506978e-01  9.4537469722516076e-01  9.4449887382896203e-01  9.4369012077641212e-01  9.4285937437243394e-01  9.4193551604579295e-01  9.4086893451433895e-01  9.3962428945184651e-01  9.3817013797980198e-01  9.3647237804114614e-01  9.3449465134276122e-01  9.3220940050130985e-01  9.2961827770211125e-01  9.2677281071531836e-01  9.2378868436345918e-01  9.2086044023008073e-01  9.1826002012117525e-01  9.1628051698972668e-01  9.1513550782429109e-01  9.1489709449542811e-01  9.1550647088097969e-01  9.1682496198097851e-01  9.1868415721559893e-01  9.2092285591091194e-01  9.2340975231449862e-01  9.2604363342745344e-01  9.2873386857528517e-01  9.3139272108880489e-01  9.3395841627800924e-01  9.3640950506514653e-01  9.3874527970665089e-01  9.4095224823669754e-01  9.4297367404629795e-01  9.4469539059228080e-01  9.4595437718355624e-01  9.4655863417577568e-01  9.4630276558522608e-01  9.4499043846134445e-01  9.4247836888418668e-01  9.3875378832770739e-01  9.3403465870499203e-01  9.2880020458586876e-01  9.2369434615945323e-01  9.1936562738003202e-01  9.1630221084676755e-01  9.1473107968095335e-01  9.1460010086073629e-01  9.1561335266214416e-01  9.1733068561226250e-01  9.1929412660232934e-01  9.2110213458083323e-01  9.2243530026526166e-01  9.2306042862366655e-01  9.2281890418328849e-01  9.2159935660300552e-01  9.1931557178693202e-01  9.1591259666088209e-01  9.1139677413637488e-01  9.0587439291257510e-01  8.9958417152910586e-01  8.9293563904418749e-01  8.8650110118902370e-01  8.8090007909406376e-01  8.7664320644103677e-01  8.7405849890740739e-01  8.7328451716221078e-01  8.7427690226888699e-01  8.7680228122878945e-01  8.8044657266040016e-01  8.8469856868658558e-01  8.8907335704401946e-01  8.9316583437567454e-01  8.9663365192128830e-01  8.9917383146713448e-01  9.0052160230370715e-01  9.0046815067044994e-01  8.9889371498564552e-01  8.9581140028641448e-01  8.9141561794218926e-01  8.8610474029968700e-01  8.8040654576413091e-01  8.7480483827171907e-01  8.6960730223154503e-01  8.6493215209346908e-01  8.6078407726338946e-01  8.5708345846093015e-01  8.5369279640064000e-01  8.5046934678572350e-01  8.4732942909445896e-01  8.4428926258968906e-01  8.4140971605545900e-01  8.3868025103464916e-01  8.3602283840353275e-01  8.3334308859522077e-01  8.3054119253479641e-01  8.2747937984301345e-01  8.2398503205854978e-01  8.2001857133867906e-01  8.1576902398806916e-01  8.1142501106768550e-01  8.0704875217499994e-01  8.0256449864319401e-01  7.9781413744817109e-01  7.9267870708463350e-01  7.8724245183208530e-01  7.8183535606534804e-01  7.7681724685989639e-01  7.7232058399858361e-01  7.6820964630837674e-01  7.6418272502658025e-01  7.5989604464629990e-01  7.5506860261811326e-01  7.4958803786295258e-01  7.4362612087264002e-01  7.3757397891771981e-01  7.3175994701621738e-01  7.2636223254553023e-01  7.2135827642275274e-01  7.1659857863857401e-01  7.1191512602743723e-01  7.0724523052660182e-01  7.0268213137278868e-01  6.9848561943175969e-01  6.9497479157872766e-01  6.9228592522355070e-01  6.9030805638970960e-01  6.8865441150420248e-01  6.8680286737114693e-01  6.8443885333320320e-01  6.8153016713189485e-01  6.7840936846847888e-01  6.7564587653459762e-01  6.7363062763487003e-01  6.7253439791047764e-01  6.7240266746916677e-01  6.7321910262700146e-01  6.7490634483118339e-01  6.7726449725701654e-01  6.7985381456221206e-01  6.8190900540546218e-01  6.8248249247868764e-01  6.8071421552375422e-01  6.7562028514852090e-01  6.6575160822949331e-01  6.4902573769879923e-01  6.2281259782458398e-01  5.8445123404934707e-01  5.3188785742792111e-01  4.6461455010357888e-01  3.8492286439298273e-01  2.9989840361564013e-01  2.2077240011831439e-01  1.5673549235884016e-01  1.1017396758081115e-01  7.8095946530605059e-02  5.6312305551114474e-02  4.1385858587320842e-02  3.0961066503911488e-02  2.3519379510768410e-02  1.8093524298187641e-02  1.4061967748393418e-02  1.1017788450560624e-02  8.6883602490586097e-03  6.8865163335551389e-03  5.4806648505928033e-03  4.3762083693684069e-03  3.5037816872400692e-03  2.8116289005318293e-03  2.2605592641224072e-03  1.8205347077857991e-03  1.4683033988197440e-03  1.1857326594344839e-03  9.5859845064206995e-04  7.7569734315703881e-04  6.2817056806803624e-04  5.0899476048453681e-04  4.1259602607409968e-04  3.3455195784827708e-04  2.7135489987624033e-04  2.2022331449757324e-04  1.7895330768426419e-04  1.4579987329786556e-04  1.1938608108750456e-04  9.8631851189563412e-05  8.2701155265204441e-05  7.0962815381708728e-05  6.2962209030668586e-05  5.8396798805111143e-05  5.7057745976187180e-05  9.5466666753389862e-01  9.5427701401864895e-01  9.5371922680753107e-01  9.5283914612043685e-01  9.5159033493057332e-01  9.4990045294011072e-01  9.4772928276078860e-01  9.4510520462961189e-01  9.4216446581023650e-01  9.3915824882302401e-01  9.3642017070817962e-01  9.3429901788586200e-01  9.3307708817092949e-01  9.3290466726352150e-01  9.3377523402611473e-01  9.3554628021350772e-01  9.3799163340874436e-01  9.4086038728583543e-01  9.4392624567215222e-01  9.4702116019109517e-01  9.5004178523576532e-01  9.5293242928045141e-01  9.5566902481317306e-01  9.5824469321564276e-01  9.6064901995391183e-01  9.6284304273240873e-01  9.6474705984176801e-01  9.6624594687035492e-01  9.6720123121504931e-01  9.6746184089950060e-01  9.6687824200094952e-01  9.6532396128690923e-01  9.6272334475962729e-01  9.5909680506755368e-01  9.5462015117953825e-01  9.4962361945386653e-01  9.4449440666862394e-01  9.3958747102566476e-01  9.3517147822519031e-01  9.3140267062567550e-01  9.2832376773196679e-01  9.2588532694657644e-01  9.2397596763065148e-01  9.2245029545806156e-01  9.2116017814552209e-01  9.1995938972098934e-01  9.1870173873191319e-01  9.1727720459522599e-01  9.1562155530317235e-01  9.1369560431843677e-01  9.1146122703020660e-01  9.0886573287767125e-01  9.0584023504725741e-01  9.0231854167985903e-01  8.9827927331036517e-01  8.9378565250415454e-01  8.8900215688424289e-01  8.8422569531662198e-01  8.7992349348960230e-01  8.7665033971138018e-01  8.7480756458773312e-01  8.7449827389905732e-01  8.7557617863130544e-01  8.7777203474698307e-01  8.8078777309059697e-01  8.8435152897076652e-01  8.8826256868866771e-01  8.9238914369525957e-01  8.9660621334809654e-01  9.0075529555459877e-01  9.0472495138027142e-01  9.0850850654618098e-01  9.1215430172163381e-01  9.1568817206263498e-01  9.1904723465943250e-01  9.2204867951962599e-01  9.2441791525168426e-01  9.2583701631693627e-01  9.2595307815618977e-01  9.2438251488226619e-01  9.2078245119814173e-01  9.1501484320058890e-01  9.0739011610538878e-01  8.9876675949984342e-01  8.9031736281384666e-01  8.8319618191021487e-01  8.7824508979839822e-01  8.7583142525211355e-01  8.7586048378655057e-01  8.7780701093345670e-01  8.8087830285046664e-01  8.8428814498061481e-01  8.8738092716511818e-01  8.8964623526364983e-01  8.9072373331409571e-01  8.9038877975839126e-01  8.8849194309185475e-01  8.8489901584288333e-01  8.7950685776928772e-01  8.7229946302990902e-01  8.6342777592378139e-01  8.5323066514555912e-01  8.4233246653453719e-01  8.3172444076045782e-01  8.2253799106406000e-01  8.1563455134821239e-01  8.1150419466070589e-01  8.1033384418931564e-01  8.1206556152198717e-01  8.1636461288573225e-01  8.2254742012499515e-01  8.2971263286929942e-01  8.3705831838839551e-01  8.4398154900108713e-01  8.4998124509964035e-01  8.5458099028882151e-01  8.5733483374813091e-01  8.5786208709053935e-01  8.5591098354637951e-01  8.5143189466817437e-01  8.4467936587773129e-01  8.3632507649688592e-01  8.2735187969834878e-01  8.1862910084794238e-01  8.1066520329592895e-01  8.0359783175433852e-01  7.9740275249801407e-01  7.9193376533931481e-01  7.8693885122114693e-01  7.8214678289570838e-01  7.7738979350413329e-01  7.7273082021695250e-01  7.6837993909691971e-01  7.6432903985213707e-01  7.6041186909700487e-01  7.5647799008836225e-01  7.5241925815418442e-01  7.4805736502239784e-01  7.4300306128310312e-01  7.3708462255189977e-01  7.3080523232791439e-01  7.2459235468761285e-01  7.1856008840653196e-01  7.1254748964447401e-01  7.0621254933803879e-01  6.9922422240735171e-01  6.9164437555355107e-01  6.8412078151419531e-01  6.7739676564753926e-01  6.7168859952916005e-01  6.6669493336679930e-01  6.6187387771202588e-01  6.5667129132385715e-01  6.5065498557786883e-01  6.4364306844324248e-01  6.3583498668267369e-01  6.2784717581442540e-01  6.2014549650364825e-01  6.1298875616611226e-01  6.0634378615805040e-01  6.0000090457456268e-01  5.9369272489929714e-01  5.8733114981150258e-01  5.8108356910339931e-01  5.7532612555817342e-01  5.7057568986023943e-01  5.6703690746212188e-01  5.6457609165528599e-01  5.6277504905082598e-01  5.6093342323640794e-01  5.5865946379412212e-01  5.5590157791981420e-01  5.5302251803299363e-01  5.5084938884663937e-01  5.4990112699195626e-01  5.5034013492246414e-01  5.5220696699838834e-01  5.5553598760918244e-01  5.6036149932165569e-01  5.6662398426689420e-01  5.7404381540205518e-01  5.8200169035070748e-01  5.8957230284678730e-01  5.9567721044657407e-01  5.9899734649927250e-01  5.9776026438959984e-01  5.8999544789280078e-01  5.7383160819257295e-01  5.4771602453941848e-01  5.1027309956096878e-01  4.6045282789161490e-01  3.9838044612650858e-01  3.2708147044946856e-01  2.5375019667989424e-01  1.8766186050998562e-01  1.3506541583567713e-01  9.6578128941297345e-02  6.9636618344415493e-02  5.0947391237239723e-02  3.7863750312267692e-02  2.8553614376441393e-02  2.1806524132551457e-02  1.6830709251947053e-02  1.3103746587302201e-02  1.0274913367366367e-02  8.1038221134008461e-03  6.4221877301786504e-03  5.1098158451023633e-03  4.0792654764531993e-03  3.2658734350380172e-03  2.6211320442686968e-03  2.1082077497100271e-03  1.6988494222061254e-03  1.3712091314193727e-03  1.1082873659699999e-03  8.9679050462997752e-04  7.2628615726875610e-04  5.8855821339221025e-04  4.7712373331020518e-04  3.8686039760500490e-04  3.1372016305458088e-04  2.5450090386704328e-04  2.0666870797037411e-04  1.6821913622684886e-04  1.3756922710729934e-04  1.1347577814531413e-04  9.4973200967272568e-05  8.1327954771557188e-05  7.2003633900409901e-05  6.6631442820122699e-05  6.4977313599920498e-05  9.2453601449865352e-01  9.2423604743188514e-01  9.2337619048074260e-01  9.2196736492649201e-01  9.1981473443080330e-01  9.1676226922724957e-01  9.1268439812670366e-01  9.0758837447394858e-01  9.0171844440612048e-01  8.9557931778222366e-01  8.8988393360627938e-01  8.8541495784533975e-01  8.8282388371202858e-01  8.8245543239344837e-01  8.8428032542415314e-01  8.8795301166465468e-01  8.9294921962999763e-01  8.9870836762379880e-01  9.0473937552668127e-01  9.1070425081789896e-01  9.1643126320880808e-01  9.2184739916334912e-01  9.2694126154366507e-01  9.3174279448634156e-01  9.3627677977969903e-01  9.4049472903796760e-01  9.4425028561201196e-01  9.4732545317281214e-01  9.4945910838646197e-01  9.5035665791602986e-01  9.4970554854587652e-01  9.4721009338164452e-01  9.4264772681430320e-01  9.3597576375858760e-01  9.2749974636524679e-01  9.1792289679550110e-01  9.0807095322088915e-01  8.9867453684845700e-01  8.9027014588450260e-01  8.8315846137189224e-01  8.7740259840861234e-01  8.7288100664092738e-01  8.6936255396474438e-01  8.6654394816870872e-01  8.6414402584220928e-01  8.6190763266685166e-01  8.5952519216899026e-01  8.5677553564679154e-01  8.5356731802490871e-01  8.4986852137597757e-01  8.4563749633760854e-01  8.4078162012421087e-01  8.3514189881342593e-01  8.2852080603647149e-01  8.2079606145110484e-01  8.1204544111757182e-01  8.0253623699379872e-01  7.9278781599376336e-01  7.8381999698972660e-01  7.7704407688752031e-01  7.7342727689562840e-01  7.7307452927938258e-01  7.7550328791130596e-01  7.8005621300916206e-01  7.8609352464443516e-01  7.9304774397322286e-01  8.0054420099264278e-01  8.0842267182216498e-01  8.1653111511451848e-01  8.2448688334190512e-01  8.3199115394276812e-01  8.3909673079641145e-01  8.4603011579642029e-01  8.5297873603512397e-01  8.5992121961097867e-01  8.6650937076070533e-01  8.7214194058116301e-01  8.7616050750988128e-01  8.7783655801080418e-01  8.7628787795063068e-01  8.7058187821694799e-01  8.6006700971442929e-01  8.4506667130244484e-01  8.2749085995736460e-01  8.1018746049261026e-01  7.9576951172725918e-01  7.8597013773377900e-01  7.8142751242746467e-01  7.8192062764600423e-01  7.8635372054227559e-01  7.9296816795628733e-01  8.0011551480547871e-01  8.0651286037239667e-01  8.1116020372837883e-01  8.1335648615133826e-01  8.1272616815072507e-01  8.0906301889681365e-01  8.0210055485320964e-01  7.9156311988028749e-01  7.7730940341967647e-01  7.5964412865777464e-01  7.3921759562043687e-01  7.1731903807425368e-01  6.9627526261764550e-01  6.7866280114065913e-01  6.6594993440993744e-01  6.5866112892814677e-01  6.5688296806340618e-01  6.6050806407507723e-01  6.6911486579758794e-01  6.8149831056683652e-01  6.9578475680093033e-01  7.1043791300742054e-01  7.2448708886846636e-01  7.3710525563332263e-01  7.4737187974590569e-01  7.5436005311610188e-01  7.5720245634082661e-01  7.5525352122460510e-01  7.4825284112461488e-01  7.3654492647838077e-01  7.2154540561064751e-01  7.0553701576585293e-01  6.9028663331581741e-01  6.7665606881698448e-01  6.6479457216269588e-01  6.5455935485335626e-01  6.4563566841052977e-01  6.3754323576078087e-01  6.2976935626580122e-01  6.2199928947595906e-01  6.1431798806997406e-01  6.0726098295691822e-01  6.0084106019462269e-01  5.9468257904674005e-01  5.8853917296028480e-01  5.82331574792