<?xml version="1.0"?>
<VTKFile type="UnstructuredGrid"  version="0.1"  >
<UnstructuredGrid>
<Piece  NumberOfPoints="7161" NumberOfCells="13800">
<Points>
<DataArray  type="Float64"  NumberOfComponents="3"  format="ascii">0 0 0  0.01652173913043478 0 0  0.03304347826086956 0 0  0.04956521739130434 0 0  0.06608695652173913 0 0  0.08260869565217391 0 0  0.09913043478260869 0 0  0.1156521739130435 0 0  0.1321739130434783 0 0  0.148695652173913 0 0  0.1652173913043478 0 0  0.1817391304347826 0 0  0.1982608695652174 0 0  0.2147826086956522 0 0  0.2313043478260869 0 0  0.2478260869565218 0 0  0.2643478260869565 0 0  0.2808695652173913 0 0  0.2973913043478261 0 0  0.3139130434782609 0 0  0.3304347826086956 0 0  0.3469565217391304 0 0  0.3634782608695652 0 0  0.3799999999999999 0 0  0.3965217391304348 0 0  0.4130434782608696 0 0  0.4295652173913043 0 0  0.4460869565217391 0 0  0.4626086956521739 0 0  0.4791304347826086 0 0  0.4956521739130435 0 0  0.5121739130434783 0 0  0.528695652173913 0 0  0.5452173913043478 0 0  0.5617391304347825 0 0  0.5782608695652174 0 0  0.5947826086956521 0 0  0.6113043478260869 0 0  0.6278260869565218 0 0  0.6443478260869565 0 0  0.6608695652173913 0 0  0.677391304347826 0 0  0.6939130434782609 0 0  0.7104347826086956 0 0  0.7269565217391304 0 0  0.7434782608695653 0 0  0.7599999999999999 0 0  0.7765217391304348 0 0  0.7930434782608695 0 0  0.8095652173913043 0 0  0.8260869565217391 0 0  0.8426086956521739 0 0  0.8591304347826086 0 0  0.8756521739130434 0 0  0.8921739130434783 0 0  0.908695652173913 0 0  0.9252173913043478 0 0  0.9417391304347826 0 0  0.9582608695652173 0 0  0.9747826086956521 0 0  0.991304347826087 0 0  1.007826086956522 0 0  1.024347826086957 0 0  1.040869565217391 0 0  1.057391304347826 0 0  1.073913043478261 0 0  1.090434782608696 0 0  1.10695652173913 0 0  1.123478260869565 0 0  1.14 0 0  1.156521739130435 0 0  1.17304347826087 0 0  1.189565217391304 0 0  1.206086956521739 0 0  1.222608695652174 0 0  1.239130434782609 0 0  1.255652173913044 0 0  1.272173913043478 0 0  1.288695652173913 0 0  1.305217391304348 0 0  1.321739130434783 0 0  1.338260869565217 0 0  1.354782608695652 0 0  1.371304347826087 0 0  1.387826086956522 0 0  1.404347826086957 0 0  1.420869565217391 0 0  1.437391304347826 0 0  1.453913043478261 0 0  1.470434782608696 0 0  1.486956521739131 0 0  1.503478260869565 0 0  1.52 0 0  1.536521739130435 0 0  1.55304347826087 0 0  1.569565217391304 0 0  1.586086956521739 0 0  1.602608695652174 0 0  1.619130434782609 0 0  1.635652173913043 0 0  1.652173913043478 0 0  1.668695652173913 0 0  1.685217391304348 0 0  1.701739130434782 0 0  1.718260869565217 0 0  1.734782608695652 0 0  1.751304347826087 0 0  1.767826086956522 0 0  1.784347826086957 0 0  1.800869565217391 0 0  1.817391304347826 0 0  1.833913043478261 0 0  1.850434782608696 0 0  1.86695652173913 0 0  1.883478260869565 0 0  1.9 0 0  1.916521739130435 0 0  1.933043478260869 0 0  1.949565217391304 0 0  1.966086956521739 0 0  1.982608695652174 0 0  1.999130434782608 0 0  2.015652173913043 0 0  2.032173913043478 0 0  2.048695652173913 0 0  2.065217391304348 0 0  2.081739130434782 0 0  2.098260869565217 0 0  2.114782608695652 0 0  2.131304347826087 0 0  2.147826086956522 0 0  2.164347826086956 0 0  2.180869565217391 0 0  2.197391304347826 0 0  2.213913043478261 0 0  2.230434782608695 0 0  2.24695652173913 0 0  2.263478260869565 0 0  2.28 0 0  2.296521739130434 0 0  2.31304347826087 0 0  2.329565217391304 0 0  2.346086956521739 0 0  2.362608695652174 0 0  2.379130434782609 0 0  2.395652173913044 0 0  2.412173913043478 0 0  2.428695652173913 0 0  2.445217391304348 0 0  2.461739130434782 0 0  2.478260869565217 0 0  2.494782608695652 0 0  2.511304347826087 0 0  2.527826086956522 0 0  2.544347826086956 0 0  2.560869565217391 0 0  2.577391304347826 0 0  2.593913043478261 0 0  2.610434782608696 0 0  2.62695652173913 0 0  2.643478260869565 0 0  2.66 0 0  2.676521739130435 0 0  2.693043478260869 0 0  2.709565217391304 0 0  2.726086956521739 0 0  2.742608695652174 0 0  2.759130434782609 0 0  2.775652173913044 0 0  2.792173913043478 0 0  2.808695652173913 0 0  2.825217391304347 0 0  2.841739130434783 0 0  2.858260869565217 0 0  2.874782608695652 0 0  2.891304347826087 0 0  2.907826086956522 0 0  2.924347826086957 0 0  2.940869565217391 0 0  2.957391304347826 0 0  2.973913043478261 0 0  2.990434782608696 0 0  3.006956521739131 0 0  3.023478260869565 0 0  3.04 0 0  3.056521739130435 0 0  3.073043478260869 0 0  3.089565217391304 0 0  3.106086956521739 0 0  3.122608695652174 0 0  3.139130434782609 0 0  3.155652173913043 0 0  3.172173913043478 0 0  3.188695652173913 0 0  3.205217391304347 0 0  3.221739130434782 0 0  3.238260869565217 0 0  3.254782608695652 0 0  3.271304347826087 0 0  3.287826086956521 0 0  3.304347826086957 0 0  3.320869565217391 0 0  3.337391304347826 0 0  3.353913043478261 0 0  3.370434782608696 0 0  3.386956521739131 0 0  3.403478260869565 0 0  3.419999999999999 0 0  3.436521739130435 0 0  3.453043478260869 0 0  3.469565217391304 0 0  3.486086956521739 0 0  3.502608695652174 0 0  3.519130434782609 0 0  3.535652173913043 0 0  3.552173913043478 0 0  3.568695652173913 0 0  3.585217391304347 0 0  3.601739130434782 0 0  3.618260869565217 0 0  3.634782608695652 0 0  3.651304347826087 0 0  3.667826086956521 0 0  3.684347826086956 0 0  3.700869565217391 0 0  3.717391304347826 0 0  3.733913043478261 0 0  3.750434782608695 0 0  3.766956521739131 0 0  3.783478260869565 0 0  3.8 0 0  0 0.01666666666666667 0  0.01652173913043478 0.01666666666666667 0  0.03304347826086956 0.01666666666666667 0  0.04956521739130434 0.01666666666666667 0  0.06608695652173913 0.01666666666666667 0  0.08260869565217391 0.01666666666666667 0  0.09913043478260869 0.01666666666666667 0  0.1156521739130435 0.01666666666666667 0  0.1321739130434783 0.01666666666666667 0  0.148695652173913 0.01666666666666667 0  0.1652173913043478 0.01666666666666667 0  0.1817391304347826 0.01666666666666667 0  0.1982608695652174 0.01666666666666667 0  0.2147826086956522 0.01666666666666667 0  0.2313043478260869 0.01666666666666667 0  0.2478260869565218 0.01666666666666667 0  0.2643478260869565 0.01666666666666667 0  0.2808695652173913 0.01666666666666667 0  0.2973913043478261 0.01666666666666667 0  0.3139130434782609 0.01666666666666667 0  0.3304347826086956 0.01666666666666667 0  0.3469565217391304 0.01666666666666667 0  0.3634782608695652 0.01666666666666667 0  0.3799999999999999 0.01666666666666667 0  0.3965217391304348 0.01666666666666667 0  0.4130434782608696 0.01666666666666667 0  0.4295652173913043 0.01666666666666667 0  0.4460869565217391 0.01666666666666667 0  0.4626086956521739 0.01666666666666667 0  0.4791304347826086 0.01666666666666667 0  0.4956521739130435 0.01666666666666667 0  0.5121739130434783 0.01666666666666667 0  0.528695652173913 0.01666666666666667 0  0.5452173913043478 0.01666666666666667 0  0.5617391304347825 0.01666666666666667 0  0.5782608695652174 0.01666666666666667 0  0.5947826086956521 0.01666666666666667 0  0.6113043478260869 0.01666666666666667 0  0.6278260869565218 0.01666666666666667 0  0.6443478260869565 0.01666666666666667 0  0.6608695652173913 0.01666666666666667 0  0.677391304347826 0.01666666666666667 0  0.6939130434782609 0.01666666666666667 0  0.7104347826086956 0.01666666666666667 0  0.7269565217391304 0.01666666666666667 0  0.7434782608695653 0.01666666666666667 0  0.7599999999999999 0.01666666666666667 0  0.7765217391304348 0.01666666666666667 0  0.7930434782608695 0.01666666666666667 0  0.8095652173913043 0.01666666666666667 0  0.8260869565217391 0.01666666666666667 0  0.8426086956521739 0.01666666666666667 0  0.8591304347826086 0.01666666666666667 0  0.8756521739130434 0.01666666666666667 0  0.8921739130434783 0.01666666666666667 0  0.908695652173913 0.01666666666666667 0  0.9252173913043478 0.01666666666666667 0  0.9417391304347826 0.01666666666666667 0  0.9582608695652173 0.01666666666666667 0  0.9747826086956521 0.01666666666666667 0  0.991304347826087 0.01666666666666667 0  1.007826086956522 0.01666666666666667 0  1.024347826086957 0.01666666666666667 0  1.040869565217391 0.01666666666666667 0  1.057391304347826 0.01666666666666667 0  1.073913043478261 0.01666666666666667 0  1.090434782608696 0.01666666666666667 0  1.10695652173913 0.01666666666666667 0  1.123478260869565 0.01666666666666667 0  1.14 0.01666666666666667 0  1.156521739130435 0.01666666666666667 0  1.17304347826087 0.01666666666666667 0  1.189565217391304 0.01666666666666667 0  1.206086956521739 0.01666666666666667 0  1.222608695652174 0.01666666666666667 0  1.239130434782609 0.01666666666666667 0  1.255652173913044 0.01666666666666667 0  1.272173913043478 0.01666666666666667 0  1.288695652173913 0.01666666666666667 0  1.305217391304348 0.01666666666666667 0  1.321739130434783 0.01666666666666667 0  1.338260869565217 0.01666666666666667 0  1.354782608695652 0.01666666666666667 0  1.371304347826087 0.01666666666666667 0  1.387826086956522 0.01666666666666667 0  1.404347826086957 0.01666666666666667 0  1.420869565217391 0.01666666666666667 0  1.437391304347826 0.01666666666666667 0  1.453913043478261 0.01666666666666667 0  1.470434782608696 0.01666666666666667 0  1.486956521739131 0.01666666666666667 0  1.503478260869565 0.01666666666666667 0  1.52 0.01666666666666667 0  1.536521739130435 0.01666666666666667 0  1.55304347826087 0.01666666666666667 0  1.569565217391304 0.01666666666666667 0  1.586086956521739 0.01666666666666667 0  1.602608695652174 0.01666666666666667 0  1.619130434782609 0.01666666666666667 0  1.635652173913043 0.01666666666666667 0  1.652173913043478 0.01666666666666667 0  1.668695652173913 0.01666666666666667 0  1.685217391304348 0.01666666666666667 0  1.701739130434782 0.01666666666666667 0  1.718260869565217 0.01666666666666667 0  1.734782608695652 0.01666666666666667 0  1.751304347826087 0.01666666666666667 0  1.767826086956522 0.01666666666666667 0  1.784347826086957 0.01666666666666667 0  1.800869565217391 0.0166666666666666
[...]
<PointData  Vectors="Displacement"> 
<DataArray  type="Float64"  Name="Displacement"  NumberOfComponents="3" format="ascii">0.0000000000000000e+00 0.0000000000000000e+00 0.0000000000000000e+00  4.0875688851173633e-06 2.5849597188751617e-06 0.0000000000000000e+00  7.7710035981595839e-06 5.0685311236600489e-06 0.0000000000000000e+00  1.1358239368205267e-05 8.4144334145005911e-06 0.0000000000000000e+00  1.4868048289649151e-05 1.2806873387514640e-05 0.0000000000000000e+00  1.8257524972725991e-05 1.8299508786996501e-05 0.0000000000000000e+00  2.1452584016710474e-05 2.4853258434469721e-05 0.0000000000000000e+00  2.4376090182362136e-05 3.2316695679293449e-05 0.0000000000000000e+00  2.6981873940324925e-05 4.0462543476953396e-05 0.0000000000000000e+00  2.9263493603906322e-05 4.9046238263647409e-05 0.0000000000000000e+00  3.1248744994311802e-05 5.7864148445016411e-05 0.0000000000000000e+00  3.2981929243154919e-05 6.6776170903747574e-05 0.0000000000000000e+00  3.4506614224859449e-05 7.5688276299247639e-05 0.0000000000000000e+00  3.5863947091575574e-05 8.4539380294382951e-05 0.0000000000000000e+00  3.7088441301592933e-05 9.3303109081390199e-05 0.0000000000000000e+00  3.8200753525124737e-05 1.0197521099151968e-04 0.0000000000000000e+00  3.9210300003209448e-05 1.1055106473363739e-04 0.0000000000000000e+00  4.0124486755873649e-05 1.1901491073062108e-04 0.0000000000000000e+00  4.0953197354511401e-05 1.2734971752693163e-04 0.0000000000000000e+00  4.1706506703418492e-05 1.3554650363465509e-04 0.0000000000000000e+00  4.2391700606183068e-05 1.4360179066675267e-04 0.0000000000000000e+00  4.3013957342962042e-05 1.5151115862734228e-04 0.0000000000000000e+00  4.3580188566823519e-05 1.5926573908955631e-04 0.0000000000000000e+00  4.4101661999749205e-05 1.6685658142038658e-04 0.0000000000000000e+00  4.4593743769963768e-05 1.7428024356426299e-04 0.0000000000000000e+00  4.5075165116378582e-05 1.8153985743949442e-04 0.0000000000000000e+00  4.5568968713379554e-05 1.8864388518746521e-04 0.0000000000000000e+00  4.6103940817442278e-05 1.9560811624981482e-04 0.0000000000000000e+00  4.6714949005269090e-05 2.0245983510285196e-04 0.0000000000000000e+00  4.7441385008355020e-05 2.0924336532398798e-04 0.0000000000000000e+00  4.8322372000710071e-05 2.1602448287685289e-04 0.0000000000000000e+00  4.9390436644725849e-05 2.2289207550711893e-04 0.0000000000000000e+00  5.0662145043244292e-05 2.2996003933065131e-04 0.0000000000000000e+00  5.2122140587523265e-05 2.3734940435317573e-04 0.0000000000000000e+00  5.3706575156389872e-05 2.4518295528349102e-04 0.0000000000000000e+00  5.5313335036143350e-05 2.5350280710333215e-04 0.0000000000000000e+00  5.6852960258495946e-05 2.6217899222136839e-04 0.0000000000000000e+00  5.8300827430413886e-05 2.7100909840717499e-04 0.0000000000000000e+00  5.9683412525850994e-05 2.7985106481572485e-04 0.0000000000000000e+00  6.1032115662562902e-05 2.8864817939041671e-04 0.0000000000000000e+00  6.2368746760136824e-05 2.9739194379720579e-04 0.0000000000000000e+00  6.3705734696293699e-05 3.0609499860718899e-04 0.0000000000000000e+00  6.5048317758984277e-05 3.1477455932119811e-04 0.0000000000000000e+00  6.6397637822474464e-05 3.2344593018318265e-04 0.0000000000000000e+00  6.7752793367270640e-05 3.3212138332875426e-04 0.0000000000000000e+00  6.9111756007241208e-05 3.4080947205644880e-04 0.0000000000000000e+00  7.0472322282234481e-05 3.4951430036749405e-04 0.0000000000000000e+00  7.1833001178274100e-05 3.5823674600304737e-04 0.0000000000000000e+00  7.3193162080603403e-05 3.6697662875258394e-04 0.0000000000000000e+00  7.4552727769809356e-05 3.7573383072899596e-04 0.0000000000000000e+00  7.5911984578726246e-05 3.8450863966910061e-04 0.0000000000000000e+00  7.7271358765335134e-05 3.9330220390159309e-04 0.0000000000000000e+00  7.8631080108902598e-05 4.0211640036020457e-04 0.0000000000000000e+00  7.9991130142202408e-05 4.1095301711557342e-04 0.0000000000000000e+00  8.1351490826515649e-05 4.1981346841512358e-04 0.0000000000000000e+00  8.2712255143556161e-05 4.2869922007423401e-04 0.0000000000000000e+00  8.4073536968013571e-05 4.3761202092683983e-04 0.0000000000000000e+00  8.5435341004217849e-05 4.4655384661498372e-04 0.0000000000000000e+00  8.6797414202436661e-05 4.5552663522701871e-04 0.0000000000000000e+00  8.8159212757433586e-05 4.6453167016425771e-04 0.0000000000000000e+00  8.9520126982953839e-05 4.7356910575593425e-04 0.0000000000000000e+00  9.0879760860529537e-05 4.8263818788126227e-04 0.0000000000000000e+00  9.2238094094846505e-05 4.9173781633679310e-04 0.0000000000000000e+00  9.3595560359600275e-05 5.0086720522614988e-04 0.0000000000000000e+00  9.4952941359550513e-05 5.1002672291615002e-04 0.0000000000000000e+00  9.6310864953503072e-05 5.1921839275968979e-04 0.0000000000000000e+00  9.7669192231510200e-05 5.2844505847613062e-04 0.0000000000000000e+00  9.9026834145319437e-05 5.3770853542777300e-04 0.0000000000000000e+00  1.0038225439540934e-04 5.4700800720541344e-04 0.0000000000000000e+00  1.0173430091059032e-04 5.5634002464770088e-04 0.0000000000000000e+00  1.0308270845889913e-04 5.6570001504706129e-04 0.0000000000000000e+00  1.0442809828439573e-04 5.7508394047799452e-04 0.0000000000000000e+00  1.0577178877664612e-04 5.8448937700455398e-04 0.0000000000000000e+00  1.0711554111337892e-04 5.9391631056000967e-04 0.0000000000000000e+00  1.0846090753362750e-04 6.0336779805726074e-04 0.0000000000000000e+00  1.0980822195657774e-04 6.1284892430993766e-04 0.0000000000000000e+00  1.1115650188504105e-04 6.2236344589357891e-04 0.0000000000000000e+00  1.1250471974552396e-04 6.3191196184378688e-04 0.0000000000000000e+00  1.1385294037523374e-04 6.4149370863511243e-04 0.0000000000000000e+00  1.1520232431519453e-04 6.5110928186611636e-04 0.0000000000000000e+00  1.1655449859476127e-04 6.6076199274843820e-04 0.0000000000000000e+00  1.1791095981275201e-04 6.7045777100351749e-04 0.0000000000000000e+00  1.1927267341089179e-04 6.8020461972079498e-04 0.0000000000000000e+00  1.2063940478061442e-04 6.9001207004975446e-04 0.0000000000000000e+00  1.2200862461366950e-04 6.9988915257577719e-04 0.0000000000000000e+00  1.2337461469716160e-04 7.0984027017407733e-04 0.0000000000000000e+00  1.2472843636576378e-04 7.1985990471750794e-04 0.0000000000000000e+00  1.2605973554413030e-04 7.2992757003233688e-04 0.0000000000000000e+00  1.2735992253883210e-04 7.4000522578031953e-04 0.0000000000000000e+00  1.2862525962860290e-04 7.5003726820230135e-04 0.0000000000000000e+00  1.2986490468142479e-04 7.5996301603685143e-04 0.0000000000000000e+00  1.3110446978022099e-04 7.6974776828931009e-04 0.0000000000000000e+00  1.3238691803590458e-04 7.7941222282232119e-04 0.0000000000000000e+00  1.3375342668413658e-04 7.8907561949972092e-04 0.0000000000000000e+00  1.3521000722674161e-04 7.9889807707244883e-04 0.0000000000000000e+00  1.3674469641858602e-04 8.0896628287556341e-04 0.0000000000000000e+00  1.3838640770017914e-04 8.1929481447843243e-04 0.0000000000000000e+00  1.4018435013422366e-04 8.2995419549341089e-04 0.0000000000000000e+00  1.4217769188403900e-04 8.4107701853156709e-04 0.0000000000000000e+00  1.4437745460742454e-04 8.5283214713697468e-04 0.0000000000000000e+00  1.4675996239696480e-04 8.6540154303371480e-04 0.0000000000000000e+00  1.4927382020348454e-04 8.7897797256219535e-04 0.0000000000000000e+00  1.5183201233021025e-04 8.9372375336613772e-04 0.0000000000000000e+00  1.5430329592631975e-04 9.0971625843644334e-04 0.0000000000000000e+00  1.5653924914558746e-04 9.2687385291121056e-04 0.0000000000000000e+00  1.5843264173096683e-04 9.4492176148783030e-04 0.0000000000000000e+00  1.5993511409833247e-04 9.6348643235788219e-04 0.0000000000000000e+00  1.6105313631548863e-04 9.8220782242058663e-04 0.0000000000000000e+00  1.6183901949040351e-04 1.0008110248499232e-03 0.0000000000000000e+00  1.6236513442510899e-04 1.0191243600147879e-03 0.0000000000000000e+00  1.6270048179343804e-04 1.0370717135326801e-03 0.0000000000000000e+00  1.6289876361398858e-04 1.0546343860224441e-03 0.0000000000000000e+00  1.6300772865504519e-04 1.0718093995989305e-03 0.0000000000000000e+00  1.6307856431258764e-04 1.0886102572251319e-03 0.0000000000000000e+00  1.6316777287872584e-04 1.1050739733263031e-03 0.0000000000000000e+00  1.6334155861016554e-04 1.1212562547876683e-03 0.0000000000000000e+00  1.6367855766094799e-04 1.1372419979990491e-03 0.0000000000000000e+00  1.6425490020777797e-04 1.1531740892415439e-03 0.0000000000000000e+00  1.6513200302369993e-04 1.1692384782674673e-03 0.0000000000000000e+00  1.6634931288307751e-04 1.1857396255878722e-03 0.0000000000000000e+00  1.6777031889845051e-04 1.2030229735628354e-03 0.0000000000000000e+00  1.6932319076488550e-04 1.2212361722707603e-03 0.0000000000000000e+00  1.7114822051606898e-04 1.2404747576742038e-03 0.0000000000000000e+00  1.7317869935699743e-04 1.2605607425951327e-03 0.0000000000000000e+00  1.7535795602620488e-04 1.2811273918649749e-03 0.0000000000000000e+00  1.7749105916344731e-04 1.3018868697263271e-03 0.0000000000000000e+00  1.7946330316716185e-04 1.3228101958544104e-03 0.0000000000000000e+00  1.8128252547421203e-04 1.3439950669479207e-03 0.0000000000000000e+00  1.8299528514836597e-04 1.3655314256719097e-03 0.0000000000000000e+00  1.8464090481350913e-04 1.3874640064182157e-03 0.0000000000000000e+00  1.8624466007977720e-04 1.4097960179923728e-03 0.0000000000000000e+00  1.8781888967624177e-04 1.4324998341670829e-03 0.0000000000000000e+00  1.8936581335610847e-04 1.4555298074178532e-03 0.0000000000000000e+00  1.9088249108812659e-04 1.4788364926525076e-03 0.0000000000000000e+00  1.9236601050701761e-04 1.5023767020349210e-03 0.0000000000000000e+00  1.9381607966370356e-04 1.5261144920368573e-03 0.0000000000000000e+00  1.9523334261572684e-04 1.5500158630728030e-03 0.0000000000000000e+00  1.9661709490077840e-04 1.5740457233780591e-03 0.0000000000000000e+00  1.9796550715148704e-04 1.5981704647611849e-03 0.0000000000000000e+00  1.9927713994467763e-04 1.6223622824014217e-03 0.0000000000000000e+00  2.0055321713627607e-04 1.6466000069469675e-03 0.0000000000000000e+00  2.0179704102181605e-04 1.6708631647334240e-03 0.0000000000000000e+00  2.0301075097533703e-04 1.6951264646763249e-03 0.0000000000000000e+00  2.0419547982021116e-04 1.7193601942526850e-03 0.0000000000000000e+00  2.0535286139064377e-04 1.7435322866451686e-03 0.0000000000000000e+00  2.0648412976024508e-04 1.7676063588836341e-03 0.0000000000000000e+00  2.0758788180802703e-04 1.7915401750811845e-03 0.0000000000000000e+00  2.0866034315739353e-04 1.8152926156194307e-03 0.0000000000000000e+00  2.0969858823192611e-04 1.8388345425528392e-03 0.0000000000000000e+00  2.1070279783928946e-04 1.8621518889247934e-03 0.0000000000000000e+00  2.1167606860226368e-04 1.8852384453132514e-03 0.0000000000000000e+00  2.1262230263364876e-04 1.9080843821730673e-03 0.0000000000000000e+00  2.1354424358604004e-04 1.9306677118821100e-03 0.0000000000000000e+00  2.1444239823920766e-04 1.9529522933557164e-03 0.0000000000000000e+00  2.1531525092876737e-04 1.9748937078616188e-03 0.0000000000000000e+00  2.1616076744544535e-04 1.9964491787142461e-03 0.0000000000000000e+00  2.1697739135748237e-04 2.0175844654083410e-03 0.0000000000000000e+00  2.1776450074856906e-04 2.0382760200826542e-03 0.0000000000000000e+00  2.1852246704357319e-04 2.0585098031020862e-03 0.0000000000000000e+00  2.1925246164914536e-04 2.0782785594942168e-03 0.0000000000000000e+00  2.1995619573844387e-04 2.0975788515496577e-03 0.0000000000000000e+00  2.2063543860692254e-04 2.1164076415833345e-03 0.0000000000000000e+00  2.2129137748007593e-04 2.1347591639063490e-03 0.0000000000000000e+00  2.2192478314848364e-04 2.1526241849735210e-03 0.0000000000000000e+00  2.2253625534238652e-04 2.1699911308824425e-03 0.0000000000000000e+00  2.2312631200091450e-04 2.1868467422288666e-03 0.0000000000000000e+00  2.2369572400329931e-04 2.2031777053170285e-03 0.0000000000000000e+00  2.2424598845240912e-04 2.2189734926502005e-03 0.0000000000000000e+00  2.2477977241500854e-04 2.2342300700733020e-03 0.0000000000000000e+00  2.2530089855689927e-04 2.2489532038414942e-03 0.0000000000000000e+00  2.2581345798939416e-04 2.2631590290713753e-03 0.0000000000000000e+00  2.2632048261821659e-04 2.2768704841506981e-03 0.0000000000000000e+00  2.2682336301683073e-04 2.2901120992700743e-03 0.0000000000000000e+00  2.2732195907056353e-04 2.3029069897420765e-03 0.0000000000000000e+00  2.2781408374875737e-04 2.3152742069506610e-03 0.0000000000000000e+00  2.2829463522705410e-04 2.3272221008552030e-03 0.0000000000000000e+00  2.2875574443635737e-04 2.3387393061305851e-03 0.0000000000000000e+00  2.2918830464505987e-04 2.3497878105079744e-03 0.0000000000000000e+00  2.2958491076660031e-04 2.3603008600592734e-03 0.0000000000000000e+00  2.2994369572889849e-04 2.3701897397703487e-03 0.0000000000000000e+00  2.3027256664546303e-04 2.3793649641015223e-03 0.0000000000000000e+00  2.3059408230755116e-04 2.3877816820009438e-03 0.0000000000000000e+00  2.3094490487487895e-04 2.3955184022081957e-03 0.0000000000000000e+00  2.3136640094314744e-04 2.4028074848059917e-03 0.0000000000000000e+00  2.3187330864375799e-04 2.4099086558867482e-03 0.0000000000000000e+00  2.3246399852511220e-04 2.4170025397640279e-03 0.0000000000000000e+00  2.3313644232296539e-04 2.4241857383391504e-03 0.0000000000000000e+00  2.3387835383907290e-04 2.4315471143534417e-03 0.0000000000000000e+00  2.3464996052567643e-04 2.4391867756637002e-03 0.0000000000000000e+00  2.3537623592733022e-04 2.4471423422505259e-03 0.0000000000000000e+00  2.3598169336063577e-04 2.4553834520667332e-03 0.0000000000000000e+00  2.3628740045605285e-04 2.4636822583127046e-03 0.0000000000000000e+00  2.3641990019152145e-04 2.4720047179341426e-03 0.0000000000000000e+00  2.3637499935838966e-04 2.4806523423577444e-03 0.0000000000000000e+00  2.3971946058969304e-04 2.4929278377269480e-03 0.0000000000000000e+00  2.5036542468519598e-04 2.5099849768651255e-03 0.0000000000000000e+00  2.5871173413258834e-04 2.5278546168579128e-03 0.0000000000000000e+00  2.6687420421329363e-04 2.5455031412240400e-03 0.0000000000000000e+00  2.7466158576232834e-04 2.5642652916149588e-03 0.0000000000000000e+00  2.8194505042414514e-04 2.5840726098486956e-03 0.0000000000000000e+00  2.8866167867494768e-04 2.6049771714662150e-03 0.0000000000000000e+00  2.9473443075495281e-04 2.6269924127380862e-03 0.0000000000000000e+00  3.0005690934719324e-04 2.6500803309567932e-03 0.0000000000000000e+00  3.0458621525396160e-04 2.6739938642450331e-03 0.0000000000000000e+00  3.0829987983912170e-04 2.6985904473707384e-03 0.0000000000000000e+00  3.1121173379676292e-04 2.7236520650205974e-03 0.0000000000000000e+00  3.1337542065483097e-04 2.7489842241579690e-03 0.0000000000000000e+00  3.1486236565770307e-04 2.7744410143454301e-03 0.0000000000000000e+00  3.1574568573111743e-04 2.7999133494159933e-03 0.0000000000000000e+00  3.1609476190601891e-04 2.8253135009017600e-03 0.0000000000000000e+00  3.1597560056827612e-04 2.8505663517638374e-03 0.0000000000000000e+00  3.1545304956471788e-04 2.8756057316112666e-03 0.0000000000000000e+00  3.1459343849968405e-04 2.9003732517074578e-03 0.0000000000000000e+00  3.1346575412268581e-04 2.9248212018049848e-03 0.0000000000000000e+00  3.1214057850217913e-04 2.9489163275954796e-03 0.0000000000000000e+00  3.1068760536728774e-04 2.9726418346951882e-03 0.0000000000000000e+00  3.0917291101890737e-04 2.9959971874840051e-03 0.0000000000000000e+00  3.0765670744918757e-04 3.0189964405407804e-03 0.0000000000000000e+00  3.0619178404472599e-04 3.0416659352793486e-03 0.0000000000000000e+00  3.0482255378350831e-04 3.0640418759114176e-03 0.0000000000000000e+00  3.0358453257344013e-04 3.0861680079271475e-03 0.0000000000000000e+00  3.0250409092153060e-04 3.1080934521650941e-03 0.0000000000000000e+00  3.0159835284105068e-04 3.1298706664170109e-03 0.0000000000000000e+00  3.0087514953647108e-04 3.1515534610620523e-03 0.0000000000000000e+00  3.0033296287030963e-04 3.1731949504611584e-03 0.0000000000000000e+00  2.9996082727491409e-04 3.1948452537381685e-03 0.0000000000000000e+00  2.9973821954979357e-04 3.2165486483898874e-03 0.0000000000000000e+00  2.9963509126490641e-04 3.2383397061646183e-03 0.0000000000000000e+00  2.9961247419890176e-04 3.2602376860270559e-03 0.0000000000000000e+00  2.9962480977943260e-04 3.2822383292964372e-03 0.0000000000000000e+00  2.9962871441662631e-04 3.3043060086769037e-03 0.0000000000000000e+00  0.0000000000000000e+00 0.0000000000000000e+00 0.0000000000000000e+00  2.3046644324316936e-06 1.2852010155811215e-06 0.0000000000000000e+00  4.9734666420166440e-06 3.7351322168383390e-06 0.0000000000000000e+00  7.5536586810246230e-06 7.0970361058902070e-06 0.0000000000000000e+00  1.0044413878426418e-05 1.1512275888242669e-05 0.0000000000000000e+00  1.2448441717607006e-05 1.7044677741639514e-05 0.0000000000000000e+00  1.4749363626580722e-05 2.3665279009774589e-05 0.0000000000000000e+00  1.6931187744730008e-05 3.1222602127615773e-05 0.0000000000000000e+00  1.8979796968525847e-05 3.9478339744521040e-05 0.0000000000000000e+00  2.0884778007779622e-05 4.8170480206822719e-05 0.0000000000000000e+00  2.2647951950649902e-05 5.7085620551298877e-05 0.0000000000000000e+00  2.4274486870415588e-05 6.6081601137898987e-05 0.0000000000000000e+00  2.5772894999341901e-05 7.5064306543045218e-05 0.0000000000000000e+00  2.7157592610788689e-05 8.3972525482447135e-05 0.0000000000000000e+00  2.8441585138854864e-05 9.2782589841238969e-05 0.0000000000000000e+00  2.9633525431192203e-05 1.0149610637686827e-04 0.0000000000000000e+00  3.0738605675092873e-05 1.1011204345437204e-04 0.0000000000000000e+00  3.1762323894571942e-05 1.1861315183333795e-04 0.0000000000000000e+00  3.2712500336119657e-05 1.2698073976765998e-04 0.0000000000000000e+00  3.3596425481859064e-05 1.3520658738126444e-04 0.0000000000000000e+00  3.4419086725105650e-05 1.4328891788140423e-04 0.0000000000000000e+00  3.5184172105561648e-05 1.5122396685628565e-04 0.0000000000000000e+00  3.5896914351958842e-05 1.5900145382912297e-04 0.0000000000000000e+00  3.6565401313829871e-05 1.6661048469089195e-04 0.0000000000000000e+00  3.7199888905985807e-05 1.7404642669152507e-04 0.0000000000000000e+00  3.7812397731340284e-05 1.8131144184850405e-04 0.0000000000000000e+00  3.8417848921180959e-05 1.8841222127194093e-04 0.0000000000000000e+00  3.9034982904144780e-05 1.9536215779972124e-04 0.0000000000000000e+00  3.9686500179411343e-05 2.0218605561621203e-04 0.0000000000000000e+00  4.0397887829555770e-05 2.0892652305888601e-04 0.0000000000000000e+00  4.1194871749416183e-05 2.1564892470797383e-04 0.0000000000000000e+00  4.2101044249796578e-05 2.2244516472568477e-04 0.0000000000000000e+00  4.3128181443383394e-05 2.2943488875074909e-04 0.0000000000000000e+00  4.4277741310670038e-05 2.3674580754639367e-04 0.0000000000000000e+00  4.5532536150759976e-05 2.4452936292729792e-04 0.0000000000000000e+00  4.6840211149738135e-05 2.5284973697139887e-04 0.0000000000000000e+00  4.8155577939052412e-05 2.6155096326851426e-04 0.0000000000000000e+00  4.9487556010397380e-05 2.7040546908094399e-04 0.0000000000000000e+00  5.0840933419610900e-05 2.7926207060621164e-04 0.0000000000000000e+00  5.2203836448045689e-05 2.8806583392484959e-04 0.0000000000000000e+00  5.3567800971291047e-05 2.9681146041151551e-04 0.0000000000000000e+00  5.4928939394561928e-05 3.0551417424894828e-04 0.0000000000000000e+00  5.6285917865251653e-05 3.1419260755930476e-04 0.0000000000000000e+00  5.7638946323195796e-05 3.2286263036996227e-04 0.0000000000000000e+00  5.8988831097083994e-05 3.3153693835726196e-04 0.0000000000000000e+00  6.0336284760622661e-05 3.4022448812579003e-04 0.0000000000000000e+00  6.1681824614449282e-05 3.4892937999131938e-04 0.0000000000000000e+00  6.3025869938062857e-05 3.5765220242422747e-04 0.0000000000000000e+00  6.4368654539522061e-05 3.6639256585304194e-04 0.0000000000000000e+00  6.5710223026691725e-05 3.7515024586864314e-04 0.0000000000000000e+00  6.7050580750763631e-05 3.8392539043737961e-04 0.0000000000000000e+00  6.8389764758240064e-05 3.9271912793196101e-04 0.0000000000000000e+00  6.9727754329064820e-05 4.0153347532545210e-04 0.0000000000000000e+