<?xml version="1.0"?>
<VTKFile type="UnstructuredGrid"  version="0.1"  >
<UnstructuredGrid>
<Piece  NumberOfPoints="7161" NumberOfCells="13800">
<Points>
<DataArray  type="Float64"  NumberOfComponents="3"  format="ascii">0 0 0  0.01652173913043478 0 0  0.03304347826086956 0 0  0.04956521739130434 0 0  0.06608695652173913 0 0  0.08260869565217391 0 0  0.09913043478260869 0 0  0.1156521739130435 0 0  0.1321739130434783 0 0  0.148695652173913 0 0  0.1652173913043478 0 0  0.1817391304347826 0 0  0.1982608695652174 0 0  0.2147826086956522 0 0  0.2313043478260869 0 0  0.2478260869565218 0 0  0.2643478260869565 0 0  0.2808695652173913 0 0  0.2973913043478261 0 0  0.3139130434782609 0 0  0.3304347826086956 0 0  0.3469565217391304 0 0  0.3634782608695652 0 0  0.3799999999999999 0 0  0.3965217391304348 0 0  0.4130434782608696 0 0  0.4295652173913043 0 0  0.4460869565217391 0 0  0.4626086956521739 0 0  0.4791304347826086 0 0  0.4956521739130435 0 0  0.5121739130434783 0 0  0.528695652173913 0 0  0.5452173913043478 0 0  0.5617391304347825 0 0  0.5782608695652174 0 0  0.5947826086956521 0 0  0.6113043478260869 0 0  0.6278260869565218 0 0  0.6443478260869565 0 0  0.6608695652173913 0 0  0.677391304347826 0 0  0.6939130434782609 0 0  0.7104347826086956 0 0  0.7269565217391304 0 0  0.7434782608695653 0 0  0.7599999999999999 0 0  0.7765217391304348 0 0  0.7930434782608695 0 0  0.8095652173913043 0 0  0.8260869565217391 0 0  0.8426086956521739 0 0  0.8591304347826086 0 0  0.8756521739130434 0 0  0.8921739130434783 0 0  0.908695652173913 0 0  0.9252173913043478 0 0  0.9417391304347826 0 0  0.9582608695652173 0 0  0.9747826086956521 0 0  0.991304347826087 0 0  1.007826086956522 0 0  1.024347826086957 0 0  1.040869565217391 0 0  1.057391304347826 0 0  1.073913043478261 0 0  1.090434782608696 0 0  1.10695652173913 0 0  1.123478260869565 0 0  1.14 0 0  1.156521739130435 0 0  1.17304347826087 0 0  1.189565217391304 0 0  1.206086956521739 0 0  1.222608695652174 0 0  1.239130434782609 0 0  1.255652173913044 0 0  1.272173913043478 0 0  1.288695652173913 0 0  1.305217391304348 0 0  1.321739130434783 0 0  1.338260869565217 0 0  1.354782608695652 0 0  1.371304347826087 0 0  1.387826086956522 0 0  1.404347826086957 0 0  1.420869565217391 0 0  1.437391304347826 0 0  1.453913043478261 0 0  1.470434782608696 0 0  1.486956521739131 0 0  1.503478260869565 0 0  1.52 0 0  1.536521739130435 0 0  1.55304347826087 0 0  1.569565217391304 0 0  1.586086956521739 0 0  1.602608695652174 0 0  1.619130434782609 0 0  1.635652173913043 0 0  1.652173913043478 0 0  1.668695652173913 0 0  1.685217391304348 0 0  1.701739130434782 0 0  1.718260869565217 0 0  1.734782608695652 0 0  1.751304347826087 0 0  1.767826086956522 0 0  1.784347826086957 0 0  1.800869565217391 0 0  1.817391304347826 0 0  1.833913043478261 0 0  1.850434782608696 0 0  1.86695652173913 0 0  1.883478260869565 0 0  1.9 0 0  1.916521739130435 0 0  1.933043478260869 0 0  1.949565217391304 0 0  1.966086956521739 0 0  1.982608695652174 0 0  1.999130434782608 0 0  2.015652173913043 0 0  2.032173913043478 0 0  2.048695652173913 0 0  2.065217391304348 0 0  2.081739130434782 0 0  2.098260869565217 0 0  2.114782608695652 0 0  2.131304347826087 0 0  2.147826086956522 0 0  2.164347826086956 0 0  2.180869565217391 0 0  2.197391304347826 0 0  2.213913043478261 0 0  2.230434782608695 0 0  2.24695652173913 0 0  2.263478260869565 0 0  2.28 0 0  2.296521739130434 0 0  2.31304347826087 0 0  2.329565217391304 0 0  2.346086956521739 0 0  2.362608695652174 0 0  2.379130434782609 0 0  2.395652173913044 0 0  2.412173913043478 0 0  2.428695652173913 0 0  2.445217391304348 0 0  2.461739130434782 0 0  2.478260869565217 0 0  2.494782608695652 0 0  2.511304347826087 0 0  2.527826086956522 0 0  2.544347826086956 0 0  2.560869565217391 0 0  2.577391304347826 0 0  2.593913043478261 0 0  2.610434782608696 0 0  2.62695652173913 0 0  2.643478260869565 0 0  2.66 0 0  2.676521739130435 0 0  2.693043478260869 0 0  2.709565217391304 0 0  2.726086956521739 0 0  2.742608695652174 0 0  2.759130434782609 0 0  2.775652173913044 0 0  2.792173913043478 0 0  2.808695652173913 0 0  2.825217391304347 0 0  2.841739130434783 0 0  2.858260869565217 0 0  2.874782608695652 0 0  2.891304347826087 0 0  2.907826086956522 0 0  2.924347826086957 0 0  2.940869565217391 0 0  2.957391304347826 0 0  2.973913043478261 0 0  2.990434782608696 0 0  3.006956521739131 0 0  3.023478260869565 0 0  3.04 0 0  3.056521739130435 0 0  3.073043478260869 0 0  3.089565217391304 0 0  3.106086956521739 0 0  3.122608695652174 0 0  3.139130434782609 0 0  3.155652173913043 0 0  3.172173913043478 0 0  3.188695652173913 0 0  3.205217391304347 0 0  3.221739130434782 0 0  3.238260869565217 0 0  3.254782608695652 0 0  3.271304347826087 0 0  3.287826086956521 0 0  3.304347826086957 0 0  3.320869565217391 0 0  3.337391304347826 0 0  3.353913043478261 0 0  3.370434782608696 0 0  3.386956521739131 0 0  3.403478260869565 0 0  3.419999999999999 0 0  3.436521739130435 0 0  3.453043478260869 0 0  3.469565217391304 0 0  3.486086956521739 0 0  3.502608695652174 0 0  3.519130434782609 0 0  3.535652173913043 0 0  3.552173913043478 0 0  3.568695652173913 0 0  3.585217391304347 0 0  3.601739130434782 0 0  3.618260869565217 0 0  3.634782608695652 0 0  3.651304347826087 0 0  3.667826086956521 0 0  3.684347826086956 0 0  3.700869565217391 0 0  3.717391304347826 0 0  3.733913043478261 0 0  3.750434782608695 0 0  3.766956521739131 0 0  3.783478260869565 0 0  3.8 0 0  0 0.01666666666666667 0  0.01652173913043478 0.01666666666666667 0  0.03304347826086956 0.01666666666666667 0  0.04956521739130434 0.01666666666666667 0  0.06608695652173913 0.01666666666666667 0  0.08260869565217391 0.01666666666666667 0  0.09913043478260869 0.01666666666666667 0  0.1156521739130435 0.01666666666666667 0  0.1321739130434783 0.01666666666666667 0  0.148695652173913 0.01666666666666667 0  0.1652173913043478 0.01666666666666667 0  0.1817391304347826 0.01666666666666667 0  0.1982608695652174 0.01666666666666667 0  0.2147826086956522 0.01666666666666667 0  0.2313043478260869 0.01666666666666667 0  0.2478260869565218 0.01666666666666667 0  0.2643478260869565 0.01666666666666667 0  0.2808695652173913 0.01666666666666667 0  0.2973913043478261 0.01666666666666667 0  0.3139130434782609 0.01666666666666667 0  0.3304347826086956 0.01666666666666667 0  0.3469565217391304 0.01666666666666667 0  0.3634782608695652 0.01666666666666667 0  0.3799999999999999 0.01666666666666667 0  0.3965217391304348 0.01666666666666667 0  0.4130434782608696 0.01666666666666667 0  0.4295652173913043 0.01666666666666667 0  0.4460869565217391 0.01666666666666667 0  0.4626086956521739 0.01666666666666667 0  0.4791304347826086 0.01666666666666667 0  0.4956521739130435 0.01666666666666667 0  0.5121739130434783 0.01666666666666667 0  0.528695652173913 0.01666666666666667 0  0.5452173913043478 0.01666666666666667 0  0.5617391304347825 0.01666666666666667 0  0.5782608695652174 0.01666666666666667 0  0.5947826086956521 0.01666666666666667 0  0.6113043478260869 0.01666666666666667 0  0.6278260869565218 0.01666666666666667 0  0.6443478260869565 0.01666666666666667 0  0.6608695652173913 0.01666666666666667 0  0.677391304347826 0.01666666666666667 0  0.6939130434782609 0.01666666666666667 0  0.7104347826086956 0.01666666666666667 0  0.7269565217391304 0.01666666666666667 0  0.7434782608695653 0.01666666666666667 0  0.7599999999999999 0.01666666666666667 0  0.7765217391304348 0.01666666666666667 0  0.7930434782608695 0.01666666666666667 0  0.8095652173913043 0.01666666666666667 0  0.8260869565217391 0.01666666666666667 0  0.8426086956521739 0.01666666666666667 0  0.8591304347826086 0.01666666666666667 0  0.8756521739130434 0.01666666666666667 0  0.8921739130434783 0.01666666666666667 0  0.908695652173913 0.01666666666666667 0  0.9252173913043478 0.01666666666666667 0  0.9417391304347826 0.01666666666666667 0  0.9582608695652173 0.01666666666666667 0  0.9747826086956521 0.01666666666666667 0  0.991304347826087 0.01666666666666667 0  1.007826086956522 0.01666666666666667 0  1.024347826086957 0.01666666666666667 0  1.040869565217391 0.01666666666666667 0  1.057391304347826 0.01666666666666667 0  1.073913043478261 0.01666666666666667 0  1.090434782608696 0.01666666666666667 0  1.10695652173913 0.01666666666666667 0  1.123478260869565 0.01666666666666667 0  1.14 0.01666666666666667 0  1.156521739130435 0.01666666666666667 0  1.17304347826087 0.01666666666666667 0  1.189565217391304 0.01666666666666667 0  1.206086956521739 0.01666666666666667 0  1.222608695652174 0.01666666666666667 0  1.239130434782609 0.01666666666666667 0  1.255652173913044 0.01666666666666667 0  1.272173913043478 0.01666666666666667 0  1.288695652173913 0.01666666666666667 0  1.305217391304348 0.01666666666666667 0  1.321739130434783 0.01666666666666667 0  1.338260869565217 0.01666666666666667 0  1.354782608695652 0.01666666666666667 0  1.371304347826087 0.01666666666666667 0  1.387826086956522 0.01666666666666667 0  1.404347826086957 0.01666666666666667 0  1.420869565217391 0.01666666666666667 0  1.437391304347826 0.01666666666666667 0  1.453913043478261 0.01666666666666667 0  1.470434782608696 0.01666666666666667 0  1.486956521739131 0.01666666666666667 0  1.503478260869565 0.01666666666666667 0  1.52 0.01666666666666667 0  1.536521739130435 0.01666666666666667 0  1.55304347826087 0.01666666666666667 0  1.569565217391304 0.01666666666666667 0  1.586086956521739 0.01666666666666667 0  1.602608695652174 0.01666666666666667 0  1.619130434782609 0.01666666666666667 0  1.635652173913043 0.01666666666666667 0  1.652173913043478 0.01666666666666667 0  1.668695652173913 0.01666666666666667 0  1.685217391304348 0.01666666666666667 0  1.701739130434782 0.01666666666666667 0  1.718260869565217 0.01666666666666667 0  1.734782608695652 0.01666666666666667 0  1.751304347826087 0.01666666666666667 0  1.767826086956522 0.01666666666666667 0  1.784347826086957 0.01666666666666667 0  1.800869565217391 0.0166666666666666
[...]
<PointData  Scalars="rho"> 
<DataArray  type="Float64"  Name="rho"  format="ascii">9.9941353706052150e-01  9.9900836759629530e-01  9.9859428280754126e-01  9.9833166015975350e-01  9.9771156398030003e-01  9.9719911702057806e-01  9.9686517543353093e-01  9.9700945872354008e-01  9.9728554670996594e-01  9.9818519569852682e-01  9.9948606798243733e-01  1.0000000000000000e+00  1.0000000000000000e+00  1.0000000000000000e+00  1.0000000000000000e+00  1.0000000000000000e+00  1.0000000000000000e+00  1.0000000000000000e+00  1.0000000000000000e+00  1.0000000000000000e+00  1.0000000000000000e+00  1.0000000000000000e+00  1.0000000000000000e+00  1.0000000000000000e+00  1.0000000000000000e+00  1.0000000000000000e+00  1.0000000000000000e+00  1.0000000000000000e+00  1.0000000000000000e+00  1.0000000000000000e+00  9.7726322161191981e-01  9.5820541288215111e-01  8.9413656830922994e-01  9.1368976105050759e-01  9.6882685944188696e-01  9.4679431102002931e-01  9.9346228574324813e-01  9.9514669263652300e-01  9.9580207496800333e-01  9.9656505812562624e-01  9.9814189403910125e-01  9.9870434117983276e-01  9.9896345646782847e-01  9.9896370736660178e-01  9.9890074475907720e-01  9.9872617975280831e-01  9.9805250366193565e-01  9.9800776361538113e-01  9.9796100943959454e-01  9.9775451673910909e-01  9.9765344305291237e-01  9.9757024656399695e-01  9.9746506319330219e-01  9.9735763052279391e-01  9.9720350389201218e-01  9.9715998753587864e-01  9.9700691487296655e-01  9.9685272768190802e-01  9.9604359990861602e-01  9.9581927839233830e-01  9.9563218362361505e-01  9.9549079975188326e-01  9.9540270371984774e-01  9.9537617783928456e-01  9.9542144311725378e-01  9.9554991517910896e-01  9.9577022580718333e-01  9.9608217819443590e-01  9.9698054565763050e-01  9.9724115002685243e-01  9.9743363318450962e-01  9.9769798331089843e-01  9.9810758918678555e-01  9.9833560798942289e-01  9.9910957253839761e-01  9.9942073013258870e-01  9.9968203587073423e-01  9.9990305944448477e-01  9.9876414612178632e-01  9.9876842473793526e-01  9.9832974571666366e-01  9.9823233782756060e-01  9.9801518142195700e-01  9.9781155742321537e-01  9.9762732420123701e-01  9.9719775587275972e-01  9.9652098058382743e-01  9.9548598245550024e-01  9.9400987736273272e-01  9.9213917155524955e-01  9.9018854273864232e-01  9.7050562429856979e-01  9.8659886071698100e-01  9.1757528317252912e-01  9.0924489758372795e-01  9.8315868716793831e-01  9.8736805761363011e-01  9.9618414881865147e-01  9.9804311691426562e-01  9.9877637202371272e-01  9.9172483828724767e-01  9.7476608929941000e-01  9.9732952855595902e-01  9.9563083382450501e-01  9.6057632242051205e-01  9.9495726154713782e-01  9.9561729696565093e-01  9.9744409060852834e-01  9.9849876405559457e-01  1.0000000000000000e+00  1.0000000000000000e+00  1.0000000000000000e+00  1.0000000000000000e+00  9.7456511344095476e-01  9.9900972335109861e-01  9.9435058139409738e-01  9.1326043391007117e-01  8.3737213324098003e-01  7.5271640155245179e-01  7.5793149635208890e-01  7.5081424939262575e-01  7.3285305734696193e-01  8.7508433013157327e-01  9.8019704830346233e-01  9.8351812890038948e-01  9.8571362995892597e-01  9.8661988395728406e-01  9.8657898800069477e-01  9.8630344618491594e-01  9.8582457641372989e-01  9.8483317289681227e-01  9.8398706618925080e-01  9.8329734515948997e-01  9.8274040729879297e-01  9.7071975242697350e-01  9.7957553164233979e-01  9.7905049169804148e-01  9.7880945927423524e-01  9.7873003712613948e-01  9.6821472172146339e-01  9.6826840848411444e-01  9.6851466104760098e-01  9.6915290597079518e-01  9.8132514873454046e-01  9.8235599214424185e-01  9.8846571961448904e-01  9.8903370980129901e-01  9.8945361033636947e-01  9.8968620376843308e-01  9.8994179526208770e-01  9.8994270930135397e-01  9.8837593299309034e-01  9.8829756086436771e-01  9.8809707734903596e-01  9.8807728289723074e-01  9.8844891560487336e-01  9.8808925143750892e-01  9.8805546044849801e-01  9.8809430466326786e-01  9.8825138336835572e-01  9.8858094911244843e-01  9.8907943542531762e-01  9.8974733492626787e-01  9.9049656929773933e-01  9.9131222453335066e-01  9.9204501208367846e-01  9.9258456083606272e-01  9.9291611108688616e-01  9.9283072048649279e-01  9.9256359525126281e-01  9.9226947311455593e-01  9.9197099581518489e-01  9.9181101887110656e-01  9.9190293766060522e-01  9.9233618851578054e-01  9.9489244157421231e-01  9.9472693120728650e-01  9.9440215880119587e-01  9.9421620472087679e-01  9.9366739464752574e-01  9.6307473767614293e-01  9.1921647825636366e-01  8.7739293921398220e-01  8.4030398050771204e-01  7.2728619996701860e-01  6.9452899241612387e-01  6.7805245668731151e-01  6.4774947561893859e-01  5.9356612795132846e-01  5.3337475980839832e-01  5.0762975818178635e-01  3.8983955792854297e-01  2.6279563934974304e-01  2.0395417698119644e-01  4.4541693506781804e-02  8.6584541069292267e-02  4.7872489045755875e-02  4.3731799120481578e-02  3.6599221140866771e-02  3.1758916808335300e-02  3.5556367592900331e-02  3.3002653882496326e-02  2.9189832733705609e-02  2.4812766429508044e-02  2.0369182123477780e-02  1.6196255314910989e-02  1.2470713707875909e-02  9.4623562626159115e-03  6.9260527564775137e-03  4.9102179544786451e-03  2.7798147867581385e-03  1.8631986270874665e-03  1.1927520370103688e-03  7.1381997866615916e-04  3.5231102679764950e-04  1.6660010278316827e-04  6.0656255317556407e-05  0.0000000000000000e+00  0.0000000000000000e+00  0.0000000000000000e+00  0.0000000000000000e+00  0.0000000000000000e+00  0.0000000000000000e+00  0.0000000000000000e+00  0.0000000000000000e+00  0.0000000000000000e+00  0.0000000000000000e+00  0.0000000000000000e+00  0.0000000000000000e+00  0.0000000000000000e+00  0.0000000000000000e+00  9.9916863293310176e-01  9.9805539838578161e-01  9.9729857437607650e-01  9.9635487010874701e-01  9.9531042799883340e-01  9.9169788073652498e-01  9.6864402334247635e-01  9.9301603491213752e-01  9.9398797264170746e-01  9.9552323776486007e-01  9.9829714858028729e-01  1.0000000000000000e+00  1.0000000000000000e+00  1.0000000000000000e+00  1.0000000000000000e+00  1.0000000000000000e+00  1.0000000000000000e+00  1.0000000000000000e+00  1.0000000000000000e+00  1.0000000000000000e+00  1.0000000000000000e+00  1.0000000000000000e+00  1.0000000000000000e+00  1.0000000000000000e+00  1.0000000000000000e+00  1.0000000000000000e+00  1.0000000000000000e+00  1.0000000000000000e+00  1.0000000000000000e+00  1.0000000000000000e+00  9.8007908330713989e-01  9.4900213194083805e-01  8.8922482141684434e-01  8.0806167708186827e-01  8.3041529021779448e-01  7.5165738462772025e-01  9.8618541793005943e-01  9.8968864657860400e-01  9.9120164096061047e-01  9.9282282038550429e-01  9.9622249350443337e-01  9.9733215806129472e-01  9.9782587312181548e-01  9.9779023520211962e-01  9.9764268444987803e-01  9.9727673466748401e-01  9.9588964639407696e-01  9.9580946141024551e-01  9.9572952769745349e-01  9.9530356511294604e-01  9.9510924130591871e-01  9.9495504951470026e-01  9.9475502039016539e-01  9.9455685037119279e-01  9.9425381337178931e-01  9.9413341622681750e-01  9.9381931485858543e-01  9.9349931779235645e-01  9.9199140677355524e-01  9.9152779173204597e-01  9.9113695138511904e-01  9.9083519235467576e-01  9.9063637393223247e-01  9.9055567430909286e-01  9.9061376651008903e-01  9.9083727309988323e-01  9.9125036415114798e-01  9.9185963715362013e-01  9.9363120043828013e-01  9.9417381464046684e-01  9.9459218435294627e-01  9.9515446575747324e-01  9.9599344345921259e-01  9.9645776851671541e-01  9.9678541329071302e-01  9.9854810727511378e-01  9.9903840317584569e-01  9.9944805084175958e-01  9.9730193491180474e-01  9.9723836707703417e-01  9.9642283129729348e-01  9.9620587356869250e-01  9.9574806382016412e-01  9.9532507399643277e-01  9.9495149697792717e-01  9.9410556277015760e-01  9.9277908508752599e-01  9.9072397877226681e-01  9.8770539307205463e-01  9.8371390215315702e-01  9.7935898184644488e-01  8.6533314923695481e-01  8.4536102202829211e-01  8.3773705698278533e-01  8.5425083243033462e-01  9.6531830022185849e-01  9.7510770902828470e-01  9.9142700743597723e-01  9.9565900755813463e-01  9.9742752399885504e-01  9.9180772704274400e-01  9.5067931833161545e-01  8.9914702815755820e-01  8.6150655544610810e-01  9.5423087878989643e-01  8.9208706153212769e-01  9.9026474139264253e-01  9.9424468028130530e-01  9.9669700199548039e-01  1.0000000000000000e+00  1.0000000000000000e+00  1.0000000000000000e+00  1.0000000000000000e+00  9.9757647073326128e-01  9.9870566238722069e-01  9.9431401242018536e-01  9.3609562122354761e-01  8.4127700954245510e-01  7.2951907169234131e-01  6.6529103652873123e-01  6.3976218098404725e-01  6.1279503740516073e-01  6.4118371038111610e-01  8.1068748625588960e-01  9.6371174165207374e-01  9.6850052311285628e-01  9.7064884975930832e-01  9.7082173511434822e-01  9.7048217056191399e-01  9.6938937474172904e-01  9.6751964741655538e-01  9.6597013268776033e-01  9.6476408634623145e-01  9.6380173243391709e-01  9.3769000294008997e-01  9.5760126133422041e-01  9.5685556468451827e-01  9.5665746956839703e-01  9.5670654040805669e-01  9.3454687712209095e-01  9.3461716654991456e-01  9.3489698434007096e-01  9.3582831427178614e-01  9.3789559056845107e-01  9.6332328497467268e-01  9.7621829273449912e-01  9.7743488500937492e-01  9.7837463134922820e-01  9.7894204285881326e-01  9.7947357875294727e-01  9.7951612790876519e-01  9.7652005348443727e-01  9.7646928106249664e-01  9.7608620845037164e-01  9.7615701226557439e-01  9.7702100127027081e-01  9.7633290166998110e-01  9.7626592447932781e-01  9.7631018699167582e-01  9.7656418319034177e-01  9.7715277603486539e-01  9.7807702847904121e-01  9.7936055270163347e-01  9.8083463093178791e-01  9.8248749922558087e-01  9.8401068684180371e-01  9.8516979904078095e-01  9.8590733639296591e-01  9.8581085654015044e-01  9.8530939230281700e-01  9.8468431196563833e-01  9.8406915343152435e-01  9.8371082945258037e-01  9.8383573226745547e-01  9.8463372773741731e-01  9.8967042881499800e-01  9.8943324192257831e-01  9.8895043582853215e-01  9.8877341135426833e-01  9.8780499313671477e-01  9.2553089017021217e-01  9.1846490967191152e-01  8.0507929581183613e-01  6.5529369946550087e-01  7.6300423352578295e-01  7.4960748502059693e-01  7.1714637377232804e-01  7.0841224527502666e-01  6.6506853878086836e-01  5.3776991319170475e-01  4.9339550578880076e-01  5.2565289821218564e-01  3.2703820770226827e-01  2.3273244944524671e-01  1.1342417153887654e-01  6.7631025503862047e-02  7.3544447707919083e-02  7.5989623264580058e-02  6.5938764676271966e-02  5.1588830421953683e-02  5.7656131504897554e-02  5.4869618373472019e-02  4.9791515005872568e-02  4.3439541238659521e-02  3.6596392648778842e-02  2.9848868523026938e-02  2.3546112888685571e-02  1.8243980457121799e-02  1.3630835635959010e-02  9.8370297105842223e-03  5.7243292616464018e-03  3.8766440068727938e-03  2.5019168986570930e-03  1.5060999567820732e-03  7.4917170837809194e-04  3.5314275000519578e-04  1.2712665301954767e-04  0.0000000000000000e+00  0.0000000000000000e+00  0.0000000000000000e+00  0.0000000000000000e+00  0.0000000000000000e+00  0.0000000000000000e+00  0.0000000000000000e+00  0.0000000000000000e+00  0.0000000000000000e+00  0.0000000000000000e+00  0.0000000000000000e+00  0.0000000000000000e+00  0.0000000000000000e+00  0.0000000000000000e+00  9.9981738737939407e-01  9.9820448282585228e-01  9.9713724307169060e-01  9.9574076627359220e-01  9.9412468441787571e-01  9.4981059740052465e-01  8.7934247466289706e-01  8.3641944125183421e-01  8.4402871024845605e-01  9.7982125302294998e-01  9.9787224186717194e-01  1.0000000000000000e+00  1.0000000000000000e+00  1.0000000000000000e+00  1.0000000000000000e+00  1.0000000000000000e+00  1.0000000000000000e+00  1.0000000000000000e+00  1.0000000000000000e+00  1.0000000000000000e+00  1.0000000000000000e+00  1.0000000000000000e+00  1.0000000000000000e+00  1.0000000000000000e+00  1.0000000000000000e+00  1.0000000000000000e+00  1.0000000000000000e+00  1.0000000000000000e+00  1.0000000000000000e+00  1.0000000000000000e+00  9.9898409184931813e-01  9.7409411458411177e-01  8.5595650241420462e-01  6.2326793918698342e-01  5.0219491662931737e-01  6.2812875335996543e-01  5.7266331685759564e-01  6.4784725476939287e-01  9.2912755739016661e-01  9.9140672906293681e-01  9.9595441225704107e-01  9.9714857805790369e-01  9.9747435073024515e-01  9.9715225901186888e-01  9.9675973483256597e-01  9.9487129175420908e-01  9.9475303032006401e-01  9.9467772219301376e-01  9.9419758782309831e-01  9.9402640544496279e-01  9.9391097153172980e-01  9.9372967305311544e-01  9.9350978101352172e-01  9.9324125027993082e-01  9.9286945311908159e-01  9.9271280099775916e-01  9.9231383590007294e-01  9.9065911501573922e-01  9.9000740996452175e-01  9.8942386301693408e-01  9.8893519132493912e-01  9.8855665562069106e-01  9.7772778433680030e-01  9.7460642933511987e-01  9.7308042446486809e-01  9.7407573264814040e-01  9.7843071868343467e-01  9.8617214029003963e-01  9.9076502981328296e-01  9.9275252129610092e-01  9.9332216801201789e-01  9.9405175086687447e-01  9.9510285735242099e-01  9.9565593370848660e-01  9.9601410061767692e-01  9.9798737394016901e-01  9.9853432217804705e-01  9.9901225073573630e-01  9.5532605363216394e-01  9.4958053065310488e-01  9.2772019613749279e-01  9.4703686564377576e-01  9.9477639071993229e-01  9.9433119748329324e-01  9.9398448164466691e-01  9.9315544293386460e-01  9.9179170891594548e-01  9.8950862635778036e-01  9.8585400233776899e-01  9.8060066409291646e-01  9.3086323669266891e-01  6.0983786320146238e-01  6.5931024439675190e-01  5.6157652398440394e-01  5.4680640376432399e-01  9.2659008397060438e-01  9.8118178197426875e-01  9.9221174389037592e-01  9.9633189717690296e-01  9.9855441949724477e-01  9.9475771489820919e-01  9.1773136214000606e-01  8.0685176777457912e-01  6.8554540140089182e-01  6.5488849737072508e-01  7.0504441693923237e-01  7.9368745283374109e-01  8.9210773564238688e-01  9.9849586530560830e-01  1.0000000000000000e+00  1.0000000000000000e+00  1.0000000000000000e+00  1.0000000000000000e+00  1.0000000000000000e+00  9.9994439802602741e-01  9.9644326826753504e-01  9.9046677562100105e-01  9.2152560887842916e-01  8.3991294623590551e-01  6.7383408841531756e-01  2.5717922107771701e-01  3.2888161128444665e-01  5.0883674054473083e-01  5.5357885315056943e-01  5.6399590847302050e-01  6.2258144055769038e-01  6.6142106046884241e-01  7.0571450966357763e-01  7.0924038281817314e-01  7.1496187567649405e-01  7.2893163369968761e-01  7.4334272408560620e-01  7.5420189083367750e-01  7.2085303404026102e-01  7.5100103586829947e-01  7.6743692800209906e-01  8.6042865522452316e-01  9.4812003523948762e-01  9.2122881386726263e-01  9.2152816005379912e-01  8.8450195522523811e-01  8.1178557164000797e-01  7.5589837221615463e-01  7.8097044838200125e-01  7.9115110166863456e-01  8.2304666835882612e-01  8.3733631273600517e-01  8.4832989885298826e-01  8.5154946950764898e-01  8.6598265357663717e-01  8.9527841937770980e-01  8.9650681993302506e-01  9.0561034522832995e-01  8.0735101679642685e-01  8.2806263991807783e-01  8.5852523009549753e-01  9.3667712394666724e-01  9.2657606504049428e-01  9.4313446837832693e-01  9.2919690260908849e-01  9.6222042513070583e-01  9.7320556111329026e-01  9.3102305095293814e-01  9.5791491619744717e-01  9.4601981352719933e-01  9.5429695734869757e-01  9.6070247074171267e-01  9.5653645704580170e-01  9.8267449141585128e-01  9.4761736452992007e-01  9.4082065712708518e-01  9.3156001426795521e-01  8.1284872345263548e-01  7.9878635741326232e-01  9.0456948013042127e-01  8.7757855568818455e-01  7.9800974152680604e-01  7.5372523618420761e-01  6.6099654334901969e-01  5.7743136111715798e-01  5.2054196244406581e-01  4.5954211786996668e-01  3.8157551606353646e-01  4.0534628472327577e-01  4.5760947908040583e-01  4.9772260095661092e-01  5.1799378742561097e-01  4.9740718663297773e-01  4.9459748181941487e-01  5.1909275231845053e-01  5.0940748632234389e-01  5.0938118870715776e-01  4.8557210398631651e-01  4.3276922559324188e-01  3.1912095428216902e-01  2.3152224187122447e-01  1.2976170943864462e-01  1.2187702483360698e-01  1.1349306167180670e-01  9.0805387885070102e-02  7.1225562945429824e-02  6.5548338408644422e-02  5.8125250345484193e-02  4.9826982791924261e-02  4.1384243656680191e-02  3.3265185648952526e-02  2.6192385965355343e-02  1.9967941325649701e-02  1.4738058795411273e-02  1.0480713502357436e-02  6.0401843970511486e-03  4.0045886176774785e-03  2.5042532521516400e-03  1.2312808897493178e-03  6.8044757891459675e-04  2.5855934100007860e-04  8.7300229875047197e-06  0.0000000000000000e+00  0.0000000000000000e+00  0.0000000000000000e+00  0.0000000000000000e+00  0.0000000000000000e+00  0.0000000000000000e+00  0.0000000000000000e+00  0.0000000000000000e+00  0.0000000000000000e+00  0.0000000000000000e+00  0.0000000000000000e+00  0.0000000000000000e+00  0.0000000000000000e+00  0.0000000000000000e+00  1.0000000000000000e+00  1.0000000000000000e+00  9.9709776178583875e-01  9.9461399536503181e-01  9.6170350787888537e-01  8.0538029729568361e-01  6.2888575690885884e-01  5.1348219686519903e-01  5.0103349979678768e-01  6.2040256848991349e-01  7.6922041699610910e-01  8.6092978232026929e-01  1.0000000000000000e+00  1.0000000000000000e+00  1.0000000000000000e+00  1.0000000000000000e+00  1.0000000000000000e+00  1.0000000000000000e+00  1.0000000000000000e+00  1.0000000000000000e+00  1.0000000000000000e+00  1.0000000000000000e+00  1.0000000000000000e+00  1.0000000000000000e+00  1.0000000000000000e+00  1.0000000000000000e+00  1.0000000000000000e+00  1.0000000000000000e+00  1.0000000000000000e+00  1.0000000000000000e+00  1.0000000000000000e+00  9.8925135541987219e-01  9.3891200336288372e-01  7.6141638459672623e-01  1.7687693437672860e-04  1.5443073879472635e-04  3.4422680716471294e-04  8.1432907617077989e-04  1.0754878391457109e-01  4.2110207743614991e-01  5.1094569584245353e-01  6.7270671670812221e-01  6.7088480038342935e-01  6.2599818459283763e-01  7.2426094204673663e-01  7.4009802059199215e-01  6.6479777401892370e-01  6.7711091908426146e-01  6.5848970303361187e-01  6.6862452800455086e-01  6.5569458626882327e-01  7.1366366426785299e-01  7.2881749533536577e-01  6.9695310028652380e-01  7.1420936524466994e-01  7.6451380183366924e-01  7.4104611470995629e-01  7.5536850395134958e-01  7.9702864797165074e-01  8.0310206788445826e-01  7.6914700877918196e-01  7.9872951376282531e-01  7.9758098844159875e-01  7.8456237535443552e-01  7.6166644479948198e-01  8.4300441077727550e-01  8.4279191849617452e-01  8.8584988338162962e-01  8.0482729806232722e-01  7.5827381464833632e-01  7.1630663773071035e-01  6.8864830025411350e-01  6.7501205536496378e-01  6.6528794745820430e-01  6.4966301655589798e-01  6.7970211381569012e-01  6.8073143992789353e-01  6.7822380970044760e-01  7.1744281082880468e-01  7.1449156730098862e-01  7.1686962745150540e-01  7.1646694487998663e-01  7.2357888956072813e-01  7.9649899739216101e-01  7.9904867772080934e-01  7.8104936770777722e-01  7.8645430406662886e-01  6.8444714024328868e-01  6.2291130074756340e-01  4.8103476938662298e-01  6.9735693400270096e-02  5.8773683735898015e-03  3.1948504527185124e-03  1.3690096940984773e-03  0.0000000000000000e+00  7.0383724068484332e-01  9.8247367733227187e-01  9.9229806070738624e-01  9.9782864020521145e-01  1.0000000000000000e+00  1.0000000000000000e+00  8.7415056742813801e-01  5.0454264056084297e-01  2.3021892607874925e-01  8.1022869212356671e-02  9.2534208958302698e-04  1.6210824424598866e-01  4.3445952761829237e-01  6.4891833064970250e-01  8.9291716710525815e-01  1.0000000000000000e+00  1.0000000000000000e+00  1.0000000000000000e+00  1.0000000000000000e+00  1.0000000000000000e+00  9.9801420969849586e-01  9.9105437119306272e-01  9.7971429746565575e-01  8.8459127389344638e-01  6.0951664505960423e-01  0.0000000000000000e+00  0.0000000000000000e+00  0.0000000000000000e+00  0.0000000000000000e+00  0.0000000000000000e+00  1.1223020510283249e-01  1.6091718761448817e-01  3.2123081510955104e-01  3.6254762144482428e-01  3.7571492655214145e-01  3.1966548193404520e-01  2.2025535316838896e-01  8.5960780824391930e-02  2.2953956357484695e-01  2.6055197629746513e-01  3.5615897537021030e-01  2.4063861470905792e-0