<?xml version="1.0"?>
<VTKFile type="UnstructuredGrid"  version="0.1"  >
<UnstructuredGrid>
<Piece  NumberOfPoints="2355" NumberOfCells="4491">
<Points>
<DataArray  type="Float64"  NumberOfComponents="3"  format="ascii">0 0.06666666666666667 0  0 0.075 0  0.008260869565217391 0.075 0  0.008260869565217391 0.08333333333333333 0  0 0.08333333333333333 0  0.01652173913043478 0.08333333333333333 0  0.008260869565217391 0.09166666666666666 0  0 0.09166666666666666 0  0.01652173913043478 0.09166666666666666 0  0.02478260869565217 0.08333333333333333 0  0.02478260869565217 0.09166666666666666 0  0.03304347826086956 0.09166666666666666 0  0.008260869565217391 0.1 0  0 0.1 0  0.01652173913043478 0.1 0  0.02478260869565217 0.1 0  0.03304347826086956 0.1 0  0.04130434782608695 0.09166666666666666 0  0.04130434782608695 0.1 0  0.04956521739130434 0.1 0  0.008260869565217391 0.1083333333333333 0  0 0.1083333333333333 0  0.01652173913043478 0.1083333333333333 0  0.02478260869565217 0.1083333333333333 0  0.03304347826086956 0.1083333333333333 0  0.04130434782608695 0.1083333333333333 0  0.04956521739130434 0.1083333333333333 0  0.05782608695652174 0.1083333333333333 0  0.008260869565217391 0.1166666666666667 0  0 0.1166666666666667 0  0.01652173913043478 0.1166666666666667 0  0.02478260869565217 0.1166666666666667 0  0.03304347826086956 0.1166666666666667 0  0.04130434782608695 0.1166666666666667 0  0.04956521739130434 0.1166666666666667 0  0.05782608695652174 0.1166666666666667 0  0.06608695652173913 0.1083333333333333 0  0.06608695652173913 0.1166666666666667 0  0.07434782608695652 0.1166666666666667 0  0.008260869565217391 0.125 0  0 0.125 0  0.01652173913043478 0.125 0  0.02478260869565217 0.125 0  0.03304347826086956 0.125 0  0.04130434782608695 0.125 0  0.04956521739130434 0.125 0  0.05782608695652174 0.125 0  0.06608695652173913 0.125 0  0.07434782608695652 0.125 0  0.08260869565217391 0.1166666666666667 0  0.08260869565217391 0.125 0  0.0908695652173913 0.125 0  0.008260869565217391 0.1333333333333333 0  0 0.1333333333333333 0  0.01652173913043478 0.1333333333333333 0  0.02478260869565217 0.1333333333333333 0  0.03304347826086956 0.1333333333333333 0  0.04130434782608695 0.1333333333333333 0  0.04956521739130434 0.1333333333333333 0  0.05782608695652174 0.1333333333333333 0  0.06608695652173913 0.1333333333333333 0  0.07434782608695652 0.1333333333333333 0  0.08260869565217391 0.1333333333333333 0  0.0908695652173913 0.1333333333333333 0  0.09913043478260869 0.125 0  0.09913043478260869 0.1333333333333333 0  0.1073913043478261 0.1333333333333333 0  0.008260869565217391 0.1416666666666667 0  0 0.1416666666666667 0  0.01652173913043478 0.1416666666666667 0  0.02478260869565217 0.1416666666666667 0  0.03304347826086956 0.1416666666666667 0  0.04130434782608695 0.1416666666666667 0  0.04956521739130434 0.1416666666666667 0  0.05782608695652174 0.1416666666666667 0  0.06608695652173913 0.1416666666666667 0  0.07434782608695652 0.1416666666666667 0  0.08260869565217391 0.1416666666666667 0  0.0908695652173913 0.1416666666666667 0  0.09913043478260869 0.1416666666666667 0  0.1073913043478261 0.1416666666666667 0  0.1156521739130435 0.1333333333333333 0  0.1156521739130435 0.1416666666666667 0  0.1239130434782609 0.1416666666666667 0  0.008260869565217391 0.15 0  0 0.15 0  0.01652173913043478 0.15 0  0.02478260869565217 0.15 0  0.03304347826086956 0.15 0  0.04130434782608695 0.15 0  0.04956521739130434 0.15 0  0.05782608695652174 0.15 0  0.06608695652173913 0.15 0  0.07434782608695652 0.15 0  0.08260869565217391 0.15 0  0.0908695652173913 0.15 0  0.09913043478260869 0.15 0  0.1073913043478261 0.15 0  0.1156521739130435 0.15 0  0.1239130434782609 0.15 0  0.1321739130434783 0.1416666666666667 0  0.1321739130434783 0.15 0  0.1404347826086956 0.15 0  0.008260869565217391 0.1583333333333333 0  0 0.1583333333333333 0  0.01652173913043478 0.1583333333333333 0  0.02478260869565217 0.1583333333333333 0  0.03304347826086956 0.1583333333333333 0  0.04130434782608695 0.1583333333333333 0  0.04956521739130434 0.1583333333333333 0  0.05782608695652174 0.1583333333333333 0  0.06608695652173913 0.1583333333333333 0  0.07434782608695652 0.1583333333333333 0  0.08260869565217391 0.1583333333333333 0  0.0908695652173913 0.1583333333333333 0  0.09913043478260869 0.1583333333333333 0  0.1073913043478261 0.1583333333333333 0  0.1156521739130435 0.1583333333333333 0  0.1239130434782609 0.1583333333333333 0  0.1321739130434783 0.1583333333333333 0  0.1404347826086956 0.1583333333333333 0  0.148695652173913 0.15 0  0.148695652173913 0.1583333333333333 0  0.1569565217391304 0.1583333333333333 0  0.008260869565217391 0.1666666666666667 0  0 0.1666666666666667 0  0.01652173913043478 0.1666666666666667 0  0.02478260869565217 0.1666666666666667 0  0.03304347826086956 0.1666666666666667 0  0.04130434782608695 0.1666666666666667 0  0.04956521739130434 0.1666666666666667 0  0.05782608695652174 0.1666666666666667 0  0.06608695652173913 0.1666666666666667 0  0.07434782608695652 0.1666666666666667 0  0.08260869565217391 0.1666666666666667 0  0.0908695652173913 0.1666666666666667 0  0.09913043478260869 0.1666666666666667 0  0.1073913043478261 0.1666666666666667 0  0.1156521739130435 0.1666666666666667 0  0.1239130434782609 0.1666666666666667 0  0.1321739130434783 0.1666666666666667 0  0.1404347826086956 0.1666666666666667 0  0.148695652173913 0.1666666666666667 0  0.1569565217391304 0.1666666666666667 0  0.1652173913043478 0.1583333333333333 0  0.1652173913043478 0.1666666666666667 0  0.1734782608695652 0.1666666666666667 0  0.008260869565217391 0.175 0  0 0.175 0  0.01652173913043478 0.175 0  0.02478260869565217 0.175 0  0.03304347826086956 0.175 0  0.04130434782608695 0.175 0  0.04956521739130434 0.175 0  0.05782608695652174 0.175 0  0.06608695652173913 0.175 0  0.07434782608695652 0.175 0  0.08260869565217391 0.175 0  0.0908695652173913 0.175 0  0.09913043478260869 0.175 0  0.1073913043478261 0.175 0  0.1156521739130435 0.175 0  0.1239130434782609 0.175 0  0.1321739130434783 0.175 0  0.1404347826086956 0.175 0  0.148695652173913 0.175 0  0.1569565217391304 0.175 0  0.1652173913043478 0.175 0  0.1734782608695652 0.175 0  0.1817391304347826 0.175 0  0.008260869565217391 0.1833333333333333 0  0 0.1833333333333333 0  0.01652173913043478 0.1833333333333333 0  0.02478260869565217 0.1833333333333333 0  0.03304347826086956 0.1833333333333333 0  0.04130434782608695 0.1833333333333333 0  0.04956521739130434 0.1833333333333333 0  0.05782608695652174 0.1833333333333333 0  0.06608695652173913 0.1833333333333333 0  0.07434782608695652 0.1833333333333333 0  0.08260869565217391 0.1833333333333333 0  0.0908695652173913 0.1833333333333333 0  0.09913043478260869 0.1833333333333333 0  0.1073913043478261 0.1833333333333333 0  0.1156521739130435 0.1833333333333333 0  0.1239130434782609 0.1833333333333333 0  0.1321739130434783 0.1833333333333333 0  0.1404347826086956 0.1833333333333333 0  0.148695652173913 0.1833333333333333 0  0.1569565217391304 0.1833333333333333 0  0.1652173913043478 0.1833333333333333 0  0.1734782608695652 0.1833333333333333 0  0.1817391304347826 0.1833333333333333 0  0.19 0.175 0  0.19 0.1833333333333333 0  0.1982608695652174 0.1833333333333333 0  0.008260869565217391 0.1916666666666667 0  0 0.1916666666666667 0  0.01652173913043478 0.1916666666666667 0  0.02478260869565217 0.1916666666666667 0  0.03304347826086956 0.1916666666666667 0  0.04130434782608695 0.1916666666666667 0  0.04956521739130434 0.1916666666666667 0  0.05782608695652174 0.1916666666666667 0  0.06608695652173913 0.1916666666666667 0  0.07434782608695652 0.1916666666666667 0  0.08260869565217391 0.1916666666666667 0  0.0908695652173913 0.1916666666666667 0  0.09913043478260869 0.1916666666666667 0  0.1073913043478261 0.1916666666666667 0  0.1156521739130435 0.1916666666666667 0  0.1239130434782609 0.1916666666666667 0  0.1321739130434783 0.1916666666666667 0  0.1404347826086956 0.1916666666666667 0  0.148695652173913 0.1916666666666667 0  0.1569565217391304 0.1916666666666667 0  0.1652173913043478 0.1916666666666667 0  0.1734782608695652 0.1916666666666667 0  0.1817391304347826 0.1916666666666667 0  0.19 0.1916666666666667 0  0.1982608695652174 0.1916666666666667 0  0.2065217391304348 0.1916666666666667 0  0.008260869565217391 0.2 0  0 0.2 0  0.01652173913043478 0.2 0  0.02478260869565217 0.2 0  0.03304347826086956 0.2 0  0.04130434782608695 0.2 0  0.04956521739130434 0.2 0  0.05782608695652174 0.2 0  0.06608695652173913 0.2 0  0.07434782608695652 0.2 0  0.08260869565217391 0.2 0  0.0908695652173913 0.2 0  0.09913043478260869 0.2 0  0.1073913043478261 0.2 0  0.1156521739130435 0.2 0  0.1239130434782609 0.2 0  0.1321739130434783 0.2 0  0.1404347826086956 0.2 0  0.148695652173913 0.2 0  0.1569565217391304 0.2 0  0.1652173913043478 0.2 0  0.1734782608695652 0.2 0  0.1817391304347826 0.2 0  0.19 0.2 0  0.1982608695652174 0.2 0  0.2065217391304348 0.2 0  0.2147826086956522 0.2 0  0.008260869565217391 0.2083333333333333 0  0 0.2083333333333333 0  0.01652173913043478 0.2083333333333333 0  0.02478260869565217 0.2083333333333333 0  0.03304347826086956 0.2083333333333333 0  0.04130434782608695 0.2083333333333333 0  0.04956521739130434 0.2083333333333333 0  0.05782608695652174 0.2083333333333333 0  0.06608695652173913 0.2083333333333333 0  0.07434782608695652 0.2083333333333333 0  0.08260869565217391 0.2083333333333333 0  0.0908695652173913 0.2083333333333333 0  0.09913043478260869 0.2083333333333333 0  0.1073913043478261 0.2083333333333333 0  0.1156521739130435 0.2083333333333333 0  0.1239130434782609 0.2083333333333333 0  0.1321739130434783 0.2083333333333333 0  0.1404347826086956 0.2083333333333333 0  0.148695652173913 0.2083333333333333 0  0.1569565217391304 0.2083333333333333 0  0.1652173913043478 0.2083333333333333 0  0.1734782608695652 0.2083333333333333 0  0.1817391304347826 0.2083333333333333 0  0.19 0.2083333333333333 0  0.1982608695652174 0.2083333333333333 0  0.2065217391304348 0.2083333333
[...]
<CellData  Scalars="rho_bar"> 
<DataArray  type="Float64"  Name="rho_bar"  format="ascii">3.1906228602983033e-01   3.1486313895411572e-01   3.1300866568996316e-01   3.1560508494585976e-01   3.0914201426652088e-01   3.0704097890320603e-01   3.1256567956217346e-01   3.0940908495571684e-01   3.1614051522571662e-01   3.1203711574370757e-01   3.1470034796227819e-01   3.0349546093991947e-01   3.0112422999729532e-01   3.0656927726043859e-01   3.0325157059670932e-01   3.0987174188471422e-01   3.0569556202351972e-01   3.1311682417028530e-01   3.0824126146325259e-01   3.1610246421666077e-01   3.1071402202713527e-01   3.1298831981132647e-01   2.9789480499493376e-01   2.9523735769624565e-01   3.0062262354964137e-01   2.9711051113918480e-01   3.0364508751205527e-01   2.9935155348553394e-01   3.0669826206777540e-01   3.0175447921213394e-01   3.0958490867928068e-01   3.0414711870187233e-01   3.1217723490800414e-01   3.0640036540937482e-01   3.0842823266980518e-01   2.9232377315389213e-01   2.8937048822360639e-01   2.9470410747416076e-01   2.9097471214738985e-01   2.9743752962866210e-01   2.9299450277809114e-01   3.0027846788674822e-01   2.9523200025332941e-01   3.0303484830553529e-01   2.9751756962184933e-01   3.0557352940415200e-01   2.9971944189176442e-01   3.0781464493810728e-01   3.0174506107451898e-01   3.0972106462253801e-01   3.0353717713713785e-01   3.0506744150429171e-01   2.8677618599215338e-01   2.8352350382622682e-01   2.8880335021672043e-01   2.8484273574713126e-01   2.9123683868201972e-01   2.8662284037933417e-01   2.9384667022228700e-01   2.8867348791619246e-01   2.9644588853498527e-01   2.9082753835333580e-01   2.9889784604318831e-01   2.9295113655181571e-01   3.0111350762364514e-01   2.9494619729878857e-01   3.0304370005155523e-01   2.9674781581315157e-01   3.0466983174262324e-01   2.9831905009279353e-01   3.0599507257370118e-01   2.9964485658798473e-01   3.0072624963950378e-01   2.8125474105032838e-01   2.7770543993569446e-01   2.8291979936236028e-01   2.7872255105803073e-01   2.8504058906395613e-01   2.8024413756217376e-01   2.8740075769421453e-01   2.8208701145950427e-01   2.8981832966727672e-01   2.8408651007836566e-01   2.9215436326619704e-01   2.8610709356235536e-01   2.9431256899798336e-01   2.8804587932846187e-01   2.9623382221959044e-01   2.8983122692148250e-01   2.9788866797866864e-01   2.9141856208654571e-01   2.9926973708459309e-01   2.9278512072724888e-01   3.0038503434608582e-01   2.9392467660186994e-01   3.0125245100440107e-01   2.9484281674353324e-01   2.9555299666015655e-01   2.7577047704288271e-01   2.7193441510443106e-01   2.7706213705295879e-01   2.7263169991676861e-01   2.7885584838229577e-01   2.7387564106318646e-01   2.8094758887019888e-01   2.7549004422445844e-01   2.8316029080868810e-01   2.7731279802789277e-01   2.8535359210110778e-01   2.7920701638374895e-01   2.8742534513368745e-01   2.8106557395676640e-01   2.8930802862743582e-01   2.8281077742257504e-01   2.9096278657329894e-01   2.8439113845553948e-01   2.9237292895117656e-01   2.8577684467241937e-01   2.9353790862369650e-01   2.8695499238544941e-01   2.9446821752392555e-01   2.8792518039835574e-01   2.9518131141746512e-01   2.8869573840787455e-01   2.9569850428419836e-01   2.8928066605852359e-01   2.8969725267575347e-01   2.7034266506256133e-01   2.6623788726914371e-01   2.7124822255599490e-01   2.6659781155456475e-01   2.7269936490190555e-01   2.6754512893577587e-01   2.7450363591816218e-01   2.6891071998191052e-01   2.7648894196874241e-01   2.7053522800287322e-01   2.7851421885827682e-01   2.7228077138419210e-01   2.8047254661643212e-01   2.7403645332932869e-01   2.8228920889927345e-01   2.7571906897649262e-01   2.8391708935044890e-01   2.7727077254473065e-01   2.8533114920628394e-01   2.7865522576967827e-01   2.8652303594783018e-01   2.7985329542296505e-01   2.8749634277546199e-01   2.8085893651483240e-01   2.8826270337366139e-01   2.8167557779619085e-01   2.8883872292019158e-01   2.8231312249979063e-01   2.8924365997546847e-01   2.8278556273645383e-01   2.8949774216658564e-01   2.8310914953233907e-01   2.8330103799199602e-01   2.6499894449637695e-01   2.6065306126962717e-01   2.6550536910037842e-01   2.6065930873291465e-01   2.6659810378375526e-01   2.6129197237444096e-01   2.6809591454177034e-01   2.6238928860527244e-01   2.6983191600908885e-01   2.6379500229745279e-01   2.7166501856431213e-01   2.6537064817703698e-01   2.7348444747162037e-01   2.6700201437115118e-01   2.7520927356964092e-01   2.6860085746542778e-01   2.7678504463289022e-01   2.7010343565356076e-01   2.7817916655112834e-01   2.7146730910006228e-01   2.7937610578159000e-01   2.7266748034294902e-01   2.8037299812174676e-01   2.7369254977784191e-01   2.8117591661787850e-01   2.7454124726692813e-01   2.8179685541182270e-01   2.7521949085221065e-01   2.8225138541655870e-01   2.7573799963757328e-01   2.8255689435802961e-01   2.7611042335072022e-01   2.8273131162684256e-01   2.7635192282482790e-01   2.8279222170663632e-01   2.7647812757045792e-01   2.7650439887443473e-01   2.5977554675764114e-01   2.5522726757538938e-01   2.5987078200724345e-01   2.5486612506425094e-01   2.6058998327460325e-01   2.5516824145396216e-01   2.6176310942190673e-01   2.5597964004235424e-01   2.6322888318939247e-01   2.5714764936509843e-01   2.6484689158006974e-01   2.5853372008814673e-01   2.6650335165953382e-01   2.6002081511408387e-01   2.6811198326761265e-01   2.6151611415997333e-01   2.6961179047742878e-01   2.6295040107693546e-01   2.7096329909534123e-01   2.6427550750324275e-01   2.7214433104993602e-01   2.6546088857281325e-01   2.7314595629447946e-01   2.6649004383479330e-01   2.7396893782494081e-01   2.6735718979261591e-01   2.7462077973000926e-01   2.6806437440556047e-01   2.7511337374561506e-01   2.6861909022097569e-01   2.7546118472188047e-01   2.6903236933874813e-01   2.7567989482300270e-01   2.6931730853317537e-01   2.7578542384023808e-01   2.6948796038399425e-01   2.7579324916216336e-01   2.6955852568579647e-01   2.7571795859714049e-01   2.6954278752349964e-01   2.6945373483786433e-01   2.5471744762038506e-01   2.5001810428094512e-01   2.5439197776604239e-01   2.4928020518205982e-01   2.5472463475634355e-01   2.4923962050551163e-01   2.5555674764574060e-01   2.4975066867460433e-01   2.5673318361785274e-01   2.5066484620068896e-01   2.5811496402706807e-01   2.5184411054551653e-01   2.5958613562368993e-01   2.5316915190980649e-01   2.6105588049712586e-01   2.5454306627330547e-01   2.6245738555113890e-01   2.5589159129619160e-01   2.6374490693978692e-01   2.5716119445569063e-01   2.6489010700380811e-01   2.5831608643640064e-01   2.6587835057683146e-01   2.5933490882848320e-01   2.6670533396917051e-01   2.6020754798695045e-01   2.6737420753588431e-01   2.6093230586995575e-01   2.6789322611218824e-01   2.6151351532210027e-01   2.6827389504576149e-01   2.6195960443547878e-01   2.6852955019681340e-01   2.6228157250735445e-01   2.6867430178442731e-01   2.6249182268229376e-01   2.6872227408737925e-01   2.6260329260203352e-01   2.6868707990591256e-01   2.6262882748628624e-01   2.6858147725620807e-01   2.6258074616252158e-01   2.6247055759977600e-01   2.4987827111685704e-01   2.4509309656890180e-01   2.4912697342058429e-01   2.4397549559076798e-01   2.4906395903362660e-01   2.4358580495324453e-01   2.4954219402958022e-01   2.4378712529863422e-01   2.5041330672996187e-01   2.4443574636610188e-01   2.5154056295372673e-01   2.4539479164461642e-01   2.5280669951854284e-01   2.4654330146230108e-01   2.5411717313506393e-01   2.4778083973826817e-01   2.5540006525304765e-01   2.4902856887776820e-01   2.5660395344335662e-01   2.5022798562833337e-01   2.5769480939707551e-01   2.5133837934369629e-01   2.5865264663392784e-01   2.5233379311720300e-01   2.5946834355642978e-01   2.5319998381948805e-01   2.6014085162788525e-01   2.5393165279177199e-01   2.6067486130592804e-01   2.5453006648418530e-01   2.6107892082012157e-01   2.5500109401391763e-01   2.6136396464259704e-01   2.5535363885399193e-01   2.6154219367012804e-01   2.5559841902111657e-01   2.6162624702464571e-01   2.5574704283654903e-01   2.6162860949277333e-01   2.5581132823105385e-01   2.6156120532211075e-01   2.5580281829147539e-01   2.6143513647061467e-01   2.5573245189979432e-01   2.6126053053916803e-01   2.5561035466459869e-01   2.5544572130933108e-01   2.4531974634892800e-01   2.4052859772217566e-01   2.4414399458807329e-01   2.3903707256832571e-01   2.4368218331408412e-01   2.3829995210301627e-01   2.4379914245456497e-01   2.3818946363437049e-01   2.4435387438430786e-01   2.3856726542205939e-01   2.4521271469890790e-01   2.3929832192358261e-01   2.4625797268079697e-01   2.4026069888736110e-01   2.4739221377847367e-01   2.4135104632057755e-01   2.4853914451148656e-01   2.4248648868506548e-01   2.4964227131497532e-01   2.4360400515358829e-01   2.5066236035735096e-01   2.4465833852740593e-01   2.5157444634529391e-01   2.4561923784801962e-01   2.5236486196400715e-01   2.4646857189555152e-01   2.5302854392922403e-01   2.4719762559533065e-01   2.5356672598303559e-01   2.4780473087546323e-01   2.5398504144134554e-01   2.4829328199752165e-01   2.5429201088600822e-01   2.4867012782275419e-01   2.5449786923641821e-01   2.4894430492740538e-01   2.5461367985598632e-01   2.4912606437053950e-01   2.5465068453870826e-01   2.4922614341289015e-01   2.5461984302867047e-01   2.4925523675104691e-01   2.5453152186355438e-01   2.4922362710128079e-01   2.5439529862712829e-01   2.4914094076846713e-01   2.5421985358958143e-01   2.4901599944440422e-01   2.4885674457971668e-01   2.4111050793347097e-01   2.3640765880076900e-01   2.3952041622399181e-01   2.3455902602897014e-01   2.3866505630684728e-01   2.3348668973814810e-01   2.3842117055498840e-01   2.3307207101361033e-01   2.3865563460734734e-01   2.3318260618289913e-01   2.3923862336618892e-01   2.3368570918068501e-01   2.4005288904596508e-01   2.3445915309019538e-01   2.4099895630294221e-01   2.3539734359482242e-01   2.4199691909771429e-01   2.3641397777366041e-01   2.4298585909868045e-01   2.3744204998158097e-01   2.4392186365791743e-01   2.3843220858792341e-01   2.4477540377564913e-01   2.3935028445298057e-01   2.4552858209522987e-01   2.4017456452202435e-01   2.4617254941232772e-01   2.4089316062903754e-01   2.4670523644531961e-01   2.4150165670327858e-01   2.4712945086861143e-01   2.4200110756047066e-01   2.4745133419483353e-01   2.4239639729216947e-01   2.4767914518421161e-01   2.4269493094137390e-01   2.4782232525486023e-01   2.4290561807115446e-01   2.4789079948481971e-01   2.4303810278052243e-01   2.4789446963332670e-01   2.4310219643298259e-01   2.4784286049861712e-01   2.4310747371620725e-01   2.4774488642832598e-01   2.4306299791986619e-01   2.4760871017880592e-01   2.4297714661831923e-01   2.4744167124910127e-01   2.4285751386396540e-01   2.4271086937463293e-01   2.3732405015309713e-01   2.3281666195831127e-01   2.3534064893594017e-01   2.3064077043366848e-01   2.3410778441481939e-01   2.2925820857652410e-01   2.3351384648111181e-01   2.2855925247330303e-01   2.3343384282649388e-01   2.2841723411755063e-01   2.3374240141595085e-01   2.2870245576047910e-01   2.3432350925921930e-01   2.2929301549569875e-01   2.3507648149029620e-01   2.3008175689565843e-01   2.3591858247694997e-01   2.3097962062886271e-01   2.3678515947874193e-01   2.3191623374564738e-01   2.3762820361147183e-01   2.3283869535373264e-01   2.3841409802998889e-01   2.3370938589587589e-01   2.3912109293673178e-01   2.3450340288167959e-01   2.3973684343961155e-01   2.3520600726259178e-01   2.4025619112775592e-01   2.3581029327628375e-01   2.4067926597571165e-01   2.3631517724171650e-01   2.4100992205443206e-01   2.3672372858530788e-01   2.4125448627770132e-01   2.3704182649942881e-01   2.4142078356671604e-01   2.3727710662353918e-01   2.4151739677546663e-01   2.3743815550762654e-01   2.4155312051199834e-01   2.3753391073340641e-01   2.4153657159919303e-01   2.3757322798150826e-01   2.4147592362953205e-01   2.3756458107096512e-01   2.4137873796952122e-01   2.3751586601040875e-01   2.4125186821125980e-01   2.3743428487352103e-01   2.4110141925417697e-01   2.3732628962282620e-01   2.4093274586340152e-01   2.3719756978493201e-01   2.3705307112806009e-01   2.3403571515229524e-01   2.2984067399437852e-01   2.3169274860733985e-01   2.2738163545680026e-01   2.3011135731798141e-01   2.2572815308809882e-01   2.2919088700163248e-01   2.2477851767828860e-01   2.2881437017622122e-01   2.2441167113943442e-01   2.2886123025125654e-01   2.2450096850931270e-01   2.2921731061822281e-01   2.2492530303425379e-01   2.2978146595155666e-01   2.2557659455190796e-01   2.3046889818478625e-01   2.2636372743049041e-01   2.3121193914576579e-01   2.2721365225044235e-01   2.3195912140376113e-01   2.2807055920200514e-01   2.3267328500787263e-01   2.2889394807309785e-01   2.3332927989258817e-01   2.2965621934392397e-01   2.3391163134124246e-01   2.3034019897880750e-01   2.3441237998926201e-01   2.3093683571821125e-01   2.3482919784088713e-01   2.3144318651447363e-01   2.3516381191886651e-01   2.3186072750046122e-01   2.3542072705294614e-01   2.3219398301374081e-01   2.3560621900855411e-01   2.3244944255423744e-01   2.3572756100156145e-01   2.3263472648361844e-01   2.3579244538569313e-01   2.3275795985456910e-01   2.3580856461625077e-01   2.3282731625720654e-01   2.3578331952140316e-01   2.3285069779545670e-01   2.3572362735473126e-01   2.3283552205200231e-01   2.3563580648701990e-01   2.3278859154978856e-01   2.3552551864618401e-01   2.3271602548679021e-01   2.3539775321790501e-01   2.3262323730067619e-01   2.3525684124606774e-01   2.3251494489210819e-01   2.3239520312030129e-01   2.3131873224636823e-01   2.2755774005957413e-01   2.2866368993065475e-01   2.2487392807328749e-01   2.2677708960787119e-01   2.2300343724534710e-01   2.2556804516591325e-01   2.2185119619682414e-01   2.2492704176690784e-01   2.2130100293728983e-01   2.2473826165434166e-01   2.2122907891932250e-01   2.2488975744489156e-01   2.2151536279155876e-01   2.2528051154078707e-01   2.2205138671168742e-01   2.2582435929509465e-01   2.2274466677151614e-01   2.2645133062148912e-01   2.2352021614849329e-01   2.2710717537751759e-01   2.2432003932121181e-01   2.2775179939119966e-01   2.2510142378248948e-01   2.2835718223991697e-01   2.2583466749622522e-01   2.2890516861500723e-01   2.2650067604401242e-01   2.2938537068433398e-01   2.2708868896603657e-01   2.2979330492294847e-01   2.2759426754733855e-01   2.3012881154389275e-01   2.2801759332914318e-01   2.3039475943653873e-01   2.2836207768984768e-01   2.3059601517495276e-01   2.2863325714331989e-01   2.3073864360257154e-01   2.2883793783832707e-01   2.3082930429353954e-01   2.2898354998156745e-01   2.3087480927026049e-01   2.2907767459841397e-01   2.3088181053472026e-01   2.2912770881654876e-01   2.3085658998278830e-01   2.2914064036945275e-01   2.3080492842393768e-01   2.2912290656319428e-01   2.3073203436967360e-01   2.2908031718978186e-01   2.3064251681837900e-01   2.2901802466095539e-01   2.3054038939203769e-01   2.2894052793778824e-01   2.3042909586392885e-01   2.2885169965359609e-01   2.2875482820306695e-01   2.2923952652723936e-01   2.2603266660480012e-01   2.2633351590742762e-01   2.2319512091446767e-01   2.2419954933380704e-01   2.2117472726261195e-01   2.2275481763297628e-01   2.1988118299743040e-01   2.2189617630464134e-01   2.1920193078178840e-01   2.2151208164488057e-01   2.1901550468173625e-01   2.2149280252070783e-01   2.1920288662603599e-01   2.2173780456329412e-01   2.1965561702412070e-01   2.2216012227658710e-01   2.2028048385500881e-01   2.2268814847169668e-01   2.2100132019340510e-01   2.2326553566816595e-01   2.2175872765413593e-01   2.2384991186935618e-01   2.2250853136246607e-01   2.2441098618634250e-01   2.2321961129320600e-01   2.2492845364799821e-01   2.2387155746097340e-01   2.2538995698185432e-01   2.2445242255760892e-01   2.2578924687859500e-01   2.2495671601747724e-01   2.2612460278339322e-01   2.2538369739426076e-01   2.2639752690574699e-01   2.2573597515589511e-01   2.2661169640965217e-01   2.2601838910957622e-01   2.2677214520038252e-01   2.2623714196590752e-01   2.2688464181980333e-01   2.2639914178982046e-01   2.2695522995047376e-01   2.2651151816998122e-01   2.2698990054500265e-01   2.2658127836645073e-01   2.2699436823216182e-01   2.2661507403282860e-01   2.2697392860836008e-01   2.2661905358067436e-01   2.2693337687684587e-01   2.2659877947544649e-01   2.2687697183722835e-01   2.2655919355491669e-01   2.2680843236485798e-01   2.2650461678689959e-01   2.2673095622890546e-01   2.2643877273395990e-01   2.2664725339026637e-01   2.2636482639623387e-01   2.2655958782454019e-01   2.2628543209912091e-01   2.2620278572425948e-01   2.2785274803810573e-01   2.2531114567262431e-01   2.2476892057164549e-01   2.2240028460964148e-01   2.2245852514436015e-01   2.2030699613332452e-01   2.2084469433245493e-01   2.1894351035044624e-01   2.1982908947079083e-01   2.1819934372465880e-01   2.1930350548974351e-01   2.1795448486349511e-01   2.1916006414952732e-01   2.1809073412324037e-01   2.1929880101267502e-01   2.1849989935016029e-01   2.1963234671698406e-01   2.1908861874570701e-01   2.2008803781216715e-01   2.1978029739285737e-01   2.2060809527253203e-01   2.2051494940565200e-01   2.2114855077649673e-01   2.2124774179025783e-01   2.2167749646866053e-01   2.2194688559354062e-01   2.2217307884040458e-01   2.2259132733012865e-01   2.2262150890643173e-01   2.2316852090551759e-01   2.2301524341139062e-01   2.2367242988024316e-01   2.2335140951511848e-01   2.2410182241693377e-01   2.2363049306056185e-01   2.2445886807331611e-01   2.2385528027177076e-01   2.2474801657688181e-01   2.2403002729450153e-01   2.2497512520239493e-01   2.2415982578658325e-01   2.2514679707963128e-01   2.2425013191513593e-01   2.2526989352003524e-01   2.2430642812702828e-01   2.2535118669943160e-01   2.2433399040913818e-01   2.2539712328116457e-01   2.2433773756784831e-01   2.2541367399938239e-01   2.2432214285096710e-01   2.2540624843589979e-01   2.2429119176281154e-01   2.2537965803162188e-01   2.2424837307160636e-01   2.2533811371019805e-01   2.2419669273943538e-01   2.2528524735388453e-01   2.2413870282157292e-01   2.2522414878505950e-01   2.2407653930878260e-01   2.2515741191030628e-01   2.2401196445904817e-01   2.2508718532129729e-01   2.2501522396323290e-01   2.2719667145360561e-01   2.2541521985391916e-01   2.2401714591202487e-01   2.2251614472616940e-01   2.2161117527944746e-01   2.2043197784157190e-01   2.1990537265405341e-01   2.1907506780377028e-01   2.1880426281943771e-01   2.1833524866323889e-01   2.1820167183450281e-01   2.1809293941575067e-01   2.1799088991620219e-01   2.1823040455040540e-01   2.1807236375016401e-01   2.1863989192459204e-01   2.1835855212598065e-01   2.1922842166929055e-01   2.1877622336487101e-01   2.1991970839136465e-01   2.1926679729626392e-01   2.2065400208233593e-01   2.1978539702390515e-01   2.2138663796694324e-01   2.2029918532872142e-01   2.2208593679811531e-01   2.2078541257863105e-01   2.2273090622754335e-01   2.2122945672660047e-01   2.2330902230572447e-01   2.2162301798372083e-01   2.2381424047952081e-01   2.2196254682566954e-01   2.2424529828062109e-01   2.2224792984953712e-01   2.2460431884820442e-01   2.2248142621299069e-01   2.2489569544144228e-01   2.2266683081305758e-01   2.2512522359500867e-01   2.2280883337978341e-01   2.2529944328747217e-01   2.2291254131893959e-01   2.2542515426912790e-01   2.2298313585912807e-01   2.2550907096224179e-01   2.2302563425407365e-01   2.2555758761016179e-01   2.2304473453092397e-01   2.2557662879809773e-01   2.2304472304305020e-01   2.2557156468636097e-01   2.2302942861159705e-01   2.2554717410191744e-01   2.2300221019745961e-01   2.2550764196297282e-01   2.2296596778884056e-01   2.2545658036203775e-01   2.2292316851800187e-01   2.2539706503299048e-01   2.2287588195738248e-01   2.2533168091730596e-01   2.2282582012541813e-01   2.2526257216885956e-01   2.2277437899771402e-01   2.2519149324158869e-01   2.2272267931272582e-01   2.2511985873434417e-01   2.2504879046508836e-01   2.27289696