<?xml version="1.0"?>
<VTKFile type="UnstructuredGrid"  version="0.1"  >
<UnstructuredGrid>
<Piece  NumberOfPoints="2495" NumberOfCells="4755">
<Points>
<DataArray  type="Float64"  NumberOfComponents="3"  format="ascii">0.5369565217391304 0 0  0.5452173913043478 0 0  0.5452173913043478 0.008333333333333333 0  0.5369565217391304 0.008333333333333333 0  0.5534782608695652 0 0  0.5534782608695652 0.008333333333333333 0  0.5617391304347825 0 0  0.5617391304347825 0.008333333333333333 0  0.57 0 0  0.57 0.008333333333333333 0  0.5782608695652174 0 0  0.5782608695652174 0.008333333333333333 0  0.5865217391304348 0 0  0.5865217391304348 0.008333333333333333 0  0.5947826086956521 0 0  0.5947826086956521 0.008333333333333333 0  0.6030434782608696 0 0  0.6030434782608696 0.008333333333333333 0  0.6113043478260869 0 0  0.6113043478260869 0.008333333333333333 0  0.6195652173913043 0 0  0.6195652173913043 0.008333333333333333 0  0.6278260869565218 0 0  0.6278260869565218 0.008333333333333333 0  0.6360869565217391 0 0  0.6360869565217391 0.008333333333333333 0  0.6443478260869565 0 0  0.6443478260869565 0.008333333333333333 0  0.6526086956521739 0 0  0.6526086956521739 0.008333333333333333 0  0.6608695652173913 0 0  0.6608695652173913 0.008333333333333333 0  0.6691304347826087 0 0  0.6691304347826087 0.008333333333333333 0  0.677391304347826 0 0  0.677391304347826 0.008333333333333333 0  0.6856521739130435 0 0  0.6856521739130435 0.008333333333333333 0  0.6939130434782609 0 0  0.6939130434782609 0.008333333333333333 0  0.7021739130434783 0 0  0.7021739130434783 0.008333333333333333 0  0.7104347826086956 0 0  0.7104347826086956 0.008333333333333333 0  0.718695652173913 0 0  0.718695652173913 0.008333333333333333 0  0.7269565217391304 0 0  0.7269565217391304 0.008333333333333333 0  0.7352173913043478 0 0  0.7352173913043478 0.008333333333333333 0  0.7434782608695653 0 0  0.7434782608695653 0.008333333333333333 0  0.7517391304347827 0 0  0.7517391304347827 0.008333333333333333 0  0.7599999999999999 0 0  0.7599999999999999 0.008333333333333333 0  0.7682608695652173 0 0  0.7682608695652173 0.008333333333333333 0  0.7765217391304348 0 0  0.7765217391304348 0.008333333333333333 0  0.7847826086956522 0 0  0.7847826086956522 0.008333333333333333 0  0.7930434782608695 0 0  0.7930434782608695 0.008333333333333333 0  0.8013043478260868 0 0  0.8013043478260868 0.008333333333333333 0  0.8095652173913043 0 0  0.8095652173913043 0.008333333333333333 0  0.8178260869565217 0 0  0.8178260869565217 0.008333333333333333 0  0.8260869565217391 0 0  0.8260869565217391 0.008333333333333333 0  0.8343478260869565 0 0  0.8343478260869565 0.008333333333333333 0  0.8426086956521739 0 0  0.8426086956521739 0.008333333333333333 0  0.8508695652173912 0 0  0.8508695652173912 0.008333333333333333 0  0.8591304347826086 0 0  0.8591304347826086 0.008333333333333333 0  0.8673913043478261 0 0  0.8673913043478261 0.008333333333333333 0  0.8756521739130434 0 0  0.8756521739130434 0.008333333333333333 0  0.8839130434782608 0 0  0.8839130434782608 0.008333333333333333 0  0.8921739130434783 0 0  0.8921739130434783 0.008333333333333333 0  0.9004347826086956 0 0  0.9004347826086956 0.008333333333333333 0  0.908695652173913 0 0  0.908695652173913 0.008333333333333333 0  0.9169565217391303 0 0  0.9169565217391303 0.008333333333333333 0  0.9252173913043478 0.008333333333333333 0  0.5452173913043478 0.01666666666666667 0  0.5534782608695652 0.01666666666666667 0  0.5617391304347825 0.01666666666666667 0  0.57 0.01666666666666667 0  0.5782608695652174 0.01666666666666667 0  0.5865217391304348 0.01666666666666667 0  0.5947826086956521 0.01666666666666667 0  0.6030434782608696 0.01666666666666667 0  0.6113043478260869 0.01666666666666667 0  0.6195652173913043 0.01666666666666667 0  0.6278260869565218 0.01666666666666667 0  0.6360869565217391 0.01666666666666667 0  0.6443478260869565 0.01666666666666667 0  0.6526086956521739 0.01666666666666667 0  0.6608695652173913 0.01666666666666667 0  0.6691304347826087 0.01666666666666667 0  0.677391304347826 0.01666666666666667 0  0.6856521739130435 0.01666666666666667 0  0.6939130434782609 0.01666666666666667 0  0.7021739130434783 0.01666666666666667 0  0.7104347826086956 0.01666666666666667 0  0.718695652173913 0.01666666666666667 0  0.7269565217391304 0.01666666666666667 0  0.7352173913043478 0.01666666666666667 0  0.7434782608695653 0.01666666666666667 0  0.7517391304347827 0.01666666666666667 0  0.7599999999999999 0.01666666666666667 0  0.7682608695652173 0.01666666666666667 0  0.7765217391304348 0.01666666666666667 0  0.7847826086956522 0.01666666666666667 0  0.7930434782608695 0.01666666666666667 0  0.8013043478260868 0.01666666666666667 0  0.8095652173913043 0.01666666666666667 0  0.8178260869565217 0.01666666666666667 0  0.8260869565217391 0.01666666666666667 0  0.8343478260869565 0.01666666666666667 0  0.8426086956521739 0.01666666666666667 0  0.8508695652173912 0.01666666666666667 0  0.8591304347826086 0.01666666666666667 0  0.8673913043478261 0.01666666666666667 0  0.8756521739130434 0.01666666666666667 0  0.8839130434782608 0.01666666666666667 0  0.8921739130434783 0.01666666666666667 0  0.9004347826086956 0.01666666666666667 0  0.908695652173913 0.01666666666666667 0  0.9169565217391303 0.01666666666666667 0  0.9252173913043478 0.01666666666666667 0  0.5534782608695652 0.025 0  0.5452173913043478 0.025 0  0.5617391304347825 0.025 0  0.57 0.025 0  0.5782608695652174 0.025 0  0.5865217391304348 0.025 0  0.5947826086956521 0.025 0  0.6030434782608696 0.025 0  0.6113043478260869 0.025 0  0.6195652173913043 0.025 0  0.6278260869565218 0.025 0  0.6360869565217391 0.025 0  0.6443478260869565 0.025 0  0.6526086956521739 0.025 0  0.6608695652173913 0.025 0  0.6691304347826087 0.025 0  0.677391304347826 0.025 0  0.6856521739130435 0.025 0  0.6939130434782609 0.025 0  0.7021739130434783 0.025 0  0.7104347826086956 0.025 0  0.718695652173913 0.025 0  0.7269565217391304 0.025 0  0.7352173913043478 0.025 0  0.7434782608695653 0.025 0  0.7517391304347827 0.025 0  0.7599999999999999 0.025 0  0.7682608695652173 0.025 0  0.7765217391304348 0.025 0  0.7847826086956522 0.025 0  0.7930434782608695 0.025 0  0.8013043478260868 0.025 0  0.8095652173913043 0.025 0  0.8178260869565217 0.025 0  0.8260869565217391 0.025 0  0.8343478260869565 0.025 0  0.8426086956521739 0.025 0  0.8508695652173912 0.025 0  0.8591304347826086 0.025 0  0.8673913043478261 0.025 0  0.8756521739130434 0.025 0  0.8839130434782608 0.025 0  0.8921739130434783 0.025 0  0.9004347826086956 0.025 0  0.908695652173913 0.025 0  0.9169565217391303 0.025 0  0.9252173913043478 0.025 0  0.5534782608695652 0.03333333333333333 0  0.5617391304347825 0.03333333333333333 0  0.57 0.03333333333333333 0  0.5782608695652174 0.03333333333333333 0  0.5865217391304348 0.03333333333333333 0  0.5947826086956521 0.03333333333333333 0  0.6030434782608696 0.03333333333333333 0  0.6113043478260869 0.03333333333333333 0  0.6195652173913043 0.03333333333333333 0  0.6278260869565218 0.03333333333333333 0  0.6360869565217391 0.03333333333333333 0  0.6443478260869565 0.03333333333333333 0  0.6526086956521739 0.03333333333333333 0  0.6608695652173913 0.03333333333333333 0  0.6691304347826087 0.03333333333333333 0  0.677391304347826 0.03333333333333333 0  0.6856521739130435 0.03333333333333333 0  0.6939130434782609 0.03333333333333333 0  0.7021739130434783 0.03333333333333333 0  0.7104347826086956 0.03333333333333333 0  0.718695652173913 0.03333333333333333 0  0.7269565217391304 0.03333333333333333 0  0.7352173913043478 0.03333333333333333 0  0.7434782608695653 0.03333333333333333 0  0.7517391304347827 0.03333333333333333 0  0.7599999999999999 0.03333333333333333 0  0.7682608695652173 0.03333333333333333 0  0.7765217391304348 0.03333333333333333 0  0.7847826086956522 0.03333333333333333 0  0.7930434782608695 0.03333333333333333 0  0.8013043478260868 0.03333333333333333 0  0.8095652173913043 0.03333333333333333 0  0.8178260869565217 0.03333333333333333 0  0.8260869565217391 0.03333333333333333 0  0.8343478260869565 0.03333333333333333 0  0.8426086956521739 0.03333333333333333 0  0.8508695652173912 0.03333333333333333 0  0.8591304347826086 0.03333333333333333 0  0.8673913043478261 0.03333333333333333 0  0.8756521739130434 0.03333333333333333 0  0.8839130434782608 0.03333333333333333 0  0.8921739130434783 0.03333333333333333 0  0.9004347826086956 0.03333333333333333 0  0.908695652173913 0.03333333333333333 0  0.9169565217391303 0.03333333333333333 0  0.9252173913043478 0.03333333333333333 0  0.5617391304347825 0.04166666666666666 0  0.57 0.04166666666666666 0  0.5782608695652174 0.04166666666666666 0  0.5865217391304348 0.04166666666666666 0  0.5947826086956521 0.04166666666666666 0  0.6030434782608696 0.04166666666666666 0  0.6113043478260869 0.04166666666666666 0  0.6195652173913043 0.04166666666666666 0  0.6278260869565218 0.04166666666666666 0  0.6360869565217391 0.04166666666666666 0  0.6443478260869565 0.04166666666666666 0  0.6526086956521739 0.04166666666666666 0  0.6608695652173913 0.04166666666666666 0  0.6691304347826087 0.04166666666666666 0  0.677391304347826 0.04166666666666666 0  0.6856521739130435 0.04166666666666666 0  0.6939130434782609 0.04166666666666666 0  0.7021739130434783 0.04166666666666666 0  0.7104347826086956 0.04166666666666666 0  0.718695652173913 0.04166666666666666 0  0.7269565217391304 0.04166666666666666 0  0.7352173913043478 0.04166666666666666 0  0.7434782608695653 0.04166666666666666 0  0.7517391304347827 0.04166666666666666 0  0.7599999999999999 0.04166666666666666 0  0.7682608695652173 0.04166666666666666 0  0.7765217391304348 0.04166666666666666 0  0.7847826086956522 0.04166666666666666 0  0.7930434782608695 0.04166666666666666 0  0.8013043478260868 0.04166666666666666 0  0.8095652173913043 0.04166666666666666 0  0.8178260869565217 0.04166666666666666 0  0.8260869565217391 0.04166666666666666 0  0.8343478260869565 0.04166666666666666 0  0.8426086956521739 0.04166666666666666 
[...]
<CellData  Scalars="rho"> 
<DataArray  type="Float64"  Name="rho"  format="ascii">1.0000000000000000e+00   1.0000000000000000e+00   1.0000000000000000e+00   1.0000000000000000e+00   1.0000000000000000e+00   1.0000000000000000e+00   1.0000000000000000e+00   1.0000000000000000e+00   1.0000000000000000e+00   1.0000000000000000e+00   1.0000000000000000e+00   1.0000000000000000e+00   1.0000000000000000e+00   1.0000000000000000e+00   1.0000000000000000e+00   1.0000000000000000e+00   1.0000000000000000e+00   1.0000000000000000e+00   1.0000000000000000e+00   1.0000000000000000e+00   1.0000000000000000e+00   1.0000000000000000e+00   1.0000000000000000e+00   1.0000000000000000e+00   1.0000000000000000e+00   1.0000000000000000e+00   1.0000000000000000e+00   1.0000000000000000e+00   1.0000000000000000e+00   1.0000000000000000e+00   1.0000000000000000e+00   1.0000000000000000e+00   1.0000000000000000e+00   1.0000000000000000e+00   1.0000000000000000e+00   1.0000000000000000e+00   1.0000000000000000e+00   1.0000000000000000e+00   1.0000000000000000e+00   1.0000000000000000e+00   1.0000000000000000e+00   1.0000000000000000e+00   1.0000000000000000e+00   1.0000000000000000e+00   1.0000000000000000e+00   1.0000000000000000e+00   1.0000000000000000e+00   1.0000000000000000e+00   1.0000000000000000e+00   1.0000000000000000e+00   1.0000000000000000e+00   1.0000000000000000e+00   1.0000000000000000e+00   1.0000000000000000e+00   1.0000000000000000e+00   1.0000000000000000e+00   1.0000000000000000e+00   1.0000000000000000e+00   1.0000000000000000e+00   1.0000000000000000e+00   1.0000000000000000e+00   1.0000000000000000e+00   1.0000000000000000e+00   1.0000000000000000e+00   1.0000000000000000e+00   1.0000000000000000e+00   1.0000000000000000e+00   1.0000000000000000e+00   1.0000000000000000e+00   1.0000000000000000e+00   1.0000000000000000e+00   1.0000000000000000e+00   1.0000000000000000e+00   1.0000000000000000e+00   1.0000000000000000e+00   1.0000000000000000e+00   1.0000000000000000e+00   1.0000000000000000e+00   1.0000000000000000e+00   1.0000000000000000e+00   1.0000000000000000e+00   1.0000000000000000e+00   1.0000000000000000e+00   1.0000000000000000e+00   1.0000000000000000e+00   1.0000000000000000e+00   1.0000000000000000e+00   1.0000000000000000e+00   1.0000000000000000e+00   1.0000000000000000e+00   1.0000000000000000e+00   1.0000000000000000e+00   1.0000000000000000e+00   1.0000000000000000e+00   1.0000000000000000e+00   1.0000000000000000e+00   1.0000000000000000e+00   1.0000000000000000e+00   1.0000000000000000e+00   1.0000000000000000e+00   1.0000000000000000e+00   1.0000000000000000e+00   1.0000000000000000e+00   1.0000000000000000e+00   1.0000000000000000e+00   1.0000000000000000e+00   1.0000000000000000e+00   1.0000000000000000e+00   1.0000000000000000e+00   1.0000000000000000e+00   1.0000000000000000e+00   1.0000000000000000e+00   1.0000000000000000e+00   1.0000000000000000e+00   1.0000000000000000e+00   1.0000000000000000e+00   1.0000000000000000e+00   1.0000000000000000e+00   1.0000000000000000e+00   1.0000000000000000e+00   1.0000000000000000e+00   1.0000000000000000e+00   1.0000000000000000e+00   1.0000000000000000e+00   1.0000000000000000e+00   1.0000000000000000e+00   1.0000000000000000e+00   1.0000000000000000e+00   1.0000000000000000e+00   1.0000000000000000e+00   1.0000000000000000e+00   1.0000000000000000e+00   1.0000000000000000e+00   1.0000000000000000e+00   1.0000000000000000e+00   1.0000000000000000e+00   1.0000000000000000e+00   1.0000000000000000e+00   1.0000000000000000e+00   1.0000000000000000e+00   1.0000000000000000e+00   1.0000000000000000e+00   1.0000000000000000e+00   1.0000000000000000e+00   1.0000000000000000e+00   1.0000000000000000e+00   1.0000000000000000e+00   1.0000000000000000e+00   1.0000000000000000e+00   1.0000000000000000e+00   1.0000000000000000e+00   1.0000000000000000e+00   1.0000000000000000e+00   1.0000000000000000e+00   1.0000000000000000e+00   1.0000000000000000e+00   1.0000000000000000e+00   1.0000000000000000e+00   1.0000000000000000e+00   1.0000000000000000e+00   1.0000000000000000e+00   1.0000000000000000e+00   1.0000000000000000e+00   1.0000000000000000e+00   1.0000000000000000e+00   1.0000000000000000e+00   1.0000000000000000e+00   1.0000000000000000e+00   1.0000000000000000e+00   1.0000000000000000e+00   1.0000000000000000e+00   1.0000000000000000e+00   1.0000000000000000e+00   1.0000000000000000e+00   1.0000000000000000e+00   1.0000000000000000e+00   1.0000000000000000e+00   1.0000000000000000e+00   1.0000000000000000e+00   1.0000000000000000e+00   1.0000000000000000e+00   1.0000000000000000e+00   1.0000000000000000e+00   1.0000000000000000e+00   1.0000000000000000e+00   1.0000000000000000e+00   1.0000000000000000e+00   1.0000000000000000e+00   1.0000000000000000e+00   1.0000000000000000e+00   1.0000000000000000e+00   1.0000000000000000e+00   1.0000000000000000e+00   1.0000000000000000e+00   1.0000000000000000e+00   1.0000000000000000e+00   1.0000000000000000e+00   1.0000000000000000e+00   1.0000000000000000e+00   1.0000000000000000e+00   1.0000000000000000e+00   1.0000000000000000e+00   1.0000000000000000e+00   1.0000000000000000e+00   1.0000000000000000e+00   1.0000000000000000e+00   1.0000000000000000e+00   1.0000000000000000e+00   1.0000000000000000e+00   1.0000000000000000e+00   1.0000000000000000e+00   1.0000000000000000e+00   1.0000000000000000e+00   1.0000000000000000e+00   1.0000000000000000e+00   1.0000000000000000e+00   1.0000000000000000e+00   1.0000000000000000e+00   1.0000000000000000e+00   1.0000000000000000e+00   1.0000000000000000e+00   1.0000000000000000e+00   1.0000000000000000e+00   1.0000000000000000e+00   1.0000000000000000e+00   1.0000000000000000e+00   1.0000000000000000e+00   1.0000000000000000e+00   1.0000000000000000e+00   1.0000000000000000e+00   1.0000000000000000e+00   1.0000000000000000e+00   1.0000000000000000e+00   1.0000000000000000e+00   1.0000000000000000e+00   1.0000000000000000e+00   1.0000000000000000e+00   1.0000000000000000e+00   1.0000000000000000e+00   1.0000000000000000e+00   1.0000000000000000e+00   1.0000000000000000e+00   1.0000000000000000e+00   1.0000000000000000e+00   1.0000000000000000e+00   1.0000000000000000e+00   1.0000000000000000e+00   1.0000000000000000e+00   1.0000000000000000e+00   1.0000000000000000e+00   1.0000000000000000e+00   1.0000000000000000e+00   1.0000000000000000e+00   1.0000000000000000e+00   1.0000000000000000e+00   1.0000000000000000e+00   1.0000000000000000e+00   1.0000000000000000e+00   1.0000000000000000e+00   1.0000000000000000e+00   1.0000000000000000e+00   1.0000000000000000e+00   1.0000000000000000e+00   1.0000000000000000e+00   1.0000000000000000e+00   1.0000000000000000e+00   1.0000000000000000e+00   1.0000000000000000e+00   1.0000000000000000e+00   1.0000000000000000e+00   1.0000000000000000e+00   1.0000000000000000e+00   1.0000000000000000e+00   1.0000000000000000e+00   1.0000000000000000e+00   1.0000000000000000e+00   1.0000000000000000e+00   1.0000000000000000e+00   1.0000000000000000e+00   1.0000000000000000e+00   1.0000000000000000e+00   1.0000000000000000e+00   1.0000000000000000e+00   1.0000000000000000e+00   1.0000000000000000e+00   1.0000000000000000e+00   1.0000000000000000e+00   1.0000000000000000e+00   1.0000000000000000e+00   1.0000000000000000e+00   1.0000000000000000e+00   1.0000000000000000e+00   1.0000000000000000e+00   1.0000000000000000e+00   1.0000000000000000e+00   1.0000000000000000e+00   9.9482569827292711e-01   1.0000000000000000e+00   9.8322455113589147e-01   1.0000000000000000e+00   9.7202865753795509e-01   1.0000000000000000e+00   9.6130319826603661e-01   1.0000000000000000e+00   9.5092078859819007e-01   1.0000000000000000e+00   9.4078850834805516e-01   1.0000000000000000e+00   9.3092886697418753e-01   1.0000000000000000e+00   9.2140254160754920e-01   1.0000000000000000e+00   9.0940756671883471e-01   1.0000000000000000e+00   8.9695549244782447e-01   1.0000000000000000e+00   8.8523898600963080e-01   1.0000000000000000e+00   8.7311300489139143e-01   1.0000000000000000e+00   8.6092697092206127e-01   1.0000000000000000e+00   8.5269088557901573e-01   1.0000000000000000e+00   8.4149738885937964e-01   1.0000000000000000e+00   7.4662584426078482e-01   1.0000000000000000e+00   7.3277800193438314e-01   1.0000000000000000e+00   7.2258149059623933e-01   1.0000000000000000e+00   7.1445444375797074e-01   1.0000000000000000e+00   7.0448771905139385e-01   1.0000000000000000e+00   7.0185291171372122e-01   1.0000000000000000e+00   6.9645740754180308e-01   1.0000000000000000e+00   6.9143154075240243e-01   1.0000000000000000e+00   6.8687637007875479e-01   1.0000000000000000e+00   6.8318187034206534e-01   1.0000000000000000e+00   6.7550466475860838e-01   1.0000000000000000e+00   6.8486204613300872e-01   1.0000000000000000e+00   6.8152735519987673e-01   1.0000000000000000e+00   6.7784307881438688e-01   1.0000000000000000e+00   6.7411759477879751e-01   1.0000000000000000e+00   6.7047517017189806e-01   1.0000000000000000e+00   6.6701842923406895e-01   1.0000000000000000e+00   6.6379484197742322e-01   1.0000000000000000e+00   6.6081753347820449e-01   1.0000000000000000e+00   6.5807485952343814e-01   1.0000000000000000e+00   6.5553811610116575e-01   1.0000000000000000e+00   6.5316925546491733e-01   1.0000000000000000e+00   1.0000000000000000e+00   5.1224500564978981e-01   1.0000000000000000e+00   4.8014375265322634e-01   1.0000000000000000e+00   4.4944248104677692e-01   1.0000000000000000e+00   4.1930572479851863e-01   1.0000000000000000e+00   3.8923541168040998e-01   1.0000000000000000e+00   3.5919996768276397e-01   1.0000000000000000e+00   3.3881761143189737e-01   9.9310121392485629e-01   3.2141595158123981e-01   9.8138541111463085e-01   3.0446829745478210e-01   9.7003660033593497e-01   2.8804765225972262e-01   9.5911851912839119e-01   2.7237043239510539e-01   9.4853263111429986e-01   2.5721338903560043e-01   9.3820468486854225e-01   2.4462176752228001e-01   9.2816208356725438e-01   2.3543797742357206e-01   9.1846501252072588e-01   2.2671317998857618e-01   9.0471083522259466e-01   2.1855976839665334e-01   8.9211138352974351e-01   2.1104559741663262e-01   8.8034912897777051e-01   2.0419498506841169e-01   8.6836460368329893e-01   1.9772277053715923e-01   8.5598961787345296e-01   1.8886024424392853e-01   8.4809215577098773e-01   1.8153444382346448e-01   8.3685063626914391e-01   1.7399604327878157e-01   7.4328498379461294e-01   1.6735887722496032e-01   7.2935886299044883e-01   1.6174418963678192e-01   7.1902415851260071e-01   1.5673942660243564e-01   7.1066781684631275e-01   1.5205959792035814e-01   7.0766629130114311e-01   1.4751385994732819e-01   6.9920651063436090e-01   1.4323821354506838e-01   6.9394840354252518e-01   1.3939700495444263e-01   6.8906811904073273e-01   1.3603526884237388e-01   6.8466210837717378e-01   1.3291551550530539e-01   6.8105214029571082e-01   1.3007634819960417e-01   6.9081421774897667e-01   1.2756484338238616e-01   6.8371239617328949e-01   1.2539163193542291e-01   6.8084152010729204e-01   1.2352004479258294e-01   6.7760410220946743e-01   1.2188590492656920e-01   6.7431260187251418e-01   1.2044224966449651e-01   6.7107913864750912e-01   1.1918035224635348e-01   6.6801676408051613e-01   1.1811808669059382e-01   6.6518150107189233e-01   1.1727731553453208e-01   6.6259362578817449e-01   1.1666882916476290e-01   6.6024671647263833e-01   1.1628871029120158e-01   6.5811513489440543e-01   1.1612296721177834e-01   6.5616092876268783e-01   1.1615347565145556e-01   5.3412412337764792e-01   5.0750500813046440e-01   1.3435840420445050e-01   4.8246786399379782e-01   1.2484521901194207e-01   4.6022915648031376e-01   1.1514584291676527e-01   4.3898340479578529e-01   1.0535147623325075e-01   4.2017130988574719e-01   9.6020046333033682e-02   3.9843180023273883e-01   8.6648718415224202e-02   3.7975225700191922e-01   7.7244146774273770e-02   3.6435278309528529e-01   6.7958623002912943e-02   3.5175249781314050e-01   5.9504243159622494e-02   3.4212259602666406e-01   5.1427959174545623e-02   3.3467095976445432e-01   4.3392325989452224e-02   3.2824580426915329e-01   3.5519437141411508e-02   3.2294638522985436e-01   2.7953981032145997e-02   3.1896472292332406e-01   2.2852758914824439e-02   3.1620379971153301e-01   1.8142716498565387e-02   3.1489133986145490e-01   1.3723941067696727e-02   3.1598633087349842e-01   9.6977996439983338e-03   3.2403073683569700e-01   6.2948998148492363e-03   3.4793753463080040e-01   4.2958993930344580e-03   3.5762625891449462e-01   0.0000000000000000e+00   3.5084645379930984e-01   1.8545241215679159e-02   3.4961353379722915e-01   1.6934192790887398e-02   3.5288882420064116e-01   1.4577031998706330e-02   3.4724170058299531e-01   1.2047458092424274e-02   3.4353630256830470e-01   9.4841322152816876e-03   3.4080622408894473e-01   6.9518200952864151e-03   3.3882601984981670e-01   4.4880560801336122e-03   3.3726027330048725e-01   2.1177095004928648e-03   3.3652805138895026e-01   0.0000000000000000e+00   3.3595288184361616e-01   0.0000000000000000e+00   3.3617831450985786e-01   0.0000000000000000e+00   3.3849581833246140e-01   0.0000000000000000e+00   3.4213217415707897e-01   0.0000000000000000e+00   3.4598963769488950e-01   0.0000000000000000e+00   3.5009589681664594e-01   0.0000000000000000e+00   3.5286719559484969e-01   0.0000000000000000e+00   3.5429231818055362e-01   0.0000000000000000e+00   3.5487196666507792e-01   0.0000000000000000e+00   3.5507437379679496e-01   0.0000000000000000e+00   3.5521065646272881e-01   0.0000000000000000e+00   3.5548299828719110e-01   0.0000000000000000e+00   3.5601647727703550e-01   0.0000000000000000e+00   3.5685596555307442e-01   0.0000000000000000e+00   3.5750728373858631e-01   3.5584081017188190e-01   5.9091369993528320e-03   3.5398815295216279e-01   2.9716372322688422e-04   3.3990054736186109e-01   0.0000000000000000e+00   3.3915517797051714e-01   0.0000000000000000e+00   3.4074475827649264e-01   0.0000000000000000e+00   3.3534463644483398e-01   0.0000000000000000e+00   3.3362768605490367e-01   0.0000000000000000e+00   3.3371892623595617e-01   0.0000000000000000e+00   3.3503595490894744e-01   0.0000000000000000e+00   3.3600754400150540e-01   0.0000000000000000e+00   3.3590703138551253e-01   0.0000000000000000e+00   3.3524479275780511e-01   0.0000000000000000e+00   3.3402046155785303e-01   0.0000000000000000e+00   3.3321738510020571e-01   0.0000000000000000e+00   3.3238382276004397e-01   0.0000000000000000e+00   3.2998050766020848e-01   0.0000000000000000e+00   3.2641528308911072e-01   0.0000000000000000e+00   3.2953579669488042e-01   0.0000000000000000e+00   3.5419045783455794e-01   0.0000000000000000e+00   3.4563278222527555e-01   0.0000000000000000e+00   3.4671749951665548e-01   0.0000000000000000e+00   3.4875520847661873e-01   0.0000000000000000e+00   3.4827178626128474e-01   0.0000000000000000e+00   3.4586409105593119e-01   0.0000000000000000e+00   3.4361912044092707e-01   0.0000000000000000e+00   3.4116729188260486e-01   0.0000000000000000e+00   3.3865186567954453e-01   0.0000000000000000e+00   3.3661445966534626e-01   0.0000000000000000e+00   3.3468130988548001e-01   0.0000000000000000e+00   3.3338516578138122e-01   0.0000000000000000e+00   3.3370032534815164e-01   0.0000000000000000e+00   3.3492302876011432e-01   0.0000000000000000e+00   3.3679139561380173e-01   0.0000000000000000e+00   3.3883203882540752e-01   0.0000000000000000e+00   3.4033185992181791e-01   0.0000000000000000e+00   3.4081985668001941e-01   0.0000000000000000e+00   3.4064693662159218e-01   0.0000000000000000e+00   3.4038409313139939e-01   0.0000000000000000e+00   3.4008099860385133e-01   0.0000000000000000e+00   3.3986300487648269e-01   0.0000000000000000e+00   3.3986418422418196e-01   0.0000000000000000e+00   3.4018672201151379e-01   0.0000000000000000e+00   3.7319602047483341e-01   0.0000000000000000e+00   3.6717887551465261e-01   0.0000000000000000e+00   3.6310814331828389e-01   0.0000000000000000e+00   3.5900192822978899e-01   0.0000000000000000e+00   3.4369192163374707e-01   0.0000000000000000e+00   3.4244249076070110e-01   0.0000000000000000e+00   3.3455805637825076e-01   0.0000000000000000e+00   3.3340585084268765e-01   0.0000000000000000e+00   3.3257610518976621e-01   0.0000000000000000e+00   3.3180744948687801e-01   0.0000000000000000e+00   3.3044081665132286e-01   0.0000000000000000e+00   3.2861783176344650e-01   0.0000000000000000e+00   3.2679547224311939e-01   0.0000000000000000e+00   3.2508114857032749e-01   0.0000000000000000e+00   3.2369257093569376e-01   0.0000000000000000e+00   3.2277419883605368e-01   0.0000000000000000e+00   3.2305806175807950e-01   0.0000000000000000e+00   3.2655164279892512e-01   0.0000000000000000e+00   3.1665844600888149e-01   0.0000000000000000e+00   3.3168791976451734e-01   0.0000000000000000e+00   3.1527933616517617e-01   0.0000000000000000e+00   3.2013376156536827e-01   0.0000000000000000e+00   3.1921530150877142e-01   0.0000000000000000e+00   3.1992522593001255e-01   0.0000000000000000e+00   3.2046029239930818e-01   0.0000000000000000e+00   3.1992465746227711e-01   0.0000000000000000e+00   3.1804147103053476e-01   0.0000000000000000e+00   3.1621662755542729e-01   0.0000000000000000e+00   3.1524181228153625e-01   0.0000000000000000e+00   3.1501883171303463e-01   0.0000000000000000e+00   3.1552533987407966e-01   0.0000000000000000e+00   3.1698129274192927e-01   0.0000000000000000e+00   3.1891794356085301e-01   0.0000000000000000e+00   3.2094774342045601e-01   0.0000000000000000e+00   3.2254049066240786e-01   0.0000000000000000e+00   3.2319356705901303e-01   0.0000000000000000e+00   3.2330262452100555e-01   0.0000000000000000e+00   3.2344117330270511e-01   0.0000000000000000e+00   3.2356026894996820e-01   0.0000000000000000e+00   3.2370942980415163e-01   0.0000000000000000e+00   3.2398868378684631e-01   0.0000000000000000e+00   3.2449734055123303e-01   0.0000000000000000e+00   3.7581479115841937e-01   3.6972319489838040e-01   0.0000000000000000e+00   3.6359685709878586e-01   0.0000000000000000e+00   3.5658528505577508e-01   0.0000000000000000e+00   3.5705884963046491e-01   0.0000000000000000e+00   3.5571516678861642e-01   0.0000000000000000e+00   3.5926730739294860e-01   0.0000000000000000e+00   3.4477408997507175e-01   0.0000000000000000e+00   3.3919317146547140e-01   0.0000000000000000e+00   3.3658377895215585e-01   0.0000000000000000e+00   3.3396772507310951e-01   0.0000000000000000e+00   3.3134536679855764e-01   0.0000000000000000e+00   3.2881024601703235e-01   0.0000000000000000e+00   3.2076396843593602e-01   0.0000000000000000e+00   3.1823830335548819e-01   0.0000000000000000e+00   3.1661823364456793e-01   0.0000000000000000e+00   3.2428002998752620e-01   0.0000000000000000e+00   3.2682237483252485e-01   0.0000000000000000e+00   3.2689812214499681e-01   0.0000000000000000e+00   3.2533731555257744e-01   0.0000000000000000e+00   3.3060019185120482e-01   0.0000000000000000e+00   3.1549080970623128e-01   0.0000000000000000e+00   3.1895566673581360e-01   0.0000000000000000e+00   3.2224408961055795e-01   0.0000000000000000e+00   3.2257509011164759e-01   0.0000000000000000e+00   3.2316293543051361e-01   0.0000000000000000e+00   3.2037919809132809e-01   0.0000000000000000e+00   3.1801874042953399e-01   0.0000000000000000e+00   3.1695671902513611e-01   0.0000000000000000e+00   3.1701876588403527e-01   0.0000000000000000e+00   3.1772770250418397e-01   0.0000000000000000e+00   3.1912378930106217e-01   0.0000000000000000e+00   3.2102198324679210e-01   0.0000000000000000e+00   3.2343084428510943e-01   0.0000000000000000e+00   3.2571526999038425e-01   0.0000000000000000e+00   3.2605335997826534e-01   0.0000000000000000e+00   3.2542503191809652e-01   0.0000000000000000e+00   3.2575791613274990e-01   0.0000000000000000e+00   3.2609662369246517e-01   0.0000000000000000e+00   3.2643226164333983e-01   0.0000000000000000e+00   3.2685512715840276e-01   0.0000000000000000e+00   3.2749740257660614e-01   0.0000000000000000