<?xml version="1.0"?>
<VTKFile type="UnstructuredGrid"  version="0.1"  >
<UnstructuredGrid>
<Piece  NumberOfPoints="640" NumberOfCells="1181">
<Points>
<DataArray  type="Float64"  NumberOfComponents="3"  format="ascii">2.973913043478261 0 0  2.990434782608696 0 0  2.990434782608696 0.01666666666666667 0  2.973913043478261 0.01666666666666667 0  3.006956521739131 0 0  3.006956521739131 0.01666666666666667 0  3.023478260869565 0 0  3.023478260869565 0.01666666666666667 0  3.04 0 0  3.04 0.01666666666666667 0  3.056521739130435 0 0  3.056521739130435 0.01666666666666667 0  3.073043478260869 0 0  3.073043478260869 0.01666666666666667 0  3.089565217391304 0 0  3.089565217391304 0.01666666666666667 0  3.106086956521739 0 0  3.106086956521739 0.01666666666666667 0  3.122608695652174 0 0  3.122608695652174 0.01666666666666667 0  3.139130434782609 0 0  3.139130434782609 0.01666666666666667 0  3.155652173913043 0 0  3.155652173913043 0.01666666666666667 0  3.172173913043478 0 0  3.172173913043478 0.01666666666666667 0  3.188695652173913 0 0  3.188695652173913 0.01666666666666667 0  3.205217391304347 0 0  3.205217391304347 0.01666666666666667 0  3.221739130434782 0 0  3.221739130434782 0.01666666666666667 0  3.238260869565217 0 0  3.238260869565217 0.01666666666666667 0  2.990434782608696 0.03333333333333333 0  2.973913043478261 0.03333333333333333 0  3.006956521739131 0.03333333333333333 0  3.023478260869565 0.03333333333333333 0  3.04 0.03333333333333333 0  3.056521739130435 0.03333333333333333 0  3.073043478260869 0.03333333333333333 0  3.089565217391304 0.03333333333333333 0  3.106086956521739 0.03333333333333333 0  3.122608695652174 0.03333333333333333 0  3.139130434782609 0.03333333333333333 0  3.155652173913043 0.03333333333333333 0  3.172173913043478 0.03333333333333333 0  3.188695652173913 0.03333333333333333 0  3.205217391304347 0.03333333333333333 0  3.221739130434782 0.03333333333333333 0  3.238260869565217 0.03333333333333333 0  3.254782608695652 0.03333333333333333 0  2.990434782608696 0.05 0  3.006956521739131 0.05 0  3.023478260869565 0.05 0  3.04 0.05 0  3.056521739130435 0.05 0  3.073043478260869 0.05 0  3.089565217391304 0.05 0  3.106086956521739 0.05 0  3.122608695652174 0.05 0  3.139130434782609 0.05 0  3.155652173913043 0.05 0  3.172173913043478 0.05 0  3.188695652173913 0.05 0  3.205217391304347 0.05 0  3.221739130434782 0.05 0  3.238260869565217 0.05 0  3.254782608695652 0.05 0  3.271304347826087 0.05 0  3.006956521739131 0.06666666666666667 0  2.990434782608696 0.06666666666666667 0  3.023478260869565 0.06666666666666667 0  3.04 0.06666666666666667 0  3.056521739130435 0.06666666666666667 0  3.073043478260869 0.06666666666666667 0  3.089565217391304 0.06666666666666667 0  3.106086956521739 0.06666666666666667 0  3.122608695652174 0.06666666666666667 0  3.139130434782609 0.06666666666666667 0  3.155652173913043 0.06666666666666667 0  3.172173913043478 0.06666666666666667 0  3.188695652173913 0.06666666666666667 0  3.205217391304347 0.06666666666666667 0  3.221739130434782 0.06666666666666667 0  3.238260869565217 0.06666666666666667 0  3.254782608695652 0.06666666666666667 0  3.271304347826087 0.06666666666666667 0  3.287826086956521 0.06666666666666667 0  3.006956521739131 0.08333333333333333 0  3.023478260869565 0.08333333333333333 0  3.04 0.08333333333333333 0  3.056521739130435 0.08333333333333333 0  3.073043478260869 0.08333333333333333 0  3.089565217391304 0.08333333333333333 0  3.106086956521739 0.08333333333333333 0  3.122608695652174 0.08333333333333333 0  3.139130434782609 0.08333333333333333 0  3.155652173913043 0.08333333333333333 0  3.172173913043478 0.08333333333333333 0  3.188695652173913 0.08333333333333333 0  3.205217391304347 0.08333333333333333 0  3.221739130434782 0.08333333333333333 0  3.238260869565217 0.08333333333333333 0  3.254782608695652 0.08333333333333333 0  3.271304347826087 0.08333333333333333 0  3.287826086956521 0.08333333333333333 0  3.304347826086957 0.08333333333333333 0  3.023478260869565 0.1 0  3.006956521739131 0.1 0  3.04 0.1 0  3.056521739130435 0.1 0  3.073043478260869 0.1 0  3.089565217391304 0.1 0  3.106086956521739 0.1 0  3.122608695652174 0.1 0  3.139130434782609 0.1 0  3.155652173913043 0.1 0  3.172173913043478 0.1 0  3.188695652173913 0.1 0  3.205217391304347 0.1 0  3.221739130434782 0.1 0  3.238260869565217 0.1 0  3.254782608695652 0.1 0  3.271304347826087 0.1 0  3.287826086956521 0.1 0  3.304347826086957 0.1 0  3.320869565217391 0.1 0  3.023478260869565 0.1166666666666667 0  3.04 0.1166666666666667 0  3.056521739130435 0.1166666666666667 0  3.073043478260869 0.1166666666666667 0  3.089565217391304 0.1166666666666667 0  3.106086956521739 0.1166666666666667 0  3.122608695652174 0.1166666666666667 0  3.139130434782609 0.1166666666666667 0  3.155652173913043 0.1166666666666667 0  3.172173913043478 0.1166666666666667 0  3.188695652173913 0.1166666666666667 0  3.205217391304347 0.1166666666666667 0  3.221739130434782 0.1166666666666667 0  3.238260869565217 0.1166666666666667 0  3.254782608695652 0.1166666666666667 0  3.271304347826087 0.1166666666666667 0  3.287826086956521 0.1166666666666667 0  3.304347826086957 0.1166666666666667 0  3.320869565217391 0.1166666666666667 0  3.337391304347826 0.1166666666666667 0  3.04 0.1333333333333333 0  3.023478260869565 0.1333333333333333 0  3.056521739130435 0.1333333333333333 0  3.073043478260869 0.1333333333333333 0  3.089565217391304 0.1333333333333333 0  3.106086956521739 0.1333333333333333 0  3.122608695652174 0.1333333333333333 0  3.139130434782609 0.1333333333333333 0  3.155652173913043 0.1333333333333333 0  3.172173913043478 0.1333333333333333 0  3.188695652173913 0.1333333333333333 0  3.205217391304347 0.1333333333333333 0  3.221739130434782 0.1333333333333333 0  3.238260869565217 0.1333333333333333 0  3.254782608695652 0.1333333333333333 0  3.271304347826087 0.1333333333333333 0  3.287826086956521 0.1333333333333333 0  3.304347826086957 0.1333333333333333 0  3.320869565217391 0.1333333333333333 0  3.337391304347826 0.1333333333333333 0  3.353913043478261 0.1333333333333333 0  3.04 0.15 0  3.056521739130435 0.15 0  3.073043478260869 0.15 0  3.089565217391304 0.15 0  3.106086956521739 0.15 0  3.122608695652174 0.15 0  3.139130434782609 0.15 0  3.155652173913043 0.15 0  3.172173913043478 0.15 0  3.188695652173913 0.15 0  3.205217391304347 0.15 0  3.221739130434782 0.15 0  3.238260869565217 0.15 0  3.254782608695652 0.15 0  3.271304347826087 0.15 0  3.287826086956521 0.15 0  3.304347826086957 0.15 0  3.320869565217391 0.15 0  3.337391304347826 0.15 0  3.353913043478261 0.15 0  3.370434782608696 0.15 0  3.056521739130435 0.1666666666666667 0  3.073043478260869 0.1666666666666667 0  3.089565217391304 0.1666666666666667 0  3.106086956521739 0.1666666666666667 0  3.122608695652174 0.1666666666666667 0  3.139130434782609 0.1666666666666667 0  3.155652173913043 0.1666666666666667 0  3.172173913043478 0.1666666666666667 0  3.188695652173913 0.1666666666666667 0  3.205217391304347 0.1666666666666667 0  3.221739130434782 0.1666666666666667 0  3.238260869565217 0.1666666666666667 0  3.254782608695652 0.1666666666666667 0  3.271304347826087 0.1666666666666667 0  3.287826086956521 0.1666666666666667 0  3.304347826086957 0.1666666666666667 0  3.320869565217391 0.1666666666666667 0  3.337391304347826 0.1666666666666667 0  3.353913043478261 0.1666666666666667 0  3.370434782608696 0.1666666666666667 0  3.386956521739131 0.1666666666666667 0  3.073043478260869 0.1833333333333333 0  3.089565217391304 0.1833333333333333 0  3.106086956521739 0.1833333333333333 0  3.122608695652174 0.1833333333333333 0  3.139130434782609 0.1833333333333333 0  3.155652173913043 0.1833333333333333 0  3.172173913043478 0.1833333333333333 0  3.188695652173913 0.1833333333333333 0  3.205217391304347 0.1833333333333333 0  3.221739130434782 0.1833333333333333 0  3.238260869565217 0.1833333333333333 0  3.254782608695652 0.1833333333333333 0  3.271304347826087 0.1833333333333333 0  3.287826086956521 0.1833333333333333 0  3.304347826086957 0.1833333333333333 0  3.320869565217391 0.1833333333333333 0  3.337391304347826 0.1833333333333333 0  3.353913043478261 0.1833333333333333 0  3.370434782608696 0.1833333333333333 0  3.386956521739131 0.1833333333333333 0  3.403478260869565 0.1833333333333333 0  3.089565217391304 0.2 0  3.106086956521739 0.2 0  3.122608695652174 0.2 0  3.139130434782609 0.2 0  3.155652173913043 0.2 0  3.172173913043478 0.2 0  3.188695652173913 0.2 0  3.205217391304347 0.2 0  3.221739130434782 0.2 0  3.238260869565217 0.2 0  3.254782608695652 0.2 0  3.271304347826087 0.2 0  3.287826086956521 0.2 0  3.304347826086957 0.2 0  3.320869565217391 0.2 0  3.337391304347826 0.2 0  3.353913043478261 0.2 0  3.370434782608696 0.2 0  3.386956521739131 0.2 0  3.403478260869565 0.2 0  3.419999999999999 0.2 0  3.106086956521739 0.2166666666666667 0  3.122608695652174 0.2166666666666667 0  3.139130434782609 0.2166666666666667 0  3.155652173913043 0.2166666666666667 0  3.172173913043478 0.2166666666666667 0  3.188695652173913 0.2166666666666667 0  3.205217391304347 0.2166666666666667 0  3.221739130434782 0.2166666666666667 0  3.238260869565217 0.2166666666666667 0  3.254782608695652 0.2166666666666667 0  3.271304347826087 0.2166666666666667 0  3.287826086956521 0.2166666666666667 0  3.304347826086957 0.2166666666666667 0  3.320869565217391 0.2166666666666667 0  3.337391304347826 0.2166666666666667 0  3.353913043478261 0.2166666666666667 0  3.370434782608696 0.2166666666666667 0  3.386956521739131 0.2166666666666667 0  3.403478260869565 0.2166666666666667 0  3.419999999999999 0.2166666666666667 0  3.436521739130435 0.2166666666666667 0  3.122608695652174 0.2333333333333333 0  3.139130434782609 0.2333333333333333 0  3.155652173913043 0.2333333333333333 0  3.172173913043478 0.2333333333333333 0  3.188695652173913 0.2333333333333333 0  3.205217391304347 0.2333333333333333 0  3.221739130434782 0.2333333333333333 0  3.238260869565217 0.2333333333333333 0  3.254782
[...]
<CellData  Scalars="sigma_m"> 
<DataArray  type="Float64"  Name="sigma_m"  format="ascii">3.1726912965676892e+06   6.7545374323867345e+06   3.0731290562296072e+06   6.9170298276737453e+06   2.9088629712612969e+06   7.0655397961688172e+06   2.2233840532574081e+06   7.0322752070693811e+06   1.6945295095458250e+06   4.8008850331766987e+06   2.2757275219665463e+06   3.6328156959680985e+06   2.1662503379237843e+06   2.9605962266683076e+06   1.7091712084595626e+06   2.4826988459053580e+06   4.7557368419755858e+03   1.6433887455641420e+06   1.1059095434862834e-05   1.6666184295348236e-02   0.0000000000000000e+00   4.1032568116930297e-09   0.0000000000000000e+00   0.0000000000000000e+00   0.0000000000000000e+00   0.0000000000000000e+00   0.0000000000000000e+00   0.0000000000000000e+00   0.0000000000000000e+00   0.0000000000000000e+00   0.0000000000000000e+00   0.0000000000000000e+00   6.1883769884680696e+06   7.7492436480305716e+06   6.3329539444894455e+06   8.1944580421609627e+06   6.4795648344926806e+06   8.7075165903568454e+06   6.6080598246600879e+06   9.5337168470578399e+06   5.0830747385633131e+06   9.1936726469470765e+06   3.7758685287785428e+06   3.3959257700741189e+06   3.3952931228174898e+06   2.9724324737427738e+06   3.1601393410835583e+06   4.5030950467943484e+06   3.9568280233182767e+06   6.9047955600000219e+06   7.5993435627409172e+00   8.6374021494349034e+05   3.4871149367166753e-05   2.5947652539085184e+00   6.8059251936420497e-10   3.1551002168670744e-05   0.0000000000000000e+00   1.0051961401172499e-09   0.0000000000000000e+00   0.0000000000000000e+00   0.0000000000000000e+00   0.0000000000000000e+00   0.0000000000000000e+00   0.0000000000000000e+00   0.0000000000000000e+00   1.7175977203958706e-02   4.1276951111017472e-02   1.2779828688817087e-05   1.8382645442515025e-01   8.2795149144431569e-05   4.4988189871611954e+00   1.8733144228883431e-03   2.7324087525259256e+03   4.7970288889522045e-01   3.2516796865641689e+06   7.7988483135557954e+03   2.9566721207423201e+06   3.9437005267313942e+06   2.6867791519652191e+06   3.6928947415740141e+06   3.9674571526624970e+06   4.3159585458807237e+06   8.6774351414082963e+06   7.6600900426621940e+06   8.3570140258641206e+06   9.1402737605609354e+06   1.8757184375721745e+03   4.3106159316901518e+06   1.4270554164440472e-01   3.8020744791021229e+04   2.9977972898487069e-07   1.1341283646514893e+00   0.0000000000000000e+00   4.6411060162027598e-07   0.0000000000000000e+00   0.0000000000000000e+00   0.0000000000000000e+00   0.0000000000000000e+00   0.0000000000000000e+00   0.0000000000000000e+00   0.0000000000000000e+00   0.0000000000000000e+00   0.0000000000000000e+00   0.0000000000000000e+00   0.0000000000000000e+00   5.0729063120970143e-05   3.0902120654227005e-07   3.8821231591017581e+03   4.6964412205313941e+01   3.9576241320919185e+06   1.1007507141632577e+07   1.7653791702048783e+06   3.3591366360315280e+06   2.2957853958181730e+06   1.1274648285429943e+06   3.7582026653662622e+06   2.2981449860436963e+06   6.2191844148252448e+06   4.0474930228545456e+06   5.4212941501589390e+06   4.7754923067628406e+06   6.0563932553086318e+06   5.7407804231312331e+06   3.0710893246161630e+06   5.7332906225392167e+06   8.4629341505863103e+00   2.4203995865268921e+06   1.2440880396913072e-07   8.3555521739770988e+00   0.0000000000000000e+00   4.2480080574730886e-08   0.0000000000000000e+00   0.0000000000000000e+00   0.0000000000000000e+00   0.0000000000000000e+00   0.0000000000000000e+00   0.0000000000000000e+00   0.0000000000000000e+00   0.0000000000000000e+00   6.2229293862755598e-04   7.2162377109836351e-05   3.2875385226411757e+05   1.1153711047444276e+05   2.3153884398300298e+06   3.7791699051278015e+06   1.7059267810383346e+06   1.9863972929254267e+06   2.2175800768081746e+06   1.8241372424922471e+06   1.6851097804690180e+06   3.3831496482640039e+06   1.2620886297899708e+06   3.7530394447704526e+06   2.2572510686722901e+06   3.4718478531539100e+06   3.1793265699504507e+06   3.3540912569763903e+06   3.9794199945975207e+06   3.6488341554888887e+06   3.4998968928709291e+06   3.6083351475566397e+06   1.0733760529126315e+06   3.4815088498739316e+06   1.0188424050166847e-01   7.1087874421323149e+05   0.0000000000000000e+00   1.1086523221242829e-02   0.0000000000000000e+00   0.0000000000000000e+00   0.0000000000000000e+00   0.0000000000000000e+00   0.0000000000000000e+00   4.5626329411682238e-07   1.8012811666241132e-07   3.7781904665713512e+02   2.8263254448998242e+02   4.6332989620415838e+06   7.3286034462215761e+06   2.1233118577824039e+06   4.0811556979669156e+06   8.7878223818387231e+05   1.0275659733334850e+06   1.8333340640653868e+06   9.2767243434291391e+05   3.1061915953578572e+06   4.9933910334892832e+06   2.9296458839036045e+06   7.8091879775698623e+06   2.4012048336533061e+06   7.2160999258457599e+06   7.0245301398207573e+05   2.6647691290809116e+06   1.2326018028276360e+06   1.5106998166521259e+06   2.2559969782282971e+06   2.3514925852956669e+06   2.5972726676092474e+06   2.6365928395143999e+06   2.4998696830958393e+06   2.8099166286738114e+06   2.0213353265903161e+03   2.2910921071502068e+06   2.5067110759774628e-07   1.0569272929810282e+02   0.0000000000000000e+00   7.3893547999538307e-09   0.0000000000000000e+00   4.8719642710441824e-08   4.9970376229021383e+01   1.0024460340104986e+02   5.3846795482006045e+06   5.6007101858035596e+06   4.1009562868377678e+06   4.4747864222469442e+06   9.8038387860106921e+05   1.5800882541914992e+06   1.5713740026086790e+06   1.6648714419422648e+06   1.0776438563803143e+06   1.4841985273267285e+06   1.3827159998348293e+02   6.6364747015809424e+00   7.0501957918575622e-02   9.5649211085895499e-05   2.6185551161684915e+00   3.7713378551389091e-05   2.8916450541521459e+04   6.6127980619850910e-02   5.1703314849814127e+05   1.6429489966297195e+04   1.0115955248933752e+06   8.8961922504169843e+05   1.8109630679395914e+06   1.8589654279887492e+06   2.2324941635826775e+06   2.2433616592401955e+06   2.1440228897558320e+06   2.0632838899424912e+06   4.4643588217142440e+05   1.5972676497463300e+06   4.6689741869608683e-04   3.2631396419501143e+04   0.0000000000000000e+00   9.2476874648484143e-06   0.0000000000000000e+00   5.4514954271290004e+06   4.6199529153618123e+06   4.3012976058509843e+06   4.1570780943744192e+06   1.4794226822635010e+06   1.7791247015931315e+06   1.7267705423163364e+06   1.4880388842421062e+06   2.6273519779885090e+06   2.1892662553579309e+06   4.8120323751329810e-02   3.2347281512279995e-02   0.0000000000000000e+00   0.0000000000000000e+00   0.0000000000000000e+00   0.0000000000000000e+00   0.0000000000000000e+00   0.0000000000000000e+00   0.0000000000000000e+00   0.0000000000000000e+00   6.6659985163318848e-04   0.0000000000000000e+00   1.5449670644777167e+04   1.2045152556224277e-03   1.5291498854218796e+06   1.5301061322013059e+05   2.2978504765137681e+06   2.2047069599703876e+06   2.1825390410661916e+06   2.1363815828175629e+06   1.9955171655209034e+06   1.9985568523419611e+06   1.6254797646011915e+06   1.9708579129721574e+06   2.8364842812435581e-01   1.1645084414674516e+06   0.0000000000000000e+00   3.3399913734614016e-03   0.0000000000000000e+00   3.9592539988579038e+06   1.6328746059328995e+06   1.7161831458273879e+06   1.2196150878761834e+06   1.1369368555439797e+06   3.0913879686843036e+06   2.6416752547226259e+06   2.6859088405893233e-01   6.2161720091893113e-01   0.0000000000000000e+00   0.0000000000000000e+00   0.0000000000000000e+00   0.0000000000000000e+00   0.0000000000000000e+00   0.0000000000000000e+00   0.0000000000000000e+00   0.0000000000000000e+00   0.0000000000000000e+00   0.0000000000000000e+00   0.0000000000000000e+00   0.0000000000000000e+00   3.8118187670614852e-10   0.0000000000000000e+00   7.8167087088515719e-01   2.8089421401427847e-09   1.7986454362696195e+06   2.1330338248184589e+01   2.2184724781290824e+06   1.9195179583458481e+06   2.0836086846558298e+06   2.0605732448032401e+06   2.0869426107438935e+06   2.1203857134867120e+06   2.0451833895466204e+06   2.2703620361195961e+06   8.3985220838103658e+01   1.7526917884647590e+06   7.8031187693475223e-10   1.0201745804055868e+00   0.0000000000000000e+00   8.4659755671092495e+05   2.6263599200259936e+06   2.4367585557460552e+06   5.3017007563903329e+00   7.9260972510752277e+00   0.0000000000000000e+00   0.0000000000000000e+00   0.0000000000000000e+00   0.0000000000000000e+00   0.0000000000000000e+00   0.0000000000000000e+00   0.0000000000000000e+00   0.0000000000000000e+00   0.0000000000000000e+00   0.0000000000000000e+00   0.0000000000000000e+00   0.0000000000000000e+00   0.0000000000000000e+00   0.0000000000000000e+00   0.0000000000000000e+00   0.0000000000000000e+00   0.0000000000000000e+00   0.0000000000000000e+00   2.4455516741725235e-04   0.0000000000000000e+00   1.3216929305655594e+05   1.3447672977199492e-02   1.8625090787693469e+06   9.5577059632542892e+05   2.0605780353607249e+06   2.0945575507545725e+06   2.1708723102790415e+06   2.1864552338543320e+06   2.1370793333683517e+06   2.1842156335648294e+06   1.6034918569267171e+04   1.8171481233119855e+06   6.0864319547906518e-07   2.7539518378132146e+02   1.0413614382784602e-08   1.1201571552605884e+01   0.0000000000000000e+00   0.0000000000000000e+00   0.0000000000000000e+00   0.0000000000000000e+00   0.0000000000000000e+00   0.0000000000000000e+00   0.0000000000000000e+00   0.0000000000000000e+00   0.0000000000000000e+00   0.0000000000000000e+00   0.0000000000000000e+00   0.0000000000000000e+00   0.0000000000000000e+00   0.0000000000000000e+00   0.0000000000000000e+00   0.0000000000000000e+00   0.0000000000000000e+00   0.0000000000000000e+00   0.0000000000000000e+00   0.0000000000000000e+00   0.0000000000000000e+00   0.0000000000000000e+00   2.5756127628292961e-07   0.0000000000000000e+00   2.6707985066591427e+03   1.3073249888980175e-05   1.9667208941612022e+06   2.0610007353004446e+05   2.2388457774202405e+06   2.2343262248816942e+06   2.2109084482761831e+06   2.1968603434162382e+06   2.0090647565983327e+06   1.9557521225105729e+06   6.1023708573238004e+05   1.5750188883900447e+06   6.6884740075968735e-04   4.5455723174862898e+04   1.1704415987726438e-05   0.0000000000000000e+00   0.0000000000000000e+00   0.0000000000000000e+00   0.0000000000000000e+00   0.0000000000000000e+00   0.0000000000000000e+00   0.0000000000000000e+00   0.0000000000000000e+00   0.0000000000000000e+00   0.0000000000000000e+00   0.0000000000000000e+00   0.0000000000000000e+00   0.0000000000000000e+00   0.0000000000000000e+00   0.0000000000000000e+00   0.0000000000000000e+00   0.0000000000000000e+00   0.0000000000000000e+00   0.0000000000000000e+00   0.0000000000000000e+00   0.0000000000000000e+00   0.0000000000000000e+00   0.0000000000000000e+00   0.0000000000000000e+00   0.0000000000000000e+00   1.4394232115043613e+01   1.4640034596802818e-08   2.0464349954361978e+06   8.5048415195442988e+02   2.5363234487911803e+06   2.2825438886252884e+06   2.2174201232590443e+06   2.1670985181047060e+06   2.0019339869871936e+06   2.0085972028346905e+06   1.6781552866605900e+06   2.0037604456957567e+06   6.7353093068730496e-01   1.2824546252093287e+06   9.9536599988804906e-03   0.0000000000000000e+00   0.0000000000000000e+00   0.0000000000000000e+00   0.0000000000000000e+00   0.0000000000000000e+00   0.0000000000000000e+00   0.0000000000000000e+00   0.0000000000000000e+00   0.0000000000000000e+00   0.0000000000000000e+00   0.0000000000000000e+00   0.0000000000000000e+00   0.0000000000000000e+00   0.0000000000000000e+00   0.0000000000000000e+00   0.0000000000000000e+00   0.0000000000000000e+00   0.0000000000000000e+00   0.0000000000000000e+00   0.0000000000000000e+00   0.0000000000000000e+00   0.0000000000000000e+00   0.0000000000000000e+00   0.0000000000000000e+00   0.0000000000000000e+00   2.5023534614832390e-02   0.0000000000000000e+00   1.3698117271264361e+06   1.7208032572440612e+00   2.2622341057564113e+06   1.8454995378090481e+06   2.1105035064703496e+06   2.0853073192343260e+06   2.1240165130641269e+06   2.1610070605579098e+06   2.0558373254038715e+06   2.2567749502351088e+06   5.4257643482495996e+02   1.5907862498664663e+06   8.8923935959581684e+00   0.0000000000000000e+00   0.0000000000000000e+00   0.0000000000000000e+00   0.0000000000000000e+00   0.0000000000000000e+00   0.0000000000000000e+00   0.0000000000000000e+00   0.0000000000000000e+00   0.0000000000000000e+00   0.0000000000000000e+00   0.0000000000000000e+00   0.0000000000000000e+00   0.0000000000000000e+00   0.0000000000000000e+00   0.0000000000000000e+00   0.0000000000000000e+00   0.0000000000000000e+00   0.0000000000000000e+00   0.0000000000000000e+00   0.0000000000000000e+00   0.0000000000000000e+00   0.0000000000000000e+00   0.0000000000000000e+00   0.0000000000000000e+00   0.0000000000000000e+00   4.4360339101557058e-05   0.0000000000000000e+00   3.8708670569837894e+04   3.2498131236903256e-03   1.8024531428139640e+06   5.9925341659024020e+05   2.1314770061074682e+06   2.2001454484527358e+06   2.1963974862945816e+06   2.1875369924263856e+06   1.8832600802187864e+06   1.8389662394474123e+06   8.4205457620158762e+04   1.3320528941933042e+06   1.5845281893597812e+03   0.0000000000000000e+00   0.0000000000000000e+00   0.0000000000000000e+00   0.0000000000000000e+00   0.0000000000000000e+00   0.0000000000000000e+00   0.0000000000000000e+00   0.0000000000000000e+00   0.0000000000000000e+00   0.0000000000000000e+00   0.0000000000000000e+00   0.0000000000000000e+00   0.0000000000000000e+00   0.0000000000000000e+00   0.0000000000000000e+00   0.0000000000000000e+00   0.0000000000000000e+00   0.0000000000000000e+00   0.0000000000000000e+00   0.0000000000000000e+00   0.0000000000000000e+00   0.0000000000000000e+00   0.0000000000000000e+00   0.0000000000000000e+00   0.0000000000000000e+00   7.1575517407336464e-08   0.0000000000000000e+00   8.6092339992966527e+02   3.3154949084076024e-06   2.3927683899974958e+06   5.6399319754563345e+04   2.6782276032496481e+06   2.5366814596551275e+06   2.2611133759068046e+06   2.2053180963575011e+06   1.9010228892544031e+06   1.8779225679565223e+06   1.0501352880846048e+06   1.6262138074383796e+06   2.1557136184070175e+05   0.0000000000000000e+00   0.0000000000000000e+00   0.0000000000000000e+00   0.0000000000000000e+00   0.0000000000000000e+00   0.0000000000000000e+00   0.0000000000000000e+00   0.0000000000000000e+00   0.0000000000000000e+00   0.0000000000000000e+00   0.0000000000000000e+00   0.0000000000000000e+00   0.0000000000000000e+00   0.0000000000000000e+00   0.0000000000000000e+00   0.0000000000000000e+00   0.0000000000000000e+00   0.0000000000000000e+00   0.0000000000000000e+00   0.0000000000000000e+00   0.0000000000000000e+00   0.0000000000000000e+00   0.0000000000000000e+00   0.0000000000000000e+00   0.0000000000000000e+00   0.0000000000000000e+00   0.0000000000000000e+00   1.9924011017492449e+00   2.0990159138608720e-09   2.2412766613031048e+06   1.1949450962001714e+02   2.5526843470263239e+06   2.2703272111593494e+06   2.1973823752054390e+06   2.1503249744312321e+06   1.9819394189394957e+06   1.9875361874619059e+06   1.7160510153066793e+06   1.9521417210797481e+06   1.4253795807862387e+06   0.0000000000000000e+00   0.0000000000000000e+00   0.0000000000000000e+00   0.0000000000000000e+00   0.0000000000000000e+00   0.0000000000000000e+00   0.0000000000000000e+00   0.0000000000000000e+00   0.0000000000000000e+00   0.0000000000000000e+00   0.0000000000000000e+00   0.0000000000000000e+00   0.0000000000000000e+00   0.0000000000000000e+00   0.0000000000000000e+00   0.0000000000000000e+00   0.0000000000000000e+00   0.0000000000000000e+00   0.0000000000000000e+00   0.0000000000000000e+00   0.0000000000000000e+00   0.0000000000000000e+00   0.0000000000000000e+00   0.0000000000000000e+00   0.0000000000000000e+00   0.0000000000000000e+00   0.0000000000000000e+00   4.3633541417823513e-03   0.0000000000000000e+00   8.6604736187733151e+05   3.2400938484122016e-01   2.2895755541139049e+06   1.7135749881155971e+06   2.1375756162206931e+06   2.1151436164488196e+06   2.1282928416738128e+06   2.1621104155528131e+06   2.0465799695945701e+06   2.2018207923689173e+06   1.5148942409305074e+06   0.0000000000000000e+00   0.0000000000000000e+00   0.0000000000000000e+00   0.0000000000000000e+00   0.0000000000000000e+00   0.0000000000000000e+00   0.0000000000000000e+00   0.0000000000000000e+00   0.0000000000000000e+00   0.0000000000000000e+00   0.0000000000000000e+00   0.0000000000000000e+00   0.0000000000000000e+00   0.0000000000000000e+00   0.0000000000000000e+00   0.0000000000000000e+00   0.0000000000000000e+00   0.0000000000000000e+00   0.0000000000000000e+00   0.0000000000000000e+00   0.0000000000000000e+00   0.0000000000000000e+00   0.0000000000000000e+00   0.0000000000000000e+00   0.0000000000000000e+00   0.0000000000000000e+00   0.0000000000000000e+00   9.0643590574243008e-06   0.0000000000000000e+00   1.2825422163774903e+04   6.1482703386920602e-04   1.8720236706277751e+06   3.2749147438672296e+05   2.2017695820276816e+06   2.2788563850597837e+06   2.2241633020626870e+06   2.2092477867749757e+06   1.8052915364820000e+06   1.7430819711817470e+06   1.1443849093009960e+06   0.0000000000000000e+00   0.0000000000000000e+00   0.0000000000000000e+00   0.0000000000000000e+00   0.0000000000000000e+00   0.0000000000000000e+00   0.0000000000000000e+00   0.0000000000000000e+00   0.0000000000000000e+00   0.0000000000000000e+00   0.0000000000000000e+00   0.0000000000000000e+00   0.0000000000000000e+00   0.0000000000000000e+00   0.0000000000000000e+00   0.0000000000000000e+00   0.0000000000000000e+00   0.0000000000000000e+00   0.0000000000000000e+00   0.0000000000000000e+00   0.0000000000000000e+00   0.0000000000000000e+00   0.0000000000000000e+00   0.0000000000000000e+00   0.0000000000000000e+00   0.0000000000000000e+00   0.0000000000000000e+00   1.6190168990587987e-08   0.0000000000000000e+00   2.0491454717853455e+02   6.9615463365326026e-07   2.5413375319798556e+06   1.3082372146053092e+04   2.8827487579953531e+06   2.6371389483067137e+06   2.3093480982250762e+06   2.2376478638327634e+06   1.8546355753598949e+06   1.8273687350739692e+06   1.4742113091043190e+06   0.0000000000000000e+00   0.0000000000000000e+00   0.0000000000000000e+00   0.0000000000000000e+00   0.0000000000000000e+00   0.0000000000000000e+00   0.0000000000000000e+00   0.0000000000000000e+00   0.0000000000000000e+00   0.0000000000000000e+00   0.0000000000000000e+00   0.0000000000000000e+00   0.0000000000000000e+00   0.0000000000000000e+00   0.0000000000000000e+00   0.0000000000000000e+00   0.0000000000000000e+00   0.0000000000000000e+00   0.0000000000000000e+00   0.0000000000000000e+00   0.0000000000000000e+00   0.0000000000000000e+00   0.0000000000000000e+00   0.0000000000000000e+00   0.0000000000000000e+00   0.0000000000000000e+00   0.0000000000000000e+00   0.0000000000000000e+00   0.0000000000000000e+00   3.8419882678313444e-01   7.2980739143625256e-10   2.2118903686822439e+06   1.8249981098161740e+01   2.6352347657682169e+06   2.2450986729483986e+06   2.3135195633198298e+06   2.2644601755995140e+06   2.0323676671043104e+06   2.0244129397380908e+06   1.4912786627781764e+06   0.0000000000000000e+00   0.0000000000000000e+00   0.0000000000000000e+00   0.0000000000000000e+00   0.0000000000000000e+00   0.0000000000000000e+00   0.0000000000000000e+00   0.0000000000000000e+00   0.0000000000000000e+00   0.0000000000000000e+00   0.0000000000000000e+00   0.0000000000000000e+00   0.0000000000000000e+00   0.0000000000000000e+00   0.0000000000000000e+00   0.0000000000000000e+00   0.0000000000000000e+00   0.0000000000000000e+00   0.0000000000000000e+00   0.0000000000000000e+00   0.0000000000000000e+00   0.0000000000000000e+00   0.0000000000000000e+00   0.0000000000000000e+00   0.0000000000000000e+00   0.0000000000000000e+00   0.0000000000000000e+00   0.0000000000000000e+00   0.0000000000000000e+00   4.6211355503331157e-04   0.0000000000000000e+00   1.3486464404487103e+05   1.71267601