<?xml version="1.0"?>
<VTKFile type="UnstructuredGrid"  version="0.1"  >
<UnstructuredGrid>
<Piece  NumberOfPoints="621" NumberOfCells="1125">
<Points>
<DataArray  type="Float64"  NumberOfComponents="3"  format="ascii">1.883478260869565 0 0  1.9 0 0  1.9 0.01666666666666667 0  1.883478260869565 0.01666666666666667 0  1.916521739130435 0 0  1.916521739130435 0.01666666666666667 0  1.933043478260869 0 0  1.933043478260869 0.01666666666666667 0  1.949565217391304 0 0  1.949565217391304 0.01666666666666667 0  1.966086956521739 0 0  1.966086956521739 0.01666666666666667 0  1.982608695652174 0 0  1.982608695652174 0.01666666666666667 0  1.999130434782608 0 0  1.999130434782608 0.01666666666666667 0  2.015652173913043 0 0  2.015652173913043 0.01666666666666667 0  2.032173913043478 0 0  2.032173913043478 0.01666666666666667 0  2.048695652173913 0 0  2.048695652173913 0.01666666666666667 0  2.065217391304348 0 0  2.065217391304348 0.01666666666666667 0  2.081739130434782 0 0  2.081739130434782 0.01666666666666667 0  2.098260869565217 0 0  2.098260869565217 0.01666666666666667 0  2.114782608695652 0 0  2.114782608695652 0.01666666666666667 0  2.131304347826087 0 0  2.131304347826087 0.01666666666666667 0  2.147826086956522 0 0  2.147826086956522 0.01666666666666667 0  2.164347826086956 0 0  2.164347826086956 0.01666666666666667 0  2.180869565217391 0 0  2.180869565217391 0.01666666666666667 0  2.197391304347826 0 0  2.197391304347826 0.01666666666666667 0  2.213913043478261 0 0  2.213913043478261 0.01666666666666667 0  2.230434782608695 0 0  2.230434782608695 0.01666666666666667 0  2.24695652173913 0 0  2.24695652173913 0.01666666666666667 0  2.263478260869565 0 0  2.263478260869565 0.01666666666666667 0  2.28 0 0  2.28 0.01666666666666667 0  2.296521739130434 0 0  2.296521739130434 0.01666666666666667 0  2.31304347826087 0 0  2.31304347826087 0.01666666666666667 0  2.329565217391304 0 0  2.329565217391304 0.01666666666666667 0  2.346086956521739 0 0  2.346086956521739 0.01666666666666667 0  2.362608695652174 0 0  2.362608695652174 0.01666666666666667 0  2.379130434782609 0 0  2.379130434782609 0.01666666666666667 0  2.395652173913044 0 0  2.395652173913044 0.01666666666666667 0  2.412173913043478 0 0  2.412173913043478 0.01666666666666667 0  2.428695652173913 0 0  2.428695652173913 0.01666666666666667 0  2.445217391304348 0 0  2.445217391304348 0.01666666666666667 0  2.461739130434782 0 0  2.461739130434782 0.01666666666666667 0  2.478260869565217 0 0  2.478260869565217 0.01666666666666667 0  2.494782608695652 0 0  2.494782608695652 0.01666666666666667 0  2.511304347826087 0 0  2.511304347826087 0.01666666666666667 0  2.527826086956522 0 0  2.527826086956522 0.01666666666666667 0  2.544347826086956 0 0  2.544347826086956 0.01666666666666667 0  2.560869565217391 0 0  2.560869565217391 0.01666666666666667 0  2.577391304347826 0 0  2.577391304347826 0.01666666666666667 0  1.916521739130435 0.03333333333333333 0  1.933043478260869 0.03333333333333333 0  1.949565217391304 0.03333333333333333 0  1.966086956521739 0.03333333333333333 0  1.982608695652174 0.03333333333333333 0  1.999130434782608 0.03333333333333333 0  2.015652173913043 0.03333333333333333 0  2.032173913043478 0.03333333333333333 0  2.048695652173913 0.03333333333333333 0  2.065217391304348 0.03333333333333333 0  2.081739130434782 0.03333333333333333 0  2.098260869565217 0.03333333333333333 0  2.114782608695652 0.03333333333333333 0  2.131304347826087 0.03333333333333333 0  2.147826086956522 0.03333333333333333 0  2.164347826086956 0.03333333333333333 0  2.180869565217391 0.03333333333333333 0  2.197391304347826 0.03333333333333333 0  2.213913043478261 0.03333333333333333 0  2.230434782608695 0.03333333333333333 0  2.24695652173913 0.03333333333333333 0  2.263478260869565 0.03333333333333333 0  2.28 0.03333333333333333 0  2.296521739130434 0.03333333333333333 0  2.31304347826087 0.03333333333333333 0  2.329565217391304 0.03333333333333333 0  2.346086956521739 0.03333333333333333 0  2.362608695652174 0.03333333333333333 0  2.379130434782609 0.03333333333333333 0  2.395652173913044 0.03333333333333333 0  2.412173913043478 0.03333333333333333 0  2.428695652173913 0.03333333333333333 0  2.445217391304348 0.03333333333333333 0  2.461739130434782 0.03333333333333333 0  2.478260869565217 0.03333333333333333 0  2.494782608695652 0.03333333333333333 0  2.511304347826087 0.03333333333333333 0  2.527826086956522 0.03333333333333333 0  2.544347826086956 0.03333333333333333 0  2.560869565217391 0.03333333333333333 0  2.577391304347826 0.03333333333333333 0  2.593913043478261 0.03333333333333333 0  1.933043478260869 0.05 0  1.949565217391304 0.05 0  1.966086956521739 0.05 0  1.982608695652174 0.05 0  1.999130434782608 0.05 0  2.015652173913043 0.05 0  2.032173913043478 0.05 0  2.048695652173913 0.05 0  2.065217391304348 0.05 0  2.081739130434782 0.05 0  2.098260869565217 0.05 0  2.114782608695652 0.05 0  2.131304347826087 0.05 0  2.147826086956522 0.05 0  2.164347826086956 0.05 0  2.180869565217391 0.05 0  2.197391304347826 0.05 0  2.213913043478261 0.05 0  2.230434782608695 0.05 0  2.24695652173913 0.05 0  2.263478260869565 0.05 0  2.28 0.05 0  2.296521739130434 0.05 0  2.31304347826087 0.05 0  2.329565217391304 0.05 0  2.346086956521739 0.05 0  2.362608695652174 0.05 0  2.379130434782609 0.05 0  2.395652173913044 0.05 0  2.412173913043478 0.05 0  2.428695652173913 0.05 0  2.445217391304348 0.05 0  2.461739130434782 0.05 0  2.478260869565217 0.05 0  2.494782608695652 0.05 0  2.511304347826087 0.05 0  2.527826086956522 0.05 0  2.544347826086956 0.05 0  2.560869565217391 0.05 0  2.577391304347826 0.05 0  2.593913043478261 0.05 0  2.610434782608696 0.05 0  1.949565217391304 0.06666666666666667 0  1.966086956521739 0.06666666666666667 0  1.982608695652174 0.06666666666666667 0  1.999130434782608 0.06666666666666667 0  2.015652173913043 0.06666666666666667 0  2.032173913043478 0.06666666666666667 0  2.048695652173913 0.06666666666666667 0  2.065217391304348 0.06666666666666667 0  2.081739130434782 0.06666666666666667 0  2.098260869565217 0.06666666666666667 0  2.114782608695652 0.06666666666666667 0  2.131304347826087 0.06666666666666667 0  2.147826086956522 0.06666666666666667 0  2.164347826086956 0.06666666666666667 0  2.180869565217391 0.06666666666666667 0  2.197391304347826 0.06666666666666667 0  2.213913043478261 0.06666666666666667 0  2.230434782608695 0.06666666666666667 0  2.24695652173913 0.06666666666666667 0  2.263478260869565 0.06666666666666667 0  2.28 0.06666666666666667 0  2.296521739130434 0.06666666666666667 0  2.31304347826087 0.06666666666666667 0  2.329565217391304 0.06666666666666667 0  2.346086956521739 0.06666666666666667 0  2.362608695652174 0.06666666666666667 0  2.379130434782609 0.06666666666666667 0  2.395652173913044 0.06666666666666667 0  2.412173913043478 0.06666666666666667 0  2.428695652173913 0.06666666666666667 0  2.445217391304348 0.06666666666666667 0  2.461739130434782 0.06666666666666667 0  2.478260869565217 0.06666666666666667 0  2.494782608695652 0.06666666666666667 0  2.511304347826087 0.06666666666666667 0  2.527826086956522 0.06666666666666667 0  2.544347826086956 0.06666666666666667 0  2.560869565217391 0.06666666666666667 0  2.577391304347826 0.06666666666666667 0  2.593913043478261 0.06666666666666667 0  2.610434782608696 0.06666666666666667 0  2.62695652173913 0.06666666666666667 0  1.966086956521739 0.08333333333333333 0  1.982608695652174 0.08333333333333333 0  1.999130434782608 0.08333333333333333 0  2.015652173913043 0.08333333333333333 0  2.032173913043478 0.08333333333333333 0  2.048695652173913 0.08333333333333333 0  2.065217391304348 0.08333333333333333 0  2.081739130434782 0.08333333333333333 0  2.098260869565217 0.08333333333333333 0  2.114782608695652 0.08333333333333333 0  2.131304347826087 0.08333333333333333 0  2.147826086956522 0.08333333333333333 0  2.164347826086956 0.08333333333333333 0  2.180869565217391 0.08333333333333333 0  2.197391304347826 0.08333333333333333 0  2.213913043478261 0.08333333333333333 0  2.230434782608695 0.08333333333333333 0  2.24695652173913 0.08333333333333333 0  2.263478260869565 0.08333333333333333 0  2.28 0.08333333333333333 0  2.296521739130434 0.08333333333333333 0  2.31304347826087 0.08333333333333333 0  2.329565217391304 0.08333333333333333 0  2.346086956521739 0.08333333333333333 0  2.362608695652174 0.08333333333333333 0  2.379130434782609 0.08333333333333333 0  2.395652173913044 0.08333333333333333 0  2.412173913043478 0.08333333333333333 0  2.428695652173913 0.08333333333333333 0  2.445217391304348 0.08333333333333333 0  2.461739130434782 0.08333333333333333 0  2.478260869565217 0.08333333333333333 0  2.494782608695652 0.08333333333333333 0  2.511304347826087 0.08333333333333333 0  2.527826086956522 0.08333333333333333 0  2.544347826086956 0.08333333333333333 0  2.560869565217391 0.08333333333333333 0  2.577391304347826 0.08333333333333333 0  2.593913043478261 0.08333333333333333 0  2.610434782608696 0.08333333333333333 0  2.62695652173913 0.08333333333333333 0  2.643478260869565 0.08333333333333333 0  1.982608695652174 0.1 0  1.999130434782608 0.1 0  2.015652173913043 0.1 0  2.032173913043478 0.1 0  2.048695652173913 0.1 0  2.065217391304348 0.1 0  2.081739130434782 0.1 0  2.098260869565217 0.1 0  2.114782608695652 0.1 0  2.131304347826087 0.1 0  2.147826086956522 0.1 0  2.164347826086956 0.1 0  2.180869565217391 0.1 0  2.197391304347826 0.1 0  2.213913043478261 0.1 0  2.230434782608695 0.1 0  2.24695652173913 0.1 0  2.263478260869565 0.1 0  2.28 0.1 0  2.296521739130434 0.1 0  2.31304347826087 0.1 0  2.329565217391304 0.1 0  2.346086956521739 0.1 0  2.362608695652174 0.1 0  2.379130434782609 0.1 0  2.395652173913044 0.1 0  2.412173913043478 0.1 0  2.428695652173913 0.1 0  2.445217391304348 0.1 0  2.461739130434782 0.1 0  2.478260869565217 0.1 0  2.494782608695652 0.1 0  2.511304347826087 0.1 0  2.527826086956522 0.1 0  2.544347826086956 0.1 0  2.560869565217391 0.1 0  2.5773
[...]
<CellData  Scalars="sigma_m"> 
<DataArray  type="Float64"  Name="sigma_m"  format="ascii">6.6765283053238271e+06   7.8475341703459481e+06   6.7002633126147417e+06   7.7742078201016467e+06   6.7090320594767062e+06   7.7457349282365376e+06   6.7063106517782360e+06   7.7485494407487772e+06   6.6947658511313712e+06   7.7714131912094727e+06   6.6768206876059296e+06   7.8062461801616792e+06   6.6588546864151387e+06   7.8396801709843334e+06   6.6485088174262438e+06   7.8561116878697472e+06   6.6479517686407007e+06   7.8501997627654662e+06   6.6523797796842773e+06   7.8319176440361543e+06   6.6556334552559284e+06   7.8158643491861755e+06   6.6547769115138901e+06   7.8092521830800558e+06   6.6505268354935218e+06   7.8104682466951925e+06   6.6456099702787306e+06   7.8136224810985578e+06   6.6419917946394021e+06   7.8141035061704554e+06   6.6396966229608553e+06   7.8116253320742585e+06   6.6379430803000415e+06   7.8084897015330549e+06   6.6357341838387437e+06   7.8075096829255382e+06   6.6316719907128755e+06   7.8118949991847370e+06   6.6241087995007141e+06   7.8243751913805055e+06   6.6121081771339541e+06   7.8448639684007270e+06   6.5978218787912736e+06   7.8673076828801641e+06   6.5878198143673791e+06   7.8789683353996547e+06   6.5880158512488967e+06   7.8688489517841749e+06   6.5959153801608449e+06   7.8409262253102418e+06   6.6034999693199499e+06   7.8120905187764717e+06   6.6068061789077679e+06   7.7948804969564807e+06   6.6065603948499598e+06   7.7939370106908865e+06   6.6013719427086338e+06   7.8124571183342999e+06   6.5735375667373706e+06   7.8594139798125643e+06   6.5239951226499714e+06   7.9212598622845029e+06   6.4045482945454046e+06   7.9023522201000005e+06   6.1844564695964921e+06   7.1180697264522156e+06   6.2292879834005032e+06   4.7984023731047837e+06   6.4449257188778073e+06   4.4270821292219367e+06   6.4550058781885598e+06   4.2656508071269793e+06   6.2692106547576096e+06   4.0290682452922049e+06   6.0737720896578394e+06   3.5837943134326176e+06   6.4287093146981187e+06   3.2258250660064253e+06   7.0217790394547796e+06   3.0509092731894660e+06   7.7810124857947109e+06   2.7958122203040626e+06   7.9909147578452108e+06   3.6215433475732896e+06   7.0985080104663661e+06   7.0700975754580759e+06   6.0089468425514149e+06   7.0715377251937864e+06   6.0816123735516593e+06   7.0919412242566785e+06   6.0972972513889819e+06   7.1230681278020777e+06   6.1116293143363409e+06   7.1525468168517398e+06   6.1329365308018290e+06   7.1678105582342669e+06   6.1402071666767020e+06   7.1640462543844804e+06   6.1296398881160934e+06   7.1484401809515813e+06   6.1158897886779215e+06   7.1339887744099423e+06   6.1215635349793751e+06   7.1278989093143037e+06   6.1493806834385674e+06   7.1290002308444642e+06   6.1863329746128432e+06   7.1320398106253725e+06   6.2189481626142217e+06   7.1328575295018209e+06   6.2358667703556307e+06   7.1310012303091139e+06   6.2426833369658282e+06   7.1283733081410099e+06   6.2494670093311416e+06   7.1274713146037823e+06   6.2530697508737640e+06   7.1312385713784890e+06   6.2509140403308719e+06   7.1422968214369323e+06   6.2473923234019130e+06   7.1606772726772977e+06   6.2524678562871739e+06   7.1808911153957332e+06   6.2793068815296963e+06   7.1921930053032562e+06   6.3236755999845387e+06   7.1852092937667500e+06   6.3512743973337896e+06   7.1614837132148221e+06   6.3349593166350797e+06   7.1356450701754913e+06   6.3148845569706103e+06   7.1201117194610052e+06   6.3322942564477278e+06   7.1183697559892163e+06   6.3492357638924066e+06   7.1335829540255535e+06   6.3206595744332112e+06   7.1783414130987544e+06   6.2549081106871003e+06   7.2307132698964421e+06   6.4932928746390268e+06   7.2324576165170697e+06   6.8470492598773018e+06   6.6692583080705367e+06   6.5904684788599648e+06   4.7035770373576423e+06   3.4559851648727609e+06   4.3159698380516646e+06   2.0745442255676554e+06   4.0656644854258988e+06   2.1086557943552602e+06   3.7262551450429102e+06   2.2619446753555746e+06   3.2927335600090506e+06   2.0233312642747960e+06   3.1925076347108190e+06   7.8907584096288623e+05   2.9403053835299988e+06   1.2069534503850911e+06   2.5771579855466764e+06   1.8525517031809487e+06   2.9555737066439833e+06   4.0110192555749402e+06   3.8575792785893530e+06   3.4366402452164387e-03   2.4674925973646221e-03   4.4692704831703102e-07   1.3081766285830824e-03   2.1677384690632602e-07   6.6365599929340202e-04   9.4649432610285552e-08   4.0957970998536811e-04   4.8832638389882769e-08   3.4974760593377399e-04   3.3602752865251541e-08   4.1805072337810850e-04   3.3371898707157218e-08   6.1068834905652085e-04   4.2164295199398489e-08   8.6235849024952676e-04   6.0715343286253922e-08   1.0012582471779160e-03   7.4138358648970625e-08   9.8023230416860755e-04   7.5544732808099263e-08   9.4751959029720334e-04   7.0411239108131618e-08   1.0189015019471807e-03   7.0813500443006292e-08   1.1964635814955442e-03   7.9759914148687449e-08   1.4405616853741714e-03   9.5646165787788655e-08   1.6979866789320604e-03   1.1256510503710727e-07   1.8035869792583368e-03   1.2910805823182897e-07   1.5853255086636427e-03   1.2516107471025544e-07   1.1743049722503210e-03   1.0144331694719655e-07   8.4362972510288793e-04   7.4311338953119090e-08   7.2253291782253619e-04   5.9281947675200747e-08   8.9000568692682860e-04   6.2324907243623806e-08   1.7225853747263199e-03   1.0253053724756709e-07   4.7262845201571308e-03   2.5199118491810566e-07   1.2449703803972490e-02   7.8108890037797659e-07   1.9188431244771487e-02   1.8620868107584097e-06   1.3293197865524265e-02   2.2567458010574639e-06   5.0182441356159437e-03   1.3826256402637037e-06   2.2408933211227663e-03   8.1556298591042400e-07   6.3300163150494353e-03   1.3687864407631573e-06   1.9176018764636225e+00   3.9643919697348362e-05   1.6405754921778158e+05   1.4549372150461531e-01   1.9041410215540414e+06   1.2643227391645242e+05   1.6946466215331026e+06   4.0494804068961472e+05   1.4848513151390892e+06   1.6744752143180924e+06   1.7753739475714073e+06   3.1633778636076814e+06   1.1151433594020363e+06   2.0426598666328099e+06   2.4219970326752570e+06   2.8347129150291211e+06   2.1376637295152494e+06   3.7831612754694223e+06   5.6215468021850666e+02   1.3058755624120119e+01   2.5659787350999115e-02   1.6244120269512047e-04   2.9605301627280797e-07   0.0000000000000000e+00   0.0000000000000000e+00   0.0000000000000000e+00   0.0000000000000000e+00   0.0000000000000000e+00   0.0000000000000000e+00   0.0000000000000000e+00   0.0000000000000000e+00   0.0000000000000000e+00   0.0000000000000000e+00   0.0000000000000000e+00   0.0000000000000000e+00   0.0000000000000000e+00   0.0000000000000000e+00   0.0000000000000000e+00   0.0000000000000000e+00   0.0000000000000000e+00   0.0000000000000000e+00   0.0000000000000000e+00   0.0000000000000000e+00   0.0000000000000000e+00   0.0000000000000000e+00   0.0000000000000000e+00   0.0000000000000000e+00   0.0000000000000000e+00   0.0000000000000000e+00   0.0000000000000000e+00   0.0000000000000000e+00   0.0000000000000000e+00   0.0000000000000000e+00   0.0000000000000000e+00   0.0000000000000000e+00   0.0000000000000000e+00   0.0000000000000000e+00   0.0000000000000000e+00   0.0000000000000000e+00   0.0000000000000000e+00   0.0000000000000000e+00   0.0000000000000000e+00   0.0000000000000000e+00   0.0000000000000000e+00   0.0000000000000000e+00   0.0000000000000000e+00   0.0000000000000000e+00   0.0000000000000000e+00   0.0000000000000000e+00   0.0000000000000000e+00   0.0000000000000000e+00   0.0000000000000000e+00   0.0000000000000000e+00   0.0000000000000000e+00   0.0000000000000000e+00   0.0000000000000000e+00   0.0000000000000000e+00   0.0000000000000000e+00   0.0000000000000000e+00   0.0000000000000000e+00   0.0000000000000000e+00   0.0000000000000000e+00   2.7845595841079361e-08   0.0000000000000000e+00   3.7105442184647525e-01   7.6754117449356581e-07   3.9045880582516477e+06   3.4003496601013546e+02   1.4308178870054800e+06   4.4050530921040289e+06   3.7804376167014609e+06   5.0757218783099828e+06   2.5647668351355190e+06   3.4066121184470132e+06   2.4041620261284374e+05   7.0952136442720157e+05   3.1831631369066580e-03   4.3165814924762715e-03   8.4111346811787010e-10   0.0000000000000000e+00   0.0000000000000000e+00   0.0000000000000000e+00   0.0000000000000000e+00   0.0000000000000000e+00   0.0000000000000000e+00   0.0000000000000000e+00   0.0000000000000000e+00   0.0000000000000000e+00   0.0000000000000000e+00   0.0000000000000000e+00   0.0000000000000000e+00   0.0000000000000000e+00   0.0000000000000000e+00   0.0000000000000000e+00   0.0000000000000000e+00   0.0000000000000000e+00   0.0000000000000000e+00   0.0000000000000000e+00   0.0000000000000000e+00   0.0000000000000000e+00   0.0000000000000000e+00   0.0000000000000000e+00   0.0000000000000000e+00   0.0000000000000000e+00   0.0000000000000000e+00   0.0000000000000000e+00   0.0000000000000000e+00   0.0000000000000000e+00   0.0000000000000000e+00   0.0000000000000000e+00   0.0000000000000000e+00   0.0000000000000000e+00   0.0000000000000000e+00   0.0000000000000000e+00   0.0000000000000000e+00   0.0000000000000000e+00   0.0000000000000000e+00   0.0000000000000000e+00   0.0000000000000000e+00   0.0000000000000000e+00   0.0000000000000000e+00   0.0000000000000000e+00   0.0000000000000000e+00   0.0000000000000000e+00   0.0000000000000000e+00   0.0000000000000000e+00   0.0000000000000000e+00   0.0000000000000000e+00   0.0000000000000000e+00   0.0000000000000000e+00   0.0000000000000000e+00   0.0000000000000000e+00   0.0000000000000000e+00   0.0000000000000000e+00   0.0000000000000000e+00   0.0000000000000000e+00   0.0000000000000000e+00   0.0000000000000000e+00   0.0000000000000000e+00   0.0000000000000000e+00   0.0000000000000000e+00   0.0000000000000000e+00   0.0000000000000000e+00   0.0000000000000000e+00   5.2478278180226137e-07   3.4224170680528770e-09   3.6033241520651363e+03   2.3507963288342857e+01   4.4837245785147659e+06   1.8624371029491045e+07   3.0121014399553980e+06   6.0219553480792344e+06   1.4358740590988513e+07   7.1935835859817583e+06   2.5557864338576364e+00   6.3825059467114870e+03   3.6330567625730883e-09   2.9878190286057255e-07   0.0000000000000000e+00   0.0000000000000000e+00   0.0000000000000000e+00   0.0000000000000000e+00   0.0000000000000000e+00   0.0000000000000000e+00   0.0000000000000000e+00   0.0000000000000000e+00   0.0000000000000000e+00   0.0000000000000000e+00   0.0000000000000000e+00   0.0000000000000000e+00   0.0000000000000000e+00   0.0000000000000000e+00   0.0000000000000000e+00   0.0000000000000000e+00   0.0000000000000000e+00   0.0000000000000000e+00   0.0000000000000000e+00   0.0000000000000000e+00   0.0000000000000000e+00   0.0000000000000000e+00   0.0000000000000000e+00   0.0000000000000000e+00   0.0000000000000000e+00   0.0000000000000000e+00   0.0000000000000000e+00   0.0000000000000000e+00   0.0000000000000000e+00   0.0000000000000000e+00   0.0000000000000000e+00   0.0000000000000000e+00   0.0000000000000000e+00   0.0000000000000000e+00   0.0000000000000000e+00   0.0000000000000000e+00   0.0000000000000000e+00   0.0000000000000000e+00   0.0000000000000000e+00   0.0000000000000000e+00   0.0000000000000000e+00   0.0000000000000000e+00   0.0000000000000000e+00   0.0000000000000000e+00   0.0000000000000000e+00   0.0000000000000000e+00   0.0000000000000000e+00   0.0000000000000000e+00   0.0000000000000000e+00   0.0000000000000000e+00   0.0000000000000000e+00   0.0000000000000000e+00   0.0000000000000000e+00   0.0000000000000000e+00   0.0000000000000000e+00   0.0000000000000000e+00   0.0000000000000000e+00   0.0000000000000000e+00   0.0000000000000000e+00   0.0000000000000000e+00   0.0000000000000000e+00   0.0000000000000000e+00   0.0000000000000000e+00   0.0000000000000000e+00   0.0000000000000000e+00   0.0000000000000000e+00   1.2980950058356650e-04   1.7602655807915716e-05   8.7239741794254840e+05   3.1189455135208310e+05   4.1369492084806412e+06   5.3749514267048780e+06   2.3048428955534492e+06   3.2157831226937654e+06   5.3585181214010473e+06   3.5209960541346529e+06   1.5041122667871907e+03   7.0586662759173270e+06   1.3530757814243709e-08   6.9694168622797910e-03   0.0000000000000000e+00   0.0000000000000000e+00   0.0000000000000000e+00   0.0000000000000000e+00   0.0000000000000000e+00   0.0000000000000000e+00   0.0000000000000000e+00   0.0000000000000000e+00   0.0000000000000000e+00   0.0000000000000000e+00   0.0000000000000000e+00   0.0000000000000000e+00   0.0000000000000000e+00   0.0000000000000000e+00   0.0000000000000000e+00   0.0000000000000000e+00   0.0000000000000000e+00   0.0000000000000000e+00   0.0000000000000000e+00   0.0000000000000000e+00   0.0000000000000000e+00   0.0000000000000000e+00   0.0000000000000000e+00   0.0000000000000000e+00   0.0000000000000000e+00   0.0000000000000000e+00   0.0000000000000000e+00   0.0000000000000000e+00   0.0000000000000000e+00   0.0000000000000000e+00   0.0000000000000000e+00   0.0000000000000000e+00   0.0000000000000000e+00   0.0000000000000000e+00   0.0000000000000000e+00   0.0000000000000000e+00   0.0000000000000000e+00   0.0000000000000000e+00   0.0000000000000000e+00   0.0000000000000000e+00   0.0000000000000000e+00   0.0000000000000000e+00   0.0000000000000000e+00   0.0000000000000000e+00   0.0000000000000000e+00   0.0000000000000000e+00   0.0000000000000000e+00   0.0000000000000000e+00   0.0000000000000000e+00   0.0000000000000000e+00   0.0000000000000000e+00   0.0000000000000000e+00   0.0000000000000000e+00   0.0000000000000000e+00   0.0000000000000000e+00   0.0000000000000000e+00   0.0000000000000000e+00   0.0000000000000000e+00   0.0000000000000000e+00   0.0000000000000000e+00   0.0000000000000000e+00   0.0000000000000000e+00   0.0000000000000000e+00   0.0000000000000000e+00   1.1680494926102002e-06   1.1938215705018679e-06   6.5047766429212925e+02   1.9106444297276291e+03   5.4385710405019559e+06   6.8722567706167540e+06   2.0556822049323469e+06   4.0581495115278522e+06   1.9701746204198119e+06   1.7833522568724870e+06   2.7329753593999958e+06   1.2183588042306690e+06   4.1618007330653747e+06   4.7354488416773649e+06   4.2013600898501376e-02   6.5509921693560120e+05   0.0000000000000000e+00   7.8953947465590418e-06   0.0000000000000000e+00   0.0000000000000000e+00   0.0000000000000000e+00   0.0000000000000000e+00   0.0000000000000000e+00   0.0000000000000000e+00   0.0000000000000000e+00   0.0000000000000000e+00   0.0000000000000000e+00   0.0000000000000000e+00   0.0000000000000000e+00   0.0000000000000000e+00   0.0000000000000000e+00   0.0000000000000000e+00   0.0000000000000000e+00   0.0000000000000000e+00   0.0000000000000000e+00   0.0000000000000000e+00   0.0000000000000000e+00   0.0000000000000000e+00   0.0000000000000000e+00   0.0000000000000000e+00   0.0000000000000000e+00   0.0000000000000000e+00   0.0000000000000000e+00   0.0000000000000000e+00   0.0000000000000000e+00   0.0000000000000000e+00   0.0000000000000000e+00   0.0000000000000000e+00   0.0000000000000000e+00   0.0000000000000000e+00   0.0000000000000000e+00   0.0000000000000000e+00   0.0000000000000000e+00   0.0000000000000000e+00   0.0000000000000000e+00   0.0000000000000000e+00   0.0000000000000000e+00   0.0000000000000000e+00   0.0000000000000000e+00   0.0000000000000000e+00   0.0000000000000000e+00   0.0000000000000000e+00   0.0000000000000000e+00   0.0000000000000000e+00   0.0000000000000000e+00   0.0000000000000000e+00   0.0000000000000000e+00   0.0000000000000000e+00   1.6985238790637719e-05   4.8247451336506404e-05   2.3133747357846751e+03   2.3359856569744545e+04   6.2723112154548708e+06   5.5206311745176604e+06   3.7478412125278488e+06   3.8909186019992731e+06   8.1040830784503638e+05   1.3857199590475666e+06   2.1875989057724727e+06   1.5458169689712012e+06   1.7690775125483556e+06   7.2651514324478607e+05   2.1970691397604719e+06   2.2222576476228111e+06   2.8633817414793223e+06   4.1402151896186504e+06   2.2799173906928511e-03   6.2804475714052169e+04   0.0000000000000000e+00   1.4132629747952387e-05   0.0000000000000000e+00   0.0000000000000000e+00   0.0000000000000000e+00   0.0000000000000000e+00   0.0000000000000000e+00   0.0000000000000000e+00   0.0000000000000000e+00   0.0000000000000000e+00   0.0000000000000000e+00   0.0000000000000000e+00   0.0000000000000000e+00   0.0000000000000000e+00   0.0000000000000000e+00   0.0000000000000000e+00   0.0000000000000000e+00   0.0000000000000000e+00   0.0000000000000000e+00   0.0000000000000000e+00   0.0000000000000000e+00   0.0000000000000000e+00   0.0000000000000000e+00   0.0000000000000000e+00   0.0000000000000000e+00   0.0000000000000000e+00   0.0000000000000000e+00   0.0000000000000000e+00   0.0000000000000000e+00   0.0000000000000000e+00   0.0000000000000000e+00   0.0000000000000000e+00   0.0000000000000000e+00   0.0000000000000000e+00   0.0000000000000000e+00   0.0000000000000000e+00   0.0000000000000000e+00   0.0000000000000000e+00   0.0000000000000000e+00   0.0000000000000000e+00   0.0000000000000000e+00   0.0000000000000000e+00   0.0000000000000000e+00   0.0000000000000000e+00   0.0000000000000000e+00   0.0000000000000000e+00   0.0000000000000000e+00   0.0000000000000000e+00   1.2504919055775093e-03   6.0541816342086002e-03   1.2837146440986714e+05   1.1306730398433513e+06   6.3212650468650796e+06   4.7845360613110727e+06   4.2754459413221609e+06   3.5472688958627377e+06   1.7339428276617695e+06   1.5187163266308289e+06   9.1334152231427876e+05   2.4682643393426673e+06   2.1522596761977617e+06   2.2648153560016789e+06   1.8654956540786866e+06   1.4688024255312849e+06   7.9702043363962835e+05   1.0242740287471421e+06   2.1437215929633589e+06   2.4311047673791149e+06   2.6626387397336797e+06   3.9025596450604806e+06   8.5472652911103258e-02   5.6552539451875316e+05   0.0000000000000000e+00   9.1338291144149185e-04   0.0000000000000000e+00   0.0000000000000000e+00   0.0000000000000000e+00   0.0000000000000000e+00   0.0000000000000000e+00   0.0000000000000000e+00   0.0000000000000000e+00   0.0000000000000000e+00   0.0000000000000000e+00   0.0000000000000000e+00   0.0000000000000000e+00   0.0000000000000000e+00   0.0000000000000000e+00   0.0000000000000000e+00   0.0000000000000000e+00   0.0000000000000000e+00   0.0000000000000000e+00   0.0000000000000000e+00   0.0000000000000000e+00   0.0000000000000000e+00   0.0000000000000000e+00   0.0000000000000000e+00   0.0000000000000000e+00   0.0000000000000000e+00   0.0000000000000000e+00   0.0000000000000000e+00   0.0000000000000000e+00   0.0000000000000000e+00   0.0000000000000000e+00   0.0000000000000000e+00   0.0000000000000000e+00   0.0000000000000000e+00   0.0000000000000000e+00   0.0000000000000000e+00   0.0000000000000000e+00   0.0000000000000000e+00   0.0000000000000000e+00   0.0000000000000000e+00   0.0000000000000000e+00   0.0000000000000000e+00   0.0000000000000000e+00   0.0000000000000000e+00   0.0000000000000000e+00   0.0000000000000000e+00   1.0286373903315124e-02   8.1427590010381586e-03   1.6341186728115622e+06   1.2289470887912691e+06   4.3096902750832625e+06   3.9027239768762528e+06   3.2341647941116565e+06   2.8668626071930537e+06   7.3201871688496007e+05   1.3924801709267148e+06   2.0311265500031861e+06   3.2182288636044478e+06   1.9881424740666829e+06   7.1713886253945585e+06   1.0565413415119722e+06   2.8147220361201880e+06   2.4175355163518367e+06   2.7036314164908519e+06   1.7685884370676677e+06   2.7253760839148117e+06   7.0261845888837310e+05   1.0013500963348054e+06   1.8220230219726362e+06   2.1347332291388726e+06   2.4251921491070548e+06   2.9251965761759803e+06   2.4807241894325665e+00   1.7111914249267776e+06   0.0000000000000000e+00   7.4886656054932738e-03   0.0000000000000000e+00   0.0000000000000000e+00   0.0000000000000000e+00   0.0000000000000000e+00   0.0000000000000000e+00   0.0000000000000000e+00   0.0000000000000000e+00   0.0000000000000000e+00   0.0000000000000000e+00   0.0000000000000000e+00   0.0000000000000000e+00   0.0000000000000000e+00   0.0000000000000000e+00   0.00000000