<?xml version="1.0"?>
<VTKFile type="UnstructuredGrid"  version="0.1"  >
<UnstructuredGrid>
<Piece  NumberOfPoints="608" NumberOfCells="1117">
<Points>
<DataArray  type="Float64"  NumberOfComponents="3"  format="ascii">0.08260869565217391 0 0  0.09913043478260869 0 0  0.09913043478260869 0.01666666666666667 0  0.1156521739130435 0 0  0.1156521739130435 0.01666666666666667 0  0.1321739130434783 0 0  0.1321739130434783 0.01666666666666667 0  0.148695652173913 0 0  0.148695652173913 0.01666666666666667 0  0.1652173913043478 0 0  0.1652173913043478 0.01666666666666667 0  0.1817391304347826 0 0  0.1817391304347826 0.01666666666666667 0  0.1982608695652174 0 0  0.1982608695652174 0.01666666666666667 0  0.2147826086956522 0 0  0.2147826086956522 0.01666666666666667 0  0.2313043478260869 0 0  0.2313043478260869 0.01666666666666667 0  0.2478260869565218 0 0  0.2478260869565218 0.01666666666666667 0  0.2643478260869565 0 0  0.2643478260869565 0.01666666666666667 0  0.2808695652173913 0 0  0.2808695652173913 0.01666666666666667 0  0.2973913043478261 0 0  0.2973913043478261 0.01666666666666667 0  0.3139130434782609 0 0  0.3139130434782609 0.01666666666666667 0  0.3304347826086956 0 0  0.3304347826086956 0.01666666666666667 0  0.3469565217391304 0 0  0.3469565217391304 0.01666666666666667 0  0.3634782608695652 0 0  0.3634782608695652 0.01666666666666667 0  0.3799999999999999 0 0  0.3799999999999999 0.01666666666666667 0  0.3965217391304348 0 0  0.3965217391304348 0.01666666666666667 0  0.4130434782608696 0 0  0.4130434782608696 0.01666666666666667 0  0.4295652173913043 0.01666666666666667 0  0.1156521739130435 0.03333333333333333 0  0.1321739130434783 0.03333333333333333 0  0.148695652173913 0.03333333333333333 0  0.1652173913043478 0.03333333333333333 0  0.1817391304347826 0.03333333333333333 0  0.1982608695652174 0.03333333333333333 0  0.2147826086956522 0.03333333333333333 0  0.2313043478260869 0.03333333333333333 0  0.2478260869565218 0.03333333333333333 0  0.2643478260869565 0.03333333333333333 0  0.2808695652173913 0.03333333333333333 0  0.2973913043478261 0.03333333333333333 0  0.3139130434782609 0.03333333333333333 0  0.3304347826086956 0.03333333333333333 0  0.3469565217391304 0.03333333333333333 0  0.3634782608695652 0.03333333333333333 0  0.3799999999999999 0.03333333333333333 0  0.3965217391304348 0.03333333333333333 0  0.4130434782608696 0.03333333333333333 0  0.4295652173913043 0.03333333333333333 0  0.4460869565217391 0.03333333333333333 0  0.1321739130434783 0.05 0  0.148695652173913 0.05 0  0.1652173913043478 0.05 0  0.1817391304347826 0.05 0  0.1982608695652174 0.05 0  0.2147826086956522 0.05 0  0.2313043478260869 0.05 0  0.2478260869565218 0.05 0  0.2643478260869565 0.05 0  0.2808695652173913 0.05 0  0.2973913043478261 0.05 0  0.3139130434782609 0.05 0  0.3304347826086956 0.05 0  0.3469565217391304 0.05 0  0.3634782608695652 0.05 0  0.3799999999999999 0.05 0  0.3965217391304348 0.05 0  0.4130434782608696 0.05 0  0.4295652173913043 0.05 0  0.4460869565217391 0.05 0  0.4626086956521739 0.05 0  0.148695652173913 0.06666666666666667 0  0.1652173913043478 0.06666666666666667 0  0.1817391304347826 0.06666666666666667 0  0.1982608695652174 0.06666666666666667 0  0.2147826086956522 0.06666666666666667 0  0.2313043478260869 0.06666666666666667 0  0.2478260869565218 0.06666666666666667 0  0.2643478260869565 0.06666666666666667 0  0.2808695652173913 0.06666666666666667 0  0.2973913043478261 0.06666666666666667 0  0.3139130434782609 0.06666666666666667 0  0.3304347826086956 0.06666666666666667 0  0.3469565217391304 0.06666666666666667 0  0.3634782608695652 0.06666666666666667 0  0.3799999999999999 0.06666666666666667 0  0.3965217391304348 0.06666666666666667 0  0.4130434782608696 0.06666666666666667 0  0.4295652173913043 0.06666666666666667 0  0.4460869565217391 0.06666666666666667 0  0.4626086956521739 0.06666666666666667 0  0.4791304347826086 0.06666666666666667 0  0.1652173913043478 0.08333333333333333 0  0.1817391304347826 0.08333333333333333 0  0.1982608695652174 0.08333333333333333 0  0.2147826086956522 0.08333333333333333 0  0.2313043478260869 0.08333333333333333 0  0.2478260869565218 0.08333333333333333 0  0.2643478260869565 0.08333333333333333 0  0.2808695652173913 0.08333333333333333 0  0.2973913043478261 0.08333333333333333 0  0.3139130434782609 0.08333333333333333 0  0.3304347826086956 0.08333333333333333 0  0.3469565217391304 0.08333333333333333 0  0.3634782608695652 0.08333333333333333 0  0.3799999999999999 0.08333333333333333 0  0.3965217391304348 0.08333333333333333 0  0.4130434782608696 0.08333333333333333 0  0.4295652173913043 0.08333333333333333 0  0.4460869565217391 0.08333333333333333 0  0.4626086956521739 0.08333333333333333 0  0.4791304347826086 0.08333333333333333 0  0.4956521739130435 0.08333333333333333 0  0.1817391304347826 0.1 0  0.1982608695652174 0.1 0  0.2147826086956522 0.1 0  0.2313043478260869 0.1 0  0.2478260869565218 0.1 0  0.2643478260869565 0.1 0  0.2808695652173913 0.1 0  0.2973913043478261 0.1 0  0.3139130434782609 0.1 0  0.3304347826086956 0.1 0  0.3469565217391304 0.1 0  0.3634782608695652 0.1 0  0.3799999999999999 0.1 0  0.3965217391304348 0.1 0  0.4130434782608696 0.1 0  0.4295652173913043 0.1 0  0.4460869565217391 0.1 0  0.4626086956521739 0.1 0  0.4791304347826086 0.1 0  0.4956521739130435 0.1 0  0.5121739130434783 0.1 0  0.1982608695652174 0.1166666666666667 0  0.2147826086956522 0.1166666666666667 0  0.2313043478260869 0.1166666666666667 0  0.2478260869565218 0.1166666666666667 0  0.2643478260869565 0.1166666666666667 0  0.2808695652173913 0.1166666666666667 0  0.2973913043478261 0.1166666666666667 0  0.3139130434782609 0.1166666666666667 0  0.3304347826086956 0.1166666666666667 0  0.3469565217391304 0.1166666666666667 0  0.3634782608695652 0.1166666666666667 0  0.3799999999999999 0.1166666666666667 0  0.3965217391304348 0.1166666666666667 0  0.4130434782608696 0.1166666666666667 0  0.4295652173913043 0.1166666666666667 0  0.4460869565217391 0.1166666666666667 0  0.4626086956521739 0.1166666666666667 0  0.4791304347826086 0.1166666666666667 0  0.4956521739130435 0.1166666666666667 0  0.5121739130434783 0.1166666666666667 0  0.528695652173913 0.1166666666666667 0  0.2147826086956522 0.1333333333333333 0  0.2313043478260869 0.1333333333333333 0  0.2478260869565218 0.1333333333333333 0  0.2643478260869565 0.1333333333333333 0  0.2808695652173913 0.1333333333333333 0  0.2973913043478261 0.1333333333333333 0  0.3139130434782609 0.1333333333333333 0  0.3304347826086956 0.1333333333333333 0  0.3469565217391304 0.1333333333333333 0  0.3634782608695652 0.1333333333333333 0  0.3799999999999999 0.1333333333333333 0  0.3965217391304348 0.1333333333333333 0  0.4130434782608696 0.1333333333333333 0  0.4295652173913043 0.1333333333333333 0  0.4460869565217391 0.1333333333333333 0  0.4626086956521739 0.1333333333333333 0  0.4791304347826086 0.1333333333333333 0  0.4956521739130435 0.1333333333333333 0  0.5121739130434783 0.1333333333333333 0  0.528695652173913 0.1333333333333333 0  0.5452173913043478 0.1333333333333333 0  0.2313043478260869 0.15 0  0.2478260869565218 0.15 0  0.2643478260869565 0.15 0  0.2808695652173913 0.15 0  0.2973913043478261 0.15 0  0.3139130434782609 0.15 0  0.3304347826086956 0.15 0  0.3469565217391304 0.15 0  0.3634782608695652 0.15 0  0.3799999999999999 0.15 0  0.3965217391304348 0.15 0  0.4130434782608696 0.15 0  0.4295652173913043 0.15 0  0.4460869565217391 0.15 0  0.4626086956521739 0.15 0  0.4791304347826086 0.15 0  0.4956521739130435 0.15 0  0.5121739130434783 0.15 0  0.528695652173913 0.15 0  0.5452173913043478 0.15 0  0.5617391304347825 0.15 0  0.2478260869565218 0.1666666666666667 0  0.2643478260869565 0.1666666666666667 0  0.2808695652173913 0.1666666666666667 0  0.2973913043478261 0.1666666666666667 0  0.3139130434782609 0.1666666666666667 0  0.3304347826086956 0.1666666666666667 0  0.3469565217391304 0.1666666666666667 0  0.3634782608695652 0.1666666666666667 0  0.3799999999999999 0.1666666666666667 0  0.3965217391304348 0.1666666666666667 0  0.4130434782608696 0.1666666666666667 0  0.4295652173913043 0.1666666666666667 0  0.4460869565217391 0.1666666666666667 0  0.4626086956521739 0.1666666666666667 0  0.4791304347826086 0.1666666666666667 0  0.4956521739130435 0.1666666666666667 0  0.5121739130434783 0.1666666666666667 0  0.528695652173913 0.1666666666666667 0  0.5452173913043478 0.1666666666666667 0  0.5617391304347825 0.1666666666666667 0  0.5782608695652174 0.1666666666666667 0  0.2643478260869565 0.1833333333333333 0  0.2808695652173913 0.1833333333333333 0  0.2973913043478261 0.1833333333333333 0  0.3139130434782609 0.1833333333333333 0  0.3304347826086956 0.1833333333333333 0  0.3469565217391304 0.1833333333333333 0  0.3634782608695652 0.1833333333333333 0  0.3799999999999999 0.1833333333333333 0  0.3965217391304348 0.1833333333333333 0  0.4130434782608696 0.1833333333333333 0  0.4295652173913043 0.1833333333333333 0  0.4460869565217391 0.1833333333333333 0  0.4626086956521739 0.1833333333333333 0  0.4791304347826086 0.1833333333333333 0  0.4956521739130435 0.1833333333333333 0  0.5121739130434783 0.1833333333333333 0  0.528695652173913 0.1833333333333333 0  0.5452173913043478 0.1833333333333333 0  0.5617391304347825 0.1833333333333333 0  0.5782608695652174 0.1833333333333333 0  0.2808695652173913 0.2 0  0.2973913043478261 0.2 0  0.3139130434782609 0.2 0  0.3304347826086956 0.2 0  0.3469565217391304 0.2 0  0.3634782608695652 0.2 0  0.3799999999999999 0.2 0  0.3965217391304348 0.2 0  0.4130434782608696 0.2 0  0.4295652173913043 0.2 0  0.4460869565217391 0.2 0  0.4626086956521739 0.2 0  0.4791304347826086 0.2 0  0.4956521739130435 0.2 0  0.5121739130434783 0.2 0  0.528695652173913 0.2 0  0.5452173913043478 0.2 0  0.5617391304347825 0.2 0  0.5782608695652174 0.2 0  0.2973913043478261 0.2166666666666667 0  0.3139130434782609 0.2166666666666667 0  0.3304347826086956 0.2166666666666667 0  0.3469565217391304 0.2166666666666667 0  0.36347826086956
[...]
<CellData  Scalars="rho"> 
<DataArray  type="Float64"  Name="rho"  format="ascii">1.0000000000000000e+00   1.0000000000000000e+00   1.0000000000000000e+00   1.0000000000000000e+00   1.0000000000000000e+00   1.0000000000000000e+00   1.0000000000000000e+00   1.0000000000000000e+00   1.0000000000000000e+00   1.0000000000000000e+00   1.0000000000000000e+00   1.0000000000000000e+00   1.0000000000000000e+00   1.0000000000000000e+00   1.0000000000000000e+00   1.0000000000000000e+00   1.0000000000000000e+00   1.0000000000000000e+00   1.0000000000000000e+00   1.0000000000000000e+00   1.0000000000000000e+00   9.9961502042159955e-01   9.9972155694082976e-01   9.9898519699103472e-01   9.9906186996148616e-01   9.9849277870489472e-01   9.9853297810101715e-01   9.9815732861062623e-01   9.9815704154543905e-01   9.9798929518556678e-01   9.9794750076879435e-01   9.9798954639100612e-01   9.9790843677932906e-01   9.9814919275859160e-01   9.9803429570437863e-01   9.9844956240295912e-01   9.9830969455055907e-01   9.9886269249083248e-01   9.9870950002233649e-01   9.9919989033907408e-01   1.0000000000000000e+00   1.0000000000000000e+00   1.0000000000000000e+00   1.0000000000000000e+00   1.0000000000000000e+00   1.0000000000000000e+00   1.0000000000000000e+00   1.0000000000000000e+00   1.0000000000000000e+00   1.0000000000000000e+00   1.0000000000000000e+00   1.0000000000000000e+00   1.0000000000000000e+00   1.0000000000000000e+00   1.0000000000000000e+00   1.0000000000000000e+00   1.0000000000000000e+00   9.9969515826590116e-01   9.9955455935850390e-01   9.9899782981032725e-01   9.9884441232280108e-01   9.9842051185659630e-01   9.9825075769646809e-01   9.9798925891810164e-01   9.9780100615774114e-01   9.9772266989543468e-01   9.9751569306784893e-01   9.9763089539734962e-01   9.9740748271482949e-01   9.9771516868274734e-01   9.9748063171487023e-01   9.9796725196977210e-01   9.9773041467463319e-01   9.9836862769776547e-01   9.9814205096710273e-01   9.9888992713720326e-01   9.9868941127430166e-01   9.9949165672756179e-01   9.9933453720705179e-01   1.0000000000000000e+00   1.0000000000000000e+00   1.0000000000000000e+00   1.0000000000000000e+00   1.0000000000000000e+00   1.0000000000000000e+00   1.0000000000000000e+00   1.0000000000000000e+00   1.0000000000000000e+00   1.0000000000000000e+00   1.0000000000000000e+00   1.0000000000000000e+00   9.9990945838483303e-01   9.9960980299882229e-01   9.9909691380471066e-01   9.9878466801991028e-01   9.9836301244836234e-01   9.9803672831104884e-01   9.9774110829922502e-01   9.9739973591636122e-01   9.9726070774570674e-01   9.9690412079644031e-01   9.9694553411950204e-01   9.9657499212589706e-01   9.9681280922367732e-01   9.9643135199202315e-01   9.9687268421867137e-01   9.9648589061246906e-01   9.9712782188162641e-01   9.9674456237732745e-01   9.9757215474966310e-01   9.9720555393273802e-01   9.9818841093402666e-01   9.9785665309428040e-01   9.9894510796813984e-01   9.9867131740881754e-01   9.9979467692495472e-01   9.9960501591648954e-01   9.7921642430496092e-01   1.0000000000000000e+00   9.6084186701429697e-01   1.0000000000000000e+00   1.0000000000000000e+00   1.0000000000000000e+00   1.0000000000000000e+00   8.1442953710512100e-01   9.9990680409379495e-01   7.2970980553038511e-01   9.9902080063511978e-01   5.7893709381512104e-01   9.9817251828898579e-01   4.4659929876655297e-01   9.9739565069789882e-01   3.8333302605069386e-01   9.9672407408973840e-01   3.8441304645672997e-01   9.9618967513336865e-01   4.1291487852723852e-01   9.9582047371457849e-01   4.9501831077948061e-01   9.9563945586897518e-01   6.5748559979680155e-01   9.9566458286002191e-01   7.0140379356491522e-01   9.9590905849352906e-01   8.4892820880565800e-01   9.9638086729334763e-01   9.4955697232943614e-01   9.9708062077493198e-01   9.9663988763191946e-01   9.9799657853923285e-01   9.9758856326631917e-01   9.9909733565742920e-01   9.9875578501249629e-01   1.0000000000000000e+00   9.2538442847992741e-01   9.1097984455050396e-01   8.1308835746633823e-01   8.5069058016661325e-01   7.6337747840775094e-01   6.0464795416612527e-01   4.0598182207999509e-05   0.0000000000000000e+00   0.0000000000000000e+00   0.0000000000000000e+00   0.0000000000000000e+00   0.0000000000000000e+00   0.0000000000000000e+00   0.0000000000000000e+00   0.0000000000000000e+00   0.0000000000000000e+00   0.0000000000000000e+00   0.0000000000000000e+00   0.0000000000000000e+00   0.0000000000000000e+00   0.0000000000000000e+00   0.0000000000000000e+00   0.0000000000000000e+00   0.0000000000000000e+00   0.0000000000000000e+00   0.0000000000000000e+00   0.0000000000000000e+00   0.0000000000000000e+00   0.0000000000000000e+00   0.0000000000000000e+00   0.0000000000000000e+00   2.4018940564098368e-01   0.0000000000000000e+00   3.7720033512423323e-01   0.0000000000000000e+00   4.5422852922309714e-01   2.8922958482018679e-01   5.4499067827100189e-01   3.4440824524541497e-01   5.6242845687069043e-01   4.1793278519877386e-01   5.3454404013279044e-01   4.5072804257231097e-01   5.1172060964058785e-01   4.5297137994308490e-01   4.2746392673518224e-01   0.0000000000000000e+00   0.0000000000000000e+00   0.0000000000000000e+00   0.0000000000000000e+00   0.0000000000000000e+00   0.0000000000000000e+00   0.0000000000000000e+00   0.0000000000000000e+00   0.0000000000000000e+00   0.0000000000000000e+00   0.0000000000000000e+00   0.0000000000000000e+00   0.0000000000000000e+00   0.0000000000000000e+00   0.0000000000000000e+00   0.0000000000000000e+00   0.0000000000000000e+00   0.0000000000000000e+00   0.0000000000000000e+00   0.0000000000000000e+00   0.0000000000000000e+00   0.0000000000000000e+00   0.0000000000000000e+00   0.0000000000000000e+00   0.0000000000000000e+00   0.0000000000000000e+00   0.0000000000000000e+00   1.4568951770556105e-04   0.0000000000000000e+00   1.2563675431519689e-01   1.9341816878785576e-03   2.7851670414772012e-01   5.3355969803198997e-03   3.4768492123526978e-01   2.5690095969177129e-01   3.6687556054256160e-01   3.0237894253466890e-01   3.4524392581787555e-01   3.0773882537644742e-01   2.7433348448168948e-01   0.0000000000000000e+00   0.0000000000000000e+00   0.0000000000000000e+00   0.0000000000000000e+00   0.0000000000000000e+00   0.0000000000000000e+00   0.0000000000000000e+00   0.0000000000000000e+00   0.0000000000000000e+00   0.0000000000000000e+00   0.0000000000000000e+00   0.0000000000000000e+00   0.0000000000000000e+00   0.0000000000000000e+00   0.0000000000000000e+00   0.0000000000000000e+00   0.0000000000000000e+00   0.0000000000000000e+00   0.0000000000000000e+00   0.0000000000000000e+00   0.0000000000000000e+00   0.0000000000000000e+00   0.0000000000000000e+00   0.0000000000000000e+00   0.0000000000000000e+00   1.0432543448146336e-03   5.9949169043384330e-04   3.5513322313419741e-03   3.0568974609100695e-03   8.3421782818085197e-03   5.9265426011177649e-03   3.5230623974913132e-02   2.7492279584339519e-02   1.4687879109602051e-01   8.3263010038453100e-02   2.4457528079783675e-01   2.3316298175108408e-01   1.0763804387701063e-01   2.2573944673533747e-01   7.2885030652520624e-02   0.0000000000000000e+00   0.0000000000000000e+00   0.0000000000000000e+00   0.0000000000000000e+00   0.0000000000000000e+00   0.0000000000000000e+00   0.0000000000000000e+00   0.0000000000000000e+00   0.0000000000000000e+00   0.0000000000000000e+00   0.0000000000000000e+00   0.0000000000000000e+00   0.0000000000000000e+00   0.0000000000000000e+00   0.0000000000000000e+00   0.0000000000000000e+00   0.0000000000000000e+00   0.0000000000000000e+00   0.0000000000000000e+00   0.0000000000000000e+00   0.0000000000000000e+00   0.0000000000000000e+00   0.0000000000000000e+00   1.9200067234434004e-03   1.3724497068588028e-03   4.6727427769065978e-03   3.9940341887889372e-03   7.8900343367733425e-03   7.1512161028562454e-03   5.7253534950123336e-02   3.8150565940105512e-02   1.6770797887985672e-01   1.1484295136299734e-01   4.8198433285820808e-01   9.3505558150712120e-01   4.6446037500177745e-01   5.3461009959964145e-01   3.5778320290827825e-01   4.7792534766074463e-01   3.4550218986872222e-01   0.0000000000000000e+00   0.0000000000000000e+00   0.0000000000000000e+00   0.0000000000000000e+00   0.0000000000000000e+00   0.0000000000000000e+00   0.0000000000000000e+00   0.0000000000000000e+00   0.0000000000000000e+00   0.0000000000000000e+00   0.0000000000000000e+00   0.0000000000000000e+00   0.0000000000000000e+00   0.0000000000000000e+00   0.0000000000000000e+00   0.0000000000000000e+00   0.0000000000000000e+00   0.0000000000000000e+00   0.0000000000000000e+00   3.1639069158988096e-04   0.0000000000000000e+00   2.5753924668719909e-03   1.9195461382419455e-03   5.4294964299973969e-03   4.5706875457385389e-03   8.8609922205844863e-03   7.8374896435447032e-03   6.4880255143210136e-02   3.1254513987252257e-02   4.1921466286668957e-01   3.2730370433615391e-01   1.0000000000000000e+00   1.0000000000000000e+00   1.0000000000000000e+00   1.0000000000000000e+00   5.9722093262142173e-01   8.6485137062247430e-01   4.7934109404427055e-01   6.0023411713134822e-01   4.6940406192033118e-01   0.0000000000000000e+00   0.0000000000000000e+00   0.0000000000000000e+00   0.0000000000000000e+00   0.0000000000000000e+00   0.0000000000000000e+00   0.0000000000000000e+00   0.0000000000000000e+00   0.0000000000000000e+00   0.0000000000000000e+00   0.0000000000000000e+00   0.0000000000000000e+00   0.0000000000000000e+00   0.0000000000000000e+00   0.0000000000000000e+00   0.0000000000000000e+00   0.0000000000000000e+00   7.2138731514897699e-04   2.1234378123879697e-04   2.9146778418614487e-03   2.1778215257749756e-03   5.7234860944798700e-03   4.7324508128222410e-03   9.1673564070191890e-03   7.9270986802017791e-03   5.0773252216145107e-02   1.6432382290542644e-02   3.8573209444857554e-01   2.5671275780735547e-01   8.0472414395249880e-01   5.2462556167632579e-01   1.0000000000000000e+00   9.3718854031854315e-01   9.8572670708381072e-01   1.0000000000000000e+00   6.8951317243530252e-01   9.6042221017144414e-01   5.7493893204426094e-01   6.6367560907092127e-01   5.4696924793786761e-01   0.0000000000000000e+00   0.0000000000000000e+00   0.0000000000000000e+00   0.0000000000000000e+00   0.0000000000000000e+00   0.0000000000000000e+00   0.0000000000000000e+00   0.0000000000000000e+00   0.0000000000000000e+00   0.0000000000000000e+00   0.0000000000000000e+00   0.0000000000000000e+00   0.0000000000000000e+00   0.0000000000000000e+00   0.0000000000000000e+00   8.9187976115347699e-04   3.5508838329833826e-04   2.9382521393469777e-03   2.1643355490411609e-03   5.5780858698334830e-03   4.5261530585815595e-03   8.8534222478211556e-03   7.5037744534870209e-03   1.2707966766951734e-02   1.1091331703367157e-02   2.9308827667344528e-01   1.8309015403587339e-01   5.2335477534067276e-01   3.9572285200032253e-01   7.0694497686214586e-01   6.0639439000060835e-01   1.0000000000000000e+00   7.3685732563970463e-01   8.0355360783810004e-01   7.9403614138881029e-01   7.1414953602093745e-01   7.6212081692362843e-01   6.1861960006111461e-01   7.0971747071615265e-01   0.0000000000000000e+00   0.0000000000000000e+00   0.0000000000000000e+00   0.0000000000000000e+00   0.0000000000000000e+00   0.0000000000000000e+00   0.0000000000000000e+00   0.0000000000000000e+00   0.0000000000000000e+00   0.0000000000000000e+00   0.0000000000000000e+00   0.0000000000000000e+00   0.0000000000000000e+00   8.5957275415463443e-04   3.2228740820622472e-04   2.7075300655794439e-03   1.9410312614912553e-03   5.0974947436567440e-03   4.0550674703950318e-03   8.0812949962336730e-03   6.7296073720187841e-03   1.1638879182544255e-02   9.9801773461806222e-03   1.2742951347931103e-01   1.3726735753414552e-02   3.2955984139957123e-01   2.3711461253947869e-01   5.1172591688400948e-01   4.1839649556332814e-01   8.8118846565176923e-01   7.4893499272505948e-01   9.4536915105925357e-01   8.6336402950479318e-01   7.7463561753479881e-01   9.1147126125770783e-01   7.3287967478344718e-01   7.4713308586200344e-01   0.0000000000000000e+00   0.0000000000000000e+00   0.0000000000000000e+00   0.0000000000000000e+00   0.0000000000000000e+00   0.0000000000000000e+00   0.0000000000000000e+00   0.0000000000000000e+00   0.0000000000000000e+00   0.0000000000000000e+00   0.0000000000000000e+00   6.7787125922758149e-04   1.6151333880111415e-04   2.3079702853095463e-03   1.5826312368703633e-03   4.4148601966758879e-03   3.4346809782741369e-03   7.0520084116289976e-03   5.7791751052929437e-03   1.0222475753968145e-02   8.6430488808765145e-03   1.3840819482340632e-02   1.1988300739833565e-02   1.7698879860252245e-02   1.5679762240946898e-02   3.5841661894212695e-01   2.0660706967047623e-01   5.1132875743459660e-01   3.8046299705475695e-01   5.8756552901058734e-01   5.0811284399374079e-01   6.3035872201641130e-01   7.7715650705038886e-01   7.4578020710936266e-01   7.8174884973043068e-01   0.0000000000000000e+00   0.0000000000000000e+00   0.0000000000000000e+00   0.0000000000000000e+00   0.0000000000000000e+00   0.0000000000000000e+00   0.0000000000000000e+00   0.0000000000000000e+00   0.0000000000000000e+00   0.0000000000000000e+00   3.9996925717137016e-04   0.0000000000000000e+00   1.8201770396437281e-03   1.1540245513958676e-03   3.6514076741029837e-03   2.7619907445249219e-03   5.9446891329995796e-03   4.7956750402920936e-03   8.7166394292683327e-03   7.2872823477766165e-03   1.1924936134122864e-02   1.0225238136513928e-02   1.5446817055913897e-02   1.3533673933314739e-02   1.9074376618612027e-02   1.7060545068409722e-02   3.0039895452257676e-01   2.0584353420998850e-02   5.4394908198724889e-01   4.6951604934955693e-01   6.0087148625214093e-01   5.4865162037453430e-01   6.2181784126348427e-01   5.9716258563398672e-01   0.0000000000000000e+00   0.0000000000000000e+00   0.0000000000000000e+00   0.0000000000000000e+00   0.0000000000000000e+00   0.0000000000000000e+00   0.0000000000000000e+00   0.0000000000000000e+00   0.0000000000000000e+00   0.0000000000000000e+00   6.5288571418546190e-05   0.0000000000000000e+00   1.3024885034040971e-03   6.9775042597341650e-04   2.8933512960031705e-03   2.0998105984052799e-03   4.8851631249123353e-03   3.8712008248712173e-03   7.3019566324657482e-03   6.0461048938781946e-03   1.0128028973862819e-02   8.6288135752033580e-03   1.3293362455372389e-02   1.1579447450825727e-02   1.6667668027703409e-02   1.4804565090286822e-02   2.0067016416324461e-02   1.8157388496589044e-02   3.0005448660257289e-01   2.1447283495102824e-02   5.0047419721516195e-01   4.4951929970371124e-01   5.5513483851333412e-01   5.1424971744837322e-01   5.6103994582004169e-01   0.0000000000000000e+00   0.0000000000000000e+00   0.0000000000000000e+00   0.0000000000000000e+00   0.0000000000000000e+00   0.0000000000000000e+00   0.0000000000000000e+00   0.0000000000000000e+00   0.0000000000000000e+00   0.0000000000000000e+00   0.0000000000000000e+00   7.8352164365892523e-04   2.2942897309728607e-04   2.1834322667616791e-03   1.4720526321026905e-03   3.9369149934292856e-03   3.0424434716312602e-03   6.0720632661432636e-03   4.9757111969725631e-03   8.5889456314463021e-03   7.2855034991011888e-03   1.1448110991669676e-02   9.9525470443048696e-03   1.4563658508812765e-02   1.2915434919837017e-02   1.7804144656639813e-02   1.6067629457596676e-02   2.1000173425526337e-02   1.9262369230939280e-02   3.8706411571304922e-01   2.8377132466867200e-01   4.9172808945035035e-01   4.6109046927855263e-01   5.3778948058759757e-01   5.0937029762008668e-01   5.5002505566769977e-01   0.0000000000000000e+00   0.0000000000000000e+00   0.0000000000000000e+00   0.0000000000000000e+00   0.0000000000000000e+00   0.0000000000000000e+00   0.0000000000000000e+00   0.0000000000000000e+00   0.0000000000000000e+00   2.6187817175360266e-04   0.0000000000000000e+00   1.5217655379687986e-03   8.6626960198908979e-04   3.1038169441280320e-03   2.2950826535945378e-03   5.0391264118206762e-03   4.0620467318317251e-03   7.3372575517650432e-03   6.1870518818020921e-03   9.9750553955873893e-03   8.6621168749759104e-03   1.2887041610709062e-02   1.1439782899014457e-02   1.5963110528052233e-02   1.4426601451502376e-02   1.9057307186110199e-02   1.7488854286130867e-02   3.4908831627659903e-01   3.3620444139642491e-01   3.9945503496866985e-01   3.8436945442662590e-01   4.3848219665343574e-01   4.0733816576995580e-01   4.7283365518669895e-01   4.3980068221618190e-01   4.7200295436733125e-01   0.0000000000000000e+00   0.0000000000000000e+00   0.0000000000000000e+00   0.0000000000000000e+00   0.0000000000000000e+00   0.0000000000000000e+00   0.0000000000000000e+00   0.0000000000000000e+00   0.0000000000000000e+00   8.7312373278522547e-04   2.4192925575405616e-04   2.3399712451225075e-03   1.5747336810848255e-03   4.1462224460164501e-03   3.2343523819223481e-03   6.3081016582155671e-03   5.2459420810821965e-03   8.8106889889654500e-03   7.6081956638812901e-03   1.1592725640442045e-02   1.0276671419332396e-02   1.4540687594242844e-02   8.8201965578318234e-02   2.6872308446961490e-01   2.7322736356288363e-01   3.4638219536708786e-01   3.1268005162475626e-01   3.7821707249688880e-01   3.4176590685877228e-01   4.0068815192049434e-01   3.5308304290309017e-01   4.2477671980614862e-01   4.0516976119520287e-01   4.4674695871567549e-01   4.2262822282139945e-01   4.4431928295862383e-01   0.0000000000000000e+00   0.0000000000000000e+00   0.0000000000000000e+00   0.0000000000000000e+00   0.0000000000000000e+00   0.0000000000000000e+00   0.0000000000000000e+00   1.8014407961385230e-04   0.0000000000000000e+00   1.5667902428804759e-03   8.0511961970437449e-04   3.2881502788000244e-03   2.3880689606884716e-03   5.3656022323083814e-03   4.3224271704279844e-03   7.7885659450223250e-03   6.6110086031140481e-03   1.3730130517589648e-01   1.2552418795976722e-01   2.8125964714233298e-01   2.5727841536435880e-01   3.2134279330080318e-01   3.0365920302116234e-01   3.3954550041948484e-01   3.4163255758162892e-01   3.4593742165804037e-01   3.4234191377035428e-01   3.5128188893564793e-01   3.3671022027490644e-01   3.5845805524229202e-01   3.3781832903179265e-01   3.7093884616065453e-01   3.4509497421382451e-01   3.8968053563945559e-01   3.5964745345679588e-01   3.8849690612159532e-01   0.0000000000000000e+00   0.0000000000000000e+00   0.0000000000000000e+00   0.0000000000000000e+00   0.0000000000000000e+00   0.0000000000000000e+00   0.0000000000000000e+00   6.9823061126617395e-04   0.0000000000000000e+00   2.3447640200083336e-03   1.4192296249329432e-03   4.3456338191399822e-03   3.2712212842444031e-03   6.6916683507933930e-03   5.4727244860705996e-03   2.2115135230926319e-01   1.6017324839167041e-01   3.0864522110855236e-01   2.9827949886768285e-01   3.6144711680657765e-01   3.6446948898759607e-01   3.4154712608752652e-01   3.6904271137129335e-01   3.1180324631399930e-01   3.2318609339140714e-01   2.9500874122333681e-01   2.8548764081909889e-01   2.8703079184638713e-01   2.5577133499832216e-01   2.8918500774369565e-01   2.5459051962709378e-01   3.0375603087378261e-01   2.6227438822155541e-01   3.3462807244288456e-01   2.7892225337406362e-01   3.2345952545206041e-01   0.0000000000000000e+00   0.0000000000000000e+00   0.0000000000000000e+00   0.0000000000000000e+00   0.0000000000000000e+00   0.0000000000000000e+00   0.0000000000000000e+00   1.2239992643339160e-03   2.6349910604901109e-04   3.1179808270158870e-03   1.9991607226710448e-03   2.3049150767134700e-02   4.0636639362091644e-03   1.7200683711993336e-01   1.0385335921984507e-01   2.9461659496143638e-01   2.3307651965893897e-01   3.3051825209714053e-01   2.9353722103987673e-01   3.0873802994120492e-01   2.6393439028892696e-01   2.1916356882033927e-01   1.8963011098688387e-01   1.6340001244617200e-01   1.2628770545958662e-01   1.3807146657599489e-01   6.5791517403806857e-02   6.6528348976214652e-02   2.0886898797462874e-02   6.6572627594301659e-02   2.2651161825683247e-02   1.4994521752498918e-01   2.4609744012184340e-02   1.8863428888987360e-01   6.9342658090106674e-02   1.5426786914345170e-01   0.0000000000000000