<?xml version="1.0"?>
<VTKFile type="UnstructuredGrid"  version="0.1"  >
<UnstructuredGrid>
<Piece  NumberOfPoints="614" NumberOfCells="1122">
<Points>
<DataArray  type="Float64"  NumberOfComponents="3"  format="ascii">2.792173913043478 0.2166666666666667 0  2.792173913043478 0.2333333333333333 0  2.808695652173913 0.2333333333333333 0  2.445217391304348 0.2333333333333333 0  2.461739130434782 0.2333333333333333 0  2.461739130434782 0.25 0  2.445217391304348 0.25 0  2.478260869565217 0.2333333333333333 0  2.478260869565217 0.25 0  2.494782608695652 0.2333333333333333 0  2.494782608695652 0.25 0  2.511304347826087 0.2333333333333333 0  2.511304347826087 0.25 0  2.527826086956522 0.2333333333333333 0  2.527826086956522 0.25 0  2.544347826086956 0.2333333333333333 0  2.544347826086956 0.25 0  2.560869565217391 0.2333333333333333 0  2.560869565217391 0.25 0  2.577391304347826 0.2333333333333333 0  2.577391304347826 0.25 0  2.593913043478261 0.2333333333333333 0  2.593913043478261 0.25 0  2.610434782608696 0.2333333333333333 0  2.610434782608696 0.25 0  2.62695652173913 0.2333333333333333 0  2.62695652173913 0.25 0  2.643478260869565 0.2333333333333333 0  2.643478260869565 0.25 0  2.66 0.2333333333333333 0  2.66 0.25 0  2.676521739130435 0.2333333333333333 0  2.676521739130435 0.25 0  2.693043478260869 0.2333333333333333 0  2.693043478260869 0.25 0  2.709565217391304 0.2333333333333333 0  2.709565217391304 0.25 0  2.726086956521739 0.2333333333333333 0  2.726086956521739 0.25 0  2.742608695652174 0.2333333333333333 0  2.742608695652174 0.25 0  2.759130434782609 0.2333333333333333 0  2.759130434782609 0.25 0  2.775652173913044 0.2333333333333333 0  2.775652173913044 0.25 0  2.792173913043478 0.25 0  2.808695652173913 0.25 0  2.825217391304347 0.25 0  2.28 0.25 0  2.296521739130434 0.25 0  2.296521739130434 0.2666666666666667 0  2.28 0.2666666666666667 0  2.31304347826087 0.25 0  2.31304347826087 0.2666666666666667 0  2.329565217391304 0.25 0  2.329565217391304 0.2666666666666667 0  2.346086956521739 0.25 0  2.346086956521739 0.2666666666666667 0  2.362608695652174 0.25 0  2.362608695652174 0.2666666666666667 0  2.379130434782609 0.25 0  2.379130434782609 0.2666666666666667 0  2.395652173913044 0.25 0  2.395652173913044 0.2666666666666667 0  2.412173913043478 0.25 0  2.412173913043478 0.2666666666666667 0  2.428695652173913 0.25 0  2.428695652173913 0.2666666666666667 0  2.445217391304348 0.2666666666666667 0  2.461739130434782 0.2666666666666667 0  2.478260869565217 0.2666666666666667 0  2.494782608695652 0.2666666666666667 0  2.511304347826087 0.2666666666666667 0  2.527826086956522 0.2666666666666667 0  2.544347826086956 0.2666666666666667 0  2.560869565217391 0.2666666666666667 0  2.577391304347826 0.2666666666666667 0  2.593913043478261 0.2666666666666667 0  2.610434782608696 0.2666666666666667 0  2.62695652173913 0.2666666666666667 0  2.643478260869565 0.2666666666666667 0  2.66 0.2666666666666667 0  2.676521739130435 0.2666666666666667 0  2.693043478260869 0.2666666666666667 0  2.709565217391304 0.2666666666666667 0  2.726086956521739 0.2666666666666667 0  2.742608695652174 0.2666666666666667 0  2.759130434782609 0.2666666666666667 0  2.775652173913044 0.2666666666666667 0  2.792173913043478 0.2666666666666667 0  2.808695652173913 0.2666666666666667 0  2.825217391304347 0.2666666666666667 0  2.841739130434783 0.2666666666666667 0  2.24695652173913 0.2666666666666667 0  2.263478260869565 0.2666666666666667 0  2.263478260869565 0.2833333333333333 0  2.28 0.2833333333333333 0  2.296521739130434 0.2833333333333333 0  2.31304347826087 0.2833333333333333 0  2.329565217391304 0.2833333333333333 0  2.346086956521739 0.2833333333333333 0  2.362608695652174 0.2833333333333333 0  2.379130434782609 0.2833333333333333 0  2.395652173913044 0.2833333333333333 0  2.412173913043478 0.2833333333333333 0  2.428695652173913 0.2833333333333333 0  2.445217391304348 0.2833333333333333 0  2.461739130434782 0.2833333333333333 0  2.478260869565217 0.2833333333333333 0  2.494782608695652 0.2833333333333333 0  2.511304347826087 0.2833333333333333 0  2.527826086956522 0.2833333333333333 0  2.544347826086956 0.2833333333333333 0  2.560869565217391 0.2833333333333333 0  2.577391304347826 0.2833333333333333 0  2.593913043478261 0.2833333333333333 0  2.610434782608696 0.2833333333333333 0  2.62695652173913 0.2833333333333333 0  2.643478260869565 0.2833333333333333 0  2.66 0.2833333333333333 0  2.676521739130435 0.2833333333333333 0  2.693043478260869 0.2833333333333333 0  2.709565217391304 0.2833333333333333 0  2.726086956521739 0.2833333333333333 0  2.742608695652174 0.2833333333333333 0  2.759130434782609 0.2833333333333333 0  2.775652173913044 0.2833333333333333 0  2.792173913043478 0.2833333333333333 0  2.808695652173913 0.2833333333333333 0  2.825217391304347 0.2833333333333333 0  2.841739130434783 0.2833333333333333 0  2.858260869565217 0.2833333333333333 0  2.28 0.3 0  2.296521739130434 0.3 0  2.31304347826087 0.3 0  2.329565217391304 0.3 0  2.346086956521739 0.3 0  2.362608695652174 0.3 0  2.379130434782609 0.3 0  2.395652173913044 0.3 0  2.412173913043478 0.3 0  2.428695652173913 0.3 0  2.445217391304348 0.3 0  2.461739130434782 0.3 0  2.478260869565217 0.3 0  2.494782608695652 0.3 0  2.511304347826087 0.3 0  2.527826086956522 0.3 0  2.544347826086956 0.3 0  2.560869565217391 0.3 0  2.577391304347826 0.3 0  2.593913043478261 0.3 0  2.610434782608696 0.3 0  2.62695652173913 0.3 0  2.643478260869565 0.3 0  2.66 0.3 0  2.676521739130435 0.3 0  2.693043478260869 0.3 0  2.709565217391304 0.3 0  2.726086956521739 0.3 0  2.742608695652174 0.3 0  2.759130434782609 0.3 0  2.775652173913044 0.3 0  2.792173913043478 0.3 0  2.808695652173913 0.3 0  2.825217391304347 0.3 0  2.841739130434783 0.3 0  2.858260869565217 0.3 0  2.874782608695652 0.3 0  2.296521739130434 0.3166666666666667 0  2.31304347826087 0.3166666666666667 0  2.329565217391304 0.3166666666666667 0  2.346086956521739 0.3166666666666667 0  2.362608695652174 0.3166666666666667 0  2.379130434782609 0.3166666666666667 0  2.395652173913044 0.3166666666666667 0  2.412173913043478 0.3166666666666667 0  2.428695652173913 0.3166666666666667 0  2.445217391304348 0.3166666666666667 0  2.461739130434782 0.3166666666666667 0  2.478260869565217 0.3166666666666667 0  2.494782608695652 0.3166666666666667 0  2.511304347826087 0.3166666666666667 0  2.527826086956522 0.3166666666666667 0  2.544347826086956 0.3166666666666667 0  2.560869565217391 0.3166666666666667 0  2.577391304347826 0.3166666666666667 0  2.593913043478261 0.3166666666666667 0  2.610434782608696 0.3166666666666667 0  2.62695652173913 0.3166666666666667 0  2.643478260869565 0.3166666666666667 0  2.66 0.3166666666666667 0  2.676521739130435 0.3166666666666667 0  2.693043478260869 0.3166666666666667 0  2.709565217391304 0.3166666666666667 0  2.726086956521739 0.3166666666666667 0  2.742608695652174 0.3166666666666667 0  2.759130434782609 0.3166666666666667 0  2.775652173913044 0.3166666666666667 0  2.792173913043478 0.3166666666666667 0  2.808695652173913 0.3166666666666667 0  2.825217391304347 0.3166666666666667 0  2.841739130434783 0.3166666666666667 0  2.858260869565217 0.3166666666666667 0  2.874782608695652 0.3166666666666667 0  2.891304347826087 0.3166666666666667 0  2.31304347826087 0.3333333333333333 0  2.329565217391304 0.3333333333333333 0  2.346086956521739 0.3333333333333333 0  2.362608695652174 0.3333333333333333 0  2.379130434782609 0.3333333333333333 0  2.395652173913044 0.3333333333333333 0  2.412173913043478 0.3333333333333333 0  2.428695652173913 0.3333333333333333 0  2.445217391304348 0.3333333333333333 0  2.461739130434782 0.3333333333333333 0  2.478260869565217 0.3333333333333333 0  2.494782608695652 0.3333333333333333 0  2.511304347826087 0.3333333333333333 0  2.527826086956522 0.3333333333333333 0  2.544347826086956 0.3333333333333333 0  2.560869565217391 0.3333333333333333 0  2.577391304347826 0.3333333333333333 0  2.593913043478261 0.3333333333333333 0  2.610434782608696 0.3333333333333333 0  2.62695652173913 0.3333333333333333 0  2.643478260869565 0.3333333333333333 0  2.66 0.3333333333333333 0  2.676521739130435 0.3333333333333333 0  2.693043478260869 0.3333333333333333 0  2.709565217391304 0.3333333333333333 0  2.726086956521739 0.3333333333333333 0  2.742608695652174 0.3333333333333333 0  2.759130434782609 0.3333333333333333 0  2.775652173913044 0.3333333333333333 0  2.792173913043478 0.3333333333333333 0  2.808695652173913 0.3333333333333333 0  2.825217391304347 0.3333333333333333 0  2.841739130434783 0.3333333333333333 0  2.858260869565217 0.3333333333333333 0  2.874782608695652 0.3333333333333333 0  2.891304347826087 0.3333333333333333 0  2.907826086956522 0.3333333333333333 0  2.329565217391304 0.35 0  2.346086956521739 0.35 0  2.362608695652174 0.35 0  2.379130434782609 0.35 0  2.395652173913044 0.35 0  2.412173913043478 0.35 0  2.428695652173913 0.35 0  2.445217391304348 0.35 0  2.461739130434782 0.35 0  2.478260869565217 0.35 0  2.494782608695652 0.35 0  2.511304347826087 0.35 0  2.527826086956522 0.35 0  2.544347826086956 0.35 0  2.560869565217391 0.35 0  2.577391304347826 0.35 0  2.593913043478261 0.35 0  2.610434782608696 0.35 0  2.62695652173913 0.35 0  2.643478260869565 0.35 0  2.66 0.35 0  2.676521739130435 0.35 0  2.693043478260869 0.35 0  2.709565217391304 0.35 0  2.726086956521739 0.35 0  2.742608695652174 0.35 0  2.759130434782609 0.35 0  2.775652173913044 0.35 0  2.792173913043478 0.35 0  2.808695652173913 0.35 0  2.825217391304347 0.35 0  2.841739130434783 0.35 0  2.858260869565217 0.35 0  2.874782608695652 0.35 0  2.891304347826087 0.35 0  2.907826086956522 0.35 0  2.924347826086957 0.35 0  2.346086956521739 0.3666666666666666 0  2.362608695652174 0.3666666666666666 0  2.379130434782609 0.3666666666666666 0  2.395652173913044 0.3666666666666666 0  2.412173913043478 0.3666666666666666 0  2.428695652173913 0.3666666666666666 0  2.445217391304348 0.3666666666666666 0  2.461739130434782 0.3
[...]
<PointData  Vectors="Displacement"> 
<DataArray  type="Float64"  Name="Displacement"  NumberOfComponents="3" format="ascii">1.3299165366528553e-05 3.0064633512223568e-03 0.0000000000000000e+00  -9.4572923981722228e-06 3.0054951524661686e-03 0.0000000000000000e+00  -8.5349566113449489e-06 3.0277827824010130e-03 0.0000000000000000e+00  -1.0384299766843288e-05 2.5286762237612206e-03 0.0000000000000000e+00  -9.6433304443159301e-06 2.5514578603366943e-03 0.0000000000000000e+00  -3.1558385166581292e-05 2.5511754958649842e-03 0.0000000000000000e+00  -3.2315705959588820e-05 2.5282476556461818e-03 0.0000000000000000e+00  -9.0733067784296920e-06 2.5740879229836588e-03 0.0000000000000000e+00  -3.1035481919899308e-05 2.5739873924789654e-03 0.0000000000000000e+00  -8.7575571192212219e-06 2.5966680237467991e-03 0.0000000000000000e+00  -3.0763285800877027e-05 2.5967566947626510e-03 0.0000000000000000e+00  -8.6860224872582098e-06 2.6192624242564098e-03 0.0000000000000000e+00  -3.0739630392772601e-05 2.6195064140487842e-03 0.0000000000000000e+00  -8.8335303965988641e-06 2.6418116993000337e-03 0.0000000000000000e+00  -3.0950903325235637e-05 2.6422134337857339e-03 0.0000000000000000e+00  -9.1965587504284816e-06 2.6643290552624036e-03 0.0000000000000000e+00  -3.1394571363190855e-05 2.6648824130500043e-03 0.0000000000000000e+00  -9.7485036547605880e-06 2.6868681206039182e-03 0.0000000000000000e+00  -3.2062786051486256e-05 2.6875326063775661e-03 0.0000000000000000e+00  -1.0416802056189103e-05 2.7094935240764583e-03 0.0000000000000000e+00  -3.2942037075849644e-05 2.7101672706329768e-03 0.0000000000000000e+00  -1.0967059890710596e-05 2.7324274388261060e-03 0.0000000000000000e+00  -3.4053812927457433e-05 2.7326519939191818e-03 0.0000000000000000e+00  -1.0957300786428593e-05 2.7557358383065141e-03 0.0000000000000000e+00  -3.4197387193113595e-05 2.7558668507601134e-03 0.0000000000000000e+00  -1.0955889531412487e-05 2.7790508571621519e-03 0.0000000000000000e+00  -3.4162926524773315e-05 2.7792091599754174e-03 0.0000000000000000e+00  -1.0964871684854993e-05 2.8023319196714184e-03 0.0000000000000000e+00  -3.4162987240091369e-05 2.8024716523077460e-03 0.0000000000000000e+00  -1.0960552697956607e-05 2.8255524198423604e-03 0.0000000000000000e+00  -3.4171214518493791e-05 2.8256214535088038e-03 0.0000000000000000e+00  -1.0945336440091081e-05 2.8486392429117576e-03 0.0000000000000000e+00  -3.4172260157916915e-05 2.8486553679836820e-03 0.0000000000000000e+00  -1.1208999957237144e-05 2.8711267081547435e-03 0.0000000000000000e+00  -3.4207859734123241e-05 2.8713363996593121e-03 0.0000000000000000e+00  -1.1324670315167141e-05 2.8936366106645951e-03 0.0000000000000000e+00  -3.4255954382099787e-05 2.8937317120762652e-03 0.0000000000000000e+00  -1.1293372499431240e-05 2.9160931097239038e-03 0.0000000000000000e+00  -3.4192556824424969e-05 2.9160140964046180e-03 0.0000000000000000e+00  -1.1097576106846789e-05 2.9384933751585092e-03 0.0000000000000000e+00  -3.3974712777360867e-05 2.9382040808984431e-03 0.0000000000000000e+00  -1.0730663298664957e-05 2.9608595799752013e-03 0.0000000000000000e+00  -3.3594834340430766e-05 2.9603573042752307e-03 0.0000000000000000e+00  -1.0187340108478191e-05 2.9831937081157582e-03 0.0000000000000000e+00  -3.3047625078547303e-05 2.9824673714313730e-03 0.0000000000000000e+00  -3.2313447834120306e-05 3.0045227263758266e-03 0.0000000000000000e+00  -3.1373114760011009e-05 3.0265602838850502e-03 0.0000000000000000e+00  -3.0268887965354531e-05 3.0487149928609646e-03 0.0000000000000000e+00  -3.6333066632925651e-05 2.3101486864578842e-03 0.0000000000000000e+00  -3.4827077229590131e-05 2.3273406238738057e-03 0.0000000000000000e+00  -5.6951808244069706e-05 2.3240042892825122e-03 0.0000000000000000e+00  -5.7464807278738931e-05 2.3069239742825403e-03 0.0000000000000000e+00  -3.4342095308579006e-05 2.3451963447245852e-03 0.0000000000000000e+00  -5.6821687105918376e-05 2.3453620595980632e-03 0.0000000000000000e+00  -3.4234426090164939e-05 2.3671271619712412e-03 0.0000000000000000e+00  -5.6735461573927000e-05 2.3671372610874768e-03 0.0000000000000000e+00  -3.4161157771912702e-05 2.3894385853850831e-03 0.0000000000000000e+00  -5.6698665896001390e-05 2.3893378765509972e-03 0.0000000000000000e+00  -3.4124767565600896e-05 2.4121331826620772e-03 0.0000000000000000e+00  -5.6714799509170666e-05 2.4119004206579649e-03 0.0000000000000000e+00  -3.4142270066706858e-05 2.4351463973421952e-03 0.0000000000000000e+00  -5.6787434051196485e-05 2.4348721482050748e-03 0.0000000000000000e+00  -3.4194345994682203e-05 2.4583959542334608e-03 0.0000000000000000e+00  -5.6920281450517979e-05 2.4581199565881025e-03 0.0000000000000000e+00  -3.4234963261476366e-05 2.4817020667998410e-03 0.0000000000000000e+00  -5.5773290319984588e-05 2.4815215906017901e-03 0.0000000000000000e+00  -3.3187000490320728e-05 2.5051816952344642e-03 0.0000000000000000e+00  -5.4755320157385114e-05 2.5047261875558295e-03 0.0000000000000000e+00  -5.3816308512002526e-05 2.5278842599637621e-03 0.0000000000000000e+00  -5.3088923087717826e-05 2.5509388829398029e-03 0.0000000000000000e+00  -5.2600933380413518e-05 2.5739317362905270e-03 0.0000000000000000e+00  -5.2372112591396587e-05 2.5968835942408873e-03 0.0000000000000000e+00  -5.2398973388256583e-05 2.6198017509584384e-03 0.0000000000000000e+00  -5.2672053698018058e-05 2.6426724259984132e-03 0.0000000000000000e+00  -5.3184000291061775e-05 2.6654929938516722e-03 0.0000000000000000e+00  -5.3923084857808475e-05 2.6882647399537225e-03 0.0000000000000000e+00  -5.4871965911439628e-05 2.7109751198415829e-03 0.0000000000000000e+00  -5.6020204783362836e-05 2.7335614728707671e-03 0.0000000000000000e+00  -5.7389828019996056e-05 2.7559819235448615e-03 0.0000000000000000e+00  -5.7302162161006880e-05 2.7793696039909921e-03 0.0000000000000000e+00  -5.7260500093066409e-05 2.8026418784997727e-03 0.0000000000000000e+00  -5.7254026889618290e-05 2.8257345486879634e-03 0.0000000000000000e+00  -5.7256685942339376e-05 2.8486898200474290e-03 0.0000000000000000e+00  -5.7253658753708797e-05 2.8714985181264503e-03 0.0000000000000000e+00  -5.7242957123740153e-05 2.8938366944737666e-03 0.0000000000000000e+00  -5.7161818898420689e-05 2.9159510620909612e-03 0.0000000000000000e+00  -5.6929802675575512e-05 2.9379165767239538e-03 0.0000000000000000e+00  -5.6539946387313990e-05 2.9598663412098701e-03 0.0000000000000000e+00  -5.5995567750390919e-05 2.9817625651828803e-03 0.0000000000000000e+00  -5.5273859575196473e-05 3.0035622876586135e-03 0.0000000000000000e+00  -5.4355306245184591e-05 3.0253246050848150e-03 0.0000000000000000e+00  -5.3348849156235607e-05 3.0473760036520518e-03 0.0000000000000000e+00  -5.2360755902353942e-05 3.0696732772659422e-03 0.0000000000000000e+00  -6.0216622454552509e-05 2.2738479843924346e-03 0.0000000000000000e+00  -5.8908374777732366e-05 2.2902496610670399e-03 0.0000000000000000e+00  -7.9763686923519452e-05 2.2873243740767039e-03 0.0000000000000000e+00  -7.9260720854623290e-05 2.3036732980749610e-03 0.0000000000000000e+00  -7.9042211847669337e-05 2.3242756836706841e-03 0.0000000000000000e+00  -7.8909188649278259e-05 2.3454128111896990e-03 0.0000000000000000e+00  -7.8833325831495623e-05 2.3670715147138597e-03 0.0000000000000000e+00  -7.8820367610006435e-05 2.3891366430995892e-03 0.0000000000000000e+00  -7.8868176414788476e-05 2.4115552874645662e-03 0.0000000000000000e+00  -7.9027438386829524e-05 2.4345119741393658e-03 0.0000000000000000e+00  -7.8907227913984108e-05 2.4569482633419993e-03 0.0000000000000000e+00  -7.7165578787279670e-05 2.4809277618476951e-03 0.0000000000000000e+00  -7.5902507085327944e-05 2.5042827665527206e-03 0.0000000000000000e+00  -7.4922252107139471e-05 2.5275348131364650e-03 0.0000000000000000e+00  -7.4199028925044853e-05 2.5507452083252300e-03 0.0000000000000000e+00  -7.3746338716717104e-05 2.5739176719060015e-03 0.0000000000000000e+00  -7.3564938848447121e-05 2.5970553415131949e-03 0.0000000000000000e+00  -7.3647879551214286e-05 2.6201511713031230e-03 0.0000000000000000e+00  -7.3983427875003657e-05 2.6431904874519292e-03 0.0000000000000000e+00  -7.4558747370183725e-05 2.6661628293911548e-03 0.0000000000000000e+00  -7.5356593156704013e-05 2.6890579342094575e-03 0.0000000000000000e+00  -7.6354278632200138e-05 2.7118570026649679e-03 0.0000000000000000e+00  -7.7527553284378333e-05 2.7345254117844744e-03 0.0000000000000000e+00  -7.8854462638156193e-05 2.7570574177447167e-03 0.0000000000000000e+00  -8.0288872470273912e-05 2.7795545411944231e-03 0.0000000000000000e+00  -8.0203203437881698e-05 2.8028539696960853e-03 0.0000000000000000e+00  -8.0180725799925567e-05 2.8258890001911464e-03 0.0000000000000000e+00  -8.0181737474294249e-05 2.8487731893893620e-03 0.0000000000000000e+00  -8.0198293642383040e-05 2.8715004365613256e-03 0.0000000000000000e+00  -8.0209375488685572e-05 2.8940043054423233e-03 0.0000000000000000e+00  -8.0146282772104100e-05 2.9159415527035795e-03 0.0000000000000000e+00  -7.9940296911856928e-05 2.9376325181249014e-03 0.0000000000000000e+00  -7.9558877555207510e-05 2.9593832169246210e-03 0.0000000000000000e+00  -7.8993430787726218e-05 2.9810878217715652e-03 0.0000000000000000e+00  -7.8260440380503859e-05 3.0026132456009800e-03 0.0000000000000000e+00  -7.7325378727888402e-05 3.0240601234303196e-03 0.0000000000000000e+00  -7.6505079580294611e-05 3.0461079668709875e-03 0.0000000000000000e+00  -7.5880648555720317e-05 3.0686404394314848e-03 0.0000000000000000e+00  -7.5834890225190865e-05 3.0922916706504510e-03 0.0000000000000000e+00  -1.0083980540282897e-04 2.3039889478134062e-03 0.0000000000000000e+00  -1.0064607237795089e-04 2.3243617884834969e-03 0.0000000000000000e+00  -1.0053478062583261e-04 2.3453826113172802e-03 0.0000000000000000e+00  -1.0051540321343948e-04 2.3668977907779594e-03 0.0000000000000000e+00  -1.0058323085600006e-04 2.3888549905387484e-03 0.0000000000000000e+00  -1.0070357427681240e-04 2.4112356970460145e-03 0.0000000000000000e+00  -1.0086544738624935e-04 2.4339642576863764e-03 0.0000000000000000e+00  -9.9125268357061681e-05 2.4570710450020918e-03 0.0000000000000000e+00  -9.7779952892581952e-05 2.4803404734151900e-03 0.0000000000000000e+00  -9.6496329835559587e-05 2.5037926219272440e-03 0.0000000000000000e+00  -9.5517233981673379e-05 2.5271996218023838e-03 0.0000000000000000e+00  -9.4835422308161432e-05 2.5505855247349679e-03 0.0000000000000000e+00  -9.4441357514245069e-05 2.5739498622469052e-03 0.0000000000000000e+00  -9.4327197346481841e-05 2.5972811624810814e-03 0.0000000000000000e+00  -9.4481406453033359e-05 2.6205631307233725e-03 0.0000000000000000e+00  -9.4889888756490419e-05 2.6437762969357824e-03 0.0000000000000000e+00  -9.5536652257626126e-05 2.6669030293551151e-03 0.0000000000000000e+00  -9.6402406813217447e-05 2.6899251335030842e-03 0.0000000000000000e+00  -9.7464360007804316e-05 2.7128199239486732e-03 0.0000000000000000e+00  -9.8697639096554968e-05 2.7355605956526576e-03 0.0000000000000000e+00  -1.0007328572552741e-04 2.7581398141978738e-03 0.0000000000000000e+00  -1.0153553451436121e-04 2.7806060219459586e-03 0.0000000000000000e+00  -1.0294716349154749e-04 2.8030958016984847e-03 0.0000000000000000e+00  -1.0292053083230405e-04 2.8260833374254986e-03 0.0000000000000000e+00  -1.0290315236222552e-04 2.8489097688435602e-03 0.0000000000000000e+00  -1.0292048567612784e-04 2.8715518749454880e-03 0.0000000000000000e+00  -1.0295922452770704e-04 2.8939722157212563e-03 0.0000000000000000e+00  -1.0300213852436186e-04 2.9160796780221517e-03 0.0000000000000000e+00  -1.0296795012251725e-04 2.9373857918537803e-03 0.0000000000000000e+00  -1.0273251217185009e-04 2.9588959297444403e-03 0.0000000000000000e+00  -1.0209936946057071e-04 2.9803957906868834e-03 0.0000000000000000e+00  -1.0115379447006454e-04 3.0017124642832049e-03 0.0000000000000000e+00  -1.0029406724864749e-04 3.0227274657920180e-03 0.0000000000000000e+00  -9.9897814246417913e-05 3.0454375446128611e-03 0.0000000000000000e+00  -9.9773212860140208e-05 3.0686488413559148e-03 0.0000000000000000e+00  -9.9745707904677018e-05 3.0922435277510375e-03 0.0000000000000000e+00  -9.9778645919981312e-05 3.1161174327916205e-03 0.0000000000000000e+00  -1.2166891586944783e-04 2.3243557891617509e-03 0.0000000000000000e+00  -1.2164241403730601e-04 2.3452276131434870e-03 0.0000000000000000e+00  -1.2173140355229042e-04 2.3666204604577291e-03 0.0000000000000000e+00  -1.2188253863163288e-04 2.3885200231394438e-03 0.0000000000000000e+00  -1.2206489340396734e-04 2.4107530614829323e-03 0.0000000000000000e+00  -1.2028136062304333e-04 2.4338297581783610e-03 0.0000000000000000e+00  -1.1882780859508768e-04 2.4566039707564847e-03 0.0000000000000000e+00  -1.1750918643964580e-04 2.4798860180068965e-03 0.0000000000000000e+00  -1.1641096243686541e-04 2.5033513642351481e-03 0.0000000000000000e+00  -1.1555228068277842e-04 2.5269067791150951e-03 0.0000000000000000e+00  -1.1497412470159433e-04 2.5504804197901136e-03 0.0000000000000000e+00  -1.1467944918257551e-04 2.5740451722318495e-03 0.0000000000000000e+00  -1.1466126873211823e-04 2.5975774418136688e-03 0.0000000000000000e+00  -1.1490816144393895e-04 2.6210523299125209e-03 0.0000000000000000e+00  -1.1540572799720979e-04 2.6444445306579869e-03 0.0000000000000000e+00  -1.1613744681527929e-04 2.6677301980717288e-03 0.0000000000000000e+00  -1.1708470344447345e-04 2.6908856669483863e-03 0.0000000000000000e+00  -1.1822761504731769e-04 2.7138856397699545e-03 0.0000000000000000e+00  -1.1954645499081656e-04 2.7367039797109010e-03 0.0000000000000000e+00  -1.2102058760417185e-04 2.7593219938040646e-03 0.0000000000000000e+00  -1.2261672998479026e-04 2.7817325473915174e-03 0.0000000000000000e+00  -1.2424821330321060e-04 2.8039344063466587e-03 0.0000000000000000e+00  -1.2545749274097350e-04 2.8263195181912927e-03 0.0000000000000000e+00  -1.2540493863808606e-04 2.8490936503220020e-03 0.0000000000000000e+00  -1.2539434649842896e-04 2.8716794705228410e-03 0.0000000000000000e+00  -1.2543396812872225e-04 2.8940018719259236e-03 0.0000000000000000e+00  -1.2551751490334111e-04 2.9160089923851952e-03 0.0000000000000000e+00  -1.2576531648371319e-04 2.9374379418097216e-03 0.0000000000000000e+00  -1.2645650184909632e-04 2.9584923593962134e-03 0.0000000000000000e+00  -1.2591652324174874e-04 2.9795758559491283e-03 0.0000000000000000e+00  -1.2447113285056434e-04 3.0008597166003366e-03 0.0000000000000000e+00  -1.2366058963881037e-04 3.0227673795376908e-03 0.0000000000000000e+00  -1.2350711927463715e-04 3.0454615648697362e-03 0.0000000000000000e+00  -1.2339833783328973e-04 3.0685947239501394e-03 0.0000000000000000e+00  -1.2339955907397492e-04 3.0921453191853293e-03 0.0000000000000000e+00  -1.2348170595727839e-04 3.1159884828088950e-03 0.0000000000000000e+00  -1.2360762936046175e-04 3.1400087121133463e-03 0.0000000000000000e+00  -1.4216403998776683e-04 2.3449545705133417e-03 0.0000000000000000e+00  -1.4234584849407992e-04 2.3662615265542561e-03 0.0000000000000000e+00  -1.4249895066189398e-04 2.3878590754344712e-03 0.0000000000000000e+00  -1.4070266475172123e-04 2.4106015933698780e-03 0.0000000000000000e+00  -1.3922596992424550e-04 2.4331626152995526e-03 0.0000000000000000e+00  -1.3782238695244796e-04 2.4561191021426373e-03 0.0000000000000000e+00  -1.3668022742524490e-04 2.4794360055189202e-03 0.0000000000000000e+00  -1.3575485322782574e-04 2.5029998998298583e-03 0.0000000000000000e+00  -1.3507002098899602e-04 2.5266988315371616e-03 0.0000000000000000e+00  -1.3464307824822311e-04 2.5504584807232501e-03 0.0000000000000000e+00  -1.3448366138082605e-04 2.5742263816421638e-03 0.0000000000000000e+00  -1.3458917514947189e-04 2.5979637543428555e-03 0.0000000000000000e+00  -1.3495019004299577e-04 2.6216362182889317e-03 0.0000000000000000e+00  -1.3555333631393052e-04 2.6452117702101155e-03 0.0000000000000000e+00  -1.3638286767936401e-04 2.6686610242793261e-03 0.0000000000000000e+00  -1.3742188180548446e-04 2.6919565462077519e-03 0.0000000000000000e+00  -1.3865423318924969e-04 2.7150720624791055e-03 0.0000000000000000e+00  -1.4006738239969694e-04 2.7379827504168306e-03 0.0000000000000000e+00  -1.4165598885499951e-04 2.7606667576176047e-03 0.0000000000000000e+00  -1.4342751448283492e-04 2.7830971679823754e-03 0.0000000000000000e+00  -1.4542284490597979e-04 2.8051918269303240e-03 0.0000000000000000e+00  -1.4784709663419551e-04 2.8264855701578724e-03 0.0000000000000000e+00  -1.4770617611067880e-04 2.8492952778391349e-03 0.0000000000000000e+00  -1.4759266368089040e-04 2.8718638526004049e-03 0.0000000000000000e+00  -1.4756178467679058e-04 2.8941196821388017e-03 0.0000000000000000e+00  -1.4758684172628083e-04 2.9160115121601511e-03 0.0000000000000000e+00  -1.4764835911285312e-04 2.9374374963326727e-03 0.0000000000000000e+00  -1.4767804192959114e-04 2.9584231561295914e-03 0.0000000000000000e+00  -1.4746953842220643e-04 2.9794451632410950e-03 0.0000000000000000e+00  -1.4707639951802093e-04 3.0008080665733673e-03 0.0000000000000000e+00  -1.4673740420042579e-04 3.0227647444309559e-03 0.0000000000000000e+00  -1.4660936201360891e-04 3.0454105304928204e-03 0.0000000000000000e+00  -1.4662217533451577e-04 3.0684826693715209e-03 0.0000000000000000e+00  -1.4675587485986686e-04 3.0919993828649002e-03 0.0000000000000000e+00  -1.4696435543535462e-04 3.1158349922122122e-03 0.0000000000000000e+00  -1.4715004612468667e-04 3.1398187704600343e-03 0.0000000000000000e+00  -1.4735582144684563e-04 3.1639936135394726e-03 0.0000000000000000e+00  -1.6239557219248802e-04 2.3658065192484383e-03 0.0000000000000000e+00  -1.6053059176517377e-04 2.3877240758173484e-03 0.0000000000000000e+00  -1.5899592493806629e-04 2.4098529853103052e-03 0.0000000000000000e+00  -1.5753311310681144e-04 2.4325300520094653e-03 0.0000000000000000e+00  -1.5632772001448599e-04 2.4555873534815283e-03 0.0000000000000000e+00  -1.5536213658211059e-04 2.4790264777855985e-03 0.0000000000000000e+00  -1.5463203053273311e-04 2.5027246968883847e-03 0.0000000000000000e+00  -1.5413895801893624e-04 2.5265887271735100e-03 0.0000000000000000e+00  -1.5389158285549889e-04 2.5505390248631919e-03 0.0000000000000000e+00  -1.5389487944691459e-04 2.5745126375204203e-03 0.0000000000000000e+00  -1.5414728902161408e-04 2.5984581290032140e-03 0.0000000000000000e+00  -1.5464081206304739e-04 2.6223313216557761e-03 0.0000000000000000e+00  -1.5536291161058501e-04 2.6460929301975215e-03 0.0000000000000000e+00  -1.5629813815749383e-04 2.6697080498483796e-03 0.0000000000000000e+00  -1.5742952592671792e-04 2.6931457947210269e-03 0.0000000000000000e+00  -1.5874007198480580e-04 2.7163786990706705e-03 0.0000000000000000e+00  -1.6021400440596989e-04 2.7393820101647625e-03 0.0000000000000000e+00  -1.6183713510141545e-04 2.7621321487718651e-03 0.0000000000000000e+00  -1.6359607635644589e-04 2.7845978338930191e-03 0.0000000000000000e+00  -1.6548038129006917e-04 2.8067102127208219e-03 0.0000000000000000e+00  -1.6750480278485038e-04 2.8282967530122338e-03 0.0000000000000000e+00  -1.6968796876662957e-04 2.8495012876685491e-03 0.0000000000000000e+00  -1.6949125916176087e-04 2.8720880909946095e-03 0.0000000000000000e+00  -1.6936443053916346e-04 2.8943130059341212e-03 0.0000000000000000e+00  -1.6931516854388313e-04 2.9161163454964442e-03 0.0000000000000000e+00  -1.6926674855983201e-04 2.9374276634627446e-03 0.0000000000000000e+00  -1.6919842228867388e-04 2.9584089778334345e-03 0.0000000000000000e+00  -1.6911998610932968e-04 2.9793945401681591e-03 0.0000000000000000e+00  -1.6904669468111873e-04 3.0007331975322668e-03 0.0000000000000000e+00  -1.6905661581292954e-04 3.0226989832452889e-03 0.0000000000000000e+00  -1.6918396389970275e-04 3.0452954317288557e-03 0.0000000000000000e+00  -1.6941293136072666e-04 3.0683186410536104e-03 0.0000000000000000e+00  -1.6972192976398730e-04 3.0918305880194125e-03 0.0000000000000000e+00  -1.7005414806882028e-04 3.1156213653867680e-03 0.0000000000000000e+00  -1.7037917432458660e-04 3.1395856930379147e-03 0.0000000000000000e+00  -1.6931200073445378e-04 3.1625016628933252e-03 0.0000000000000000e+00  -1.6803523677831630e-04 3.1854236668557882e-03 0.0000000000000000e+0