<?xml version="1.0"?>
<VTKFile type="UnstructuredGrid"  version="0.1"  >
<UnstructuredGrid>
<Piece  NumberOfPoints="608" NumberOfCells="1117">
<Points>
<DataArray  type="Float64"  NumberOfComponents="3"  format="ascii">0.08260869565217391 0 0  0.09913043478260869 0 0  0.09913043478260869 0.01666666666666667 0  0.1156521739130435 0 0  0.1156521739130435 0.01666666666666667 0  0.1321739130434783 0 0  0.1321739130434783 0.01666666666666667 0  0.148695652173913 0 0  0.148695652173913 0.01666666666666667 0  0.1652173913043478 0 0  0.1652173913043478 0.01666666666666667 0  0.1817391304347826 0 0  0.1817391304347826 0.01666666666666667 0  0.1982608695652174 0 0  0.1982608695652174 0.01666666666666667 0  0.2147826086956522 0 0  0.2147826086956522 0.01666666666666667 0  0.2313043478260869 0 0  0.2313043478260869 0.01666666666666667 0  0.2478260869565218 0 0  0.2478260869565218 0.01666666666666667 0  0.2643478260869565 0 0  0.2643478260869565 0.01666666666666667 0  0.2808695652173913 0 0  0.2808695652173913 0.01666666666666667 0  0.2973913043478261 0 0  0.2973913043478261 0.01666666666666667 0  0.3139130434782609 0 0  0.3139130434782609 0.01666666666666667 0  0.3304347826086956 0 0  0.3304347826086956 0.01666666666666667 0  0.3469565217391304 0 0  0.3469565217391304 0.01666666666666667 0  0.3634782608695652 0 0  0.3634782608695652 0.01666666666666667 0  0.3799999999999999 0 0  0.3799999999999999 0.01666666666666667 0  0.3965217391304348 0 0  0.3965217391304348 0.01666666666666667 0  0.4130434782608696 0 0  0.4130434782608696 0.01666666666666667 0  0.4295652173913043 0.01666666666666667 0  0.1156521739130435 0.03333333333333333 0  0.1321739130434783 0.03333333333333333 0  0.148695652173913 0.03333333333333333 0  0.1652173913043478 0.03333333333333333 0  0.1817391304347826 0.03333333333333333 0  0.1982608695652174 0.03333333333333333 0  0.2147826086956522 0.03333333333333333 0  0.2313043478260869 0.03333333333333333 0  0.2478260869565218 0.03333333333333333 0  0.2643478260869565 0.03333333333333333 0  0.2808695652173913 0.03333333333333333 0  0.2973913043478261 0.03333333333333333 0  0.3139130434782609 0.03333333333333333 0  0.3304347826086956 0.03333333333333333 0  0.3469565217391304 0.03333333333333333 0  0.3634782608695652 0.03333333333333333 0  0.3799999999999999 0.03333333333333333 0  0.3965217391304348 0.03333333333333333 0  0.4130434782608696 0.03333333333333333 0  0.4295652173913043 0.03333333333333333 0  0.4460869565217391 0.03333333333333333 0  0.1321739130434783 0.05 0  0.148695652173913 0.05 0  0.1652173913043478 0.05 0  0.1817391304347826 0.05 0  0.1982608695652174 0.05 0  0.2147826086956522 0.05 0  0.2313043478260869 0.05 0  0.2478260869565218 0.05 0  0.2643478260869565 0.05 0  0.2808695652173913 0.05 0  0.2973913043478261 0.05 0  0.3139130434782609 0.05 0  0.3304347826086956 0.05 0  0.3469565217391304 0.05 0  0.3634782608695652 0.05 0  0.3799999999999999 0.05 0  0.3965217391304348 0.05 0  0.4130434782608696 0.05 0  0.4295652173913043 0.05 0  0.4460869565217391 0.05 0  0.4626086956521739 0.05 0  0.148695652173913 0.06666666666666667 0  0.1652173913043478 0.06666666666666667 0  0.1817391304347826 0.06666666666666667 0  0.1982608695652174 0.06666666666666667 0  0.2147826086956522 0.06666666666666667 0  0.2313043478260869 0.06666666666666667 0  0.2478260869565218 0.06666666666666667 0  0.2643478260869565 0.06666666666666667 0  0.2808695652173913 0.06666666666666667 0  0.2973913043478261 0.06666666666666667 0  0.3139130434782609 0.06666666666666667 0  0.3304347826086956 0.06666666666666667 0  0.3469565217391304 0.06666666666666667 0  0.3634782608695652 0.06666666666666667 0  0.3799999999999999 0.06666666666666667 0  0.3965217391304348 0.06666666666666667 0  0.4130434782608696 0.06666666666666667 0  0.4295652173913043 0.06666666666666667 0  0.4460869565217391 0.06666666666666667 0  0.4626086956521739 0.06666666666666667 0  0.4791304347826086 0.06666666666666667 0  0.1652173913043478 0.08333333333333333 0  0.1817391304347826 0.08333333333333333 0  0.1982608695652174 0.08333333333333333 0  0.2147826086956522 0.08333333333333333 0  0.2313043478260869 0.08333333333333333 0  0.2478260869565218 0.08333333333333333 0  0.2643478260869565 0.08333333333333333 0  0.2808695652173913 0.08333333333333333 0  0.2973913043478261 0.08333333333333333 0  0.3139130434782609 0.08333333333333333 0  0.3304347826086956 0.08333333333333333 0  0.3469565217391304 0.08333333333333333 0  0.3634782608695652 0.08333333333333333 0  0.3799999999999999 0.08333333333333333 0  0.3965217391304348 0.08333333333333333 0  0.4130434782608696 0.08333333333333333 0  0.4295652173913043 0.08333333333333333 0  0.4460869565217391 0.08333333333333333 0  0.4626086956521739 0.08333333333333333 0  0.4791304347826086 0.08333333333333333 0  0.4956521739130435 0.08333333333333333 0  0.1817391304347826 0.1 0  0.1982608695652174 0.1 0  0.2147826086956522 0.1 0  0.2313043478260869 0.1 0  0.2478260869565218 0.1 0  0.2643478260869565 0.1 0  0.2808695652173913 0.1 0  0.2973913043478261 0.1 0  0.3139130434782609 0.1 0  0.3304347826086956 0.1 0  0.3469565217391304 0.1 0  0.3634782608695652 0.1 0  0.3799999999999999 0.1 0  0.3965217391304348 0.1 0  0.4130434782608696 0.1 0  0.4295652173913043 0.1 0  0.4460869565217391 0.1 0  0.4626086956521739 0.1 0  0.4791304347826086 0.1 0  0.4956521739130435 0.1 0  0.5121739130434783 0.1 0  0.1982608695652174 0.1166666666666667 0  0.2147826086956522 0.1166666666666667 0  0.2313043478260869 0.1166666666666667 0  0.2478260869565218 0.1166666666666667 0  0.2643478260869565 0.1166666666666667 0  0.2808695652173913 0.1166666666666667 0  0.2973913043478261 0.1166666666666667 0  0.3139130434782609 0.1166666666666667 0  0.3304347826086956 0.1166666666666667 0  0.3469565217391304 0.1166666666666667 0  0.3634782608695652 0.1166666666666667 0  0.3799999999999999 0.1166666666666667 0  0.3965217391304348 0.1166666666666667 0  0.4130434782608696 0.1166666666666667 0  0.4295652173913043 0.1166666666666667 0  0.4460869565217391 0.1166666666666667 0  0.4626086956521739 0.1166666666666667 0  0.4791304347826086 0.1166666666666667 0  0.4956521739130435 0.1166666666666667 0  0.5121739130434783 0.1166666666666667 0  0.528695652173913 0.1166666666666667 0  0.2147826086956522 0.1333333333333333 0  0.2313043478260869 0.1333333333333333 0  0.2478260869565218 0.1333333333333333 0  0.2643478260869565 0.1333333333333333 0  0.2808695652173913 0.1333333333333333 0  0.2973913043478261 0.1333333333333333 0  0.3139130434782609 0.1333333333333333 0  0.3304347826086956 0.1333333333333333 0  0.3469565217391304 0.1333333333333333 0  0.3634782608695652 0.1333333333333333 0  0.3799999999999999 0.1333333333333333 0  0.3965217391304348 0.1333333333333333 0  0.4130434782608696 0.1333333333333333 0  0.4295652173913043 0.1333333333333333 0  0.4460869565217391 0.1333333333333333 0  0.4626086956521739 0.1333333333333333 0  0.4791304347826086 0.1333333333333333 0  0.4956521739130435 0.1333333333333333 0  0.5121739130434783 0.1333333333333333 0  0.528695652173913 0.1333333333333333 0  0.5452173913043478 0.1333333333333333 0  0.2313043478260869 0.15 0  0.2478260869565218 0.15 0  0.2643478260869565 0.15 0  0.2808695652173913 0.15 0  0.2973913043478261 0.15 0  0.3139130434782609 0.15 0  0.3304347826086956 0.15 0  0.3469565217391304 0.15 0  0.3634782608695652 0.15 0  0.3799999999999999 0.15 0  0.3965217391304348 0.15 0  0.4130434782608696 0.15 0  0.4295652173913043 0.15 0  0.4460869565217391 0.15 0  0.4626086956521739 0.15 0  0.4791304347826086 0.15 0  0.4956521739130435 0.15 0  0.5121739130434783 0.15 0  0.528695652173913 0.15 0  0.5452173913043478 0.15 0  0.5617391304347825 0.15 0  0.2478260869565218 0.1666666666666667 0  0.2643478260869565 0.1666666666666667 0  0.2808695652173913 0.1666666666666667 0  0.2973913043478261 0.1666666666666667 0  0.3139130434782609 0.1666666666666667 0  0.3304347826086956 0.1666666666666667 0  0.3469565217391304 0.1666666666666667 0  0.3634782608695652 0.1666666666666667 0  0.3799999999999999 0.1666666666666667 0  0.3965217391304348 0.1666666666666667 0  0.4130434782608696 0.1666666666666667 0  0.4295652173913043 0.1666666666666667 0  0.4460869565217391 0.1666666666666667 0  0.4626086956521739 0.1666666666666667 0  0.4791304347826086 0.1666666666666667 0  0.4956521739130435 0.1666666666666667 0  0.5121739130434783 0.1666666666666667 0  0.528695652173913 0.1666666666666667 0  0.5452173913043478 0.1666666666666667 0  0.5617391304347825 0.1666666666666667 0  0.5782608695652174 0.1666666666666667 0  0.2643478260869565 0.1833333333333333 0  0.2808695652173913 0.1833333333333333 0  0.2973913043478261 0.1833333333333333 0  0.3139130434782609 0.1833333333333333 0  0.3304347826086956 0.1833333333333333 0  0.3469565217391304 0.1833333333333333 0  0.3634782608695652 0.1833333333333333 0  0.3799999999999999 0.1833333333333333 0  0.3965217391304348 0.1833333333333333 0  0.4130434782608696 0.1833333333333333 0  0.4295652173913043 0.1833333333333333 0  0.4460869565217391 0.1833333333333333 0  0.4626086956521739 0.1833333333333333 0  0.4791304347826086 0.1833333333333333 0  0.4956521739130435 0.1833333333333333 0  0.5121739130434783 0.1833333333333333 0  0.528695652173913 0.1833333333333333 0  0.5452173913043478 0.1833333333333333 0  0.5617391304347825 0.1833333333333333 0  0.5782608695652174 0.1833333333333333 0  0.2808695652173913 0.2 0  0.2973913043478261 0.2 0  0.3139130434782609 0.2 0  0.3304347826086956 0.2 0  0.3469565217391304 0.2 0  0.3634782608695652 0.2 0  0.3799999999999999 0.2 0  0.3965217391304348 0.2 0  0.4130434782608696 0.2 0  0.4295652173913043 0.2 0  0.4460869565217391 0.2 0  0.4626086956521739 0.2 0  0.4791304347826086 0.2 0  0.4956521739130435 0.2 0  0.5121739130434783 0.2 0  0.528695652173913 0.2 0  0.5452173913043478 0.2 0  0.5617391304347825 0.2 0  0.5782608695652174 0.2 0  0.2973913043478261 0.2166666666666667 0  0.3139130434782609 0.2166666666666667 0  0.3304347826086956 0.2166666666666667 0  0.3469565217391304 0.2166666666666667 0  0.36347826086956
[...]
<PointData  Vectors="Displacement"> 
<DataArray  type="Float64"  Name="Displacement"  NumberOfComponents="3" format="ascii">3.9194604588841133e-05 4.4772689365931097e-05 0.0000000000000000e+00  4.7304284479713820e-05 6.4400421117440649e-05 0.0000000000000000e+00  2.5061227572667124e-05 6.2529509832749379e-05 0.0000000000000000e+00  5.5647982349191640e-05 8.8254972382818998e-05 0.0000000000000000e+00  2.8669985392172738e-05 8.6339884504824501e-05 0.0000000000000000e+00  6.4281948396275172e-05 1.1712485698815518e-04 0.0000000000000000e+00  3.2039840277667850e-05 1.1515350053668540e-04 0.0000000000000000e+00  7.2882591976880436e-05 1.5194827515421910e-04 0.0000000000000000e+00  3.4939850008800832e-05 1.5014342314531042e-04 0.0000000000000000e+00  8.1321435099564982e-05 1.9265837990043171e-04 0.0000000000000000e+00  3.7312446626617361e-05 1.9094385719845382e-04 0.0000000000000000e+00  8.9907822621365007e-05 2.3985065702130986e-04 0.0000000000000000e+00  3.9267744329831381e-05 2.3758498470952122e-04 0.0000000000000000e+00  9.7823731653997128e-05 2.9470428289951270e-04 0.0000000000000000e+00  4.1856011732897613e-05 2.9262628176650297e-04 0.0000000000000000e+00  1.0455543141244806e-04 3.5421078497973235e-04 0.0000000000000000e+00  4.5149765234559561e-05 3.5221737603674980e-04 0.0000000000000000e+00  1.0999399992635121e-04 4.1606450993892204e-04 0.0000000000000000e+00  4.9299227182850748e-05 4.1422823222331452e-04 0.0000000000000000e+00  1.1391099360408448e-04 4.7770188090638416e-04 0.0000000000000000e+00  5.4158174246699059e-05 4.7658333185514356e-04 0.0000000000000000e+00  1.1674736910847887e-04 5.3751554553445866e-04 0.0000000000000000e+00  5.7904826451837989e-05 5.3653273212624173e-04 0.0000000000000000e+00  1.1893782375270243e-04 5.9606176569839385e-04 0.0000000000000000e+00  6.1174978635350228e-05 5.9520332407509043e-04 0.0000000000000000e+00  1.2056675011539166e-04 6.5350185850373177e-04 0.0000000000000000e+00  6.4030012098633519e-05 6.5275712213399813e-04 0.0000000000000000e+00  1.2158861917934136e-04 7.0965439105325574e-04 0.0000000000000000e+00  6.6611091113798462e-05 7.0907368383869266e-04 0.0000000000000000e+00  1.2198083475897384e-04 7.6393444991558284e-04 0.0000000000000000e+00  6.8984432062839000e-05 7.6358667289992872e-04 0.0000000000000000e+00  1.2186605474449396e-04 8.1585705371674711e-04 0.0000000000000000e+00  7.0966835587523067e-05 8.1570834299813896e-04 0.0000000000000000e+00  1.2158467183202748e-04 8.6529954876896954e-04 0.0000000000000000e+00  7.2585743501378083e-05 8.6517593544791741e-04 0.0000000000000000e+00  1.2130572299741815e-04 9.1289920492751788e-04 0.0000000000000000e+00  7.3889881450286876e-05 9.1282406360538107e-04 0.0000000000000000e+00  1.2110263550420072e-04 9.5898571685462805e-04 0.0000000000000000e+00  7.4918970896490473e-05 9.5895714984851681e-04 0.0000000000000000e+00  1.2114881792421565e-04 1.0037651665983781e-03 0.0000000000000000e+00  7.5792405389668702e-05 1.0037101809306631e-03 0.0000000000000000e+00  7.6709814205931382e-05 1.0473903834148728e-03 0.0000000000000000e+00  2.6090757004729689e-06 8.5948093372888900e-05 0.0000000000000000e+00  1.0872870256230383e-06 1.1461474571227223e-04 0.0000000000000000e+00  -1.2970329807889197e-06 1.4979844743219853e-04 0.0000000000000000e+00  -3.4819840429693625e-06 1.9032906407733137e-04 0.0000000000000000e+00  -5.4933016919473224e-06 2.3622169978604457e-04 0.0000000000000000e+00  -1.2042040288967377e-05 2.9163768218142054e-04 0.0000000000000000e+00  -1.3968675803934170e-05 3.5105974544723094e-04 0.0000000000000000e+00  -1.2160285257144676e-05 4.1274097206950696e-04 0.0000000000000000e+00  -6.9920128098934380e-06 4.7480921550793878e-04 0.0000000000000000e+00  6.8080824949215629e-07 5.3547214484698342e-04 0.0000000000000000e+00  4.7284252901790657e-06 5.9418063304818671e-04 0.0000000000000000e+00  8.1291622177566830e-06 6.5155821658559397e-04 0.0000000000000000e+00  1.2095653261701727e-05 7.0795712853967201e-04 0.0000000000000000e+00  1.6340416878741599e-05 7.6247482889043108e-04 0.0000000000000000e+00  2.1050091747291703e-05 8.1519768428934582e-04 0.0000000000000000e+00  2.4348405270395681e-05 8.6458776512185302e-04 0.0000000000000000e+00  2.6986491755965249e-05 9.1240513262363801e-04 0.0000000000000000e+00  2.8997280350856656e-05 9.5881240140231142e-04 0.0000000000000000e+00  3.0387545636608452e-05 1.0037294511861382e-03 0.0000000000000000e+00  3.1346694774150464e-05 1.0473510456449964e-03 0.0000000000000000e+00  3.2173562110587628e-05 1.0902492145793295e-03 0.0000000000000000e+00  -2.4024479120174035e-05 1.1453379082612661e-04 0.0000000000000000e+00  -3.3247059226762040e-05 1.5013219026099273e-04 0.0000000000000000e+00  -4.4345533321328136e-05 1.9105509460757799e-04 0.0000000000000000e+00  -3.7959698773516548e-05 2.4126408273099324e-04 0.0000000000000000e+00  -3.7652849028167891e-05 2.9430245395887855e-04 0.0000000000000000e+00  -3.8207439712761240e-05 3.4963131115042307e-04 0.0000000000000000e+00  -3.8057901463073044e-05 4.0726648013777355e-04 0.0000000000000000e+00  -3.7293246614749438e-05 4.6608284388196581e-04 0.0000000000000000e+00  -3.7176555447264861e-05 5.2534082709964453e-04 0.0000000000000000e+00  -4.0339119383184593e-05 5.8582987105267319e-04 0.0000000000000000e+00  -4.9646305866120184e-05 6.5040081977761751e-04 0.0000000000000000e+00  -4.4401698820615867e-05 7.0660621642556446e-04 0.0000000000000000e+00  -3.6317616247682127e-05 7.6096634549272413e-04 0.0000000000000000e+00  -2.9052446805047874e-05 8.1348639783790919e-04 0.0000000000000000e+00  -2.1697383516515992e-05 8.6389582441994534e-04 0.0000000000000000e+00  -1.8809263112153927e-05 9.1166369320637788e-04 0.0000000000000000e+00  -1.5737743951645844e-05 9.5869862318644712e-04 0.0000000000000000e+00  -1.3906917388738228e-05 1.0040389043143548e-03 0.0000000000000000e+00  -1.3013095853022567e-05 1.0476954262338472e-03 0.0000000000000000e+00  -1.2636715517332164e-05 1.0900514505880234e-03 0.0000000000000000e+00  -1.2135234592466485e-05 1.1322016937167739e-03 0.0000000000000000e+00  -4.5760236585518289e-05 1.5885177834232676e-04 0.0000000000000000e+00  -5.0909011111501249e-05 1.9899773484523476e-04 0.0000000000000000e+00  -5.4287036427064209e-05 2.4325652513593437e-04 0.0000000000000000e+00  -5.6159724978985213e-05 2.9430287120057298e-04 0.0000000000000000e+00  -5.7954437468772349e-05 3.4752775611874279e-04 0.0000000000000000e+00  -5.9508197136853784e-05 4.0263368770674513e-04 0.0000000000000000e+00  -6.0794619834803398e-05 4.5918811059422401e-04 0.0000000000000000e+00  -6.2183939078577796e-05 5.1687241731485567e-04 0.0000000000000000e+00  -6.3999307950899083e-05 5.7588132386368921e-04 0.0000000000000000e+00  -6.5481843331389807e-05 6.3593342659846390e-04 0.0000000000000000e+00  -6.4285352637628813e-05 6.8953045418359941e-04 0.0000000000000000e+00  -6.1905707682626825e-05 7.4291877784346896e-04 0.0000000000000000e+00  -6.0116925506842190e-05 7.9624379604899796e-04 0.0000000000000000e+00  -6.0762287273639534e-05 8.4998437695921701e-04 0.0000000000000000e+00  -6.5656214331607187e-05 9.1061835711754027e-04 0.0000000000000000e+00  -5.8461984048694454e-05 9.5855939065308236e-04 0.0000000000000000e+00  -5.5928994303790931e-05 1.0047967880428134e-03 0.0000000000000000e+00  -5.5101370071172952e-05 1.0486032954015239e-03 0.0000000000000000e+00  -5.5017858693586368e-05 1.0902255627821605e-03 0.0000000000000000e+00  -5.4965442831064610e-05 1.1301122908525625e-03 0.0000000000000000e+00  -5.4143138484813989e-05 1.1722748492508787e-03 0.0000000000000000e+00  -6.0753385574614587e-05 2.0415743317819991e-04 0.0000000000000000e+00  -6.5964246903812358e-05 2.4709771535031576e-04 0.0000000000000000e+00  -7.0483447963436035e-05 2.9488286660503150e-04 0.0000000000000000e+00  -7.4040729570138192e-05 3.4568524856631400e-04 0.0000000000000000e+00  -7.7044459982524539e-05 3.9850796733739935e-04 0.0000000000000000e+00  -7.9611536209868710e-05 4.5287138317043238e-04 0.0000000000000000e+00  -8.1821390186395971e-05 5.0845117098986521e-04 0.0000000000000000e+00  -8.3617626089901734e-05 5.6496308443434973e-04 0.0000000000000000e+00  -8.4616608025793076e-05 6.2144869139079165e-04 0.0000000000000000e+00  -8.4632406736478508e-05 6.7473179512075421e-04 0.0000000000000000e+00  -8.4781406844238298e-05 7.2760174011968855e-04 0.0000000000000000e+00  -8.5364556465868018e-05 7.8098215979599040e-04 0.0000000000000000e+00  -8.6861875103596420e-05 8.3549310362476164e-04 0.0000000000000000e+00  -8.9032856075711537e-05 8.9273644404486911e-04 0.0000000000000000e+00  -9.0767775859668605e-05 9.4484704826861313e-04 0.0000000000000000e+00  -9.5580729333781590e-05 1.0060593387796815e-03 0.0000000000000000e+00  -9.4344814646213772e-05 1.0501324542522359e-03 0.0000000000000000e+00  -9.3827430662643725e-05 1.0910210057454080e-03 0.0000000000000000e+00  -9.3570633582250358e-05 1.1281686970151194e-03 0.0000000000000000e+00  -9.2715008459788936e-05 1.1625573132768253e-03 0.0000000000000000e+00  -8.7853768198023382e-05 1.2003811002227588e-03 0.0000000000000000e+00  -7.6095140156913577e-05 2.5037095632462255e-04 0.0000000000000000e+00  -8.2012355449298779e-05 2.9583179089930740e-04 0.0000000000000000e+00  -8.7089619353657979e-05 3.4418565604397050e-04 0.0000000000000000e+00  -9.1406518833198462e-05 3.9471782935686904e-04 0.0000000000000000e+00  -9.5090016147272537e-05 4.4686943175422137e-04 0.0000000000000000e+00  -9.8193947020876594e-05 5.0022216053649928e-04 0.0000000000000000e+00  -1.0069014587834411e-04 5.5432287828269364e-04 0.0000000000000000e+00  -1.0251044309691558e-04 6.0834405323182631e-04 0.0000000000000000e+00  -1.0386948475352410e-04 6.6097138452563963e-04 0.0000000000000000e+00  -1.0548167797862297e-04 7.1345077594084090e-04 0.0000000000000000e+00  -1.0753149944272483e-04 7.6649401509084562e-04 0.0000000000000000e+00  -1.1011196381623651e-04 8.2064619428061619e-04 0.0000000000000000e+00  -1.1314779617752539e-04 8.7631703693594122e-04 0.0000000000000000e+00  -1.1674923754875367e-04 9.3123269584020733e-04 0.0000000000000000e+00  -1.2217574459248023e-04 9.9129738992913882e-04 0.0000000000000000e+00  -1.2880853639472622e-04 1.0531234904382241e-03 0.0000000000000000e+00  -1.2827474821104507e-04 1.0929059823963009e-03 0.0000000000000000e+00  -1.2789807469247485e-04 1.1272211561348308e-03 0.0000000000000000e+00  -1.2733584042453133e-04 1.1578996406787724e-03 0.0000000000000000e+00  -1.2345783582392591e-04 1.1893818227628992e-03 0.0000000000000000e+00  -1.1696733768146968e-04 1.2210676016793916e-03 0.0000000000000000e+00  -9.1598147619810676e-05 2.9664005015598687e-04 0.0000000000000000e+00  -9.7798374214920595e-05 3.4282920150277574e-04 0.0000000000000000e+00  -1.0323597623334747e-04 3.9116579367025762e-04 0.0000000000000000e+00  -1.0796209224299470e-04 4.4115680699166132e-04 0.0000000000000000e+00  -1.1203296363719596e-04 4.9235983619949912e-04 0.0000000000000000e+00  -1.1548853486705492e-04 5.4431342152718300e-04 0.0000000000000000e+00  -1.1840852037252995e-04 5.9642386803428725e-04 0.0000000000000000e+00  -1.2106089276706216e-04 6.4812294924323360e-04 0.0000000000000000e+00  -1.2389841597151510e-04 6.9998302097660397e-04 0.0000000000000000e+00  -1.2709501176805889e-04 7.5246383780697319e-04 0.0000000000000000e+00  -1.3070125162692234e-04 8.0596291875670593e-04 0.0000000000000000e+00  -1.3468529439541256e-04 8.6071657167620440e-04 0.0000000000000000e+00  -1.3909591408812404e-04 9.1634648973363696e-04 0.0000000000000000e+00  -1.4409729395849531e-04 9.7551292698422299e-04 0.0000000000000000e+00  -1.4885826014906083e-04 1.0374787115517170e-03 0.0000000000000000e+00  -1.5722540436479128e-04 1.0958650757581887e-03 0.0000000000000000e+00  -1.5720501204122289e-04 1.1276254460530742e-03 0.0000000000000000e+00  -1.5709417212386611e-04 1.1555593738617222e-03 0.0000000000000000e+00  -1.5643491712255509e-04 1.1784160116252653e-03 0.0000000000000000e+00  -1.4942632026225248e-04 1.2065327012101095e-03 0.0000000000000000e+00  -1.4153752917985373e-04 1.2372846639907267e-03 0.0000000000000000e+00  -1.0662968034493249e-04 3.4142765094606246e-04 0.0000000000000000e+00  -1.1299243775002148e-04 3.8774011329897076e-04 0.0000000000000000e+00  -1.1865604471315416e-04 4.3569770924565572e-04 0.0000000000000000e+00  -1.2367199479941594e-04 4.8489796265433898e-04 0.0000000000000000e+00  -1.2811734879520297e-04 5.3493723550218034e-04 0.0000000000000000e+00  -1.3212540095180908e-04 5.8540302067266385e-04 0.0000000000000000e+00  -1.3594124685012445e-04 6.3602243162639541e-04 0.0000000000000000e+00  -1.3987887975444455e-04 6.8706429953095801e-04 0.0000000000000000e+00  -1.4411791411581478e-04 7.3882057879212551e-04 0.0000000000000000e+00  -1.4876584433304137e-04 7.9158744746337187e-04 0.0000000000000000e+00  -1.5391688142883634e-04 8.4561885623739275e-04 0.0000000000000000e+00  -1.5976877009545642e-04 9.0115710929323026e-04 0.0000000000000000e+00  -1.6665146276409468e-04 9.5972985376127824e-04 0.0000000000000000e+00  -1.7468683474696156e-04 1.0224963375508578e-03 0.0000000000000000e+00  -1.8326523347700241e-04 1.0974576132079443e-03 0.0000000000000000e+00  -1.8186104375795590e-04 1.1291749797231188e-03 0.0000000000000000e+00  -1.8107783236126834e-04 1.1549821924908726e-03 0.0000000000000000e+00  -1.8080483102814738e-04 1.1754152175712687e-03 0.0000000000000000e+00  -1.8106121067682467e-04 1.1902267555696324e-03 0.0000000000000000e+00  -1.7108876115964013e-04 1.2210543175062156e-03 0.0000000000000000e+00  -1.6088723417151063e-04 1.2457607979430719e-03 0.0000000000000000e+00  -1.2096615593953836e-04 3.8433373349870150e-04 0.0000000000000000e+00  -1.2743419211055565e-04 4.3041377761681712e-04 0.0000000000000000e+00  -1.3329786884383238e-04 4.7776909666053050e-04 0.0000000000000000e+00  -1.3864370470458687e-04 5.2606935721853372e-04 0.0000000000000000e+00  -1.4361091439523386e-04 5.7502287831279197e-04 0.0000000000000000e+00  -1.4840500863636281e-04 6.2447522068095321e-04 0.0000000000000000e+00  -1.5325814493337338e-04 6.7455265818529774e-04 0.0000000000000000e+00  -1.5833682130675047e-04 7.2544359601743580e-04 0.0000000000000000e+00  -1.6376329930941388e-04 7.7737503968308545e-04 0.0000000000000000e+00  -1.6964402191750036e-04 8.3060170934580880e-04 0.0000000000000000e+00  -1.7610061187453818e-04 8.8548842731187428e-04 0.0000000000000000e+00  -1.8319718765180660e-04 9.4294457193673346e-04 0.0000000000000000e+00  -1.9062563070459883e-04 1.0038008828912887e-03 0.0000000000000000e+00  -1.9725382769466952e-04 1.0697314552672629e-03 0.0000000000000000e+00  -2.0132053221810398e-04 1.1307748817065263e-03 0.0000000000000000e+00  -1.9999887423434668e-04 1.1557494616170625e-03 0.0000000000000000e+00  -1.9895155585440713e-04 1.1748429676081645e-03 0.0000000000000000e+00  -1.9852699751573991e-04 1.1890039866703957e-03 0.0000000000000000e+00  -1.9508142463034025e-04 1.2064803658270731e-03 0.0000000000000000e+00  -1.8568067391535356e-04 1.2248645853899338e-03 0.0000000000000000e+00  -1.7415767891630849e-04 1.2476886085478569e-03 0.0000000000000000e+00  -1.3446291673809097e-04 4.2520242300282050e-04 0.0000000000000000e+00  -1.4103467713224132e-04 4.7085447787620989e-04 0.0000000000000000e+00  -1.4713193341178861e-04 5.1754187600550408e-04 0.0000000000000000e+00  -1.5287745535733235e-04 5.6505009988019211e-04 0.0000000000000000e+00  -1.5843387354849570e-04 6.1327327527488840e-04 0.0000000000000000e+00  -1.6397344421948702e-04 6.6226503693258263e-04 0.0000000000000000e+00  -1.6963130968485437e-04 7.1214401470619021e-04 0.0000000000000000e+00  -1.7550643285824314e-04 7.6307520935762997e-04 0.0000000000000000e+00  -1.8166438063267387e-04 8.1526515818778126e-04 0.0000000000000000e+00  -1.8812622509456090e-04 8.6900156245093522e-04 0.0000000000000000e+00  -1.9479025053784082e-04 9.2475001628487385e-04 0.0000000000000000e+00  -2.0125903052711325e-04 9.8278326976279119e-04 0.0000000000000000e+00  -2.0672821057175097e-04 1.0428973424303877e-03 0.0000000000000000e+00  -2.1043754676345415e-04 1.1006915551462818e-03 0.0000000000000000e+00  -2.1329617223046063e-04 1.1569908784246116e-03 0.0000000000000000e+00  -2.1189567662253743e-04 1.1753000845261396e-03 0.0000000000000000e+00  -2.1059947340906971e-04 1.1886689921012568e-03 0.0000000000000000e+00  -2.0999275025682077e-04 1.1976399938749863e-03 0.0000000000000000e+00  -2.0948565291059820e-04 1.2021332473478236e-03 0.0000000000000000e+00  -1.9620312410333353e-04 1.2238536204515261e-03 0.0000000000000000e+00  -1.8330445785309386e-04 1.2438547551986887e-03 0.0000000000000000e+00  -1.4698129874617767e-04 4.6401899796866551e-04 0.0000000000000000e+00  -1.5365869139317666e-04 5.0918209913827187e-04 0.0000000000000000e+00  -1.5998703276203448e-04 5.5527702433929172e-04 0.0000000000000000e+00  -1.6608717195558392e-04 6.0221749087130991e-04 0.0000000000000000e+00  -1.7208133597051867e-04 6.5001469031115489e-04 0.0000000000000000e+00  -1.7806562442447649e-04 6.9873407005253681e-04 0.0000000000000000e+00  -1.8410195259228019e-04 7.4847974241262088e-04 0.0000000000000000e+00  -1.9020919731370356e-04 7.9938429823152182e-04 0.0000000000000000e+00  -1.9634278292599320e-04 8.5160819106105349e-04 0.0000000000000000e+00  -2.0234388572772769e-04 9.0531603194392947e-04 0.0000000000000000e+00  -2.0787219631155694e-04 9.6043021115071753e-04 0.0000000000000000e+00  -2.1243444153207453e-04 1.0163194145237943e-03 0.0000000000000000e+00  -2.1570877066650761e-04 1.0708274647481793e-03 0.0000000000000000e+00  -2.1805904693869834e-04 1.1239540167597584e-03 0.0000000000000000e+00  -2.1901036969742397e-04 1.1765762345847782e-03 0.0000000000000000e+00  -2.1766507238023088e-04 1.1887784175521165e-03 0.0000000000000000e+00  -2.1539536517698032e-04 1.1979470145035266e-03 0.0000000000000000e+00  -2.1390597625288080e-04 1.2013537572176190e-03 0.0000000000000000e+00  -2.1330095593574528e-04 1.2004102994600538e-03 0.0000000000000000e+00  -2.0158216727328462e-04 1.2177382178297311e-03 0.0000000000000000e+00  -1.5831715176718199e-04 5.0083200529526541e-04 0.0000000000000000e+00  -1.6504129099225009e-04 5.4552626385365502e-04 0.0000000000000000e+00  -1.7148451170076375e-04 5.9113492037328973e-04 0.0000000000000000e+00  -1.7772584176461401e-04 6.3764015429531120e-04 0.0000000000000000e+00  -1.8382254689019024e-04 6.8506380893459604e-04 0.0000000000000000e+00  -1.8979943265374935e-04 7.3345289632211473e-04 0.0000000000000000e+00  -1.9563721201106379e-04 7.8286368857946674e-04 0.0000000000000000e+00  -2.0125508937623502e-04 8.3333995988333037e-04 0.0000000000000000e+00  -2.0648439391775656e-04 8.8485822580814397e-04 0.0000000000000000e+00  -2.1105258053485981e-04 9.3716972630985261e-04 0.0000000000000000e+00  -2.1463762602719774e-04 9.8961854048961362e-04 0.0000000000000000e+00  -2.1704859829421843e-04 1.0409453558437242e-03 0.0000000000000000e+00  -2.1837606691456644e-04 1.0906280733150426e-03 0.0000000000000000e+00  -2.1846129672549927e-04 1.1377384446542736e-03 0.0000000000000000e+00  -2.1744864775710180e-04 1.1770259690111998e-03 0.0000000000000000e+00  -2.1477838617798837e-04 1.1980348828333099e-03 0.0000000000000000e+00  -2.1184456392140419e-04 1.2016102144060063e-03 0.0000000000000000e+00  -2.1017049471409784e-04 1.2008023898839298e-03 0.0000000000000000e+00  -2.0871396539593473e-04 1.1979952408206760e-03 0.0000000000000000e+00  -1.6816943523388305e-04 5.3565430856351739e-04 0.0000000000000000e+00  -1.7478488643813103e-04 5.7988763158608179e-04 0.0000000000000000e+00  -1.8110329183745384e-04 6.2501779930211826e-04 0.0000000000000000e+00  -1.8714743475910711e-04 6.7103040227781130e-04 0.0000000000000000e+00  -1.9291045794546835e-04 7.1792268130439459e-04 0.0000000000000000e+00  -1.9834536904125591e-04 7.6568478175071623e-04 0.0000000000000000e+00  -2.0335299339504256e-04 8.1427117688124520e-04 0.0000000000000000e+00  -2.0777030602008500e-04 8.6354726675256046e-04 0.0000000000000000e+00  -2.1137293865934855e-04 9.1319152617828480e-04 0.0000000000000000e+00  -2.1391789549725495e-04 9.6260379340162904e-04 0.0000000000000000e+00  -2.1522994589453785e-04 1.0108896924810712e-03 0.000