<?xml version="1.0"?>
<VTKFile type="UnstructuredGrid"  version="0.1"  >
<UnstructuredGrid>
<Piece  NumberOfPoints="639" NumberOfCells="1175">
<Points>
<DataArray  type="Float64"  NumberOfComponents="3"  format="ascii">1.321739130434783 0 0  1.338260869565217 0 0  1.338260869565217 0.01666666666666667 0  1.354782608695652 0 0  1.354782608695652 0.01666666666666667 0  1.371304347826087 0 0  1.371304347826087 0.01666666666666667 0  1.387826086956522 0 0  1.387826086956522 0.01666666666666667 0  1.404347826086957 0 0  1.404347826086957 0.01666666666666667 0  1.420869565217391 0 0  1.420869565217391 0.01666666666666667 0  1.437391304347826 0 0  1.437391304347826 0.01666666666666667 0  1.453913043478261 0 0  1.453913043478261 0.01666666666666667 0  1.470434782608696 0 0  1.470434782608696 0.01666666666666667 0  1.486956521739131 0 0  1.486956521739131 0.01666666666666667 0  1.503478260869565 0 0  1.503478260869565 0.01666666666666667 0  1.52 0 0  1.52 0.01666666666666667 0  1.536521739130435 0 0  1.536521739130435 0.01666666666666667 0  1.55304347826087 0 0  1.55304347826087 0.01666666666666667 0  1.569565217391304 0 0  1.569565217391304 0.01666666666666667 0  1.586086956521739 0 0  1.586086956521739 0.01666666666666667 0  1.602608695652174 0 0  1.602608695652174 0.01666666666666667 0  1.619130434782609 0 0  1.619130434782609 0.01666666666666667 0  1.635652173913043 0 0  1.635652173913043 0.01666666666666667 0  1.652173913043478 0 0  1.652173913043478 0.01666666666666667 0  1.668695652173913 0 0  1.668695652173913 0.01666666666666667 0  1.685217391304348 0 0  1.685217391304348 0.01666666666666667 0  1.701739130434782 0 0  1.701739130434782 0.01666666666666667 0  1.718260869565217 0 0  1.718260869565217 0.01666666666666667 0  1.734782608695652 0 0  1.734782608695652 0.01666666666666667 0  1.751304347826087 0 0  1.751304347826087 0.01666666666666667 0  1.767826086956522 0 0  1.767826086956522 0.01666666666666667 0  1.784347826086957 0 0  1.784347826086957 0.01666666666666667 0  1.800869565217391 0 0  1.800869565217391 0.01666666666666667 0  1.817391304347826 0 0  1.817391304347826 0.01666666666666667 0  1.833913043478261 0 0  1.833913043478261 0.01666666666666667 0  1.850434782608696 0 0  1.850434782608696 0.01666666666666667 0  1.86695652173913 0 0  1.86695652173913 0.01666666666666667 0  1.883478260869565 0 0  1.883478260869565 0.01666666666666667 0  1.354782608695652 0.03333333333333333 0  1.371304347826087 0.03333333333333333 0  1.387826086956522 0.03333333333333333 0  1.404347826086957 0.03333333333333333 0  1.420869565217391 0.03333333333333333 0  1.437391304347826 0.03333333333333333 0  1.453913043478261 0.03333333333333333 0  1.470434782608696 0.03333333333333333 0  1.486956521739131 0.03333333333333333 0  1.503478260869565 0.03333333333333333 0  1.52 0.03333333333333333 0  1.536521739130435 0.03333333333333333 0  1.55304347826087 0.03333333333333333 0  1.569565217391304 0.03333333333333333 0  1.586086956521739 0.03333333333333333 0  1.602608695652174 0.03333333333333333 0  1.619130434782609 0.03333333333333333 0  1.635652173913043 0.03333333333333333 0  1.652173913043478 0.03333333333333333 0  1.668695652173913 0.03333333333333333 0  1.685217391304348 0.03333333333333333 0  1.701739130434782 0.03333333333333333 0  1.718260869565217 0.03333333333333333 0  1.734782608695652 0.03333333333333333 0  1.751304347826087 0.03333333333333333 0  1.767826086956522 0.03333333333333333 0  1.784347826086957 0.03333333333333333 0  1.800869565217391 0.03333333333333333 0  1.817391304347826 0.03333333333333333 0  1.833913043478261 0.03333333333333333 0  1.850434782608696 0.03333333333333333 0  1.86695652173913 0.03333333333333333 0  1.883478260869565 0.03333333333333333 0  1.371304347826087 0.05 0  1.387826086956522 0.05 0  1.404347826086957 0.05 0  1.420869565217391 0.05 0  1.437391304347826 0.05 0  1.453913043478261 0.05 0  1.470434782608696 0.05 0  1.486956521739131 0.05 0  1.503478260869565 0.05 0  1.52 0.05 0  1.536521739130435 0.05 0  1.55304347826087 0.05 0  1.569565217391304 0.05 0  1.586086956521739 0.05 0  1.602608695652174 0.05 0  1.619130434782609 0.05 0  1.635652173913043 0.05 0  1.652173913043478 0.05 0  1.668695652173913 0.05 0  1.685217391304348 0.05 0  1.701739130434782 0.05 0  1.718260869565217 0.05 0  1.734782608695652 0.05 0  1.751304347826087 0.05 0  1.767826086956522 0.05 0  1.784347826086957 0.05 0  1.800869565217391 0.05 0  1.817391304347826 0.05 0  1.833913043478261 0.05 0  1.850434782608696 0.05 0  1.86695652173913 0.05 0  1.883478260869565 0.05 0  1.387826086956522 0.06666666666666667 0  1.404347826086957 0.06666666666666667 0  1.420869565217391 0.06666666666666667 0  1.437391304347826 0.06666666666666667 0  1.453913043478261 0.06666666666666667 0  1.470434782608696 0.06666666666666667 0  1.486956521739131 0.06666666666666667 0  1.503478260869565 0.06666666666666667 0  1.52 0.06666666666666667 0  1.536521739130435 0.06666666666666667 0  1.55304347826087 0.06666666666666667 0  1.569565217391304 0.06666666666666667 0  1.586086956521739 0.06666666666666667 0  1.602608695652174 0.06666666666666667 0  1.619130434782609 0.06666666666666667 0  1.635652173913043 0.06666666666666667 0  1.652173913043478 0.06666666666666667 0  1.668695652173913 0.06666666666666667 0  1.685217391304348 0.06666666666666667 0  1.701739130434782 0.06666666666666667 0  1.718260869565217 0.06666666666666667 0  1.734782608695652 0.06666666666666667 0  1.751304347826087 0.06666666666666667 0  1.767826086956522 0.06666666666666667 0  1.784347826086957 0.06666666666666667 0  1.800869565217391 0.06666666666666667 0  1.817391304347826 0.06666666666666667 0  1.833913043478261 0.06666666666666667 0  1.850434782608696 0.06666666666666667 0  1.86695652173913 0.06666666666666667 0  1.883478260869565 0.06666666666666667 0  1.404347826086957 0.08333333333333333 0  1.420869565217391 0.08333333333333333 0  1.437391304347826 0.08333333333333333 0  1.453913043478261 0.08333333333333333 0  1.470434782608696 0.08333333333333333 0  1.486956521739131 0.08333333333333333 0  1.503478260869565 0.08333333333333333 0  1.52 0.08333333333333333 0  1.536521739130435 0.08333333333333333 0  1.55304347826087 0.08333333333333333 0  1.569565217391304 0.08333333333333333 0  1.586086956521739 0.08333333333333333 0  1.602608695652174 0.08333333333333333 0  1.619130434782609 0.08333333333333333 0  1.635652173913043 0.08333333333333333 0  1.652173913043478 0.08333333333333333 0  1.668695652173913 0.08333333333333333 0  1.685217391304348 0.08333333333333333 0  1.701739130434782 0.08333333333333333 0  1.718260869565217 0.08333333333333333 0  1.734782608695652 0.08333333333333333 0  1.751304347826087 0.08333333333333333 0  1.767826086956522 0.08333333333333333 0  1.784347826086957 0.08333333333333333 0  1.800869565217391 0.08333333333333333 0  1.817391304347826 0.08333333333333333 0  1.833913043478261 0.08333333333333333 0  1.850434782608696 0.08333333333333333 0  1.86695652173913 0.08333333333333333 0  1.883478260869565 0.08333333333333333 0  1.420869565217391 0.1 0  1.437391304347826 0.1 0  1.453913043478261 0.1 0  1.470434782608696 0.1 0  1.486956521739131 0.1 0  1.503478260869565 0.1 0  1.52 0.1 0  1.536521739130435 0.1 0  1.55304347826087 0.1 0  1.569565217391304 0.1 0  1.586086956521739 0.1 0  1.602608695652174 0.1 0  1.619130434782609 0.1 0  1.635652173913043 0.1 0  1.652173913043478 0.1 0  1.668695652173913 0.1 0  1.685217391304348 0.1 0  1.701739130434782 0.1 0  1.718260869565217 0.1 0  1.734782608695652 0.1 0  1.751304347826087 0.1 0  1.767826086956522 0.1 0  1.784347826086957 0.1 0  1.800869565217391 0.1 0  1.817391304347826 0.1 0  1.833913043478261 0.1 0  1.850434782608696 0.1 0  1.86695652173913 0.1 0  1.883478260869565 0.1 0  1.437391304347826 0.1166666666666667 0  1.453913043478261 0.1166666666666667 0  1.470434782608696 0.1166666666666667 0  1.486956521739131 0.1166666666666667 0  1.503478260869565 0.1166666666666667 0  1.52 0.1166666666666667 0  1.536521739130435 0.1166666666666667 0  1.55304347826087 0.1166666666666667 0  1.569565217391304 0.1166666666666667 0  1.586086956521739 0.1166666666666667 0  1.602608695652174 0.1166666666666667 0  1.619130434782609 0.1166666666666667 0  1.635652173913043 0.1166666666666667 0  1.652173913043478 0.1166666666666667 0  1.668695652173913 0.1166666666666667 0  1.685217391304348 0.1166666666666667 0  1.701739130434782 0.1166666666666667 0  1.718260869565217 0.1166666666666667 0  1.734782608695652 0.1166666666666667 0  1.751304347826087 0.1166666666666667 0  1.767826086956522 0.1166666666666667 0  1.784347826086957 0.1166666666666667 0  1.800869565217391 0.1166666666666667 0  1.817391304347826 0.1166666666666667 0  1.833913043478261 0.1166666666666667 0  1.850434782608696 0.1166666666666667 0  1.86695652173913 0.1166666666666667 0  1.883478260869565 0.1166666666666667 0  1.453913043478261 0.1333333333333333 0  1.470434782608696 0.1333333333333333 0  1.486956521739131 0.1333333333333333 0  1.503478260869565 0.1333333333333333 0  1.52 0.1333333333333333 0  1.536521739130435 0.1333333333333333 0  1.55304347826087 0.1333333333333333 0  1.569565217391304 0.1333333333333333 0  1.586086956521739 0.1333333333333333 0  1.602608695652174 0.1333333333333333 0  1.619130434782609 0.1333333333333333 0  1.635652173913043 0.1333333333333333 0  1.652173913043478 0.1333333333333333 0  1.668695652173913 0.1333333333333333 0  1.685217391304348 0.1333333333333333 0  1.701739130434782 0.1333333333333333 0  1.718260869565217 0.1333333333333333 0  1.734782608695652 0.1333333333333333 0  1.751304347826087 0.1333333333333333 0  1.767826086956522 0.1333333333333333 0  1.784347826086957 0.1333333333333333 0  1.800869565217391 0.1333333333333333 0  1.817391304347826 0.1333333333333333 0  1.833913043478261 0.1333333333333333 0  1.850434782608696 0.1333333333333333 0  1.86695652173913 0.1333333333333333 0  1.883478260869565 0.1333333333333333 0  1.470434782608696 0.15 0  1.486956521739131 0.15 0  1.503478260869565 0.15 0  1.52 0.15 0  1.5365217391304
[...]
<CellData  Scalars="rho_bar"> 
<DataArray  type="Float64"  Name="rho_bar"  format="ascii">9.4730841640663699e-01   9.4657088459940408e-01   9.3304503434508768e-01   9.4383682089331933e-01   9.3059714456206810e-01   9.3859583824172654e-01   9.2506601971686886e-01   9.3100335927949329e-01   9.1623345190841221e-01   9.2308355974629763e-01   9.0562551771032673e-01   9.2031124245426876e-01   8.9860387728987967e-01   9.3009031866725655e-01   9.0456214503949151e-01   9.5289156640456496e-01   9.2897334364004658e-01   9.7634818356149522e-01   9.6114140198584397e-01   9.9008324177769702e-01   9.8359025744611417e-01   9.9564851719690373e-01   9.9341477399468558e-01   9.9753395202981565e-01   9.9675899842215065e-01   9.9797871989263298e-01   9.9769633294034099e-01   9.9757238100834233e-01   9.9753083450590219e-01   9.9598961928969831e-01   9.9619515351453602e-01   9.9186186453380032e-01   9.9243451719935216e-01   9.8236911805975702e-01   9.8316589098851370e-01   9.6455526904262490e-01   9.6393187063096863e-01   9.4035539024088266e-01   9.3411841160092479e-01   9.2015142621701473e-01   9.0399188153040355e-01   9.1636601325417566e-01   8.9066424250888199e-01   9.3179087569682240e-01   9.0320186173383077e-01   9.5605017888513710e-01   9.3327163360019605e-01   9.7606094302777680e-01   9.6275211937580607e-01   9.8739968084811258e-01   9.8117386153145270e-01   9.9237548597066438e-01   9.8974735704383454e-01   9.9371986211028707e-01   9.9272816423184018e-01   9.9213725559135457e-01   9.9221351776538258e-01   9.8524998650065543e-01   9.8692782856436101e-01   9.6570111448881690e-01   9.7005034130856260e-01   9.2601202400664728e-01   9.2969650090823674e-01   8.7757333887957223e-01   8.6866402225542294e-01   8.4527062172347089e-01   8.1746818541003896e-01   8.2397707051024027e-01   8.1670396044406834e-01   6.8920871306085918e-01   8.0154072393581088e-01   6.7174772149433182e-01   7.7956793998595597e-01   6.4373445143636410e-01   7.5724745642295976e-01   6.1210367269493027e-01   7.4983286495706292e-01   5.9336888330230275e-01   7.7817720020483405e-01   6.1360445825077281e-01   8.4996542149048993e-01   6.9830251649348729e-01   9.3059167710844126e-01   8.3306493307960205e-01   9.7611122126575556e-01   9.3890462811403463e-01   9.9151009997582107e-01   9.8130876177251858e-01   9.9572812002643385e-01   9.9266809307838100e-01   9.9648533405979156e-01   9.9512393749512973e-01   9.9526164282403029e-01   9.9421721201163504e-01   9.9051365409033687e-01   9.8885807803295656e-01   9.7621105915919193e-01   9.7105275410056424e-01   9.3951317929808464e-01   9.2034114178081838e-01   8.7123384867544162e-01   8.1601269578353564e-01   7.8922782308790018e-01   6.8258647768989011e-01   7.3056726660735904e-01   5.7975117933820663e-01   7.2276551667875000e-01   5.4346871312782841e-01   7.7221697825709112e-01   5.8460610939535140e-01   8.5667512389928602e-01   6.9774048971523406e-01   9.3050572925713071e-01   8.3584124038269392e-01   9.6985292686741886e-01   9.3042795755224905e-01   9.8497388781580830e-01   9.7084108023234583e-01   9.8906051616793411e-01   9.8344471367967645e-01   9.8642973123562683e-01   9.8375619535770453e-01   9.7153934916353424e-01   9.7047140096139450e-01   9.2215042241435297e-01   9.1930857614834893e-01   8.1482592730735481e-01   7.8676112442112767e-01   6.8926742251608630e-01   6.0343127937406660e-01   6.0844961281083965e-01   4.7099041368371464e-01   2.9898207701644464e-01   2.8392066278106659e-01   1.3557679207593681e-01   2.6246518903483285e-01   1.2685579462645413e-01   2.4347917416270493e-01   1.1814573837152249e-01   2.4167390130775659e-01   1.1632891911958179e-01   2.8028925201925986e-01   1.3307940866975160e-01   4.0058686989679043e-01   1.9469919949599307e-01   6.3731229470518846e-01   3.6504219957519041e-01   8.7267300150962201e-01   6.7481048905050334e-01   9.6585274177299640e-01   9.0416158886671161e-01   9.8647750001440482e-01   9.7105439773566005e-01   9.8879597578687073e-01   9.8228689828010007e-01   9.8065760729084273e-01   9.7417813771875905e-01   9.4571256941460213e-01   9.2981774036587439e-01   8.3637933460154779e-01   7.8293644100608839e-01   6.3391684149240535e-01   5.1965996723859087e-01   4.1945775481282765e-01   2.8482567421169752e-01   2.7116018070799036e-01   1.5403708699824536e-01   2.0111764961249728e-01   9.8888021960408801e-02   1.9020668244656883e-01   8.3485345607164210e-02   2.3647252370752853e-01   9.6389960608432884e-02   3.6656759720241888e-01   1.5255866267062598e-01   5.9763447850954032e-01   3.0441869047927023e-01   8.2939899150599283e-01   5.8865624429910213e-01   9.3829353805678151e-01   8.4027197281834476e-01   9.6704656180882709e-01   9.3622668198443193e-01   9.6368277211775233e-01   9.5132991675616818e-01   9.1771192169350035e-01   9.1399142932603317e-01   7.5673663562852922e-01   7.5801223230424508e-01   4.8376751401163676e-01   4.5454568980331306e-01   2.7212930776305067e-01   2.1278704465712828e-01   1.7314796951292807e-01   1.0965536703979820e-01   2.1318768111758712e-02   2.1090718725907932e-02   9.7226119767284194e-03   2.1663742561160642e-02   1.0305584103046585e-02   2.4961856396905298e-02   1.1985166332898270e-02   3.5705206281030875e-02   1.6731433846821134e-02   6.9881261653663762e-02   3.0998039681005295e-02   1.8890889418845189e-01   8.1682536244917309e-02   5.1425666766762412e-01   2.7199177395478291e-01   8.4269767678795415e-01   6.5910934800478094e-01   9.4439356095202254e-01   8.8730691146919605e-01   9.5104665327044025e-01   9.2750752374644618e-01   8.8856369589811313e-01   8.6633818826903630e-01   6.7318070055950707e-01   6.2841705935200165e-01   3.5306552865444163e-01   2.8968982100954671e-01   1.3131268532654727e-01   9.2757914806121250e-02   4.7989323794490883e-02   3.0045227016624491e-02   2.2828876922174855e-02   1.2910891372553909e-02   1.5233791278377186e-02   7.8146658942489997e-03   1.4301527323023101e-02   6.5984491690146141e-03   1.9055174708979151e-02   7.7622666530790651e-03   3.6887431081522391e-02   1.3046103489378723e-02   1.0243521084236014e-01   3.2641205645458464e-02   3.2533547358653037e-01   1.1850805470578610e-01   6.9625617030993803e-01   4.1380578910828025e-01   8.8004288503477113e-01   7.5780936511679975e-01   9.0119202686477684e-01   8.6746206295271766e-01   8.0102193679302858e-01   8.1467125689772280e-01   4.9677393116452534e-01   5.5936633429055060e-01   1.8853028355898277e-01   2.1659389762023698e-01   6.4181187140325044e-02   6.3509677396716313e-02   2.8320481357469354e-02   2.3180914332821063e-02   2.3955326147366580e-03   2.9708268627827716e-03   1.7587220505573189e-03   4.2252468983128453e-03   2.5109478559063813e-03   7.4675693029200591e-03   4.3464654728240107e-03   1.7889551715317833e-02   9.9223105011648893e-03   6.1134139241419076e-02   3.2027287094291590e-02   2.4880758391563640e-01   1.3549674003584200e-01   6.3083644560584373e-01   4.5467757041431872e-01   8.3967551637282667e-01   7.6106103955254789e-01   8.3484673960799682e-01   8.1197880403639577e-01   6.0335849365723282e-01   6.2201239473038072e-01   2.3335563102251644e-01   2.4622208943645402e-01   5.3930287321260005e-02   5.0404864189004819e-02   1.3247089644681851e-02   1.0862266884224699e-02   4.6542252705115044e-03   3.4425275221708230e-03   2.3769411045004261e-03   1.6102470264452128e-03   1.6931214195089878e-03   1.0541636778883463e-03   1.6378203786840547e-03   9.3022805532929427e-04   2.1630420841309483e-03   1.1000783471057205e-03   4.0631010641198886e-03   1.7975379710251050e-03   1.1690019939324604e-02   4.3615610934048341e-03   5.4250039380632477e-02   1.7485582466190048e-02   2.8259666972000419e-01   1.0864684727588150e-01   6.7232198635420770e-01   4.5798131666001646e-01   8.0609848239545423e-01   7.4734187304244526e-01   7.0773205733147382e-01   7.5253870784198362e-01   3.7091547449957157e-01   5.0337883594357047e-01   1.0221159123616520e-01   1.6423091852093077e-01   2.6018004227585507e-02   3.7159994453860916e-02   8.9568696397512339e-03   1.0541123538783540e-02   1.0263973623560350e-03   1.7794433314610098e-03   1.2839388135693415e-03   3.8741141131740614e-03   2.7621969321536357e-03   1.1449447180480903e-02   7.9184929714151819e-03   4.7248081001210210e-02   3.1500989613530733e-02   2.1219100048060138e-01   1.4497940806953757e-01   5.5357932594832060e-01   4.5087619115903088e-01   7.4916651551733604e-01   7.0917225225853431e-01   6.7721067799770307e-01   7.0094020697434412e-01   3.1719899487762615e-01   3.9945920420828168e-01   6.0611520141629890e-02   8.2202851929346940e-02   9.4491174916954447e-03   1.0710099949958841e-02   2.2748127430670313e-03   2.1813687998146077e-03   8.7247151698212171e-04   7.4452352219921754e-04   4.8483434208299611e-04   3.7828348471921044e-04   3.6455396182444788e-04   2.6252303501528328e-04   3.5982379883912761e-04   2.3838589412453602e-04   4.6893600912923799e-04   2.8160739752932870e-04   8.4408281267923555e-04   4.4659768727615360e-04   2.3090461141223881e-03   1.0296900729764669e-03   1.1118939639140868e-02   3.9953149994939865e-03   8.8678175787178473e-02   2.9166292977744829e-02   4.3207517010827062e-01   2.2456006358589670e-01   7.1951406464641499e-01   6.1572850125557499e-01   7.1080840078175433e-01   7.4234987501646676e-01   4.3457322177702412e-01   5.9609359042712773e-01   1.2260594317452522e-01   2.4476655779906192e-01   2.5351137610075413e-02   5.2177990983844270e-02   6.7682541669359898e-03   1.1478464633653530e-02   1.6811845486650874e-03   4.6637631119964976e-03   3.9548439274136021e-03   1.7480716849817633e-02   1.4552413882960927e-02   8.1251500849728917e-02   6.6105977598828802e-02   3.0672815894710675e-01   2.5695356768762145e-01   6.0948551338927026e-01   5.6412448297791429e-01   7.1400163435825481e-01   7.1143540137042016e-01   5.3578996576732474e-01   5.9617158717013485e-01   1.6503165816751231e-01   2.3873110750392657e-01   2.0451738763606300e-02   3.1020052451163217e-02   2.7240338892338188e-03   3.4054685254772893e-03   6.6739063131266438e-04   7.0242629751028781e-04   2.7190724435442292e-04   2.5450813074725707e-04   1.5919397615480948e-04   1.3643611576911183e-04   1.2355050745336535e-04   9.8022013954453049e-05   1.2309822291518428e-04   9.0314924689995543e-05   1.5811871217495275e-04   1.0599551980373513e-04   2.7298636281042089e-04   1.6273828330380918e-04   6.9678101412965464e-04   3.5120092128890950e-04   3.1215459885223207e-03   1.2294358183124797e-03   2.7467612406717197e-02   8.4368052191744636e-03   2.2988430351034633e-01   8.7822682319604134e-02   6.1159632203423542e-01   4.3487603589338897e-01   7.3401236843833673e-01   7.0708215627564330e-01   5.9843494762352045e-01   7.0414247721133649e-01   2.5966898933771787e-01   4.5563702490361846e-01   5.5975502311530805e-02   1.4015182892169395e-01   1.1617958375323352e-02   2.7926840844515903e-02   1.2237387404877250e-02   5.2464993078289147e-02   5.0863834387337867e-02   2.0424400853924626e-01   1.9223766231363215e-01   4.8895530437992085e-01   4.6396143592862549e-01   6.8487828764632297e-01   6.7229066785437441e-01   6.5851870094663811e-01   6.7407650367169270e-01   3.6741591703710691e-01   4.3047102858951181e-01   7.5786263004615662e-02   1.0999771247748329e-01   7.6324272921698818e-03   1.1124398899467397e-02   1.0256460427824601e-03   1.2814374149126258e-03   2.6824928156720025e-04   2.9154709776076988e-04   1.1592231031281351e-04   1.1392100867064265e-04   7.0518322272724123e-05   6.3980411451963287e-05   5.5788408657465034e-05   4.7074875197759449e-05   5.5709240325902040e-05   4.3659578166826647e-05   7.0308011929418016e-05   5.0669472524425606e-05   1.1572693421383666e-04   7.4890565168980839e-05   2.6841769538319310e-04   1.4852820284595974e-04   1.0207089581933902e-03   4.4158975720608190e-04   7.6705227454978604e-03   2.3621578714496331e-03   8.2851376452709277e-02   2.3447416054367350e-02   4.0802844480686334e-01   1.9974324211315100e-01   6.8516506902572838e-01   5.5984682195699065e-01   7.0658476857072727e-01   7.1536646420144312e-01   5.0792004704661675e-01   6.5175465206519101e-01   1.9230659937442460e-01   3.8203079382360877e-01   4.1736180078563036e-02   1.1607811402869687e-01   1.8975776550753487e-01   4.3706504632537363e-01   4.3907512789310671e-01   6.4375413484462352e-01   6.3521595097528705e-01   6.7704839482116641e-01   6.7253248612035477e-01   4.9443132953633956e-01   5.1107284303842970e-01   1.7632186639384873e-01   2.0670040297791395e-01   2.5084402725522131e-02   3.3028193614100289e-02   2.5915129484487781e-03   3.3712634045365308e-03   4.2074280015553617e-04   4.9770970093204693e-04   1.2678884428116713e-04   1.3684488952125234e-04   5.9272352971492384e-05   5.9337875226307517e-05   3.7479539809825215e-05   3.5091748764446137e-05   3.0097862907875617e-05   2.6384708451892172e-05   3.0006706352687709e-05   2.4547757275197418e-05   3.7086296486780836e-05   2.8083581543021870e-05   5.7838963284039609e-05   3.9800029401164756e-05   1.1968077857680794e-04   7.1926494659450623e-05   3.6538775916499341e-04   1.7758676823034515e-04   1.9471240690186293e-03   6.7931574284807743e-04   1.8173014506716316e-02   4.6021783846080652e-03   1.4952794850055376e-01   4.4573871567368958e-02   4.7678445201789244e-01   2.6001438210582684e-01   6.7602776227996653e-01   5.6285937065995928e-01   6.6676139574129845e-01   6.8155984935379277e-01   4.7384113364250485e-01   6.1742039626267897e-01   1.9703083178011963e-01   3.8611783881699990e-01   6.2372984497594575e-01   6.4964247460929159e-01   6.3629888266242274e-01   5.0615363009453651e-01   4.9087114163897205e-01   2.3237683962466349e-01   2.3242879285724496e-01   4.8668402950003332e-02   5.3075708971388261e-02   5.9301914023793300e-03   6.8995355409048149e-03   8.0180776994519774e-04   9.3106131424501506e-04   1.7924195120546508e-04   1.9922251501405225e-04   6.5493902201083852e-05   6.9148904607486557e-05   3.3690141372837981e-05   3.3795026592846222e-05   2.2245442061169017e-05   2.1155858836939943e-05   1.8134681230174999e-05   1.6272164392897305e-05   1.8024562605753010e-05   1.5175542265272015e-05   2.1778112193318276e-05   1.7093253417439286e-05   3.2136144566040134e-05   2.3225713600433764e-05   5.9293337581929021e-05   3.8405524981935320e-05   1.4517883690634388e-04   7.9891249305050845e-05   5.2451130888382701e-04   2.2410579326727912e-04   3.0969215333128382e-03   9.3625833777623117e-04   2.5294177440157318e-02   6.0957752339756777e-03   1.5576521680766853e-01   4.6907809874813779e-02   4.3558447163557734e-01   2.2559939497791393e-01   6.2535362162083608e-01   4.9250466706850343e-01   6.4091766490107149e-01   6.3340432652696188e-01   5.0274306737600605e-01   6.1627811143409950e-01   4.4285734415320610e-01   2.0931362823365512e-01   1.8698565259646477e-01   5.3116900700342876e-02   4.9236982843958686e-02   8.3308557316296977e-03   8.3353902025046864e-03   1.2503598488900151e-03   1.3225297725751733e-03   2.5838811554866414e-04   2.7727427236486015e-04   8.1534030247590032e-05   8.6365703011036352e-05   3.6127604584437426e-05   3.7299142112417059e-05   2.0481762962150051e-05   2.0449095689154310e-05   1.4149011456039750e-05   1.3548595906530229e-05   1.1720978136962846e-05   1.0669755966810380e-05   1.1614282635896034e-05   9.9783877113444629e-06   1.3721897230861937e-05   1.1070049589201231e-05   1.9228608897924787e-05   1.4467242275820991e-05   3.2063035545872338e-05   2.2149936990944985e-05   6.5213111704999160e-05   4.0067962915856169e-05   1.7065093530148261e-04   8.8340889185699705e-05   6.1763975048377681e-04   2.5037854057703463e-04   3.1984628801432634e-03   9.6690539263451930e-04   2.0546780821528710e-02   5.1329733554640374e-03   1.1119735616201920e-01   3.1680888677250538e-02   3.3865177469069879e-01   1.5138053236141660e-01   5.5825881036071190e-01   3.9173353809545114e-01   6.3444721144017791e-01   5.8477152959325751e-01   3.7246352301555451e-02   7.0933887461086557e-03   6.3268903434803387e-03   1.3279705521895839e-03   1.2703751585370821e-03   3.0737824201402430e-04   3.0873588630116124e-04   9.7089952406008773e-05   9.9568128788288986e-05   4.0648591590477175e-05   4.1729467785287448e-05   2.1151996829785767e-05   2.1461967516895305e-05   1.3075746637651722e-05   1.2977198390217848e-05   9.4309519090804731e-06   9.0564215150625623e-06   7.9424796362933385e-06   7.3000642984768089e-06   7.8513897533986242e-06   6.8506354846100133e-06   9.0857063461801411e-06   7.4955532648534540e-06   1.2168987441205004e-05   9.4659650986469798e-06   1.8682842806000376e-05   1.3605543532413917e-05   3.2987655260081947e-05   2.2118036996542691e-05   6.8437555816514771e-05   4.1023260151986565e-05   1.7317233067496918e-04   8.8965379837432421e-05   5.5727265416786597e-04   2.3383670728203851e-04   2.3385695475907297e-03   7.7388383042742404e-04   1.2246714762306619e-02   3.3097500479103239e-03   6.4658283001191752e-02   1.7504609089913449e-02   2.3763723427733993e-01   8.9379542049406985e-02   4.8802456379582371e-01   2.9461157568228363e-01   1.0186316612479727e-03   2.8541440037894029e-04   2.7118313200265396e-04   1.0036490869494147e-04   9.8744783403343798e-05   4.3409034982893024e-05   4.3513238928652465e-05   2.2247813582091825e-05   2.2426727164852073e-05   1.3087262973759021e-05   1.3127447569144637e-05   8.6918705793113404e-06   8.5872011894685808e-06   6.5180846807334956e-06   6.2715525765971575e-06   5.5795944596802956e-06   5.1692038504608535e-06   5.5071483479025004e-06   4.8710304838074047e-06   6.2557281483288674e-06   5.2644556742484501e-06   8.0627112625690735e-06   6.4538684208104855e-06   1.1597934375902013e-05   8.8147364696979777e-06   1.8464782222597379e-05   1.3228313582941282e-05   3.2679124343768595e-05   2.1742296484248058e-05   6.5394010510021717e-05   3.9484511708038189e-05   1.5205376921337011e-04   8.0811364248969863e-05   4.2570794518118158e-04   1.9202979281283378e-04   1.4977357748694555e-03   5.5161660251628675e-04   6.7940323221090844e-03   2.0144706823051134e-03   3.5961799698992533e-02   9.6035775516380012e-03   1.6080961795824469e-01   5.2211344314932656e-02   9.0504192618716753e-05   4.2345462076526343e-05   4.1427876923882666e-05   2.2477249552801253e-05   2.2312691423181668e-05   1.3231752619337121e-05   1.3217778521768745e-05   8.5260944348937353e-06   8.5018914913700429e-06   6.0032284831348668e-06   5.9220314328829801e-06   4.6617460781847280e-06   4.5017199885257708e-06   4.0553207383410870e-06   3.7915711762982758e-06   3.9999656429371508e-06   3.5904051233585114e-06   4.4684766133808847e-06   3.8377212147800739e-06   5.5719703787088447e-06   4.5820099246824124e-06   7.6103081950402747e-06   5.9985840447014083e-06   1.1229948546020206e-05   8.4682338511470963e-06   1.7828897087274748e-05   1.2776747712076029e-05   3.0637056951542418e-05   2.0613691253178738e-05   5.7898450244089855e-05   3.5916053932716223e-05   1.2360399520975249e-04   6.8924680545288125e-05   3.1041912301866647e-04   1.5035859516730220e-04   9.7030612171145883e-04   3.9073482014233182e-04   3.9969661589538260e-03   1.2879850131743461e-03   2.1120685993424097e-02   5.7007126393586920e-03   2.1538900035880514e-05   1.3063231320249980e-05   1.2945344680407230e-05   8.4706463408299057e-06   8.4450661226850044e-06   5.8519587970159839e-06   5.8348272774228594e-06   4.3292542013035957e-06   4.2850105358631785e-06   3.4736810445272718e-06   3.3815804956800561e-06   3.0725528829908765e-06   2.9123204154993955e-06   3.0311608821825793e-06   2.7743765400982364e-06   3.3332357335080724e-06   2.9344643189103829e-06   4.0329209476384636e-06   3.4160038186237683e-06   5.2726269848410772e-06   4.3053023145243174e-06   7.3373986208009458e-06   5.7800665642055471e-06   1.0782217640385639e-05   8.1772025662912570e-06   1.6733157300802640e-05   1.2146568686771909e-05   2.7655779047041082e-05   1.9018114303164532e-05   4.9540947669087860e-05   3.1760898943831016e-05   9.9025297644373322e-05   5.7795191427012423e-05   2.3077250550216185e-04   1.1848828493775982e-04   6.6630713561184184e-04   2.8727830134235945e-04   2.5526265745262596e-03   8.7837715356734293e-04   3.6172769936920336e-03   8.36403339