<?xml version="1.0"?>
<VTKFile type="UnstructuredGrid"  version="0.1"  >
<UnstructuredGrid>
<Piece  NumberOfPoints="650" NumberOfCells="1199">
<Points>
<DataArray  type="Float64"  NumberOfComponents="3"  format="ascii">3.238260869565217 0 0  3.254782608695652 0 0  3.254782608695652 0.01666666666666667 0  3.238260869565217 0.01666666666666667 0  3.271304347826087 0 0  3.271304347826087 0.01666666666666667 0  3.287826086956521 0 0  3.287826086956521 0.01666666666666667 0  3.304347826086957 0 0  3.304347826086957 0.01666666666666667 0  3.320869565217391 0 0  3.320869565217391 0.01666666666666667 0  3.337391304347826 0 0  3.337391304347826 0.01666666666666667 0  3.353913043478261 0 0  3.353913043478261 0.01666666666666667 0  3.370434782608696 0 0  3.370434782608696 0.01666666666666667 0  3.386956521739131 0 0  3.386956521739131 0.01666666666666667 0  3.403478260869565 0 0  3.403478260869565 0.01666666666666667 0  3.419999999999999 0 0  3.419999999999999 0.01666666666666667 0  3.436521739130435 0 0  3.436521739130435 0.01666666666666667 0  3.453043478260869 0 0  3.453043478260869 0.01666666666666667 0  3.469565217391304 0 0  3.469565217391304 0.01666666666666667 0  3.486086956521739 0 0  3.486086956521739 0.01666666666666667 0  3.502608695652174 0 0  3.502608695652174 0.01666666666666667 0  3.519130434782609 0 0  3.519130434782609 0.01666666666666667 0  3.535652173913043 0 0  3.535652173913043 0.01666666666666667 0  3.552173913043478 0 0  3.552173913043478 0.01666666666666667 0  3.568695652173913 0 0  3.568695652173913 0.01666666666666667 0  3.585217391304347 0 0  3.585217391304347 0.01666666666666667 0  3.601739130434782 0 0  3.601739130434782 0.01666666666666667 0  3.618260869565217 0 0  3.618260869565217 0.01666666666666667 0  3.634782608695652 0 0  3.634782608695652 0.01666666666666667 0  3.651304347826087 0 0  3.651304347826087 0.01666666666666667 0  3.667826086956521 0 0  3.667826086956521 0.01666666666666667 0  3.684347826086956 0 0  3.684347826086956 0.01666666666666667 0  3.700869565217391 0 0  3.700869565217391 0.01666666666666667 0  3.717391304347826 0 0  3.717391304347826 0.01666666666666667 0  3.733913043478261 0 0  3.733913043478261 0.01666666666666667 0  3.750434782608695 0 0  3.750434782608695 0.01666666666666667 0  3.766956521739131 0 0  3.766956521739131 0.01666666666666667 0  3.783478260869565 0 0  3.783478260869565 0.01666666666666667 0  3.8 0 0  3.8 0.01666666666666667 0  3.254782608695652 0.03333333333333333 0  3.271304347826087 0.03333333333333333 0  3.287826086956521 0.03333333333333333 0  3.304347826086957 0.03333333333333333 0  3.320869565217391 0.03333333333333333 0  3.337391304347826 0.03333333333333333 0  3.353913043478261 0.03333333333333333 0  3.370434782608696 0.03333333333333333 0  3.386956521739131 0.03333333333333333 0  3.403478260869565 0.03333333333333333 0  3.419999999999999 0.03333333333333333 0  3.436521739130435 0.03333333333333333 0  3.453043478260869 0.03333333333333333 0  3.469565217391304 0.03333333333333333 0  3.486086956521739 0.03333333333333333 0  3.502608695652174 0.03333333333333333 0  3.519130434782609 0.03333333333333333 0  3.535652173913043 0.03333333333333333 0  3.552173913043478 0.03333333333333333 0  3.568695652173913 0.03333333333333333 0  3.585217391304347 0.03333333333333333 0  3.601739130434782 0.03333333333333333 0  3.618260869565217 0.03333333333333333 0  3.634782608695652 0.03333333333333333 0  3.651304347826087 0.03333333333333333 0  3.667826086956521 0.03333333333333333 0  3.684347826086956 0.03333333333333333 0  3.700869565217391 0.03333333333333333 0  3.717391304347826 0.03333333333333333 0  3.733913043478261 0.03333333333333333 0  3.750434782608695 0.03333333333333333 0  3.766956521739131 0.03333333333333333 0  3.783478260869565 0.03333333333333333 0  3.8 0.03333333333333333 0  3.271304347826087 0.05 0  3.287826086956521 0.05 0  3.304347826086957 0.05 0  3.320869565217391 0.05 0  3.337391304347826 0.05 0  3.353913043478261 0.05 0  3.370434782608696 0.05 0  3.386956521739131 0.05 0  3.403478260869565 0.05 0  3.419999999999999 0.05 0  3.436521739130435 0.05 0  3.453043478260869 0.05 0  3.469565217391304 0.05 0  3.486086956521739 0.05 0  3.502608695652174 0.05 0  3.519130434782609 0.05 0  3.535652173913043 0.05 0  3.552173913043478 0.05 0  3.568695652173913 0.05 0  3.585217391304347 0.05 0  3.601739130434782 0.05 0  3.618260869565217 0.05 0  3.634782608695652 0.05 0  3.651304347826087 0.05 0  3.667826086956521 0.05 0  3.684347826086956 0.05 0  3.700869565217391 0.05 0  3.717391304347826 0.05 0  3.733913043478261 0.05 0  3.750434782608695 0.05 0  3.766956521739131 0.05 0  3.783478260869565 0.05 0  3.8 0.05 0  3.287826086956521 0.06666666666666667 0  3.304347826086957 0.06666666666666667 0  3.320869565217391 0.06666666666666667 0  3.337391304347826 0.06666666666666667 0  3.353913043478261 0.06666666666666667 0  3.370434782608696 0.06666666666666667 0  3.386956521739131 0.06666666666666667 0  3.403478260869565 0.06666666666666667 0  3.419999999999999 0.06666666666666667 0  3.436521739130435 0.06666666666666667 0  3.453043478260869 0.06666666666666667 0  3.469565217391304 0.06666666666666667 0  3.486086956521739 0.06666666666666667 0  3.502608695652174 0.06666666666666667 0  3.519130434782609 0.06666666666666667 0  3.535652173913043 0.06666666666666667 0  3.552173913043478 0.06666666666666667 0  3.568695652173913 0.06666666666666667 0  3.585217391304347 0.06666666666666667 0  3.601739130434782 0.06666666666666667 0  3.618260869565217 0.06666666666666667 0  3.634782608695652 0.06666666666666667 0  3.651304347826087 0.06666666666666667 0  3.667826086956521 0.06666666666666667 0  3.684347826086956 0.06666666666666667 0  3.700869565217391 0.06666666666666667 0  3.717391304347826 0.06666666666666667 0  3.733913043478261 0.06666666666666667 0  3.750434782608695 0.06666666666666667 0  3.766956521739131 0.06666666666666667 0  3.783478260869565 0.06666666666666667 0  3.8 0.06666666666666667 0  3.304347826086957 0.08333333333333333 0  3.320869565217391 0.08333333333333333 0  3.337391304347826 0.08333333333333333 0  3.353913043478261 0.08333333333333333 0  3.370434782608696 0.08333333333333333 0  3.386956521739131 0.08333333333333333 0  3.403478260869565 0.08333333333333333 0  3.419999999999999 0.08333333333333333 0  3.436521739130435 0.08333333333333333 0  3.453043478260869 0.08333333333333333 0  3.469565217391304 0.08333333333333333 0  3.486086956521739 0.08333333333333333 0  3.502608695652174 0.08333333333333333 0  3.519130434782609 0.08333333333333333 0  3.535652173913043 0.08333333333333333 0  3.552173913043478 0.08333333333333333 0  3.568695652173913 0.08333333333333333 0  3.585217391304347 0.08333333333333333 0  3.601739130434782 0.08333333333333333 0  3.618260869565217 0.08333333333333333 0  3.634782608695652 0.08333333333333333 0  3.651304347826087 0.08333333333333333 0  3.667826086956521 0.08333333333333333 0  3.684347826086956 0.08333333333333333 0  3.700869565217391 0.08333333333333333 0  3.717391304347826 0.08333333333333333 0  3.733913043478261 0.08333333333333333 0  3.750434782608695 0.08333333333333333 0  3.766956521739131 0.08333333333333333 0  3.783478260869565 0.08333333333333333 0  3.8 0.08333333333333333 0  3.320869565217391 0.1 0  3.337391304347826 0.1 0  3.353913043478261 0.1 0  3.370434782608696 0.1 0  3.386956521739131 0.1 0  3.403478260869565 0.1 0  3.419999999999999 0.1 0  3.436521739130435 0.1 0  3.453043478260869 0.1 0  3.469565217391304 0.1 0  3.486086956521739 0.1 0  3.502608695652174 0.1 0  3.519130434782609 0.1 0  3.535652173913043 0.1 0  3.552173913043478 0.1 0  3.568695652173913 0.1 0  3.585217391304347 0.1 0  3.601739130434782 0.1 0  3.618260869565217 0.1 0  3.634782608695652 0.1 0  3.651304347826087 0.1 0  3.667826086956521 0.1 0  3.684347826086956 0.1 0  3.700869565217391 0.1 0  3.717391304347826 0.1 0  3.733913043478261 0.1 0  3.750434782608695 0.1 0  3.766956521739131 0.1 0  3.783478260869565 0.1 0  3.8 0.1 0  3.337391304347826 0.1166666666666667 0  3.353913043478261 0.1166666666666667 0  3.370434782608696 0.1166666666666667 0  3.386956521739131 0.1166666666666667 0  3.403478260869565 0.1166666666666667 0  3.419999999999999 0.1166666666666667 0  3.436521739130435 0.1166666666666667 0  3.453043478260869 0.1166666666666667 0  3.469565217391304 0.1166666666666667 0  3.486086956521739 0.1166666666666667 0  3.502608695652174 0.1166666666666667 0  3.519130434782609 0.1166666666666667 0  3.535652173913043 0.1166666666666667 0  3.552173913043478 0.1166666666666667 0  3.568695652173913 0.1166666666666667 0  3.585217391304347 0.1166666666666667 0  3.601739130434782 0.1166666666666667 0  3.618260869565217 0.1166666666666667 0  3.634782608695652 0.1166666666666667 0  3.651304347826087 0.1166666666666667 0  3.667826086956521 0.1166666666666667 0  3.684347826086956 0.1166666666666667 0  3.700869565217391 0.1166666666666667 0  3.717391304347826 0.1166666666666667 0  3.733913043478261 0.1166666666666667 0  3.750434782608695 0.1166666666666667 0  3.766956521739131 0.1166666666666667 0  3.783478260869565 0.1166666666666667 0  3.8 0.1166666666666667 0  3.353913043478261 0.1333333333333333 0  3.370434782608696 0.1333333333333333 0  3.386956521739131 0.1333333333333333 0  3.403478260869565 0.1333333333333333 0  3.419999999999999 0.1333333333333333 0  3.436521739130435 0.1333333333333333 0  3.453043478260869 0.1333333333333333 0  3.469565217391304 0.1333333333333333 0  3.486086956521739 0.1333333333333333 0  3.502608695652174 0.1333333333333333 0  3.519130434782609 0.1333333333333333 0  3.535652173913043 0.1333333333333333 0  3.552173913043478 0.1333333333333333 0  3.568695652173913 0.1333333333333333 0  3.585217391304347 0.1333333333333333 0  3.601739130434782 0.1333333333333333 0  3.618260869565217 0.1333333333333333 0  3.634782608695652 0.1333333333333333 0  3.651304347826087 0.1333333333333333 0  3.667826086956521 0.1333333333333333 0  3.684347826086956 0.1333333333333333 0  3.700869565217391 0.1333333333333333 0  3.717391304347826 0.13333333
[...]
<PointData  Vectors="Displacement"> 
<DataArray  type="Float64"  Name="Displacement"  NumberOfComponents="3" format="ascii">4.7265213524891157e-04 4.9208678046733225e-03 0.0000000000000000e+00  4.7429271884398295e-04 4.9551530213001764e-03 0.0000000000000000e+00  4.4004161711746722e-04 4.9547008856967939e-03 0.0000000000000000e+00  4.3868845600848305e-04 4.9203070668986026e-03 0.0000000000000000e+00  4.7560236492927044e-04 4.9895942735323530e-03 0.0000000000000000e+00  4.4115592745973519e-04 4.9892311028347930e-03 0.0000000000000000e+00  4.7664326827811002e-04 5.0241150029133198e-03 0.0000000000000000e+00  4.4207274911475569e-04 5.0238229020699212e-03 0.0000000000000000e+00  4.7746876493805202e-04 5.0586690876343928e-03 0.0000000000000000e+00  4.4282597150764141e-04 5.0584342356417350e-03 0.0000000000000000e+00  4.7812043403657020e-04 5.0932280983151156e-03 0.0000000000000000e+00  4.4344228756954169e-04 5.0930403216253523e-03 0.0000000000000000e+00  4.7863026509148589e-04 5.1277717975661188e-03 0.0000000000000000e+00  4.4394334715137793e-04 5.1276231105695019e-03 0.0000000000000000e+00  4.7902355959359301e-04 5.1622850539456821e-03 0.0000000000000000e+00  4.4434723491641959e-04 5.1621688852749740e-03 0.0000000000000000e+00  4.7932078979172479e-04 5.1967569232108535e-03 0.0000000000000000e+00  4.4466917213556900e-04 5.1966678224095097e-03 0.0000000000000000e+00  4.7953865506682875e-04 5.2311798370661446e-03 0.0000000000000000e+00  4.4492194634280791e-04 5.2311133065703411e-03 0.0000000000000000e+00  4.7969083439904536e-04 5.2655486927946282e-03 0.0000000000000000e+00  4.4511631747441477e-04 5.2655010107420163e-03 0.0000000000000000e+00  4.7978862784505755e-04 5.2998601194526301e-03 0.0000000000000000e+00  4.4526140616072383e-04 5.2998281675553979e-03 0.0000000000000000e+00  4.7984147599510553e-04 5.3341120274073344e-03 0.0000000000000000e+00  4.4536500626512696e-04 5.3340931618112986e-03 0.0000000000000000e+00  4.7985733990276607e-04 5.3683033374647172e-03 0.0000000000000000e+00  4.4543381225410232e-04 5.3682953026055261e-03 0.0000000000000000e+00  4.7984297003754651e-04 5.4024337813982802e-03 0.0000000000000000e+00  4.4547358668985625e-04 5.4024346494768683e-03 0.0000000000000000e+00  4.7980410659986946e-04 5.4365037316497665e-03 0.0000000000000000e+00  4.4548929329701415e-04 5.4365118541693930e-03 0.0000000000000000e+00  4.7974563954216067e-04 5.4705140592862592e-03 0.0000000000000000e+00  4.4548520829684691e-04 5.4705280258898733e-03 0.0000000000000000e+00  4.7967174147334391e-04 5.5044660225924196e-03 0.0000000000000000e+00  4.4546501510299799e-04 5.5044846261702030e-03 0.0000000000000000e+00  4.7958598123507896e-04 5.5383611805803834e-03 0.0000000000000000e+00  4.4543188694857913e-04 5.5383833870090464e-03 0.0000000000000000e+00  4.7949142573035518e-04 5.5722013247956155e-03 0.0000000000000000e+00  4.4538856274274320e-04 5.5722262449514537e-03 0.0000000000000000e+00  4.7939073708079771e-04 5.6059884270917917e-03 0.0000000000000000e+00  4.4533742080736369e-04 5.6060152890814591e-03 0.0000000000000000e+00  4.7928627000469259e-04 5.6397246054671682e-03 0.0000000000000000e+00  4.4528055333050082e-04 5.6397527259036085e-03 0.0000000000000000e+00  4.7918017097371219e-04 5.6734121128196105e-03 0.0000000000000000e+00  4.4521984198480198e-04 5.6734408670316818e-03 0.0000000000000000e+00  4.7907447664331636e-04 5.7070533547979793e-03 0.0000000000000000e+00  4.4515703233702450e-04 5.7070821470798184e-03 0.0000000000000000e+00  4.7897120450358184e-04 5.7406509426178760e-03 0.0000000000000000e+00  4.4509380159855520e-04 5.7406791789372776e-03 0.0000000000000000e+00  4.7887242412737822e-04 5.7742077841921487e-03 0.0000000000000000e+00  4.4503181142826586e-04 5.7742348509463902e-03 0.0000000000000000e+00  4.7878029333297791e-04 5.8077272120248390e-03 0.0000000000000000e+00  4.4497273544784907e-04 5.8077524652352568e-03 0.0000000000000000e+00  4.7869704034874565e-04 5.8412131390595734e-03 0.0000000000000000e+00  4.4491825032078714e-04 5.8412359087282283e-03 0.0000000000000000e+00  4.7862487075630292e-04 5.8746702236409185e-03 0.0000000000000000e+00  4.4486998010495425e-04 5.8746898378882681e-03 0.0000000000000000e+00  4.7856577664612916e-04 5.9081040103238537e-03 0.0000000000000000e+00  4.4482938660169808e-04 5.9081198437520221e-03 0.0000000000000000e+00  4.7852122545287060e-04 5.9415209903346967e-03 0.0000000000000000e+00  4.4479760395120955e-04 5.9415325423478171e-03 0.0000000000000000e+00  4.7849170917531932e-04 5.9749284839125628e-03 0.0000000000000000e+00  4.4477522297523399e-04 5.9749355008905033e-03 0.0000000000000000e+00  4.7847614747325499e-04 6.0083341609556114e-03 0.0000000000000000e+00  4.4476203373786371e-04 6.0083368492591686e-03 0.0000000000000000e+00  4.7847118197269652e-04 6.0417448226695739e-03 0.0000000000000000e+00  4.4475670674882806e-04 6.0417443112892009e-03 0.0000000000000000e+00  4.7847060794976810e-04 6.0751637237296905e-03 0.0000000000000000e+00  4.4475621921739509e-04 6.0751631242394882e-03 0.0000000000000000e+00  4.0635182333960889e-04 4.9543944146449269e-03 0.0000000000000000e+00  4.0718064739574740e-04 4.9889800684101921e-03 0.0000000000000000e+00  4.0789589609481334e-04 5.0236114916577023e-03 0.0000000000000000e+00  4.0851277858277516e-04 5.0582549221480739e-03 0.0000000000000000e+00  4.0904112171492152e-04 5.0928899284086449e-03 0.0000000000000000e+00  4.0948975860239604e-04 5.1274986822099850e-03 0.0000000000000000e+00  4.0986771362227565e-04 5.1620671373088850e-03 0.0000000000000000e+00  4.1018366785155721e-04 5.1965856270162359e-03 0.0000000000000000e+00  4.1044547477271919e-04 5.2310479699868113e-03 0.0000000000000000e+00  4.1066010256017994e-04 5.2654502300294040e-03 0.0000000000000000e+00  4.1083377540022194e-04 5.2997899013856598e-03 0.0000000000000000e+00  4.1097208475520650e-04 5.3340655705088639e-03 0.0000000000000000e+00  4.1108003485392332e-04 5.3682767424540626e-03 0.0000000000000000e+00  4.1116206798478682e-04 5.4024236738313578e-03 0.0000000000000000e+00  4.1122209939138357e-04 5.4365072022232184e-03 0.0000000000000000e+00  4.1126356097917596e-04 5.4705286050281340e-03 0.0000000000000000e+00  4.1128944449916823e-04 5.5044894961331498e-03 0.0000000000000000e+00  4.1130234191121511e-04 5.5383917463179954e-03 0.0000000000000000e+00  4.1130448624210125e-04 5.5722374164622526e-03 0.0000000000000000e+00  4.1129779678478933e-04 5.6060287019292490e-03 0.0000000000000000e+00  4.1128393084640118e-04 5.6397678923991229e-03 0.0000000000000000e+00  4.1126434235446400e-04 5.6734573541031997e-03 0.0000000000000000e+00  4.1124034543449291e-04 5.7070995430561489e-03 0.0000000000000000e+00  4.1121317852063405e-04 5.7406970579282242e-03 0.0000000000000000e+00  4.1118406229894518e-04 5.7742527383119763e-03 0.0000000000000000e+00  4.1115424345231365e-04 5.8077698083688544e-03 0.0000000000000000e+00  4.1112501606569205e-04 5.8412520577408346e-03 0.0000000000000000e+00  4.1109771368403350e-04 5.8747040413040944e-03 0.0000000000000000e+00  4.1107366707779521e-04 5.9081312663914727e-03 0.0000000000000000e+00  4.1105412435534817e-04 5.9415403200231715e-03 0.0000000000000000e+00  4.1104012688869269e-04 5.9749388696612761e-03 0.0000000000000000e+00  4.1103231550334549e-04 6.0083354530129770e-03 0.0000000000000000e+00  4.1103057992866824e-04 6.0417389755525698e-03 0.0000000000000000e+00  4.1103330047602128e-04 6.0751579428760076e-03 0.0000000000000000e+00  3.7349454271715901e-04 4.9888870236102553e-03 0.0000000000000000e+00  3.7397773461533601e-04 5.0235187704064299e-03 0.0000000000000000e+00  3.7443013053418684e-04 5.0581626400009773e-03 0.0000000000000000e+00  3.7484390325590841e-04 5.0928039104573544e-03 0.0000000000000000e+00  3.7521526867831661e-04 5.1274218707557549e-03 0.0000000000000000e+00  3.7554464080369354e-04 5.1619999266116507e-03 0.0000000000000000e+00  3.7583434218267799e-04 5.1965275860280701e-03 0.0000000000000000e+00  3.7608718407150819e-04 5.2309986445240719e-03 0.0000000000000000e+00  3.7630610981182703e-04 5.2654091484958298e-03 0.0000000000000000e+00  3.7649422161845607e-04 5.2997564220364658e-03 0.0000000000000000e+00  3.7665472465065407e-04 5.3340388983468970e-03 0.0000000000000000e+00  3.7679077734200988e-04 5.3682560348485356e-03 0.0000000000000000e+00  3.7690536004103927e-04 5.4024081248383116e-03 0.0000000000000000e+00  3.7700120762533052e-04 5.4364960770939491e-03 0.0000000000000000e+00  3.7708078510000672e-04 5.4705212505614491e-03 0.0000000000000000e+00  3.7714627648622337e-04 5.5044853497393529e-03 0.0000000000000000e+00  3.7719957833902635e-04 5.5383903453202158e-03 0.0000000000000000e+00  3.7724230165683961e-04 5.5722384017009461e-03 0.0000000000000000e+00  3.7727578690287250e-04 5.6060318110804216e-03 0.0000000000000000e+00  3.7730113468028935e-04 5.6397729406833857e-03 0.0000000000000000e+00  3.7731925290890956e-04 5.6734642012556081e-03 0.0000000000000000e+00  3.7733091924311397e-04 5.7071080471118750e-03 0.0000000000000000e+00  3.7733685447586597e-04 5.7407070188336701e-03 0.0000000000000000e+00  3.7733779990581286e-04 5.7742638365161480e-03 0.0000000000000000e+00  3.7733458995238399e-04 5.8077815450032662e-03 0.0000000000000000e+00  3.7732821069636288e-04 5.8412637042379234e-03 0.0000000000000000e+00  3.7731983507991400e-04 5.8747146083266413e-03 0.0000000000000000e+00  3.7731082550283824e-04 5.9081395065235329e-03 0.0000000000000000e+00  3.7730269278453751e-04 5.9415447897999234e-03 0.0000000000000000e+00  3.7729699325185121e-04 5.9749381027442939e-03 0.0000000000000000e+00  3.7729512680627055e-04 6.0083283546109182e-03 0.0000000000000000e+00  3.7729796090584959e-04 6.0417256699446826e-03 0.0000000000000000e+00  3.7730515373644863e-04 6.0751415414653353e-03 0.0000000000000000e+00  3.4018376216417393e-04 5.0235525873771631e-03 0.0000000000000000e+00  3.4047863698586072e-04 5.0581655306051456e-03 0.0000000000000000e+00  3.4077579307964447e-04 5.0927925493205895e-03 0.0000000000000000e+00  3.4106284102445575e-04 5.1274039570517165e-03 0.0000000000000000e+00  3.4133444598468809e-04 5.1619782992570551e-03 0.0000000000000000e+00  3.4158805036727826e-04 5.1965039772369570e-03 0.0000000000000000e+00  3.4182201683261704e-04 5.2309747881898877e-03 0.0000000000000000e+00  3.4203551979491417e-04 5.2653864670765289e-03 0.0000000000000000e+00  3.4222874083623831e-04 5.2997356839725226e-03 0.0000000000000000e+00  3.4240267555919762e-04 5.3340203393908462e-03 0.0000000000000000e+00  3.4255875468455695e-04 5.3682396187261644e-03 0.0000000000000000e+00  3.4269855076393175e-04 5.4023937182255677e-03 0.0000000000000000e+00  3.4282362974033537e-04 5.4364835156627449e-03 0.0000000000000000e+00  3.4293547882048423e-04 5.4705103670858284e-03 0.0000000000000000e+00  3.4303544885099023e-04 5.5044760083389800e-03 0.0000000000000000e+00  3.4312470139167167e-04 5.5383824774756481e-03 0.0000000000000000e+00  3.4320417084532633e-04 5.5722320307003224e-03 0.0000000000000000e+00  3.4327454959444430e-04 5.6060270573410082e-03 0.0000000000000000e+00  3.4333629972691654e-04 5.6397700045328798e-03 0.0000000000000000e+00  3.4338969348832589e-04 5.6734633208033406e-03 0.0000000000000000e+00  3.4343488218671348e-04 5.7071094314644051e-03 0.0000000000000000e+00  3.4347198873599654e-04 5.7407107613721637e-03 0.0000000000000000e+00  3.4350121478951085e-04 5.7742698166993733e-03 0.0000000000000000e+00  3.4352295077242528e-04 5.8077893296522680e-03 0.0000000000000000e+00  3.4353787566019874e-04 5.8412724614412314e-03 0.0000000000000000e+00  3.4354703233312010e-04 5.8747230501307686e-03 0.0000000000000000e+00  3.4355186330767219e-04 5.9081458816237767e-03 0.0000000000000000e+00  3.4355418965901499e-04 5.9415469569276593e-03 0.0000000000000000e+00  3.4355611128964234e-04 5.9749337333767178e-03 0.0000000000000000e+00  3.4355979828227764e-04 6.0083153438545110e-03 0.0000000000000000e+00  3.4356713533501801e-04 6.0417028718245426e-03 0.0000000000000000e+00  3.4357919944448295e-04 6.0751099353705323e-03 0.0000000000000000e+00  3.0657783132391996e-04 5.0582515406705159e-03 0.0000000000000000e+00  3.0677039322537023e-04 5.0928519396798077e-03 0.0000000000000000e+00  3.0697898798923639e-04 5.1274456338495349e-03 0.0000000000000000e+00  3.0719492109830408e-04 5.1620048916686308e-03 0.0000000000000000e+00  3.0741199206315342e-04 5.1965183131174493e-03 0.0000000000000000e+00  3.0762469302308791e-04 5.2309805387299891e-03 0.0000000000000000e+00  3.0782890173754841e-04 5.2653867902408367e-03 0.0000000000000000e+00  3.0802244412442926e-04 5.2997324730616859e-03 0.0000000000000000e+00  3.0820463223545596e-04 5.3340145873465462e-03 0.0000000000000000e+00  3.0837554299166677e-04 5.3682319210013795e-03 0.0000000000000000e+00  3.0853556586060672e-04 5.4023845284792990e-03 0.0000000000000000e+00  3.0868523189648254e-04 5.4364731966999444e-03 0.0000000000000000e+00  3.0882513956641050e-04 5.4704992097606075e-03 0.0000000000000000e+00  3.0895586580263079e-04 5.5044642893251608e-03 0.0000000000000000e+00  3.0907786821194222e-04 5.5383705264110319e-03 0.0000000000000000e+00  3.0919140742043674e-04 5.5722202780622739e-03 0.0000000000000000e+00  3.0929650312495953e-04 5.6060160522780848e-03 0.0000000000000000e+00  3.0939292853633790e-04 5.6397603985430074e-03 0.0000000000000000e+00  3.0948024789663627e-04 5.6734558125235103e-03 0.0000000000000000e+00  3.0955789878153066e-04 5.7071046719887001e-03 0.0000000000000000e+00  3.0962531318787023e-04 5.7407092275461175e-03 0.0000000000000000e+00  3.0968206475349329e-04 5.7742716657325057e-03 0.0000000000000000e+00  3.0972802574147872e-04 5.8077942517481135e-03 0.0000000000000000e+00  3.0976351525189926e-04 5.8412795498704395e-03 0.0000000000000000e+00  3.0978941840466723e-04 5.8747307114122233e-03 0.0000000000000000e+00  3.0980725532609756e-04 5.9081518120927918e-03 0.0000000000000000e+00  3.0981917878260262e-04 5.9415482164959970e-03 0.0000000000000000e+00  3.0982787984737436e-04 5.9749269533114135e-03 0.0000000000000000e+00  3.0983638331946397e-04 6.0082971095467555e-03 0.0000000000000000e+00  3.0984772597199533e-04 6.0416703062245647e-03 0.0000000000000000e+00  3.0986455245193904e-04 6.0750614136881485e-03 0.0000000000000000e+00  2.7276596866508484e-04 5.0929689288589939e-03 0.0000000000000000e+00  2.7291424893981085e-04 5.1275396265424720e-03 0.0000000000000000e+00  2.7308766198984335e-04 5.1620752438717782e-03 0.0000000000000000e+00  2.7327652693215956e-04 5.1965680718693529e-03 0.0000000000000000e+00  2.7347218597935049e-04 5.2310152694264225e-03 0.0000000000000000e+00  2.7366814938537459e-04 5.2654111098130027e-03 0.0000000000000000e+00  2.7386100332729284e-04 5.2997487718574963e-03 0.0000000000000000e+00  2.7404931281399330e-04 5.3340240677681155e-03 0.0000000000000000e+00  2.7423239684545012e-04 5.3682354861001799e-03 0.0000000000000000e+00  2.7440979436141517e-04 5.4023830562498539e-03 0.0000000000000000e+00  2.7458120995322525e-04 5.4364674709171138e-03 0.0000000000000000e+00  2.7474651660143272e-04 5.4704898859084233e-03 0.0000000000000000e+00  2.7490564815871565e-04 5.5044519825021114e-03 0.0000000000000000e+00  2.7505845178338670e-04 5.5383559195740758e-03 0.0000000000000000e+00  2.7520456830270403e-04 5.5722041970925548e-03 0.0000000000000000e+00  2.7534335892238400e-04 5.6059994975300158e-03 0.0000000000000000e+00  2.7547388216500661e-04 5.6397445296944527e-03 0.0000000000000000e+00  2.7559493077740962e-04 5.6734418768531270e-03 0.0000000000000000e+00  2.7570513446272324e-04 5.7070938733018222e-03 0.0000000000000000e+00  2.7580312035685965e-04 5.7407025475123830e-03 0.0000000000000000e+00  2.7588771306787070e-04 5.7742696577435257e-03 0.0000000000000000e+00  2.7595815176015298e-04 5.8077968308942983e-03 0.0000000000000000e+00  2.7601429925650048e-04 5.8412858054450534e-03 0.0000000000000000e+00  2.7605681577309453e-04 5.8747387715315444e-03 0.0000000000000000e+00  2.7608726968997137e-04 5.9081587912765366e-03 0.0000000000000000e+00  2.7610816082319055e-04 5.9415502755979337e-03 0.0000000000000000e+00  2.7612283765104901e-04 5.9749194966179147e-03 0.0000000000000000e+00  2.7613529989549114e-04 6.0082751315240239e-03 0.0000000000000000e+00  2.7614989728080088e-04 6.0416288648554107e-03 0.0000000000000000e+00  2.7617097633470108e-04 6.0749961123607223e-03 0.0000000000000000e+00  2.3882378594304718e-04 5.1276705868946674e-03 0.0000000000000000e+00  2.3898295349516878e-04 5.1621786423617479e-03 0.0000000000000000e+00  2.3915930462855461e-04 5.1966456838994342e-03 0.0000000000000000e+00  2.3934650567200712e-04 5.2310746421038020e-03 0.0000000000000000e+00  2.3953824141863462e-04 5.2654577937401685e-03 0.0000000000000000e+00  2.3973179427778867e-04 5.2997844946443299e-03 0.0000000000000000e+00  2.3992626841094577e-04 5.3340494070482523e-03 0.0000000000000000e+00  2.4012087240144798e-04 5.3682512623408202e-03 0.0000000000000000e+00  2.4031458328020413e-04 5.4023904177150925e-03 0.0000000000000000e+00  2.4050647624044997e-04 5.4364674958187927e-03 0.0000000000000000e+00  2.4069590221968318e-04 5.4704834464431992e-03 0.0000000000000000e+00  2.4088234039057726e-04 5.5044399019279783e-03 0.0000000000000000e+00  2.4106517498171545e-04 5.5383391438416198e-03 0.0000000000000000e+00  2.4124352651703319e-04 5.5721839022312529e-03 0.0000000000000000e+00  2.4141614659116609e-04 5.6059771375666523e-03 0.0000000000000000e+00  2.4158137288793902e-04 5.6397218262513081e-03 0.0000000000000000e+00  2.4173716507437117e-04 5.6734207284672832e-03 0.0000000000000000e+00  2.4188123575261570e-04 5.7070761769771397e-03 0.0000000000000000e+00  2.4201126407848703e-04 5.7406899520166584e-03 0.0000000000000000e+00  2.4212516528984620e-04 5.7742632783127001e-03 0.0000000000000000e+00  2.4222138602529158e-04 5.8077969569041484e-03 0.0000000000000000e+00  2.4229919291807831e-04 5.8412916352686079e-03 0.0000000000000000e+00  2.4235891821190554e-04 5.8747482126787799e-03 0.0000000000000000e+00  2.4240212664894986e-04 5.9081683626483750e-03 0.0000000000000000e+00  2.4243167469248836e-04 5.9415551411274789e-03 0.0000000000000000e+00  2.4245164430962508e-04 5.9749136468816300e-03 0.0000000000000000e+00  2.4246714820023416e-04 6.0082517096023622e-03 0.0000000000000000e+00  2.4248402428322309e-04 6.0415805956382110e-03 0.0000000000000000e+00  2.4250846970053238e-04 6.0749157257549979e-03 0.0000000000000000e+00  2.0488202123388299e-04 5.1623027301381259e-03 0.0000000000000000e+00  2.0505262030176796e-04 5.1967414287191344e-03 0.0000000000000000e+00  2.0523698091363569e-04 5.2311527309492085e-03 0.0000000000000000e+00  2.0542793071982833e-04 5.2655242286198944e-03 0.0000000000000000e+00  2.0562420048969013e-04 5.2998385324120930e-03 0.0000000000000000e+00  2.0582617119079883e-04 5.3340900224924988e-03 0.0000000000000000e+00  2.0603315520795141e-04 5.3682789486404090e-03 0.0000000000000000e+00  2.0624356335824902e-04 5.4024065989901060e-03 0.0000000000000000e+00  2.0645594051935161e-04 5.4364734461450348e-03 0.0000000000000000e+00  2.0666935059007930e-04 5.4704800499759737e-03 0.0000000000000000e+00  2.0688306542044526e-04 5.5044280016804626e-03 0.0000000000000000e+00  2.0709620517351859e-04 5.5383198146619853e-03 0.0000000000000000e+00  2.0730751319778464e-04 5.5721585925569694e-03 0.0000000000000000e+00  2.0751521505154975e-04 5.6059477383292424e-03 0.0000000000000000e+00  2.0771693926223837e-04 5.6396906759564368e-03 0.0000000000000000e+00  2.0790974693830116e-04 5.6733905030298751e-03 0.0000000000000000e+00  2.0809030052413837e-04 5.7070496485043297e-03 0.0000000000000000e+00  2.0825514883727095e-04 5.7406696520499421e-03 0.0000000000000000e+00  2.0840108781896736e-04 5.7742511089401150e-03 0.0000000000000000e+00  2.0852555820169872e-04 5.8077937897541582e-03 0.0000000000000000e+00  2.0862703930887367e-04 5.8412969413884240e-03 0.0000000000000000e+00  2.0870539071845938e-04 5.8747597733859579e-03 0.0000000000000000e+00  2.0876209446595050e-04 5.9081821075829431e-03 0.0000000000000000e+00  2.0880036240669865e-04 5.9415651452930009e-03 0.0000000000000000e+00  2.0882509012945785e-04 5.9749122991541509e-03 0.0000000000000000e+