<?xml version="1.0"?>
<VTKFile type="UnstructuredGrid"  version="0.1"  >
<UnstructuredGrid>
<Piece  NumberOfPoints="629" NumberOfCells="1162">
<Points>
<DataArray  type="Float64"  NumberOfComponents="3"  format="ascii">0.7104347826086956 0 0  0.7269565217391304 0 0  0.7269565217391304 0.01666666666666667 0  0.7104347826086956 0.01666666666666667 0  0.7434782608695653 0 0  0.7434782608695653 0.01666666666666667 0  0.7599999999999999 0 0  0.7599999999999999 0.01666666666666667 0  0.7765217391304348 0 0  0.7765217391304348 0.01666666666666667 0  0.7930434782608695 0 0  0.7930434782608695 0.01666666666666667 0  0.8095652173913043 0 0  0.8095652173913043 0.01666666666666667 0  0.8260869565217391 0 0  0.8260869565217391 0.01666666666666667 0  0.8426086956521739 0 0  0.8426086956521739 0.01666666666666667 0  0.8591304347826086 0 0  0.8591304347826086 0.01666666666666667 0  0.8756521739130434 0 0  0.8756521739130434 0.01666666666666667 0  0.8921739130434783 0 0  0.8921739130434783 0.01666666666666667 0  0.908695652173913 0 0  0.908695652173913 0.01666666666666667 0  0.9252173913043478 0 0  0.9252173913043478 0.01666666666666667 0  0.9417391304347826 0 0  0.9417391304347826 0.01666666666666667 0  0.9582608695652173 0 0  0.9582608695652173 0.01666666666666667 0  0.9747826086956521 0 0  0.9747826086956521 0.01666666666666667 0  0.991304347826087 0 0  0.991304347826087 0.01666666666666667 0  1.007826086956522 0 0  1.007826086956522 0.01666666666666667 0  1.024347826086957 0 0  1.024347826086957 0.01666666666666667 0  0.7269565217391304 0.03333333333333333 0  0.7104347826086956 0.03333333333333333 0  0.7434782608695653 0.03333333333333333 0  0.7599999999999999 0.03333333333333333 0  0.7765217391304348 0.03333333333333333 0  0.7930434782608695 0.03333333333333333 0  0.8095652173913043 0.03333333333333333 0  0.8260869565217391 0.03333333333333333 0  0.8426086956521739 0.03333333333333333 0  0.8591304347826086 0.03333333333333333 0  0.8756521739130434 0.03333333333333333 0  0.8921739130434783 0.03333333333333333 0  0.908695652173913 0.03333333333333333 0  0.9252173913043478 0.03333333333333333 0  0.9417391304347826 0.03333333333333333 0  0.9582608695652173 0.03333333333333333 0  0.9747826086956521 0.03333333333333333 0  0.991304347826087 0.03333333333333333 0  1.007826086956522 0.03333333333333333 0  1.024347826086957 0.03333333333333333 0  1.040869565217391 0.03333333333333333 0  0.7269565217391304 0.05 0  0.7434782608695653 0.05 0  0.7599999999999999 0.05 0  0.7765217391304348 0.05 0  0.7930434782608695 0.05 0  0.8095652173913043 0.05 0  0.8260869565217391 0.05 0  0.8426086956521739 0.05 0  0.8591304347826086 0.05 0  0.8756521739130434 0.05 0  0.8921739130434783 0.05 0  0.908695652173913 0.05 0  0.9252173913043478 0.05 0  0.9417391304347826 0.05 0  0.9582608695652173 0.05 0  0.9747826086956521 0.05 0  0.991304347826087 0.05 0  1.007826086956522 0.05 0  1.024347826086957 0.05 0  1.040869565217391 0.05 0  1.057391304347826 0.05 0  0.7434782608695653 0.06666666666666667 0  0.7599999999999999 0.06666666666666667 0  0.7765217391304348 0.06666666666666667 0  0.7930434782608695 0.06666666666666667 0  0.8095652173913043 0.06666666666666667 0  0.8260869565217391 0.06666666666666667 0  0.8426086956521739 0.06666666666666667 0  0.8591304347826086 0.06666666666666667 0  0.8756521739130434 0.06666666666666667 0  0.8921739130434783 0.06666666666666667 0  0.908695652173913 0.06666666666666667 0  0.9252173913043478 0.06666666666666667 0  0.9417391304347826 0.06666666666666667 0  0.9582608695652173 0.06666666666666667 0  0.9747826086956521 0.06666666666666667 0  0.991304347826087 0.06666666666666667 0  1.007826086956522 0.06666666666666667 0  1.024347826086957 0.06666666666666667 0  1.040869565217391 0.06666666666666667 0  1.057391304347826 0.06666666666666667 0  1.073913043478261 0.06666666666666667 0  0.7599999999999999 0.08333333333333333 0  0.7765217391304348 0.08333333333333333 0  0.7930434782608695 0.08333333333333333 0  0.8095652173913043 0.08333333333333333 0  0.8260869565217391 0.08333333333333333 0  0.8426086956521739 0.08333333333333333 0  0.8591304347826086 0.08333333333333333 0  0.8756521739130434 0.08333333333333333 0  0.8921739130434783 0.08333333333333333 0  0.908695652173913 0.08333333333333333 0  0.9252173913043478 0.08333333333333333 0  0.9417391304347826 0.08333333333333333 0  0.9582608695652173 0.08333333333333333 0  0.9747826086956521 0.08333333333333333 0  0.991304347826087 0.08333333333333333 0  1.007826086956522 0.08333333333333333 0  1.024347826086957 0.08333333333333333 0  1.040869565217391 0.08333333333333333 0  1.057391304347826 0.08333333333333333 0  1.073913043478261 0.08333333333333333 0  1.090434782608696 0.08333333333333333 0  0.7765217391304348 0.1 0  0.7930434782608695 0.1 0  0.8095652173913043 0.1 0  0.8260869565217391 0.1 0  0.8426086956521739 0.1 0  0.8591304347826086 0.1 0  0.8756521739130434 0.1 0  0.8921739130434783 0.1 0  0.908695652173913 0.1 0  0.9252173913043478 0.1 0  0.9417391304347826 0.1 0  0.9582608695652173 0.1 0  0.9747826086956521 0.1 0  0.991304347826087 0.1 0  1.007826086956522 0.1 0  1.024347826086957 0.1 0  1.040869565217391 0.1 0  1.057391304347826 0.1 0  1.073913043478261 0.1 0  1.090434782608696 0.1 0  1.10695652173913 0.1 0  0.7930434782608695 0.1166666666666667 0  0.8095652173913043 0.1166666666666667 0  0.8260869565217391 0.1166666666666667 0  0.8426086956521739 0.1166666666666667 0  0.8591304347826086 0.1166666666666667 0  0.8756521739130434 0.1166666666666667 0  0.8921739130434783 0.1166666666666667 0  0.908695652173913 0.1166666666666667 0  0.9252173913043478 0.1166666666666667 0  0.9417391304347826 0.1166666666666667 0  0.9582608695652173 0.1166666666666667 0  0.9747826086956521 0.1166666666666667 0  0.991304347826087 0.1166666666666667 0  1.007826086956522 0.1166666666666667 0  1.024347826086957 0.1166666666666667 0  1.040869565217391 0.1166666666666667 0  1.057391304347826 0.1166666666666667 0  1.073913043478261 0.1166666666666667 0  1.090434782608696 0.1166666666666667 0  1.10695652173913 0.1166666666666667 0  1.123478260869565 0.1166666666666667 0  0.8095652173913043 0.1333333333333333 0  0.8260869565217391 0.1333333333333333 0  0.8426086956521739 0.1333333333333333 0  0.8591304347826086 0.1333333333333333 0  0.8756521739130434 0.1333333333333333 0  0.8921739130434783 0.1333333333333333 0  0.908695652173913 0.1333333333333333 0  0.9252173913043478 0.1333333333333333 0  0.9417391304347826 0.1333333333333333 0  0.9582608695652173 0.1333333333333333 0  0.9747826086956521 0.1333333333333333 0  0.991304347826087 0.1333333333333333 0  1.007826086956522 0.1333333333333333 0  1.024347826086957 0.1333333333333333 0  1.040869565217391 0.1333333333333333 0  1.057391304347826 0.1333333333333333 0  1.073913043478261 0.1333333333333333 0  1.090434782608696 0.1333333333333333 0  1.10695652173913 0.1333333333333333 0  1.123478260869565 0.1333333333333333 0  1.14 0.1333333333333333 0  0.8260869565217391 0.15 0  0.8426086956521739 0.15 0  0.8591304347826086 0.15 0  0.8756521739130434 0.15 0  0.8921739130434783 0.15 0  0.908695652173913 0.15 0  0.9252173913043478 0.15 0  0.9417391304347826 0.15 0  0.9582608695652173 0.15 0  0.9747826086956521 0.15 0  0.991304347826087 0.15 0  1.007826086956522 0.15 0  1.024347826086957 0.15 0  1.040869565217391 0.15 0  1.057391304347826 0.15 0  1.073913043478261 0.15 0  1.090434782608696 0.15 0  1.10695652173913 0.15 0  1.123478260869565 0.15 0  1.14 0.15 0  1.156521739130435 0.15 0  0.8426086956521739 0.1666666666666667 0  0.8591304347826086 0.1666666666666667 0  0.8756521739130434 0.1666666666666667 0  0.8921739130434783 0.1666666666666667 0  0.908695652173913 0.1666666666666667 0  0.9252173913043478 0.1666666666666667 0  0.9417391304347826 0.1666666666666667 0  0.9582608695652173 0.1666666666666667 0  0.9747826086956521 0.1666666666666667 0  0.991304347826087 0.1666666666666667 0  1.007826086956522 0.1666666666666667 0  1.024347826086957 0.1666666666666667 0  1.040869565217391 0.1666666666666667 0  1.057391304347826 0.1666666666666667 0  1.073913043478261 0.1666666666666667 0  1.090434782608696 0.1666666666666667 0  1.10695652173913 0.1666666666666667 0  1.123478260869565 0.1666666666666667 0  1.14 0.1666666666666667 0  1.156521739130435 0.1666666666666667 0  1.17304347826087 0.1666666666666667 0  0.8591304347826086 0.1833333333333333 0  0.8756521739130434 0.1833333333333333 0  0.8921739130434783 0.1833333333333333 0  0.908695652173913 0.1833333333333333 0  0.9252173913043478 0.1833333333333333 0  0.9417391304347826 0.1833333333333333 0  0.9582608695652173 0.1833333333333333 0  0.9747826086956521 0.1833333333333333 0  0.991304347826087 0.1833333333333333 0  1.007826086956522 0.1833333333333333 0  1.024347826086957 0.1833333333333333 0  1.040869565217391 0.1833333333333333 0  1.057391304347826 0.1833333333333333 0  1.073913043478261 0.1833333333333333 0  1.090434782608696 0.1833333333333333 0  1.10695652173913 0.1833333333333333 0  1.123478260869565 0.1833333333333333 0  1.14 0.1833333333333333 0  1.156521739130435 0.1833333333333333 0  1.17304347826087 0.1833333333333333 0  1.189565217391304 0.1833333333333333 0  0.8756521739130434 0.2 0  0.8921739130434783 0.2 0  0.908695652173913 0.2 0  0.9252173913043478 0.2 0  0.9417391304347826 0.2 0  0.9582608695652173 0.2 0  0.9747826086956521 0.2 0  0.991304347826087 0.2 0  1.007826086956522 0.2 0  1.024347826086957 0.2 0  1.040869565217391 0.2 0  1.057391304347826 0.2 0  1.073913043478261 0.2 0  1.090434782608696 0.2 0  1.10695652173913 0.2 0  1.123478260869565 0.2 0  1.14 0.2 0  1.156521739130435 0.2 0  1.17304347826087 0.2 0  1.189565217391304 0.2 0  1.206086956521739 0.2 0  0.8921739130434783 0.2166666666666667 0  0.908695652173913 0.2166666666666667 0  0.9252173913043478 0.2166666666666667 0  0.9417391304347826 0.2166666666666667 0  0.9582608695652173 0.2166666666666667 0  0.9747826086956521 0.2166666666666667 0  0.991304347826087 0.2166666666666667 0  1.007826086956522 0.2166666666666667 0  1.02434782608
[...]
<PointData  Vectors="Displacement"> 
<DataArray  type="Float64"  Name="Displacement"  NumberOfComponents="3" format="ascii">1.3983201174129590e-04 1.1015995548860073e-03 0.0000000000000000e+00  1.4278531594172770e-04 1.1233133284466533e-03 0.0000000000000000e+00  1.2108809330115926e-04 1.1222593628612656e-03 0.0000000000000000e+00  1.1770078966142410e-04 1.1005458179902845e-03 0.0000000000000000e+00  1.4574377466490887e-04 1.1446016960422636e-03 0.0000000000000000e+00  1.2447133498237175e-04 1.1435474481036212e-03 0.0000000000000000e+00  1.4870732332686581e-04 1.1654735956549383e-03 0.0000000000000000e+00  1.2785088259404851e-04 1.1644190099706453e-03 0.0000000000000000e+00  1.5167588711878873e-04 1.1859374817723368e-03 0.0000000000000000e+00  1.3122714134634507e-04 1.1848825299368001e-03 0.0000000000000000e+00  1.5464937567713871e-04 1.2060013036845833e-03 0.0000000000000000e+00  1.3460044425902078e-04 1.2049460110043421e-03 0.0000000000000000e+00  1.5762770785240172e-04 1.2256726418733114e-03 0.0000000000000000e+00  1.3797090726680566e-04 1.2246170672253721e-03 0.0000000000000000e+00  1.6061085159059014e-04 1.2449590284931867e-03 0.0000000000000000e+00  1.4133840351663630e-04 1.2439032171232621e-03 0.0000000000000000e+00  1.6359882474580649e-04 1.2638682572190493e-03 0.0000000000000000e+00  1.4470269011611340e-04 1.2628122267923944e-03 0.0000000000000000e+00  1.6659165916061601e-04 1.2824084588996616e-03 0.0000000000000000e+00  1.4806355023508434e-04 1.2813522128144231e-03 0.0000000000000000e+00  1.6958937321163593e-04 1.3005879972240275e-03 0.0000000000000000e+00  1.5142084887379101e-04 1.2995315274721031e-03 0.0000000000000000e+00  1.7259196446356518e-04 1.3184153400157665e-03 0.0000000000000000e+00  1.5477454664230867e-04 1.3173586217578347e-03 0.0000000000000000e+00  1.7559940651977127e-04 1.3358989053719056e-03 0.0000000000000000e+00  1.5812473077670984e-04 1.3348419112150464e-03 0.0000000000000000e+00  1.7861164985166048e-04 1.3530468785279794e-03 0.0000000000000000e+00  1.6147158942914601e-04 1.3519896061323095e-03 0.0000000000000000e+00  1.8162863957246086e-04 1.3698671557558473e-03 0.0000000000000000e+00  1.6481527334918236e-04 1.3688096263612516e-03 0.0000000000000000e+00  1.8465034111638727e-04 1.3863674902626043e-03 0.0000000000000000e+00  1.6815580173957649e-04 1.3853097219921500e-03 0.0000000000000000e+00  1.8767674433332757e-04 1.4025556787693549e-03 0.0000000000000000e+00  1.7149311049564846e-04 1.4014976768658451e-03 0.0000000000000000e+00  1.9070784716508182e-04 1.4184396119753782e-03 0.0000000000000000e+00  1.7482714022903307e-04 1.4173813781883729e-03 0.0000000000000000e+00  1.9374364416005295e-04 1.4340272290389313e-03 0.0000000000000000e+00  1.7815785937289191e-04 1.4329687645523129e-03 0.0000000000000000e+00  1.9678412603679670e-04 1.4493264881280047e-03 0.0000000000000000e+00  1.8148525276698096e-04 1.4482677863168333e-03 0.0000000000000000e+00  9.9228719200803925e-05 1.1211166344497455e-03 0.0000000000000000e+00  9.5404597403206463e-05 1.0994013622257562e-03 0.0000000000000000e+00  1.0303913861952372e-04 1.1424063680695398e-03 0.0000000000000000e+00  1.0683678487246213e-04 1.1632794536773664e-03 0.0000000000000000e+00  1.1062261825870859e-04 1.1837443548495346e-03 0.0000000000000000e+00  1.1439773382096365e-04 1.2038091048920591e-03 0.0000000000000000e+00  1.1816307784861354e-04 1.2234814082984838e-03 0.0000000000000000e+00  1.2191871034526149e-04 1.2427688693808158e-03 0.0000000000000000e+00  1.2566360684753856e-04 1.2616792694863288e-03 0.0000000000000000e+00  1.2939664497306413e-04 1.2802207028405393e-03 0.0000000000000000e+00  1.3311727697060477e-04 1.2984015024326953e-03 0.0000000000000000e+00  1.3682533452344565e-04 1.3162300890544442e-03 0.0000000000000000e+00  1.4052097631857128e-04 1.3337148285430106e-03 0.0000000000000000e+00  1.4420489800463519e-04 1.3508639046062362e-03 0.0000000000000000e+00  1.4787797806574768e-04 1.3676852678062171e-03 0.0000000000000000e+00  1.5154054028386743e-04 1.3841867157852121e-03 0.0000000000000000e+00  1.5519220924771235e-04 1.4003760435153403e-03 0.0000000000000000e+00  1.5883255944418518e-04 1.4162611279757034e-03 0.0000000000000000e+00  1.6246147988730131e-04 1.4318499055481573e-03 0.0000000000000000e+00  1.6607894972334197e-04 1.4471503245655137e-03 0.0000000000000000e+00  1.6968492245276505e-04 1.4621703145428950e-03 0.0000000000000000e+00  8.2351422851867113e-05 1.1029389165901672e-03 0.0000000000000000e+00  8.7263900728204013e-05 1.1240586711147667e-03 0.0000000000000000e+00  9.2160497171080480e-05 1.1448424733838454e-03 0.0000000000000000e+00  9.7031861293598345e-05 1.1652947771794255e-03 0.0000000000000000e+00  1.0186950116564303e-04 1.1854192073299126e-03 0.0000000000000000e+00  1.0666581158983463e-04 1.2052188398087231e-03 0.0000000000000000e+00  1.1141400859806927e-04 1.2246965523659188e-03 0.0000000000000000e+00  1.1610814997971842e-04 1.2438551984975707e-03 0.0000000000000000e+00  1.2074334556758601e-04 1.2626976345040588e-03 0.0000000000000000e+00  1.2531595203328137e-04 1.2812268788657687e-03 0.0000000000000000e+00  1.2982354523067961e-04 1.2994462910794291e-03 0.0000000000000000e+00  1.3426473030743796e-04 1.3173595716037695e-03 0.0000000000000000e+00  1.3863888280563945e-04 1.3349707144009399e-03 0.0000000000000000e+00  1.4294580248812332e-04 1.3522840575013481e-03 0.0000000000000000e+00  1.4718534358118798e-04 1.3693043027135786e-03 0.0000000000000000e+00  1.5135720727414844e-04 1.3860363876291321e-03 0.0000000000000000e+00  1.5546096866549637e-04 1.4024853110994808e-03 0.0000000000000000e+00  1.5949618816825869e-04 1.4186560804149769e-03 0.0000000000000000e+00  1.6346247585695669e-04 1.4345536935613549e-03 0.0000000000000000e+00  1.6735955102466617e-04 1.4501830387660870e-03 0.0000000000000000e+00  1.7118734869419618e-04 1.4655487880370114e-03 0.0000000000000000e+00  7.1794642779262444e-05 1.1051328270520011e-03 0.0000000000000000e+00  7.7654296480475355e-05 1.1258291912627678e-03 0.0000000000000000e+00  8.3481798040693352e-05 1.1462774550249127e-03 0.0000000000000000e+00  8.9259798109675889e-05 1.1664761554127285e-03 0.0000000000000000e+00  9.4972850348821534e-05 1.1864228664129502e-03 0.0000000000000000e+00  1.0060754191983634e-04 1.2061146730993301e-03 0.0000000000000000e+00  1.0615259588952240e-04 1.2255484572186229e-03 0.0000000000000000e+00  1.1159894588561390e-04 1.2447210830817978e-03 0.0000000000000000e+00  1.1693970857157060e-04 1.2636297041768768e-03 0.0000000000000000e+00  1.2217000701703420e-04 1.2822721197507164e-03 0.0000000000000000e+00  1.2728664146043935e-04 1.3006469896111596e-03 0.0000000000000000e+00  1.3228764730395084e-04 1.3187539076855838e-03 0.0000000000000000e+00  1.3717182629462856e-04 1.3365934066017597e-03 0.0000000000000000e+00  1.4193834824435808e-04 1.3541668467532601e-03 0.0000000000000000e+00  1.4658648301923923e-04 1.3714761517461158e-03 0.0000000000000000e+00  1.5111547251229435e-04 1.3885234935341524e-03 0.0000000000000000e+00  1.5552452086982834e-04 1.4053110686666830e-03 0.0000000000000000e+00  1.5981287629981245e-04 1.4218409477613778e-03 0.0000000000000000e+00  1.6397997028742069e-04 1.4381149250467548e-03 0.0000000000000000e+00  1.6802558053762568e-04 1.4541343998618870e-03 0.0000000000000000e+00  1.7194999742405081e-04 1.4699003558955109e-03 0.0000000000000000e+00  6.3331139162101189e-05 1.1062953420239703e-03 0.0000000000000000e+00  6.9999743357297909e-05 1.1267457742532220e-03 0.0000000000000000e+00  7.6608742920936693e-05 1.1470307731886902e-03 0.0000000000000000e+00  8.3135176789318112e-05 1.1671415599713139e-03 0.0000000000000000e+00  8.9559155912498665e-05 1.1870685591613395e-03 0.0000000000000000e+00  9.5864011958072948e-05 1.2068018195267967e-03 0.0000000000000000e+00  1.0203637171564528e-04 1.2263313815807880e-03 0.0000000000000000e+00  1.0806605479086842e-04 1.2456478092330847e-03 0.0000000000000000e+00  1.1394574884045009e-04 1.2647427780105047e-03 0.0000000000000000e+00  1.1967049306141601e-04 1.2836095007821263e-03 0.0000000000000000e+00  1.2523705047085001e-04 1.3022429021236626e-03 0.0000000000000000e+00  1.3064328393798619e-04 1.3206395593741537e-03 0.0000000000000000e+00  1.3588764188723063e-04 1.3387974322839268e-03 0.0000000000000000e+00  1.4096880465746690e-04 1.3567154298728258e-03 0.0000000000000000e+00  1.4588549332906770e-04 1.3743929285084900e-03 0.0000000000000000e+00  1.5063642717914961e-04 1.3918293590925986e-03 0.0000000000000000e+00  1.5522041115704357e-04 1.4090238906827976e-03 0.0000000000000000e+00  1.5963651506437697e-04 1.4259751914994902e-03 0.0000000000000000e+00  1.6388429673353235e-04 1.4426812809367764e-03 0.0000000000000000e+00  1.6796403710563599e-04 1.4591394988960069e-03 0.0000000000000000e+00  1.7187696843204561e-04 1.4753465804735505e-03 0.0000000000000000e+00  5.6599387267142065e-05 1.1067422794867165e-03 0.0000000000000000e+00  6.3942073848550883e-05 1.1271243473746923e-03 0.0000000000000000e+00  7.1189109803289344e-05 1.1474149262046774e-03 0.0000000000000000e+00  7.8314184995198748e-05 1.1675969458954814e-03 0.0000000000000000e+00  8.5295230662059998e-05 1.1876527620319729e-03 0.0000000000000000e+00  9.2114579386890400e-05 1.2075646776929299e-03 0.0000000000000000e+00  9.8758855545133469e-05 1.2273158079432009e-03 0.0000000000000000e+00  1.0521850573007181e-04 1.2468910288486526e-03 0.0000000000000000e+00  1.1148704837308073e-04 1.2662776608933213e-03 0.0000000000000000e+00  1.1756020217624350e-04 1.2854657239501624e-03 0.0000000000000000e+00  1.2343505861275240e-04 1.3044477783381661e-03 0.0000000000000000e+00  1.2910942002150618e-04 1.3232184457768253e-03 0.0000000000000000e+00  1.3458135672152677e-04 1.3417737403119284e-03 0.0000000000000000e+00  1.3984898110981698e-04 1.3601103577470231e-03 0.0000000000000000e+00  1.4491041170856949e-04 1.3782250462577865e-03 0.0000000000000000e+00  1.4976389110192258e-04 1.3961141125872103e-03 0.0000000000000000e+00  1.5440801101327943e-04 1.4137730738974781e-03 0.0000000000000000e+00  1.5884199471490786e-04 1.4311964621214074e-03 0.0000000000000000e+00  1.6306599849044684e-04 1.4483777849777376e-03 0.0000000000000000e+00  1.6708140525945514e-04 1.4653096319638783e-03 0.0000000000000000e+00  1.7089108314067894e-04 1.4819839136108084e-03 0.0000000000000000e+00  5.1273077973985913e-05 1.1067889626127914e-03 0.0000000000000000e+00  5.9158296246132726e-05 1.1272749908899965e-03 0.0000000000000000e+00  6.6905307531145308e-05 1.1477318766536309e-03 0.0000000000000000e+00  7.4486561405059422e-05 1.1681333464794174e-03 0.0000000000000000e+00  8.1880147809708926e-05 1.1884528687727389e-03 0.0000000000000000e+00  8.9069734895526144e-05 1.2086650490471874e-03 0.0000000000000000e+00  9.6043911871003038e-05 1.2287471511622712e-03 0.0000000000000000e+00  1.0279511411224031e-04 1.2486801273871994e-03 0.0000000000000000e+00  1.0931841645001754e-04 1.2684489293863135e-03 0.0000000000000000e+00  1.1561043904911461e-04 1.2880421721929377e-03 0.0000000000000000e+00  1.2166851303569088e-04 1.3074513529984985e-03 0.0000000000000000e+00  1.2749015569354826e-04 1.3266698513467806e-03 0.0000000000000000e+00  1.3307283594726874e-04 1.3456919139333233e-03 0.0000000000000000e+00  1.3841397713501710e-04 1.3645117692388581e-03 0.0000000000000000e+00  1.4351113455495060e-04 1.3831229429767627e-03 0.0000000000000000e+00  1.4836228575693911e-04 1.4015177927716573e-03 0.0000000000000000e+00  1.5296617968150788e-04 1.4196872588859760e-03 0.0000000000000000e+00  1.5732270507032279e-04 1.4376208187618705e-03 0.0000000000000000e+00  1.6143325026264928e-04 1.4553066282208065e-03 0.0000000000000000e+00  1.6530102916600172e-04 1.4727318381469881e-03 0.0000000000000000e+00  1.6893134368016119e-04 1.4898830866433362e-03 0.0000000000000000e+00  4.7055291538531417e-05 1.1067458206103027e-03 0.0000000000000000e+00  5.5354191764111581e-05 1.1274986646517264e-03 0.0000000000000000e+00  6.3467400380776175e-05 1.1482702215132974e-03 0.0000000000000000e+00  7.1368790217957840e-05 1.1690236848406472e-03 0.0000000000000000e+00  7.9039448617612012e-05 1.1897237541335626e-03 0.0000000000000000e+00  8.6466714810078189e-05 1.2103390808948047e-03 0.0000000000000000e+00  9.3642610255701924e-05 1.2308437621505559e-03 0.0000000000000000e+00  1.0056215747740434e-04 1.2512176430693263e-03 0.0000000000000000e+00  1.0722194081879040e-04 1.2714456608071282e-03 0.0000000000000000e+00  1.1361907976854572e-04 1.2915166082124131e-03 0.0000000000000000e+00  1.1975064331083454e-04 1.3114216726779243e-03 0.0000000000000000e+00  1.2561344688869093e-04 1.3311530256174516e-03 0.0000000000000000e+00  1.3120413613106193e-04 1.3507026364202701e-03 0.0000000000000000e+00  1.3651945913356053e-04 1.3700613860597643e-03 0.0000000000000000e+00  1.4155664494867713e-04 1.3892184878066213e-03 0.0000000000000000e+00  1.4631382898985828e-04 1.4081611909814472e-03 0.0000000000000000e+00  1.5079048879608850e-04 1.4268747355190398e-03 0.0000000000000000e+00  1.5498786903588767e-04 1.4453425302352909e-03 0.0000000000000000e+00  1.5890937927147701e-04 1.4635465423509034e-03 0.0000000000000000e+00  1.6256094063153196e-04 1.4814679060553178e-03 0.0000000000000000e+00  1.6595123898920341e-04 1.4990877688584676e-03 0.0000000000000000e+00  4.3672984542152602e-05 1.1069157823897506e-03 0.0000000000000000e+00  5.2257780503774782e-05 1.1280846806968811e-03 0.0000000000000000e+00  6.0606844884722841e-05 1.1493009163559475e-03 0.0000000000000000e+00  6.8699250373688457e-05 1.1705173373002973e-03 0.0000000000000000e+00  7.6521999489492399e-05 1.1916927297742951e-03 0.0000000000000000e+00  8.4067663560106080e-05 1.2127938819439198e-03 0.0000000000000000e+00  9.1332023743974627e-05 1.2337957109124062e-03 0.0000000000000000e+00  9.8312196332798343e-05 1.2546800336040475e-03 0.0000000000000000e+00  1.0500541024753442e-04 1.2754336417847604e-03 0.0000000000000000e+00  1.1140840809153191e-04 1.2960462043621547e-03 0.0000000000000000e+00  1.1751734073895754e-04 1.3165083562984661e-03 0.0000000000000000e+00  1.2332799342683231e-04 1.3368101707161427e-03 0.0000000000000000e+00  1.2883619726315762e-04 1.3569400726387267e-03 0.0000000000000000e+00  1.3403831971552189e-04 1.3768841663826274e-03 0.0000000000000000e+00  1.3893177146095896e-04 1.3966259142414929e-03 0.0000000000000000e+00  1.4351550297564622e-04 1.4161461047158402e-03 0.0000000000000000e+00  1.4779048615269183e-04 1.4354230680491496e-03 0.0000000000000000e+00  1.5176018287419072e-04 1.4544331245553031e-03 0.0000000000000000e+00  1.5543098984332281e-04 1.4731512895609707e-03 0.0000000000000000e+00  1.5881261812748294e-04 1.4915522873223000e-03 0.0000000000000000e+00  1.6191832309899533e-04 1.5096119203709538e-03 0.0000000000000000e+00  4.0869956704295698e-05 1.1075927416744984e-03 0.0000000000000000e+00  4.9612807440933239e-05 1.1293048046092464e-03 0.0000000000000000e+00  5.8072286503489948e-05 1.1510689345704472e-03 0.0000000000000000e+00  6.6236436725729264e-05 1.1728324954050659e-03 0.0000000000000000e+00  7.4099736846379414e-05 1.1945546543605955e-03 0.0000000000000000e+00  8.1659790122405707e-05 1.2162059522735364e-03 0.0000000000000000e+00  8.8914930282936143e-05 1.2377660745094970e-03 0.0000000000000000e+00  9.5862839242861293e-05 1.2592208977598998e-03 0.0000000000000000e+00  1.0250002933868812e-04 1.2805595307190218e-03 0.0000000000000000e+00  1.0882194237752363e-04 1.3017717893520173e-03 0.0000000000000000e+00  1.1482340660837359e-04 1.3228463042528340e-03 0.0000000000000000e+00  1.2049924324077050e-04 1.3437692657331589e-03 0.0000000000000000e+00  1.2584489045787661e-04 1.3645237077823502e-03 0.0000000000000000e+00  1.3085698565895186e-04 1.3850892052548066e-03 0.0000000000000000e+00  1.3553390084977205e-04 1.4054418791617812e-03 0.0000000000000000e+00  1.3987625685696694e-04 1.4255546468280882e-03 0.0000000000000000e+00  1.4388745135689255e-04 1.4453976993798654e-03 0.0000000000000000e+00  1.4757421313495948e-04 1.4649392580949651e-03 0.0000000000000000e+00  1.5094714456219841e-04 1.4841467169545866e-03 0.0000000000000000e+00  1.5402115511330930e-04 1.5029882887134800e-03 0.0000000000000000e+00  1.5681562525041845e-04 1.5214352324534096e-03 0.0000000000000000e+00  3.8398982797525227e-05 1.1090526705290955e-03 0.0000000000000000e+00  4.7175053232052218e-05 1.1314002088619033e-03 0.0000000000000000e+00  5.5629571855267985e-05 1.1537819926708854e-03 0.0000000000000000e+00  6.3760809667501921e-05 1.1761496355253589e-03 0.0000000000000000e+00  7.1569531465312248e-05 1.1984704870133095e-03 0.0000000000000000e+00  7.9056050376008103e-05 1.2207237221205892e-03 0.0000000000000000e+00  8.6218800553153465e-05 1.2428958951560506e-03 0.0000000000000000e+00  9.3054070344818384e-05 1.2649768479191274e-03 0.0000000000000000e+00  9.9556471002307760e-05 1.2869564678435967e-03 0.0000000000000000e+00  1.0571974781384570e-04 1.3088224507081302e-03 0.0000000000000000e+00  1.1153764870722159e-04 1.3305589612396486e-03 0.0000000000000000e+00  1.1700469576192513e-04 1.3521459701369405e-03 0.0000000000000000e+00  1.2211681644680138e-04 1.3735590449489164e-03 0.0000000000000000e+00  1.2687186881739178e-04 1.3947694289035886e-03 0.0000000000000000e+00  1.3127013765767327e-04 1.4157443170773702e-03 0.0000000000000000e+00  1.3531489412484075e-04 1.4364473067851615e-03 0.0000000000000000e+00  1.3901307011554510e-04 1.4568391224309858e-03 0.0000000000000000e+00  1.4237600896300923e-04 1.4768788089741260e-03 0.0000000000000000e+00  1.4542016614631017e-04 1.4965256012775814e-03 0.0000000000000000e+00  1.4816757982340559e-04 1.5157416507900301e-03 0.0000000000000000e+00  1.5064587871819725e-04 1.5344957567377457e-03 0.0000000000000000e+00  3.6018928798013868e-05 1.1115325450849407e-03 0.0000000000000000e+00  4.4715157715475745e-05 1.1345650462952284e-03 0.0000000000000000e+00  5.3066628870444512e-05 1.1576024352231637e-03 0.0000000000000000e+00  6.1078864751430904e-05 1.1806110966320921e-03 0.0000000000000000e+00  6.8754903699816164e-05 1.2035722203333099e-03 0.0000000000000000e+00  7.6094077460474213e-05 1.2264752800028229e-03 0.0000000000000000e+00  8.3092274416049912e-05 1.2493125131789503e-03 0.0000000000000000e+00  8.9743020041362434e-05 1.2720749012893394e-03 0.0000000000000000e+00  9.6038805777113237e-05 1.2947496897477847e-03 0.0000000000000000e+00  1.0197229508910573e-04 1.3173191346206514e-03 0.0000000000000000e+00  1.0753724114237034e-04 1.3397600591909301e-03 0.0000000000000000e+00  1.1272910866361807e-04 1.3620438591789076e-03 0.0000000000000000e+00  1.1754549717841668e-04 1.3841367097211757e-03 0.0000000000000000e+00  1.2198652365248901e-04 1.4059998479328249e-03 0.0000000000000000e+00  1.2605535850682598e-04 1.4275898917105573e-03 0.0000000000000000e+00  1.2975903630724938e-04 1.4488593858920115e-03 0.0000000000000000e+00  1.3310949579516804e-04 1.4697579217095912e-03 0.0000000000000000e+00  1.3612464361241499e-04 1.4902341519384234e-03 0.0000000000000000e+00  1.3882917545259905e-04 1.5102389419825528e-03 0.0000000000000000e+00  1.4125496830510840e-04 1.5297299109963683e-03 0.0000000000000000e+00  1.4343990126679137e-04 1.5486798346915685e-03 0.0000000000000000e+00  3.3502514268090927e-05 1.1152069735020657e-03 0.0000000000000000e+00  4.2028057032038310e-05 1.1389374646271799e-03 0.0000000000000000e+00  5.0200373380007861e-05 1.1626495492702410e-03 0.0000000000000000e+00  5.8025780907734406e-05 1.1863301939939038e-03 0.0000000000000000e+00  6.5504335260747036e-05 1.2099748250132502e-03 0.0000000000000000e+00  7.2631043639380741e-05 1.2335801027122354e-03 0.0000000000000000e+00  7.9397890071215244e-05 1.2571391576203105e-03 0.0000000000000000e+00  8.5795885163522342e-05 1.2806391094321312e-03 0.0000000000000000e+00  9.1816685565765645e-05 1.3040602004938909e-03 0.0000000000000000e+00  9.7453632151390265e-05 1.3273758369828686e-03 0.0000000000000000e+00  1.0270226054639150e-04 1.3505529934201834e-03 0.0000000000000000e+00  1.0756046810379063e-04 1.3735526311180802e-03 0.0000000000000000e+00  1.1202861270387238e-04 1.3963299530681537e-03 0.0000000000000000e+