<?xml version="1.0"?>
<VTKFile type="UnstructuredGrid"  version="0.1"  >
<UnstructuredGrid>
<Piece  NumberOfPoints="640" NumberOfCells="1181">
<Points>
<DataArray  type="Float64"  NumberOfComponents="3"  format="ascii">2.973913043478261 0 0  2.990434782608696 0 0  2.990434782608696 0.01666666666666667 0  2.973913043478261 0.01666666666666667 0  3.006956521739131 0 0  3.006956521739131 0.01666666666666667 0  3.023478260869565 0 0  3.023478260869565 0.01666666666666667 0  3.04 0 0  3.04 0.01666666666666667 0  3.056521739130435 0 0  3.056521739130435 0.01666666666666667 0  3.073043478260869 0 0  3.073043478260869 0.01666666666666667 0  3.089565217391304 0 0  3.089565217391304 0.01666666666666667 0  3.106086956521739 0 0  3.106086956521739 0.01666666666666667 0  3.122608695652174 0 0  3.122608695652174 0.01666666666666667 0  3.139130434782609 0 0  3.139130434782609 0.01666666666666667 0  3.155652173913043 0 0  3.155652173913043 0.01666666666666667 0  3.172173913043478 0 0  3.172173913043478 0.01666666666666667 0  3.188695652173913 0 0  3.188695652173913 0.01666666666666667 0  3.205217391304347 0 0  3.205217391304347 0.01666666666666667 0  3.221739130434782 0 0  3.221739130434782 0.01666666666666667 0  3.238260869565217 0 0  3.238260869565217 0.01666666666666667 0  2.990434782608696 0.03333333333333333 0  2.973913043478261 0.03333333333333333 0  3.006956521739131 0.03333333333333333 0  3.023478260869565 0.03333333333333333 0  3.04 0.03333333333333333 0  3.056521739130435 0.03333333333333333 0  3.073043478260869 0.03333333333333333 0  3.089565217391304 0.03333333333333333 0  3.106086956521739 0.03333333333333333 0  3.122608695652174 0.03333333333333333 0  3.139130434782609 0.03333333333333333 0  3.155652173913043 0.03333333333333333 0  3.172173913043478 0.03333333333333333 0  3.188695652173913 0.03333333333333333 0  3.205217391304347 0.03333333333333333 0  3.221739130434782 0.03333333333333333 0  3.238260869565217 0.03333333333333333 0  3.254782608695652 0.03333333333333333 0  2.990434782608696 0.05 0  3.006956521739131 0.05 0  3.023478260869565 0.05 0  3.04 0.05 0  3.056521739130435 0.05 0  3.073043478260869 0.05 0  3.089565217391304 0.05 0  3.106086956521739 0.05 0  3.122608695652174 0.05 0  3.139130434782609 0.05 0  3.155652173913043 0.05 0  3.172173913043478 0.05 0  3.188695652173913 0.05 0  3.205217391304347 0.05 0  3.221739130434782 0.05 0  3.238260869565217 0.05 0  3.254782608695652 0.05 0  3.271304347826087 0.05 0  3.006956521739131 0.06666666666666667 0  2.990434782608696 0.06666666666666667 0  3.023478260869565 0.06666666666666667 0  3.04 0.06666666666666667 0  3.056521739130435 0.06666666666666667 0  3.073043478260869 0.06666666666666667 0  3.089565217391304 0.06666666666666667 0  3.106086956521739 0.06666666666666667 0  3.122608695652174 0.06666666666666667 0  3.139130434782609 0.06666666666666667 0  3.155652173913043 0.06666666666666667 0  3.172173913043478 0.06666666666666667 0  3.188695652173913 0.06666666666666667 0  3.205217391304347 0.06666666666666667 0  3.221739130434782 0.06666666666666667 0  3.238260869565217 0.06666666666666667 0  3.254782608695652 0.06666666666666667 0  3.271304347826087 0.06666666666666667 0  3.287826086956521 0.06666666666666667 0  3.006956521739131 0.08333333333333333 0  3.023478260869565 0.08333333333333333 0  3.04 0.08333333333333333 0  3.056521739130435 0.08333333333333333 0  3.073043478260869 0.08333333333333333 0  3.089565217391304 0.08333333333333333 0  3.106086956521739 0.08333333333333333 0  3.122608695652174 0.08333333333333333 0  3.139130434782609 0.08333333333333333 0  3.155652173913043 0.08333333333333333 0  3.172173913043478 0.08333333333333333 0  3.188695652173913 0.08333333333333333 0  3.205217391304347 0.08333333333333333 0  3.221739130434782 0.08333333333333333 0  3.238260869565217 0.08333333333333333 0  3.254782608695652 0.08333333333333333 0  3.271304347826087 0.08333333333333333 0  3.287826086956521 0.08333333333333333 0  3.304347826086957 0.08333333333333333 0  3.023478260869565 0.1 0  3.006956521739131 0.1 0  3.04 0.1 0  3.056521739130435 0.1 0  3.073043478260869 0.1 0  3.089565217391304 0.1 0  3.106086956521739 0.1 0  3.122608695652174 0.1 0  3.139130434782609 0.1 0  3.155652173913043 0.1 0  3.172173913043478 0.1 0  3.188695652173913 0.1 0  3.205217391304347 0.1 0  3.221739130434782 0.1 0  3.238260869565217 0.1 0  3.254782608695652 0.1 0  3.271304347826087 0.1 0  3.287826086956521 0.1 0  3.304347826086957 0.1 0  3.320869565217391 0.1 0  3.023478260869565 0.1166666666666667 0  3.04 0.1166666666666667 0  3.056521739130435 0.1166666666666667 0  3.073043478260869 0.1166666666666667 0  3.089565217391304 0.1166666666666667 0  3.106086956521739 0.1166666666666667 0  3.122608695652174 0.1166666666666667 0  3.139130434782609 0.1166666666666667 0  3.155652173913043 0.1166666666666667 0  3.172173913043478 0.1166666666666667 0  3.188695652173913 0.1166666666666667 0  3.205217391304347 0.1166666666666667 0  3.221739130434782 0.1166666666666667 0  3.238260869565217 0.1166666666666667 0  3.254782608695652 0.1166666666666667 0  3.271304347826087 0.1166666666666667 0  3.287826086956521 0.1166666666666667 0  3.304347826086957 0.1166666666666667 0  3.320869565217391 0.1166666666666667 0  3.337391304347826 0.1166666666666667 0  3.04 0.1333333333333333 0  3.023478260869565 0.1333333333333333 0  3.056521739130435 0.1333333333333333 0  3.073043478260869 0.1333333333333333 0  3.089565217391304 0.1333333333333333 0  3.106086956521739 0.1333333333333333 0  3.122608695652174 0.1333333333333333 0  3.139130434782609 0.1333333333333333 0  3.155652173913043 0.1333333333333333 0  3.172173913043478 0.1333333333333333 0  3.188695652173913 0.1333333333333333 0  3.205217391304347 0.1333333333333333 0  3.221739130434782 0.1333333333333333 0  3.238260869565217 0.1333333333333333 0  3.254782608695652 0.1333333333333333 0  3.271304347826087 0.1333333333333333 0  3.287826086956521 0.1333333333333333 0  3.304347826086957 0.1333333333333333 0  3.320869565217391 0.1333333333333333 0  3.337391304347826 0.1333333333333333 0  3.353913043478261 0.1333333333333333 0  3.04 0.15 0  3.056521739130435 0.15 0  3.073043478260869 0.15 0  3.089565217391304 0.15 0  3.106086956521739 0.15 0  3.122608695652174 0.15 0  3.139130434782609 0.15 0  3.155652173913043 0.15 0  3.172173913043478 0.15 0  3.188695652173913 0.15 0  3.205217391304347 0.15 0  3.221739130434782 0.15 0  3.238260869565217 0.15 0  3.254782608695652 0.15 0  3.271304347826087 0.15 0  3.287826086956521 0.15 0  3.304347826086957 0.15 0  3.320869565217391 0.15 0  3.337391304347826 0.15 0  3.353913043478261 0.15 0  3.370434782608696 0.15 0  3.056521739130435 0.1666666666666667 0  3.073043478260869 0.1666666666666667 0  3.089565217391304 0.1666666666666667 0  3.106086956521739 0.1666666666666667 0  3.122608695652174 0.1666666666666667 0  3.139130434782609 0.1666666666666667 0  3.155652173913043 0.1666666666666667 0  3.172173913043478 0.1666666666666667 0  3.188695652173913 0.1666666666666667 0  3.205217391304347 0.1666666666666667 0  3.221739130434782 0.1666666666666667 0  3.238260869565217 0.1666666666666667 0  3.254782608695652 0.1666666666666667 0  3.271304347826087 0.1666666666666667 0  3.287826086956521 0.1666666666666667 0  3.304347826086957 0.1666666666666667 0  3.320869565217391 0.1666666666666667 0  3.337391304347826 0.1666666666666667 0  3.353913043478261 0.1666666666666667 0  3.370434782608696 0.1666666666666667 0  3.386956521739131 0.1666666666666667 0  3.073043478260869 0.1833333333333333 0  3.089565217391304 0.1833333333333333 0  3.106086956521739 0.1833333333333333 0  3.122608695652174 0.1833333333333333 0  3.139130434782609 0.1833333333333333 0  3.155652173913043 0.1833333333333333 0  3.172173913043478 0.1833333333333333 0  3.188695652173913 0.1833333333333333 0  3.205217391304347 0.1833333333333333 0  3.221739130434782 0.1833333333333333 0  3.238260869565217 0.1833333333333333 0  3.254782608695652 0.1833333333333333 0  3.271304347826087 0.1833333333333333 0  3.287826086956521 0.1833333333333333 0  3.304347826086957 0.1833333333333333 0  3.320869565217391 0.1833333333333333 0  3.337391304347826 0.1833333333333333 0  3.353913043478261 0.1833333333333333 0  3.370434782608696 0.1833333333333333 0  3.386956521739131 0.1833333333333333 0  3.403478260869565 0.1833333333333333 0  3.089565217391304 0.2 0  3.106086956521739 0.2 0  3.122608695652174 0.2 0  3.139130434782609 0.2 0  3.155652173913043 0.2 0  3.172173913043478 0.2 0  3.188695652173913 0.2 0  3.205217391304347 0.2 0  3.221739130434782 0.2 0  3.238260869565217 0.2 0  3.254782608695652 0.2 0  3.271304347826087 0.2 0  3.287826086956521 0.2 0  3.304347826086957 0.2 0  3.320869565217391 0.2 0  3.337391304347826 0.2 0  3.353913043478261 0.2 0  3.370434782608696 0.2 0  3.386956521739131 0.2 0  3.403478260869565 0.2 0  3.419999999999999 0.2 0  3.106086956521739 0.2166666666666667 0  3.122608695652174 0.2166666666666667 0  3.139130434782609 0.2166666666666667 0  3.155652173913043 0.2166666666666667 0  3.172173913043478 0.2166666666666667 0  3.188695652173913 0.2166666666666667 0  3.205217391304347 0.2166666666666667 0  3.221739130434782 0.2166666666666667 0  3.238260869565217 0.2166666666666667 0  3.254782608695652 0.2166666666666667 0  3.271304347826087 0.2166666666666667 0  3.287826086956521 0.2166666666666667 0  3.304347826086957 0.2166666666666667 0  3.320869565217391 0.2166666666666667 0  3.337391304347826 0.2166666666666667 0  3.353913043478261 0.2166666666666667 0  3.370434782608696 0.2166666666666667 0  3.386956521739131 0.2166666666666667 0  3.403478260869565 0.2166666666666667 0  3.419999999999999 0.2166666666666667 0  3.436521739130435 0.2166666666666667 0  3.122608695652174 0.2333333333333333 0  3.139130434782609 0.2333333333333333 0  3.155652173913043 0.2333333333333333 0  3.172173913043478 0.2333333333333333 0  3.188695652173913 0.2333333333333333 0  3.205217391304347 0.2333333333333333 0  3.221739130434782 0.2333333333333333 0  3.238260869565217 0.2333333333333333 0  3.254782
[...]
<CellData  Scalars="rho_bar"> 
<DataArray  type="Float64"  Name="rho_bar"  format="ascii">7.7850014254235611e-01   7.5478311320513602e-01   7.7602428757088127e-01   7.5430417029978380e-01   7.7308698239833529e-01   7.5370451796604576e-01   7.6999714894731375e-01   7.5315942710679873e-01   7.6651986165972452e-01   7.5258240030687074e-01   7.5979941071451740e-01   7.5010386313382860e-01   7.4379262206553609e-01   7.4059008198165921e-01   7.0957733681921720e-01   7.1625714101382953e-01   6.4458902996083878e-01   6.6650405244156574e-01   5.3500649865021099e-01   5.7809297023257844e-01   3.8033089067045145e-01   4.4314338298439609e-01   2.1755380323740117e-01   2.8053747250475164e-01   1.0156622963869300e-01   1.4247300227801823e-01   4.3287107486710968e-02   6.2416082258668251e-02   1.8878391158444471e-02   2.6722819705826240e-02   8.8944650991633987e-03   1.2130374184134965e-02   6.4946811794497961e-01   5.5637167546379684e-01   6.5969046452681068e-01   5.7436579721341596e-01   6.7149600591265002e-01   5.9564276539900052e-01   6.8410812809930521e-01   6.1902460314013241e-01   6.9603809299098984e-01   6.4236396025125841e-01   7.0344229931158475e-01   6.6196173977563622e-01   7.0007368471594056e-01   6.7180125941186009e-01   6.7871447768839621e-01   6.6531387180735957e-01   6.3081188395730015e-01   6.3616216299524364e-01   5.4663533459194957e-01   5.7710352957666300e-01   4.2168927128063904e-01   4.8133611679450911e-01   2.7266909212224344e-01   3.5086086508186964e-01   1.4308885160327228e-01   2.1137484256901326e-01   6.4211572319441232e-02   1.0457678189425178e-01   2.7571865668036558e-02   4.5911565503656188e-02   1.2392113204180984e-02   1.9912150426486318e-02   9.1832011564704549e-03   3.5818509192872044e-01   3.9505824474245960e-01   2.8393866396188655e-01   4.4004231008905470e-01   3.3271092071147756e-01   4.8986954364991619e-01   3.9139771843754884e-01   5.3855906068111659e-01   4.5372142608999194e-01   5.7841123208240053e-01   5.1016357650785371e-01   6.0221586708345765e-01   5.5122820221107938e-01   6.0590954707238553e-01   5.7166709999546061e-01   5.8780018127026279e-01   5.7123105870668689e-01   5.4591604147186312e-01   5.5113240441483291e-01   4.7639203854629292e-01   5.1019925310373859e-01   3.7535790240826067e-01   4.4246089129447991e-01   2.5136640074157168e-01   3.4153947613081009e-01   1.3674321377003915e-01   2.1915704539915606e-01   6.2192770657426490e-02   1.1295308932338043e-01   2.6309486743685995e-02   4.9391716477362728e-02   1.1558620448932307e-02   2.0682149136525222e-02   9.2034817571252890e-03   1.6003870254505700e-01   1.0466106415310412e-01   2.1352068119854237e-01   1.4739486670752164e-01   2.8351628795643707e-01   2.0971603338253189e-01   3.6056012351585576e-01   2.8710221339760289e-01   4.2853681016722422e-01   3.6351977786917439e-01   4.7534825028835598e-01   4.2147307274568990e-01   4.9952599173929119e-01   4.5496559758700228e-01   5.0714712967255537e-01   4.7028421177781915e-01   5.0496305315374523e-01   4.7779481531964374e-01   4.9404192267339514e-01   4.8355921351036324e-01   4.6467477475336588e-01   4.8259852013197302e-01   3.9950983647699823e-01   4.5702991253578623e-01   2.9208676132863359e-01   3.8635902864948551e-01   1.6947241113625816e-01   2.6997886850429281e-01   7.7861609341426080e-02   1.4670439833764032e-01   3.1613468072142437e-02   6.3832632878000201e-02   1.3163537214270143e-02   2.5499476352280729e-02   1.0758136034523276e-02   6.7690029193235829e-02   1.0858691716717300e-01   7.8541293548697752e-02   1.7237031575726428e-01   1.3218437710114647e-01   2.5107133312183272e-01   2.0658164440487475e-01   3.2087565981930150e-01   2.8021636843477266e-01   3.6328415346322240e-01   3.2716355277828230e-01   3.8011608528313351e-01   3.4263312817660058e-01   3.8642298161882882e-01   3.4197644277928230e-01   3.9829086332050984e-01   3.4532033328868189e-01   4.2411586404050444e-01   3.6707143285461341e-01   4.5659122778553779e-01   4.0887868696886692e-01   4.7125315422877617e-01   4.5293490174020379e-01   4.4033541372545504e-01   4.6809442923158939e-01   3.5006320922931905e-01   4.2831189166937772e-01   2.1970287044969006e-01   3.2607024091155368e-01   1.0511340007152785e-01   1.9182494958419058e-01   4.2013353723817509e-02   8.6636353639899355e-02   1.6655041507861866e-02   3.4025197203673876e-02   1.3675981644530566e-02   8.0856125490979189e-02   6.5046123751425947e-02   1.4394699312709286e-01   1.2206180590003214e-01   2.2057466898583464e-01   1.9941276771589589e-01   2.7556690474734963e-01   2.6199666821111828e-01   2.8766180486382986e-01   2.7704525959273607e-01   2.6934272410141818e-01   2.5092423585769291e-01   2.4688922273228786e-01   2.1425709870467544e-01   2.4069219491106730e-01   1.9166467694859107e-01   2.6264875837743540e-01   1.9509519324914229e-01   3.1623034039216708e-01   2.3128383393923199e-01   3.8776223335890520e-01   3.0026002738609620e-01   4.4394322061897745e-01   3.8212171095250369e-01   4.5120976996148388e-01   4.3921917870767724e-01   3.9118408884876560e-01   4.3944393982646601e-01   2.7088479630445111e-01   3.6794274111721537e-01   1.4124786958314087e-01   2.4054726300487639e-01   5.8138047760364395e-02   1.1794842054629227e-01   2.2295015787307717e-02   4.7112640467282960e-02   1.8180176709185192e-02   9.3236278379634996e-02   1.7044426143390279e-01   1.5970644932905842e-01   2.4767521953354463e-01   2.4520420238957907e-01   2.7513777097152770e-01   2.8470941558553498e-01   2.4023538665544503e-01   2.5141140356473923e-01   1.7987275740086936e-01   1.7924340154372265e-01   1.3202271280788400e-01   1.1813843155416112e-01   1.0829548136187285e-01   8.4744931206878926e-02   1.0835538686783174e-01   7.4274368227203610e-02   1.3457028388651376e-01   8.3447924411355498e-02   1.9361341564657283e-01   1.1703654234462266e-01   2.8389879248441829e-01   1.8472688452226210e-01   3.7782175991780059e-01   2.8414100940261167e-01   4.3122587572852389e-01   3.8142196986261234e-01   4.1308156935754348e-01   4.2882157296262557e-01   3.1875803555866444e-01   3.9785272646114817e-01   1.8551643439937412e-01   2.9100419422192275e-01   8.1059830313084585e-02   1.5783618180132830e-01   3.0542417354465903e-02   6.5497964429710301e-02   2.4524557356496942e-02   2.4143679340568622e-01   2.4022699470675468e-01   3.0398492175122127e-01   3.1477979669468725e-01   2.8369973102543417e-01   3.0568078824815526e-01   1.9746826633217263e-01   2.1746841999667252e-01   1.1222840674248438e-01   1.1846411148734678e-01   6.3060495713016029e-02   5.9558978027778479e-02   4.1831878045424216e-02   3.4442292785761046e-02   3.5933652433272539e-02   2.5749679321669751e-02   4.0861226852104360e-02   2.5646493024357394e-02   5.9713410070287062e-02   3.3566867852769015e-02   1.0357436644376926e-01   5.5255215239060282e-02   1.8702698925028735e-01   1.0502385430285756e-01   3.0276264814449683e-01   1.9928296999349784e-01   3.9989922969557729e-01   3.2194441940366630e-01   4.2569415331254240e-01   4.1204225855718846e-01   3.6313282667502034e-01   4.2107600384725224e-01   2.3488632574717702e-01   3.3963102573365139e-01   1.1041106423426607e-01   2.0298665341698580e-01   4.1668585609025643e-02   8.8830644032040620e-02   3.2907273556944908e-02   3.2775893544458412e-01   3.4014974833503880e-01   3.5495363227572374e-01   2.5795176993017899e-01   2.7953901366431710e-01   1.4104764131888672e-01   1.5664364860067068e-01   6.2533042660732355e-02   6.7094564399380982e-02   2.8673333233725375e-02   2.8029471480348109e-02   1.6478679219452286e-02   1.4373792662255906e-02   1.2656253257516577e-02   9.8366569628032304e-03   1.2919562559106987e-02   8.9485845235285771e-03   1.7089197868084140e-02   1.0545021484988494e-02   2.8455788735337322e-02   1.5702200687614160e-02   5.7007866039952053e-02   2.8942502604674670e-02   1.2362564898270044e-01   6.3168767164649767e-02   2.4212331751104796e-01   1.4311072599920827e-01   3.6955480165364329e-01   2.7368959371804313e-01   4.3268855037989062e-01   3.9415031085638202e-01   4.0015729246822951e-01   4.3648831151809186e-01   2.8310532071399952e-01   3.8029149202299289e-01   1.4415198275182173e-01   2.4811656472544952e-01   5.5956061334641892e-02   1.1633587253101950e-01   4.3869577080664079e-02   3.0903896564335176e-01   1.8448653557048497e-01   1.9682196803851737e-01   8.0027104269717181e-02   8.6724114451300960e-02   3.0273048838775175e-02   3.1865135149371705e-02   1.2868597001639124e-02   1.2662911188023204e-02   7.1196198096457608e-03   6.4452465450749409e-03   5.2416671823354820e-03   4.3443207705774183e-03   5.0029225632223073e-03   3.7854620121755803e-03   6.0089827113315054e-03   4.1362903408452209e-03   8.9061840649341840e-03   5.5394426081192280e-03   1.6177925213228434e-02   9.0079505887194090e-03   3.5572595530955063e-02   1.7828400172792327e-02   8.7384478720352710e-02   4.2320260070911948e-02   1.9752576821138021e-01   1.0767146869201773e-01   3.3968616174135269e-01   2.3365774678724577e-01   4.3079720334247257e-01   3.7111245888822286e-01   4.2523895495341196e-01   4.3992745706236763e-01   3.2514517232575102e-01   4.0900306865414016e-01   1.8087173871806056e-01   2.9012516931833138e-01   7.4498486107327927e-02   1.4857006124508182e-01   5.8885567539174594e-02   9.7339855369644068e-02   3.5986895718918360e-02   3.7361852598393051e-02   1.3277042575711506e-02   1.3526485140034645e-02   5.9136282028455752e-03   5.7773028118980321e-03   3.4092333912100837e-03   3.1480997335138605e-03   2.5231288324622501e-03   2.1822242396897121e-03   2.3320909884964585e-03   1.8782433950067406e-03   2.6234319386976620e-03   1.9598625184583294e-03   3.5266484079418858e-03   2.4303790631161680e-03   5.6342575506886389e-03   3.5424249956855090e-03   1.0787189973927601e-02   6.0850252878659732e-03   2.4876479993484857e-02   1.2494567817838087e-02   6.5160315820457587e-02   3.0693937805184281e-02   1.6110956910619562e-01   8.2565372798541536e-02   3.0437836172153165e-01   1.9499878155236219e-01   4.1590794864936464e-01   3.3772282208960791e-01   4.3695065425235946e-01   4.2923711799142689e-01   3.6024080005708675e-01   4.2600629247646155e-01   2.2128683721241940e-01   3.2929193817326569e-01   9.9623464382075130e-02   1.8747840360057030e-01   8.0360944526612119e-02   1.4130103414543476e-02   5.7695444320122399e-03   5.7236271130061325e-03   2.8894604669184730e-03   2.8007256741250735e-03   1.7957392460404931e-03   1.6765016708730044e-03   1.3645948413183609e-03   1.2131290530389388e-03   1.2465032807238007e-03   1.0471218566897671e-03   1.3453850123274760e-03   1.0636235925202849e-03   1.6882636228174775e-03   1.2520375946820145e-03   2.4399373378697835e-03   1.6860863152183599e-03   4.0724751093027048e-03   2.5873364825737982e-03   7.9683400827631774e-03   4.5631699369479738e-03   1.8518649157330116e-02   9.4209297057091038e-03   4.9135162824580240e-02   2.2973576782085028e-02   1.2722487264817375e-01   6.2218057199954824e-02   2.6083161780400016e-01   1.5522683993974898e-01   3.8765956116424533e-01   2.9397621428670212e-01   4.3722578746866780e-01   4.0621125515620482e-01   3.8989836424044716e-01   4.3373816914803642e-01   2.6631036264979874e-01   3.6612668607538684e-01   1.3361212384428656e-01   2.3360530353959158e-01   1.1024167084513031e-01   2.6947182229162306e-03   1.5337501837824287e-03   1.4808581707630990e-03   1.0277351247493295e-03   9.6661138111947748e-04   8.0540147273799737e-04   7.2937196296654681e-04   7.3441229023085599e-04   6.3506558688176788e-04   7.7237475289095600e-04   6.3511865627499783e-04   9.2453160755074401e-04   7.2174506020879594e-04   1.2443564678611724e-03   9.1960003114181928e-04   1.8748359440469784e-03   1.3017945480156754e-03   3.1834722320948235e-03   2.0478311169939709e-03   6.1953805593715685e-03   3.6192581380826510e-03   1.4047029002285497e-02   7.3244958818652998e-03   3.6366776232845108e-02   1.7213989767162336e-02   9.5946359950923960e-02   4.5497807898846165e-02   2.1313058023494627e-01   1.1788049574398682e-01   3.4968495816709250e-01   2.4562411252574329e-01   4.2836139702950304e-01   3.7424287816782009e-01   4.1401535663765193e-01   4.3317013528493503e-01   3.1336721788361588e-01   3.9812438580601528e-01   1.7590554567162259e-01   2.8284881919828309e-01   1.4766153237898039e-01   8.8494649072731854e-04   6.3077304688933568e-04   5.9706974411404348e-04   5.0834599725737835e-04   4.6677364405732448e-04   4.6475966460812643e-04   4.1058659482616413e-04   4.8074407991872552e-04   4.0692634692821662e-04   5.5682911974648899e-04   4.5122262432295644e-04   7.1274615334142603e-04   5.5270389581143088e-04   9.9894249873190306e-04   7.3899620700701202e-04   1.5315032040932181e-03   1.0724374363917978e-03   2.5906555566779410e-03   1.6942716277465824e-03   4.9177218649681760e-03   2.9488132936358745e-03   1.0676320462285060e-02   5.7629858065311483e-03   2.6500476094245252e-02   1.2893143144426923e-02   7.0203740067340772e-02   3.2842459942707826e-02   1.6782659800566876e-01   8.7045736790678438e-02   3.0576693609962530e-01   1.9819247441483259e-01   4.1057032612820954e-01   3.3516390964572818e-01   4.2964544191773663e-01   4.2306472518805782e-01   3.5596901524862029e-01   4.2070489380056397e-01   2.2165273948468422e-01   3.2787253631428842e-01   1.8870233628220104e-01   4.1107445549059141e-04   3.3928039921461754e-04   3.1547811671717955e-04   3.1159304376212222e-04   2.8039236896211918e-04   3.1877868229551661e-04   2.7644272281146081e-04   3.6046500645053550e-04   3.0103887406113001e-04   4.4475202010881584e-04   3.5797933314615088e-04   5.9185503559455949e-04   4.5894274717156013e-04   8.4456377075478909e-04   6.2873932220918469e-04   1.2946834836985478e-03   9.1834333683887218e-04   2.1530735676457084e-03   1.4374136002254952e-03   3.9520036958833171e-03   2.4415950254391889e-03   8.1858536244527845e-03   4.5902157343845505e-03   1.9417795371280740e-02   9.7798989817149632e-03   5.0897638912745548e-02   2.3887020352057153e-02   1.2831265476089329e-01   6.3377927053805974e-02   2.5859890268301927e-01   1.5472761794807544e-01   3.8334280463825382e-01   2.9085379295080638e-01   4.3371872773366954e-01   4.0253731291371636e-01   3.8832111263139779e-01   4.3098251637208107e-01   2.6555590135424256e-01   3.6395756667257118e-01   2.3089980724678361e-01   2.3912097880237365e-04   2.2087737041621530e-04   2.0274161945733389e-04   2.2423533389783414e-04   1.9933277142142235e-04   2.4875579394647944e-04   2.1390705815676610e-04   2.9808067966550779e-04   2.4816063988105725e-04   3.8122502002214416e-04   3.0752622106544934e-04   5.1615142073010935e-04   4.0307677137281094e-04   7.3808259240034887e-04   5.5595679980077045e-04   1.1192540119829592e-03   8.0745138694561383e-04   1.8193686990174852e-03   1.2431157741984136e-03   3.2270083860273528e-03   2.0555237160112603e-03   6.3961544989367559e-03   3.7237771693415470e-03   1.4474253950129544e-02   7.5777285849190331e-03   3.6912732634544934e-02   1.7655947027343143e-02   9.5913443168482063e-02   4.5962207691730136e-02   2.1180789515855686e-01   1.1780814000029688e-01   3.4746826710958045e-01   2.4460105147188793e-01   4.2536485962580911e-01   3.7195425062012455e-01   4.0937318413573059e-01   4.2888377648649323e-01   3.0679620497939269e-01   3.9110867992132320e-01   2.7476713546173376e-01   1.6739846452348380e-04   1.6897796518088566e-04   1.5491616178199473e-04   1.8424652358153595e-04   1.6402307633203787e-04   2.1497794430870568e-04   1.8582020887953851e-04   2.6558256866656668e-04   2.2305750324752129e-04   3.4448083553008081e-04   2.8119051066760668e-04   4.6710426284859210e-04   3.7008669771727940e-04   6.6243828923827298e-04   5.0763151300061077e-04   9.8805566105678662e-04   7.2760403798357535e-04   1.5673794727487566e-03   1.0979978510125324e-03   2.6906119253690412e-03   1.7671744715412022e-03   5.1147378355033048e-03   3.0911574223428892e-03   1.1026219328417757e-02   6.0195463833450152e-03   2.7084288093143179e-02   1.3355856221446926e-02   7.1087612878450723e-02   3.3693069314197077e-02   1.6854429073747446e-01   8.8396077540276896e-02   3.0441756903287542e-01   1.9883929585235469e-01   4.0539372199672585e-01   3.3230790552660672e-01   4.2045156188926464e-01   4.1541050601912827e-01   3.4524403261945685e-01   4.0949154565564289e-01   3.1762714127273833e-01   1.3981421021734257e-04   1.4979420333626191e-04   1.3954756290999326e-04   1.6997037320734068e-04   1.5410936628735823e-04   2.0268765242189988e-04   1.7877432578664127e-04   2.5229350082960338e-04   2.1647904454067079e-04   3.2636054527211721e-04   2.7232667330163941e-04   4.3817506491140976e-04   3.5505171322362773e-04   6.1197892323468076e-04   4.7998770853897383e-04   8.9466539084685217e-04   6.7536042808511213e-04   1.3838499212427250e-03   9.9650149399956619e-04   2.3012215691395293e-03   1.5605018416698592e-03   4.2033556952205892e-03   2.6385230262594198e-03   8.6460473235808830e-03   4.9268743609119422e-03   2.0339837117109145e-02   1.0415886531392639e-02   5.2648733860894963e-02   2.5173762038905801e-02   1.3013886232264435e-01   6.5555798428497444e-02   2.5674683643561325e-01   1.5583556030026266e-01   3.7488696330286730e-01   2.8614096075303658e-01   4.2073802479492062e-01   3.9081341805054015e-01   3.7601968792340068e-01   4.1649307728890061e-01   3.5329883869098511e-01   1.3817242164810179e-04   1.5207032548076086e-04   1.4637569739852220e-04   1.7438437526114944e-04   1.6356192213332594e-04   2.0756610180062258e-04   1.8945544000409026e-04   2.5572576041852654e-04   2.2695488072079284e-04   3.2570146417058491e-04   2.8080684008079831e-04   4.2915507743477584e-04   3.5887456998052531e-04   5.8686191851029846e-04   4.7463223592246283e-04   8.3801139623003516e-04   6.5231075731802461e-04   1.2618662267948365e-03   9.3819617883163405e-04   2.0326168969448067e-03   1.4273550577107250e-03   3.5719028467030003e-03   2.3324918567712511e-03   7.0127533592442273e-03   4.1784832410961727e-03   1.5667506884777867e-02   8.3995919689876276e-03   3.9057779616238006e-02   1.9211322684755998e-02   9.7940384858642218e-02   4.8390543630816761e-02   2.0836434107175614e-01   1.1846908625250106e-01   3.3458357959503682e-01   2.3681832004785228e-01   4.0781786375952334e-01   3.5478669534854840e-01   3.9493935055985974e-01   4.0972572964611886e-01   3.7866893329188789e-01   1.5860292252147133e-04   1.7465387033769472e-04   1.7551129400872575e-04   1.9819501186465146e-04   1.9434793306662867e-04   2.3167974961928043e-04   2.2118953048412052e-04   2.7902354619021728e-04   2.5889106132099301e-04   3.4655284882250536e-04   3.1196908214116669e-04   4.4481321455974135e-04   3.8772712957597905e-04   5.9217356565466968e-04   4.9841094037647983e-04   8.2243734701504558e-04   6.6554212912714288e-04   1.2020598007462357e-03   9.2917521299890450e-04   1.8722483971911519e-03   1.3690993508967241e-03   3.1608873755044151e-03   2.1572916107917696e-03   5.9052390931118512e-03   3.6988269852602979e-03   1.2432964563668521e-02   7.0412318485437051e-03   2.9376005067985985e-02   1.5116135997208237e-02   7.2769199397148751e-02   3.6147535089072307e-02   1.6299248057044877e-01   8.8359167165401695e-02   2.8624935620632658e-01   1.8808345043931912e-01   3.8114168133456061e-01   3.0875134685667477e-01   4.0130148730251541e-01   3.8908583433630550e-01   3.9299570340547330e-01   2.0654982908678945e-04   2.2435051800319977e-04   2.3613047460910303e-04   2.4929638540324500e-04   2.5673512566936306e-04   2.8388088971790539e-04   2.8521046493219061e-04   3.3196200332632038e-04   3.2446624586396800e-04   3.9963069138289548e-04   3.7899050852389167e-04   4.9682431032650981e-04   4.5588506767908391e-04   6.4046289923191642e-04   5.6679872558927874e-04   8.6089274119487743e-04   7.3171640381909880e-04   1.2159780977040965e-03   9.8681215582769178e-04   1.8241154894213265e-03   1.4017708761707632e-03   2.9476310945336860e-03   2.1207094753042080e-03   5.2206061686604919e-03   3.4664480861598154e-03   1.0311316953112628e-02   6.2271462494451375e-03   2.2815232452158656e-02   1.2486265824952415e-02   5.4305031697795013e-02   2.7907642321837095e-02   1.2388844235475549e-01   6.58831126