<?xml version="1.0"?>
<VTKFile type="UnstructuredGrid"  version="0.1"  >
<UnstructuredGrid>
<Piece  NumberOfPoints="611" NumberOfCells="1123">
<Points>
<DataArray  type="Float64"  NumberOfComponents="3"  format="ascii">1.883478260869565 0.01666666666666667 0  1.9 0.01666666666666667 0  1.9 0.03333333333333333 0  1.883478260869565 0.03333333333333333 0  1.916521739130435 0.03333333333333333 0  1.9 0.05 0  1.883478260869565 0.05 0  1.916521739130435 0.05 0  1.933043478260869 0.05 0  1.9 0.06666666666666667 0  1.883478260869565 0.06666666666666667 0  1.916521739130435 0.06666666666666667 0  1.933043478260869 0.06666666666666667 0  1.949565217391304 0.06666666666666667 0  1.9 0.08333333333333333 0  1.883478260869565 0.08333333333333333 0  1.916521739130435 0.08333333333333333 0  1.933043478260869 0.08333333333333333 0  1.949565217391304 0.08333333333333333 0  1.966086956521739 0.08333333333333333 0  1.9 0.1 0  1.883478260869565 0.1 0  1.916521739130435 0.1 0  1.933043478260869 0.1 0  1.949565217391304 0.1 0  1.966086956521739 0.1 0  1.982608695652174 0.1 0  1.9 0.1166666666666667 0  1.883478260869565 0.1166666666666667 0  1.916521739130435 0.1166666666666667 0  1.933043478260869 0.1166666666666667 0  1.949565217391304 0.1166666666666667 0  1.966086956521739 0.1166666666666667 0  1.982608695652174 0.1166666666666667 0  1.999130434782608 0.1166666666666667 0  1.9 0.1333333333333333 0  1.883478260869565 0.1333333333333333 0  1.916521739130435 0.1333333333333333 0  1.933043478260869 0.1333333333333333 0  1.949565217391304 0.1333333333333333 0  1.966086956521739 0.1333333333333333 0  1.982608695652174 0.1333333333333333 0  1.999130434782608 0.1333333333333333 0  2.015652173913043 0.1166666666666667 0  2.015652173913043 0.1333333333333333 0  2.032173913043478 0.1166666666666667 0  2.032173913043478 0.1333333333333333 0  2.048695652173913 0.1166666666666667 0  2.048695652173913 0.1333333333333333 0  2.065217391304348 0.1166666666666667 0  2.065217391304348 0.1333333333333333 0  2.081739130434782 0.1166666666666667 0  2.081739130434782 0.1333333333333333 0  2.098260869565217 0.1333333333333333 0  1.9 0.15 0  1.883478260869565 0.15 0  1.916521739130435 0.15 0  1.933043478260869 0.15 0  1.949565217391304 0.15 0  1.966086956521739 0.15 0  1.982608695652174 0.15 0  1.999130434782608 0.15 0  2.015652173913043 0.15 0  2.032173913043478 0.15 0  2.048695652173913 0.15 0  2.065217391304348 0.15 0  2.081739130434782 0.15 0  2.098260869565217 0.15 0  2.114782608695652 0.15 0  1.9 0.1666666666666667 0  1.883478260869565 0.1666666666666667 0  1.916521739130435 0.1666666666666667 0  1.933043478260869 0.1666666666666667 0  1.949565217391304 0.1666666666666667 0  1.966086956521739 0.1666666666666667 0  1.982608695652174 0.1666666666666667 0  1.999130434782608 0.1666666666666667 0  2.015652173913043 0.1666666666666667 0  2.032173913043478 0.1666666666666667 0  2.048695652173913 0.1666666666666667 0  2.065217391304348 0.1666666666666667 0  2.081739130434782 0.1666666666666667 0  2.098260869565217 0.1666666666666667 0  2.114782608695652 0.1666666666666667 0  2.131304347826087 0.1666666666666667 0  1.9 0.1833333333333333 0  1.883478260869565 0.1833333333333333 0  1.916521739130435 0.1833333333333333 0  1.933043478260869 0.1833333333333333 0  1.949565217391304 0.1833333333333333 0  1.966086956521739 0.1833333333333333 0  1.982608695652174 0.1833333333333333 0  1.999130434782608 0.1833333333333333 0  2.015652173913043 0.1833333333333333 0  2.032173913043478 0.1833333333333333 0  2.048695652173913 0.1833333333333333 0  2.065217391304348 0.1833333333333333 0  2.081739130434782 0.1833333333333333 0  2.098260869565217 0.1833333333333333 0  2.114782608695652 0.1833333333333333 0  2.131304347826087 0.1833333333333333 0  2.147826086956522 0.1833333333333333 0  1.9 0.2 0  1.883478260869565 0.2 0  1.916521739130435 0.2 0  1.933043478260869 0.2 0  1.949565217391304 0.2 0  1.966086956521739 0.2 0  1.982608695652174 0.2 0  1.999130434782608 0.2 0  2.015652173913043 0.2 0  2.032173913043478 0.2 0  2.048695652173913 0.2 0  2.065217391304348 0.2 0  2.081739130434782 0.2 0  2.098260869565217 0.2 0  2.114782608695652 0.2 0  2.131304347826087 0.2 0  2.147826086956522 0.2 0  2.164347826086956 0.2 0  1.9 0.2166666666666667 0  1.883478260869565 0.2166666666666667 0  1.916521739130435 0.2166666666666667 0  1.933043478260869 0.2166666666666667 0  1.949565217391304 0.2166666666666667 0  1.966086956521739 0.2166666666666667 0  1.982608695652174 0.2166666666666667 0  1.999130434782608 0.2166666666666667 0  2.015652173913043 0.2166666666666667 0  2.032173913043478 0.2166666666666667 0  2.048695652173913 0.2166666666666667 0  2.065217391304348 0.2166666666666667 0  2.081739130434782 0.2166666666666667 0  2.098260869565217 0.2166666666666667 0  2.114782608695652 0.2166666666666667 0  2.131304347826087 0.2166666666666667 0  2.147826086956522 0.2166666666666667 0  2.164347826086956 0.2166666666666667 0  2.180869565217391 0.2166666666666667 0  1.9 0.2333333333333333 0  1.883478260869565 0.2333333333333333 0  1.916521739130435 0.2333333333333333 0  1.933043478260869 0.2333333333333333 0  1.949565217391304 0.2333333333333333 0  1.966086956521739 0.2333333333333333 0  1.982608695652174 0.2333333333333333 0  1.999130434782608 0.2333333333333333 0  2.015652173913043 0.2333333333333333 0  2.032173913043478 0.2333333333333333 0  2.048695652173913 0.2333333333333333 0  2.065217391304348 0.2333333333333333 0  2.081739130434782 0.2333333333333333 0  2.098260869565217 0.2333333333333333 0  2.114782608695652 0.2333333333333333 0  2.131304347826087 0.2333333333333333 0  2.147826086956522 0.2333333333333333 0  2.164347826086956 0.2333333333333333 0  2.180869565217391 0.2333333333333333 0  2.197391304347826 0.2333333333333333 0  1.9 0.25 0  1.916521739130435 0.25 0  1.933043478260869 0.25 0  1.949565217391304 0.25 0  1.966086956521739 0.25 0  1.982608695652174 0.25 0  1.999130434782608 0.25 0  2.015652173913043 0.25 0  2.032173913043478 0.25 0  2.048695652173913 0.25 0  2.065217391304348 0.25 0  2.081739130434782 0.25 0  2.098260869565217 0.25 0  2.114782608695652 0.25 0  2.131304347826087 0.25 0  2.147826086956522 0.25 0  2.164347826086956 0.25 0  2.180869565217391 0.25 0  2.197391304347826 0.25 0  2.213913043478261 0.25 0  1.916521739130435 0.2666666666666667 0  1.9 0.2666666666666667 0  1.933043478260869 0.2666666666666667 0  1.949565217391304 0.2666666666666667 0  1.966086956521739 0.2666666666666667 0  1.982608695652174 0.2666666666666667 0  1.999130434782608 0.2666666666666667 0  2.015652173913043 0.2666666666666667 0  2.032173913043478 0.2666666666666667 0  2.048695652173913 0.2666666666666667 0  2.065217391304348 0.2666666666666667 0  2.081739130434782 0.2666666666666667 0  2.098260869565217 0.2666666666666667 0  2.114782608695652 0.2666666666666667 0  2.131304347826087 0.2666666666666667 0  2.147826086956522 0.2666666666666667 0  2.164347826086956 0.2666666666666667 0  2.180869565217391 0.2666666666666667 0  2.197391304347826 0.2666666666666667 0  2.213913043478261 0.2666666666666667 0  2.230434782608695 0.25 0  2.230434782608695 0.2666666666666667 0  2.24695652173913 0.2666666666666667 0  1.916521739130435 0.2833333333333333 0  1.9 0.2833333333333333 0  1.933043478260869 0.2833333333333333 0  1.949565217391304 0.2833333333333333 0  1.966086956521739 0.2833333333333333 0  1.982608695652174 0.2833333333333333 0  1.999130434782608 0.2833333333333333 0  2.015652173913043 0.2833333333333333 0  2.032173913043478 0.2833333333333333 0  2.048695652173913 0.2833333333333333 0  2.065217391304348 0.2833333333333333 0  2.081739130434782 0.2833333333333333 0  2.098260869565217 0.2833333333333333 0  2.114782608695652 0.2833333333333333 0  2.131304347826087 0.2833333333333333 0  2.147826086956522 0.2833333333333333 0  2.164347826086956 0.2833333333333333 0  2.180869565217391 0.2833333333333333 0  2.197391304347826 0.2833333333333333 0  2.213913043478261 0.2833333333333333 0  2.230434782608695 0.2833333333333333 0  2.24695652173913 0.2833333333333333 0  2.263478260869565 0.2833333333333333 0  1.916521739130435 0.3 0  1.9 0.3 0  1.933043478260869 0.3 0  1.949565217391304 0.3 0  1.966086956521739 0.3 0  1.982608695652174 0.3 0  1.999130434782608 0.3 0  2.015652173913043 0.3 0  2.032173913043478 0.3 0  2.048695652173913 0.3 0  2.065217391304348 0.3 0  2.081739130434782 0.3 0  2.098260869565217 0.3 0  2.114782608695652 0.3 0  2.131304347826087 0.3 0  2.147826086956522 0.3 0  2.164347826086956 0.3 0  2.180869565217391 0.3 0  2.197391304347826 0.3 0  2.213913043478261 0.3 0  2.230434782608695 0.3 0  2.24695652173913 0.3 0  2.263478260869565 0.3 0  2.28 0.3 0  1.916521739130435 0.3166666666666667 0  1.9 0.3166666666666667 0  1.933043478260869 0.3166666666666667 0  1.949565217391304 0.3166666666666667 0  1.966086956521739 0.3166666666666667 0  1.982608695652174 0.3166666666666667 0  1.999130434782608 0.3166666666666667 0  2.015652173913043 0.3166666666666667 0  2.032173913043478 0.3166666666666667 0  2.048695652173913 0.3166666666666667 0  2.065217391304348 0.3166666666666667 0  2.081739130434782 0.3166666666666667 0  2.098260869565217 0.3166666666666667 0  2.114782608695652 0.3166666666666667 0  2.131304347826087 0.3166666666666667 0  2.147826086956522 0.3166666666666667 0  2.164347826086956 0.3166666666666667 0  2.180869565217391 0.3166666666666667 0  2.197391304347826 0.3166666666666667 0  2.213913043478261 0.3166666666666667 0  2.230434782608695 0.3166666666666667 0  2.24695652173913 0.3166666666666667 0  2.263478260869565 0.3166666666666667 0  2.28 0.3166666666666667 0  2.296521739130434 0.3166666666666667 0  1.916521739130435 0.3333333333333333 0  1.9 0.3333333333333333 0  1.933043478260869 0.3333333333333333 0  1.949565217391304 0.3333333333333333 0  1.966086956521739 0.3333333333333333 0  1.982608695652174 0.3333333333333333 0  1.999130434782608 0.3333333333333333 0  2.015652173913043 0.3333333333333333 0  2.032173913043478 0.3333333333333333 0  2.048695652173913 0.3333333333333333 0  2.06521739
[...]
<PointData  Vectors="Displacement"> 
<DataArray  type="Float64"  Name="Displacement"  NumberOfComponents="3" format="ascii">3.7447770070198186e-04 3.7875066129339947e-03 0.0000000000000000e+00  3.7839419291838504e-04 3.8412085396070110e-03 0.0000000000000000e+00  3.2969995238004075e-04 3.8296765401943898e-03 0.0000000000000000e+00  3.2389864349037024e-04 3.7766890181398210e-03 0.0000000000000000e+00  3.3436170292491400e-04 3.8833864312897274e-03 0.0000000000000000e+00  2.8553580048650625e-04 3.8169915508865283e-03 0.0000000000000000e+00  2.7957975680128848e-04 3.7646401159434767e-03 0.0000000000000000e+00  2.9086072958006373e-04 3.8703765605831810e-03 0.0000000000000000e+00  2.9559039751238746e-04 3.9239895662604917e-03 0.0000000000000000e+00  2.4417806378449511e-04 3.8038607096020339e-03 0.0000000000000000e+00  2.3819181316585397e-04 3.7517921402740032e-03 0.0000000000000000e+00  2.4962702560527667e-04 3.8569936163496922e-03 0.0000000000000000e+00  2.5457405865089586e-04 3.9104730136983144e-03 0.0000000000000000e+00  2.5901712659718792e-04 3.9637142066207510e-03 0.0000000000000000e+00  2.0475992100947536e-04 3.7903856331194833e-03 0.0000000000000000e+00  1.9877148945288291e-04 3.7383543833043476e-03 0.0000000000000000e+00  2.1012322072307591e-04 3.8434943017630258e-03 0.0000000000000000e+00  2.1494100567207432e-04 3.8970208538934535e-03 0.0000000000000000e+00  2.1921683075820132e-04 3.9505430676168721e-03 0.0000000000000000e+00  2.2291342144939363e-04 4.0038390436257622e-03 0.0000000000000000e+00  1.6702581823247104e-04 3.7766445921878318e-03 0.0000000000000000e+00  1.6115975953568041e-04 3.7243289625672662e-03 0.0000000000000000e+00  1.7208483267145712e-04 3.8300052201579483e-03 0.0000000000000000e+00  1.7653305278569315e-04 3.8837474514948440e-03 0.0000000000000000e+00  1.8040959400197302e-04 3.9376431845285576e-03 0.0000000000000000e+00  1.8369465247739035e-04 3.9914236538115344e-03 0.0000000000000000e+00  1.8642174444543367e-04 4.0448271648335790e-03 0.0000000000000000e+00  1.3092794872604648e-04 3.7628050837375604e-03 0.0000000000000000e+00  1.2556207274161621e-04 3.7098363749215623e-03 0.0000000000000000e+00  1.3534081272781659e-04 3.8166956232298021e-03 0.0000000000000000e+00  1.3917036338946073e-04 3.8707462242750330e-03 0.0000000000000000e+00  1.4244900301616528e-04 3.9251167299937809e-03 0.0000000000000000e+00  1.4513716708001342e-04 3.9794725857373115e-03 0.0000000000000000e+00  1.4727460204871665e-04 4.0334239562694104e-03 0.0000000000000000e+00  1.4897393933838260e-04 4.0866366641408147e-03 0.0000000000000000e+00  9.6311138139138847e-05 3.7491877204250553e-03 0.0000000000000000e+00  9.2013040421042667e-05 3.6952286510162509e-03 0.0000000000000000e+00  9.9624980023661555e-05 3.8038373051966974e-03 0.0000000000000000e+00  1.0259257373212559e-04 3.8581007993896280e-03 0.0000000000000000e+00  1.0510396841309630e-04 3.9130504199787258e-03 0.0000000000000000e+00  1.0703306422903088e-04 3.9681081554502930e-03 0.0000000000000000e+00  1.0842951263366363e-04 4.0227021774831857e-03 0.0000000000000000e+00  1.0943765976846244e-04 4.0763944928693318e-03 0.0000000000000000e+00  1.5036799282920664e-04 4.1388905924973568e-03 0.0000000000000000e+00  1.1019977441328141e-04 4.1289631559130405e-03 0.0000000000000000e+00  1.5158855685481725e-04 4.1900250003210288e-03 0.0000000000000000e+00  1.1084439137474778e-04 4.1802452753617611e-03 0.0000000000000000e+00  1.5276547919850666e-04 4.2399171170072244e-03 0.0000000000000000e+00  1.1149905452054744e-04 4.2301109599695037e-03 0.0000000000000000e+00  1.5402751573249371e-04 4.2884798845755755e-03 0.0000000000000000e+00  1.1229388510778037e-04 4.2784695272985044e-03 0.0000000000000000e+00  1.5550142833486847e-04 4.3356630523104364e-03 0.0000000000000000e+00  1.1335918977072750e-04 4.3252731509885829e-03 0.0000000000000000e+00  1.1482400379686359e-04 4.3705121277836509e-03 0.0000000000000000e+00  6.2750049146917161e-05 3.7362260889655043e-03 0.0000000000000000e+00  6.0194246333634643e-05 3.6810452227933931e-03 0.0000000000000000e+00  6.4474882442379835e-05 3.7918170373108405e-03 0.0000000000000000e+00  6.6435369406812130e-05 3.8458069364066530e-03 0.0000000000000000e+00  6.8063237029703091e-05 3.9015076634585128e-03 0.0000000000000000e+00  6.9088789678892101e-05 3.9574489956980367e-03 0.0000000000000000e+00  6.9612934665694488e-05 4.0127975075157406e-03 0.0000000000000000e+00  6.9842423113260465e-05 4.0669967628045086e-03 0.0000000000000000e+00  6.9920170787834458e-05 4.1198911402845527e-03 0.0000000000000000e+00  6.9953990427117964e-05 4.1713262481739791e-03 0.0000000000000000e+00  7.0058148183344880e-05 4.2211597958411859e-03 0.0000000000000000e+00  7.0357959500717544e-05 4.2692938060841087e-03 0.0000000000000000e+00  7.0982491503423850e-05 4.3156830822531841e-03 0.0000000000000000e+00  7.2061558747851969e-05 4.3603236998688644e-03 0.0000000000000000e+00  7.3725871586054377e-05 4.4032458100197571e-03 0.0000000000000000e+00  2.9199197600105779e-05 3.7242815150308208e-03 0.0000000000000000e+00  2.7315830395179070e-05 3.6822762099164167e-03 0.0000000000000000e+00  2.9217314880290870e-05 3.7811615207407295e-03 0.0000000000000000e+00  3.0325223736935153e-05 3.8336024429468422e-03 0.0000000000000000e+00  3.0954943381515540e-05 3.8905388988985331e-03 0.0000000000000000e+00  3.0908202020447906e-05 3.9476239667362743e-03 0.0000000000000000e+00  3.0451557608724538e-05 4.0038461223157610e-03 0.0000000000000000e+00  2.9879312793482782e-05 4.0585292172206147e-03 0.0000000000000000e+00  2.9288719621589804e-05 4.1117444378899410e-03 0.0000000000000000e+00  2.8731346789052610e-05 4.1633385150961627e-03 0.0000000000000000e+00  2.8297529276119928e-05 4.2131375054382273e-03 0.0000000000000000e+00  2.8105869229120433e-05 4.2610293745882601e-03 0.0000000000000000e+00  2.8281804032626125e-05 4.3069738094939592e-03 0.0000000000000000e+00  2.8952929159993632e-05 4.3509733466473932e-03 0.0000000000000000e+00  3.0250997542076181e-05 4.3930639935501467e-03 0.0000000000000000e+00  3.2311282599292040e-05 4.4333173033129555e-03 0.0000000000000000e+00  -8.5896708813464346e-06 3.7249619554957565e-03 0.0000000000000000e+00  -1.0094917066907360e-05 3.6827141572854235e-03 0.0000000000000000e+00  -6.4596927357448238e-06 3.7726077829005633e-03 0.0000000000000000e+00  -5.3321745182136569e-06 3.8208294151535101e-03 0.0000000000000000e+00  -6.7239333305225589e-06 3.8803134415084191e-03 0.0000000000000000e+00  -8.1396404620012040e-06 3.9387849701222263e-03 0.0000000000000000e+00  -9.5866879941026988e-06 3.9959731726793854e-03 0.0000000000000000e+00  -1.0829120429612903e-05 4.0510091232173707e-03 0.0000000000000000e+00  -1.1950796916970431e-05 4.1045405683961369e-03 0.0000000000000000e+00  -1.3003099300689628e-05 4.1563203252191492e-03 0.0000000000000000e+00  -1.3911839394158143e-05 4.2060966583656817e-03 0.0000000000000000e+00  -1.4553251033973188e-05 4.2537365954839279e-03 0.0000000000000000e+00  -1.4803408911205913e-05 4.2992144496309444e-03 0.0000000000000000e+00  -1.4539015208236554e-05 4.3425405176580195e-03 0.0000000000000000e+00  -1.3628367320679707e-05 4.3837530001564163e-03 0.0000000000000000e+00  -1.1930690640291787e-05 4.4229292719301623e-03 0.0000000000000000e+00  -9.3019184237216986e-06 4.4601934397702110e-03 0.0000000000000000e+00  -5.1661849021961255e-05 3.7256315153640670e-03 0.0000000000000000e+00  -4.9611859586722931e-05 3.6875341139781873e-03 0.0000000000000000e+00  -5.0473803944187212e-05 3.7729632395044708e-03 0.0000000000000000e+00  -4.9138752347024472e-05 3.8217822139468916e-03 0.0000000000000000e+00  -4.8244346550132416e-05 3.8710867203987963e-03 0.0000000000000000e+00  -4.9587115229540100e-05 3.9309200998403990e-03 0.0000000000000000e+00  -5.1265107553751134e-05 3.9892135766553104e-03 0.0000000000000000e+00  -5.2648996267038750e-05 4.0443008348370587e-03 0.0000000000000000e+00  -5.3991661116369229e-05 4.0982231247865585e-03 0.0000000000000000e+00  -5.5375300421087127e-05 4.1502765351674950e-03 0.0000000000000000e+00  -5.6657960882157441e-05 4.2000685977755846e-03 0.0000000000000000e+00  -5.7672597213989138e-05 4.2474562301932830e-03 0.0000000000000000e+00  -5.8293932612728850e-05 4.2924586455778992e-03 0.0000000000000000e+00  -5.8408431661758964e-05 4.3350950033122634e-03 0.0000000000000000e+00  -5.7886442340083447e-05 4.3753972871927553e-03 0.0000000000000000e+00  -5.6579869824632929e-05 4.4134421959998917e-03 0.0000000000000000e+00  -5.4331187990889937e-05 4.4493652506770818e-03 0.0000000000000000e+00  -5.0988724413432730e-05 4.4833693071693959e-03 0.0000000000000000e+00  -8.7230466759462735e-05 3.7542187959866205e-03 0.0000000000000000e+00  -7.5394471831494953e-05 3.7295317500923523e-03 0.0000000000000000e+00  -9.6523175954189760e-05 3.7735743904145011e-03 0.0000000000000000e+00  -9.5678066096748722e-05 3.8221816124478099e-03 0.0000000000000000e+00  -9.4571017332683343e-05 3.8719103878054910e-03 0.0000000000000000e+00  -9.3150063085674503e-05 3.9234197805276408e-03 0.0000000000000000e+00  -9.4422763510248567e-05 3.9834812868414409e-03 0.0000000000000000e+00  -9.5379821981177903e-05 4.0380483884973079e-03 0.0000000000000000e+00  -9.6756039477155479e-05 4.0927041199618460e-03 0.0000000000000000e+00  -9.8399680797359531e-05 4.1452136133804393e-03 0.0000000000000000e+00  -9.9976996165436144e-05 4.1950770317575560e-03 0.0000000000000000e+00  -1.0126412359399420e-04 4.2422079782641680e-03 0.0000000000000000e+00  -1.0216511119170083e-04 4.2867410560764509e-03 0.0000000000000000e+00  -1.0259897226037705e-04 4.3286953435119667e-03 0.0000000000000000e+00  -1.0244391429444490e-04 4.3680770205061685e-03 0.0000000000000000e+00  -1.0154142977661826e-04 4.4049508055685896e-03 0.0000000000000000e+00  -9.9713586507455123e-05 4.4394589499591065e-03 0.0000000000000000e+00  -9.6789133002014388e-05 4.4718383848703731e-03 0.0000000000000000e+00  -9.2620227596774385e-05 4.5023946022424701e-03 0.0000000000000000e+00  -1.1652066479342300e-04 3.7889303525121387e-03 0.0000000000000000e+00  -1.0365841332945291e-04 3.7678853449946903e-03 0.0000000000000000e+00  -1.2885107602490924e-04 3.8077067357699126e-03 0.0000000000000000e+00  -1.4320284241496926e-04 3.8227829446742401e-03 0.0000000000000000e+00  -1.4258188135349634e-04 3.8723168614179255e-03 0.0000000000000000e+00  -1.4104486096207063e-04 3.9241330797362322e-03 0.0000000000000000e+00  -1.3883601496754365e-04 3.9788338703996033e-03 0.0000000000000000e+00  -1.3782711627945783e-04 4.0319125932212485e-03 0.0000000000000000e+00  -1.4006802308475706e-04 4.0880769888015341e-03 0.0000000000000000e+00  -1.4215577061018787e-04 4.1412113029818901e-03 0.0000000000000000e+00  -1.4394579913585550e-04 4.1911482124600561e-03 0.0000000000000000e+00  -1.4532954304335765e-04 4.2379763623733102e-03 0.0000000000000000e+00  -1.4634864292614787e-04 4.2820679206373386e-03 0.0000000000000000e+00  -1.4699578127713917e-04 4.3233862953552622e-03 0.0000000000000000e+00  -1.4715818445616176e-04 4.3618693330547955e-03 0.0000000000000000e+00  -1.4665686227760178e-04 4.3975527106104584e-03 0.0000000000000000e+00  -1.4528011076282889e-04 4.4305782137325283e-03 0.0000000000000000e+00  -1.4282887416813613e-04 4.4612294495527385e-03 0.0000000000000000e+00  -1.3913770042623519e-04 4.4898737804840447e-03 0.0000000000000000e+00  -1.3407528728044994e-04 4.5169148249307725e-03 0.0000000000000000e+00  -1.4408521008248628e-04 3.8249874022257256e-03 0.0000000000000000e+00  -1.5709504161713901e-04 3.8440687644144583e-03 0.0000000000000000e+00  -1.7129591191890540e-04 3.8617779137226655e-03 0.0000000000000000e+00  -1.8852386218835593e-04 3.8779065025081496e-03 0.0000000000000000e+00  -1.9064063761820704e-04 3.9247762460997470e-03 0.0000000000000000e+00  -1.8863027556546448e-04 3.9794066747598014e-03 0.0000000000000000e+00  -1.8687982723824539e-04 4.0328506839976564e-03 0.0000000000000000e+00  -1.8597280248301796e-04 4.0845608931914567e-03 0.0000000000000000e+00  -1.8742862134873121e-04 4.1383114481603634e-03 0.0000000000000000e+00  -1.8881166411824113e-04 4.1882351637930254e-03 0.0000000000000000e+00  -1.8985147080254568e-04 4.2346531431316685e-03 0.0000000000000000e+00  -1.9070086430208097e-04 4.2783971455040305e-03 0.0000000000000000e+00  -1.9139975013896429e-04 4.3191970255668528e-03 0.0000000000000000e+00  -1.9180563198310202e-04 4.3568524886344303e-03 0.0000000000000000e+00  -1.9169173483867520e-04 4.3913540891381414e-03 0.0000000000000000e+00  -1.9078854256613344e-04 4.4228335743649290e-03 0.0000000000000000e+00  -1.8886023285216073e-04 4.4516495503009734e-03 0.0000000000000000e+00  -1.8572404461972335e-04 4.4782518622727566e-03 0.0000000000000000e+00  -1.8123434976602789e-04 4.5031133750007661e-03 0.0000000000000000e+00  -1.7527745623234948e-04 4.5267151896730105e-03 0.0000000000000000e+00  -1.8377574088592366e-04 3.8809909566742034e-03 0.0000000000000000e+00  -1.7068275535591485e-04 3.8613965051712113e-03 0.0000000000000000e+00  -1.9757258616967614e-04 3.9004472958334433e-03 0.0000000000000000e+00  -2.1237432530454874e-04 3.9213126649045834e-03 0.0000000000000000e+00  -2.2639387364779183e-04 3.9528763909032968e-03 0.0000000000000000e+00  -2.3756525810009533e-04 3.9803160157133050e-03 0.0000000000000000e+00  -2.3615664521974138e-04 4.0333376595547785e-03 0.0000000000000000e+00  -2.3468305613574283e-04 4.0853741018041494e-03 0.0000000000000000e+00  -2.3351099460633743e-04 4.1362471751195742e-03 0.0000000000000000e+00  -2.3412770701732423e-04 4.1861423707006641e-03 0.0000000000000000e+00  -2.3445690341156856e-04 4.2319818184297486e-03 0.0000000000000000e+00  -2.3487605629524716e-04 4.2756416978295703e-03 0.0000000000000000e+00  -2.3548129672127191e-04 4.3161556990344513e-03 0.0000000000000000e+00  -2.3606202137903167e-04 4.3531186900301290e-03 0.0000000000000000e+00  -2.3632442604335378e-04 4.3864803350667676e-03 0.0000000000000000e+00  -2.3591217691632094e-04 4.4163452726772240e-03 0.0000000000000000e+00  -2.3454883551790365e-04 4.4432128427047248e-03 0.0000000000000000e+00  -2.3204812150347373e-04 4.4676435010358442e-03 0.0000000000000000e+00  -2.2825595296664070e-04 4.4901786867412906e-03 0.0000000000000000e+00  -2.2303017277864573e-04 4.5113714097354670e-03 0.0000000000000000e+00  -1.6777856534690052e-04 4.5495363480940664e-03 0.0000000000000000e+00  -2.1628135793467951e-04 4.5317854769654654e-03 0.0000000000000000e+00  -2.0802001122669574e-04 4.5520139537316628e-03 0.0000000000000000e+00  -2.0982651420407524e-04 3.9180368565071453e-03 0.0000000000000000e+00  -1.9658595832375969e-04 3.8979345441038107e-03 0.0000000000000000e+00  -2.2376865169868100e-04 3.9384864034057486e-03 0.0000000000000000e+00  -2.3852741344714668e-04 3.9605728220375360e-03 0.0000000000000000e+00  -2.5348575843192356e-04 3.9873264433074882e-03 0.0000000000000000e+00  -2.6749266303970656e-04 4.0127804094673997e-03 0.0000000000000000e+00  -2.8354158969514997e-04 4.0345039923779299e-03 0.0000000000000000e+00  -2.8245141240890458e-04 4.0858812909189707e-03 0.0000000000000000e+00  -2.8064207232157755e-04 4.1370528142745432e-03 0.0000000000000000e+00  -2.7917162398365380e-04 4.1849154946905723e-03 0.0000000000000000e+00  -2.7868564894432393e-04 4.2296036058201616e-03 0.0000000000000000e+00  -2.7847406784554127e-04 4.2737387167294848e-03 0.0000000000000000e+00  -2.7885372981861046e-04 4.3143249485537395e-03 0.0000000000000000e+00  -2.7952817777351859e-04 4.3507912074061067e-03 0.0000000000000000e+00  -2.8014823089275850e-04 4.3830903219688588e-03 0.0000000000000000e+00  -2.8022935357532175e-04 4.4112405010164266e-03 0.0000000000000000e+00  -2.7945348448065393e-04 4.4360316434233407e-03 0.0000000000000000e+00  -2.7765416104634402e-04 4.4581770524207021e-03 0.0000000000000000e+00  -2.7470450201478154e-04 4.4782486018238223e-03 0.0000000000000000e+00  -2.7041186527318472e-04 4.4968458743928101e-03 0.0000000000000000e+00  -2.6458003208623676e-04 4.5146777344821105e-03 0.0000000000000000e+00  -2.5729738540109079e-04 4.5325205663261630e-03 0.0000000000000000e+00  -2.4894902933946992e-04 4.5514218532984995e-03 0.0000000000000000e+00  -2.3472045633004382e-04 3.9549822821776937e-03 0.0000000000000000e+00  -2.2149075511745310e-04 3.9344934105079426e-03 0.0000000000000000e+00  -2.4856838727573867e-04 3.9758971028801809e-03 0.0000000000000000e+00  -2.6297198750963317e-04 3.9980732751574649e-03 0.0000000000000000e+00  -2.7747052994121383e-04 4.0225049708529845e-03 0.0000000000000000e+00  -2.9138957610610252e-04 4.0467792127605344e-03 0.0000000000000000e+00  -3.0538621980203220e-04 4.0706607455369970e-03 0.0000000000000000e+00  -3.1933477139863421e-04 4.0988826919736814e-03 0.0000000000000000e+00  -3.2477849737441928e-04 4.1375922427886961e-03 0.0000000000000000e+00  -3.2292426973119039e-04 4.1854274410445310e-03 0.0000000000000000e+00  -3.2180485697159945e-04 4.2300482941513310e-03 0.0000000000000000e+00  -3.2129881902368354e-04 4.2726592534536858e-03 0.0000000000000000e+00  -3.2115749643064928e-04 4.3137917266436281e-03 0.0000000000000000e+00  -3.2173856894307957e-04 4.3500127672770547e-03 0.0000000000000000e+00  -3.2264785716402462e-04 4.3813893801936494e-03 0.0000000000000000e+00  -3.2319027365045240e-04 4.4076444947359975e-03 0.0000000000000000e+00  -3.2300523591461609e-04 4.4301957960962927e-03 0.0000000000000000e+00  -3.2194041854219238e-04 4.4499613571289511e-03 0.0000000000000000e+00  -3.1991054188369597e-04 4.4675100095089727e-03 0.0000000000000000e+00  -3.1682928060891352e-04 4.4832554918899387e-03 0.0000000000000000e+00  -3.1207440519915068e-04 4.4980499541774537e-03 0.0000000000000000e+00  -3.0531687121469048e-04 4.5132700673984642e-03 0.0000000000000000e+00  -2.9778972263274652e-04 4.5300674172727411e-03 0.0000000000000000e+00  -2.8958372135772447e-04 4.5505608111528727e-03 0.0000000000000000e+00  -2.5822571186209250e-04 3.9916901405689766e-03 0.0000000000000000e+00  -2.4516718010728138e-04 3.9709840194179225e-03 0.0000000000000000e+00  -2.7180913850247032e-04 4.0127070880092612e-03 0.0000000000000000e+00  -2.8579797878459007e-04 4.0345467841128493e-03 0.0000000000000000e+00  -2.9988240213833160e-04 4.0575601992220971e-03 0.0000000000000000e+00  -3.1373362161805956e-04 4.0808272872671731e-03 0.0000000000000000e+00  -3.2756588675110932e-04 4.1045730289609710e-03 0.0000000000000000e+00  -3.4128654294201166e-04 4.1308257395329222e-03 0.0000000000000000e+00  -3.5351845805452615e-04 4.1603797446331222e-03 0.0000000000000000e+00  -3.6440191333836916e-04 4.1860386757807894e-03 0.0000000000000000e+00  -3.6330147374771734e-04 4.2303740539974440e-03 0.0000000000000000e+00  -3.6238743875262563e-04 4.2730849390844889e-03 0.0000000000000000e+00  -3.6183854999040181e-04 4.3146470604343620e-03 0.0000000000000000e+00  -3.6208863331765856e-04 4.3508928373810485e-03 0.0000000000000000e+00  -3.6311225728635180e-04 4.3816524265021372e-03 0.0000000000000000e+00  -3.6401553778061749e-04 4.4056842924191817e-03 0.0000000000000000e+00  -3.6448174203914074e-04 4.4257906315701319e-03 0.0000000000000000e+00  -3.6426017723080310e-04 4.4430542023692040e-03 0.0000000000000000e+00  -3.6314386344294297e-04 4.4580907528724073e-03 0.0000000000000000e+00  -3.6124357905949027e-04 4.4711990681925873e-03 0.0000000000000000e+00  -3.5888404589023054e-04 4.4817671132976813e-03 0.0000000000000000e+00  -3.5251055813066484e-04 4.4932648755650582e-03 0.0000000000000000e+00  -3.4381131574197897e-04 4.5095252368583571e-03 0.0000000000000000e+00  -3.4096223764296015e-04 4.5272473980876408e-03 0.0000000000000000e+00  -3.4044012831311199e-04 4.5770089214221881e-03 0.0000000000000000e+00  -2.8022602839602664e-04 4.0281069900992127e-03 0.0000000000000000e+00  -2.6747221223432142e-04 4.0073458607429984e-03 0.0000000000000000e+00  -2.9342893081214539e-04 4.0489960974267143e-03 0.0000000000000000e+00  -3.0696526198753223e-04 4.0703447061559497e-03 0.0000000000000000e+00  -3.2064319028542746e-04 4.0923279394064864e-03 0.0000000000000000e+00  -3.3430924339468204e-04 4.1146567576644064e-03 0.0000000000000000e+00  -3.4804407908702322e-04 4.1375859206823785e-03 0.0000000000000000e+00  -3.6179567