<?xml version="1.0"?>
<VTKFile type="UnstructuredGrid"  version="0.1"  >
<UnstructuredGrid>
<Piece  NumberOfPoints="650" NumberOfCells="1199">
<Points>
<DataArray  type="Float64"  NumberOfComponents="3"  format="ascii">3.238260869565217 0 0  3.254782608695652 0 0  3.254782608695652 0.01666666666666667 0  3.238260869565217 0.01666666666666667 0  3.271304347826087 0 0  3.271304347826087 0.01666666666666667 0  3.287826086956521 0 0  3.287826086956521 0.01666666666666667 0  3.304347826086957 0 0  3.304347826086957 0.01666666666666667 0  3.320869565217391 0 0  3.320869565217391 0.01666666666666667 0  3.337391304347826 0 0  3.337391304347826 0.01666666666666667 0  3.353913043478261 0 0  3.353913043478261 0.01666666666666667 0  3.370434782608696 0 0  3.370434782608696 0.01666666666666667 0  3.386956521739131 0 0  3.386956521739131 0.01666666666666667 0  3.403478260869565 0 0  3.403478260869565 0.01666666666666667 0  3.419999999999999 0 0  3.419999999999999 0.01666666666666667 0  3.436521739130435 0 0  3.436521739130435 0.01666666666666667 0  3.453043478260869 0 0  3.453043478260869 0.01666666666666667 0  3.469565217391304 0 0  3.469565217391304 0.01666666666666667 0  3.486086956521739 0 0  3.486086956521739 0.01666666666666667 0  3.502608695652174 0 0  3.502608695652174 0.01666666666666667 0  3.519130434782609 0 0  3.519130434782609 0.01666666666666667 0  3.535652173913043 0 0  3.535652173913043 0.01666666666666667 0  3.552173913043478 0 0  3.552173913043478 0.01666666666666667 0  3.568695652173913 0 0  3.568695652173913 0.01666666666666667 0  3.585217391304347 0 0  3.585217391304347 0.01666666666666667 0  3.601739130434782 0 0  3.601739130434782 0.01666666666666667 0  3.618260869565217 0 0  3.618260869565217 0.01666666666666667 0  3.634782608695652 0 0  3.634782608695652 0.01666666666666667 0  3.651304347826087 0 0  3.651304347826087 0.01666666666666667 0  3.667826086956521 0 0  3.667826086956521 0.01666666666666667 0  3.684347826086956 0 0  3.684347826086956 0.01666666666666667 0  3.700869565217391 0 0  3.700869565217391 0.01666666666666667 0  3.717391304347826 0 0  3.717391304347826 0.01666666666666667 0  3.733913043478261 0 0  3.733913043478261 0.01666666666666667 0  3.750434782608695 0 0  3.750434782608695 0.01666666666666667 0  3.766956521739131 0 0  3.766956521739131 0.01666666666666667 0  3.783478260869565 0 0  3.783478260869565 0.01666666666666667 0  3.8 0 0  3.8 0.01666666666666667 0  3.254782608695652 0.03333333333333333 0  3.271304347826087 0.03333333333333333 0  3.287826086956521 0.03333333333333333 0  3.304347826086957 0.03333333333333333 0  3.320869565217391 0.03333333333333333 0  3.337391304347826 0.03333333333333333 0  3.353913043478261 0.03333333333333333 0  3.370434782608696 0.03333333333333333 0  3.386956521739131 0.03333333333333333 0  3.403478260869565 0.03333333333333333 0  3.419999999999999 0.03333333333333333 0  3.436521739130435 0.03333333333333333 0  3.453043478260869 0.03333333333333333 0  3.469565217391304 0.03333333333333333 0  3.486086956521739 0.03333333333333333 0  3.502608695652174 0.03333333333333333 0  3.519130434782609 0.03333333333333333 0  3.535652173913043 0.03333333333333333 0  3.552173913043478 0.03333333333333333 0  3.568695652173913 0.03333333333333333 0  3.585217391304347 0.03333333333333333 0  3.601739130434782 0.03333333333333333 0  3.618260869565217 0.03333333333333333 0  3.634782608695652 0.03333333333333333 0  3.651304347826087 0.03333333333333333 0  3.667826086956521 0.03333333333333333 0  3.684347826086956 0.03333333333333333 0  3.700869565217391 0.03333333333333333 0  3.717391304347826 0.03333333333333333 0  3.733913043478261 0.03333333333333333 0  3.750434782608695 0.03333333333333333 0  3.766956521739131 0.03333333333333333 0  3.783478260869565 0.03333333333333333 0  3.8 0.03333333333333333 0  3.271304347826087 0.05 0  3.287826086956521 0.05 0  3.304347826086957 0.05 0  3.320869565217391 0.05 0  3.337391304347826 0.05 0  3.353913043478261 0.05 0  3.370434782608696 0.05 0  3.386956521739131 0.05 0  3.403478260869565 0.05 0  3.419999999999999 0.05 0  3.436521739130435 0.05 0  3.453043478260869 0.05 0  3.469565217391304 0.05 0  3.486086956521739 0.05 0  3.502608695652174 0.05 0  3.519130434782609 0.05 0  3.535652173913043 0.05 0  3.552173913043478 0.05 0  3.568695652173913 0.05 0  3.585217391304347 0.05 0  3.601739130434782 0.05 0  3.618260869565217 0.05 0  3.634782608695652 0.05 0  3.651304347826087 0.05 0  3.667826086956521 0.05 0  3.684347826086956 0.05 0  3.700869565217391 0.05 0  3.717391304347826 0.05 0  3.733913043478261 0.05 0  3.750434782608695 0.05 0  3.766956521739131 0.05 0  3.783478260869565 0.05 0  3.8 0.05 0  3.287826086956521 0.06666666666666667 0  3.304347826086957 0.06666666666666667 0  3.320869565217391 0.06666666666666667 0  3.337391304347826 0.06666666666666667 0  3.353913043478261 0.06666666666666667 0  3.370434782608696 0.06666666666666667 0  3.386956521739131 0.06666666666666667 0  3.403478260869565 0.06666666666666667 0  3.419999999999999 0.06666666666666667 0  3.436521739130435 0.06666666666666667 0  3.453043478260869 0.06666666666666667 0  3.469565217391304 0.06666666666666667 0  3.486086956521739 0.06666666666666667 0  3.502608695652174 0.06666666666666667 0  3.519130434782609 0.06666666666666667 0  3.535652173913043 0.06666666666666667 0  3.552173913043478 0.06666666666666667 0  3.568695652173913 0.06666666666666667 0  3.585217391304347 0.06666666666666667 0  3.601739130434782 0.06666666666666667 0  3.618260869565217 0.06666666666666667 0  3.634782608695652 0.06666666666666667 0  3.651304347826087 0.06666666666666667 0  3.667826086956521 0.06666666666666667 0  3.684347826086956 0.06666666666666667 0  3.700869565217391 0.06666666666666667 0  3.717391304347826 0.06666666666666667 0  3.733913043478261 0.06666666666666667 0  3.750434782608695 0.06666666666666667 0  3.766956521739131 0.06666666666666667 0  3.783478260869565 0.06666666666666667 0  3.8 0.06666666666666667 0  3.304347826086957 0.08333333333333333 0  3.320869565217391 0.08333333333333333 0  3.337391304347826 0.08333333333333333 0  3.353913043478261 0.08333333333333333 0  3.370434782608696 0.08333333333333333 0  3.386956521739131 0.08333333333333333 0  3.403478260869565 0.08333333333333333 0  3.419999999999999 0.08333333333333333 0  3.436521739130435 0.08333333333333333 0  3.453043478260869 0.08333333333333333 0  3.469565217391304 0.08333333333333333 0  3.486086956521739 0.08333333333333333 0  3.502608695652174 0.08333333333333333 0  3.519130434782609 0.08333333333333333 0  3.535652173913043 0.08333333333333333 0  3.552173913043478 0.08333333333333333 0  3.568695652173913 0.08333333333333333 0  3.585217391304347 0.08333333333333333 0  3.601739130434782 0.08333333333333333 0  3.618260869565217 0.08333333333333333 0  3.634782608695652 0.08333333333333333 0  3.651304347826087 0.08333333333333333 0  3.667826086956521 0.08333333333333333 0  3.684347826086956 0.08333333333333333 0  3.700869565217391 0.08333333333333333 0  3.717391304347826 0.08333333333333333 0  3.733913043478261 0.08333333333333333 0  3.750434782608695 0.08333333333333333 0  3.766956521739131 0.08333333333333333 0  3.783478260869565 0.08333333333333333 0  3.8 0.08333333333333333 0  3.320869565217391 0.1 0  3.337391304347826 0.1 0  3.353913043478261 0.1 0  3.370434782608696 0.1 0  3.386956521739131 0.1 0  3.403478260869565 0.1 0  3.419999999999999 0.1 0  3.436521739130435 0.1 0  3.453043478260869 0.1 0  3.469565217391304 0.1 0  3.486086956521739 0.1 0  3.502608695652174 0.1 0  3.519130434782609 0.1 0  3.535652173913043 0.1 0  3.552173913043478 0.1 0  3.568695652173913 0.1 0  3.585217391304347 0.1 0  3.601739130434782 0.1 0  3.618260869565217 0.1 0  3.634782608695652 0.1 0  3.651304347826087 0.1 0  3.667826086956521 0.1 0  3.684347826086956 0.1 0  3.700869565217391 0.1 0  3.717391304347826 0.1 0  3.733913043478261 0.1 0  3.750434782608695 0.1 0  3.766956521739131 0.1 0  3.783478260869565 0.1 0  3.8 0.1 0  3.337391304347826 0.1166666666666667 0  3.353913043478261 0.1166666666666667 0  3.370434782608696 0.1166666666666667 0  3.386956521739131 0.1166666666666667 0  3.403478260869565 0.1166666666666667 0  3.419999999999999 0.1166666666666667 0  3.436521739130435 0.1166666666666667 0  3.453043478260869 0.1166666666666667 0  3.469565217391304 0.1166666666666667 0  3.486086956521739 0.1166666666666667 0  3.502608695652174 0.1166666666666667 0  3.519130434782609 0.1166666666666667 0  3.535652173913043 0.1166666666666667 0  3.552173913043478 0.1166666666666667 0  3.568695652173913 0.1166666666666667 0  3.585217391304347 0.1166666666666667 0  3.601739130434782 0.1166666666666667 0  3.618260869565217 0.1166666666666667 0  3.634782608695652 0.1166666666666667 0  3.651304347826087 0.1166666666666667 0  3.667826086956521 0.1166666666666667 0  3.684347826086956 0.1166666666666667 0  3.700869565217391 0.1166666666666667 0  3.717391304347826 0.1166666666666667 0  3.733913043478261 0.1166666666666667 0  3.750434782608695 0.1166666666666667 0  3.766956521739131 0.1166666666666667 0  3.783478260869565 0.1166666666666667 0  3.8 0.1166666666666667 0  3.353913043478261 0.1333333333333333 0  3.370434782608696 0.1333333333333333 0  3.386956521739131 0.1333333333333333 0  3.403478260869565 0.1333333333333333 0  3.419999999999999 0.1333333333333333 0  3.436521739130435 0.1333333333333333 0  3.453043478260869 0.1333333333333333 0  3.469565217391304 0.1333333333333333 0  3.486086956521739 0.1333333333333333 0  3.502608695652174 0.1333333333333333 0  3.519130434782609 0.1333333333333333 0  3.535652173913043 0.1333333333333333 0  3.552173913043478 0.1333333333333333 0  3.568695652173913 0.1333333333333333 0  3.585217391304347 0.1333333333333333 0  3.601739130434782 0.1333333333333333 0  3.618260869565217 0.1333333333333333 0  3.634782608695652 0.1333333333333333 0  3.651304347826087 0.1333333333333333 0  3.667826086956521 0.1333333333333333 0  3.684347826086956 0.1333333333333333 0  3.700869565217391 0.1333333333333333 0  3.717391304347826 0.13333333
[...]
<PointData  Vectors="Displacement"> 
<DataArray  type="Float64"  Name="Displacement"  NumberOfComponents="3" format="ascii">7.1605980854990304e-04 7.4844729231853075e-03 0.0000000000000000e+00  7.2790331943862867e-04 7.5438476417027771e-03 0.0000000000000000e+00  6.6969936870773324e-04 7.5406579396085456e-03 0.0000000000000000e+00  6.6080987988620073e-04 7.4805316127635182e-03 0.0000000000000000e+00  7.3728934855736051e-04 7.6058122838878793e-03 0.0000000000000000e+00  6.7674396585178727e-04 7.6033562637542428e-03 0.0000000000000000e+00  7.4429510847383372e-04 7.6696680672131961e-03 0.0000000000000000e+00  6.8197671360184324e-04 7.6679097462659497e-03 0.0000000000000000e+00  7.4904827741062267e-04 7.7348434939876615e-03 0.0000000000000000e+00  6.8546620949067017e-04 7.7337425374659407e-03 0.0000000000000000e+00  7.5169720428532288e-04 7.8008446151041954e-03 0.0000000000000000e+00  6.8730467075425413e-04 7.8003573542698382e-03 0.0000000000000000e+00  7.5240673142330577e-04 7.8672287266334569e-03 0.0000000000000000e+00  6.8760567232909950e-04 7.8673056763929015e-03 0.0000000000000000e+00  7.5135911272361674e-04 7.9336019034748871e-03 0.0000000000000000e+00  6.8650196972897405e-04 7.9341871852364864e-03 0.0000000000000000e+00  7.4875011288663338e-04 7.9996264500338688e-03 0.0000000000000000e+00  6.8413975941904951e-04 8.0006602469465862e-03 0.0000000000000000e+00  7.4478156051469057e-04 8.0650233151003895e-03 0.0000000000000000e+00  6.8067210220928997e-04 8.0664448064875927e-03 0.0000000000000000e+00  7.3965505085385973e-04 8.1295672268500707e-03 0.0000000000000000e+00  6.7625439725901122e-04 8.1313162135174741e-03 0.0000000000000000e+00  7.3356853220545493e-04 8.1930798810217111e-03 0.0000000000000000e+00  6.7104193109966041e-04 8.1950973499793477e-03 0.0000000000000000e+00  7.2671482743844030e-04 8.2554245987811366e-03 0.0000000000000000e+00  6.6518839628813766e-04 8.2576529452579352e-03 0.0000000000000000e+00  7.1928072614967640e-04 8.3165028256145263e-03 0.0000000000000000e+00  6.5884457028145770e-04 8.3188861372242781e-03 0.0000000000000000e+00  7.1144591833112968e-04 8.3762516382202157e-03 0.0000000000000000e+00  6.5215686932264261e-04 8.3787361248969655e-03 0.0000000000000000e+00  7.0338166693645961e-04 8.4346414589202227e-03 0.0000000000000000e+00  6.4526582163932289e-04 8.4371759512545039e-03 0.0000000000000000e+00  6.9524936147860345e-04 8.4916736710125042e-03 0.0000000000000000e+00  6.3830456214808635e-04 8.4942101158641745e-03 0.0000000000000000e+00  6.8719907836718198e-04 8.5473781242878279e-03 0.0000000000000000e+00  6.3139740318700832e-04 8.5498720510341995e-03 0.0000000000000000e+00  6.7936819449198140e-04 8.6018105838554567e-03 0.0000000000000000e+00  6.2465848926703709e-04 8.6042215442341391e-03 0.0000000000000000e+00  6.7188006748320709e-04 8.6550501136368699e-03 0.0000000000000000e+00  6.1819054210446355e-04 8.6573420951631778e-03 0.0000000000000000e+00  6.6484280519237568e-04 8.7071963507848286e-03 0.0000000000000000e+00  6.1208371852436157e-04 8.7093381527130875e-03 0.0000000000000000e+00  6.5834815659376129e-04 8.7583666447554193e-03 0.0000000000000000e+00  6.0641461027732401e-04 8.7603322025554594e-03 0.0000000000000000e+00  6.5247054489323355e-04 8.8086930683123309e-03 0.0000000000000000e+00  6.0124540503660910e-04 8.8104617190462673e-03 0.0000000000000000e+00  6.4726623538749494e-04 8.8583193213807847e-03 0.0000000000000000e+00  5.9662321027608171e-04 8.8598760120559006e-03 0.0000000000000000e+00  6.4277259781282952e-04 8.9073975327945542e-03 0.0000000000000000e+00  5.9257952532578123e-04 8.9087329823564140e-03 0.0000000000000000e+00  6.3900739460973749e-04 8.9560849217540754e-03 0.0000000000000000e+00  5.8912983721196954e-04 8.9571957534055318e-03 0.0000000000000000e+00  6.3596800927675839e-04 9.0045402092313459e-03 0.0000000000000000e+00  5.8627331770525718e-04 9.0054290727174854e-03 0.0000000000000000e+00  6.3363053154473438e-04 9.0529195619783003e-03 0.0000000000000000e+00  5.8399261833529288e-04 9.0535952654617995e-03 0.0000000000000000e+00  6.3194865412619702e-04 9.1013716940565158e-03 0.0000000000000000e+00  5.8225380355216710e-04 9.1018493651216208e-03 0.0000000000000000e+00  6.3085243980224410e-04 9.1500315190237453e-03 0.0000000000000000e+00  5.8100653362559826e-04 9.1503328250715429e-03 0.0000000000000000e+00  6.3024725219193922e-04 9.1990114006040256e-03 0.0000000000000000e+00  5.8018470115104301e-04 9.1991649095023512e-03 0.0000000000000000e+00  6.3001365383564124e-04 9.2483885404799748e-03 0.0000000000000000e+00  5.7970779810515504e-04 9.2484304545287742e-03 0.0000000000000000e+00  6.3001020907400406e-04 9.2981864009479900e-03 0.0000000000000000e+00  5.7948322153133515e-04 9.2981622089042260e-03 0.0000000000000000e+00  6.3008391782831219e-04 9.3483482119003595e-03 0.0000000000000000e+00  5.7940923603433359e-04 9.3483155789596192e-03 0.0000000000000000e+00  6.3010342729654387e-04 9.3987124490569392e-03 0.0000000000000000e+00  5.7937690897818910e-04 9.3987328240880026e-03 0.0000000000000000e+00  6.1572454374432658e-04 7.5383737027329163e-03 0.0000000000000000e+00  6.2040957268194770e-04 7.6016937642140103e-03 0.0000000000000000e+00  6.2373247412453856e-04 7.6668047771286324e-03 0.0000000000000000e+00  6.2574686707470148e-04 7.7331596275747247e-03 0.0000000000000000e+00  6.2650969759016253e-04 7.8002682277083287e-03 0.0000000000000000e+00  6.2609522024929657e-04 7.8676742625773087e-03 0.0000000000000000e+00  6.2459847427950377e-04 7.9349667742794078e-03 0.0000000000000000e+00  6.2212817463162047e-04 8.0017997127909586e-03 0.0000000000000000e+00  6.1879845386570949e-04 8.0678940327320245e-03 0.0000000000000000e+00  6.1472525463573307e-04 8.1330270630830537e-03 0.0000000000000000e+00  6.1002578821814466e-04 8.1970227446135410e-03 0.0000000000000000e+00  6.0481829518697558e-04 8.2597462142537641e-03 0.0000000000000000e+00  5.9922104813763292e-04 8.3211011298087965e-03 0.0000000000000000e+00  5.9335072151837963e-04 8.3810278105102744e-03 0.0000000000000000e+00  5.8732060447343627e-04 8.4395010942113144e-03 0.0000000000000000e+00  5.8123894219212313e-04 8.4965278526346350e-03 0.0000000000000000e+00  5.7520746076127863e-04 8.5521443701972750e-03 0.0000000000000000e+00  5.6932002527195532e-04 8.6064137277073009e-03 0.0000000000000000e+00  5.6366140597021201e-04 8.6594231365155500e-03 0.0000000000000000e+00  5.5830617886227737e-04 8.7112811276464537e-03 0.0000000000000000e+00  5.5331780526649812e-04 8.7621145601362374e-03 0.0000000000000000e+00  5.4874792091126330e-04 8.8120654784065496e-03 0.0000000000000000e+00  5.4463584346543272e-04 8.8612878668074407e-03 0.0000000000000000e+00  5.4100829139360190e-04 8.9099443276501964e-03 0.0000000000000000e+00  5.3787929800062418e-04 8.9582026619324309e-03 0.0000000000000000e+00  5.3525030112866532e-04 9.0062322608430185e-03 0.0000000000000000e+00  5.3311039011445370e-04 9.0542001156402718e-03 0.0000000000000000e+00  5.3143669185554284e-04 9.1022661206401189e-03 0.0000000000000000e+00  5.3019485899782708e-04 9.1505771818116751e-03 0.0000000000000000e+00  5.2933954206127519e-04 9.1992594650828086e-03 0.0000000000000000e+00  5.2881449475183126e-04 9.2484079615434856e-03 0.0000000000000000e+00  5.2855140885209957e-04 9.2980724952226226e-03 0.0000000000000000e+00  5.2846538726750885e-04 9.3482394152693740e-03 0.0000000000000000e+00  5.2844234438578135e-04 9.3988075463324206e-03 0.0000000000000000e+00  5.6712114776334601e-04 7.6008714130836727e-03 0.0000000000000000e+00  5.6847858166688423e-04 7.6664510635669897e-03 0.0000000000000000e+00  5.6889887016316882e-04 7.7332316359301689e-03 0.0000000000000000e+00  5.6841817379205139e-04 7.8007475141495773e-03 0.0000000000000000e+00  5.6708237995714832e-04 7.8685315095870893e-03 0.0000000000000000e+00  5.6495961593728747e-04 7.9361552947575867e-03 0.0000000000000000e+00  5.6213027547642269e-04 8.0032690715476414e-03 0.0000000000000000e+00  5.5867581230340175e-04 8.0695997287226432e-03 0.0000000000000000e+00  5.5467705942774837e-04 8.1349298067702643e-03 0.0000000000000000e+00  5.5021693266439609e-04 8.1990847896097376e-03 0.0000000000000000e+00  5.4538205614000656e-04 8.2619292288070908e-03 0.0000000000000000e+00  5.4026214200333185e-04 8.3233660429499097e-03 0.0000000000000000e+00  5.3494800098935252e-04 8.3833357059179669e-03 0.0000000000000000e+00  5.2952935201933875e-04 8.4418141587257953e-03 0.0000000000000000e+00  5.2409295499298485e-04 8.4988100694748329e-03 0.0000000000000000e+00  5.1872108200178338e-04 8.5543620169225461e-03 0.0000000000000000e+00  5.1349016267465859e-04 8.6085358390699425e-03 0.0000000000000000e+00  5.0846953286331836e-04 8.6614219661820310e-03 0.0000000000000000e+00  5.0372033210664723e-04 8.7131325513897483e-03 0.0000000000000000e+00  4.9929462670628068e-04 8.7637983562149670e-03 0.0000000000000000e+00  4.9523480487938406e-04 8.8135654598794407e-03 0.0000000000000000e+00  4.9157325266104045e-04 8.8625918761227815e-03 0.0000000000000000e+00  4.8833229429559285e-04 8.9110441280918235e-03 0.0000000000000000e+00  4.8552436269483888e-04 8.9590937851756342e-03 0.0000000000000000e+00  4.8315234618655597e-04 9.0069139053114006e-03 0.0000000000000000e+00  4.8121003276252081e-04 9.0546752457000435e-03 0.0000000000000000e+00  4.7968253374471080e-04 9.1025420098909127e-03 0.0000000000000000e+00  4.7854649385123198e-04 9.1506668114295833e-03 0.0000000000000000e+00  4.7776974403731273e-04 9.1991844937685443e-03 0.0000000000000000e+00  4.7730976409770902e-04 9.2482045249501956e-03 0.0000000000000000e+00  4.7710980379080272e-04 9.2978020100962597e-03 0.0000000000000000e+00  4.7709063371312993e-04 9.3480081144174613e-03 0.0000000000000000e+00  4.7713437415245212e-04 9.3988019938705796e-03 0.0000000000000000e+00  5.1524915862248219e-04 7.6669033431068017e-03 0.0000000000000000e+00  5.1401138888228269e-04 7.7340365293147636e-03 0.0000000000000000e+00  5.1219246510068254e-04 7.8019021038860667e-03 0.0000000000000000e+00  5.0981436883186157e-04 7.8700096045716140e-03 0.0000000000000000e+00  5.0692477675289092e-04 7.9379003567661196e-03 0.0000000000000000e+00  5.0358055051504479e-04 8.0052245161468388e-03 0.0000000000000000e+00  4.9983185698053531e-04 8.0717245199581605e-03 0.0000000000000000e+00  4.9572531528661423e-04 8.1371924837857004e-03 0.0000000000000000e+00  4.9131196488231199e-04 8.2014550924001482e-03 0.0000000000000000e+00  4.8665069904173805e-04 8.2643744188614868e-03 0.0000000000000000e+00  4.8180717628160851e-04 8.3258510328942954e-03 0.0000000000000000e+00  4.7685072165389996e-04 8.3858247479030174e-03 0.0000000000000000e+00  4.7185142415796544e-04 8.4442722234250815e-03 0.0000000000000000e+00  4.6687805189564159e-04 8.5012036270882239e-03 0.0000000000000000e+00  4.6199654775136586e-04 8.5566594929934632e-03 0.0000000000000000e+00  4.5726868630745194e-04 8.6107081055037133e-03 0.0000000000000000e+00  4.5275076713953210e-04 8.6634428977959282e-03 0.0000000000000000e+00  4.4849245275623191e-04 8.7149795140359521e-03 0.0000000000000000e+00  4.4453589069194042e-04 8.7654525070866695e-03 0.0000000000000000e+00  4.4091518482466165e-04 8.8150118277624222e-03 0.0000000000000000e+00  4.3765621444583134e-04 8.8638192503853169e-03 0.0000000000000000e+00  4.3477676372526375e-04 8.9120448205795930e-03 0.0000000000000000e+00  4.3228689554907477e-04 8.9598633672856743e-03 0.0000000000000000e+00  4.3018946731713772e-04 9.0074510771122052e-03 0.0000000000000000e+00  4.2848064068360146e-04 9.0549820693436155e-03 0.0000000000000000e+00  4.2715017899405645e-04 9.1026248471618876e-03 0.0000000000000000e+00  4.2618124057466298e-04 9.1505384713964372e-03 0.0000000000000000e+00  4.2554923817708521e-04 9.1988683605873055e-03 0.0000000000000000e+00  4.2521911741384309e-04 9.2477418439116769e-03 0.0000000000000000e+00  4.2514009323612613e-04 9.2972641088162420e-03 0.0000000000000000e+00  4.2523648895192285e-04 9.3475162115579779e-03 0.0000000000000000e+00  4.2539293878665017e-04 9.3985588381749145e-03 0.0000000000000000e+00  4.6022680087404655e-04 7.7356119668517730e-03 0.0000000000000000e+00  4.5702429303093908e-04 7.8037865679199056e-03 0.0000000000000000e+00  4.5356251820018059e-04 7.8721846230534135e-03 0.0000000000000000e+00  4.4985773799245216e-04 7.9402887992324929e-03 0.0000000000000000e+00  4.4593804728771763e-04 8.0077587082222901e-03 0.0000000000000000e+00  4.4181641723517896e-04 8.0743693482425057e-03 0.0000000000000000e+00  4.3750260562035284e-04 8.1399261547924918e-03 0.0000000000000000e+00  4.3301790916981030e-04 8.2042535758973904e-03 0.0000000000000000e+00  4.2839855716318302e-04 8.2672072741873347e-03 0.0000000000000000e+00  4.2369196189714252e-04 8.3286833304016678e-03 0.0000000000000000e+00  4.1895114623768627e-04 8.3886205402886188e-03 0.0000000000000000e+00  4.1423083069911108e-04 8.4469964864467926e-03 0.0000000000000000e+00  4.0958534197558171e-04 8.5038229496357670e-03 0.0000000000000000e+00  4.0506739772342066e-04 8.5591423140621448e-03 0.0000000000000000e+00  4.0072685746288895e-04 8.6130252330395857e-03 0.0000000000000000e+00  3.9660930633713705e-04 8.6655682455082442e-03 0.0000000000000000e+00  3.9275475289263635e-04 8.7168907514632282e-03 0.0000000000000000e+00  3.8919669831319386e-04 8.7671314141535804e-03 0.0000000000000000e+00  3.8596165884248424e-04 8.8164443276066706e-03 0.0000000000000000e+00  3.8306911481915623e-04 8.8649951821909208e-03 0.0000000000000000e+00  3.8053182067802969e-04 8.9129575501462281e-03 0.0000000000000000e+00  3.7835637560131925e-04 8.9605093799988763e-03 0.0000000000000000e+00  3.7654390220479955e-04 9.0078297683108578e-03 0.0000000000000000e+00  3.7509062135343248e-04 9.0550960304374289e-03 0.0000000000000000e+00  3.7398805278248998e-04 9.1024810414010050e-03 0.0000000000000000e+00  3.7322250640356891e-04 9.1501508154994329e-03 0.0000000000000000e+00  3.7277344448137181e-04 9.1982623952667920e-03 0.0000000000000000e+00  3.7261018659130420e-04 9.2469623909225036e-03 0.0000000000000000e+00  3.7268632301258581e-04 9.2963870419251783e-03 0.0000000000000000e+00  3.7293118401423539e-04 9.3466656167511108e-03 0.0000000000000000e+00  3.7323800597458988e-04 9.3979306464526575e-03 0.0000000000000000e+00  4.0205530502881987e-04 7.8063954099390253e-03 0.0000000000000000e+00  3.9759036899789373e-04 7.8750720921957583e-03 0.0000000000000000e+00  3.9314387668738088e-04 7.9433436140972803e-03 0.0000000000000000e+00  3.8869731548863773e-04 8.0108993774499915e-03 0.0000000000000000e+00  3.8421634302087044e-04 8.0775756594243381e-03 0.0000000000000000e+00  3.7967255233419309e-04 8.1431900399621671e-03 0.0000000000000000e+00  3.7506385719377183e-04 8.2075548973319160e-03 0.0000000000000000e+00  3.7041289943363052e-04 8.2705127333242683e-03 0.0000000000000000e+00  3.6575719657851445e-04 8.3319529519691269e-03 0.0000000000000000e+00  3.6113964688638280e-04 8.3918143160391385e-03 0.0000000000000000e+00  3.5660395894573444e-04 8.4500766053376090e-03 0.0000000000000000e+00  3.5219337888034051e-04 8.5067538512712381e-03 0.0000000000000000e+00  3.4795036954365200e-04 8.5618903288104276e-03 0.0000000000000000e+00  3.4391557077850777e-04 8.6155591679633915e-03 0.0000000000000000e+00  3.4012613912713489e-04 8.6678604702178294e-03 0.0000000000000000e+00  3.3661416610750140e-04 8.7189181291165811e-03 0.0000000000000000e+00  3.3340563264461920e-04 8.7688757404658091e-03 0.0000000000000000e+00  3.3051997108099739e-04 8.8178923005227342e-03 0.0000000000000000e+00  3.2797015338658481e-04 8.8661380205737675e-03 0.0000000000000000e+00  3.2576320882771496e-04 8.9137903897106921e-03 0.0000000000000000e+00  3.2390104168800524e-04 8.9610306260129134e-03 0.0000000000000000e+00  3.2238134760034489e-04 9.0080406732242282e-03 0.0000000000000000e+00  3.2119835582702526e-04 9.0550008496775008e-03 0.0000000000000000e+00  3.2034307880808262e-04 9.1020881868565853e-03 0.0000000000000000e+00  3.1980272408591145e-04 9.1494754839510136e-03 0.0000000000000000e+00  3.1955890451823153e-04 9.1973312069060301e-03 0.0000000000000000e+00  3.1958427479744243e-04 9.2458206122186127e-03 0.0000000000000000e+00  3.1983726577542701e-04 9.2951089153418109e-03 0.0000000000000000e+00  3.2025478091002871e-04 9.3453680064478524e-03 0.0000000000000000e+00  3.2074326458888586e-04 9.3967892178540881e-03 0.0000000000000000e+00  3.4113691867435189e-04 7.8785909520044366e-03 0.0000000000000000e+00  3.3622296804242617e-04 7.9470085936010661e-03 0.0000000000000000e+00  3.3142646054009598e-04 8.0146040103695852e-03 0.0000000000000000e+00  3.2668484290578189e-04 8.0813289240781200e-03 0.0000000000000000e+00  3.2194899651783718e-04 8.1469997579761404e-03 0.0000000000000000e+00  3.1721291393486977e-04 8.2113975898405519e-03 0.0000000000000000e+00  3.1250196487953084e-04 8.2743432295211018e-03 0.0000000000000000e+00  3.0785498042805589e-04 8.3357190762581267e-03 0.0000000000000000e+00  3.0331096115963929e-04 8.3954680162613739e-03 0.0000000000000000e+00  2.9890603418550034e-04 8.4535749559905855e-03 0.0000000000000000e+00  2.9467489378794652e-04 8.5100572586757749e-03 0.0000000000000000e+00  2.9065236983904673e-04 8.5649609253728304e-03 0.0000000000000000e+00  2.8687254563673851e-04 8.6183617079628582e-03 0.0000000000000000e+00  2.8336646759005870e-04 8.6703641212061335e-03 0.0000000000000000e+00  2.8016002111358538e-04 8.7210978692696464e-03 0.0000000000000000e+00  2.7727269945604220e-04 8.7707128909352474e-03 0.0000000000000000e+00  2.7471721771519451e-04 8.8193743839433646e-03 0.0000000000000000e+00  2.7249977458953145e-04 8.8672581575697518e-03 0.0000000000000000e+00  2.7062084102092132e-04 8.9145463742249780e-03 0.0000000000000000e+00  2.6907633132787598e-04 8.9614238806104921e-03 0.0000000000000000e+00  2.6785890283982709e-04 9.0080754097884835e-03 0.0000000000000000e+00  2.6695904064306974e-04 9.0546838490963878e-03 0.0000000000000000e+00  2.6636556006776112e-04 9.1014296365181900e-03 0.0000000000000000e+00  2.6606518405818076e-04 9.1484912961374478e-03 0.0000000000000000e+00  2.6604089879043828e-04 9.1960472009108771e-03 0.0000000000000000e+00  2.6626885807881835e-04 9.2442788566022786e-03 0.0000000000000000e+00  2.6671373351150405e-04 9.2933763167988154e-03 0.0000000000000000e+00  2.6732267469433855e-04 9.3435467399205930e-03 0.0000000000000000e+00  2.6801858661142623e-04 9.3950275090097859e-03 0.0000000000000000e+00  2.7877266183937285e-04 7.9511471340889452e-03 0.0000000000000000e+00  2.7386742752135514e-04 8.0187688603093471e-03 0.0000000000000000e+00  2.6898842220356378e-04 8.0855754102868299e-03 0.0000000000000000e+00  2.6411406783906241e-04 8.1513448187800121e-03 0.0000000000000000e+00  2.5926781204115896e-04 8.2157981483874740e-03 0.0000000000000000e+00  2.5449699256127536e-04 8.2787286026178488e-03 0.0000000000000000e+00  2.4985117757255810e-04 8.3400165043674805e-03 0.0000000000000000e+00  2.4536794603913800e-04 8.3996188906643697e-03 0.0000000000000000e+00  2.4107608816316672e-04 8.4575304496431764e-03 0.0000000000000000e+00  2.3700248670696471e-04 8.5137727079694671e-03 0.0000000000000000e+00  2.3317653245563146e-04 8.5683921271397113e-03 0.0000000000000000e+00  2.2962859290694067e-04 8.6214670104418738e-03 0.0000000000000000e+00  2.2638613642398349e-04 8.6731076396270122e-03 0.0000000000000000e+00  2.2347061995619654e-04 8.7234516098364506e-03 0.0000000000000000e+00  2.2089603780692005e-04 8.7726573132963434e-03 0.0000000000000000e+00  2.1866865266260618e-04 8.8208980523776272e-03 0.0000000000000000e+00  2.1678748983897848e-04 8.8683568238460478e-03 0.0000000000000000e+00  2.1524549209183378e-04 8.9152215880469194e-03 0.0000000000000000e+00  2.1403120656825501e-04 8.9616813298419359e-03 0.0000000000000000e+00  2.1313067964181593e-04 9.0079233976846917e-03 0.0000000000000000e+00  2.1252911273810836e-04 9.0541324132951320e-03 0.0000000000000000e+00  2.1221184521531223e-04 9.1004907824303091e-03 0.0000000000000000e+00  2.1216432214104142e-04 9.1471807189413348e-03 0.0000000000000000e+00  2.1237081515403024e-04 9.1943877483440257e-03 0.0000000000000000e+00  2.1281177999840449e-04 9.2423058263137303e-03 0.0000000000000000e+