<?xml version="1.0"?>
<VTKFile type="UnstructuredGrid"  version="0.1"  >
<UnstructuredGrid>
<Piece  NumberOfPoints="640" NumberOfCells="1175">
<Points>
<DataArray  type="Float64"  NumberOfComponents="3"  format="ascii">2.577391304347826 0 0  2.593913043478261 0 0  2.593913043478261 0.01666666666666667 0  2.577391304347826 0.01666666666666667 0  2.610434782608696 0 0  2.610434782608696 0.01666666666666667 0  2.62695652173913 0 0  2.62695652173913 0.01666666666666667 0  2.643478260869565 0 0  2.643478260869565 0.01666666666666667 0  2.66 0 0  2.66 0.01666666666666667 0  2.676521739130435 0 0  2.676521739130435 0.01666666666666667 0  2.693043478260869 0 0  2.693043478260869 0.01666666666666667 0  2.709565217391304 0 0  2.709565217391304 0.01666666666666667 0  2.726086956521739 0 0  2.726086956521739 0.01666666666666667 0  2.742608695652174 0 0  2.742608695652174 0.01666666666666667 0  2.759130434782609 0 0  2.759130434782609 0.01666666666666667 0  2.775652173913044 0 0  2.775652173913044 0.01666666666666667 0  2.792173913043478 0 0  2.792173913043478 0.01666666666666667 0  2.808695652173913 0 0  2.808695652173913 0.01666666666666667 0  2.825217391304347 0 0  2.825217391304347 0.01666666666666667 0  2.841739130434783 0 0  2.841739130434783 0.01666666666666667 0  2.858260869565217 0 0  2.858260869565217 0.01666666666666667 0  2.874782608695652 0 0  2.874782608695652 0.01666666666666667 0  2.891304347826087 0 0  2.891304347826087 0.01666666666666667 0  2.907826086956522 0 0  2.907826086956522 0.01666666666666667 0  2.924347826086957 0 0  2.924347826086957 0.01666666666666667 0  2.940869565217391 0 0  2.940869565217391 0.01666666666666667 0  2.957391304347826 0 0  2.957391304347826 0.01666666666666667 0  2.973913043478261 0 0  2.973913043478261 0.01666666666666667 0  2.593913043478261 0.03333333333333333 0  2.610434782608696 0.03333333333333333 0  2.62695652173913 0.03333333333333333 0  2.643478260869565 0.03333333333333333 0  2.66 0.03333333333333333 0  2.676521739130435 0.03333333333333333 0  2.693043478260869 0.03333333333333333 0  2.709565217391304 0.03333333333333333 0  2.726086956521739 0.03333333333333333 0  2.742608695652174 0.03333333333333333 0  2.759130434782609 0.03333333333333333 0  2.775652173913044 0.03333333333333333 0  2.792173913043478 0.03333333333333333 0  2.808695652173913 0.03333333333333333 0  2.825217391304347 0.03333333333333333 0  2.841739130434783 0.03333333333333333 0  2.858260869565217 0.03333333333333333 0  2.874782608695652 0.03333333333333333 0  2.891304347826087 0.03333333333333333 0  2.907826086956522 0.03333333333333333 0  2.924347826086957 0.03333333333333333 0  2.940869565217391 0.03333333333333333 0  2.957391304347826 0.03333333333333333 0  2.973913043478261 0.03333333333333333 0  2.610434782608696 0.05 0  2.62695652173913 0.05 0  2.643478260869565 0.05 0  2.66 0.05 0  2.676521739130435 0.05 0  2.693043478260869 0.05 0  2.709565217391304 0.05 0  2.726086956521739 0.05 0  2.742608695652174 0.05 0  2.759130434782609 0.05 0  2.775652173913044 0.05 0  2.792173913043478 0.05 0  2.808695652173913 0.05 0  2.825217391304347 0.05 0  2.841739130434783 0.05 0  2.858260869565217 0.05 0  2.874782608695652 0.05 0  2.891304347826087 0.05 0  2.907826086956522 0.05 0  2.924347826086957 0.05 0  2.940869565217391 0.05 0  2.957391304347826 0.05 0  2.973913043478261 0.05 0  2.990434782608696 0.05 0  2.62695652173913 0.06666666666666667 0  2.643478260869565 0.06666666666666667 0  2.66 0.06666666666666667 0  2.676521739130435 0.06666666666666667 0  2.693043478260869 0.06666666666666667 0  2.709565217391304 0.06666666666666667 0  2.726086956521739 0.06666666666666667 0  2.742608695652174 0.06666666666666667 0  2.759130434782609 0.06666666666666667 0  2.775652173913044 0.06666666666666667 0  2.792173913043478 0.06666666666666667 0  2.808695652173913 0.06666666666666667 0  2.825217391304347 0.06666666666666667 0  2.841739130434783 0.06666666666666667 0  2.858260869565217 0.06666666666666667 0  2.874782608695652 0.06666666666666667 0  2.891304347826087 0.06666666666666667 0  2.907826086956522 0.06666666666666667 0  2.924347826086957 0.06666666666666667 0  2.940869565217391 0.06666666666666667 0  2.957391304347826 0.06666666666666667 0  2.973913043478261 0.06666666666666667 0  2.990434782608696 0.06666666666666667 0  2.643478260869565 0.08333333333333333 0  2.66 0.08333333333333333 0  2.676521739130435 0.08333333333333333 0  2.693043478260869 0.08333333333333333 0  2.709565217391304 0.08333333333333333 0  2.726086956521739 0.08333333333333333 0  2.742608695652174 0.08333333333333333 0  2.759130434782609 0.08333333333333333 0  2.775652173913044 0.08333333333333333 0  2.792173913043478 0.08333333333333333 0  2.808695652173913 0.08333333333333333 0  2.825217391304347 0.08333333333333333 0  2.841739130434783 0.08333333333333333 0  2.858260869565217 0.08333333333333333 0  2.874782608695652 0.08333333333333333 0  2.891304347826087 0.08333333333333333 0  2.907826086956522 0.08333333333333333 0  2.924347826086957 0.08333333333333333 0  2.940869565217391 0.08333333333333333 0  2.957391304347826 0.08333333333333333 0  2.973913043478261 0.08333333333333333 0  2.990434782608696 0.08333333333333333 0  3.006956521739131 0.08333333333333333 0  2.66 0.1 0  2.676521739130435 0.1 0  2.693043478260869 0.1 0  2.709565217391304 0.1 0  2.726086956521739 0.1 0  2.742608695652174 0.1 0  2.759130434782609 0.1 0  2.775652173913044 0.1 0  2.792173913043478 0.1 0  2.808695652173913 0.1 0  2.825217391304347 0.1 0  2.841739130434783 0.1 0  2.858260869565217 0.1 0  2.874782608695652 0.1 0  2.891304347826087 0.1 0  2.907826086956522 0.1 0  2.924347826086957 0.1 0  2.940869565217391 0.1 0  2.957391304347826 0.1 0  2.973913043478261 0.1 0  2.990434782608696 0.1 0  3.006956521739131 0.1 0  2.676521739130435 0.1166666666666667 0  2.693043478260869 0.1166666666666667 0  2.709565217391304 0.1166666666666667 0  2.726086956521739 0.1166666666666667 0  2.742608695652174 0.1166666666666667 0  2.759130434782609 0.1166666666666667 0  2.775652173913044 0.1166666666666667 0  2.792173913043478 0.1166666666666667 0  2.808695652173913 0.1166666666666667 0  2.825217391304347 0.1166666666666667 0  2.841739130434783 0.1166666666666667 0  2.858260869565217 0.1166666666666667 0  2.874782608695652 0.1166666666666667 0  2.891304347826087 0.1166666666666667 0  2.907826086956522 0.1166666666666667 0  2.924347826086957 0.1166666666666667 0  2.940869565217391 0.1166666666666667 0  2.957391304347826 0.1166666666666667 0  2.973913043478261 0.1166666666666667 0  2.990434782608696 0.1166666666666667 0  3.006956521739131 0.1166666666666667 0  3.023478260869565 0.1166666666666667 0  2.693043478260869 0.1333333333333333 0  2.709565217391304 0.1333333333333333 0  2.726086956521739 0.1333333333333333 0  2.742608695652174 0.1333333333333333 0  2.759130434782609 0.1333333333333333 0  2.775652173913044 0.1333333333333333 0  2.792173913043478 0.1333333333333333 0  2.808695652173913 0.1333333333333333 0  2.825217391304347 0.1333333333333333 0  2.841739130434783 0.1333333333333333 0  2.858260869565217 0.1333333333333333 0  2.874782608695652 0.1333333333333333 0  2.891304347826087 0.1333333333333333 0  2.907826086956522 0.1333333333333333 0  2.924347826086957 0.1333333333333333 0  2.940869565217391 0.1333333333333333 0  2.957391304347826 0.1333333333333333 0  2.973913043478261 0.1333333333333333 0  2.990434782608696 0.1333333333333333 0  3.006956521739131 0.1333333333333333 0  3.023478260869565 0.1333333333333333 0  2.726086956521739 0.15 0  2.742608695652174 0.15 0  2.759130434782609 0.15 0  2.775652173913044 0.15 0  2.792173913043478 0.15 0  2.808695652173913 0.15 0  2.825217391304347 0.15 0  2.841739130434783 0.15 0  2.858260869565217 0.15 0  2.874782608695652 0.15 0  2.891304347826087 0.15 0  2.907826086956522 0.15 0  2.924347826086957 0.15 0  2.940869565217391 0.15 0  2.957391304347826 0.15 0  2.973913043478261 0.15 0  2.990434782608696 0.15 0  3.006956521739131 0.15 0  3.023478260869565 0.15 0  3.04 0.15 0  2.742608695652174 0.1666666666666667 0  2.759130434782609 0.1666666666666667 0  2.775652173913044 0.1666666666666667 0  2.792173913043478 0.1666666666666667 0  2.808695652173913 0.1666666666666667 0  2.825217391304347 0.1666666666666667 0  2.841739130434783 0.1666666666666667 0  2.858260869565217 0.1666666666666667 0  2.874782608695652 0.1666666666666667 0  2.891304347826087 0.1666666666666667 0  2.907826086956522 0.1666666666666667 0  2.924347826086957 0.1666666666666667 0  2.940869565217391 0.1666666666666667 0  2.957391304347826 0.1666666666666667 0  2.973913043478261 0.1666666666666667 0  2.990434782608696 0.1666666666666667 0  3.006956521739131 0.1666666666666667 0  3.023478260869565 0.1666666666666667 0  3.04 0.1666666666666667 0  3.056521739130435 0.1666666666666667 0  2.759130434782609 0.1833333333333333 0  2.775652173913044 0.1833333333333333 0  2.792173913043478 0.1833333333333333 0  2.808695652173913 0.1833333333333333 0  2.825217391304347 0.1833333333333333 0  2.841739130434783 0.1833333333333333 0  2.858260869565217 0.1833333333333333 0  2.874782608695652 0.1833333333333333 0  2.891304347826087 0.1833333333333333 0  2.907826086956522 0.1833333333333333 0  2.924347826086957 0.1833333333333333 0  2.940869565217391 0.1833333333333333 0  2.957391304347826 0.1833333333333333 0  2.973913043478261 0.1833333333333333 0  2.990434782608696 0.1833333333333333 0  3.006956521739131 0.1833333333333333 0  3.023478260869565 0.1833333333333333 0  3.04 0.1833333333333333 0  3.056521739130435 0.1833333333333333 0  3.073043478260869 0.1833333333333333 0  2.775652173913044 0.2 0  2.792173913043478 0.2 0  2.808695652173913 0.2 0  2.825217391304347 0.2 0  2.841739130434783 0.2 0  2.858260869565217 0.2 0  2.874782608695652 0.2 0  2.891304347826087 0.2 0  2.907826086956522 0.2 0  2.924347826086957 0.2 0  2.940869565217391 0.2 0  2.957391304347826 0.2 0  2.973913043478261 0.2 0  2.990434782608696 0.2 0  3.006956521739131 0.2 0  3.023478260869565 0.2 0  3.04 0.2 0  3.056521739130435 0.
[...]
<PointData  Vectors="Displacement"> 
<DataArray  type="Float64"  Name="Displacement"  NumberOfComponents="3" format="ascii">4.0936791168807562e-04 3.6068667573296029e-03 0.0000000000000000e+00  4.1122983537995471e-04 3.6365885290310395e-03 0.0000000000000000e+00  3.8072257305860551e-04 3.6361470437772398e-03 0.0000000000000000e+00  3.8002080137665873e-04 3.6064231211160188e-03 0.0000000000000000e+00  4.1305017184055831e-04 3.6674714219008205e-03 0.0000000000000000e+00  3.8144179455913555e-04 3.6670322191672679e-03 0.0000000000000000e+00  4.1481455631699248e-04 3.6994151034254632e-03 0.0000000000000000e+00  3.8219764865115788e-04 3.6989804127773710e-03 0.0000000000000000e+00  4.1652046988006907e-04 3.7323074540741557e-03 0.0000000000000000e+00  3.8299533805485588e-04 3.7318760904198785e-03 0.0000000000000000e+00  4.1816992408935449e-04 3.7660476353591366e-03 0.0000000000000000e+00  3.8383492628346307e-04 3.7656186394325925e-03 0.0000000000000000e+00  4.1976470201478136e-04 3.8005419878205070e-03 0.0000000000000000e+00  3.8471552493412649e-04 3.8001144912608040e-03 0.0000000000000000e+00  4.2130510367234259e-04 3.8356981205791099e-03 0.0000000000000000e+00  3.8563834448021047e-04 3.8352716615879180e-03 0.0000000000000000e+00  4.2279015479078412e-04 3.8714191878823833e-03 0.0000000000000000e+00  3.8660638585326655e-04 3.8709940903225164e-03 0.0000000000000000e+00  4.2421898311927069e-04 3.9076018472974459e-03 0.0000000000000000e+00  3.8762202903241911e-04 3.9071786795071683e-03 0.0000000000000000e+00  4.2559111922669564e-04 3.9441415669764180e-03 0.0000000000000000e+00  3.8868438046451599e-04 3.9437213090803237e-03 0.0000000000000000e+00  4.2690643809802049e-04 3.9809364096256407e-03 0.0000000000000000e+00  3.8978936961853324e-04 3.9805202578502581e-03 0.0000000000000000e+00  4.2816627496448803e-04 4.0178889232176411e-03 0.0000000000000000e+00  3.9093188549835565e-04 4.0174769714884833e-03 0.0000000000000000e+00  4.2937317853229944e-04 4.0549106941109025e-03 0.0000000000000000e+00  3.9210767626366924e-04 4.0545019340757242e-03 0.0000000000000000e+00  4.3052860026232645e-04 4.0919217681664784e-03 0.0000000000000000e+00  3.9331491561437286e-04 4.0915155717824283e-03 0.0000000000000000e+00  4.3163233888431367e-04 4.1288417584067066e-03 0.0000000000000000e+00  3.9455487424747815e-04 4.1284379507023688e-03 0.0000000000000000e+00  4.3268340596883174e-04 4.1655854277856466e-03 0.0000000000000000e+00  3.9583014045718170e-04 4.1651841649851720e-03 0.0000000000000000e+00  4.3368094946119400e-04 4.2020626842477048e-03 0.0000000000000000e+00  3.9714277695971918e-04 4.2016643695558563e-03 0.0000000000000000e+00  4.3462497562159273e-04 4.2381811760884916e-03 0.0000000000000000e+00  3.9849315593525086e-04 4.2377860374699363e-03 0.0000000000000000e+00  4.3551628054897673e-04 4.2738506276421310e-03 0.0000000000000000e+00  3.9987994067167598e-04 4.2734585487317137e-03 0.0000000000000000e+00  4.3635566008075349e-04 4.3089847182295046e-03 0.0000000000000000e+00  4.0130147410647463e-04 4.3085955288559583e-03 0.0000000000000000e+00  4.3714342989839387e-04 4.3434991674710134e-03 0.0000000000000000e+00  4.0275699084424827e-04 4.3431128013030141e-03 0.0000000000000000e+00  4.3787954689269022e-04 4.3773095819908889e-03 0.0000000000000000e+00  4.0424656769388786e-04 4.3769260012655195e-03 0.0000000000000000e+00  4.3856383600518998e-04 4.4103308913003084e-03 0.0000000000000000e+00  4.0577059454049714e-04 4.4099500209698172e-03 0.0000000000000000e+00  4.3919598516955181e-04 4.4424773135985631e-03 0.0000000000000000e+00  4.0732958626892160e-04 4.4420991841932810e-03 0.0000000000000000e+00  3.5090758663427991e-04 3.6358795189945126e-03 0.0000000000000000e+00  3.5032854476801099e-04 3.6667851505351630e-03 0.0000000000000000e+00  3.4993344100699917e-04 3.6987436901445886e-03 0.0000000000000000e+00  3.4977351750268941e-04 3.7316305420969685e-03 0.0000000000000000e+00  3.4977106547549592e-04 3.7653551957857428e-03 0.0000000000000000e+00  3.4990021845167444e-04 3.7998297395032661e-03 0.0000000000000000e+00  3.5015656217797866e-04 3.8349650931995961e-03 0.0000000000000000e+00  3.5055303347365124e-04 3.8706700502980904e-03 0.0000000000000000e+00  3.5110924184759420e-04 3.9068399527588697e-03 0.0000000000000000e+00  3.5182072183128049e-04 3.9433678240774457e-03 0.0000000000000000e+00  3.5268308485827087e-04 3.9801528518424723e-03 0.0000000000000000e+00  3.5369899544894089e-04 4.0170969294294539e-03 0.0000000000000000e+00  3.5483792252779915e-04 4.0541097097038150e-03 0.0000000000000000e+00  3.5606128058557248e-04 4.0911098460933880e-03 0.0000000000000000e+00  3.5738338637067001e-04 4.1280177118885372e-03 0.0000000000000000e+00  3.5882768334593077e-04 4.1647490902206432e-03 0.0000000000000000e+00  3.6040990022216988e-04 4.2012141697926227e-03 0.0000000000000000e+00  3.6213730338319704e-04 4.2373204793773886e-03 0.0000000000000000e+00  3.6399914709578450e-04 4.2729775111214410e-03 0.0000000000000000e+00  3.6597819846245164e-04 4.3080990498946909e-03 0.0000000000000000e+00  3.6806968375396420e-04 4.3426010115506950e-03 0.0000000000000000e+00  3.7027781168201155e-04 4.3763989970349946e-03 0.0000000000000000e+00  3.7260560072889314e-04 4.4094078178913533e-03 0.0000000000000000e+00  3.7505346099970838e-04 4.4415417188802967e-03 0.0000000000000000e+00  3.2306028911142486e-04 3.6702534564329700e-03 0.0000000000000000e+00  3.2210637897974977e-04 3.7020382298408191e-03 0.0000000000000000e+00  3.2138062618780480e-04 3.7346461643768566e-03 0.0000000000000000e+00  3.2087235666931614e-04 3.7680370375215485e-03 0.0000000000000000e+00  3.2056812823973792e-04 3.8021309018048898e-03 0.0000000000000000e+00  3.2046386611928767e-04 3.8368417519157104e-03 0.0000000000000000e+00  3.2056310285900674e-04 3.8720798842708324e-03 0.0000000000000000e+00  3.2087224598725285e-04 3.9077507402979078e-03 0.0000000000000000e+00  3.2139336386730137e-04 3.9437618167577461e-03 0.0000000000000000e+00  3.2212387867593622e-04 3.9800206543598969e-03 0.0000000000000000e+00  3.2305824574187009e-04 4.0164376332827130e-03 0.0000000000000000e+00  3.2418583271660466e-04 4.0529327793251890e-03 0.0000000000000000e+00  3.2549525271641976e-04 4.0894260853587324e-03 0.0000000000000000e+00  3.2698353673631412e-04 4.1258308807199827e-03 0.0000000000000000e+00  3.2865461935284641e-04 4.1620649179723648e-03 0.0000000000000000e+00  3.3051216289571123e-04 4.1980469154383384e-03 0.0000000000000000e+00  3.3255541180762679e-04 4.2336955027427207e-03 0.0000000000000000e+00  3.3477742810606874e-04 4.2689320804269624e-03 0.0000000000000000e+00  3.3716645378283321e-04 4.3036791404908016e-03 0.0000000000000000e+00  3.3970867156028745e-04 4.3378587998365616e-03 0.0000000000000000e+00  3.4238787014667860e-04 4.3713946073596676e-03 0.0000000000000000e+00  3.4518262308002576e-04 4.4042117461364451e-03 0.0000000000000000e+00  3.4806867095257333e-04 4.4362294211946580e-03 0.0000000000000000e+00  3.5102459252887364e-04 4.4673616016073668e-03 0.0000000000000000e+00  2.9402278185577913e-04 3.7053585367385405e-03 0.0000000000000000e+00  2.9294238865189607e-04 3.7377042472193345e-03 0.0000000000000000e+00  2.9207761303801690e-04 3.7707595050497232e-03 0.0000000000000000e+00  2.9144359198440031e-04 3.8044642734815556e-03 0.0000000000000000e+00  2.9104960565131175e-04 3.8387418290075511e-03 0.0000000000000000e+00  2.9090372264598609e-04 3.8735089799382615e-03 0.0000000000000000e+00  2.9101287256459648e-04 3.9086796858230268e-03 0.0000000000000000e+00  2.9138113476975591e-04 3.9441695450609425e-03 0.0000000000000000e+00  2.9200924706430291e-04 3.9798952748885423e-03 0.0000000000000000e+00  2.9289440737078086e-04 4.0157759541964103e-03 0.0000000000000000e+00  2.9403119661200277e-04 4.0517356700177018e-03 0.0000000000000000e+00  2.9541398760300698e-04 4.0876981112183191e-03 0.0000000000000000e+00  2.9703798445897863e-04 4.1235829207223644e-03 0.0000000000000000e+00  2.9889868742622122e-04 4.1593117026349656e-03 0.0000000000000000e+00  3.0099145039882150e-04 4.1948087233854431e-03 0.0000000000000000e+00  3.0330972756478243e-04 4.2300004247004886e-03 0.0000000000000000e+00  3.0584364482775888e-04 4.2648165725105809e-03 0.0000000000000000e+00  3.0857894830168463e-04 4.2991898187637236e-03 0.0000000000000000e+00  3.1149481685199246e-04 4.3330552265813003e-03 0.0000000000000000e+00  3.1456060729470305e-04 4.3663507755832779e-03 0.0000000000000000e+00  3.1773230470879638e-04 4.3990169111038854e-03 0.0000000000000000e+00  3.2096024186405983e-04 4.4309765952349920e-03 0.0000000000000000e+00  3.2420064722862071e-04 4.4621364971633385e-03 0.0000000000000000e+00  2.6443058773800628e-04 3.7407289741415582e-03 0.0000000000000000e+00  2.6329874556857067e-04 3.7734657656991661e-03 0.0000000000000000e+00  2.6240941481574199e-04 3.8067902066202097e-03 0.0000000000000000e+00  2.6178524212438440e-04 3.8406383696899184e-03 0.0000000000000000e+00  2.6144202310364223e-04 3.8749363836515006e-03 0.0000000000000000e+00  2.6139118132899075e-04 3.9096068913301958e-03 0.0000000000000000e+00  2.6164025073213725e-04 3.9445733928744507e-03 0.0000000000000000e+00  2.6219305921365641e-04 3.9797609726119300e-03 0.0000000000000000e+00  2.6304974024701284e-04 4.0150968285685394e-03 0.0000000000000000e+00  2.6420742149308043e-04 4.0505106520822660e-03 0.0000000000000000e+00  2.6566144610740209e-04 4.0859317286841158e-03 0.0000000000000000e+00  2.6740548296267920e-04 4.1212872931514237e-03 0.0000000000000000e+00  2.6943116728317428e-04 4.1565052562241491e-03 0.0000000000000000e+00  2.7172856324751633e-04 4.1915154318305763e-03 0.0000000000000000e+00  2.7428620623895332e-04 4.2262504171622648e-03 0.0000000000000000e+00  2.7709055651878501e-04 4.2606473334164960e-03 0.0000000000000000e+00  2.8012429731571320e-04 4.2946495533059377e-03 0.0000000000000000e+00  2.8336191498586468e-04 4.3282082689927812e-03 0.0000000000000000e+00  2.8676257906633696e-04 4.3612823691328712e-03 0.0000000000000000e+00  2.9026065932999715e-04 4.3938382536495438e-03 0.0000000000000000e+00  2.9378142730506146e-04 4.4257996157700593e-03 0.0000000000000000e+00  2.9726668117668182e-04 4.4570499793537000e-03 0.0000000000000000e+00  3.0064050545852228e-04 4.4875445130578735e-03 0.0000000000000000e+00  2.3447304075616078e-04 3.7761318698776320e-03 0.0000000000000000e+00  2.3337323635787283e-04 3.8090858007133865e-03 0.0000000000000000e+00  2.3256253667345469e-04 3.8425118269109211e-03 0.0000000000000000e+00  2.3206111530898254e-04 3.8763452415087264e-03 0.0000000000000000e+00  2.3188431506473796e-04 3.9105171512862462e-03 0.0000000000000000e+00  2.3204306171605349e-04 3.9449592680204145e-03 0.0000000000000000e+00  2.3254395180905284e-04 3.9796051747790079e-03 0.0000000000000000e+00  2.3338932126008792e-04 4.0143903888336854e-03 0.0000000000000000e+00  2.3457767229410090e-04 4.0492518117333709e-03 0.0000000000000000e+00  2.3610427018807558e-04 4.0841259194436116e-03 0.0000000000000000e+00  2.3796120257545898e-04 4.1189478573288862e-03 0.0000000000000000e+00  2.4013730744534251e-04 4.1536525877472665e-03 0.0000000000000000e+00  2.4261871315353387e-04 4.1881757915122253e-03 0.0000000000000000e+00  2.4538959727645685e-04 4.2224552114425362e-03 0.0000000000000000e+00  2.4843293283877176e-04 4.2564336035962177e-03 0.0000000000000000e+00  2.5173003606507278e-04 4.2900637609882821e-03 0.0000000000000000e+00  2.5525570712467887e-04 4.3233146461658647e-03 0.0000000000000000e+00  2.5896629051066431e-04 4.3561741109995498e-03 0.0000000000000000e+00  2.6277500151852123e-04 4.3886541558556405e-03 0.0000000000000000e+00  2.6658985309937122e-04 4.4206709317461184e-03 0.0000000000000000e+00  2.7036091785653099e-04 4.4520401073941951e-03 0.0000000000000000e+00  2.7402957701227711e-04 4.4827540780384327e-03 0.0000000000000000e+00  2.0424750160563004e-04 3.8113423205264484e-03 0.0000000000000000e+00  2.0328395303973693e-04 3.8443511869058226e-03 0.0000000000000000e+00  2.0265666307213028e-04 3.8777242274825479e-03 0.0000000000000000e+00  2.0238309236544325e-04 3.9113993836260574e-03 0.0000000000000000e+00  2.0247673143564861e-04 3.9453164457991692e-03 0.0000000000000000e+00  2.0294637829565854e-04 3.9794178877932389e-03 0.0000000000000000e+00  2.0379596093824453e-04 4.0136481888421996e-03 0.0000000000000000e+00  2.0502478261550470e-04 4.0479527062713284e-03 0.0000000000000000e+00  2.0662786348741227e-04 4.0822762432215220e-03 0.0000000000000000e+00  2.0859602929288988e-04 4.1165622791159732e-03 0.0000000000000000e+00  2.1091593059776491e-04 4.1507532897141538e-03 0.0000000000000000e+00  2.1357043137853831e-04 4.1847910808057208e-03 0.0000000000000000e+00  2.1653944843028005e-04 4.2186177320218832e-03 0.0000000000000000e+00  2.1980152784716603e-04 4.2521786966057346e-03 0.0000000000000000e+00  2.2333634075172860e-04 4.2854312861267257e-03 0.0000000000000000e+00  2.2712330300176666e-04 4.3183602164943340e-03 0.0000000000000000e+00  2.3112494316702376e-04 4.3509926699500561e-03 0.0000000000000000e+00  2.3522754599027826e-04 4.3834346434818003e-03 0.0000000000000000e+00  2.3930819717611775e-04 4.4155703500945529e-03 0.0000000000000000e+00  2.4335958769014333e-04 4.4471069266555467e-03 0.0000000000000000e+00  2.4717971330992918e-04 4.4781082217745204e-03 0.0000000000000000e+00  2.5029441991036253e-04 4.5093955804863389e-03 0.0000000000000000e+00  1.7385935940304991e-04 3.8461502908557462e-03 0.0000000000000000e+00  1.7313480546061962e-04 3.8790661447315159e-03 0.0000000000000000e+00  1.7279056163525992e-04 3.9122457853685731e-03 0.0000000000000000e+00  1.7284193249950786e-04 3.9456367178397475e-03 0.0000000000000000e+00  1.7329932080770020e-04 3.9791908277595359e-03 0.0000000000000000e+00  1.7416775795299963e-04 4.0128623287005692e-03 0.0000000000000000e+00  1.7544710303214005e-04 4.0466059850035969e-03 0.0000000000000000e+00  1.7713234280952557e-04 4.0803757213611564e-03 0.0000000000000000e+00  1.7921372956619677e-04 4.1141237868713987e-03 0.0000000000000000e+00  1.8167673316695697e-04 4.1478006741075902e-03 0.0000000000000000e+00  1.8450212240717290e-04 4.1813548419343252e-03 0.0000000000000000e+00  1.8766626215189629e-04 4.2147326970571573e-03 0.0000000000000000e+00  1.9114202152788917e-04 4.2478803171013312e-03 0.0000000000000000e+00  1.9490111712823117e-04 4.2807509543355783e-03 0.0000000000000000e+00  1.9892200188772384e-04 4.3133339332608418e-03 0.0000000000000000e+00  2.0317789895240017e-04 4.3457058414882559e-03 0.0000000000000000e+00  2.0749723903606526e-04 4.3781740813057845e-03 0.0000000000000000e+00  2.1171765933923313e-04 4.4105970826088499e-03 0.0000000000000000e+00  2.1573260989534039e-04 4.4424120006250007e-03 0.0000000000000000e+00  2.1910612203257458e-04 4.4745723999451590e-03 0.0000000000000000e+00  2.1846920009299217e-04 4.5089348127430292e-03 0.0000000000000000e+00  1.4302115355139291e-04 3.9130507145322133e-03 0.0000000000000000e+00  1.4305209462266808e-04 3.9459135645193415e-03 0.0000000000000000e+00  1.4351537156142701e-04 3.9789168339440422e-03 0.0000000000000000e+00  1.4441668291262773e-04 4.0120253073765936e-03 0.0000000000000000e+00  1.4575636813789273e-04 4.0452038294038718e-03 0.0000000000000000e+00  1.4752984793383174e-04 4.0784158976125027e-03 0.0000000000000000e+00  1.4972790175621196e-04 4.1116227344912834e-03 0.0000000000000000e+00  1.5233654160998252e-04 4.1447832040389897e-03 0.0000000000000000e+00  1.5533691016390058e-04 4.1778529219078037e-03 0.0000000000000000e+00  1.5870517763669196e-04 4.2107834478518139e-03 0.0000000000000000e+00  1.6241126146334308e-04 4.2435222300679400e-03 0.0000000000000000e+00  1.6641620045832321e-04 4.2760177631488766e-03 0.0000000000000000e+00  1.7066275919524318e-04 4.3082380834052747e-03 0.0000000000000000e+00  1.7510666045818547e-04 4.3403008087165565e-03 0.0000000000000000e+00  1.7942624675211971e-04 4.3729611539537559e-03 0.0000000000000000e+00  1.8333389139476986e-04 4.4059982638647282e-03 0.0000000000000000e+00  1.8671073342591278e-04 4.4389415066958563e-03 0.0000000000000000e+00  1.8611907249914422e-04 4.4741627908012511e-03 0.0000000000000000e+00  1.8580578269087805e-04 4.5085838550199056e-03 0.0000000000000000e+00  1.8561440943081425e-04 4.5421527165152601e-03 0.0000000000000000e+00  1.1303351485884437e-04 3.9461413552964383e-03 0.0000000000000000e+00  1.1352075897938154e-04 3.9785895009185777e-03 0.0000000000000000e+00  1.1446828063533256e-04 4.0111302636475967e-03 0.0000000000000000e+00  1.1587688334966920e-04 4.0437389125596692e-03 0.0000000000000000e+00  1.1774304238318915e-04 4.0763885408835326e-03 0.0000000000000000e+00  1.2005951364651096e-04 4.1090490122603820e-03 0.0000000000000000e+00  1.2281526763706265e-04 4.1416873667735948e-03 0.0000000000000000e+00  1.2599587734519796e-04 4.1742658938845071e-03 0.0000000000000000e+00  1.2958437227406815e-04 4.2067403032222776e-03 0.0000000000000000e+00  1.3356114505995480e-04 4.2390610358349814e-03 0.0000000000000000e+00  1.3789038783453743e-04 4.2711779179572442e-03 0.0000000000000000e+00  1.4248879224287641e-04 4.3030811372526540e-03 0.0000000000000000e+00  1.4704934265461696e-04 4.3348226338288552e-03 0.0000000000000000e+00  1.5079159319721504e-04 4.3681554178360256e-03 0.0000000000000000e+00  1.5310207804757110e-04 4.4028131733965716e-03 0.0000000000000000e+00  1.5267234154957540e-04 4.4385984049577481e-03 0.0000000000000000e+00  1.5238596693508742e-04 4.4738496939896594e-03 0.0000000000000000e+00  1.5221606791110620e-04 4.5083433147988091e-03 0.0000000000000000e+00  1.5223196389903967e-04 4.5420940787840132e-03 0.0000000000000000e+00  1.5235786669061936e-04 4.5749358943554062e-03 0.0000000000000000e+00  8.3256679976032109e-05 3.9782029419494708e-03 0.0000000000000000e+00  8.4262676676743814e-05 4.0101715238978338e-03 0.0000000000000000e+00  8.5745973690542609e-05 4.0422058916171379e-03 0.0000000000000000e+00  8.7704608810539579e-05 4.0742883252338500e-03 0.0000000000000000e+00  9.0134599569426172e-05 4.1063963494185418e-03 0.0000000000000000e+00  9.3029765630910552e-05 4.1385045366315468e-03 0.0000000000000000e+00  9.6383424826981470e-05 4.1705801085852538e-03 0.0000000000000000e+00  1.0019193102617875e-04 4.2025793080213278e-03 0.0000000000000000e+00  1.0445602246311235e-04 4.2344494592892606e-03 0.0000000000000000e+00  1.0917010586976169e-04 4.2661697215411925e-03 0.0000000000000000e+00  1.1416328083400225e-04 4.2978292099332231e-03 0.0000000000000000e+00  1.1881952720551083e-04 4.3301540089336890e-03 0.0000000000000000e+00  1.1841424779202097e-04 4.3664629454542303e-03 0.0000000000000000e+00  1.1816500506059481e-04 4.4025345728321407e-03 0.0000000000000000e+00  1.1796084856782437e-04 4.4383239879094063e-03 0.0000000000000000e+00  1.1784107032469041e-04 4.4736364567096870e-03 0.0000000000000000e+00  1.1786850058710699e-04 4.5082708205368303e-03 0.0000000000000000e+00  1.1798319851059450e-04 4.5421355423074525e-03 0.0000000000000000e+00  1.1834755182904388e-04 4.5751409503195159e-03 0.0000000000000000e+00  1.1813350860074736e-04 4.6039281323759325e-03 0.0000000000000000e+00  5.3757162814640385e-05 4.0091454528960943e-03 0.0000000000000000e+00  5.5315862112181260e-05 4.0406034570626727e-03 0.0000000000000000e+00  5.7357898251219357e-05 4.0721168735745154e-03 0.0000000000000000e+00  5.9881784428776151e-05 4.1036699403724994e-03 0.0000000000000000e+00  6.2883129759516257e-05 4.1352467729085822e-03 0.0000000000000000e+00  6.6353930086207141e-05 4.1668221748452595e-03 0.0000000000000000e+00  7.0282109457360021e-05 4.1983608930274471e-03 0.0000000000000000e+00  7.4628538036613232e-05 4.2298407915103715e-03 0.0000000000000000e+00  7.9198971395216431e-05 4.2613678687125553e-03 0.0000000000000000e+00  8.3253887795265956e-05 4.2938265396031189e-03 0.0000000000000000e+00  8.3114677841496926e-05 4.3299979491856965e-03 0.0000000000000000e+00  8.2949719222558539e-05 4.3661906176224235e-03 0.0000000000000000e+00  8.2786072796761000e-05 4.4022932491002793e-03 0.0000000000000000e+00  8.2675564748443733e-05 4.4381289281015960e-03 0.0000000000000000e+00  8.2649286299253986e-05 4.4735271999637588e-03 0.0000000000000000e+