<?xml version="1.0"?>
<VTKFile type="UnstructuredGrid"  version="0.1"  >
<UnstructuredGrid>
<Piece  NumberOfPoints="640" NumberOfCells="1181">
<Points>
<DataArray  type="Float64"  NumberOfComponents="3"  format="ascii">2.973913043478261 0 0  2.990434782608696 0 0  2.990434782608696 0.01666666666666667 0  2.973913043478261 0.01666666666666667 0  3.006956521739131 0 0  3.006956521739131 0.01666666666666667 0  3.023478260869565 0 0  3.023478260869565 0.01666666666666667 0  3.04 0 0  3.04 0.01666666666666667 0  3.056521739130435 0 0  3.056521739130435 0.01666666666666667 0  3.073043478260869 0 0  3.073043478260869 0.01666666666666667 0  3.089565217391304 0 0  3.089565217391304 0.01666666666666667 0  3.106086956521739 0 0  3.106086956521739 0.01666666666666667 0  3.122608695652174 0 0  3.122608695652174 0.01666666666666667 0  3.139130434782609 0 0  3.139130434782609 0.01666666666666667 0  3.155652173913043 0 0  3.155652173913043 0.01666666666666667 0  3.172173913043478 0 0  3.172173913043478 0.01666666666666667 0  3.188695652173913 0 0  3.188695652173913 0.01666666666666667 0  3.205217391304347 0 0  3.205217391304347 0.01666666666666667 0  3.221739130434782 0 0  3.221739130434782 0.01666666666666667 0  3.238260869565217 0 0  3.238260869565217 0.01666666666666667 0  2.990434782608696 0.03333333333333333 0  2.973913043478261 0.03333333333333333 0  3.006956521739131 0.03333333333333333 0  3.023478260869565 0.03333333333333333 0  3.04 0.03333333333333333 0  3.056521739130435 0.03333333333333333 0  3.073043478260869 0.03333333333333333 0  3.089565217391304 0.03333333333333333 0  3.106086956521739 0.03333333333333333 0  3.122608695652174 0.03333333333333333 0  3.139130434782609 0.03333333333333333 0  3.155652173913043 0.03333333333333333 0  3.172173913043478 0.03333333333333333 0  3.188695652173913 0.03333333333333333 0  3.205217391304347 0.03333333333333333 0  3.221739130434782 0.03333333333333333 0  3.238260869565217 0.03333333333333333 0  3.254782608695652 0.03333333333333333 0  2.990434782608696 0.05 0  3.006956521739131 0.05 0  3.023478260869565 0.05 0  3.04 0.05 0  3.056521739130435 0.05 0  3.073043478260869 0.05 0  3.089565217391304 0.05 0  3.106086956521739 0.05 0  3.122608695652174 0.05 0  3.139130434782609 0.05 0  3.155652173913043 0.05 0  3.172173913043478 0.05 0  3.188695652173913 0.05 0  3.205217391304347 0.05 0  3.221739130434782 0.05 0  3.238260869565217 0.05 0  3.254782608695652 0.05 0  3.271304347826087 0.05 0  3.006956521739131 0.06666666666666667 0  2.990434782608696 0.06666666666666667 0  3.023478260869565 0.06666666666666667 0  3.04 0.06666666666666667 0  3.056521739130435 0.06666666666666667 0  3.073043478260869 0.06666666666666667 0  3.089565217391304 0.06666666666666667 0  3.106086956521739 0.06666666666666667 0  3.122608695652174 0.06666666666666667 0  3.139130434782609 0.06666666666666667 0  3.155652173913043 0.06666666666666667 0  3.172173913043478 0.06666666666666667 0  3.188695652173913 0.06666666666666667 0  3.205217391304347 0.06666666666666667 0  3.221739130434782 0.06666666666666667 0  3.238260869565217 0.06666666666666667 0  3.254782608695652 0.06666666666666667 0  3.271304347826087 0.06666666666666667 0  3.287826086956521 0.06666666666666667 0  3.006956521739131 0.08333333333333333 0  3.023478260869565 0.08333333333333333 0  3.04 0.08333333333333333 0  3.056521739130435 0.08333333333333333 0  3.073043478260869 0.08333333333333333 0  3.089565217391304 0.08333333333333333 0  3.106086956521739 0.08333333333333333 0  3.122608695652174 0.08333333333333333 0  3.139130434782609 0.08333333333333333 0  3.155652173913043 0.08333333333333333 0  3.172173913043478 0.08333333333333333 0  3.188695652173913 0.08333333333333333 0  3.205217391304347 0.08333333333333333 0  3.221739130434782 0.08333333333333333 0  3.238260869565217 0.08333333333333333 0  3.254782608695652 0.08333333333333333 0  3.271304347826087 0.08333333333333333 0  3.287826086956521 0.08333333333333333 0  3.304347826086957 0.08333333333333333 0  3.023478260869565 0.1 0  3.006956521739131 0.1 0  3.04 0.1 0  3.056521739130435 0.1 0  3.073043478260869 0.1 0  3.089565217391304 0.1 0  3.106086956521739 0.1 0  3.122608695652174 0.1 0  3.139130434782609 0.1 0  3.155652173913043 0.1 0  3.172173913043478 0.1 0  3.188695652173913 0.1 0  3.205217391304347 0.1 0  3.221739130434782 0.1 0  3.238260869565217 0.1 0  3.254782608695652 0.1 0  3.271304347826087 0.1 0  3.287826086956521 0.1 0  3.304347826086957 0.1 0  3.320869565217391 0.1 0  3.023478260869565 0.1166666666666667 0  3.04 0.1166666666666667 0  3.056521739130435 0.1166666666666667 0  3.073043478260869 0.1166666666666667 0  3.089565217391304 0.1166666666666667 0  3.106086956521739 0.1166666666666667 0  3.122608695652174 0.1166666666666667 0  3.139130434782609 0.1166666666666667 0  3.155652173913043 0.1166666666666667 0  3.172173913043478 0.1166666666666667 0  3.188695652173913 0.1166666666666667 0  3.205217391304347 0.1166666666666667 0  3.221739130434782 0.1166666666666667 0  3.238260869565217 0.1166666666666667 0  3.254782608695652 0.1166666666666667 0  3.271304347826087 0.1166666666666667 0  3.287826086956521 0.1166666666666667 0  3.304347826086957 0.1166666666666667 0  3.320869565217391 0.1166666666666667 0  3.337391304347826 0.1166666666666667 0  3.04 0.1333333333333333 0  3.023478260869565 0.1333333333333333 0  3.056521739130435 0.1333333333333333 0  3.073043478260869 0.1333333333333333 0  3.089565217391304 0.1333333333333333 0  3.106086956521739 0.1333333333333333 0  3.122608695652174 0.1333333333333333 0  3.139130434782609 0.1333333333333333 0  3.155652173913043 0.1333333333333333 0  3.172173913043478 0.1333333333333333 0  3.188695652173913 0.1333333333333333 0  3.205217391304347 0.1333333333333333 0  3.221739130434782 0.1333333333333333 0  3.238260869565217 0.1333333333333333 0  3.254782608695652 0.1333333333333333 0  3.271304347826087 0.1333333333333333 0  3.287826086956521 0.1333333333333333 0  3.304347826086957 0.1333333333333333 0  3.320869565217391 0.1333333333333333 0  3.337391304347826 0.1333333333333333 0  3.353913043478261 0.1333333333333333 0  3.04 0.15 0  3.056521739130435 0.15 0  3.073043478260869 0.15 0  3.089565217391304 0.15 0  3.106086956521739 0.15 0  3.122608695652174 0.15 0  3.139130434782609 0.15 0  3.155652173913043 0.15 0  3.172173913043478 0.15 0  3.188695652173913 0.15 0  3.205217391304347 0.15 0  3.221739130434782 0.15 0  3.238260869565217 0.15 0  3.254782608695652 0.15 0  3.271304347826087 0.15 0  3.287826086956521 0.15 0  3.304347826086957 0.15 0  3.320869565217391 0.15 0  3.337391304347826 0.15 0  3.353913043478261 0.15 0  3.370434782608696 0.15 0  3.056521739130435 0.1666666666666667 0  3.073043478260869 0.1666666666666667 0  3.089565217391304 0.1666666666666667 0  3.106086956521739 0.1666666666666667 0  3.122608695652174 0.1666666666666667 0  3.139130434782609 0.1666666666666667 0  3.155652173913043 0.1666666666666667 0  3.172173913043478 0.1666666666666667 0  3.188695652173913 0.1666666666666667 0  3.205217391304347 0.1666666666666667 0  3.221739130434782 0.1666666666666667 0  3.238260869565217 0.1666666666666667 0  3.254782608695652 0.1666666666666667 0  3.271304347826087 0.1666666666666667 0  3.287826086956521 0.1666666666666667 0  3.304347826086957 0.1666666666666667 0  3.320869565217391 0.1666666666666667 0  3.337391304347826 0.1666666666666667 0  3.353913043478261 0.1666666666666667 0  3.370434782608696 0.1666666666666667 0  3.386956521739131 0.1666666666666667 0  3.073043478260869 0.1833333333333333 0  3.089565217391304 0.1833333333333333 0  3.106086956521739 0.1833333333333333 0  3.122608695652174 0.1833333333333333 0  3.139130434782609 0.1833333333333333 0  3.155652173913043 0.1833333333333333 0  3.172173913043478 0.1833333333333333 0  3.188695652173913 0.1833333333333333 0  3.205217391304347 0.1833333333333333 0  3.221739130434782 0.1833333333333333 0  3.238260869565217 0.1833333333333333 0  3.254782608695652 0.1833333333333333 0  3.271304347826087 0.1833333333333333 0  3.287826086956521 0.1833333333333333 0  3.304347826086957 0.1833333333333333 0  3.320869565217391 0.1833333333333333 0  3.337391304347826 0.1833333333333333 0  3.353913043478261 0.1833333333333333 0  3.370434782608696 0.1833333333333333 0  3.386956521739131 0.1833333333333333 0  3.403478260869565 0.1833333333333333 0  3.089565217391304 0.2 0  3.106086956521739 0.2 0  3.122608695652174 0.2 0  3.139130434782609 0.2 0  3.155652173913043 0.2 0  3.172173913043478 0.2 0  3.188695652173913 0.2 0  3.205217391304347 0.2 0  3.221739130434782 0.2 0  3.238260869565217 0.2 0  3.254782608695652 0.2 0  3.271304347826087 0.2 0  3.287826086956521 0.2 0  3.304347826086957 0.2 0  3.320869565217391 0.2 0  3.337391304347826 0.2 0  3.353913043478261 0.2 0  3.370434782608696 0.2 0  3.386956521739131 0.2 0  3.403478260869565 0.2 0  3.419999999999999 0.2 0  3.106086956521739 0.2166666666666667 0  3.122608695652174 0.2166666666666667 0  3.139130434782609 0.2166666666666667 0  3.155652173913043 0.2166666666666667 0  3.172173913043478 0.2166666666666667 0  3.188695652173913 0.2166666666666667 0  3.205217391304347 0.2166666666666667 0  3.221739130434782 0.2166666666666667 0  3.238260869565217 0.2166666666666667 0  3.254782608695652 0.2166666666666667 0  3.271304347826087 0.2166666666666667 0  3.287826086956521 0.2166666666666667 0  3.304347826086957 0.2166666666666667 0  3.320869565217391 0.2166666666666667 0  3.337391304347826 0.2166666666666667 0  3.353913043478261 0.2166666666666667 0  3.370434782608696 0.2166666666666667 0  3.386956521739131 0.2166666666666667 0  3.403478260869565 0.2166666666666667 0  3.419999999999999 0.2166666666666667 0  3.436521739130435 0.2166666666666667 0  3.122608695652174 0.2333333333333333 0  3.139130434782609 0.2333333333333333 0  3.155652173913043 0.2333333333333333 0  3.172173913043478 0.2333333333333333 0  3.188695652173913 0.2333333333333333 0  3.205217391304347 0.2333333333333333 0  3.221739130434782 0.2333333333333333 0  3.238260869565217 0.2333333333333333 0  3.254782
[...]
<CellData  Scalars="rho"> 
<DataArray  type="Float64"  Name="rho"  format="ascii">9.3089055957502675e-01   9.0726990418265940e-01   8.7605929634970470e-01   8.7808356983518510e-01   8.7582783240013529e-01   8.2376483947130208e-01   7.5832586677907943e-01   7.4113859433431573e-01   7.0829913472003991e-01   7.0090508186920308e-01   6.9025787805701766e-01   6.7782040143405620e-01   6.0271108375756222e-01   6.0076923844768959e-01   5.7926768596738920e-01   5.8543721512661329e-01   5.5258196724014119e-01   5.5819473176903434e-01   4.7046687615915272e-01   4.8106272809627543e-01   4.2062582211386357e-01   4.3838640265263157e-01   3.3711025872830702e-01   3.7777060837212728e-01   8.4584792536105791e-02   2.8810754967659885e-01   1.5117278195655127e-02   1.6056772227687477e-02   1.2743440628424108e-02   1.3686611285598537e-02   1.0452146390411379e-02   1.1328428070529252e-02   7.0008349782076418e-01   6.2458913938368965e-01   6.7011312935514455e-01   5.9940853846848641e-01   6.6611140694313997e-01   5.5723505924623595e-01   6.4756539571250016e-01   5.4430778727930806e-01   5.7472966123189906e-01   5.3567785034091897e-01   5.6865248543079150e-01   5.4215219356135191e-01   5.7230148618632726e-01   5.4445801067382871e-01   5.6173417467805309e-01   5.5550965810076547e-01   5.5128755841515376e-01   4.9082176920249448e-01   4.8429565860118301e-01   4.9441552072791156e-01   4.4852382337085683e-01   4.6499477132222927e-01   3.9935296995589847e-01   4.4475220202162108e-01   3.1320471000628342e-01   3.7818323508736296e-01   3.8686099577860865e-02   2.9100046405329794e-01   1.3419305299756186e-02   3.5128724461210667e-02   1.1037964176498135e-02   1.2187361143110902e-02   9.8762237970591981e-03   4.6076676106279907e-01   4.5855165315169438e-01   3.9275253825503559e-01   4.5304233916366854e-01   3.8581838699461285e-01   4.5803406246800538e-01   3.8943942076427168e-01   4.0081147820942309e-01   2.9668580247097254e-01   4.2766910334325081e-01   3.2018182599981859e-01   4.5526218668460350e-01   3.9234104946063247e-01   4.6986565779328293e-01   4.2404244320558176e-01   4.7963836963868678e-01   4.5204323658824358e-01   4.9162407919430684e-01   4.9084112847200134e-01   4.6557262946644890e-01   4.9691783882883794e-01   4.5140175528752963e-01   4.7600543689120239e-01   4.4318812199037066e-01   5.1184213206935814e-01   3.7882302749403740e-01   5.3596821686575458e-01   2.5499251634951997e-01   3.8640150417594177e-01   2.5486527752357512e-02   2.3473544808781574e-01   9.9162761583421900e-03   1.1152815568832160e-02   8.9168708134634688e-03   2.7575447354592564e-01   2.1157681896833555e-01   2.9471062539032694e-01   1.7644064494763206e-01   2.8328627943677126e-01   2.0377018894147131e-01   3.1385026684883754e-01   2.8227745250822267e-01   3.5197706198868017e-01   3.5416992302631506e-01   3.8877676754880375e-01   3.7893970580750286e-01   4.0975294233755061e-01   3.9599897332100886e-01   4.7431182052255694e-01   4.5987160834100871e-01   5.0880409078552202e-01   5.0095797787324059e-01   5.3511252053356750e-01   5.3879205187899748e-01   7.0013060014085782e-01   6.2924322943971844e-01   7.5581478645297684e-01   8.0562135551404068e-01   6.9933720357869256e-01   8.9099965751156263e-01   5.5947698780397492e-01   9.0727771670424773e-01   3.7612730486296991e-01   5.5784683629461229e-01   1.1384941778682904e-02   3.2527125337633128e-01   9.1324783032942954e-03   1.0364374040560450e-02   8.2494403902627998e-03   3.8948995387183466e-02   2.1441134664968595e-01   1.0227121779654297e-01   2.6831855848637470e-01   1.7058637460938761e-01   3.3314517957048639e-01   2.5924601176604728e-01   3.7315312000584250e-01   3.1834207606917037e-01   3.9538359390526051e-01   3.6538504847313069e-01   4.2842005160706637e-01   4.0867234716608264e-01   4.7011351366661552e-01   4.4803784754324144e-01   5.1092773420250981e-01   4.9586613373225247e-01   5.9662884267048255e-01   5.6628196380521834e-01   8.0431083465143394e-01   6.6022287183464667e-01   1.0000000000000000e+00   9.4852984927376360e-01   1.0000000000000000e+00   1.0000000000000000e+00   1.0000000000000000e+00   1.0000000000000000e+00   8.9459018136059754e-01   1.0000000000000000e+00   4.9706705934956513e-01   8.6089642562018065e-01   7.6903604973006578e-02   4.2884744747677522e-01   8.5616419162154369e-03   9.7418859985355655e-03   7.7823034785523409e-03   8.8060006822072975e-02   9.5823170031315227e-02   1.6670284195190097e-01   1.2347361906944469e-01   2.4894697250923017e-01   2.1130841941363204e-01   3.1661846282147715e-01   2.9296014954897576e-01   3.6498588866729781e-01   3.4107638886830471e-01   3.9626526703598258e-01   3.7820175910895809e-01   4.3539521278155230e-01   4.1158912249019297e-01   4.8845351189013619e-01   4.4461789862037782e-01   5.7667146136732905e-01   4.9478375591999219e-01   6.4819021093389584e-01   6.7646688701353963e-01   9.0064125588624178e-01   6.7639800441799092e-01   1.0000000000000000e+00   1.0000000000000000e+00   1.0000000000000000e+00   1.0000000000000000e+00   1.0000000000000000e+00   1.0000000000000000e+00   1.0000000000000000e+00   1.0000000000000000e+00   7.1850429854750442e-01   1.0000000000000000e+00   2.5033421352428786e-01   6.3625465248949520e-01   8.1587487687526973e-03   1.4668789838009502e-01   7.4780249284320125e-03   1.3890360478741895e-01   1.8159656954636463e-01   3.6989983999008058e-01   3.5203679990329384e-01   5.0657849096705121e-01   4.4635145793800141e-01   5.8440824205134023e-01   4.1675319798818344e-01   4.9482583411926734e-01   3.8026282505074677e-01   4.1394047833469427e-01   4.0139934899469032e-01   3.8384652134594355e-01   4.0172533423752793e-01   3.7484255861024107e-01   3.4434929731076996e-01   2.6876410225487629e-01   5.9049625828418884e-01   1.8256154401550404e-02   7.0740926172970520e-01   4.4080692085408218e-01   7.2259446167905572e-01   7.2675199478750052e-01   1.0000000000000000e+00   8.8586603428082911e-01   1.0000000000000000e+00   1.0000000000000000e+00   1.0000000000000000e+00   1.0000000000000000e+00   1.0000000000000000e+00   1.0000000000000000e+00   1.0000000000000000e+00   1.0000000000000000e+00   4.6802772560819511e-01   9.7117118700779270e-01   7.9077430797744163e-03   2.9904873275253885e-01   7.3226422870096937e-03   4.8682247927516126e-01   5.2711515427911493e-01   5.6712254008252583e-01   6.1813694305721334e-01   6.1504375879811823e-01   7.0376615553395538e-01   5.4456202647374796e-01   6.1783490997934587e-01   4.1574937875013979e-01   4.8493808060342763e-01   3.6302926700349175e-01   3.7574500472355976e-01   3.2377443294791308e-01   3.1458236452774146e-01   4.1147591806169594e-02   1.7876572331882716e-02   1.6263517512249772e-02   1.5888805934380416e-02   1.5315631386345065e-02   1.4698051708058048e-02   4.6084185482529511e-01   1.4160059875691201e-02   6.2630734472921334e-01   4.9374010786104505e-01   1.0000000000000000e+00   6.0341785797036129e-01   1.0000000000000000e+00   1.0000000000000000e+00   1.0000000000000000e+00   1.0000000000000000e+00   1.0000000000000000e+00   1.0000000000000000e+00   1.0000000000000000e+00   1.0000000000000000e+00   8.5288054475938024e-01   1.0000000000000000e+00   7.8056848015915746e-03   6.0329239955469838e-01   7.3140799108321010e-03   7.2917295352787526e-01   7.7468504489951329e-01   8.3535185055188343e-01   7.5658145177859248e-01   9.0588802282629455e-01   5.9376798483602744e-01   6.7154603537156488e-01   4.4173655993977551e-01   4.8871381662285851e-01   3.1228422544854334e-01   3.5192865268456236e-01   1.3009816066942712e-01   2.1932372435034780e-01   1.5471173728876025e-02   1.5357081637783767e-02   1.3709071385615073e-02   1.3328896872098202e-02   1.2735884974859299e-02   1.2113476895200195e-02   1.2406269491084877e-02   1.1596278210238543e-02   4.5306106955453729e-02   1.1615517990296911e-02   5.0863303909000523e-01   3.3275441368181879e-01   1.0000000000000000e+00   6.4761505894024085e-01   1.0000000000000000e+00   1.0000000000000000e+00   1.0000000000000000e+00   1.0000000000000000e+00   1.0000000000000000e+00   1.0000000000000000e+00   1.0000000000000000e+00   1.0000000000000000e+00   8.4711339635222394e-01   1.0000000000000000e+00   2.4737065489905716e-01   7.9050990113377195e-01   7.4501166017461378e-03   8.6764397866065990e-01   7.7008874700056784e-01   7.3902282892296611e-01   6.2206772171069125e-01   6.4922291006379707e-01   4.4459295936693982e-01   5.1203819516890559e-01   2.9007268686580939e-01   3.2932064134879047e-01   2.6512349569399039e-02   1.5344668755672770e-02   1.2872127011216950e-02   1.2712356694618612e-02   1.1188722334207937e-02   1.0837990221515954e-02   1.0242310311829254e-02   9.6961842472611214e-03   9.9191553978386186e-03   9.1891705426530614e-03   1.0088218338825849e-02   9.2044113589597222e-03   1.0590673415836036e-02   9.6218478410528552e-03   4.1263841294398657e-01   5.6930871109849859e-02   8.5748614644158139e-01   4.4023424726850469e-01   1.0000000000000000e+00   1.0000000000000000e+00   1.0000000000000000e+00   1.0000000000000000e+00   1.0000000000000000e+00   1.0000000000000000e+00   1.0000000000000000e+00   1.0000000000000000e+00   9.5733433282080560e-01   1.0000000000000000e+00   3.3646297033512512e-01   8.9169482231282782e-01   1.4812432500142048e-01   7.6448333633343324e-01   5.6351867998296723e-01   5.8698945147511683e-01   4.0185735866465433e-01   4.2222128086989869e-01   2.3434669088479125e-02   3.3608116238500373e-02   1.2534915972760644e-02   1.2441249651375596e-02   1.0370511228223059e-02   1.0186200882572310e-02   8.8913358008249257e-03   8.5814052083605340e-03   8.0376792626465337e-03   7.5851718191419920e-03   7.7199796312479013e-03   7.1178495029759759e-03   7.8495124701061601e-03   7.0984475325091391e-03   8.3393726441065540e-03   7.4538163322673857e-03   9.0823074655204256e-03   8.1092276159559322e-03   3.2211926124565671e-01   8.9598643783851181e-03   7.8598365738836484e-01   3.9145320272374662e-01   1.0000000000000000e+00   9.5162711560129276e-01   1.0000000000000000e+00   1.0000000000000000e+00   1.0000000000000000e+00   1.0000000000000000e+00   1.0000000000000000e+00   1.0000000000000000e+00   1.0000000000000000e+00   1.0000000000000000e+00   6.3015495632076424e-01   1.0000000000000000e+00   4.1757037277931697e-01   3.1972987477206655e-01   1.4998222187707489e-02   1.4799451304044845e-02   1.2237788794081179e-02   1.2098257769782067e-02   9.9075821287163274e-03   9.7680334692252617e-03   8.1313827534298128e-03   7.9449528262467029e-03   6.9091965055476257e-03   6.6443904543420241e-03   6.1861430330252543e-03   5.8226587438605292e-03   5.8946758840329279e-03   5.4186416646710379e-03   5.9735102082088543e-03   5.3748393632562490e-03   6.3713519777774336e-03   5.6444461119228781e-03   7.0399929222702247e-03   6.1893774640216391e-03   7.9154598166859044e-03   6.9704954646132760e-03   2.2354494185296195e-01   7.9256464395312826e-03   6.2194789685693486e-01   2.7319235689740540e-01   1.0000000000000000e+00   7.7489326767828537e-01   1.0000000000000000e+00   1.0000000000000000e+00   1.0000000000000000e+00   1.0000000000000000e+00   1.0000000000000000e+00   1.0000000000000000e+00   1.0000000000000000e+00   1.0000000000000000e+00   8.8455062797068740e-01   1.0000000000000000e+00   7.2496728109353148e-01   1.1733950321712913e-02   9.4769325190553547e-03   9.3164898692537339e-03   7.6321762733167564e-03   7.4826628504405081e-03   6.2367199506575804e-03   6.0650151562195971e-03   5.2697378496121324e-03   5.0504770950916614e-03   4.6855663171676606e-03   4.3998625969427704e-03   4.4350399140581833e-03   4.0679369364786597e-03   4.4762554405521331e-03   4.0147020963458499e-03   4.7779172173966263e-03   4.2100741707541038e-03   5.3175759202017869e-03   4.6340304808349933e-03   6.0752573912832538e-03   5.2733950667230387e-03   7.0193738689618250e-03   6.1144624416990569e-03   1.0336391237610222e-01   7.1270112651836788e-03   4.3552167057700703e-01   1.7889683799901737e-01   9.7017778075221195e-01   5.8205473768451466e-01   1.0000000000000000e+00   1.0000000000000000e+00   1.0000000000000000e+00   1.0000000000000000e+00   1.0000000000000000e+00   1.0000000000000000e+00   1.0000000000000000e+00   1.0000000000000000e+00   9.6757158173527957e-01   1.0000000000000000e+00   9.1270303126364893e-01   7.1806912420959504e-03   5.7655255444530231e-03   5.6273459368339157e-03   4.7004349049792806e-03   4.5526942892897999e-03   3.9580767824350096e-03   3.7816782851008463e-03   3.5021244617003838e-03   3.2814645893374469e-03   3.2973943696046862e-03   3.0190299595893311e-03   3.3156311580078046e-03   2.9669253799373021e-03   3.5378029824497661e-03   3.1060375350586561e-03   3.9539489134313459e-03   3.4262006978223619e-03   4.5610876953695945e-03   3.9252656238100477e-03   5.3585795688153573e-03   4.6066571161011843e-03   6.3381914494431051e-03   5.4742264609954263e-03   7.4628065500420507e-03   6.5207936410764293e-03   3.0981539222383886e-01   7.7025847244368189e-03   7.9394129931178326e-01   3.5717636142225573e-01   1.0000000000000000e+00   9.5712098824333047e-01   1.0000000000000000e+00   1.0000000000000000e+00   1.0000000000000000e+00   1.0000000000000000e+00   1.0000000000000000e+00   1.0000000000000000e+00   8.7575187829262258e-01   1.0000000000000000e+00   7.1678380754399273e-01   4.2917623423305608e-03   3.4941232166558730e-03   3.3732983232393305e-03   2.9359120432228946e-03   2.7975891743780876e-03   2.5888028286253219e-03   2.4209382810544368e-03   2.4277197904305778e-03   2.2192890530307922e-03   2.4337588166387899e-03   2.1738727658673312e-03   2.5955740787957648e-03   2.2727168485414924e-03   2.9096589729871191e-03   2.5112011405101771e-03   3.3798277199550406e-03   2.8919785503268053e-03   4.0157960768996397e-03   3.4243337254258833e-03   4.8300701574334227e-03   4.1226531064971683e-03   5.8307068546771083e-03   5.0028600473987139e-03   7.0038712588322864e-03   6.0736544073891046e-03   2.2467507395309355e-01   7.3148509217056575e-03   5.7434140779658405e-01   2.9725449548764343e-01   1.0000000000000000e+00   6.6042468440787339e-01   1.0000000000000000e+00   1.0000000000000000e+00   1.0000000000000000e+00   1.0000000000000000e+00   1.0000000000000000e+00   1.0000000000000000e+00   9.4236300742860457e-01   1.0000000000000000e+00   9.0618287848161938e-01   2.5697297878623602e-03   2.1558351097564466e-03   2.0498107742331060e-03   1.8962723153005900e-03   1.7703199601980470e-03   1.7731119835888564e-03   1.6186640725045307e-03   1.7737113361070602e-03   1.5819653572115657e-03   1.8914775700211398e-03   1.6527979280970115e-03   2.1262142059377026e-03   1.8296010387350802e-03   2.4841895780286969e-03   2.1168891617477969e-03   2.9779339748077682e-03   2.5253196438153312e-03   3.6254830683421471e-03   3.0714957610538658e-03   4.4482420180741019e-03   3.7770921538260653e-03   5.4652883235665429e-03   4.6662025807044441e-03   6.6787552016852204e-03   5.7582320376288821e-03   5.4715004190576143e-02   7.0503357583957676e-03   3.9268194772416537e-01   2.0649825944663483e-01   9.1266212493229892e-01   4.3860111481847192e-01   1.0000000000000000e+00   9.9077272315845577e-01   1.0000000000000000e+00   1.0000000000000000e+00   1.0000000000000000e+00   1.0000000000000000e+00   1.0000000000000000e+00   1.0000000000000000e+00   1.0000000000000000e+00   1.5705931194939489e-03   1.3790053688842951e-03   1.2858086540561372e-03   1.2869550904158695e-03   1.1736709683288508e-03   1.2859397988109278e-03   1.1457259341970335e-03   1.3722414444741649e-03   1.1973948456839210e-03   1.5472252034118873e-03   1.3287044805675001e-03   1.8176159970207551e-03   1.5445795715910609e-03   2.1957546237286836e-03   1.8551630531687504e-03   2.6997371648442951e-03   2.2761382404729549e-03   3.3530913741882666e-03   2.8288664633896719e-03   4.1832047425300837e-03   3.5399094519194471e-03   5.2167107428444295e-03   4.4389908460560961e-03   6.4682335166691869e-03   5.5533891924260765e-03   7.9161833337944472e-03   6.8946157691151966e-03   3.2158512199686073e-01   1.0775173757560312e-02   6.4700010449559509e-01   3.4847634674130884e-01   1.0000000000000000e+00   7.1237438083102544e-01   1.0000000000000000e+00   1.0000000000000000e+00   1.0000000000000000e+00   1.0000000000000000e+00   1.0000000000000000e+00   1.0000000000000000e+00   1.0000000000000000e+00   9.9821455266622320e-04   9.3081311940823618e-04   8.4880200600339381e-04   9.3020597739576244e-04   8.2878338888447305e-04   9.9437240678900926e-04   8.6755794037186005e-04   1.1252778515240336e-03   9.6589509147613660e-04   1.3291911940805823e-03   1.1284324954533419e-03   1.6170991501112942e-03   1.3640688584473698e-03   2.0051711325043539e-03   1.6864547974235447e-03   2.5151363919807576e-03   2.1145140021693182e-03   3.1742433064267158e-03   2.6728010417283589e-03   4.0141514503460162e-03   3.3913193532182197e-03   5.0674576414889956e-03   4.3040389578678463e-03   6.3589857834870861e-03   5.4445458370801971e-03   7.8846896170874058e-03   6.8350375475474383e-03   2.5409773465109231e-01   8.4594055782442612e-03   4.8315891304543035e-01   2.8119551598149367e-01   1.0000000000000000e+00   5.5835113593153207e-01   1.0000000000000000e+00   1.0000000000000000e+00   1.0000000000000000e+00   1.0000000000000000e+00   1.0000000000000000e+00   1.0000000000000000e+00   1.0000000000000000e+00   6.7464716337096108e-04   6.7552686981621403e-04   6.0352383124435938e-04   7.2443109500314694e-04   6.3392098780855886e-04   8.2341687798028417e-04   7.0883610856001364e-04   9.7794007594730471e-04   8.3233420441595856e-04   1.1972874410858627e-03   1.0118814461589389e-03   1.4951319876953981e-03   1.2588614095993581e-03   1.8901478316448509e-03   1.5891960943296935e-03   2.4065524575956764e-03   2.0240002132236928e-03   3.0742863174625852e-03   2.5900896884317715e-03   3.9282820444159891e-03   3.3200026907579993e-03   5.0056109291733032e-03   4.2508216705407255e-03   6.3376186901881165e-03   5.4202265708347330e-03   7.9303744483300020e-03   6.8562039562588195e-03   1.7766800407113667e-01   8.5530955721583000e-03   3.3377908610959428e-01   1.9964775057959011e-01   6.5532368062463831e-01   4.1511789423522671e-01   1.0000000000000000e+00   7.7794010138383585e-01   1.0000000000000000e+00   1.0000000000000000e+00   1.0000000000000000e+00   1.0000000000000000e+00   1.0000000000000000e+00   4.9940895578481405e-04   5.3823129746059578e-04   4.7578123667791906e-04   6.1469722637343398e-04   5.3464763693683202e-04   7.3336895195115395e-04   6.3033833438374241e-04   9.0186684534312447e-04   7.6895551994530143e-04   1.1314033163982136e-03   9.5976088788588280e-04   1.4374366533382752e-03   1.2157797152810266e-03   1.8403803576257551e-03   1.5545014154732450e-03   2.3662377846079535e-03   1.9986012657794297e-03   3.0468725126460245e-03   2.5764961951323974e-03   3.9193281366666638e-03   3.3223705021078504e-03   5.0229373942268672e-03   4.2749118768779376e-03   6.3916940747655504e-03   5.4732800213955568e-03   8.0373688415151488e-03   6.9475758320440249e-03   1.0177319815415174e-01   8.6990992317434145e-03   2.4218863527403500e-01   1.6699437642925177e-01   5.3238378609753056e-01   2.7209944620896903e-01   1.0000000000000000e+00   5.8420597857738676e-01   1.0000000000000000e+00   1.0000000000000000e+00   1.0000000000000000e+00   1.0000000000000000e+00   1.0000000000000000e+00   4.1992488978771439e-04   4.8129706124812685e-04   4.2904370824732997e-04   5.7488789913708244e-04   5.0590787449825625e-04   7.0684024048680921e-04   6.1580290760780731e-04   8.8619702867005139e-04   7.6616687863339150e-04   1.1255010519727730e-03   9.6750384205107392e-04   1.4414972094744390e-03   1.2340333449791757e-03   1.8558644222523035e-03   1.5844093094837439e-03   2.3958271084576878e-03   2.0424180402725915e-03   3.0943198150048213e-03   2.6374420770550358e-03   3.9890958044222552e-03   3.4042979355014403e-03   5.1196806991841443e-03   4.3817348310755460e-03   6.5203761116598919e-03   5.6084263082495055e-03   8.2062334198553157e-03   7.1145629578513274e-03   1.0147265139486493e-02   8.9056960643443383e-03   2.0946576037956816e-01   1.0827315772778438e-01   3.5410100667278549e-01   2.2237707622526609