<?xml version="1.0"?>
<VTKFile type="UnstructuredGrid"  version="0.1"  >
<UnstructuredGrid>
<Piece  NumberOfPoints="640" NumberOfCells="1175">
<Points>
<DataArray  type="Float64"  NumberOfComponents="3"  format="ascii">2.577391304347826 0 0  2.593913043478261 0 0  2.593913043478261 0.01666666666666667 0  2.577391304347826 0.01666666666666667 0  2.610434782608696 0 0  2.610434782608696 0.01666666666666667 0  2.62695652173913 0 0  2.62695652173913 0.01666666666666667 0  2.643478260869565 0 0  2.643478260869565 0.01666666666666667 0  2.66 0 0  2.66 0.01666666666666667 0  2.676521739130435 0 0  2.676521739130435 0.01666666666666667 0  2.693043478260869 0 0  2.693043478260869 0.01666666666666667 0  2.709565217391304 0 0  2.709565217391304 0.01666666666666667 0  2.726086956521739 0 0  2.726086956521739 0.01666666666666667 0  2.742608695652174 0 0  2.742608695652174 0.01666666666666667 0  2.759130434782609 0 0  2.759130434782609 0.01666666666666667 0  2.775652173913044 0 0  2.775652173913044 0.01666666666666667 0  2.792173913043478 0 0  2.792173913043478 0.01666666666666667 0  2.808695652173913 0 0  2.808695652173913 0.01666666666666667 0  2.825217391304347 0 0  2.825217391304347 0.01666666666666667 0  2.841739130434783 0 0  2.841739130434783 0.01666666666666667 0  2.858260869565217 0 0  2.858260869565217 0.01666666666666667 0  2.874782608695652 0 0  2.874782608695652 0.01666666666666667 0  2.891304347826087 0 0  2.891304347826087 0.01666666666666667 0  2.907826086956522 0 0  2.907826086956522 0.01666666666666667 0  2.924347826086957 0 0  2.924347826086957 0.01666666666666667 0  2.940869565217391 0 0  2.940869565217391 0.01666666666666667 0  2.957391304347826 0 0  2.957391304347826 0.01666666666666667 0  2.973913043478261 0 0  2.973913043478261 0.01666666666666667 0  2.593913043478261 0.03333333333333333 0  2.610434782608696 0.03333333333333333 0  2.62695652173913 0.03333333333333333 0  2.643478260869565 0.03333333333333333 0  2.66 0.03333333333333333 0  2.676521739130435 0.03333333333333333 0  2.693043478260869 0.03333333333333333 0  2.709565217391304 0.03333333333333333 0  2.726086956521739 0.03333333333333333 0  2.742608695652174 0.03333333333333333 0  2.759130434782609 0.03333333333333333 0  2.775652173913044 0.03333333333333333 0  2.792173913043478 0.03333333333333333 0  2.808695652173913 0.03333333333333333 0  2.825217391304347 0.03333333333333333 0  2.841739130434783 0.03333333333333333 0  2.858260869565217 0.03333333333333333 0  2.874782608695652 0.03333333333333333 0  2.891304347826087 0.03333333333333333 0  2.907826086956522 0.03333333333333333 0  2.924347826086957 0.03333333333333333 0  2.940869565217391 0.03333333333333333 0  2.957391304347826 0.03333333333333333 0  2.973913043478261 0.03333333333333333 0  2.610434782608696 0.05 0  2.62695652173913 0.05 0  2.643478260869565 0.05 0  2.66 0.05 0  2.676521739130435 0.05 0  2.693043478260869 0.05 0  2.709565217391304 0.05 0  2.726086956521739 0.05 0  2.742608695652174 0.05 0  2.759130434782609 0.05 0  2.775652173913044 0.05 0  2.792173913043478 0.05 0  2.808695652173913 0.05 0  2.825217391304347 0.05 0  2.841739130434783 0.05 0  2.858260869565217 0.05 0  2.874782608695652 0.05 0  2.891304347826087 0.05 0  2.907826086956522 0.05 0  2.924347826086957 0.05 0  2.940869565217391 0.05 0  2.957391304347826 0.05 0  2.973913043478261 0.05 0  2.990434782608696 0.05 0  2.62695652173913 0.06666666666666667 0  2.643478260869565 0.06666666666666667 0  2.66 0.06666666666666667 0  2.676521739130435 0.06666666666666667 0  2.693043478260869 0.06666666666666667 0  2.709565217391304 0.06666666666666667 0  2.726086956521739 0.06666666666666667 0  2.742608695652174 0.06666666666666667 0  2.759130434782609 0.06666666666666667 0  2.775652173913044 0.06666666666666667 0  2.792173913043478 0.06666666666666667 0  2.808695652173913 0.06666666666666667 0  2.825217391304347 0.06666666666666667 0  2.841739130434783 0.06666666666666667 0  2.858260869565217 0.06666666666666667 0  2.874782608695652 0.06666666666666667 0  2.891304347826087 0.06666666666666667 0  2.907826086956522 0.06666666666666667 0  2.924347826086957 0.06666666666666667 0  2.940869565217391 0.06666666666666667 0  2.957391304347826 0.06666666666666667 0  2.973913043478261 0.06666666666666667 0  2.990434782608696 0.06666666666666667 0  2.643478260869565 0.08333333333333333 0  2.66 0.08333333333333333 0  2.676521739130435 0.08333333333333333 0  2.693043478260869 0.08333333333333333 0  2.709565217391304 0.08333333333333333 0  2.726086956521739 0.08333333333333333 0  2.742608695652174 0.08333333333333333 0  2.759130434782609 0.08333333333333333 0  2.775652173913044 0.08333333333333333 0  2.792173913043478 0.08333333333333333 0  2.808695652173913 0.08333333333333333 0  2.825217391304347 0.08333333333333333 0  2.841739130434783 0.08333333333333333 0  2.858260869565217 0.08333333333333333 0  2.874782608695652 0.08333333333333333 0  2.891304347826087 0.08333333333333333 0  2.907826086956522 0.08333333333333333 0  2.924347826086957 0.08333333333333333 0  2.940869565217391 0.08333333333333333 0  2.957391304347826 0.08333333333333333 0  2.973913043478261 0.08333333333333333 0  2.990434782608696 0.08333333333333333 0  3.006956521739131 0.08333333333333333 0  2.66 0.1 0  2.676521739130435 0.1 0  2.693043478260869 0.1 0  2.709565217391304 0.1 0  2.726086956521739 0.1 0  2.742608695652174 0.1 0  2.759130434782609 0.1 0  2.775652173913044 0.1 0  2.792173913043478 0.1 0  2.808695652173913 0.1 0  2.825217391304347 0.1 0  2.841739130434783 0.1 0  2.858260869565217 0.1 0  2.874782608695652 0.1 0  2.891304347826087 0.1 0  2.907826086956522 0.1 0  2.924347826086957 0.1 0  2.940869565217391 0.1 0  2.957391304347826 0.1 0  2.973913043478261 0.1 0  2.990434782608696 0.1 0  3.006956521739131 0.1 0  2.676521739130435 0.1166666666666667 0  2.693043478260869 0.1166666666666667 0  2.709565217391304 0.1166666666666667 0  2.726086956521739 0.1166666666666667 0  2.742608695652174 0.1166666666666667 0  2.759130434782609 0.1166666666666667 0  2.775652173913044 0.1166666666666667 0  2.792173913043478 0.1166666666666667 0  2.808695652173913 0.1166666666666667 0  2.825217391304347 0.1166666666666667 0  2.841739130434783 0.1166666666666667 0  2.858260869565217 0.1166666666666667 0  2.874782608695652 0.1166666666666667 0  2.891304347826087 0.1166666666666667 0  2.907826086956522 0.1166666666666667 0  2.924347826086957 0.1166666666666667 0  2.940869565217391 0.1166666666666667 0  2.957391304347826 0.1166666666666667 0  2.973913043478261 0.1166666666666667 0  2.990434782608696 0.1166666666666667 0  3.006956521739131 0.1166666666666667 0  3.023478260869565 0.1166666666666667 0  2.693043478260869 0.1333333333333333 0  2.709565217391304 0.1333333333333333 0  2.726086956521739 0.1333333333333333 0  2.742608695652174 0.1333333333333333 0  2.759130434782609 0.1333333333333333 0  2.775652173913044 0.1333333333333333 0  2.792173913043478 0.1333333333333333 0  2.808695652173913 0.1333333333333333 0  2.825217391304347 0.1333333333333333 0  2.841739130434783 0.1333333333333333 0  2.858260869565217 0.1333333333333333 0  2.874782608695652 0.1333333333333333 0  2.891304347826087 0.1333333333333333 0  2.907826086956522 0.1333333333333333 0  2.924347826086957 0.1333333333333333 0  2.940869565217391 0.1333333333333333 0  2.957391304347826 0.1333333333333333 0  2.973913043478261 0.1333333333333333 0  2.990434782608696 0.1333333333333333 0  3.006956521739131 0.1333333333333333 0  3.023478260869565 0.1333333333333333 0  2.726086956521739 0.15 0  2.742608695652174 0.15 0  2.759130434782609 0.15 0  2.775652173913044 0.15 0  2.792173913043478 0.15 0  2.808695652173913 0.15 0  2.825217391304347 0.15 0  2.841739130434783 0.15 0  2.858260869565217 0.15 0  2.874782608695652 0.15 0  2.891304347826087 0.15 0  2.907826086956522 0.15 0  2.924347826086957 0.15 0  2.940869565217391 0.15 0  2.957391304347826 0.15 0  2.973913043478261 0.15 0  2.990434782608696 0.15 0  3.006956521739131 0.15 0  3.023478260869565 0.15 0  3.04 0.15 0  2.742608695652174 0.1666666666666667 0  2.759130434782609 0.1666666666666667 0  2.775652173913044 0.1666666666666667 0  2.792173913043478 0.1666666666666667 0  2.808695652173913 0.1666666666666667 0  2.825217391304347 0.1666666666666667 0  2.841739130434783 0.1666666666666667 0  2.858260869565217 0.1666666666666667 0  2.874782608695652 0.1666666666666667 0  2.891304347826087 0.1666666666666667 0  2.907826086956522 0.1666666666666667 0  2.924347826086957 0.1666666666666667 0  2.940869565217391 0.1666666666666667 0  2.957391304347826 0.1666666666666667 0  2.973913043478261 0.1666666666666667 0  2.990434782608696 0.1666666666666667 0  3.006956521739131 0.1666666666666667 0  3.023478260869565 0.1666666666666667 0  3.04 0.1666666666666667 0  3.056521739130435 0.1666666666666667 0  2.759130434782609 0.1833333333333333 0  2.775652173913044 0.1833333333333333 0  2.792173913043478 0.1833333333333333 0  2.808695652173913 0.1833333333333333 0  2.825217391304347 0.1833333333333333 0  2.841739130434783 0.1833333333333333 0  2.858260869565217 0.1833333333333333 0  2.874782608695652 0.1833333333333333 0  2.891304347826087 0.1833333333333333 0  2.907826086956522 0.1833333333333333 0  2.924347826086957 0.1833333333333333 0  2.940869565217391 0.1833333333333333 0  2.957391304347826 0.1833333333333333 0  2.973913043478261 0.1833333333333333 0  2.990434782608696 0.1833333333333333 0  3.006956521739131 0.1833333333333333 0  3.023478260869565 0.1833333333333333 0  3.04 0.1833333333333333 0  3.056521739130435 0.1833333333333333 0  3.073043478260869 0.1833333333333333 0  2.775652173913044 0.2 0  2.792173913043478 0.2 0  2.808695652173913 0.2 0  2.825217391304347 0.2 0  2.841739130434783 0.2 0  2.858260869565217 0.2 0  2.874782608695652 0.2 0  2.891304347826087 0.2 0  2.907826086956522 0.2 0  2.924347826086957 0.2 0  2.940869565217391 0.2 0  2.957391304347826 0.2 0  2.973913043478261 0.2 0  2.990434782608696 0.2 0  3.006956521739131 0.2 0  3.023478260869565 0.2 0  3.04 0.2 0  3.056521739130435 0.
[...]
<CellData  Scalars="rho_bar"> 
<DataArray  type="Float64"  Name="rho_bar"  format="ascii">9.8785816685402983e-01   9.8455194893137832e-01   9.7590433777265972e-01   9.6407664864026754e-01   9.6699296731375062e-01   9.4480143614247758e-01   9.6477015989522308e-01   9.3743031154055867e-01   9.6645670149258167e-01   9.3969876892892445e-01   9.6846167538452255e-01   9.4413984584486443e-01   9.6909341697178741e-01   9.4649588136540097e-01   9.6798989384203882e-01   9.4563828277246598e-01   9.6548772303332686e-01   9.4189632952893876e-01   9.6243220457932210e-01   9.3653449558374990e-01   9.5987799653485473e-01   9.3143294536617827e-01   9.5857165445208059e-01   9.2823955457759111e-01   9.5868365673856792e-01   9.2759913024705110e-01   9.6002587483302626e-01   9.2928572368902496e-01   9.6229733652346239e-01   9.3278253606632455e-01   9.6510973159244673e-01   9.3746507052134975e-01   9.6815178737341934e-01   9.4271455538430315e-01   9.7121602834424647e-01   9.4812825746428442e-01   9.7401645761592004e-01   9.5329192351538650e-01   9.7626558717272560e-01   9.5765719165597230e-01   9.7785293229282111e-01   9.6086984236439188e-01   9.7886946465645741e-01   9.6296818554918473e-01   9.7951534596934664e-01   9.6426899824731793e-01   9.8005550054016599e-01   9.6522814926332834e-01   7.6082398770603910e-01   6.4601591507888467e-01   3.6103647103151804e-01   5.8798591998915117e-01   2.7610174133787563e-01   5.7939312277649513e-01   2.5272053111499454e-01   5.9536940034880592e-01   2.6143031828476837e-01   6.1174501187588448e-01   2.7841608084583253e-01   6.1679601855587984e-01   2.8819391358284119e-01   6.0883162503223609e-01   2.8541165981591210e-01   5.9182135111731993e-01   2.7227305549076475e-01   5.7265853731948968e-01   2.5501527813438946e-01   5.5783058815036146e-01   2.4017196055268947e-01   5.5064691259003873e-01   2.3150595984055988e-01   5.5107896453859895e-01   2.2949889991259897e-01   5.5774771837823001e-01   2.3297410006597027e-01   5.6963505396398462e-01   2.4098989977099880e-01   5.8539255111827415e-01   2.5298309649738887e-01   6.0370106906328480e-01   2.6808147767689083e-01   6.2418198356878019e-01   2.8597885582410626e-01   6.4541993920153273e-01   3.0641213706224146e-01   6.6443708761857090e-01   3.2719506373252227e-01   6.7914095017184617e-01   3.4528174340736362e-01   6.8985746343120680e-01   3.5946649071160253e-01   6.9867794078359047e-01   3.7120975396313038e-01   7.0889770039067201e-01   3.8396081344157584e-01   1.9263156703175969e-02   1.1248436085313061e-02   2.5401117949105140e-03   9.7449877102268392e-03   1.8304271629263509e-03   1.0437251646292653e-02   1.7636032762176385e-03   1.1601918334538747e-02   1.9046936927887357e-03   1.2070588268786132e-02   2.0073762369425341e-03   1.1459334764755641e-02   1.9509790779377644e-03   1.0151360318881090e-02   1.7555278734329857e-03   8.8012301519939211e-03   1.5184661429500639e-03   7.8476049051696677e-03   1.3287175661411169e-03   7.3948868193007763e-03   1.2213747051527059e-03   7.3647737461265085e-03   1.1903638160462150e-03   7.6580270383718053e-03   1.2175690360826141e-03   8.2447755631579120e-03   1.2920423006093280e-03   9.1367089430479560e-03   1.4167225199274028e-03   1.0339844989250146e-02   1.5940050546292585e-03   1.1925852041182725e-02   1.8298679949201426e-03   1.3965418304016245e-02   2.1467575026886607e-03   1.6318954369191774e-02   2.5497360010301815e-03   1.8694522468497735e-02   3.0053526865439226e-03   2.0987707315059629e-02   3.4871523352517646e-03   2.3497056578703011e-02   4.0375373289534252e-03   2.7018380578870665e-02   4.8011630578511872e-03   6.1185387553659362e-03   5.3995214966838459e-05   3.5432049142600724e-05   1.2156159950891662e-05   2.9408027087618407e-05   8.8128040105857763e-06   2.7168265956192953e-05   7.5082789237464085e-06   2.5362766882336224e-05   6.7701459846696445e-06   2.2910185582138286e-05   6.0654124765663215e-06   2.0050078603882121e-05   5.3135257197093933e-06   1.7459654338279940e-05   4.6134544954802056e-06   1.5633389919487341e-05   4.0812860438194710e-06   1.4689141178061742e-05   3.7658275065312070e-06   1.4511876517459263e-05   3.6511863045188896e-06   1.4953041891391508e-05   3.7006101925511155e-06   1.5960045585935508e-05   3.8902090832455113e-06   1.7591036555608277e-05   4.2277314103121261e-06   1.9947777020836261e-05   4.7413943234439815e-06   2.3244188233024501e-05   5.4710340233063245e-06   2.7852462103316218e-05   6.5105803158857634e-06   3.4123660113983425e-05   7.9934466200510902e-06   4.2437078137746253e-05   1.0073218616172696e-05   5.3893033561049644e-05   1.3055499555571164e-05   7.1663660410169051e-05   1.7761998986509216e-05   1.0411868201665815e-04   2.6377709003916925e-05   1.7606107369465550e-04   4.5350551014336465e-05   1.0072716379429721e-06   6.3639658287774355e-07   3.3657816578960599e-07   4.6654707190903112e-07   2.2235032417878238e-07   3.7089891456294153e-07   1.6515788898855616e-07   3.0720118149776828e-07   1.3120912864604792e-07   2.6115173861502865e-07   1.0866617754592786e-07   2.2819559787947569e-07   9.3132810785231388e-08   2.0660487242035786e-07   8.2841492255607298e-08   1.9495843685353010e-07   7.6834812203654347e-08   1.9180162177543051e-07   7.4388524956624438e-08   1.9611155365011004e-07   7.4994700779170469e-08   2.0779959678618283e-07   7.8492689307897836e-08   2.2793537658124282e-07   8.5198107945413796e-08   2.5890573212295743e-07   9.5977833142036312e-08   3.0526767886184647e-07   1.1249213881623761e-07   3.7524611875248785e-07   1.3792251577979769e-07   4.8336774156373640e-07   1.7819921985660672e-07   6.5829088356665316e-07   2.4506957025753114e-07   9.6585474651413639e-07   3.6524966880614035e-07   1.5789014285254322e-06   6.0901468651425374e-07   3.0298610578861083e-06   1.1946442013480093e-06   7.3736455340494653e-06   2.9726380062328114e-06   1.0483613318776848e-05   7.2429138331304328e-08   4.2711036340538416e-08   3.1539563583569390e-08   2.8934713673527872e-08   1.9328819472361561e-08   2.1591854583689496e-08   1.3440981227183411e-08   1.7297047425305335e-08   1.0247813542970574e-08   1.4676897013656219e-08   8.3901098575040837e-09   1.3109436343019010e-08   7.2925363993754487e-09   1.2283411011488171e-08   6.6863111904085002e-09   1.2037245738118980e-08   6.4385000576644736e-09   1.2305445580103997e-08   6.4902290398772225e-09   1.3109279940350405e-08   6.8381734169176613e-09   1.4571356566895846e-08   7.5377529779181622e-09   1.6962603258474917e-08   8.7261469908340732e-09   2.0821288167400793e-08   1.0684406628761773e-08   2.7227729924604136e-08   1.3990387247902773e-08   3.8484761907950045e-08   1.9901957935020293e-08   6.0038264586651515e-08   3.1442390341886595e-08   1.0665451563465199e-07   5.6942586779728129e-08   2.2593791518110539e-07   1.2376371869025451e-07   6.1079297540090310e-07   3.4512813257111649e-07   2.3282297385944063e-06   1.3623938400219974e-06   1.4436411287536635e-05   8.7758212801031051e-06   1.2440974390510806e-08   6.9832490721213800e-09   6.4918548689783228e-09   4.5680337571581488e-09   3.8292216067552650e-09   3.3546990928443700e-09   2.6093079365823729e-09   2.6964485831393804e-09   1.9861663241509463e-09   2.3332094406436429e-09   1.6510614358429448e-09   2.1504054742211565e-09   1.4769886981241211e-09   2.0970445936881051e-09   1.4087756147889961e-09   2.1564700304861953e-09   1.4254681787879786e-09   2.3381812506447545e-09   1.5282445587948900e-09   2.6823185711630213e-09   1.7408021969682456e-09   3.2799449547738600e-09   2.1218950579689331e-09   4.3271643123798298e-09   2.8015770631427229e-09   6.2695312557385584e-09   4.0807539387742198e-09   1.0227166309046429e-08   6.7298419157324564e-09   1.9434995669833324e-08   1.3021372360979785e-08   4.5069440747667459e-08   3.1007856738309938e-08   1.3586902140509947e-07   9.6846302549601963e-08   5.8199494930530836e-07   4.3266304401740869e-07   4.0368494250703580e-06   3.1345427702017571e-06   5.3711792969269981e-05   4.3392014321594468e-05   1.1489357522185297e-03   3.7469842971943187e-09   2.0646194847914648e-09   2.2213553590826334e-09   1.3460137635126264e-09   1.3042181594946954e-09   9.9915021634231771e-10   8.9669346029236134e-10   8.2271502579735682e-10   6.9785051816553825e-10   7.3880358318187626e-10   6.0128647436011305e-10   7.1622701293724829e-10   5.6583314889685174e-10   7.4610349385836698e-10   5.7747435541500348e-10   8.3553653816865240e-10   6.3833701292601339e-10   1.0115751570491869e-09   7.6758683674242235e-10   1.3392886245478860e-09   1.0147346297329038e-09   1.9752958992195575e-09   1.5016636453966002e-09   3.3358743917857261e-09   2.5575539650997099e-09   6.7072802224763618e-09   5.2187866809770976e-09   1.6933345190282277e-08   1.3486983105419480e-08   5.7520383488398345e-08   4.7435198309918871e-08   2.8645644294886917e-07   2.4760068085661358e-07   2.3276696340945466e-06   2.1230542807330958e-06   3.5158207485368823e-05   3.3595394431208824e-05   9.6540087473426651e-04   9.4655442257572805e-04   3.0268610854527016e-02   2.9805635208020955e-02   9.1318525896104234e-10   6.0963975539058923e-10   6.4679633875906645e-10   4.6905654364148721e-10   4.6160232121642036e-10   4.0655210682525485e-10   3.7846732232512864e-10   3.9176518513703404e-10   3.5039341801064428e-10   4.1726763714098001e-10   3.6315916017866537e-10   4.9154862591393490e-10   4.2066603907147285e-10   6.4527482436299532e-10   5.4758259042357794e-10   9.5901467330208257e-10   8.1239001643057298e-10   1.6575440650916548e-09   1.4094870086957957e-09   3.4740826792033804e-09   2.9817988450987657e-09   9.3922364985089192e-09   8.1934215622087480e-09   3.5677022311360354e-08   3.1963244211219859e-08   2.1193841008783433e-07   1.9800075233663048e-07   2.1965411254961797e-06   2.1792477284656760e-06   4.1120841985483037e-05   4.3840801519282742e-05   1.1817081025473786e-03   1.3252503218705405e-03   3.3838025138000140e-02   3.7595088858390732e-02   3.2106305814933717e-01   3.3749516322312245e-01   7.6250144193797909e-01   5.4755471457379917e-10   3.8755287870712707e-10   4.3451937421821581e-10   3.2193606116714270e-10   3.3601697353023401e-10   3.0901018783152443e-10   3.0602873940981976e-10   3.4038592317706877e-10   3.2500225661306685e-10   4.3054354529257189e-10   4.0163458673005289e-10   6.3129676491128493e-10   5.8150983107264993e-10   1.0969799051440524e-09   1.0060129304435367e-09   2.3510133841496523e-09   2.1607069653635336e-09   6.6306104870953007e-09   6.1434571508694604e-09   2.7150492023338322e-08   2.5532179964781959e-08   1.8555433037779692e-07   1.7891618705523454e-07   2.4933541845938416e-06   2.5102933115203255e-06   6.4654262586557514e-05   7.0090385703408477e-05   2.2021867747538354e-03   2.5977176802521639e-03   5.3878736110171903e-02   6.5061419718068544e-02   3.6972588962588587e-01   4.0815247710264091e-01   7.7975160497566642e-01   7.8966415864862938e-01   8.9402326870101045e-01   8.9378311775539265e-01   7.4720126096664985e-01   4.3498274430129523e-10   3.4499495855299696e-10   3.9787613022078847e-10   3.3139728926512725e-10   3.5736313910772821e-10   3.8255880873437152e-10   3.9320070350798272e-10   5.3142158270510903e-10   5.2911395639267570e-10   9.0107474266662887e-10   8.8063216910522833e-10   1.9292043982298178e-09   1.8701786694761985e-09   5.5432996715550330e-09   5.3747496365021807e-09   2.3551360650503326e-08   2.2981637835239403e-08   1.7134231590404658e-07   1.6890830883389300e-07   2.6257815642215567e-06   2.6251106190332094e-06   8.8910876819296112e-05   9.1616034528227078e-05   3.9942570298127774e-03   4.3952194759307225e-03   9.4457758116011703e-02   1.0933877834454631e-01   4.6496566346791435e-01   5.0769451802082921e-01   8.1895781860633055e-01   8.2939299992332860e-01   8.8695961369273568e-01   8.8278321093365120e-01   7.2106568159576589e-01   6.9907230330738668e-01   2.7926385257327013e-01   2.5956421702290666e-01   1.9010889975167231e-02   4.7983879836099745e-10   4.6438064508389610e-10   5.3850155820040496e-10   5.7132933573624913e-10   6.2297369119893922e-10   8.9842454778806330e-10   9.3949902494401126e-10   1.8534766500777890e-09   1.8894981506776623e-09   5.3012909714199113e-09   5.3412887727902129e-09   2.2998388426895149e-08   2.3164350578336693e-08   1.7240879951851043e-07   1.7481691489246766e-07   2.6814451466265561e-06   2.7322354221620288e-06   9.5547581524309228e-05   9.6821590720193247e-05   5.0608554066211078e-03   5.1487973306508254e-03   1.3011123398995458e-01   1.3624624214426348e-01   5.5676164218791102e-01   5.7742231945986178e-01   8.5447472760503296e-01   8.6019762476707540e-01   8.6380078994833265e-01   8.5757767311697519e-01   6.2682843494332485e-01   5.8361457036272057e-01   2.1262946022710980e-01   1.7494104381017933e-01   1.4423186388616059e-02   1.1975095143819555e-02   3.1990846772344828e-04   2.8733574428010846e-04   6.6194738336061742e-06   8.3468205501768524e-10   1.1219461749382150e-09   1.2874113165390361e-09   2.0935777742637156e-09   2.2755617484638686e-09   5.6977008300919652e-09   5.9846492210879855e-09   2.4735670421215225e-08   2.5569795070259640e-08   1.9417421833926970e-07   2.0105517348805145e-07   3.1726001133426293e-06   3.3326525545810493e-06   1.0816771731881461e-04   1.1490350531323248e-04   5.3526628193616057e-03   5.5735057300593189e-03   1.3963209265486937e-01   1.4124326927431272e-01   5.9260681903033596e-01   5.9529710052537910e-01   8.6959345267636812e-01   8.7041194801551258e-01   8.3950155039486485e-01   8.3471488948391381e-01   5.1442822610640171e-01   4.8117689211707038e-01   1.1914148529391624e-01   9.6305009039629560e-02   6.1555509460658768e-03   4.7165338480948836e-03   1.6614606834592632e-04   1.3525253614659954e-04   4.8274725406619603e-06   4.2560301838332173e-06   2.5014598502794038e-07   2.3035268543451193e-07   2.6172641232184159e-08   2.9735064598011949e-09   7.0673172504723738e-09   7.9356337340682224e-09   2.8608669666895141e-08   3.0619483737854453e-08   2.2792777839064706e-07   2.3816266512584434e-07   4.1560974022480667e-06   4.3667780394962223e-06   1.5349867203044869e-04   1.6689385753920747e-04   6.9204096312823491e-03   7.6867706679355141e-03   1.4886829060151535e-01   1.5923052843069599e-01   5.9646255444954943e-01   6.0202120811496851e-01   8.6795456925122283e-01   8.6659492891318735e-01   8.2234758915451767e-01   8.1731791697932799e-01   4.4855809532434454e-01   4.3200606772805922e-01   7.0040000805496702e-02   6.2791615653469302e-02   2.3952828378453611e-03   2.0030521102209538e-03   6.3673360434461423e-05   5.2453008650320343e-05   2.4257171293173448e-06   2.0851125166200635e-06   1.6679514232158876e-07   1.4977133476222255e-07   2.1424577474845620e-08   1.9790881203865604e-08   4.7174116468567756e-09   4.3922507393734789e-09   1.4829840967465792e-09   3.7843019008339985e-08   2.6638431381263156e-07   2.8686435265491277e-07   4.8635884022068238e-06   5.0203955673878563e-06   2.0657794141259864e-04   2.1354061057819881e-04   1.0185754429939509e-02   1.0957908774499567e-02   1.8321169887271713e-01   1.9933628340796672e-01   6.2389869636792050e-01   6.4006870531146554e-01   8.6430631028389149e-01   8.6482098770140725e-01   8.0016954441605481e-01   7.9273149990837233e-01   4.1042762496068858e-01   3.9296177593427906e-01   5.3068471559569813e-02   4.9613861135959912e-02   1.4126268171385436e-03   1.2967074805367311e-03   3.1469322021108705e-05   2.8206128016897932e-05   1.2491627163324099e-06   1.1109947192136336e-06   1.0420907712536889e-07   9.4128331562231754e-08   1.5646750183725874e-08   1.4451136085168951e-08   3.7185869294015855e-09   3.4912153078537817e-09   1.2734143647921886e-09   1.2012416247801463e-09   5.8383188103254582e-10   5.4595227417108548e-10   3.1101853502393025e-10   5.1872258348067222e-06   2.0780921817730252e-04   2.0644610849471006e-04   1.1708241961744607e-02   1.1482533457310512e-02   2.1795817190377242e-01   2.2153119245026529e-01   6.7279924075983566e-01   6.8326127801719005e-01   8.7105771214359906e-01   8.7390366698056898e-01   7.7122498449012611e-01   7.6536512477216601e-01   3.6501700279487426e-01   3.4296231906074548e-01   4.1521484341622727e-02   3.7825053632418552e-02   1.0466161809652361e-03   9.6930860531760691e-04   2.1859152647290989e-05   2.0449363579837536e-05   8.2849300618823150e-07   7.7175767736931289e-07   7.1719803268341305e-08   6.6771184244149348e-08   1.1716133591962190e-08   1.1000574905530241e-08   2.9974650634225569e-09   2.8474390995369728e-09   1.0659050957493554e-09   1.0212845940080623e-09   4.8668195403326455e-10   4.6710139463568213e-10   2.7088705354959421e-10   2.5810999635857961e-10   1.7837638774808868e-10   1.6699092110367853e-10   1.2469924168273199e-10   1.0099781673002817e-02   2.1610692367231774e-01   2.0644493078061318e-01   6.9308822511517432e-01   6.9006165021639088e-01   8.8279046058030641e-01   8.8530602117293455e-01   7.6009155593415101e-01   7.6315974021987198e-01   3.2176270432323667e-01   3.1341355856004804e-01   2.9860963178643736e-02   2.7493073939701983e-02   7.3589666462142245e-04   6.7339463078285912e-04   1.6437792814046020e-05   1.5435293526553416e-05   6.4652543784623274e-07   6.1659285627320781e-07   5.6793081408670693e-08   5.4449487441454282e-08   9.5518718590069941e-09   9.1964670978036999e-09   2.5451908175560236e-09   2.4655557967501267e-09   9.3685912738400002e-10   9.1351970439537750e-10   4.3477557668488451e-10   4.2585485141462094e-10   2.4002159520992317e-10   2.3517319574986791e-10   1.5236317764162536e-10   1.4844857751579417e-10   1.0940679844392703e-10   1.0519496385880563e-10   8.8440736222659035e-11   8.3177538936855318e-11   7.3384955525287820e-11   6.7441038698596922e-01   8.8948972935468396e-01   8.8941211629732098e-01   7.8364761525502202e-01   7.9220513446526408e-01   3.2019505185551700e-01   3.3585486741658355e-01   2.5047908031065907e-02   2.5491248825760419e-02   5.3532537843023194e-04   5.1984259896080257e-04   1.2220921088793325e-05   1.1763125611593136e-05   5.2969718454367925e-07   5.1485510893698492e-07   4.9350043583147461e-08   4.8413034779196013e-08   8.5399752183772841e-09   8.4308808644480879e-09   2.3288474391425715e-09   2.3106906019963009e-09   8.7673892226890582e-10   8.7419136750897429e-10   4.1417279794101825e-10   4.1489000201498033e-10   2.3044142521855812e-10   2.3163876374327260e-10   1.4526233920532332e-10   1.4616654184408049e-10   1.0157187129182890e-10   1.0190953637293557e-10   7.8071484468340614e-11   7.7673432506548287e-11   6.5845236675459817e-11   6.4506927582182907e-11   6.0982728131132119e-11   5.8377728581530579e-11   5.7565979765156071e-11   8.1073843501561749e-01   3.6636486249732386e-01   3.8622482363133692e-01   3.0614964902752402e-02   3.4111011290853054e-02   5.5260159420534379e-04   5.9453913290198992e-04   1.1044559399895093e-05   1.1351799739791611e-05   4.7747698248831356e-07   4.8277068141237175e-07   4.6426842725626483e-08   4.6917589298671786e-08   8.2999706558389303e-09   8.4241303661390887e-09   2.3133230610620470e-09   2.3594724879381006e-09   8.8639841769538626e-10   9.0843722366242068e-10   4.2556304779629326e-10   4.3830811206047911e-10   2.4007375718836743e-10   2.4852021368619235e-10   1.5265466669676267e-10   1.5876551926193167e-10   1.0670256345963357e-10   1.1134296263600972e-10   8.0870430728500283e-11   8.4443128422013775e-11   6.6035353116582666e-11   6.8711767762248621e-11   5.7957703455707550e-11   5.9762185945201214e-11   5.4625924158555901e-11   5.5454613127915766e-11   5.5222835567790685e-11   5.4819186231582111e-11   5.7633407310190068e-11   4.2268501538194947e-02   8.1984580504090485e-04   8.9919550939694356e-04   1.4049352079461694e-05   1.5231862951328763e-05   5.2976209791465882e-07   5.6250439937983073e-07   4.9647468713990314e-08   5.2277332337356585e-08   8.9281072634289688e-09   9.3985166415816416e-09   2.5269021229218513e-09   2.6690888297855401e-09   9.8408124249466932e-10   1.0444780596763699e-09   4.8042697601577110e-10   5.1279839637730867e-10   2.7582324389532833e-10   2.9628824396182816e-10   1.7846701895433908e-10   1.9302261642350330e-10   1.2661199867271039e-10   1.37857475