<?xml version="1.0"?>
<VTKFile type="UnstructuredGrid"  version="0.1"  >
<UnstructuredGrid>
<Piece  NumberOfPoints="607" NumberOfCells="1112">
<Points>
<DataArray  type="Float64"  NumberOfComponents="3"  format="ascii">0.4130434782608696 0 0  0.4295652173913043 0 0  0.4295652173913043 0.01666666666666667 0  0.4460869565217391 0 0  0.4460869565217391 0.01666666666666667 0  0.4626086956521739 0 0  0.4626086956521739 0.01666666666666667 0  0.4791304347826086 0 0  0.4791304347826086 0.01666666666666667 0  0.4956521739130435 0 0  0.4956521739130435 0.01666666666666667 0  0.5121739130434783 0 0  0.5121739130434783 0.01666666666666667 0  0.528695652173913 0 0  0.528695652173913 0.01666666666666667 0  0.5452173913043478 0 0  0.5452173913043478 0.01666666666666667 0  0.5617391304347825 0 0  0.5617391304347825 0.01666666666666667 0  0.5782608695652174 0 0  0.5782608695652174 0.01666666666666667 0  0.5947826086956521 0 0  0.5947826086956521 0.01666666666666667 0  0.6113043478260869 0 0  0.6113043478260869 0.01666666666666667 0  0.6278260869565218 0 0  0.6278260869565218 0.01666666666666667 0  0.6443478260869565 0 0  0.6443478260869565 0.01666666666666667 0  0.6608695652173913 0 0  0.6608695652173913 0.01666666666666667 0  0.677391304347826 0 0  0.677391304347826 0.01666666666666667 0  0.6939130434782609 0 0  0.6939130434782609 0.01666666666666667 0  0.7104347826086956 0 0  0.7104347826086956 0.01666666666666667 0  0.4460869565217391 0.03333333333333333 0  0.4626086956521739 0.03333333333333333 0  0.4791304347826086 0.03333333333333333 0  0.4956521739130435 0.03333333333333333 0  0.5121739130434783 0.03333333333333333 0  0.528695652173913 0.03333333333333333 0  0.5452173913043478 0.03333333333333333 0  0.5617391304347825 0.03333333333333333 0  0.5782608695652174 0.03333333333333333 0  0.5947826086956521 0.03333333333333333 0  0.6113043478260869 0.03333333333333333 0  0.6278260869565218 0.03333333333333333 0  0.6443478260869565 0.03333333333333333 0  0.6608695652173913 0.03333333333333333 0  0.677391304347826 0.03333333333333333 0  0.6939130434782609 0.03333333333333333 0  0.7104347826086956 0.03333333333333333 0  0.4626086956521739 0.05 0  0.4791304347826086 0.05 0  0.4956521739130435 0.05 0  0.5121739130434783 0.05 0  0.528695652173913 0.05 0  0.5452173913043478 0.05 0  0.5617391304347825 0.05 0  0.5782608695652174 0.05 0  0.5947826086956521 0.05 0  0.6113043478260869 0.05 0  0.6278260869565218 0.05 0  0.6443478260869565 0.05 0  0.6608695652173913 0.05 0  0.677391304347826 0.05 0  0.6939130434782609 0.05 0  0.7104347826086956 0.05 0  0.7269565217391304 0.05 0  0.4791304347826086 0.06666666666666667 0  0.4956521739130435 0.06666666666666667 0  0.5121739130434783 0.06666666666666667 0  0.528695652173913 0.06666666666666667 0  0.5452173913043478 0.06666666666666667 0  0.5617391304347825 0.06666666666666667 0  0.5782608695652174 0.06666666666666667 0  0.5947826086956521 0.06666666666666667 0  0.6113043478260869 0.06666666666666667 0  0.6278260869565218 0.06666666666666667 0  0.6443478260869565 0.06666666666666667 0  0.6608695652173913 0.06666666666666667 0  0.677391304347826 0.06666666666666667 0  0.6939130434782609 0.06666666666666667 0  0.7104347826086956 0.06666666666666667 0  0.7269565217391304 0.06666666666666667 0  0.7434782608695653 0.06666666666666667 0  0.4956521739130435 0.08333333333333333 0  0.5121739130434783 0.08333333333333333 0  0.528695652173913 0.08333333333333333 0  0.5452173913043478 0.08333333333333333 0  0.5617391304347825 0.08333333333333333 0  0.5782608695652174 0.08333333333333333 0  0.5947826086956521 0.08333333333333333 0  0.6113043478260869 0.08333333333333333 0  0.6278260869565218 0.08333333333333333 0  0.6443478260869565 0.08333333333333333 0  0.6608695652173913 0.08333333333333333 0  0.677391304347826 0.08333333333333333 0  0.6939130434782609 0.08333333333333333 0  0.7104347826086956 0.08333333333333333 0  0.7269565217391304 0.08333333333333333 0  0.7434782608695653 0.08333333333333333 0  0.7599999999999999 0.08333333333333333 0  0.5121739130434783 0.1 0  0.528695652173913 0.1 0  0.5452173913043478 0.1 0  0.5617391304347825 0.1 0  0.5782608695652174 0.1 0  0.5947826086956521 0.1 0  0.6113043478260869 0.1 0  0.6278260869565218 0.1 0  0.6443478260869565 0.1 0  0.6608695652173913 0.1 0  0.677391304347826 0.1 0  0.6939130434782609 0.1 0  0.7104347826086956 0.1 0  0.7269565217391304 0.1 0  0.7434782608695653 0.1 0  0.7599999999999999 0.1 0  0.7765217391304348 0.1 0  0.528695652173913 0.1166666666666667 0  0.5452173913043478 0.1166666666666667 0  0.5617391304347825 0.1166666666666667 0  0.5782608695652174 0.1166666666666667 0  0.5947826086956521 0.1166666666666667 0  0.6113043478260869 0.1166666666666667 0  0.6278260869565218 0.1166666666666667 0  0.6443478260869565 0.1166666666666667 0  0.6608695652173913 0.1166666666666667 0  0.677391304347826 0.1166666666666667 0  0.6939130434782609 0.1166666666666667 0  0.7104347826086956 0.1166666666666667 0  0.7269565217391304 0.1166666666666667 0  0.7434782608695653 0.1166666666666667 0  0.7599999999999999 0.1166666666666667 0  0.7765217391304348 0.1166666666666667 0  0.7930434782608695 0.1166666666666667 0  0.5452173913043478 0.1333333333333333 0  0.5617391304347825 0.1333333333333333 0  0.5782608695652174 0.1333333333333333 0  0.5947826086956521 0.1333333333333333 0  0.6113043478260869 0.1333333333333333 0  0.6278260869565218 0.1333333333333333 0  0.6443478260869565 0.1333333333333333 0  0.6608695652173913 0.1333333333333333 0  0.677391304347826 0.1333333333333333 0  0.6939130434782609 0.1333333333333333 0  0.7104347826086956 0.1333333333333333 0  0.7269565217391304 0.1333333333333333 0  0.7434782608695653 0.1333333333333333 0  0.7599999999999999 0.1333333333333333 0  0.7765217391304348 0.1333333333333333 0  0.7930434782608695 0.1333333333333333 0  0.8095652173913043 0.1333333333333333 0  0.5617391304347825 0.15 0  0.5782608695652174 0.15 0  0.5947826086956521 0.15 0  0.6113043478260869 0.15 0  0.6278260869565218 0.15 0  0.6443478260869565 0.15 0  0.6608695652173913 0.15 0  0.677391304347826 0.15 0  0.6939130434782609 0.15 0  0.7104347826086956 0.15 0  0.7269565217391304 0.15 0  0.7434782608695653 0.15 0  0.7599999999999999 0.15 0  0.7765217391304348 0.15 0  0.7930434782608695 0.15 0  0.8095652173913043 0.15 0  0.8260869565217391 0.15 0  0.5782608695652174 0.1666666666666667 0  0.5947826086956521 0.1666666666666667 0  0.6113043478260869 0.1666666666666667 0  0.6278260869565218 0.1666666666666667 0  0.6443478260869565 0.1666666666666667 0  0.6608695652173913 0.1666666666666667 0  0.677391304347826 0.1666666666666667 0  0.6939130434782609 0.1666666666666667 0  0.7104347826086956 0.1666666666666667 0  0.7269565217391304 0.1666666666666667 0  0.7434782608695653 0.1666666666666667 0  0.7599999999999999 0.1666666666666667 0  0.7765217391304348 0.1666666666666667 0  0.7930434782608695 0.1666666666666667 0  0.8095652173913043 0.1666666666666667 0  0.8260869565217391 0.1666666666666667 0  0.8426086956521739 0.1666666666666667 0  0.5947826086956521 0.1833333333333333 0  0.5782608695652174 0.1833333333333333 0  0.6113043478260869 0.1833333333333333 0  0.6278260869565218 0.1833333333333333 0  0.6443478260869565 0.1833333333333333 0  0.6608695652173913 0.1833333333333333 0  0.677391304347826 0.1833333333333333 0  0.6939130434782609 0.1833333333333333 0  0.7104347826086956 0.1833333333333333 0  0.7269565217391304 0.1833333333333333 0  0.7434782608695653 0.1833333333333333 0  0.7599999999999999 0.1833333333333333 0  0.7765217391304348 0.1833333333333333 0  0.7930434782608695 0.1833333333333333 0  0.8095652173913043 0.1833333333333333 0  0.8260869565217391 0.1833333333333333 0  0.8426086956521739 0.1833333333333333 0  0.8591304347826086 0.1833333333333333 0  0.5947826086956521 0.2 0  0.5782608695652174 0.2 0  0.6113043478260869 0.2 0  0.6278260869565218 0.2 0  0.6443478260869565 0.2 0  0.6608695652173913 0.2 0  0.677391304347826 0.2 0  0.6939130434782609 0.2 0  0.7104347826086956 0.2 0  0.7269565217391304 0.2 0  0.7434782608695653 0.2 0  0.7599999999999999 0.2 0  0.7765217391304348 0.2 0  0.7930434782608695 0.2 0  0.8095652173913043 0.2 0  0.8260869565217391 0.2 0  0.8426086956521739 0.2 0  0.8591304347826086 0.2 0  0.8756521739130434 0.2 0  0.5947826086956521 0.2166666666666667 0  0.5782608695652174 0.2166666666666667 0  0.6113043478260869 0.2166666666666667 0  0.6278260869565218 0.2166666666666667 0  0.6443478260869565 0.2166666666666667 0  0.6608695652173913 0.2166666666666667 0  0.677391304347826 0.2166666666666667 0  0.6939130434782609 0.2166666666666667 0  0.7104347826086956 0.2166666666666667 0  0.7269565217391304 0.2166666666666667 0  0.7434782608695653 0.2166666666666667 0  0.7599999999999999 0.2166666666666667 0  0.7765217391304348 0.2166666666666667 0  0.7930434782608695 0.2166666666666667 0  0.8095652173913043 0.2166666666666667 0  0.8260869565217391 0.2166666666666667 0  0.8426086956521739 0.2166666666666667 0  0.8591304347826086 0.2166666666666667 0  0.8756521739130434 0.2166666666666667 0  0.8921739130434783 0.2166666666666667 0  0.5947826086956521 0.2333333333333333 0  0.5782608695652174 0.2333333333333333 0  0.6113043478260869 0.2333333333333333 0  0.6278260869565218 0.2333333333333333 0  0.6443478260869565 0.2333333333333333 0  0.6608695652173913 0.2333333333333333 0  0.677391304347826 0.2333333333333333 0  0.6939130434782609 0.2333333333333333 0  0.7104347826086956 0.2333333333333333 0  0.7269565217391304 0.2333333333333333 0  0.7434782608695653 0.2333333333333333 0  0.7599999999999999 0.2333333333333333 0  0.7765217391304348 0.2333333333333333 0  0.7930434782608695 0.2333333333333333 0  0.8095652173913043 0.2333333333333333 0  0.8260869565217391 0.2333333333333333 0  0.8426086956521739 0.2333333333333333 0  0.8591304347826086 0.2333333333333333 0  0.8756521739130434 0.2333333333333333 0  0.8921739130434783 0.2333333333333333 0  0.908695652173913 0.2333333333333333 0  0.5947826086956521 0.25 0  0.6113043478260869 0.25 0  0.6278260869565218 0.25 0  0.6443
[...]
<PointData  Vectors="Displacement"> 
<DataArray  type="Float64"  Name="Displacement"  NumberOfComponents="3" format="ascii">1.2114881792421565e-04 1.0037651665983781e-03 0.0000000000000000e+00  1.2172936972631772e-04 1.0475923216113432e-03 0.0000000000000000e+00  7.6709814205931382e-05 1.0473903834148728e-03 0.0000000000000000e+00  1.2313028158082511e-04 1.0910900879766748e-03 0.0000000000000000e+00  7.7896883285862327e-05 1.0906165851163063e-03 0.0000000000000000e+00  1.2547016931207538e-04 1.1351770391577717e-03 0.0000000000000000e+00  7.9492708965036001e-05 1.1343347396966898e-03 0.0000000000000000e+00  1.2840209481874079e-04 1.1810510541883617e-03 0.0000000000000000e+00  8.1411602920173514e-05 1.1799123261262948e-03 0.0000000000000000e+00  1.3145918940933338e-04 1.2280340683531257e-03 0.0000000000000000e+00  8.4328098886548347e-05 1.2268599824760697e-03 0.0000000000000000e+00  1.3453670164614460e-04 1.2745779052035409e-03 0.0000000000000000e+00  8.8084955166913112e-05 1.2733305453585691e-03 0.0000000000000000e+00  1.3768729736998741e-04 1.3200186239940173e-03 0.0000000000000000e+00  9.2431157383473194e-05 1.3187218739300762e-03 0.0000000000000000e+00  1.4088612773747355e-04 1.3640900549301727e-03 0.0000000000000000e+00  9.7076484080975233e-05 1.3628048055043195e-03 0.0000000000000000e+00  1.4409495881295223e-04 1.4067518479680273e-03 0.0000000000000000e+00  1.0168555486181249e-04 1.4054802665002201e-03 0.0000000000000000e+00  1.4730929920296409e-04 1.4480859218782447e-03 0.0000000000000000e+00  1.0620181856275340e-04 1.4468210159195259e-03 0.0000000000000000e+00  1.5053426988311411e-04 1.4881736055446721e-03 0.0000000000000000e+00  1.1065481153907592e-04 1.4869099148232859e-03 0.0000000000000000e+00  1.5377664285635528e-04 1.5270726106224387e-03 0.0000000000000000e+00  1.1507689358699728e-04 1.5258042672112297e-03 0.0000000000000000e+00  1.5704215198369508e-04 1.5648123625954010e-03 0.0000000000000000e+00  1.1950230905078248e-04 1.5635362471424650e-03 0.0000000000000000e+00  1.6033254498389762e-04 1.6013988896416598e-03 0.0000000000000000e+00  1.2395187523332830e-04 1.6001166121353677e-03 0.0000000000000000e+00  1.6364458152734403e-04 1.6368323846618277e-03 0.0000000000000000e+00  1.2842069225713599e-04 1.6355491172520445e-03 0.0000000000000000e+00  1.6697260295176009e-04 1.6711284069822344e-03 0.0000000000000000e+00  1.3288190770831680e-04 1.6698487329183580e-03 0.0000000000000000e+00  1.7031254806554701e-04 1.7043254769133725e-03 0.0000000000000000e+00  1.3730875385189120e-04 1.7030508736505180e-03 0.0000000000000000e+00  1.7366339321836383e-04 1.7364762955345519e-03 0.0000000000000000e+00  1.4169040675358557e-04 1.7352059885217222e-03 0.0000000000000000e+00  3.2173562110587628e-05 1.0902492145793295e-03 0.0000000000000000e+00  3.3166811619749951e-05 1.1334881212365618e-03 0.0000000000000000e+00  3.3952798155799025e-05 1.1788023514238694e-03 0.0000000000000000e+00  3.5229021372411867e-05 1.2258297859942086e-03 0.0000000000000000e+00  3.9252480914387987e-05 1.2722157639883020e-03 0.0000000000000000e+00  4.6626921487247615e-05 1.3172483678719948e-03 0.0000000000000000e+00  5.2306142716508482e-05 1.3597436729092520e-03 0.0000000000000000e+00  5.8464338977298950e-05 1.4028744937150061e-03 0.0000000000000000e+00  6.4429141336207172e-05 1.4447189832525417e-03 0.0000000000000000e+00  7.0186747704771533e-05 1.4850218143134947e-03 0.0000000000000000e+00  7.5836045321306695e-05 1.5239302580333952e-03 0.0000000000000000e+00  8.1462959457404897e-05 1.5614765213860053e-03 0.0000000000000000e+00  8.7130850640991430e-05 1.5976646348007521e-03 0.0000000000000000e+00  9.2839442912740701e-05 1.6326926906723386e-03 0.0000000000000000e+00  9.8521354150406064e-05 1.6668986013589505e-03 0.0000000000000000e+00  1.0409344203377375e-04 1.7003161151846269e-03 0.0000000000000000e+00  1.0953030661735126e-04 1.7327579533973653e-03 0.0000000000000000e+00  -1.2135234592466485e-05 1.1322016937167739e-03 0.0000000000000000e+00  -1.1541301987021254e-05 1.1776361904886168e-03 0.0000000000000000e+00  -1.1188063770310469e-05 1.2233083169475481e-03 0.0000000000000000e+00  -6.1838526286299341e-06 1.2607363323891936e-03 0.0000000000000000e+00  6.5700892608433589e-07 1.3012653882199957e-03 0.0000000000000000e+00  7.8240640871526278e-06 1.3417815434768456e-03 0.0000000000000000e+00  1.4963045265239869e-05 1.3819812667500966e-03 0.0000000000000000e+00  2.2429565416251774e-05 1.4214083069325138e-03 0.0000000000000000e+00  3.0095490715851246e-05 1.4596800951027595e-03 0.0000000000000000e+00  3.7899803053854356e-05 1.4967850794635985e-03 0.0000000000000000e+00  4.5829562421067791e-05 1.5327577669047008e-03 0.0000000000000000e+00  5.3859297497577450e-05 1.5676467854896347e-03 0.0000000000000000e+00  6.1941549225079569e-05 1.6016069281188715e-03 0.0000000000000000e+00  7.0041382446084475e-05 1.6348470341525300e-03 0.0000000000000000e+00  7.8154456646516198e-05 1.6674159705807859e-03 0.0000000000000000e+00  8.6268072478671890e-05 1.6992196881303421e-03 0.0000000000000000e+00  9.4351772303152912e-05 1.7301918234202663e-03 0.0000000000000000e+00  -5.4143138484813989e-05 1.1722748492508787e-03 0.0000000000000000e+00  -5.0557727929531042e-05 1.2118686428585917e-03 0.0000000000000000e+00  -4.5058851470457599e-05 1.2481249387410300e-03 0.0000000000000000e+00  -3.8975710946943296e-05 1.2854865584680168e-03 0.0000000000000000e+00  -3.1870610847862491e-05 1.3231873024199437e-03 0.0000000000000000e+00  -2.4013299444902619e-05 1.3606698925367449e-03 0.0000000000000000e+00  -1.5495592407696469e-05 1.3975149816373123e-03 0.0000000000000000e+00  -6.4201466868763215e-06 1.4335298870674657e-03 0.0000000000000000e+00  3.0721370319318569e-06 1.4686748839856250e-03 0.0000000000000000e+00  1.2874768260137775e-05 1.5029657223158924e-03 0.0000000000000000e+00  2.2902923315641295e-05 1.5364497250354118e-03 0.0000000000000000e+00  3.3083060984655986e-05 1.5692373292358441e-03 0.0000000000000000e+00  4.3368635327118824e-05 1.6014551359848830e-03 0.0000000000000000e+00  5.3741953029467679e-05 1.6331447256655778e-03 0.0000000000000000e+00  6.4180070345573590e-05 1.6642707918362129e-03 0.0000000000000000e+00  7.4637811138123815e-05 1.6947990366488982e-03 0.0000000000000000e+00  8.5062593217953417e-05 1.7247269304083537e-03 0.0000000000000000e+00  -8.7853768198023382e-05 1.2003811002227588e-03 0.0000000000000000e+00  -8.2052262285936601e-05 1.2348394157556983e-03 0.0000000000000000e+00  -7.5577363758796534e-05 1.2697209053308806e-03 0.0000000000000000e+00  -6.8098498117827189e-05 1.3044612599171328e-03 0.0000000000000000e+00  -5.9564561134860699e-05 1.3390146459606805e-03 0.0000000000000000e+00  -5.0092046376833425e-05 1.3731524652871314e-03 0.0000000000000000e+00  -3.9825194347704697e-05 1.4067326292863109e-03 0.0000000000000000e+00  -2.8929201311921845e-05 1.4397631382617676e-03 0.0000000000000000e+00  -1.7556696658144925e-05 1.4722495838461007e-03 0.0000000000000000e+00  -5.8263181977257796e-06 1.5042110241426873e-03 0.0000000000000000e+00  6.1687006462688761e-06 1.5357181780310703e-03 0.0000000000000000e+00  1.8362743229504973e-05 1.5668469259919962e-03 0.0000000000000000e+00  3.0713448037139861e-05 1.5976278259363034e-03 0.0000000000000000e+00  4.3177816218709805e-05 1.6280543638995050e-03 0.0000000000000000e+00  5.5697631584309556e-05 1.6581163251643681e-03 0.0000000000000000e+00  6.8204281775343319e-05 1.6878152824655887e-03 0.0000000000000000e+00  8.0628317742329926e-05 1.7171602959405164e-03 0.0000000000000000e+00  -1.1696733768146968e-04 1.2210676016793916e-03 0.0000000000000000e+00  -1.0977535242423061e-04 1.2536283117482593e-03 0.0000000000000000e+00  -1.0157007201947519e-04 1.2854021818884732e-03 0.0000000000000000e+00  -9.2226972904217442e-05 1.3169620864060456e-03 0.0000000000000000e+00  -8.1824184128513700e-05 1.3482962968992284e-03 0.0000000000000000e+00  -7.0473605474552725e-05 1.3793130323354664e-03 0.0000000000000000e+00  -5.8354952064346736e-05 1.4101163193607814e-03 0.0000000000000000e+00  -4.5641671749330449e-05 1.4406991759285399e-03 0.0000000000000000e+00  -3.2460311132757773e-05 1.4710356805026389e-03 0.0000000000000000e+00  -1.8913323396006480e-05 1.5011698584260298e-03 0.0000000000000000e+00  -5.0812384453215407e-06 1.5311451783669293e-03 0.0000000000000000e+00  8.9747721961864637e-06 1.5609798693306273e-03 0.0000000000000000e+00  2.3194006474754081e-05 1.5906820267794263e-03 0.0000000000000000e+00  3.7504299807724144e-05 1.6202581157755012e-03 0.0000000000000000e+00  5.1822406954802267e-05 1.6497173784387660e-03 0.0000000000000000e+00  6.6060972084736532e-05 1.6790661269356106e-03 0.0000000000000000e+00  8.0135223671883577e-05 1.7083045288101477e-03 0.0000000000000000e+00  -1.4153752917985373e-04 1.2372846639907267e-03 0.0000000000000000e+00  -1.3250114099006450e-04 1.2658722908846826e-03 0.0000000000000000e+00  -1.2226332523566555e-04 1.2944093020228269e-03 0.0000000000000000e+00  -1.1094895943644946e-04 1.3228992037557796e-03 0.0000000000000000e+00  -9.8593291981565942e-05 1.3512399243168643e-03 0.0000000000000000e+00  -8.5393069499257031e-05 1.3797507941397393e-03 0.0000000000000000e+00  -7.1535686673452541e-05 1.4083721664561539e-03 0.0000000000000000e+00  -5.7129386395393927e-05 1.4370039124893706e-03 0.0000000000000000e+00  -4.2274429870046787e-05 1.4656912730367214e-03 0.0000000000000000e+00  -2.7059394232499689e-05 1.4944558325686364e-03 0.0000000000000000e+00  -1.1554104688647665e-05 1.5233005782919447e-03 0.0000000000000000e+00  4.1693109666181700e-06 1.5522454443403283e-03 0.0000000000000000e+00  2.0025774015741026e-05 1.5813117269468447e-03 0.0000000000000000e+00  3.5916402103188074e-05 1.6105192375171918e-03 0.0000000000000000e+00  5.1736041464135050e-05 1.6398737243947139e-03 0.0000000000000000e+00  6.7382152044206692e-05 1.6693647882933620e-03 0.0000000000000000e+00  8.2760006059695647e-05 1.6989716389108030e-03 0.0000000000000000e+00  -1.6088723417151063e-04 1.2457607979430719e-03 0.0000000000000000e+00  -1.4969511403027972e-04 1.2712972262609072e-03 0.0000000000000000e+00  -1.3756013235387512e-04 1.2969425475559122e-03 0.0000000000000000e+00  -1.2429615811332029e-04 1.3224578913178669e-03 0.0000000000000000e+00  -1.1016039161201096e-04 1.3486686619475104e-03 0.0000000000000000e+00  -9.5360419817275394e-05 1.3753207178864230e-03 0.0000000000000000e+00  -7.9948947019518510e-05 1.4021818759717940e-03 0.0000000000000000e+00  -6.4019374325824689e-05 1.4293655995239354e-03 0.0000000000000000e+00  -4.7665289060933066e-05 1.4568703778550650e-03 0.0000000000000000e+00  -3.0952818911120302e-05 1.4846747262172979e-03 0.0000000000000000e+00  -1.3958394794897052e-05 1.5128190058450951e-03 0.0000000000000000e+00  3.2216079930826644e-06 1.5413430518182059e-03 0.0000000000000000e+00  2.0470338466670692e-05 1.5702831933945378e-03 0.0000000000000000e+00  3.7662446327515738e-05 1.5996454352411478e-03 0.0000000000000000e+00  5.4677029311644818e-05 1.6294062065552780e-03 0.0000000000000000e+00  7.1402882773836484e-05 1.6595263695537044e-03 0.0000000000000000e+00  8.7741646676430028e-05 1.6899546868251697e-03 0.0000000000000000e+00  -1.7415767891630849e-04 1.2476886085478569e-03 0.0000000000000000e+00  -1.6160730221271609e-04 1.2705084291100047e-03 0.0000000000000000e+00  -1.4760835038914879e-04 1.2928822841973252e-03 0.0000000000000000e+00  -1.3272175714755568e-04 1.3168857965399688e-03 0.0000000000000000e+00  -1.1721669013892210e-04 1.3416196026146876e-03 0.0000000000000000e+00  -1.0102343415840461e-04 1.3666288263270332e-03 0.0000000000000000e+00  -8.4247457532741262e-05 1.3922683685804458e-03 0.0000000000000000e+00  -6.6993999160270553e-05 1.4184738780382668e-03 0.0000000000000000e+00  -4.9307025972385349e-05 1.4451751053408850e-03 0.0000000000000000e+00  -3.1260248875963758e-05 1.4724611524017926e-03 0.0000000000000000e+00  -1.2960343325116391e-05 1.5003979317851413e-03 0.0000000000000000e+00  5.4530859510001608e-06 1.5290503552654057e-03 0.0000000000000000e+00  2.3829895213945300e-05 1.5584234750452297e-03 0.0000000000000000e+00  4.2029459128788733e-05 1.5884743396202712e-03 0.0000000000000000e+00  5.9923289889178324e-05 1.6191432908001170e-03 0.0000000000000000e+00  7.7396813171046560e-05 1.6503550043774613e-03 0.0000000000000000e+00  9.4354716478364483e-05 1.6820161254174433e-03 0.0000000000000000e+00  -1.8330445785309386e-04 1.2438547551986887e-03 0.0000000000000000e+00  -1.6861306576620229e-04 1.2623121832328053e-03 0.0000000000000000e+00  -1.5315281255635557e-04 1.2844595580040305e-03 0.0000000000000000e+00  -1.3722268013579620e-04 1.3073965706906793e-03 0.0000000000000000e+00  -1.2045841712348529e-04 1.3303881655333325e-03 0.0000000000000000e+00  -1.0305483132434958e-04 1.3544742581566541e-03 0.0000000000000000e+00  -8.5145348324401371e-05 1.3793563722244392e-03 0.0000000000000000e+00  -6.6711991290900391e-05 1.4048657291923861e-03 0.0000000000000000e+00  -4.7819925492469788e-05 1.4312152254797462e-03 0.0000000000000000e+00  -2.8586076582185672e-05 1.4585010153702256e-03 0.0000000000000000e+00  -9.1822459189368573e-06 1.4868407586417459e-03 0.0000000000000000e+00  1.0209455057066024e-05 1.5162312517852542e-03 0.0000000000000000e+00  2.9428196875250918e-05 1.5465971357197289e-03 0.0000000000000000e+00  4.8327246176684364e-05 1.5778573072173692e-03 0.0000000000000000e+00  6.6773042145259456e-05 1.6099117098681147e-03 0.0000000000000000e+00  8.4654544501584777e-05 1.6426323653360344e-03 0.0000000000000000e+00  1.0189122219556736e-04 1.6758721742493876e-03 0.0000000000000000e+00  -1.8727150897308699e-04 1.2301601813325545e-03 0.0000000000000000e+00  -2.0158216727328462e-04 1.2177382178297311e-03 0.0000000000000000e+00  -1.7153777165377040e-04 1.2515479774338758e-03 0.0000000000000000e+00  -1.5553687051025246e-04 1.2728720063236029e-03 0.0000000000000000e+00  -1.3835416913654194e-04 1.2934400272929111e-03 0.0000000000000000e+00  -1.2052474097051749e-04 1.3160667881733307e-03 0.0000000000000000e+00  -1.0222325923900243e-04 1.3396317073807620e-03 0.0000000000000000e+00  -8.3273265778022366e-05 1.3638029732391604e-03 0.0000000000000000e+00  -6.3735363754437567e-05 1.3891100203229406e-03 0.0000000000000000e+00  -4.3736588496639918e-05 1.4156519869606241e-03 0.0000000000000000e+00  -2.3499298986531615e-05 1.4436523809872211e-03 0.0000000000000000e+00  -3.2478311135618189e-06 1.4730744711792215e-03 0.0000000000000000e+00  1.6840372964328114e-05 1.5037847713219653e-03 0.0000000000000000e+00  3.6599385363492134e-05 1.5356864171106200e-03 0.0000000000000000e+00  5.5870971282726182e-05 1.5686563783280098e-03 0.0000000000000000e+00  7.4524030417734202e-05 1.6025243095405799e-03 0.0000000000000000e+00  9.2468854938592993e-05 1.6370907254384176e-03 0.0000000000000000e+00  1.0965779766606946e-04 1.6721583101068328e-03 0.0000000000000000e+00  -2.0723906115234072e-04 1.1940948891510633e-03 0.0000000000000000e+00  -2.0871396539593473e-04 1.1979952408206760e-03 0.0000000000000000e+00  -1.8857012151884611e-04 1.2185081523279763e-03 0.0000000000000000e+00  -1.7239555029575427e-04 1.2384302824444513e-03 0.0000000000000000e+00  -1.5476222179626258e-04 1.2555721203518853e-03 0.0000000000000000e+00  -1.3670147850050642e-04 1.2771744990610768e-03 0.0000000000000000e+00  -1.1833391912956412e-04 1.2994750207525785e-03 0.0000000000000000e+00  -9.9104173611819113e-05 1.3220299119146028e-03 0.0000000000000000e+00  -7.9119586242300824e-05 1.3461619346363317e-03 0.0000000000000000e+00  -5.8508830207953012e-05 1.3718175510443306e-03 0.0000000000000000e+00  -3.7580888576574391e-05 1.3994603395023762e-03 0.0000000000000000e+00  -1.6615540266321677e-05 1.4289435922202073e-03 0.0000000000000000e+00  4.2077602823616876e-06 1.4600281556885805e-03 0.0000000000000000e+00  2.4701637278355117e-05 1.4926288532139053e-03 0.0000000000000000e+00  4.4670970074291218e-05 1.5266058198332092e-03 0.0000000000000000e+00  6.3956444425062434e-05 1.5617323014704072e-03 0.0000000000000000e+00  8.2458914962499743e-05 1.5977366839648427e-03 0.0000000000000000e+00  1.0013745319404533e-04 1.6343577746456355e-03 0.0000000000000000e+00  1.1699251073081435e-04 1.6713807017082519e-03 0.0000000000000000e+00  -2.0054715154612472e-04 1.1934101338174231e-03 0.0000000000000000e+00  -2.0226761696666044e-04 1.1981987830045004e-03 0.0000000000000000e+00  -1.9942999811659262e-04 1.1869353476891711e-03 0.0000000000000000e+00  -1.8599976173182934e-04 1.2052348708007194e-03 0.0000000000000000e+00  -1.6943004824653181e-04 1.2161024574600004e-03 0.0000000000000000e+00  -1.5157801105368011e-04 1.2380962208117597e-03 0.0000000000000000e+00  -1.3359682732186169e-04 1.2591916854026949e-03 0.0000000000000000e+00  -1.1431410330336334e-04 1.2795484884730081e-03 0.0000000000000000e+00  -9.4100309131403578e-05 1.3023865640479444e-03 0.0000000000000000e+00  -7.3018313606711561e-05 1.3269144730100975e-03 0.0000000000000000e+00  -5.1536014573823955e-05 1.3542188702387414e-03 0.0000000000000000e+00  -3.0003157750256624e-05 1.3838199338866931e-03 0.0000000000000000e+00  -8.5614013898637548e-06 1.4152941772102143e-03 0.0000000000000000e+00  1.2570322961907717e-05 1.4486564290687608e-03 0.0000000000000000e+00  3.3133544532167732e-05 1.4837590349705578e-03 0.0000000000000000e+00  5.2926797325063132e-05 1.5202902748855020e-03 0.0000000000000000e+00  7.1842535643031836e-05 1.5578731497664256e-03 0.0000000000000000e+00  8.9855616893730393e-05 1.5961616885216438e-03 0.0000000000000000e+00  1.0699195131416253e-04 1.6348900139728346e-03 0.0000000000000000e+00  1.2329897628331898e-04 1.6738790090743687e-03 0.0000000000000000e+00  -1.9160670969665730e-04 1.1935659101622853e-03 0.0000000000000000e+00  -1.9393328903816905e-04 1.1982239326553644e-03 0.0000000000000000e+00  -1.8984833782859784e-04 1.1873361366079368e-03 0.0000000000000000e+00  -1.8800092971211588e-04 1.1807396710486607e-03 0.0000000000000000e+00  -1.8706056514638698e-04 1.1721164061656512e-03 0.0000000000000000e+00  -1.6598806805494587e-04 1.1994529882644832e-03 0.0000000000000000e+00  -1.4818221693743867e-04 1.2192993543792615e-03 0.0000000000000000e+00  -1.2892810089265162e-04 1.2362357938317400e-03 0.0000000000000000e+00  -1.0881081903578107e-04 1.2578519914423218e-03 0.0000000000000000e+00  -8.7412044336441957e-05 1.2807699336812449e-03 0.0000000000000000e+00  -6.5521636129052467e-05 1.3078719484488340e-03 0.0000000000000000e+00  -4.3581609882165273e-05 1.3376884736930009e-03 0.0000000000000000e+00  -2.1606554049513313e-05 1.3695118934171967e-03 0.0000000000000000e+00  1.1320670641460138e-07 1.4037007198407000e-03 0.0000000000000000e+00  2.1201293627891891e-05 1.4400919495217036e-03 0.0000000000000000e+00  4.1394272576765260e-05 1.4782278937400840e-03 0.0000000000000000e+00  6.0582900508569233e-05 1.5175705549388902e-03 0.0000000000000000e+00  7.8774508418823414e-05 1.5576616298116398e-03 0.0000000000000000e+00  9.6035573345943501e-05 1.5981807491608200e-03 0.0000000000000000e+00  1.1244804645574321e-04 1.6389350194658495e-03 0.0000000000000000e+00  1.2808524212675742e-04 1.6798262830295173e-03 0.0000000000000000e+00  -1.8111528887978937e-04 1.1940279613958484e-03 0.0000000000000000e+00  -1.7956330017923901e-04 1.1873818497795600e-03 0.0000000000000000e+00  -1.7725568937835301e-04 1.1808975362804781e-03 0.0000000000000000e+00  -1.7526800085271364e-04 1.1726622645009384e-03 0.0000000000000000e+00  -1.7346186508250606e-04 1.1636123130813151e-03 0.0000000000000000e+00  -1.5961919332835059e-04 1.1810988959345592e-03 0.0000000000000000e+00  -1.4227631342448140e-04 1.1917460399647258e-03 0.0000000000000000e+00  -1.2337748216754548e-04 1.2128996293153792e-03 0.0000000000000000e+00  -1.0195964833726920e-04 1.2330078596098561e-03 0.0000000000000000e+00  -7.9816065544882872e-05 1.2603819560588910e-03 0.0000000000000000e+00  -5.7635146983555155e-05 1.2905587518155979e-03 0.0000000000000000e+00  -3.5130797285673413e-05 1.3225349284662004e-03 0.0000000000000000e+00  -1.2786650570198811e-05 1.3576276137933102e-03 0.0000000000000000e+00  8.8063420809603347e-06 1.3955508955295962e-03 0.0000000000000000e+