<?xml version="1.0"?>
<VTKFile type="UnstructuredGrid"  version="0.1"  >
<UnstructuredGrid>
<Piece  NumberOfPoints="607" NumberOfCells="1112">
<Points>
<DataArray  type="Float64"  NumberOfComponents="3"  format="ascii">0.4130434782608696 0 0  0.4295652173913043 0 0  0.4295652173913043 0.01666666666666667 0  0.4460869565217391 0 0  0.4460869565217391 0.01666666666666667 0  0.4626086956521739 0 0  0.4626086956521739 0.01666666666666667 0  0.4791304347826086 0 0  0.4791304347826086 0.01666666666666667 0  0.4956521739130435 0 0  0.4956521739130435 0.01666666666666667 0  0.5121739130434783 0 0  0.5121739130434783 0.01666666666666667 0  0.528695652173913 0 0  0.528695652173913 0.01666666666666667 0  0.5452173913043478 0 0  0.5452173913043478 0.01666666666666667 0  0.5617391304347825 0 0  0.5617391304347825 0.01666666666666667 0  0.5782608695652174 0 0  0.5782608695652174 0.01666666666666667 0  0.5947826086956521 0 0  0.5947826086956521 0.01666666666666667 0  0.6113043478260869 0 0  0.6113043478260869 0.01666666666666667 0  0.6278260869565218 0 0  0.6278260869565218 0.01666666666666667 0  0.6443478260869565 0 0  0.6443478260869565 0.01666666666666667 0  0.6608695652173913 0 0  0.6608695652173913 0.01666666666666667 0  0.677391304347826 0 0  0.677391304347826 0.01666666666666667 0  0.6939130434782609 0 0  0.6939130434782609 0.01666666666666667 0  0.7104347826086956 0 0  0.7104347826086956 0.01666666666666667 0  0.4460869565217391 0.03333333333333333 0  0.4626086956521739 0.03333333333333333 0  0.4791304347826086 0.03333333333333333 0  0.4956521739130435 0.03333333333333333 0  0.5121739130434783 0.03333333333333333 0  0.528695652173913 0.03333333333333333 0  0.5452173913043478 0.03333333333333333 0  0.5617391304347825 0.03333333333333333 0  0.5782608695652174 0.03333333333333333 0  0.5947826086956521 0.03333333333333333 0  0.6113043478260869 0.03333333333333333 0  0.6278260869565218 0.03333333333333333 0  0.6443478260869565 0.03333333333333333 0  0.6608695652173913 0.03333333333333333 0  0.677391304347826 0.03333333333333333 0  0.6939130434782609 0.03333333333333333 0  0.7104347826086956 0.03333333333333333 0  0.4626086956521739 0.05 0  0.4791304347826086 0.05 0  0.4956521739130435 0.05 0  0.5121739130434783 0.05 0  0.528695652173913 0.05 0  0.5452173913043478 0.05 0  0.5617391304347825 0.05 0  0.5782608695652174 0.05 0  0.5947826086956521 0.05 0  0.6113043478260869 0.05 0  0.6278260869565218 0.05 0  0.6443478260869565 0.05 0  0.6608695652173913 0.05 0  0.677391304347826 0.05 0  0.6939130434782609 0.05 0  0.7104347826086956 0.05 0  0.7269565217391304 0.05 0  0.4791304347826086 0.06666666666666667 0  0.4956521739130435 0.06666666666666667 0  0.5121739130434783 0.06666666666666667 0  0.528695652173913 0.06666666666666667 0  0.5452173913043478 0.06666666666666667 0  0.5617391304347825 0.06666666666666667 0  0.5782608695652174 0.06666666666666667 0  0.5947826086956521 0.06666666666666667 0  0.6113043478260869 0.06666666666666667 0  0.6278260869565218 0.06666666666666667 0  0.6443478260869565 0.06666666666666667 0  0.6608695652173913 0.06666666666666667 0  0.677391304347826 0.06666666666666667 0  0.6939130434782609 0.06666666666666667 0  0.7104347826086956 0.06666666666666667 0  0.7269565217391304 0.06666666666666667 0  0.7434782608695653 0.06666666666666667 0  0.4956521739130435 0.08333333333333333 0  0.5121739130434783 0.08333333333333333 0  0.528695652173913 0.08333333333333333 0  0.5452173913043478 0.08333333333333333 0  0.5617391304347825 0.08333333333333333 0  0.5782608695652174 0.08333333333333333 0  0.5947826086956521 0.08333333333333333 0  0.6113043478260869 0.08333333333333333 0  0.6278260869565218 0.08333333333333333 0  0.6443478260869565 0.08333333333333333 0  0.6608695652173913 0.08333333333333333 0  0.677391304347826 0.08333333333333333 0  0.6939130434782609 0.08333333333333333 0  0.7104347826086956 0.08333333333333333 0  0.7269565217391304 0.08333333333333333 0  0.7434782608695653 0.08333333333333333 0  0.7599999999999999 0.08333333333333333 0  0.5121739130434783 0.1 0  0.528695652173913 0.1 0  0.5452173913043478 0.1 0  0.5617391304347825 0.1 0  0.5782608695652174 0.1 0  0.5947826086956521 0.1 0  0.6113043478260869 0.1 0  0.6278260869565218 0.1 0  0.6443478260869565 0.1 0  0.6608695652173913 0.1 0  0.677391304347826 0.1 0  0.6939130434782609 0.1 0  0.7104347826086956 0.1 0  0.7269565217391304 0.1 0  0.7434782608695653 0.1 0  0.7599999999999999 0.1 0  0.7765217391304348 0.1 0  0.528695652173913 0.1166666666666667 0  0.5452173913043478 0.1166666666666667 0  0.5617391304347825 0.1166666666666667 0  0.5782608695652174 0.1166666666666667 0  0.5947826086956521 0.1166666666666667 0  0.6113043478260869 0.1166666666666667 0  0.6278260869565218 0.1166666666666667 0  0.6443478260869565 0.1166666666666667 0  0.6608695652173913 0.1166666666666667 0  0.677391304347826 0.1166666666666667 0  0.6939130434782609 0.1166666666666667 0  0.7104347826086956 0.1166666666666667 0  0.7269565217391304 0.1166666666666667 0  0.7434782608695653 0.1166666666666667 0  0.7599999999999999 0.1166666666666667 0  0.7765217391304348 0.1166666666666667 0  0.7930434782608695 0.1166666666666667 0  0.5452173913043478 0.1333333333333333 0  0.5617391304347825 0.1333333333333333 0  0.5782608695652174 0.1333333333333333 0  0.5947826086956521 0.1333333333333333 0  0.6113043478260869 0.1333333333333333 0  0.6278260869565218 0.1333333333333333 0  0.6443478260869565 0.1333333333333333 0  0.6608695652173913 0.1333333333333333 0  0.677391304347826 0.1333333333333333 0  0.6939130434782609 0.1333333333333333 0  0.7104347826086956 0.1333333333333333 0  0.7269565217391304 0.1333333333333333 0  0.7434782608695653 0.1333333333333333 0  0.7599999999999999 0.1333333333333333 0  0.7765217391304348 0.1333333333333333 0  0.7930434782608695 0.1333333333333333 0  0.8095652173913043 0.1333333333333333 0  0.5617391304347825 0.15 0  0.5782608695652174 0.15 0  0.5947826086956521 0.15 0  0.6113043478260869 0.15 0  0.6278260869565218 0.15 0  0.6443478260869565 0.15 0  0.6608695652173913 0.15 0  0.677391304347826 0.15 0  0.6939130434782609 0.15 0  0.7104347826086956 0.15 0  0.7269565217391304 0.15 0  0.7434782608695653 0.15 0  0.7599999999999999 0.15 0  0.7765217391304348 0.15 0  0.7930434782608695 0.15 0  0.8095652173913043 0.15 0  0.8260869565217391 0.15 0  0.5782608695652174 0.1666666666666667 0  0.5947826086956521 0.1666666666666667 0  0.6113043478260869 0.1666666666666667 0  0.6278260869565218 0.1666666666666667 0  0.6443478260869565 0.1666666666666667 0  0.6608695652173913 0.1666666666666667 0  0.677391304347826 0.1666666666666667 0  0.6939130434782609 0.1666666666666667 0  0.7104347826086956 0.1666666666666667 0  0.7269565217391304 0.1666666666666667 0  0.7434782608695653 0.1666666666666667 0  0.7599999999999999 0.1666666666666667 0  0.7765217391304348 0.1666666666666667 0  0.7930434782608695 0.1666666666666667 0  0.8095652173913043 0.1666666666666667 0  0.8260869565217391 0.1666666666666667 0  0.8426086956521739 0.1666666666666667 0  0.5947826086956521 0.1833333333333333 0  0.5782608695652174 0.1833333333333333 0  0.6113043478260869 0.1833333333333333 0  0.6278260869565218 0.1833333333333333 0  0.6443478260869565 0.1833333333333333 0  0.6608695652173913 0.1833333333333333 0  0.677391304347826 0.1833333333333333 0  0.6939130434782609 0.1833333333333333 0  0.7104347826086956 0.1833333333333333 0  0.7269565217391304 0.1833333333333333 0  0.7434782608695653 0.1833333333333333 0  0.7599999999999999 0.1833333333333333 0  0.7765217391304348 0.1833333333333333 0  0.7930434782608695 0.1833333333333333 0  0.8095652173913043 0.1833333333333333 0  0.8260869565217391 0.1833333333333333 0  0.8426086956521739 0.1833333333333333 0  0.8591304347826086 0.1833333333333333 0  0.5947826086956521 0.2 0  0.5782608695652174 0.2 0  0.6113043478260869 0.2 0  0.6278260869565218 0.2 0  0.6443478260869565 0.2 0  0.6608695652173913 0.2 0  0.677391304347826 0.2 0  0.6939130434782609 0.2 0  0.7104347826086956 0.2 0  0.7269565217391304 0.2 0  0.7434782608695653 0.2 0  0.7599999999999999 0.2 0  0.7765217391304348 0.2 0  0.7930434782608695 0.2 0  0.8095652173913043 0.2 0  0.8260869565217391 0.2 0  0.8426086956521739 0.2 0  0.8591304347826086 0.2 0  0.8756521739130434 0.2 0  0.5947826086956521 0.2166666666666667 0  0.5782608695652174 0.2166666666666667 0  0.6113043478260869 0.2166666666666667 0  0.6278260869565218 0.2166666666666667 0  0.6443478260869565 0.2166666666666667 0  0.6608695652173913 0.2166666666666667 0  0.677391304347826 0.2166666666666667 0  0.6939130434782609 0.2166666666666667 0  0.7104347826086956 0.2166666666666667 0  0.7269565217391304 0.2166666666666667 0  0.7434782608695653 0.2166666666666667 0  0.7599999999999999 0.2166666666666667 0  0.7765217391304348 0.2166666666666667 0  0.7930434782608695 0.2166666666666667 0  0.8095652173913043 0.2166666666666667 0  0.8260869565217391 0.2166666666666667 0  0.8426086956521739 0.2166666666666667 0  0.8591304347826086 0.2166666666666667 0  0.8756521739130434 0.2166666666666667 0  0.8921739130434783 0.2166666666666667 0  0.5947826086956521 0.2333333333333333 0  0.5782608695652174 0.2333333333333333 0  0.6113043478260869 0.2333333333333333 0  0.6278260869565218 0.2333333333333333 0  0.6443478260869565 0.2333333333333333 0  0.6608695652173913 0.2333333333333333 0  0.677391304347826 0.2333333333333333 0  0.6939130434782609 0.2333333333333333 0  0.7104347826086956 0.2333333333333333 0  0.7269565217391304 0.2333333333333333 0  0.7434782608695653 0.2333333333333333 0  0.7599999999999999 0.2333333333333333 0  0.7765217391304348 0.2333333333333333 0  0.7930434782608695 0.2333333333333333 0  0.8095652173913043 0.2333333333333333 0  0.8260869565217391 0.2333333333333333 0  0.8426086956521739 0.2333333333333333 0  0.8591304347826086 0.2333333333333333 0  0.8756521739130434 0.2333333333333333 0  0.8921739130434783 0.2333333333333333 0  0.908695652173913 0.2333333333333333 0  0.5947826086956521 0.25 0  0.6113043478260869 0.25 0  0.6278260869565218 0.25 0  0.6443
[...]
<PointData  Vectors="Displacement"> 
<DataArray  type="Float64"  Name="Displacement"  NumberOfComponents="3" format="ascii">9.4005966594713306e-05 6.2688167940585344e-04 0.0000000000000000e+00  9.3290961052636584e-05 6.5351824235468120e-04 0.0000000000000000e+00  6.7061128390667076e-05 6.5357799491426547e-04 0.0000000000000000e+00  9.2592519622505503e-05 6.7881973098559952e-04 0.0000000000000000e+00  6.7564408310634156e-05 6.7888732400711973e-04 0.0000000000000000e+00  9.1946962011668748e-05 7.0296150652921841e-04 0.0000000000000000e+00  6.7973619097305249e-05 7.0303838889686980e-04 0.0000000000000000e+00  9.1402112294694516e-05 7.2605595209227294e-04 0.0000000000000000e+00  6.8322513728036810e-05 7.2612793762532343e-04 0.0000000000000000e+00  9.1044179131530672e-05 7.4822285507475947e-04 0.0000000000000000e+00  6.8669319879943473e-05 7.4826139603041090e-04 0.0000000000000000e+00  9.1002112304152218e-05 7.6962185571504338e-04 0.0000000000000000e+00  6.9101075913966656e-05 7.6958157413863299e-04 0.0000000000000000e+00  9.1428626667532353e-05 7.9049766020704260e-04 0.0000000000000000e+00  6.9722782892123195e-05 7.9032406399541586e-04 0.0000000000000000e+00  9.2456849060145973e-05 8.1120396628507044e-04 0.0000000000000000e+00  7.0632795187519398e-05 8.1084910990114937e-04 0.0000000000000000e+00  9.4134995926441092e-05 8.3220139750284625e-04 0.0000000000000000e+00  7.1877945175469185e-05 8.3164893164434461e-04 0.0000000000000000e+00  9.6369981027890920e-05 8.5398786744111759e-04 0.0000000000000000e+00  7.3417206108465614e-05 8.5326731560025090e-04 0.0000000000000000e+00  9.8890821131923168e-05 8.7696599402513776e-04 0.0000000000000000e+00  7.5120667645878320e-05 8.7618549029835891e-04 0.0000000000000000e+00  1.0147031953940151e-04 9.0104331410799680e-04 0.0000000000000000e+00  7.6937552306938139e-05 9.0020983048813314e-04 0.0000000000000000e+00  1.0395917024349257e-04 9.2599828457648502e-04 0.0000000000000000e+00  7.8950199591597733e-05 9.2510412356496560e-04 0.0000000000000000e+00  1.0625799361939897e-04 9.5138219499889699e-04 0.0000000000000000e+00  8.1321028357495866e-05 9.5039551524328698e-04 0.0000000000000000e+00  1.0852827232831250e-04 9.7555296453371546e-04 0.0000000000000000e+00  8.4882078952458156e-05 9.7455193751581047e-04 0.0000000000000000e+00  1.1077294447243670e-04 9.9826095321723859e-04 0.0000000000000000e+00  8.8614031091727760e-05 9.9729997426489651e-04 0.0000000000000000e+00  1.1292994120922182e-04 1.0194457732991388e-03 0.0000000000000000e+00  9.2225812724966826e-05 1.0186377654177058e-03 0.0000000000000000e+00  1.1500037847583808e-04 1.0393788742064328e-03 0.0000000000000000e+00  9.5243489768831322e-05 1.0386670426616174e-03 0.0000000000000000e+00  4.2722625566553869e-05 6.7862688002107673e-04 0.0000000000000000e+00  4.4085323096383431e-05 7.0286940373954056e-04 0.0000000000000000e+00  4.5191349564806268e-05 7.2604771507488695e-04 0.0000000000000000e+00  4.6069928231962128e-05 7.4824390809154315e-04 0.0000000000000000e+00  4.6790570481193593e-05 7.6956405475802996e-04 0.0000000000000000e+00  4.7457729464808500e-05 7.9021803526013040e-04 0.0000000000000000e+00  4.8192106350132411e-05 8.1056022112471467e-04 0.0000000000000000e+00  4.9079522564688335e-05 8.3114039757210812e-04 0.0000000000000000e+00  5.0088852448099948e-05 8.5260478699553729e-04 0.0000000000000000e+00  5.0993998618850695e-05 8.7556799155696636e-04 0.0000000000000000e+00  5.2018025562401651e-05 8.9966424182101579e-04 0.0000000000000000e+00  5.3050730812562391e-05 9.2440388591934805e-04 0.0000000000000000e+00  5.4770238573915891e-05 9.4958941096036332e-04 0.0000000000000000e+00  6.0365671902604012e-05 9.7335151186835370e-04 0.0000000000000000e+00  6.5709934955830737e-05 9.9602413050041785e-04 0.0000000000000000e+00  7.0751777844577283e-05 1.0174120233090327e-03 0.0000000000000000e+00  7.5316315899688781e-05 1.0376476956048784e-03 0.0000000000000000e+00  2.0676202001311867e-05 7.0251144919248514e-04 0.0000000000000000e+00  2.2473748092772320e-05 7.2589843651361355e-04 0.0000000000000000e+00  2.3799258711690529e-05 7.4828287198192706e-04 0.0000000000000000e+00  2.4710200416371188e-05 7.6969113364336230e-04 0.0000000000000000e+00  2.5334435196546411e-05 7.9027755901017109e-04 0.0000000000000000e+00  2.5846682012346994e-05 8.1036273874037217e-04 0.0000000000000000e+00  2.6395334366502182e-05 8.3056632296658189e-04 0.0000000000000000e+00  2.7059122605228670e-05 8.5176639123344527e-04 0.0000000000000000e+00  2.7495193488779097e-05 8.7490142049507981e-04 0.0000000000000000e+00  2.7706867053806508e-05 8.9908395091261553e-04 0.0000000000000000e+00  2.8002610236786786e-05 9.2398168334565333e-04 0.0000000000000000e+00  3.2772992021900834e-05 9.4242658065717881e-04 0.0000000000000000e+00  3.8603638898291500e-05 9.6339281173896986e-04 0.0000000000000000e+00  4.4499196041722104e-05 9.8483330351425112e-04 0.0000000000000000e+00  5.0121446303116978e-05 1.0056588666365084e-03 0.0000000000000000e+00  5.5322543151176193e-05 1.0257661144428337e-03 0.0000000000000000e+00  5.9969516425667598e-05 1.0453155873055631e-03 0.0000000000000000e+00  6.1788283287553076e-07 7.2570549145719915e-04 0.0000000000000000e+00  2.4010099266134685e-06 7.4845269388279566e-04 0.0000000000000000e+00  3.4670247667096254e-06 7.7005913696295977e-04 0.0000000000000000e+00  4.0179548726925690e-06 7.9059113320603745e-04 0.0000000000000000e+00  4.3251527653742524e-06 8.1027781672615099e-04 0.0000000000000000e+00  4.6400102762932327e-06 8.2980508468559120e-04 0.0000000000000000e+00  5.1877826675048279e-06 8.5010472411164962e-04 0.0000000000000000e+00  5.5127997672952753e-06 8.7359756910799569e-04 0.0000000000000000e+00  7.3861512176090888e-06 8.9381302383189265e-04 0.0000000000000000e+00  1.0840397180985071e-05 9.1513325530011042e-04 0.0000000000000000e+00  1.5590942694659162e-05 9.3366673063571761e-04 0.0000000000000000e+00  2.0569434920231013e-05 9.5334763625234628e-04 0.0000000000000000e+00  2.6005575221169988e-05 9.7366386837680790e-04 0.0000000000000000e+00  3.1637741297013352e-05 9.9383700146149197e-04 0.0000000000000000e+00  3.7193340567782954e-05 1.0136403566041213e-03 0.0000000000000000e+00  4.2498633493884803e-05 1.0331371558370134e-03 0.0000000000000000e+00  4.7464309500922813e-05 1.0525011234778037e-03 0.0000000000000000e+00  -1.7511890112082696e-05 7.4883466324266032e-04 0.0000000000000000e+00  -1.6376562682715336e-05 7.7077048302599891e-04 0.0000000000000000e+00  -1.5912315030158450e-05 7.9126916412239020e-04 0.0000000000000000e+00  -1.5759252272059700e-05 8.1036524763950684e-04 0.0000000000000000e+00  -1.5591170005344722e-05 8.2883243432704823e-04 0.0000000000000000e+00  -1.4964310155391771e-05 8.4757949720720845e-04 0.0000000000000000e+00  -1.4413211056824021e-05 8.6989245654859736e-04 0.0000000000000000e+00  -1.0908698136458242e-05 8.8695525499962388e-04 0.0000000000000000e+00  -6.5372580035969603e-06 9.0610615357443241e-04 0.0000000000000000e+00  -1.5801853389570099e-06 9.2449946046694470e-04 0.0000000000000000e+00  3.4666134879271893e-06 9.4338931268018414e-04 0.0000000000000000e+00  8.8502527139914128e-06 9.6267218597763837e-04 0.0000000000000000e+00  1.4557329245478720e-05 9.8203822017764886e-04 0.0000000000000000e+00  2.0410017444857122e-05 1.0013247516956660e-03 0.0000000000000000e+00  2.6238381781454217e-05 1.0205406405861966e-03 0.0000000000000000e+00  3.1927203378749505e-05 1.0397785184816074e-03 0.0000000000000000e+00  3.7416824396099145e-05 1.0591221794856228e-03 0.0000000000000000e+00  -3.4545474246594539e-05 7.7193880460754878e-04 0.0000000000000000e+00  -3.4052296026102128e-05 7.9247149400430816e-04 0.0000000000000000e+00  -3.3950138744634019e-05 8.1075693174217261e-04 0.0000000000000000e+00  -3.3895828102666700e-05 8.2787798436951274e-04 0.0000000000000000e+00  -3.3460870250063860e-05 8.4436899422226448e-04 0.0000000000000000e+00  -3.2410233857911297e-05 8.6270218895978165e-04 0.0000000000000000e+00  -2.7812054022924430e-05 8.7873974188836565e-04 0.0000000000000000e+00  -2.3146096617757108e-05 8.9702336089291120e-04 0.0000000000000000e+00  -1.8170199606842733e-05 9.1504138830516299e-04 0.0000000000000000e+00  -1.2967607776803791e-05 9.3321879682406201e-04 0.0000000000000000e+00  -7.4191017984466775e-06 9.5160301364730353e-04 0.0000000000000000e+00  -1.5130194492775038e-06 9.7013626264509461e-04 0.0000000000000000e+00  4.6531675838097216e-06 9.8877931311013088e-04 0.0000000000000000e+00  1.0941459514359270e-05 1.0075606236659067e-03 0.0000000000000000e+00  1.7228220043716431e-05 1.0265406379331200e-03 0.0000000000000000e+00  2.3423407350690305e-05 1.0457776617889241e-03 0.0000000000000000e+00  2.9465249047463729e-05 1.0653395259654910e-03 0.0000000000000000e+00  -4.9875982634848794e-05 7.9443365003478900e-04 0.0000000000000000e+00  -4.9784057382074078e-05 8.1155799077104005e-04 0.0000000000000000e+00  -4.9715907351325585e-05 8.2728081119831046e-04 0.0000000000000000e+00  -4.9592001244046819e-05 8.4148161263972155e-04 0.0000000000000000e+00  -4.8989454605036220e-05 8.5285496948475268e-04 0.0000000000000000e+00  -4.4169557108007584e-05 8.6934180627126962e-04 0.0000000000000000e+00  -3.9354836080118112e-05 8.8789986566806386e-04 0.0000000000000000e+00  -3.4282171354722405e-05 9.0544524457886015e-04 0.0000000000000000e+00  -2.8848749992059243e-05 9.2283271436530883e-04 0.0000000000000000e+00  -2.3023544979797936e-05 9.4032751376647264e-04 0.0000000000000000e+00  -1.6818661190489042e-05 9.5801048273940533e-04 0.0000000000000000e+00  -1.0295780913743901e-05 9.7593342965843156e-04 0.0000000000000000e+00  -3.5657731369178874e-06 9.9418086939342498e-04 0.0000000000000000e+00  3.2508694882795763e-06 1.0128113994793699e-03 0.0000000000000000e+00  1.0051822429118644e-05 1.0318633746709237e-03 0.0000000000000000e+00  1.6756635648335854e-05 1.0513760516638502e-03 0.0000000000000000e+00  2.3304030085657401e-05 1.0713881684979395e-03 0.0000000000000000e+00  -6.2991184737358759e-05 8.1283253962827434e-04 0.0000000000000000e+00  -6.2900004841864835e-05 8.2716506053061691e-04 0.0000000000000000e+00  -6.2678320862711562e-05 8.3996222853450228e-04 0.0000000000000000e+00  -6.2579643324227140e-05 8.5010231901547369e-04 0.0000000000000000e+00  -6.2699489346537592e-05 8.5852034042787392e-04 0.0000000000000000e+00  -5.5967521647892825e-05 8.7881455134294754e-04 0.0000000000000000e+00  -5.0128207221234589e-05 8.9570635864713816e-04 0.0000000000000000e+00  -4.4205494755893536e-05 9.1220637165189496e-04 0.0000000000000000e+00  -3.8003900582433912e-05 9.2877873113309081e-04 0.0000000000000000e+00  -3.1452207196039429e-05 9.4557589756643474e-04 0.0000000000000000e+00  -2.4551369881850913e-05 9.6271309396097932e-04 0.0000000000000000e+00  -1.7391476423964878e-05 9.8035973479420691e-04 0.0000000000000000e+00  -1.0089989580657726e-05 9.9858061144370513e-04 0.0000000000000000e+00  -2.7519541831343356e-06 1.0173939709445419e-03 0.0000000000000000e+00  4.5338620857727434e-06 1.0368162719977612e-03 0.0000000000000000e+00  1.1688480794502199e-05 1.0568699326342014e-03 0.0000000000000000e+00  1.8645410740907136e-05 1.0775567218363137e-03 0.0000000000000000e+00  -7.4017303629372627e-05 8.2752324796310386e-04 0.0000000000000000e+00  -7.3671166494471103e-05 8.3925054783069773e-04 0.0000000000000000e+00  -7.3377755115638501e-05 8.4907662147416243e-04 0.0000000000000000e+00  -7.3282626987690994e-05 8.5737495193548470e-04 0.0000000000000000e+00  -7.0194026463259223e-05 8.7032655577755087e-04 0.0000000000000000e+00  -6.4594729181307402e-05 8.8580721625539528e-04 0.0000000000000000e+00  -5.8562680428507882e-05 9.0132997928752735e-04 0.0000000000000000e+00  -5.2178417539818063e-05 9.1694537878241945e-04 0.0000000000000000e+00  -4.5383190751862333e-05 9.3279798134080947e-04 0.0000000000000000e+00  -3.8151159072692303e-05 9.4906002262223974e-04 0.0000000000000000e+00  -3.0596856384374103e-05 9.6605147828632374e-04 0.0000000000000000e+00  -2.2856594710319154e-05 9.8382402085032744e-04 0.0000000000000000e+00  -1.5037967325395046e-05 1.0023626085288620e-03 0.0000000000000000e+00  -7.2327305404199475e-06 1.0216648326297933e-03 0.0000000000000000e+00  4.6315297868382210e-07 1.0417512953027409e-03 0.0000000000000000e+00  7.9593910040956101e-06 1.0626065720172715e-03 0.0000000000000000e+00  1.5191163190165019e-05 1.0841664480611365e-03 0.0000000000000000e+00  -8.2994160444668251e-05 8.3914088882646094e-04 0.0000000000000000e+00  -8.2687725549294828e-05 8.4852901797445948e-04 0.0000000000000000e+00  -8.2614337498574896e-05 8.5644674230807207e-04 0.0000000000000000e+00  -8.2870725217622172e-05 8.6237421833689658e-04 0.0000000000000000e+00  -7.7795477475816694e-05 8.7603240080435911e-04 0.0000000000000000e+00  -7.1936866961711782e-05 8.9038918446547339e-04 0.0000000000000000e+00  -6.5564084721064851e-05 9.0493147325315963e-04 0.0000000000000000e+00  -5.8654314375895655e-05 9.1970634236308337e-04 0.0000000000000000e+00  -5.1146629389247698e-05 9.3492868469376611e-04 0.0000000000000000e+00  -4.3238978277675076e-05 9.5121398911440791e-04 0.0000000000000000e+00  -3.5109152209476358e-05 9.6851497741251146e-04 0.0000000000000000e+00  -2.6860810344605230e-05 9.8675073634193317e-04 0.0000000000000000e+00  -1.8581580165435601e-05 1.0059057632571566e-03 0.0000000000000000e+00  -1.0390615558924149e-05 1.0260268457490884e-03 0.0000000000000000e+00  -2.4108833915555567e-06 1.0470839272845079e-03 0.0000000000000000e+00  5.2722736136610874e-06 1.0689623257580420e-03 0.0000000000000000e+00  1.2621321338142122e-05 1.0915223810667621e-03 0.0000000000000000e+00  -9.0473182078018759e-05 8.4840158618837099e-04 0.0000000000000000e+00  -9.0983350602839044e-05 8.3948617427343842e-04 0.0000000000000000e+00  -9.0171047639937352e-05 8.5594167586929319e-04 0.0000000000000000e+00  -9.0200732313308176e-05 8.6184066402149068e-04 0.0000000000000000e+00  -9.0489168319749937e-05 8.6616651641473674e-04 0.0000000000000000e+00  -8.4545026377130838e-05 8.7946270578214769e-04 0.0000000000000000e+00  -7.8230026928410417e-05 8.9284595253031501e-04 0.0000000000000000e+00  -7.1331649363462279e-05 9.0634593294110710e-04 0.0000000000000000e+00  -6.3591997143765556e-05 9.2023894415527358e-04 0.0000000000000000e+00  -5.5375545149160871e-05 9.3580107087912559e-04 0.0000000000000000e+00  -4.6915799689623725e-05 9.5262922669645108e-04 0.0000000000000000e+00  -3.8287706859023402e-05 9.7053161865863187e-04 0.0000000000000000e+00  -2.9562073963318850e-05 9.8950030760373365e-04 0.0000000000000000e+00  -2.0899845413279205e-05 1.0096684780077430e-03 0.0000000000000000e+00  -1.2476560791806949e-05 1.0309876872506450e-03 0.0000000000000000e+00  -4.4015510938717679e-06 1.0532598418341004e-03 0.0000000000000000e+00  3.2891039539108287e-06 1.0762702686001073e-03 0.0000000000000000e+00  1.0607085352433997e-05 1.0998487654880558e-03 0.0000000000000000e+00  -9.6843642493023093e-05 8.4856664554726260e-04 0.0000000000000000e+00  -9.7640933796394600e-05 8.4010846769851436e-04 0.0000000000000000e+00  -9.6219447032514421e-05 8.5579736883499157e-04 0.0000000000000000e+00  -9.5885489581819469e-05 8.6157426085544980e-04 0.0000000000000000e+00  -9.5919551778662069e-05 8.6583010754151437e-04 0.0000000000000000e+00  -9.6169218379595298e-05 8.6851582226380624e-04 0.0000000000000000e+00  -8.9967397419242508e-05 8.8085177342416086e-04 0.0000000000000000e+00  -8.3402202932665882e-05 8.9281346648086696e-04 0.0000000000000000e+00  -7.5537652332642038e-05 9.0482299511151403e-04 0.0000000000000000e+00  -6.7084490590709126e-05 9.1976879805223167e-04 0.0000000000000000e+00  -5.8373760135874253e-05 9.3615491316831724e-04 0.0000000000000000e+00  -4.9412672352301229e-05 9.5367113454885829e-04 0.0000000000000000e+00  -4.0238380132822318e-05 9.7237570765338125e-04 0.0000000000000000e+00  -3.1097622607527543e-05 9.9261876875056583e-04 0.0000000000000000e+00  -2.2254325536333385e-05 1.0143047564331045e-03 0.0000000000000000e+00  -1.3842260431541432e-05 1.0370838597877005e-03 0.0000000000000000e+00  -5.8821345207444732e-06 1.0606337984391992e-03 0.0000000000000000e+00  1.6627888288089350e-06 1.0847317997201248e-03 0.0000000000000000e+00  8.8481689101263480e-06 1.1092452706738499e-03 0.0000000000000000e+00  -1.0197672868742166e-04 8.4891717414432052e-04 0.0000000000000000e+00  -1.0271894993415857e-04 8.4088192293946154e-04 0.0000000000000000e+00  -1.0094817952640131e-04 8.5589609237015968e-04 0.0000000000000000e+00  -1.0018323516581639e-04 8.6154487647874397e-04 0.0000000000000000e+00  -9.9741655171489550e-05 8.6565406639187061e-04 0.0000000000000000e+00  -9.9668687120260004e-05 8.6827519891925005e-04 0.0000000000000000e+00  -9.9860573933957728e-05 8.6947015589471425e-04 0.0000000000000000e+00  -9.4628091770840780e-05 8.7953480235012011e-04 0.0000000000000000e+00  -8.7235653850144466e-05 8.8829688566146930e-04 0.0000000000000000e+00  -7.8581897501242513e-05 9.0309303749687095e-04 0.0000000000000000e+00  -6.9653274965318017e-05 9.1910276278848720e-04 0.0000000000000000e+00  -6.0369019820577658e-05 9.3612324168997594e-04 0.0000000000000000e+00  -5.0686094379677646e-05 9.5439873576112192e-04 0.0000000000000000e+00  -4.1016415609680678e-05 9.7477934566818033e-04 0.0000000000000000e+00  -3.1763749278036115e-05 9.9701427046223405e-04 0.0000000000000000e+00  -2.3071347483049011e-05 1.0204669026133185e-03 0.0000000000000000e+00  -1.4917012127108391e-05 1.0446696716574244e-03 0.0000000000000000e+00  -7.2217222959618702e-06 1.0693516528520585e-03 0.0000000000000000e+00  9.9089761300589086e-08 1.0943767267974805e-03 0.0000000000000000e+00  7.1164388688432307e-06 1.1196921986257474e-03 0.0000000000000000e+00  -1.0157210717339689e-04 8.4092300987380299e-04 0.0000000000000000e+00  -9.9672621595732735e-05 8.2638727163408528e-04 0.0000000000000000e+00  -1.0452683516692841e-04 8.5599471882156131e-04 0.0000000000000000e+00  -1.0319064567783114e-04 8.6170206365540733e-04 0.0000000000000000e+00  -1.0217151397399441e-04 8.6563168467497292e-04 0.0000000000000000e+00  -1.0151990667938996e-04 8.6812729185718827e-04 0.0000000000000000e+00  -1.0122037288555891e-04 8.6944565285891466e-04 0.0000000000000000e+00  -1.0120840502484944e-04 8.6970149772542138e-04 0.0000000000000000e+00  -1.0124622039334019e-04 8.6918473487491098e-04 0.0000000000000000e+00  -9.0543180320318427e-05 8.8571130964223261e-04 0.0000000000000000e+00  -8.0943828654024536e-05 9.0150006903088080e-04 0.0000000000000000e+00  -7.1263380213722294e-05 9.1782900893900990e-04 0.0000000000000000e+00  -6.0954052464908916e-05 9.3532880938952516e-04 0.0000000000000000e+00  -5.0674057634217341e-05 9.5599915454993212e-04 0.0000000000000000e+00  -4.1030183603268499e-05 9.7910087822989647e-04 0.0000000000000000e+00  -3.2127664241339537e-05 1.0034616725839724e-03 0.0000000000000000e+00  -2.3858488551638416e-05 1.0284507972202776e-03 0.0000000000000000e+00  -1.6084962521130758e-05 1.0537793613327213e-03 0.0000000000000000e+00  -8.6903679362942673e-06 1.0793353392090240e-03 0.0000000000000000e+00  -1.5882881871516991e-06 1.1051002128419523e-03 0.0000000000000000e+00  5.2787888875594722e-06 1.1311026611784340e-03 0.0000000000000000e+00  -9.8490658970191552e-05 8.3058214747721703e-04 0.0000000000000000e+00  -1.0118376011362616e-04 8.4643371750310235e-04 0.0000000000000000e+00  -1.0407567415731366e-04 8.6216260801441375e-04 0.0000000000000000e+00  -1.0303408230144238e-04 8.6583426050225703e-04 0.0000000000000000e+00  -1.0217324803220565e-04 8.6805912774704083e-04 0.0000000000000000e+00  -1.0149359447697246e-04 8.6937478015400836e-04 0.0000000000000000e+00  -1.0106454666381244e-04 8.6967259094947278e-04 0.0000000000000000e+00  -1.0088570804053783e-04 8.6913997139665973e-04 0.0000000000000000e+00  -1.0078330638562637e-04 8.6789522795340424e-04 0.0000000000000000e+00  -9.1188386900995259e-05 8.8358302659336386e-04 0.0000000000000000e+00  -8.1790495060166148e-05 8.9884219678942163e-04 0.0000000000000000e+00  -7.1002539552212230e-05 9.1475878961803925e-04 0.0000000000000000e+00  -6.0099023179563800e-05 9.3607462319208264e-04 0.0000000000000000e+00  -5.0124915403383903e-05 9.6058415141698204e-