<?xml version="1.0"?>
<VTKFile type="UnstructuredGrid"  version="0.1"  >
<UnstructuredGrid>
<Piece  NumberOfPoints="611" NumberOfCells="1123">
<Points>
<DataArray  type="Float64"  NumberOfComponents="3"  format="ascii">1.883478260869565 0.01666666666666667 0  1.9 0.01666666666666667 0  1.9 0.03333333333333333 0  1.883478260869565 0.03333333333333333 0  1.916521739130435 0.03333333333333333 0  1.9 0.05 0  1.883478260869565 0.05 0  1.916521739130435 0.05 0  1.933043478260869 0.05 0  1.9 0.06666666666666667 0  1.883478260869565 0.06666666666666667 0  1.916521739130435 0.06666666666666667 0  1.933043478260869 0.06666666666666667 0  1.949565217391304 0.06666666666666667 0  1.9 0.08333333333333333 0  1.883478260869565 0.08333333333333333 0  1.916521739130435 0.08333333333333333 0  1.933043478260869 0.08333333333333333 0  1.949565217391304 0.08333333333333333 0  1.966086956521739 0.08333333333333333 0  1.9 0.1 0  1.883478260869565 0.1 0  1.916521739130435 0.1 0  1.933043478260869 0.1 0  1.949565217391304 0.1 0  1.966086956521739 0.1 0  1.982608695652174 0.1 0  1.9 0.1166666666666667 0  1.883478260869565 0.1166666666666667 0  1.916521739130435 0.1166666666666667 0  1.933043478260869 0.1166666666666667 0  1.949565217391304 0.1166666666666667 0  1.966086956521739 0.1166666666666667 0  1.982608695652174 0.1166666666666667 0  1.999130434782608 0.1166666666666667 0  1.9 0.1333333333333333 0  1.883478260869565 0.1333333333333333 0  1.916521739130435 0.1333333333333333 0  1.933043478260869 0.1333333333333333 0  1.949565217391304 0.1333333333333333 0  1.966086956521739 0.1333333333333333 0  1.982608695652174 0.1333333333333333 0  1.999130434782608 0.1333333333333333 0  2.015652173913043 0.1166666666666667 0  2.015652173913043 0.1333333333333333 0  2.032173913043478 0.1166666666666667 0  2.032173913043478 0.1333333333333333 0  2.048695652173913 0.1166666666666667 0  2.048695652173913 0.1333333333333333 0  2.065217391304348 0.1166666666666667 0  2.065217391304348 0.1333333333333333 0  2.081739130434782 0.1166666666666667 0  2.081739130434782 0.1333333333333333 0  2.098260869565217 0.1333333333333333 0  1.9 0.15 0  1.883478260869565 0.15 0  1.916521739130435 0.15 0  1.933043478260869 0.15 0  1.949565217391304 0.15 0  1.966086956521739 0.15 0  1.982608695652174 0.15 0  1.999130434782608 0.15 0  2.015652173913043 0.15 0  2.032173913043478 0.15 0  2.048695652173913 0.15 0  2.065217391304348 0.15 0  2.081739130434782 0.15 0  2.098260869565217 0.15 0  2.114782608695652 0.15 0  1.9 0.1666666666666667 0  1.883478260869565 0.1666666666666667 0  1.916521739130435 0.1666666666666667 0  1.933043478260869 0.1666666666666667 0  1.949565217391304 0.1666666666666667 0  1.966086956521739 0.1666666666666667 0  1.982608695652174 0.1666666666666667 0  1.999130434782608 0.1666666666666667 0  2.015652173913043 0.1666666666666667 0  2.032173913043478 0.1666666666666667 0  2.048695652173913 0.1666666666666667 0  2.065217391304348 0.1666666666666667 0  2.081739130434782 0.1666666666666667 0  2.098260869565217 0.1666666666666667 0  2.114782608695652 0.1666666666666667 0  2.131304347826087 0.1666666666666667 0  1.9 0.1833333333333333 0  1.883478260869565 0.1833333333333333 0  1.916521739130435 0.1833333333333333 0  1.933043478260869 0.1833333333333333 0  1.949565217391304 0.1833333333333333 0  1.966086956521739 0.1833333333333333 0  1.982608695652174 0.1833333333333333 0  1.999130434782608 0.1833333333333333 0  2.015652173913043 0.1833333333333333 0  2.032173913043478 0.1833333333333333 0  2.048695652173913 0.1833333333333333 0  2.065217391304348 0.1833333333333333 0  2.081739130434782 0.1833333333333333 0  2.098260869565217 0.1833333333333333 0  2.114782608695652 0.1833333333333333 0  2.131304347826087 0.1833333333333333 0  2.147826086956522 0.1833333333333333 0  1.9 0.2 0  1.883478260869565 0.2 0  1.916521739130435 0.2 0  1.933043478260869 0.2 0  1.949565217391304 0.2 0  1.966086956521739 0.2 0  1.982608695652174 0.2 0  1.999130434782608 0.2 0  2.015652173913043 0.2 0  2.032173913043478 0.2 0  2.048695652173913 0.2 0  2.065217391304348 0.2 0  2.081739130434782 0.2 0  2.098260869565217 0.2 0  2.114782608695652 0.2 0  2.131304347826087 0.2 0  2.147826086956522 0.2 0  2.164347826086956 0.2 0  1.9 0.2166666666666667 0  1.883478260869565 0.2166666666666667 0  1.916521739130435 0.2166666666666667 0  1.933043478260869 0.2166666666666667 0  1.949565217391304 0.2166666666666667 0  1.966086956521739 0.2166666666666667 0  1.982608695652174 0.2166666666666667 0  1.999130434782608 0.2166666666666667 0  2.015652173913043 0.2166666666666667 0  2.032173913043478 0.2166666666666667 0  2.048695652173913 0.2166666666666667 0  2.065217391304348 0.2166666666666667 0  2.081739130434782 0.2166666666666667 0  2.098260869565217 0.2166666666666667 0  2.114782608695652 0.2166666666666667 0  2.131304347826087 0.2166666666666667 0  2.147826086956522 0.2166666666666667 0  2.164347826086956 0.2166666666666667 0  2.180869565217391 0.2166666666666667 0  1.9 0.2333333333333333 0  1.883478260869565 0.2333333333333333 0  1.916521739130435 0.2333333333333333 0  1.933043478260869 0.2333333333333333 0  1.949565217391304 0.2333333333333333 0  1.966086956521739 0.2333333333333333 0  1.982608695652174 0.2333333333333333 0  1.999130434782608 0.2333333333333333 0  2.015652173913043 0.2333333333333333 0  2.032173913043478 0.2333333333333333 0  2.048695652173913 0.2333333333333333 0  2.065217391304348 0.2333333333333333 0  2.081739130434782 0.2333333333333333 0  2.098260869565217 0.2333333333333333 0  2.114782608695652 0.2333333333333333 0  2.131304347826087 0.2333333333333333 0  2.147826086956522 0.2333333333333333 0  2.164347826086956 0.2333333333333333 0  2.180869565217391 0.2333333333333333 0  2.197391304347826 0.2333333333333333 0  1.9 0.25 0  1.916521739130435 0.25 0  1.933043478260869 0.25 0  1.949565217391304 0.25 0  1.966086956521739 0.25 0  1.982608695652174 0.25 0  1.999130434782608 0.25 0  2.015652173913043 0.25 0  2.032173913043478 0.25 0  2.048695652173913 0.25 0  2.065217391304348 0.25 0  2.081739130434782 0.25 0  2.098260869565217 0.25 0  2.114782608695652 0.25 0  2.131304347826087 0.25 0  2.147826086956522 0.25 0  2.164347826086956 0.25 0  2.180869565217391 0.25 0  2.197391304347826 0.25 0  2.213913043478261 0.25 0  1.916521739130435 0.2666666666666667 0  1.9 0.2666666666666667 0  1.933043478260869 0.2666666666666667 0  1.949565217391304 0.2666666666666667 0  1.966086956521739 0.2666666666666667 0  1.982608695652174 0.2666666666666667 0  1.999130434782608 0.2666666666666667 0  2.015652173913043 0.2666666666666667 0  2.032173913043478 0.2666666666666667 0  2.048695652173913 0.2666666666666667 0  2.065217391304348 0.2666666666666667 0  2.081739130434782 0.2666666666666667 0  2.098260869565217 0.2666666666666667 0  2.114782608695652 0.2666666666666667 0  2.131304347826087 0.2666666666666667 0  2.147826086956522 0.2666666666666667 0  2.164347826086956 0.2666666666666667 0  2.180869565217391 0.2666666666666667 0  2.197391304347826 0.2666666666666667 0  2.213913043478261 0.2666666666666667 0  2.230434782608695 0.25 0  2.230434782608695 0.2666666666666667 0  2.24695652173913 0.2666666666666667 0  1.916521739130435 0.2833333333333333 0  1.9 0.2833333333333333 0  1.933043478260869 0.2833333333333333 0  1.949565217391304 0.2833333333333333 0  1.966086956521739 0.2833333333333333 0  1.982608695652174 0.2833333333333333 0  1.999130434782608 0.2833333333333333 0  2.015652173913043 0.2833333333333333 0  2.032173913043478 0.2833333333333333 0  2.048695652173913 0.2833333333333333 0  2.065217391304348 0.2833333333333333 0  2.081739130434782 0.2833333333333333 0  2.098260869565217 0.2833333333333333 0  2.114782608695652 0.2833333333333333 0  2.131304347826087 0.2833333333333333 0  2.147826086956522 0.2833333333333333 0  2.164347826086956 0.2833333333333333 0  2.180869565217391 0.2833333333333333 0  2.197391304347826 0.2833333333333333 0  2.213913043478261 0.2833333333333333 0  2.230434782608695 0.2833333333333333 0  2.24695652173913 0.2833333333333333 0  2.263478260869565 0.2833333333333333 0  1.916521739130435 0.3 0  1.9 0.3 0  1.933043478260869 0.3 0  1.949565217391304 0.3 0  1.966086956521739 0.3 0  1.982608695652174 0.3 0  1.999130434782608 0.3 0  2.015652173913043 0.3 0  2.032173913043478 0.3 0  2.048695652173913 0.3 0  2.065217391304348 0.3 0  2.081739130434782 0.3 0  2.098260869565217 0.3 0  2.114782608695652 0.3 0  2.131304347826087 0.3 0  2.147826086956522 0.3 0  2.164347826086956 0.3 0  2.180869565217391 0.3 0  2.197391304347826 0.3 0  2.213913043478261 0.3 0  2.230434782608695 0.3 0  2.24695652173913 0.3 0  2.263478260869565 0.3 0  2.28 0.3 0  1.916521739130435 0.3166666666666667 0  1.9 0.3166666666666667 0  1.933043478260869 0.3166666666666667 0  1.949565217391304 0.3166666666666667 0  1.966086956521739 0.3166666666666667 0  1.982608695652174 0.3166666666666667 0  1.999130434782608 0.3166666666666667 0  2.015652173913043 0.3166666666666667 0  2.032173913043478 0.3166666666666667 0  2.048695652173913 0.3166666666666667 0  2.065217391304348 0.3166666666666667 0  2.081739130434782 0.3166666666666667 0  2.098260869565217 0.3166666666666667 0  2.114782608695652 0.3166666666666667 0  2.131304347826087 0.3166666666666667 0  2.147826086956522 0.3166666666666667 0  2.164347826086956 0.3166666666666667 0  2.180869565217391 0.3166666666666667 0  2.197391304347826 0.3166666666666667 0  2.213913043478261 0.3166666666666667 0  2.230434782608695 0.3166666666666667 0  2.24695652173913 0.3166666666666667 0  2.263478260869565 0.3166666666666667 0  2.28 0.3166666666666667 0  2.296521739130434 0.3166666666666667 0  1.916521739130435 0.3333333333333333 0  1.9 0.3333333333333333 0  1.933043478260869 0.3333333333333333 0  1.949565217391304 0.3333333333333333 0  1.966086956521739 0.3333333333333333 0  1.982608695652174 0.3333333333333333 0  1.999130434782608 0.3333333333333333 0  2.015652173913043 0.3333333333333333 0  2.032173913043478 0.3333333333333333 0  2.048695652173913 0.3333333333333333 0  2.06521739
[...]
<PointData  Vectors="Displacement"> 
<DataArray  type="Float64"  Name="Displacement"  NumberOfComponents="3" format="ascii">3.2118735132306711e-04 3.5850489503346729e-03 0.0000000000000000e+00  3.2277712914878618e-04 3.6237701818305477e-03 0.0000000000000000e+00  2.8663922576474223e-04 3.6232547089697720e-03 0.0000000000000000e+00  2.8337100583099360e-04 3.5843230259362379e-03 0.0000000000000000e+00  2.8938555546436929e-04 3.6593921239521667e-03 0.0000000000000000e+00  2.5199988623161759e-04 3.6222142406105665e-03 0.0000000000000000e+00  2.4780354075313178e-04 3.5734531095305308e-03 0.0000000000000000e+00  2.5713954857023994e-04 3.6588912060924895e-03 0.0000000000000000e+00  2.5976441935286759e-04 3.6932906904140082e-03 0.0000000000000000e+00  2.2344359263501835e-04 3.6088019780430173e-03 0.0000000000000000e+00  2.1783367970029891e-04 3.5617530020232912e-03 0.0000000000000000e+00  2.2816094319050729e-04 3.6502966572320487e-03 0.0000000000000000e+00  2.2981367567623991e-04 3.6934753857865658e-03 0.0000000000000000e+00  2.3136693807674480e-04 3.7263397907255145e-03 0.0000000000000000e+00  1.9685442083742317e-04 3.5964207167109266e-03 0.0000000000000000e+00  1.9054720122730140e-04 3.5500679288156941e-03 0.0000000000000000e+00  2.0272955812656039e-04 3.6403708182758971e-03 0.0000000000000000e+00  2.0706207121076877e-04 3.6844867657116476e-03 0.0000000000000000e+00  2.0883277026580196e-04 3.7237984064689236e-03 0.0000000000000000e+00  2.0460074972435596e-04 3.7594451424071522e-03 0.0000000000000000e+00  1.7115375721623823e-04 3.5843753933761761e-03 0.0000000000000000e+00  1.6452854153603308e-04 3.5385620995231153e-03 0.0000000000000000e+00  1.7777201985672475e-04 3.6294451734134102e-03 0.0000000000000000e+00  1.8375897544376443e-04 3.6753126087182919e-03 0.0000000000000000e+00  1.8828593663705576e-04 3.7220101257821165e-03 0.0000000000000000e+00  1.8453653831139214e-04 3.7683227321648953e-03 0.0000000000000000e+00  1.8302354142101161e-04 3.7900877569121928e-03 0.0000000000000000e+00  1.4565375798201652e-04 3.5724370760319606e-03 0.0000000000000000e+00  1.3906649172008837e-04 3.5272617867650844e-03 0.0000000000000000e+00  1.5239067571553176e-04 3.6178670298278961e-03 0.0000000000000000e+00  1.5876914149845787e-04 3.6649533888758333e-03 0.0000000000000000e+00  1.6433110767815476e-04 3.7160135387026938e-03 0.0000000000000000e+00  1.7076315728734994e-04 3.7834536821951337e-03 0.0000000000000000e+00  1.6986824997037491e-04 3.7938095191468835e-03 0.0000000000000000e+00  1.6939894558606490e-04 3.8081202040909042e-03 0.0000000000000000e+00  1.2076224337322014e-04 3.5602921799095309e-03 0.0000000000000000e+00  1.1414443043395536e-04 3.5160470278560829e-03 0.0000000000000000e+00  1.2789416757007477e-04 3.6052983818671658e-03 0.0000000000000000e+00  1.3542353623774536e-04 3.6522283379025709e-03 0.0000000000000000e+00  1.4360861299631914e-04 3.7029045564097064e-03 0.0000000000000000e+00  1.5356239815680388e-04 3.7601140015968110e-03 0.0000000000000000e+00  1.5987160182842297e-04 3.7964793132634878e-03 0.0000000000000000e+00  1.5958791670292184e-04 3.8084317094171363e-03 0.0000000000000000e+00  1.6983360272398166e-04 3.8191023891680728e-03 0.0000000000000000e+00  1.5966461385623007e-04 3.8176767697226093e-03 0.0000000000000000e+00  1.6991226872466324e-04 3.8377859589627437e-03 0.0000000000000000e+00  1.5981287774281231e-04 3.8236274101626447e-03 0.0000000000000000e+00  1.7075017247669786e-04 3.8604471182529560e-03 0.0000000000000000e+00  1.5962747978217999e-04 3.8436299316416699e-03 0.0000000000000000e+00  1.7123564074720014e-04 3.8872359578825612e-03 0.0000000000000000e+00  1.5967320502583156e-04 3.8682738120713804e-03 0.0000000000000000e+00  1.7154798962258359e-04 3.9191397772130616e-03 0.0000000000000000e+00  1.5989077195681205e-04 3.8978285130346359e-03 0.0000000000000000e+00  1.6053038623562891e-04 3.9328831016174235e-03 0.0000000000000000e+00  9.6358348047810002e-05 3.5477457918797533e-03 0.0000000000000000e+00  8.9672305002777434e-05 3.5047848952830672e-03 0.0000000000000000e+00  1.0388322191888109e-04 3.5916353550832242e-03 0.0000000000000000e+00  1.1232510813098484e-04 3.6372982966509353e-03 0.0000000000000000e+00  1.2212562717197297e-04 3.6858946949374066e-03 0.0000000000000000e+00  1.3444616351601351e-04 3.7388815325001337e-03 0.0000000000000000e+00  1.5213629782545303e-04 3.7984479084580808e-03 0.0000000000000000e+00  1.5235961865438688e-04 3.8093694333563247e-03 0.0000000000000000e+00  1.5284241057065461e-04 3.8173888079726438e-03 0.0000000000000000e+00  1.5307046971170242e-04 3.8227903349046816e-03 0.0000000000000000e+00  1.5297020622981873e-04 3.8257611534924314e-03 0.0000000000000000e+00  1.5245713674735090e-04 3.8479025948812205e-03 0.0000000000000000e+00  1.5232425959435872e-04 3.8747399362275758e-03 0.0000000000000000e+00  1.5276762854902500e-04 3.9067775698189266e-03 0.0000000000000000e+00  1.5427420188685113e-04 3.9441889466612307e-03 0.0000000000000000e+00  7.2295654016313814e-05 3.5347655316048366e-03 0.0000000000000000e+00  6.5549949999285041e-05 3.4933977564488581e-03 0.0000000000000000e+00  8.0101973430643788e-05 3.5770536435269168e-03 0.0000000000000000e+00  8.9087460987090171e-05 3.6208216877865237e-03 0.0000000000000000e+00  9.9604908956864234e-05 3.6667021897605874e-03 0.0000000000000000e+00  1.1235501146074017e-04 3.7151598089675592e-03 0.0000000000000000e+00  1.2841261646424462e-04 3.7656291882435440e-03 0.0000000000000000e+00  1.4771690749457129e-04 3.8101882201806688e-03 0.0000000000000000e+00  1.4846535281926029e-04 3.8176802276437619e-03 0.0000000000000000e+00  1.4922023557978651e-04 3.8226405481901495e-03 0.0000000000000000e+00  1.4950677909489387e-04 3.8256154054109605e-03 0.0000000000000000e+00  1.4955579175096411e-04 3.8262985234703566e-03 0.0000000000000000e+00  1.4888459025130118e-04 3.8501754747662241e-03 0.0000000000000000e+00  1.4879320452925750e-04 3.8790604780904736e-03 0.0000000000000000e+00  1.4983903405803170e-04 3.9124795259088511e-03 0.0000000000000000e+00  1.5333055994018249e-04 3.9503606447210786e-03 0.0000000000000000e+00  4.8539305398302984e-05 3.5213696714768397e-03 0.0000000000000000e+00  4.1724132345762336e-05 3.4818419780648165e-03 0.0000000000000000e+00  5.6589628882069789e-05 3.5617271383519720e-03 0.0000000000000000e+00  6.6010034490273837e-05 3.6032505851313766e-03 0.0000000000000000e+00  7.7099957681882664e-05 3.6462181472718073e-03 0.0000000000000000e+00  9.0364406962379883e-05 3.6906022636388307e-03 0.0000000000000000e+00  1.0643967108826902e-04 3.7354658049950514e-03 0.0000000000000000e+00  1.2546697981742776e-04 3.7775231499614661e-03 0.0000000000000000e+00  1.4636675430604237e-04 3.8181233219649570e-03 0.0000000000000000e+00  1.4731009099834736e-04 3.8227133421895798e-03 0.0000000000000000e+00  1.4843146526324506e-04 3.8256576384845917e-03 0.0000000000000000e+00  1.4907428097167961e-04 3.8263434684740901e-03 0.0000000000000000e+00  1.4945103639924217e-04 3.8242467936934390e-03 0.0000000000000000e+00  1.4887524647822970e-04 3.8503319447168640e-03 0.0000000000000000e+00  1.4886310246608716e-04 3.8794019979572674e-03 0.0000000000000000e+00  1.5235914540767822e-04 3.9104005072552166e-03 0.0000000000000000e+00  1.5742940238778713e-04 3.9538775892629914e-03 0.0000000000000000e+00  2.5023083251116830e-05 3.5075989916024549e-03 0.0000000000000000e+00  1.8136158616967478e-05 3.4700990807828382e-03 0.0000000000000000e+00  3.3278066916551837e-05 3.5458093884831723e-03 0.0000000000000000e+00  4.3032134089189199e-05 3.5849062542475220e-03 0.0000000000000000e+00  5.4524679640177844e-05 3.6249538611081143e-03 0.0000000000000000e+00  6.8103121669106724e-05 3.6657238608359330e-03 0.0000000000000000e+00  8.4133365939290699e-05 3.7064035168979854e-03 0.0000000000000000e+00  1.0271234384222009e-04 3.7454434357272466e-03 0.0000000000000000e+00  1.2362494710922204e-04 3.7833685011138970e-03 0.0000000000000000e+00  1.4848026483889662e-04 3.8231425373126435e-03 0.0000000000000000e+00  1.4973304801871955e-04 3.8255500429096498e-03 0.0000000000000000e+00  1.5181098257337032e-04 3.8265936364834572e-03 0.0000000000000000e+00  1.5307081084519697e-04 3.8246119495318216e-03 0.0000000000000000e+00  1.5443804618981428e-04 3.8214847377723068e-03 0.0000000000000000e+00  1.5223039051855475e-04 3.8461706482923663e-03 0.0000000000000000e+00  1.5528300669946402e-04 3.8665368375315336e-03 0.0000000000000000e+00  1.5930392602248747e-04 3.9082300832584188e-03 0.0000000000000000e+00  1.6382247178406087e-04 3.9573096713255932e-03 0.0000000000000000e+00  1.6592300777051247e-06 3.4935139878665791e-03 0.0000000000000000e+00  -5.2806437898859569e-06 3.4581745781318111e-03 0.0000000000000000e+00  1.0057469524562868e-05 3.5294494326092562e-03 0.0000000000000000e+00  2.0024286094896421e-05 3.5660544465307194e-03 0.0000000000000000e+00  3.1729852425009479e-05 3.6032841743053020e-03 0.0000000000000000e+00  4.5380111145710754e-05 3.6408650033020024e-03 0.0000000000000000e+00  6.1129912446421632e-05 3.6781814035159255e-03 0.0000000000000000e+00  7.8915599381431883e-05 3.7143688856136510e-03 0.0000000000000000e+00  9.8412859623932955e-05 3.7492722038241942e-03 0.0000000000000000e+00  1.1941283467833821e-04 3.7822267547164600e-03 0.0000000000000000e+00  1.3968173857129194e-04 3.8026077788325644e-03 0.0000000000000000e+00  1.5786380206611730e-04 3.8272509751403195e-03 0.0000000000000000e+00  1.5911389986602507e-04 3.8248556813956793e-03 0.0000000000000000e+00  1.6041619359605954e-04 3.8216861393340694e-03 0.0000000000000000e+00  1.6170516888145678e-04 3.8189933258219078e-03 0.0000000000000000e+00  1.6253027882776137e-04 3.8164296551106607e-03 0.0000000000000000e+00  1.6393292790601487e-04 3.8614994453299613e-03 0.0000000000000000e+00  1.6522286612687663e-04 3.9081020640202632e-03 0.0000000000000000e+00  1.7170831546124560e-04 3.9550257515115327e-03 0.0000000000000000e+00  -2.1626338051960640e-05 3.4791826569511245e-03 0.0000000000000000e+00  -2.8584238525204226e-05 3.4460916990137766e-03 0.0000000000000000e+00  -1.3152440409764991e-05 3.5127758788637462e-03 0.0000000000000000e+00  -3.0744505530479595e-06 3.5468862637586971e-03 0.0000000000000000e+00  8.7266642592197634e-06 3.5814234252881032e-03 0.0000000000000000e+00  2.2376684605591340e-05 3.6161302321924106e-03 0.0000000000000000e+00  3.7953476070986277e-05 3.6505460674423223e-03 0.0000000000000000e+00  5.5417591258666520e-05 3.6840928988582126e-03 0.0000000000000000e+00  7.4632501003650444e-05 3.7163575453800523e-03 0.0000000000000000e+00  9.5505563344994583e-05 3.7463448058480484e-03 0.0000000000000000e+00  1.1740129481880027e-04 3.7706095637707201e-03 0.0000000000000000e+00  1.3923440309977935e-04 3.7958244355776830e-03 0.0000000000000000e+00  1.6484959858401458e-04 3.8253163303229856e-03 0.0000000000000000e+00  1.6547858999485857e-04 3.8218352918316812e-03 0.0000000000000000e+00  1.6631787085677599e-04 3.8189899529722424e-03 0.0000000000000000e+00  1.6725079490895691e-04 3.8167520270666988e-03 0.0000000000000000e+00  1.6849417204412942e-04 3.8163056827541109e-03 0.0000000000000000e+00  1.6626249201003300e-04 3.8599413837683435e-03 0.0000000000000000e+00  1.7252895526140752e-04 3.8939396969594319e-03 0.0000000000000000e+00  1.8025213999362560e-04 3.9575738692257199e-03 0.0000000000000000e+00  -4.4892580671134131e-05 3.4646745427554357e-03 0.0000000000000000e+00  -3.6420133239252815e-05 3.4958975303310529e-03 0.0000000000000000e+00  -2.6332855320612077e-05 3.5275411929340567e-03 0.0000000000000000e+00  -1.4549302971341014e-05 3.5595046635295497e-03 0.0000000000000000e+00  -9.9429407602856243e-07 3.5915670813879710e-03 0.0000000000000000e+00  1.4366803727098501e-05 3.6233784023452140e-03 0.0000000000000000e+00  3.1492848039307149e-05 3.6545095726219115e-03 0.0000000000000000e+00  5.0267411875519678e-05 3.6845293382621932e-03 0.0000000000000000e+00  7.0498351701620777e-05 3.7127086044945710e-03 0.0000000000000000e+00  9.1641703265663504e-05 3.7379365503320034e-03 0.0000000000000000e+00  1.1289415061941774e-04 3.7629325067488934e-03 0.0000000000000000e+00  1.3488018288697874e-04 3.7880795243975863e-03 0.0000000000000000e+00  1.5686235967554222e-04 3.8068738633306961e-03 0.0000000000000000e+00  1.7002892340945780e-04 3.8191163107187528e-03 0.0000000000000000e+00  1.7051716308051388e-04 3.8168369845123632e-03 0.0000000000000000e+00  1.7129355280190374e-04 3.8165002589373755e-03 0.0000000000000000e+00  1.7261198678617274e-04 3.8188411881238359e-03 0.0000000000000000e+00  1.7363891941518444e-04 3.8233302990716409e-03 0.0000000000000000e+00  1.7985306326145592e-04 3.8951813326050647e-03 0.0000000000000000e+00  1.8425358361793534e-04 3.9697463259815279e-03 0.0000000000000000e+00  -5.9794366319001490e-05 3.4789098584338592e-03 0.0000000000000000e+00  -6.8177226319933302e-05 3.4500592431573854e-03 0.0000000000000000e+00  -4.9807261052568843e-05 3.5081309281888703e-03 0.0000000000000000e+00  -3.8163668786994948e-05 3.5376305258040469e-03 0.0000000000000000e+00  -2.4824703735868175e-05 3.5672301898374802e-03 0.0000000000000000e+00  -9.7879522194413361e-06 3.5966652659829203e-03 0.0000000000000000e+00  6.8899447184976248e-06 3.6256136562925921e-03 0.0000000000000000e+00  2.5082742117198051e-05 3.6537249564631722e-03 0.0000000000000000e+00  4.4572233255879150e-05 3.6805491661913475e-03 0.0000000000000000e+00  6.4954529710009731e-05 3.7057347051024365e-03 0.0000000000000000e+00  8.5790415875454100e-05 3.7303629175558942e-03 0.0000000000000000e+00  1.0724256439926524e-04 3.7542657607663511e-03 0.0000000000000000e+00  1.2910514837473840e-04 3.7750877733690579e-03 0.0000000000000000e+00  1.5003753085239131e-04 3.7941528541277042e-03 0.0000000000000000e+00  1.7145197584049989e-04 3.8169512899646043e-03 0.0000000000000000e+00  1.7152066407604276e-04 3.8165795741491653e-03 0.0000000000000000e+00  1.7195863216520375e-04 3.8189013005652844e-03 0.0000000000000000e+00  1.7315868226332626e-04 3.8237133251703779e-03 0.0000000000000000e+00  1.7442274693075949e-04 3.8326723931227705e-03 0.0000000000000000e+00  1.7792099654176852e-04 3.9095478681300758e-03 0.0000000000000000e+00  1.8954164934938250e-04 4.0478539951201240e-03 0.0000000000000000e+00  1.8069876535146167e-04 3.9865331397304325e-03 0.0000000000000000e+00  1.8892987998460722e-04 4.0607490949374440e-03 0.0000000000000000e+00  -8.3293198551698171e-05 3.4618982606326970e-03 0.0000000000000000e+00  -9.1489400090793711e-05 3.4354052186210799e-03 0.0000000000000000e+00  -7.3521687851035844e-05 3.4887490264796264e-03 0.0000000000000000e+00  -6.2145567188875479e-05 3.5158853230439261e-03 0.0000000000000000e+00  -4.9152747608073592e-05 3.5431723436706954e-03 0.0000000000000000e+00  -3.4564608795549336e-05 3.5704162743990611e-03 0.0000000000000000e+00  -1.8451504844941605e-05 3.5973829656208395e-03 0.0000000000000000e+00  -9.4305937989500376e-07 3.6238186172251234e-03 0.0000000000000000e+00  1.7758947196102278e-05 3.6494573394386105e-03 0.0000000000000000e+00  3.7365225102323214e-05 3.6741753178669741e-03 0.0000000000000000e+00  5.7613206131148397e-05 3.6983708015686468e-03 0.0000000000000000e+00  7.8497490472756408e-05 3.7218438515312217e-03 0.0000000000000000e+00  9.9875552950521229e-05 3.7437708979511479e-03 0.0000000000000000e+00  1.2131429715630452e-04 3.7651009989423251e-03 0.0000000000000000e+00  1.4335483983970716e-04 3.7883334942521297e-03 0.0000000000000000e+00  1.6881183701767579e-04 3.8165338835670472e-03 0.0000000000000000e+00  1.6868255192300588e-04 3.8189652936726536e-03 0.0000000000000000e+00  1.6887788480652631e-04 3.8238452095148371e-03 0.0000000000000000e+00  1.7003395014026650e-04 3.8337741000900858e-03 0.0000000000000000e+00  1.7269066640093327e-04 3.8514851850566566e-03 0.0000000000000000e+00  1.6989158617376104e-04 3.9272449544433766e-03 0.0000000000000000e+00  1.7738747647984808e-04 3.9880002534070889e-03 0.0000000000000000e+00  1.8649865916049515e-04 4.0818997432442040e-03 0.0000000000000000e+00  -1.0689882010947670e-04 3.4449395282811022e-03 0.0000000000000000e+00  -1.1480504515704138e-04 3.4207786479197688e-03 0.0000000000000000e+00  -9.7461837235233759e-05 3.4694751927431813e-03 0.0000000000000000e+00  -8.6482513289043461e-05 3.4943390083705633e-03 0.0000000000000000e+00  -7.3968369783808223e-05 3.5194390329698374e-03 0.0000000000000000e+00  -5.9957849947886813e-05 3.5446425398411511e-03 0.0000000000000000e+00  -4.4531274425440208e-05 3.5697896025554863e-03 0.0000000000000000e+00  -2.7818417459384075e-05 3.5947110287217099e-03 0.0000000000000000e+00  -1.0003463088810251e-05 3.6192527550340738e-03 0.0000000000000000e+00  8.6809088992656917e-06 3.6433606968881388e-03 0.0000000000000000e+00  2.8015528344567751e-05 3.6671705289543360e-03 0.0000000000000000e+00  4.7861192906879538e-05 3.6905645301896143e-03 0.0000000000000000e+00  6.7971937373619823e-05 3.7133121703963219e-03 0.0000000000000000e+00  8.7943459295521125e-05 3.7360238336313443e-03 0.0000000000000000e+00  1.0761958783437483e-04 3.7598073427252748e-03 0.0000000000000000e+00  1.2712811015176424e-04 3.7848371170897239e-03 0.0000000000000000e+00  1.4471386951511392e-04 3.8035983635177619e-03 0.0000000000000000e+00  1.5913268722631880e-04 3.8239823838834191e-03 0.0000000000000000e+00  1.5857415713494541e-04 3.8339338490046095e-03 0.0000000000000000e+00  1.5933199534413702e-04 3.8517979966358126e-03 0.0000000000000000e+00  1.6155465922919240e-04 3.8770471891373271e-03 0.0000000000000000e+00  1.6319964606007712e-04 3.9050850571733559e-03 0.0000000000000000e+00  1.6966936216072096e-04 4.0101867075153933e-03 0.0000000000000000e+00  1.7561887737024292e-04 4.1170594190266521e-03 0.0000000000000000e+00  -1.3055608328941645e-04 3.4281030718688360e-03 0.0000000000000000e+00  -1.3806477861028510e-04 3.4062427783282502e-03 0.0000000000000000e+00  -1.2157458763276909e-04 3.4503783084540462e-03 0.0000000000000000e+00  -1.1112180563670368e-04 3.4730503026561012e-03 0.0000000000000000e+00  -9.9218964691997872e-05 3.4960682889641314e-03 0.0000000000000000e+00  -8.5915887863382255e-05 3.5193533672976513e-03 0.0000000000000000e+00  -7.1298982905649254e-05 3.5428087769081183e-03 0.0000000000000000e+00  -5.5496468811488476e-05 3.5663344659315915e-03 0.0000000000000000e+00  -3.8679471001356305e-05 3.5898484599085228e-03 0.0000000000000000e+00  -2.1053122689848816e-05 3.6133281338075183e-03 0.0000000000000000e+00  -2.8252126390067435e-06 3.6368236277276524e-03 0.0000000000000000e+00  1.5812233117396511e-05 3.6602943395606324e-03 0.0000000000000000e+00  3.4609942253264522e-05 3.6837277097929305e-03 0.0000000000000000e+00  5.3278837455963951e-05 3.7074977344871015e-03 0.0000000000000000e+00  7.1689880392263944e-05 3.7320880522754758e-03 0.0000000000000000e+00  8.9890618267279151e-05 3.7572695273389747e-03 0.0000000000000000e+00  1.0748532374202885e-04 3.7805941485754618e-03 0.0000000000000000e+00  1.2334216531611927e-04 3.8052748861729557e-03 0.0000000000000000e+00  1.3843594617556849e-04 3.8335901487471426e-03 0.0000000000000000e+00  1.3786442282108708e-04 3.8519324080260771e-03 0.0000000000000000e+00  1.3792285500936025e-04 3.8769602439257100e-03 0.0000000000000000e+00  1.3908511266764166e-04 3.9057402994260664e-03 0.0000000000000000e+00  1.4057627358530182e-04 3.9384357965842470e-03 0.0000000000000000e+00  1.4748014538137650e-04 4.0479331424070966e-03 0.0000000000000000e+00  1.5489635972111565e-04 4.1632149203639319e-03 0.0000000000000000e+00  -1.5417267601362393e-04 3.4114524272208569e-03 0.0000000000000000e+00  -1.6117309545867414e-04 3.3918579371835450e-03 0.0000000000000000e+00  -1.4576935372784909e-04 3.4315193009581430e-03 0.0000000000000000e+00  -1.3597352966174787e-04 3.4520699004308882e-03 0.0000000000000000e+00  -1.2481496383770176e-04 3.4730925413228378e-03 0.0000000000000000e+00  -1.1234967412569579e-04 3.4945564567060525e-03 0.0000000000000000e+00  -9.8666056764740715e-05 3.5164194283379122e-03 0.0000000000000000e+00  -8.3888710976320725e-05 3.5386383710906562e-03 0.0000000000000000e+00  -6.8178208276158402e-05 3.5611835631349626e-03 0.0000000000000000e+00  -5.1723439410