<?xml version="1.0"?>
<VTKFile type="UnstructuredGrid"  version="0.1"  >
<UnstructuredGrid>
<Piece  NumberOfPoints="611" NumberOfCells="1123">
<Points>
<DataArray  type="Float64"  NumberOfComponents="3"  format="ascii">1.883478260869565 0.01666666666666667 0  1.9 0.01666666666666667 0  1.9 0.03333333333333333 0  1.883478260869565 0.03333333333333333 0  1.916521739130435 0.03333333333333333 0  1.9 0.05 0  1.883478260869565 0.05 0  1.916521739130435 0.05 0  1.933043478260869 0.05 0  1.9 0.06666666666666667 0  1.883478260869565 0.06666666666666667 0  1.916521739130435 0.06666666666666667 0  1.933043478260869 0.06666666666666667 0  1.949565217391304 0.06666666666666667 0  1.9 0.08333333333333333 0  1.883478260869565 0.08333333333333333 0  1.916521739130435 0.08333333333333333 0  1.933043478260869 0.08333333333333333 0  1.949565217391304 0.08333333333333333 0  1.966086956521739 0.08333333333333333 0  1.9 0.1 0  1.883478260869565 0.1 0  1.916521739130435 0.1 0  1.933043478260869 0.1 0  1.949565217391304 0.1 0  1.966086956521739 0.1 0  1.982608695652174 0.1 0  1.9 0.1166666666666667 0  1.883478260869565 0.1166666666666667 0  1.916521739130435 0.1166666666666667 0  1.933043478260869 0.1166666666666667 0  1.949565217391304 0.1166666666666667 0  1.966086956521739 0.1166666666666667 0  1.982608695652174 0.1166666666666667 0  1.999130434782608 0.1166666666666667 0  1.9 0.1333333333333333 0  1.883478260869565 0.1333333333333333 0  1.916521739130435 0.1333333333333333 0  1.933043478260869 0.1333333333333333 0  1.949565217391304 0.1333333333333333 0  1.966086956521739 0.1333333333333333 0  1.982608695652174 0.1333333333333333 0  1.999130434782608 0.1333333333333333 0  2.015652173913043 0.1166666666666667 0  2.015652173913043 0.1333333333333333 0  2.032173913043478 0.1166666666666667 0  2.032173913043478 0.1333333333333333 0  2.048695652173913 0.1166666666666667 0  2.048695652173913 0.1333333333333333 0  2.065217391304348 0.1166666666666667 0  2.065217391304348 0.1333333333333333 0  2.081739130434782 0.1166666666666667 0  2.081739130434782 0.1333333333333333 0  2.098260869565217 0.1333333333333333 0  1.9 0.15 0  1.883478260869565 0.15 0  1.916521739130435 0.15 0  1.933043478260869 0.15 0  1.949565217391304 0.15 0  1.966086956521739 0.15 0  1.982608695652174 0.15 0  1.999130434782608 0.15 0  2.015652173913043 0.15 0  2.032173913043478 0.15 0  2.048695652173913 0.15 0  2.065217391304348 0.15 0  2.081739130434782 0.15 0  2.098260869565217 0.15 0  2.114782608695652 0.15 0  1.9 0.1666666666666667 0  1.883478260869565 0.1666666666666667 0  1.916521739130435 0.1666666666666667 0  1.933043478260869 0.1666666666666667 0  1.949565217391304 0.1666666666666667 0  1.966086956521739 0.1666666666666667 0  1.982608695652174 0.1666666666666667 0  1.999130434782608 0.1666666666666667 0  2.015652173913043 0.1666666666666667 0  2.032173913043478 0.1666666666666667 0  2.048695652173913 0.1666666666666667 0  2.065217391304348 0.1666666666666667 0  2.081739130434782 0.1666666666666667 0  2.098260869565217 0.1666666666666667 0  2.114782608695652 0.1666666666666667 0  2.131304347826087 0.1666666666666667 0  1.9 0.1833333333333333 0  1.883478260869565 0.1833333333333333 0  1.916521739130435 0.1833333333333333 0  1.933043478260869 0.1833333333333333 0  1.949565217391304 0.1833333333333333 0  1.966086956521739 0.1833333333333333 0  1.982608695652174 0.1833333333333333 0  1.999130434782608 0.1833333333333333 0  2.015652173913043 0.1833333333333333 0  2.032173913043478 0.1833333333333333 0  2.048695652173913 0.1833333333333333 0  2.065217391304348 0.1833333333333333 0  2.081739130434782 0.1833333333333333 0  2.098260869565217 0.1833333333333333 0  2.114782608695652 0.1833333333333333 0  2.131304347826087 0.1833333333333333 0  2.147826086956522 0.1833333333333333 0  1.9 0.2 0  1.883478260869565 0.2 0  1.916521739130435 0.2 0  1.933043478260869 0.2 0  1.949565217391304 0.2 0  1.966086956521739 0.2 0  1.982608695652174 0.2 0  1.999130434782608 0.2 0  2.015652173913043 0.2 0  2.032173913043478 0.2 0  2.048695652173913 0.2 0  2.065217391304348 0.2 0  2.081739130434782 0.2 0  2.098260869565217 0.2 0  2.114782608695652 0.2 0  2.131304347826087 0.2 0  2.147826086956522 0.2 0  2.164347826086956 0.2 0  1.9 0.2166666666666667 0  1.883478260869565 0.2166666666666667 0  1.916521739130435 0.2166666666666667 0  1.933043478260869 0.2166666666666667 0  1.949565217391304 0.2166666666666667 0  1.966086956521739 0.2166666666666667 0  1.982608695652174 0.2166666666666667 0  1.999130434782608 0.2166666666666667 0  2.015652173913043 0.2166666666666667 0  2.032173913043478 0.2166666666666667 0  2.048695652173913 0.2166666666666667 0  2.065217391304348 0.2166666666666667 0  2.081739130434782 0.2166666666666667 0  2.098260869565217 0.2166666666666667 0  2.114782608695652 0.2166666666666667 0  2.131304347826087 0.2166666666666667 0  2.147826086956522 0.2166666666666667 0  2.164347826086956 0.2166666666666667 0  2.180869565217391 0.2166666666666667 0  1.9 0.2333333333333333 0  1.883478260869565 0.2333333333333333 0  1.916521739130435 0.2333333333333333 0  1.933043478260869 0.2333333333333333 0  1.949565217391304 0.2333333333333333 0  1.966086956521739 0.2333333333333333 0  1.982608695652174 0.2333333333333333 0  1.999130434782608 0.2333333333333333 0  2.015652173913043 0.2333333333333333 0  2.032173913043478 0.2333333333333333 0  2.048695652173913 0.2333333333333333 0  2.065217391304348 0.2333333333333333 0  2.081739130434782 0.2333333333333333 0  2.098260869565217 0.2333333333333333 0  2.114782608695652 0.2333333333333333 0  2.131304347826087 0.2333333333333333 0  2.147826086956522 0.2333333333333333 0  2.164347826086956 0.2333333333333333 0  2.180869565217391 0.2333333333333333 0  2.197391304347826 0.2333333333333333 0  1.9 0.25 0  1.916521739130435 0.25 0  1.933043478260869 0.25 0  1.949565217391304 0.25 0  1.966086956521739 0.25 0  1.982608695652174 0.25 0  1.999130434782608 0.25 0  2.015652173913043 0.25 0  2.032173913043478 0.25 0  2.048695652173913 0.25 0  2.065217391304348 0.25 0  2.081739130434782 0.25 0  2.098260869565217 0.25 0  2.114782608695652 0.25 0  2.131304347826087 0.25 0  2.147826086956522 0.25 0  2.164347826086956 0.25 0  2.180869565217391 0.25 0  2.197391304347826 0.25 0  2.213913043478261 0.25 0  1.916521739130435 0.2666666666666667 0  1.9 0.2666666666666667 0  1.933043478260869 0.2666666666666667 0  1.949565217391304 0.2666666666666667 0  1.966086956521739 0.2666666666666667 0  1.982608695652174 0.2666666666666667 0  1.999130434782608 0.2666666666666667 0  2.015652173913043 0.2666666666666667 0  2.032173913043478 0.2666666666666667 0  2.048695652173913 0.2666666666666667 0  2.065217391304348 0.2666666666666667 0  2.081739130434782 0.2666666666666667 0  2.098260869565217 0.2666666666666667 0  2.114782608695652 0.2666666666666667 0  2.131304347826087 0.2666666666666667 0  2.147826086956522 0.2666666666666667 0  2.164347826086956 0.2666666666666667 0  2.180869565217391 0.2666666666666667 0  2.197391304347826 0.2666666666666667 0  2.213913043478261 0.2666666666666667 0  2.230434782608695 0.25 0  2.230434782608695 0.2666666666666667 0  2.24695652173913 0.2666666666666667 0  1.916521739130435 0.2833333333333333 0  1.9 0.2833333333333333 0  1.933043478260869 0.2833333333333333 0  1.949565217391304 0.2833333333333333 0  1.966086956521739 0.2833333333333333 0  1.982608695652174 0.2833333333333333 0  1.999130434782608 0.2833333333333333 0  2.015652173913043 0.2833333333333333 0  2.032173913043478 0.2833333333333333 0  2.048695652173913 0.2833333333333333 0  2.065217391304348 0.2833333333333333 0  2.081739130434782 0.2833333333333333 0  2.098260869565217 0.2833333333333333 0  2.114782608695652 0.2833333333333333 0  2.131304347826087 0.2833333333333333 0  2.147826086956522 0.2833333333333333 0  2.164347826086956 0.2833333333333333 0  2.180869565217391 0.2833333333333333 0  2.197391304347826 0.2833333333333333 0  2.213913043478261 0.2833333333333333 0  2.230434782608695 0.2833333333333333 0  2.24695652173913 0.2833333333333333 0  2.263478260869565 0.2833333333333333 0  1.916521739130435 0.3 0  1.9 0.3 0  1.933043478260869 0.3 0  1.949565217391304 0.3 0  1.966086956521739 0.3 0  1.982608695652174 0.3 0  1.999130434782608 0.3 0  2.015652173913043 0.3 0  2.032173913043478 0.3 0  2.048695652173913 0.3 0  2.065217391304348 0.3 0  2.081739130434782 0.3 0  2.098260869565217 0.3 0  2.114782608695652 0.3 0  2.131304347826087 0.3 0  2.147826086956522 0.3 0  2.164347826086956 0.3 0  2.180869565217391 0.3 0  2.197391304347826 0.3 0  2.213913043478261 0.3 0  2.230434782608695 0.3 0  2.24695652173913 0.3 0  2.263478260869565 0.3 0  2.28 0.3 0  1.916521739130435 0.3166666666666667 0  1.9 0.3166666666666667 0  1.933043478260869 0.3166666666666667 0  1.949565217391304 0.3166666666666667 0  1.966086956521739 0.3166666666666667 0  1.982608695652174 0.3166666666666667 0  1.999130434782608 0.3166666666666667 0  2.015652173913043 0.3166666666666667 0  2.032173913043478 0.3166666666666667 0  2.048695652173913 0.3166666666666667 0  2.065217391304348 0.3166666666666667 0  2.081739130434782 0.3166666666666667 0  2.098260869565217 0.3166666666666667 0  2.114782608695652 0.3166666666666667 0  2.131304347826087 0.3166666666666667 0  2.147826086956522 0.3166666666666667 0  2.164347826086956 0.3166666666666667 0  2.180869565217391 0.3166666666666667 0  2.197391304347826 0.3166666666666667 0  2.213913043478261 0.3166666666666667 0  2.230434782608695 0.3166666666666667 0  2.24695652173913 0.3166666666666667 0  2.263478260869565 0.3166666666666667 0  2.28 0.3166666666666667 0  2.296521739130434 0.3166666666666667 0  1.916521739130435 0.3333333333333333 0  1.9 0.3333333333333333 0  1.933043478260869 0.3333333333333333 0  1.949565217391304 0.3333333333333333 0  1.966086956521739 0.3333333333333333 0  1.982608695652174 0.3333333333333333 0  1.999130434782608 0.3333333333333333 0  2.015652173913043 0.3333333333333333 0  2.032173913043478 0.3333333333333333 0  2.048695652173913 0.3333333333333333 0  2.06521739
[...]
<PointData  Vectors="Displacement"> 
<DataArray  type="Float64"  Name="Displacement"  NumberOfComponents="3" format="ascii">2.0550829401019515e-04 2.0389907014544471e-03 0.0000000000000000e+00  2.0613988367068796e-04 2.0615530042497727e-03 0.0000000000000000e+00  1.8453760759047085e-04 2.0613312939441147e-03 0.0000000000000000e+00  1.8255045154459172e-04 2.0387476803619821e-03 0.0000000000000000e+00  1.8595506323659098e-04 2.0825332860699109e-03 0.0000000000000000e+00  1.6443555674320660e-04 2.0609341847277305e-03 0.0000000000000000e+00  1.6075631333935711e-04 2.0378517358652657e-03 0.0000000000000000e+00  1.6642461063368116e-04 2.0823449512540559e-03 0.0000000000000000e+00  1.6779855040545974e-04 2.1024946507344428e-03 0.0000000000000000e+00  1.4585816032617764e-04 2.0580338745778020e-03 0.0000000000000000e+00  1.4273809584432851e-04 2.0337696281670682e-03 0.0000000000000000e+00  1.4799629226647652e-04 2.0820866130036994e-03 0.0000000000000000e+00  1.4991370337245541e-04 2.1026751549972390e-03 0.0000000000000000e+00  1.5064596008508108e-04 2.1219723865901329e-03 0.0000000000000000e+00  1.2900527227530651e-04 2.0552726387553961e-03 0.0000000000000000e+00  1.2623013225316761e-04 2.0307726149020626e-03 0.0000000000000000e+00  1.3150291032275766e-04 2.0794003073447533e-03 0.0000000000000000e+00  1.3341228231162895e-04 2.1018060150763077e-03 0.0000000000000000e+00  1.3348765329633601e-04 2.1226163106651996e-03 0.0000000000000000e+00  1.3374712402774294e-04 2.1410840284870614e-03 0.0000000000000000e+00  1.1258291558387223e-04 2.0527665757200330e-03 0.0000000000000000e+00  1.1012430688027525e-04 2.0283233613355052e-03 0.0000000000000000e+00  1.1504316026265387e-04 2.0770703837200049e-03 0.0000000000000000e+00  1.1728064712334664e-04 2.1011523118964971e-03 0.0000000000000000e+00  1.1804162792815066e-04 2.1255596085129080e-03 0.0000000000000000e+00  1.1755974698126121e-04 2.1421502666443726e-03 0.0000000000000000e+00  1.1759524683713731e-04 2.1588340879248468e-03 0.0000000000000000e+00  9.6167219777950792e-05 2.0505143777710521e-03 0.0000000000000000e+00  9.4068211528021900e-05 2.0262215296435859e-03 0.0000000000000000e+00  9.8328817531800962e-05 2.0748633792427099e-03 0.0000000000000000e+00  1.0046273977871119e-04 2.0996992694799245e-03 0.0000000000000000e+00  1.0294803851429035e-04 2.1275953378172498e-03 0.0000000000000000e+00  1.0267432872867304e-04 2.1435775124034554e-03 0.0000000000000000e+00  1.0243418493983291e-04 2.1593444837007389e-03 0.0000000000000000e+00  1.0247140787183899e-04 2.1751991536571222e-03 0.0000000000000000e+00  7.9901680432737748e-05 2.0484386632495469e-03 0.0000000000000000e+00  7.8118748910008511e-05 2.0244084796347500e-03 0.0000000000000000e+00  8.1839645042361891e-05 2.0725981707175266e-03 0.0000000000000000e+00  8.3950889160531805e-05 2.0972479416916990e-03 0.0000000000000000e+00  8.6405774576436394e-05 2.1230183301175322e-03 0.0000000000000000e+00  8.7955945804451868e-05 2.1444581139682113e-03 0.0000000000000000e+00  8.7855080349109261e-05 2.1599218507365628e-03 0.0000000000000000e+00  8.7879128760860051e-05 2.1752706216966724e-03 0.0000000000000000e+00  1.0261958642308606e-04 2.1906690967159765e-03 0.0000000000000000e+00  8.8035083400443635e-05 2.1903712949144136e-03 0.0000000000000000e+00  1.0276574923617260e-04 2.2051913642810229e-03 0.0000000000000000e+00  8.8194512847547188e-05 2.2048493503849785e-03 0.0000000000000000e+00  1.0274168577700511e-04 2.2224891897504595e-03 0.0000000000000000e+00  8.8253462006109202e-05 2.2188402546474005e-03 0.0000000000000000e+00  1.0306409042220895e-04 2.2409570721917721e-03 0.0000000000000000e+00  8.8333422621157765e-05 2.2368575529617112e-03 0.0000000000000000e+00  1.0335352238882446e-04 2.2601522435888124e-03 0.0000000000000000e+00  8.8461096186717220e-05 2.2556531030552161e-03 0.0000000000000000e+00  8.8684622940455994e-05 2.2750722618540054e-03 0.0000000000000000e+00  6.3807144395721977e-05 2.0464966667266631e-03 0.0000000000000000e+00  6.2305886498050241e-05 2.0228371060100189e-03 0.0000000000000000e+00  6.5531084214186480e-05 2.0702776928594093e-03 0.0000000000000000e+00  6.7532457021974291e-05 2.0944108577436197e-03 0.0000000000000000e+00  7.0021154009170487e-05 2.1192314894816254e-03 0.0000000000000000e+00  7.3647399868728158e-05 2.1453843185673506e-03 0.0000000000000000e+00  7.3563892936255807e-05 2.1604573942983971e-03 0.0000000000000000e+00  7.3649511709947052e-05 2.1754202470673036e-03 0.0000000000000000e+00  7.3837781022374017e-05 2.1902644173571678e-03 0.0000000000000000e+00  7.4053020949993114e-05 2.2047144807984570e-03 0.0000000000000000e+00  7.4187512536727211e-05 2.2187722745001595e-03 0.0000000000000000e+00  7.4264054749452441e-05 2.2326326735496722e-03 0.0000000000000000e+00  7.4216935591674902e-05 2.2510735729850675e-03 0.0000000000000000e+00  7.4208082540396818e-05 2.2699540837397589e-03 0.0000000000000000e+00  7.4750974775267951e-05 2.2888805519589829e-03 0.0000000000000000e+00  4.7892483978140572e-05 2.0446811289317247e-03 0.0000000000000000e+00  4.6641704776078443e-05 2.0214682648388824e-03 0.0000000000000000e+00  4.9397625424450850e-05 2.0679775309912374e-03 0.0000000000000000e+00  5.1194555039626230e-05 2.0914725885939514e-03 0.0000000000000000e+00  5.3396081973492002e-05 2.1152509032117068e-03 0.0000000000000000e+00  5.6212155321701345e-05 2.1391424316171245e-03 0.0000000000000000e+00  5.9563382671681417e-05 2.1608709602777645e-03 0.0000000000000000e+00  5.9653797480235446e-05 2.1755796621594288e-03 0.0000000000000000e+00  5.9871933413584825e-05 2.1902647068569735e-03 0.0000000000000000e+00  6.0135907527539330e-05 2.2046582798142932e-03 0.0000000000000000e+00  6.0378734674379441e-05 2.2187649482382226e-03 0.0000000000000000e+00  6.0552545115037621e-05 2.2326821970914440e-03 0.0000000000000000e+00  6.0726134967272643e-05 2.2465339450210720e-03 0.0000000000000000e+00  6.0326309936889377e-05 2.2649005867529225e-03 0.0000000000000000e+00  6.0862034656814657e-05 2.2820977337396292e-03 0.0000000000000000e+00  6.1546747643890452e-05 2.3026241862009011e-03 0.0000000000000000e+00  3.2195704118599532e-05 2.0429780717322447e-03 0.0000000000000000e+00  3.1144429246017818e-05 2.0202628228562268e-03 0.0000000000000000e+00  3.3531074015298137e-05 2.0657318507662087e-03 0.0000000000000000e+00  3.5182467370507018e-05 2.0885597003402114e-03 0.0000000000000000e+00  3.7224877585421367e-05 2.1114232046405210e-03 0.0000000000000000e+00  3.9757241140380354e-05 2.1340392736304854e-03 0.0000000000000000e+00  4.2722051851630596e-05 2.1554263863933876e-03 0.0000000000000000e+00  4.5633215346608338e-05 2.1756795657598116e-03 0.0000000000000000e+00  4.5985058073776935e-05 2.1903188844616113e-03 0.0000000000000000e+00  4.6354744628997463e-05 2.2046536403635656e-03 0.0000000000000000e+00  4.6686711102488505e-05 2.2187451754251538e-03 0.0000000000000000e+00  4.6981811565677477e-05 2.2327063301448478e-03 0.0000000000000000e+00  4.7254486061639239e-05 2.2466072818761811e-03 0.0000000000000000e+00  4.7536800765017568e-05 2.2605098318854034e-03 0.0000000000000000e+00  4.7676245538635718e-05 2.2742915755961644e-03 0.0000000000000000e+00  4.8035315504442040e-05 2.2953930561848972e-03 0.0000000000000000e+00  4.8340470437563377e-05 2.3165527777037078e-03 0.0000000000000000e+00  1.6705721853657872e-05 2.0413733029170009e-03 0.0000000000000000e+00  1.5810485912207446e-05 2.0191872961134445e-03 0.0000000000000000e+00  1.7908402004252131e-05 2.0635562404172970e-03 0.0000000000000000e+00  1.9445380842342323e-05 2.0857243528328282e-03 0.0000000000000000e+00  2.1365912017479895e-05 2.1077940993750885e-03 0.0000000000000000e+00  2.3716795401330844e-05 2.1295266580333406e-03 0.0000000000000000e+00  2.6453750505050233e-05 2.1504632749757054e-03 0.0000000000000000e+00  2.9376127170854903e-05 2.1706491643929690e-03 0.0000000000000000e+00  3.2424903219548463e-05 2.1904145083127351e-03 0.0000000000000000e+00  3.2808504475886624e-05 2.2047048459478201e-03 0.0000000000000000e+00  3.3115463099746495e-05 2.2187350061192430e-03 0.0000000000000000e+00  3.3425305593731831e-05 2.2327025164724850e-03 0.0000000000000000e+00  3.3721197210272077e-05 2.2466133905984704e-03 0.0000000000000000e+00  3.4008326773849282e-05 2.2605137289732893e-03 0.0000000000000000e+00  3.4273611893641694e-05 2.2744007235194750e-03 0.0000000000000000e+00  3.4603344289618252e-05 2.2884214726390153e-03 0.0000000000000000e+00  3.4401145544873223e-05 2.3090903766617853e-03 0.0000000000000000e+00  3.5558741817886592e-05 2.3280096290610197e-03 0.0000000000000000e+00  1.3883639481947888e-06 2.0398612690194391e-03 0.0000000000000000e+00  6.2219701201514221e-07 2.0182191140179764e-03 0.0000000000000000e+00  2.4737257635790331e-06 2.0614682835205203e-03 0.0000000000000000e+00  3.8971348594561161e-06 2.0830052462656734e-03 0.0000000000000000e+00  5.6854985237807711e-06 2.1043824643628526e-03 0.0000000000000000e+00  7.8526055872829438e-06 2.1254248047099696e-03 0.0000000000000000e+00  1.0355368676969765e-05 2.1458975918107982e-03 0.0000000000000000e+00  1.3083728623252284e-05 2.1658017180327558e-03 0.0000000000000000e+00  1.6003255105171588e-05 2.1852861350796994e-03 0.0000000000000000e+00  1.9344257057240125e-05 2.2047813147387089e-03 0.0000000000000000e+00  1.9603298319247647e-05 2.2187528131666621e-03 0.0000000000000000e+00  1.9918232795305553e-05 2.2327137691980567e-03 0.0000000000000000e+00  2.0212026535545692e-05 2.2466112414992545e-03 0.0000000000000000e+00  2.0511266651789313e-05 2.2605041524606548e-03 0.0000000000000000e+00  2.0829575658467268e-05 2.2744345841094614e-03 0.0000000000000000e+00  2.1182360820443393e-05 2.2884857477377266e-03 0.0000000000000000e+00  2.1569405604674071e-05 2.3027254193723019e-03 0.0000000000000000e+00  2.1740744793928187e-05 2.3169037967456555e-03 0.0000000000000000e+00  2.3038919394417632e-05 2.3415609395162607e-03 0.0000000000000000e+00  -1.3787984228468054e-05 2.0384428616251195e-03 0.0000000000000000e+00  -1.4438859000429811e-05 2.0173456167426355e-03 0.0000000000000000e+00  -1.2816973041970803e-05 2.0594844878502124e-03 0.0000000000000000e+00  -1.1515590827709838e-05 2.0804279731863017e-03 0.0000000000000000e+00  -9.8741574842437962e-06 2.1011937531437434e-03 0.0000000000000000e+00  -7.8991451911621022e-06 2.1216589446559670e-03 0.0000000000000000e+00  -5.6354555979285703e-06 2.1416913037087763e-03 0.0000000000000000e+00  -3.1664297402905558e-06 2.1612673974057209e-03 0.0000000000000000e+00  -5.5985487322292586e-07 2.1804114096803332e-03 0.0000000000000000e+00  2.1432408490743669e-06 2.1990500876903274e-03 0.0000000000000000e+00  4.6016775081641927e-06 2.2156742908645004e-03 0.0000000000000000e+00  6.4772274987105421e-06 2.2327575561357968e-03 0.0000000000000000e+00  6.7304046284430019e-06 2.2466346117001636e-03 0.0000000000000000e+00  6.9602961820350180e-06 2.2604968861739852e-03 0.0000000000000000e+00  7.2214726045203861e-06 2.2744307354975271e-03 0.0000000000000000e+00  7.5109523295365953e-06 2.2884977280990064e-03 0.0000000000000000e+00  7.8252374306622439e-06 2.3027334682245632e-03 0.0000000000000000e+00  8.1323873105190035e-06 2.3170708992844816e-03 0.0000000000000000e+00  8.4433498151029815e-06 2.3316317873524344e-03 0.0000000000000000e+00  9.4943870383399193e-06 2.3565580390936692e-03 0.0000000000000000e+00  -2.8843579965999326e-05 2.0371208847292559e-03 0.0000000000000000e+00  -2.7988242875019572e-05 2.0576155565960284e-03 0.0000000000000000e+00  -2.6815216801277878e-05 2.0780028367547733e-03 0.0000000000000000e+00  -2.5324719626479863e-05 2.0982174535994170e-03 0.0000000000000000e+00  -2.3530548980789061e-05 2.1181730795502749e-03 0.0000000000000000e+00  -2.1469620002934159e-05 2.1377865717314712e-03 0.0000000000000000e+00  -1.9196841621945310e-05 2.1570236584114518e-03 0.0000000000000000e+00  -1.6758114159546963e-05 2.1758589196920887e-03 0.0000000000000000e+00  -1.4189168813143120e-05 2.1941807703381353e-03 0.0000000000000000e+00  -1.1615069625262988e-05 2.2115362188939018e-03 0.0000000000000000e+00  -9.2579929827407848e-06 2.2289483318004778e-03 0.0000000000000000e+00  -6.7603055119834261e-06 2.2467162227065617e-03 0.0000000000000000e+00  -6.6221914769388842e-06 2.2605250111400010e-03 0.0000000000000000e+00  -6.4699264600729545e-06 2.2744260594224348e-03 0.0000000000000000e+00  -6.2561682400417667e-06 2.2884869574816605e-03 0.0000000000000000e+00  -5.9822563708066492e-06 2.3027272047717292e-03 0.0000000000000000e+00  -5.6568369395101578e-06 2.3171562410649413e-03 0.0000000000000000e+00  -5.3126257960836120e-06 2.3318040946214880e-03 0.0000000000000000e+00  -4.8968288278888873e-06 2.3468794971130656e-03 0.0000000000000000e+00  -4.4230708244044067e-06 2.3715302292909974e-03 0.0000000000000000e+00  -4.3053297278127336e-05 2.0558671890933255e-03 0.0000000000000000e+00  -4.3788959967878269e-05 2.0358981420777376e-03 0.0000000000000000e+00  -4.2014893553830349e-05 2.0757315033484683e-03 0.0000000000000000e+00  -4.0679095906421640e-05 2.0954393245647723e-03 0.0000000000000000e+00  -3.9061580877650868e-05 2.1149287321441013e-03 0.0000000000000000e+00  -3.7192133078500096e-05 2.1341422244312582e-03 0.0000000000000000e+00  -3.5110333979031152e-05 2.1530439353319728e-03 0.0000000000000000e+00  -3.2854089303860287e-05 2.1715979563388123e-03 0.0000000000000000e+00  -3.0464635955716689e-05 2.1897313327891590e-03 0.0000000000000000e+00  -2.8025992733160257e-05 2.2073311006828387e-03 0.0000000000000000e+00  -2.5642280398395433e-05 2.2248643277876325e-03 0.0000000000000000e+00  -2.3168498012070492e-05 2.2425250324304832e-03 0.0000000000000000e+00  -2.0349033503549291e-05 2.2605848317909728e-03 0.0000000000000000e+00  -2.0284914366101485e-05 2.2744388926640635e-03 0.0000000000000000e+00  -2.0176913584610440e-05 2.2884693997210228e-03 0.0000000000000000e+00  -1.9989328038041566e-05 2.3026866753012515e-03 0.0000000000000000e+00  -1.9713252783826090e-05 2.3171542655525098e-03 0.0000000000000000e+00  -1.9349377430983813e-05 2.3319203626809121e-03 0.0000000000000000e+00  -1.8862053173078343e-05 2.3471180430483561e-03 0.0000000000000000e+00  -1.8254551775705376e-05 2.3628904218051215e-03 0.0000000000000000e+00  -2.4725533910159486e-06 2.3939275251433556e-03 0.0000000000000000e+00  -1.7606871784984541e-05 2.3800211049886631e-03 0.0000000000000000e+00  -1.5523185577703470e-05 2.4085676769504032e-03 0.0000000000000000e+00  -5.8017192474750355e-05 2.0542424817878661e-03 0.0000000000000000e+00  -5.8626710030009008e-05 2.0347772621600270e-03 0.0000000000000000e+00  -5.7121344872870141e-05 2.0736129011628807e-03 0.0000000000000000e+00  -5.5947219869220058e-05 2.0928483150731009e-03 0.0000000000000000e+00  -5.4510891083223300e-05 2.1119036705936887e-03 0.0000000000000000e+00  -5.2838130811951160e-05 2.1307374221104063e-03 0.0000000000000000e+00  -5.0962140805639735e-05 2.1493184598882788e-03 0.0000000000000000e+00  -4.8919545276104675e-05 2.1676169972454297e-03 0.0000000000000000e+00  -4.6754879544349204e-05 2.1855969908445455e-03 0.0000000000000000e+00  -4.4533823168254259e-05 2.2032507538375669e-03 0.0000000000000000e+00  -4.2319014857910007e-05 2.2208031034000489e-03 0.0000000000000000e+00  -4.0069345222054101e-05 2.2383615140221485e-03 0.0000000000000000e+00  -3.7714098190159405e-05 2.2559717771848532e-03 0.0000000000000000e+00  -3.5249274687241283e-05 2.2731713121051365e-03 0.0000000000000000e+00  -3.4305542126395571e-05 2.2884727557840804e-03 0.0000000000000000e+00  -3.4248759458118878e-05 2.3026434639991009e-03 0.0000000000000000e+00  -3.4132771346583839e-05 2.3171176032500992e-03 0.0000000000000000e+00  -3.3919527243386935e-05 2.3319414213129092e-03 0.0000000000000000e+00  -3.3606655474962207e-05 2.3471790619993141e-03 0.0000000000000000e+00  -3.3190633173660935e-05 2.3629129892583545e-03 0.0000000000000000e+00  -3.2680491263336182e-05 2.3790455678542638e-03 0.0000000000000000e+00  -3.2120060371782115e-05 2.3957076735713367e-03 0.0000000000000000e+00  -3.0251617672300130e-05 2.4254470330567529e-03 0.0000000000000000e+00  -7.2877469116108671e-05 2.0527434192102274e-03 0.0000000000000000e+00  -7.3352344697260127e-05 2.0337608520170276e-03 0.0000000000000000e+00  -7.2133718486755587e-05 2.0716454792531294e-03 0.0000000000000000e+00  -7.1130547458280347e-05 2.0904365612453100e-03 0.0000000000000000e+00  -6.9883969305213766e-05 2.1090841328382866e-03 0.0000000000000000e+00  -6.8417535830354607e-05 2.1275584895172357e-03 0.0000000000000000e+00  -6.6761411429621864e-05 2.1458361792713221e-03 0.0000000000000000e+00  -6.4950938516487947e-05 2.1638974542240405e-03 0.0000000000000000e+00  -6.3028246671421780e-05 2.1817285622024022e-03 0.0000000000000000e+00  -6.1043621023987177e-05 2.1993477689432844e-03 0.0000000000000000e+00  -5.9036934621383557e-05 2.2168670443931220e-03 0.0000000000000000e+00  -5.6997685027339442e-05 2.2343417009052994e-03 0.0000000000000000e+00  -5.4899464057163421e-05 2.2517614052128252e-03 0.0000000000000000e+00  -5.2753521183442955e-05 2.2688985566249346e-03 0.0000000000000000e+00  -5.0752370188523523e-05 2.2854651070071397e-03 0.0000000000000000e+00  -4.8851733100582203e-05 2.3026385702717435e-03 0.0000000000000000e+00  -4.8879027183926087e-05 2.3170808811153079e-03 0.0000000000000000e+00  -4.8860915468458320e-05 2.3319294150628920e-03 0.0000000000000000e+00  -4.8719425308473362e-05 2.3471778516344125e-03 0.0000000000000000e+00  -4.8447826296077119e-05 2.3629265802977435e-03 0.0000000000000000e+00  -4.8037153287176437e-05 2.3791478174190967e-03 0.0000000000000000e+00  -4.7479992768704813e-05 2.3959210948218592e-03 0.0000000000000000e+00  -4.6822038963518088e-05 2.4133868127928573e-03 0.0000000000000000e+00  -4.5996906272805510e-05 2.4421276771787338e-03 0.0000000000000000e+00  -8.7624834748560408e-05 2.0513715595651292e-03 0.0000000000000000e+00  -8.7955060729527060e-05 2.0328516080689966e-03 0.0000000000000000e+00  -8.7043856721657307e-05 2.0698277611417341e-03 0.0000000000000000e+00  -8.6222117320637270e-05 2.0881980383983174e-03 0.0000000000000000e+00  -8.5175192475265635e-05 2.1064598251604454e-03 0.0000000000000000e+00  -8.3925012637473459e-05 2.1245931932186730e-03 0.0000000000000000e+00  -8.2499605780584370e-05 2.1425829355484600e-03 0.0000000000000000e+00  -8.0932155546665179e-05 2.1604182800878408e-03 0.0000000000000000e+00  -7.9260037075272333e-05 2.1780960755128464e-03 0.0000000000000000e+00  -7.7521499726545699e-05 2.1956347418028615e-03 0.0000000000000000e+00  -7.5743150436078060e-05 2.2130897638657481e-03 0.0000000000000000e+00  -7.3923807012351290e-05 2.2304870115967359e-03 0.0000000000000000e+00  -7.2051609543729244e-05 2.2478093416590261e-03 0.0000000000000000e+00  -7.0131578139592796e-05 2.2649590893044557e-03 0.0000000000000000e+00  -6.8225266487234479e-05 2.2819012745713759e-03 0.0000000000000000e+00  -6.6340700490553521e-05 2.2991393739470963e-03 0.0000000000000000e+00  -6.4120916711262702e-05 2.3170249780750619e-03 0.0000000000000000e+00  -6.4174269370616564e-05 2.3319207756225878e-03 0.0000000000000000e+00  -6.4250078231455104e-05 2.3471369175542003e-03 0.0000000000000000e+00  -6.4197141868178577e-05 2.3628974769946973e-03 0.0000000000000000e+00  -6.3994995218034350e-05 2.3791734871559988e-03 0.0000000000000000e+00  -6.3671100549338083e-05 2.3960141127223381e-03 0.0000000000000000e+00  -6.3259862286489890e-05 2.4134661708997938e-03 0.0000000000000000e+00  -6.2806807872701931e-05 2.4314392312004855e-03 0.0000000000000000e+00  -6.2495895848824868e-05 2.4496972200435257e-03 0.0000000000000000e+00  -1.0224413015578752e-04 2.0501284166593351e-03 0.0000000000000000e+00  -1.0241856645596828e-04 2.0320524152087700e-03 0.0000000000000000e+00  -1.0183746164142159e-04 2.0681585660334515e-03 0.0000000000000000e+00  -1.0120842138118237e-04 2.0861278671399338e-03 0.0000000000000000e+00  -1.0037171764918233e-04 2.1040221333594143e-03 0.0000000000000000e+00  -9.9347735611949808e-05 2.1218300504581887e-03 0.0000000000000000e+00  -9.8162793927427937e-05 2.1395445115123127e-03 0.0000000000000000e+00  -9.6848159132672797e-05 2.1571619449688908e-03 0.0000000000000000e+00  -9.5