<?xml version="1.0"?>
<VTKFile type="UnstructuredGrid"  version="0.1"  >
<UnstructuredGrid>
<Piece  NumberOfPoints="650" NumberOfCells="1199">
<Points>
<DataArray  type="Float64"  NumberOfComponents="3"  format="ascii">3.238260869565217 0 0  3.254782608695652 0 0  3.254782608695652 0.01666666666666667 0  3.238260869565217 0.01666666666666667 0  3.271304347826087 0 0  3.271304347826087 0.01666666666666667 0  3.287826086956521 0 0  3.287826086956521 0.01666666666666667 0  3.304347826086957 0 0  3.304347826086957 0.01666666666666667 0  3.320869565217391 0 0  3.320869565217391 0.01666666666666667 0  3.337391304347826 0 0  3.337391304347826 0.01666666666666667 0  3.353913043478261 0 0  3.353913043478261 0.01666666666666667 0  3.370434782608696 0 0  3.370434782608696 0.01666666666666667 0  3.386956521739131 0 0  3.386956521739131 0.01666666666666667 0  3.403478260869565 0 0  3.403478260869565 0.01666666666666667 0  3.419999999999999 0 0  3.419999999999999 0.01666666666666667 0  3.436521739130435 0 0  3.436521739130435 0.01666666666666667 0  3.453043478260869 0 0  3.453043478260869 0.01666666666666667 0  3.469565217391304 0 0  3.469565217391304 0.01666666666666667 0  3.486086956521739 0 0  3.486086956521739 0.01666666666666667 0  3.502608695652174 0 0  3.502608695652174 0.01666666666666667 0  3.519130434782609 0 0  3.519130434782609 0.01666666666666667 0  3.535652173913043 0 0  3.535652173913043 0.01666666666666667 0  3.552173913043478 0 0  3.552173913043478 0.01666666666666667 0  3.568695652173913 0 0  3.568695652173913 0.01666666666666667 0  3.585217391304347 0 0  3.585217391304347 0.01666666666666667 0  3.601739130434782 0 0  3.601739130434782 0.01666666666666667 0  3.618260869565217 0 0  3.618260869565217 0.01666666666666667 0  3.634782608695652 0 0  3.634782608695652 0.01666666666666667 0  3.651304347826087 0 0  3.651304347826087 0.01666666666666667 0  3.667826086956521 0 0  3.667826086956521 0.01666666666666667 0  3.684347826086956 0 0  3.684347826086956 0.01666666666666667 0  3.700869565217391 0 0  3.700869565217391 0.01666666666666667 0  3.717391304347826 0 0  3.717391304347826 0.01666666666666667 0  3.733913043478261 0 0  3.733913043478261 0.01666666666666667 0  3.750434782608695 0 0  3.750434782608695 0.01666666666666667 0  3.766956521739131 0 0  3.766956521739131 0.01666666666666667 0  3.783478260869565 0 0  3.783478260869565 0.01666666666666667 0  3.8 0 0  3.8 0.01666666666666667 0  3.254782608695652 0.03333333333333333 0  3.271304347826087 0.03333333333333333 0  3.287826086956521 0.03333333333333333 0  3.304347826086957 0.03333333333333333 0  3.320869565217391 0.03333333333333333 0  3.337391304347826 0.03333333333333333 0  3.353913043478261 0.03333333333333333 0  3.370434782608696 0.03333333333333333 0  3.386956521739131 0.03333333333333333 0  3.403478260869565 0.03333333333333333 0  3.419999999999999 0.03333333333333333 0  3.436521739130435 0.03333333333333333 0  3.453043478260869 0.03333333333333333 0  3.469565217391304 0.03333333333333333 0  3.486086956521739 0.03333333333333333 0  3.502608695652174 0.03333333333333333 0  3.519130434782609 0.03333333333333333 0  3.535652173913043 0.03333333333333333 0  3.552173913043478 0.03333333333333333 0  3.568695652173913 0.03333333333333333 0  3.585217391304347 0.03333333333333333 0  3.601739130434782 0.03333333333333333 0  3.618260869565217 0.03333333333333333 0  3.634782608695652 0.03333333333333333 0  3.651304347826087 0.03333333333333333 0  3.667826086956521 0.03333333333333333 0  3.684347826086956 0.03333333333333333 0  3.700869565217391 0.03333333333333333 0  3.717391304347826 0.03333333333333333 0  3.733913043478261 0.03333333333333333 0  3.750434782608695 0.03333333333333333 0  3.766956521739131 0.03333333333333333 0  3.783478260869565 0.03333333333333333 0  3.8 0.03333333333333333 0  3.271304347826087 0.05 0  3.287826086956521 0.05 0  3.304347826086957 0.05 0  3.320869565217391 0.05 0  3.337391304347826 0.05 0  3.353913043478261 0.05 0  3.370434782608696 0.05 0  3.386956521739131 0.05 0  3.403478260869565 0.05 0  3.419999999999999 0.05 0  3.436521739130435 0.05 0  3.453043478260869 0.05 0  3.469565217391304 0.05 0  3.486086956521739 0.05 0  3.502608695652174 0.05 0  3.519130434782609 0.05 0  3.535652173913043 0.05 0  3.552173913043478 0.05 0  3.568695652173913 0.05 0  3.585217391304347 0.05 0  3.601739130434782 0.05 0  3.618260869565217 0.05 0  3.634782608695652 0.05 0  3.651304347826087 0.05 0  3.667826086956521 0.05 0  3.684347826086956 0.05 0  3.700869565217391 0.05 0  3.717391304347826 0.05 0  3.733913043478261 0.05 0  3.750434782608695 0.05 0  3.766956521739131 0.05 0  3.783478260869565 0.05 0  3.8 0.05 0  3.287826086956521 0.06666666666666667 0  3.304347826086957 0.06666666666666667 0  3.320869565217391 0.06666666666666667 0  3.337391304347826 0.06666666666666667 0  3.353913043478261 0.06666666666666667 0  3.370434782608696 0.06666666666666667 0  3.386956521739131 0.06666666666666667 0  3.403478260869565 0.06666666666666667 0  3.419999999999999 0.06666666666666667 0  3.436521739130435 0.06666666666666667 0  3.453043478260869 0.06666666666666667 0  3.469565217391304 0.06666666666666667 0  3.486086956521739 0.06666666666666667 0  3.502608695652174 0.06666666666666667 0  3.519130434782609 0.06666666666666667 0  3.535652173913043 0.06666666666666667 0  3.552173913043478 0.06666666666666667 0  3.568695652173913 0.06666666666666667 0  3.585217391304347 0.06666666666666667 0  3.601739130434782 0.06666666666666667 0  3.618260869565217 0.06666666666666667 0  3.634782608695652 0.06666666666666667 0  3.651304347826087 0.06666666666666667 0  3.667826086956521 0.06666666666666667 0  3.684347826086956 0.06666666666666667 0  3.700869565217391 0.06666666666666667 0  3.717391304347826 0.06666666666666667 0  3.733913043478261 0.06666666666666667 0  3.750434782608695 0.06666666666666667 0  3.766956521739131 0.06666666666666667 0  3.783478260869565 0.06666666666666667 0  3.8 0.06666666666666667 0  3.304347826086957 0.08333333333333333 0  3.320869565217391 0.08333333333333333 0  3.337391304347826 0.08333333333333333 0  3.353913043478261 0.08333333333333333 0  3.370434782608696 0.08333333333333333 0  3.386956521739131 0.08333333333333333 0  3.403478260869565 0.08333333333333333 0  3.419999999999999 0.08333333333333333 0  3.436521739130435 0.08333333333333333 0  3.453043478260869 0.08333333333333333 0  3.469565217391304 0.08333333333333333 0  3.486086956521739 0.08333333333333333 0  3.502608695652174 0.08333333333333333 0  3.519130434782609 0.08333333333333333 0  3.535652173913043 0.08333333333333333 0  3.552173913043478 0.08333333333333333 0  3.568695652173913 0.08333333333333333 0  3.585217391304347 0.08333333333333333 0  3.601739130434782 0.08333333333333333 0  3.618260869565217 0.08333333333333333 0  3.634782608695652 0.08333333333333333 0  3.651304347826087 0.08333333333333333 0  3.667826086956521 0.08333333333333333 0  3.684347826086956 0.08333333333333333 0  3.700869565217391 0.08333333333333333 0  3.717391304347826 0.08333333333333333 0  3.733913043478261 0.08333333333333333 0  3.750434782608695 0.08333333333333333 0  3.766956521739131 0.08333333333333333 0  3.783478260869565 0.08333333333333333 0  3.8 0.08333333333333333 0  3.320869565217391 0.1 0  3.337391304347826 0.1 0  3.353913043478261 0.1 0  3.370434782608696 0.1 0  3.386956521739131 0.1 0  3.403478260869565 0.1 0  3.419999999999999 0.1 0  3.436521739130435 0.1 0  3.453043478260869 0.1 0  3.469565217391304 0.1 0  3.486086956521739 0.1 0  3.502608695652174 0.1 0  3.519130434782609 0.1 0  3.535652173913043 0.1 0  3.552173913043478 0.1 0  3.568695652173913 0.1 0  3.585217391304347 0.1 0  3.601739130434782 0.1 0  3.618260869565217 0.1 0  3.634782608695652 0.1 0  3.651304347826087 0.1 0  3.667826086956521 0.1 0  3.684347826086956 0.1 0  3.700869565217391 0.1 0  3.717391304347826 0.1 0  3.733913043478261 0.1 0  3.750434782608695 0.1 0  3.766956521739131 0.1 0  3.783478260869565 0.1 0  3.8 0.1 0  3.337391304347826 0.1166666666666667 0  3.353913043478261 0.1166666666666667 0  3.370434782608696 0.1166666666666667 0  3.386956521739131 0.1166666666666667 0  3.403478260869565 0.1166666666666667 0  3.419999999999999 0.1166666666666667 0  3.436521739130435 0.1166666666666667 0  3.453043478260869 0.1166666666666667 0  3.469565217391304 0.1166666666666667 0  3.486086956521739 0.1166666666666667 0  3.502608695652174 0.1166666666666667 0  3.519130434782609 0.1166666666666667 0  3.535652173913043 0.1166666666666667 0  3.552173913043478 0.1166666666666667 0  3.568695652173913 0.1166666666666667 0  3.585217391304347 0.1166666666666667 0  3.601739130434782 0.1166666666666667 0  3.618260869565217 0.1166666666666667 0  3.634782608695652 0.1166666666666667 0  3.651304347826087 0.1166666666666667 0  3.667826086956521 0.1166666666666667 0  3.684347826086956 0.1166666666666667 0  3.700869565217391 0.1166666666666667 0  3.717391304347826 0.1166666666666667 0  3.733913043478261 0.1166666666666667 0  3.750434782608695 0.1166666666666667 0  3.766956521739131 0.1166666666666667 0  3.783478260869565 0.1166666666666667 0  3.8 0.1166666666666667 0  3.353913043478261 0.1333333333333333 0  3.370434782608696 0.1333333333333333 0  3.386956521739131 0.1333333333333333 0  3.403478260869565 0.1333333333333333 0  3.419999999999999 0.1333333333333333 0  3.436521739130435 0.1333333333333333 0  3.453043478260869 0.1333333333333333 0  3.469565217391304 0.1333333333333333 0  3.486086956521739 0.1333333333333333 0  3.502608695652174 0.1333333333333333 0  3.519130434782609 0.1333333333333333 0  3.535652173913043 0.1333333333333333 0  3.552173913043478 0.1333333333333333 0  3.568695652173913 0.1333333333333333 0  3.585217391304347 0.1333333333333333 0  3.601739130434782 0.1333333333333333 0  3.618260869565217 0.1333333333333333 0  3.634782608695652 0.1333333333333333 0  3.651304347826087 0.1333333333333333 0  3.667826086956521 0.1333333333333333 0  3.684347826086956 0.1333333333333333 0  3.700869565217391 0.1333333333333333 0  3.717391304347826 0.13333333
[...]
<PointData  Vectors="Displacement"> 
<DataArray  type="Float64"  Name="Displacement"  NumberOfComponents="3" format="ascii">4.2247938647776143e-04 5.3721353602763158e-03 0.0000000000000000e+00  4.3030555784165180e-04 5.3977302760058977e-03 0.0000000000000000e+00  4.0432979534279329e-04 5.3954015102621227e-03 0.0000000000000000e+00  3.9790310522874609e-04 5.3696841364160005e-03 0.0000000000000000e+00  4.3765798619753118e-04 5.4247636588644647e-03 0.0000000000000000e+00  4.1036189248596630e-04 5.4225850321350608e-03 0.0000000000000000e+00  4.4446842763877281e-04 5.4531397651300106e-03 0.0000000000000000e+00  4.1595708460632558e-04 5.4511324402057989e-03 0.0000000000000000e+00  4.5068242067280745e-04 5.4827167316547371e-03 0.0000000000000000e+00  4.2108214447093075e-04 5.4808957094283073e-03 0.0000000000000000e+00  4.5627331482588079e-04 5.5133240598710638e-03 0.0000000000000000e+00  4.2572050139905724e-04 5.5116933492153604e-03 0.0000000000000000e+00  4.6124156167516177e-04 5.5447962469359303e-03 0.0000000000000000e+00  4.2987111728574738e-04 5.5433517816204170e-03 0.0000000000000000e+00  4.6559853009244358e-04 5.5769972446090077e-03 0.0000000000000000e+00  4.3353664994827629e-04 5.5757355679255686e-03 0.0000000000000000e+00  4.6935934274597811e-04 5.6098027756129641e-03 0.0000000000000000e+00  4.3672339984233228e-04 5.6087198395135054e-03 0.0000000000000000e+00  4.7254431132315024e-04 5.6430931901885811e-03 0.0000000000000000e+00  4.3944381179968149e-04 5.6421827284879366e-03 0.0000000000000000e+00  4.7518097121689783e-04 5.6767546893602642e-03 0.0000000000000000e+00  4.4171738610212065e-04 5.6760077097582186e-03 0.0000000000000000e+00  4.7730373361285015e-04 5.7106833057798175e-03 0.0000000000000000e+00  4.4356960665001521e-04 5.7100887425953085e-03 0.0000000000000000e+00  4.7895213573557273e-04 5.7447867236956104e-03 0.0000000000000000e+00  4.4503038422574531e-04 5.7443321859756572e-03 0.0000000000000000e+00  4.8016921477489721e-04 5.7789841015076782e-03 0.0000000000000000e+00  4.4613289029834884e-04 5.7786563043711178e-03 0.0000000000000000e+00  4.8100043946596398e-04 5.8132054507998498e-03 0.0000000000000000e+00  4.4691276511570034e-04 5.8129904420374402e-03 0.0000000000000000e+00  4.8149296748064814e-04 5.8473912861920496e-03 0.0000000000000000e+00  4.4740746059895707e-04 5.8472746306482293e-03 0.0000000000000000e+00  4.8169493390664263e-04 5.8814925592405110e-03 0.0000000000000000e+00  4.4765555636317237e-04 5.8814595631412232e-03 0.0000000000000000e+00  4.8165462416294836e-04 5.9154706600256478e-03 0.0000000000000000e+00  4.4769599295029725e-04 5.9155066530174952e-03 0.0000000000000000e+00  4.8141955127716006e-04 5.9492972435153495e-03 0.0000000000000000e+00  4.4756726561529273e-04 5.9493878821203477e-03 0.0000000000000000e+00  4.8103553332320840e-04 5.9829537902329573e-03 0.0000000000000000e+00  4.4730664777982367e-04 5.9830853431506025e-03 0.0000000000000000e+00  4.8054585156333219e-04 6.0164309396249687e-03 0.0000000000000000e+00  4.4694948967035589e-04 6.0165905352172599e-03 0.0000000000000000e+00  4.7999052215716241e-04 6.0497276758362788e-03 0.0000000000000000e+00  4.4652860635863904e-04 6.0499035104785073e-03 0.0000000000000000e+00  4.7940568153187192e-04 6.0828504220775837e-03 0.0000000000000000e+00  4.4607375482503056e-04 6.0830319334441354e-03 0.0000000000000000e+00  4.7882307355446012e-04 6.1158120722282598e-03 0.0000000000000000e+00  4.4561119588817601e-04 6.1159900815893047e-03 0.0000000000000000e+00  4.7826962601217273e-04 6.1486309699182885e-03 0.0000000000000000e+00  4.4516333779036945e-04 6.1487977958117951e-03 0.0000000000000000e+00  4.7776710569723426e-04 6.1813298366223410e-03 0.0000000000000000e+00  4.4474845962383917e-04 6.1814793812604912e-03 0.0000000000000000e+00  4.7733184117639558e-04 6.2139346447834124e-03 0.0000000000000000e+00  4.4438051315988061e-04 6.2140624548786185e-03 0.0000000000000000e+00  4.7697450072137784e-04 6.2464734216699635e-03 0.0000000000000000e+00  4.4406900240728933e-04 6.2465767263027586e-03 0.0000000000000000e+00  4.7669991368292123e-04 6.2789749490968433e-03 0.0000000000000000e+00  4.4381894384955723e-04 6.2790526782517285e-03 0.0000000000000000e+00  4.7650693243440694e-04 6.3114672891872873e-03 0.0000000000000000e+00  4.4363091867908347e-04 6.3115200787186880e-03 0.0000000000000000e+00  4.7638835776825405e-04 6.3439760105870810e-03 0.0000000000000000e+00  4.4350124114248658e-04 6.3440062073819884e-03 0.0000000000000000e+00  4.7633101169235675e-04 6.3765219001922094e-03 0.0000000000000000e+00  4.4342227829301158e-04 6.3765336076160670e-03 0.0000000000000000e+00  4.7631618330879540e-04 6.4091178056217626e-03 0.0000000000000000e+00  4.4338294472715499e-04 6.4091170773222786e-03 0.0000000000000000e+00  4.7632103616456086e-04 6.4417641211248541e-03 0.0000000000000000e+00  4.4336930186497344e-04 6.4417594831167229e-03 0.0000000000000000e+00  4.7632300086056191e-04 6.4744436176874306e-03 0.0000000000000000e+00  4.4336484912111442e-04 6.4744456695497114e-03 0.0000000000000000e+00  3.7930219354134038e-04 5.3934595369156593e-03 0.0000000000000000e+00  3.8409047271151828e-04 5.4207707736417688e-03 0.0000000000000000e+00  3.8853348595698693e-04 5.4494701680328998e-03 0.0000000000000000e+00  3.9260931783791298e-04 5.4794020768073534e-03 0.0000000000000000e+00  3.9630925011238573e-04 5.5103639731884360e-03 0.0000000000000000e+00  3.9963914194024686e-04 5.5421717077816287e-03 0.0000000000000000e+00  4.0259683940185409e-04 5.5747038882060619e-03 0.0000000000000000e+00  4.0517901258747000e-04 5.6078372747396642e-03 0.0000000000000000e+00  4.0738966097612623e-04 5.6414460463694600e-03 0.0000000000000000e+00  4.0924167635663999e-04 5.6754091653559557e-03 0.0000000000000000e+00  4.1075420304912460e-04 5.7096184132833169e-03 0.0000000000000000e+00  4.1195006873150851e-04 5.7439794572003893e-03 0.0000000000000000e+00  4.1285467498751699e-04 5.7784101194849362e-03 0.0000000000000000e+00  4.1349562359272975e-04 5.8128391802924556e-03 0.0000000000000000e+00  4.1390238178636187e-04 5.8472060863977750e-03 0.0000000000000000e+00  4.1410575230410845e-04 5.8814611176527098e-03 0.0000000000000000e+00  4.1413714878536459e-04 5.9155656000555437e-03 0.0000000000000000e+00  4.1402781440128054e-04 5.9494917761642521e-03 0.0000000000000000e+00  4.1380810560244274e-04 5.9832222884084003e-03 0.0000000000000000e+00  4.1350688467815794e-04 6.0167494025267290e-03 0.0000000000000000e+00  4.1315100982843006e-04 6.0500741051404874e-03 0.0000000000000000e+00  4.1276490546041892e-04 6.0832051307390597e-03 0.0000000000000000e+00  4.1237020467758002e-04 6.1161579369800574e-03 0.0000000000000000e+00  4.1198546476806748e-04 6.1489536297029282e-03 0.0000000000000000e+00  4.1162596016619009e-04 6.1816178366631046e-03 0.0000000000000000e+00  4.1130355578589752e-04 6.2141795297926137e-03 0.0000000000000000e+00  4.1102666005514671e-04 6.2466697887206121e-03 0.0000000000000000e+00  4.1080025384571816e-04 6.2791204803302365e-03 0.0000000000000000e+00  4.1062598780293647e-04 6.3115628022374689e-03 0.0000000000000000e+00  4.1050233013322673e-04 6.3440256065816119e-03 0.0000000000000000e+00  4.1042471510592131e-04 6.3765333917439881e-03 0.0000000000000000e+00  4.1038555944562105e-04 6.4091038389564245e-03 0.0000000000000000e+00  4.1037381877098521e-04 6.4417448044489876e-03 0.0000000000000000e+00  4.1037329988635973e-04 6.4744507131337461e-03 0.0000000000000000e+00  3.5860483263090232e-04 5.4192835169561025e-03 0.0000000000000000e+00  3.6190588831049340e-04 5.4481178953997766e-03 0.0000000000000000e+00  3.6495700260777208e-04 5.4782167974125823e-03 0.0000000000000000e+00  3.6774001411412580e-04 5.5093310041269836e-03 0.0000000000000000e+00  3.7026495949230395e-04 5.5412561787305638e-03 0.0000000000000000e+00  3.7251838069482908e-04 5.5739115303396151e-03 0.0000000000000000e+00  3.7448384308976987e-04 5.6071755442208427e-03 0.0000000000000000e+00  3.7615751952716213e-04 5.6409142073591302e-03 0.0000000000000000e+00  3.7754844280081773e-04 5.6749985123226961e-03 0.0000000000000000e+00  3.7867220059614016e-04 5.7093180932785113e-03 0.0000000000000000e+00  3.7954662121932986e-04 5.7437791500245363e-03 0.0000000000000000e+00  3.8019095763155221e-04 5.7782998367512913e-03 0.0000000000000000e+00  3.8062625960587506e-04 5.8128085301556980e-03 0.0000000000000000e+00  3.8087552795507118e-04 5.8472439264690449e-03 0.0000000000000000e+00  3.8096336986546649e-04 5.8815556672963095e-03 0.0000000000000000e+00  3.8091525035708219e-04 5.9157048875529286e-03 0.0000000000000000e+00  3.8075665452137644e-04 5.9496641074130233e-03 0.0000000000000000e+00  3.8051238066045612e-04 5.9834165795949849e-03 0.0000000000000000e+00  3.8020600651495130e-04 6.0169553768923811e-03 0.0000000000000000e+00  3.7985947336774178e-04 6.0502824212576162e-03 0.0000000000000000e+00  3.7949274398494065e-04 6.0834074796929406e-03 0.0000000000000000e+00  3.7912351869302477e-04 6.1163471216544724e-03 0.0000000000000000e+00  3.7876701359243557e-04 6.1491236236822485e-03 0.0000000000000000e+00  3.7843581082366970e-04 6.1817638184742500e-03 0.0000000000000000e+00  3.7813978451345842e-04 6.2142978975576937e-03 0.0000000000000000e+00  3.7788609486416093e-04 6.2467581743129580e-03 0.0000000000000000e+00  3.7767923147197794e-04 6.2791777990555721e-03 0.0000000000000000e+00  3.7752107440136953e-04 6.3115893984713057e-03 0.0000000000000000e+00  3.7741092148877375e-04 6.3440235989282636e-03 0.0000000000000000e+00  3.7734539171290160e-04 6.3765074023434025e-03 0.0000000000000000e+00  3.7731804157061590e-04 6.4090624413736478e-03 0.0000000000000000e+00  3.7731840421013934e-04 6.4417033004923905e-03 0.0000000000000000e+00  3.7732995370716384e-04 6.4744364607020799e-03 0.0000000000000000e+00  3.3572856943284792e-04 5.4470458471444563e-03 0.0000000000000000e+00  3.3780098275687314e-04 5.4773183429833502e-03 0.0000000000000000e+00  3.3972166979793773e-04 5.5085832747985399e-03 0.0000000000000000e+00  3.4148889913889011e-04 5.5405888786900616e-03 0.0000000000000000e+00  3.4306508486675965e-04 5.5733531885463691e-03 0.0000000000000000e+00  3.4441851788221767e-04 5.6067432833459422e-03 0.0000000000000000e+00  3.4554235906678423e-04 5.6406075068361336e-03 0.0000000000000000e+00  3.4644773857838340e-04 5.6748035507150100e-03 0.0000000000000000e+00  3.4715040897208385e-04 5.7092207059108533e-03 0.0000000000000000e+00  3.4766479206989234e-04 5.7437683788949473e-03 0.0000000000000000e+00  3.4800489180077029e-04 5.7783661350152222e-03 0.0000000000000000e+00  3.4818620044860189e-04 5.8129419355023590e-03 0.0000000000000000e+00  3.4822650190111624e-04 5.8474333352030458e-03 0.0000000000000000e+00  3.4814563000798828e-04 5.8817889791562064e-03 0.0000000000000000e+00  3.4796451695724126e-04 5.9159697439640042e-03 0.0000000000000000e+00  3.4770417833596872e-04 5.9499485719820503e-03 0.0000000000000000e+00  3.4738498479064357e-04 5.9837095269819314e-03 0.0000000000000000e+00  3.4702621531696555e-04 6.0172466504607646e-03 0.0000000000000000e+00  3.4664574371627745e-04 6.0505629135172946e-03 0.0000000000000000e+00  3.4625977884974291e-04 6.0836691934164216e-03 0.0000000000000000e+00  3.4588263971159044e-04 6.1165832272320414e-03 0.0000000000000000e+00  3.4552657907482279e-04 6.1493285019544770e-03 0.0000000000000000e+00  3.4520167540604566e-04 6.1819330787168478e-03 0.0000000000000000e+00  3.4491579713731774e-04 6.2144283795258501e-03 0.0000000000000000e+00  3.4467462202853702e-04 6.2468479664098252e-03 0.0000000000000000e+00  3.4448167619416088e-04 6.2792263266789935e-03 0.0000000000000000e+00  3.4433834239729077e-04 6.3115976606585179e-03 0.0000000000000000e+00  3.4424377030495154e-04 6.3439946656994551e-03 0.0000000000000000e+00  3.4419459648158166e-04 6.3764473392923975e-03 0.0000000000000000e+00  3.4418434633302149e-04 6.4089819099122976e-03 0.0000000000000000e+00  3.4420235206720801e-04 6.4416201945442023e-03 0.0000000000000000e+00  3.4423201820200076e-04 6.4743800835705863e-03 0.0000000000000000e+00  3.1073838788042268e-04 5.4766349917275605e-03 0.0000000000000000e+00  3.1198780557293400e-04 5.5080933432500130e-03 0.0000000000000000e+00  3.1309598271143230e-04 5.5401296707403456e-03 0.0000000000000000e+00  3.1403836982018315e-04 5.5730104906589976e-03 0.0000000000000000e+00  3.1479010409403245e-04 5.6065413859184877e-03 0.0000000000000000e+00  3.1535729293989239e-04 5.6405397185979797e-03 0.0000000000000000e+00  3.1576297476250485e-04 5.6748434330579035e-03 0.0000000000000000e+00  3.1602630507646866e-04 5.7093484249304645e-03 0.0000000000000000e+00  3.1615799831693939e-04 5.7439725748969495e-03 0.0000000000000000e+00  3.1616633744707581e-04 5.7786379036663350e-03 0.0000000000000000e+00  3.1606161500988142e-04 5.8132713113268732e-03 0.0000000000000000e+00  3.1585743128232329e-04 5.8478083239252307e-03 0.0000000000000000e+00  3.1557022059453736e-04 5.8821959847054871e-03 0.0000000000000000e+00  3.1521771639531575e-04 5.9163949386772828e-03 0.0000000000000000e+00  3.1481758388545751e-04 5.9503789051402181e-03 0.0000000000000000e+00  3.1438668210418270e-04 5.9841331362974291e-03 0.0000000000000000e+00  3.1394077388545709e-04 6.0176529135696289e-03 0.0000000000000000e+00  3.1349434461954865e-04 6.0509424599777930e-03 0.0000000000000000e+00  3.1306041911943874e-04 6.0840139340823671e-03 0.0000000000000000e+00  3.1265037231489510e-04 6.1168864063930262e-03 0.0000000000000000e+00  3.1227377402430028e-04 6.1495847382975017e-03 0.0000000000000000e+00  3.1193830797371440e-04 6.1821383703889636e-03 0.0000000000000000e+00  3.1164977105483207e-04 6.2145800857469242e-03 0.0000000000000000e+00  3.1141212298234458e-04 6.2469448124485511e-03 0.0000000000000000e+00  3.1122753316719748e-04 6.2792685025912813e-03 0.0000000000000000e+00  3.1109635980746601e-04 6.3115871005106350e-03 0.0000000000000000e+00  3.1101698976513959e-04 6.3439356098085615e-03 0.0000000000000000e+00  3.1098546271117141e-04 6.3763473002670015e-03 0.0000000000000000e+00  3.1099480304883060e-04 6.4088531762198945e-03 0.0000000000000000e+00  3.1103400687519352e-04 6.4414819823943367e-03 0.0000000000000000e+00  3.1108672825793900e-04 6.4742612975006233e-03 0.0000000000000000e+00  2.8455036962229442e-04 5.5078482153301557e-03 0.0000000000000000e+00  2.8501253704512914e-04 5.5398235728659536e-03 0.0000000000000000e+00  2.8529919359141171e-04 5.5728675733212781e-03 0.0000000000000000e+00  2.8542839903843625e-04 5.6065731986306164e-03 0.0000000000000000e+00  2.8542542790961547e-04 5.6407242459065804e-03 0.0000000000000000e+00  2.8532514014975368e-04 5.6751309608612912e-03 0.0000000000000000e+00  2.8514527663981104e-04 5.7097135400131019e-03 0.0000000000000000e+00  2.8488743817518938e-04 5.7444064535894642e-03 0.0000000000000000e+00  2.8455184654134686e-04 5.7791336093252158e-03 0.0000000000000000e+00  2.8414368965311065e-04 5.8138186767786393e-03 0.0000000000000000e+00  2.8367360181282887e-04 5.8483934345048691e-03 0.0000000000000000e+00  2.8315622076503571e-04 5.8828023668909173e-03 0.0000000000000000e+00  2.8260743397017700e-04 5.9170061889801248e-03 0.0000000000000000e+00  2.8204249670543338e-04 5.9509801172874252e-03 0.0000000000000000e+00  2.8147542893904178e-04 5.9847111921567985e-03 0.0000000000000000e+00  2.8091905598302933e-04 6.0181962799251039e-03 0.0000000000000000e+00  2.8038500711810550e-04 6.0514411089758130e-03 0.0000000000000000e+00  2.7988359021533562e-04 6.0844593552020765e-03 0.0000000000000000e+00  2.7942359551919700e-04 6.1172716848823024e-03 0.0000000000000000e+00  2.7901212547654726e-04 6.1499046150468020e-03 0.0000000000000000e+00  2.7865452832875637e-04 6.1823892313425353e-03 0.0000000000000000e+00  2.7835444238418969e-04 6.2147598999091960e-03 0.0000000000000000e+00  2.7811390082396899e-04 6.2470530865506900e-03 0.0000000000000000e+00  2.7793342050838344e-04 6.2793063421357764e-03 0.0000000000000000e+00  2.7781199494616749e-04 6.3115574699487307e-03 0.0000000000000000e+00  2.7774691973000726e-04 6.3438438788168180e-03 0.0000000000000000e+00  2.7773339248113001e-04 6.3762021498695682e-03 0.0000000000000000e+00  2.7776385352437432e-04 6.4086679044778189e-03 0.0000000000000000e+00  2.7782708655751449e-04 6.4412761572686774e-03 0.0000000000000000e+00  2.7790721814790402e-04 6.4740624671170604e-03 0.0000000000000000e+00  2.5729113154707812e-04 5.5396724696316225e-03 0.0000000000000000e+00  2.5667557961667333e-04 5.5729483321558604e-03 0.0000000000000000e+00  2.5612120814744925e-04 5.6068530492052763e-03 0.0000000000000000e+00  2.5554856648968012e-04 5.6411759305711844e-03 0.0000000000000000e+00  2.5496209517040781e-04 5.6756702446260953e-03 0.0000000000000000e+00  2.5435888371185759e-04 5.7103165514673006e-03 0.0000000000000000e+00  2.5372284367855893e-04 5.7450739280725163e-03 0.0000000000000000e+00  2.5304554684731691e-04 5.7798623815697621e-03 0.0000000000000000e+00  2.5232924052862542e-04 5.8145977210086923e-03 0.0000000000000000e+00  2.5158398182862691e-04 5.8492053636005556e-03 0.0000000000000000e+00  2.5082481346977995e-04 5.8836259412916991e-03 0.0000000000000000e+00  2.5006713266937335e-04 5.9178212837532980e-03 0.0000000000000000e+00  2.4932439701464581e-04 5.9517694486712408e-03 0.0000000000000000e+00  2.4860810733488983e-04 5.9854601087290281e-03 0.0000000000000000e+00  2.4792851259906092e-04 6.0188920288065531e-03 0.0000000000000000e+00  2.4729480887229245e-04 6.0520726824967756e-03 0.0000000000000000e+00  2.4671500382161864e-04 6.0850175284727073e-03 0.0000000000000000e+00  2.4619562970445703e-04 6.1177491829048965e-03 0.0000000000000000e+00  2.4574150122625153e-04 6.1502962242693656e-03 0.0000000000000000e+00  2.4535565483209490e-04 6.1826917618528201e-03 0.0000000000000000e+00  2.4503946563710652e-04 6.2149720380462233e-03 0.0000000000000000e+00  2.4479285276070176e-04 6.2471752434080357e-03 0.0000000000000000e+00  2.4461446054806858e-04 6.2793406167604045e-03 0.0000000000000000e+00  2.4450171639422812e-04 6.3115078293181030e-03 0.0000000000000000e+00  2.4445069259220544e-04 6.3437166284469318e-03 0.0000000000000000e+00  2.4445572918832862e-04 6.3760067331330673e-03 0.0000000000000000e+00  2.4450881117406867e-04 6.4084180123138886e-03 0.0000000000000000e+00  2.4459875167998378e-04 6.4409910223883881e-03 0.0000000000000000e+00  2.4471033602593828e-04 6.4737680050362938e-03 0.0000000000000000e+00  2.2744307919050308e-04 5.5732609750534417e-03 0.0000000000000000e+00  2.2646044433184071e-04 5.6073563446704250e-03 0.0000000000000000e+00  2.2548020439136171e-04 5.6418886979347615e-03 0.0000000000000000e+00  2.2451078364028556e-04 5.6764443985065803e-03 0.0000000000000000e+00  2.2353904297205577e-04 5.7111420510680775e-03 0.0000000000000000e+00  2.2255014569275752e-04 5.7459687048763601e-03 0.0000000000000000e+00  2.2154179370794484e-04 5.7808259577890693e-03 0.0000000000000000e+00  2.2052113871973931e-04 5.8156158069803390e-03 0.0000000000000000e+00  2.1950114396301261e-04 5.8502546768012652e-03 0.0000000000000000e+00  2.1849954211678371e-04 5.8846777964546813e-03 0.0000000000000000e+00  2.1753197935001084e-04 5.9188508521868573e-03 0.0000000000000000e+00  2.1660993367118438e-04 5.9527570130604168e-03 0.0000000000000000e+00  2.1574215393310687e-04 5.9863895702196674e-03 0.0000000000000000e+00  2.1493648265406194e-04 6.0197492097958131e-03 0.0000000000000000e+00  2.1420008870686038e-04 6.0528452871339757e-03 0.0000000000000000e+00  2.1353913782420930e-04 6.0856953015501723e-03 0.0000000000000000e+00  2.1295825965212862e-04 6.1183242853515337e-03 0.0000000000000000e+00  2.1246014876362401e-04 6.1507634457400292e-03 0.0000000000000000e+00  2.1204551486463767e-04 6.1830484259571446e-03 0.0000000000000000e+00  2.1171332951823636e-04 6.2152177003237802e-03 0.0000000000000000e+00  2.1146120359869978e-04 6.2473113559374802e-03 0.0000000000000000e+00  2.1128572654510445e-04 6.2793703237904791e-03 0.0000000000000000e+00  2.1118264267288333e-04 6.3114360108008014e-03 0.0000000000000000e+00  2.1114679108053252e-04 6.3435502560198562e-03 0.0000000000000000e+00  2.1117177800526635e-04 6.3757555536134800e-03 0.0000000000000000e+