<?xml version="1.0"?>
<VTKFile type="UnstructuredGrid"  version="0.1"  >
<UnstructuredGrid>
<Piece  NumberOfPoints="7161" NumberOfCells="13800">
<Points>
<DataArray  type="Float64"  NumberOfComponents="3"  format="ascii">0 0 0  0.01652173913043478 0 0  0.03304347826086956 0 0  0.04956521739130434 0 0  0.06608695652173913 0 0  0.08260869565217391 0 0  0.09913043478260869 0 0  0.1156521739130435 0 0  0.1321739130434783 0 0  0.148695652173913 0 0  0.1652173913043478 0 0  0.1817391304347826 0 0  0.1982608695652174 0 0  0.2147826086956522 0 0  0.2313043478260869 0 0  0.2478260869565218 0 0  0.2643478260869565 0 0  0.2808695652173913 0 0  0.2973913043478261 0 0  0.3139130434782609 0 0  0.3304347826086956 0 0  0.3469565217391304 0 0  0.3634782608695652 0 0  0.3799999999999999 0 0  0.3965217391304348 0 0  0.4130434782608696 0 0  0.4295652173913043 0 0  0.4460869565217391 0 0  0.4626086956521739 0 0  0.4791304347826086 0 0  0.4956521739130435 0 0  0.5121739130434783 0 0  0.528695652173913 0 0  0.5452173913043478 0 0  0.5617391304347825 0 0  0.5782608695652174 0 0  0.5947826086956521 0 0  0.6113043478260869 0 0  0.6278260869565218 0 0  0.6443478260869565 0 0  0.6608695652173913 0 0  0.677391304347826 0 0  0.6939130434782609 0 0  0.7104347826086956 0 0  0.7269565217391304 0 0  0.7434782608695653 0 0  0.7599999999999999 0 0  0.7765217391304348 0 0  0.7930434782608695 0 0  0.8095652173913043 0 0  0.8260869565217391 0 0  0.8426086956521739 0 0  0.8591304347826086 0 0  0.8756521739130434 0 0  0.8921739130434783 0 0  0.908695652173913 0 0  0.9252173913043478 0 0  0.9417391304347826 0 0  0.9582608695652173 0 0  0.9747826086956521 0 0  0.991304347826087 0 0  1.007826086956522 0 0  1.024347826086957 0 0  1.040869565217391 0 0  1.057391304347826 0 0  1.073913043478261 0 0  1.090434782608696 0 0  1.10695652173913 0 0  1.123478260869565 0 0  1.14 0 0  1.156521739130435 0 0  1.17304347826087 0 0  1.189565217391304 0 0  1.206086956521739 0 0  1.222608695652174 0 0  1.239130434782609 0 0  1.255652173913044 0 0  1.272173913043478 0 0  1.288695652173913 0 0  1.305217391304348 0 0  1.321739130434783 0 0  1.338260869565217 0 0  1.354782608695652 0 0  1.371304347826087 0 0  1.387826086956522 0 0  1.404347826086957 0 0  1.420869565217391 0 0  1.437391304347826 0 0  1.453913043478261 0 0  1.470434782608696 0 0  1.486956521739131 0 0  1.503478260869565 0 0  1.52 0 0  1.536521739130435 0 0  1.55304347826087 0 0  1.569565217391304 0 0  1.586086956521739 0 0  1.602608695652174 0 0  1.619130434782609 0 0  1.635652173913043 0 0  1.652173913043478 0 0  1.668695652173913 0 0  1.685217391304348 0 0  1.701739130434782 0 0  1.718260869565217 0 0  1.734782608695652 0 0  1.751304347826087 0 0  1.767826086956522 0 0  1.784347826086957 0 0  1.800869565217391 0 0  1.817391304347826 0 0  1.833913043478261 0 0  1.850434782608696 0 0  1.86695652173913 0 0  1.883478260869565 0 0  1.9 0 0  1.916521739130435 0 0  1.933043478260869 0 0  1.949565217391304 0 0  1.966086956521739 0 0  1.982608695652174 0 0  1.999130434782608 0 0  2.015652173913043 0 0  2.032173913043478 0 0  2.048695652173913 0 0  2.065217391304348 0 0  2.081739130434782 0 0  2.098260869565217 0 0  2.114782608695652 0 0  2.131304347826087 0 0  2.147826086956522 0 0  2.164347826086956 0 0  2.180869565217391 0 0  2.197391304347826 0 0  2.213913043478261 0 0  2.230434782608695 0 0  2.24695652173913 0 0  2.263478260869565 0 0  2.28 0 0  2.296521739130434 0 0  2.31304347826087 0 0  2.329565217391304 0 0  2.346086956521739 0 0  2.362608695652174 0 0  2.379130434782609 0 0  2.395652173913044 0 0  2.412173913043478 0 0  2.428695652173913 0 0  2.445217391304348 0 0  2.461739130434782 0 0  2.478260869565217 0 0  2.494782608695652 0 0  2.511304347826087 0 0  2.527826086956522 0 0  2.544347826086956 0 0  2.560869565217391 0 0  2.577391304347826 0 0  2.593913043478261 0 0  2.610434782608696 0 0  2.62695652173913 0 0  2.643478260869565 0 0  2.66 0 0  2.676521739130435 0 0  2.693043478260869 0 0  2.709565217391304 0 0  2.726086956521739 0 0  2.742608695652174 0 0  2.759130434782609 0 0  2.775652173913044 0 0  2.792173913043478 0 0  2.808695652173913 0 0  2.825217391304347 0 0  2.841739130434783 0 0  2.858260869565217 0 0  2.874782608695652 0 0  2.891304347826087 0 0  2.907826086956522 0 0  2.924347826086957 0 0  2.940869565217391 0 0  2.957391304347826 0 0  2.973913043478261 0 0  2.990434782608696 0 0  3.006956521739131 0 0  3.023478260869565 0 0  3.04 0 0  3.056521739130435 0 0  3.073043478260869 0 0  3.089565217391304 0 0  3.106086956521739 0 0  3.122608695652174 0 0  3.139130434782609 0 0  3.155652173913043 0 0  3.172173913043478 0 0  3.188695652173913 0 0  3.205217391304347 0 0  3.221739130434782 0 0  3.238260869565217 0 0  3.254782608695652 0 0  3.271304347826087 0 0  3.287826086956521 0 0  3.304347826086957 0 0  3.320869565217391 0 0  3.337391304347826 0 0  3.353913043478261 0 0  3.370434782608696 0 0  3.386956521739131 0 0  3.403478260869565 0 0  3.419999999999999 0 0  3.436521739130435 0 0  3.453043478260869 0 0  3.469565217391304 0 0  3.486086956521739 0 0  3.502608695652174 0 0  3.519130434782609 0 0  3.535652173913043 0 0  3.552173913043478 0 0  3.568695652173913 0 0  3.585217391304347 0 0  3.601739130434782 0 0  3.618260869565217 0 0  3.634782608695652 0 0  3.651304347826087 0 0  3.667826086956521 0 0  3.684347826086956 0 0  3.700869565217391 0 0  3.717391304347826 0 0  3.733913043478261 0 0  3.750434782608695 0 0  3.766956521739131 0 0  3.783478260869565 0 0  3.8 0 0  0 0.01666666666666667 0  0.01652173913043478 0.01666666666666667 0  0.03304347826086956 0.01666666666666667 0  0.04956521739130434 0.01666666666666667 0  0.06608695652173913 0.01666666666666667 0  0.08260869565217391 0.01666666666666667 0  0.09913043478260869 0.01666666666666667 0  0.1156521739130435 0.01666666666666667 0  0.1321739130434783 0.01666666666666667 0  0.148695652173913 0.01666666666666667 0  0.1652173913043478 0.01666666666666667 0  0.1817391304347826 0.01666666666666667 0  0.1982608695652174 0.01666666666666667 0  0.2147826086956522 0.01666666666666667 0  0.2313043478260869 0.01666666666666667 0  0.2478260869565218 0.01666666666666667 0  0.2643478260869565 0.01666666666666667 0  0.2808695652173913 0.01666666666666667 0  0.2973913043478261 0.01666666666666667 0  0.3139130434782609 0.01666666666666667 0  0.3304347826086956 0.01666666666666667 0  0.3469565217391304 0.01666666666666667 0  0.3634782608695652 0.01666666666666667 0  0.3799999999999999 0.01666666666666667 0  0.3965217391304348 0.01666666666666667 0  0.4130434782608696 0.01666666666666667 0  0.4295652173913043 0.01666666666666667 0  0.4460869565217391 0.01666666666666667 0  0.4626086956521739 0.01666666666666667 0  0.4791304347826086 0.01666666666666667 0  0.4956521739130435 0.01666666666666667 0  0.5121739130434783 0.01666666666666667 0  0.528695652173913 0.01666666666666667 0  0.5452173913043478 0.01666666666666667 0  0.5617391304347825 0.01666666666666667 0  0.5782608695652174 0.01666666666666667 0  0.5947826086956521 0.01666666666666667 0  0.6113043478260869 0.01666666666666667 0  0.6278260869565218 0.01666666666666667 0  0.6443478260869565 0.01666666666666667 0  0.6608695652173913 0.01666666666666667 0  0.677391304347826 0.01666666666666667 0  0.6939130434782609 0.01666666666666667 0  0.7104347826086956 0.01666666666666667 0  0.7269565217391304 0.01666666666666667 0  0.7434782608695653 0.01666666666666667 0  0.7599999999999999 0.01666666666666667 0  0.7765217391304348 0.01666666666666667 0  0.7930434782608695 0.01666666666666667 0  0.8095652173913043 0.01666666666666667 0  0.8260869565217391 0.01666666666666667 0  0.8426086956521739 0.01666666666666667 0  0.8591304347826086 0.01666666666666667 0  0.8756521739130434 0.01666666666666667 0  0.8921739130434783 0.01666666666666667 0  0.908695652173913 0.01666666666666667 0  0.9252173913043478 0.01666666666666667 0  0.9417391304347826 0.01666666666666667 0  0.9582608695652173 0.01666666666666667 0  0.9747826086956521 0.01666666666666667 0  0.991304347826087 0.01666666666666667 0  1.007826086956522 0.01666666666666667 0  1.024347826086957 0.01666666666666667 0  1.040869565217391 0.01666666666666667 0  1.057391304347826 0.01666666666666667 0  1.073913043478261 0.01666666666666667 0  1.090434782608696 0.01666666666666667 0  1.10695652173913 0.01666666666666667 0  1.123478260869565 0.01666666666666667 0  1.14 0.01666666666666667 0  1.156521739130435 0.01666666666666667 0  1.17304347826087 0.01666666666666667 0  1.189565217391304 0.01666666666666667 0  1.206086956521739 0.01666666666666667 0  1.222608695652174 0.01666666666666667 0  1.239130434782609 0.01666666666666667 0  1.255652173913044 0.01666666666666667 0  1.272173913043478 0.01666666666666667 0  1.288695652173913 0.01666666666666667 0  1.305217391304348 0.01666666666666667 0  1.321739130434783 0.01666666666666667 0  1.338260869565217 0.01666666666666667 0  1.354782608695652 0.01666666666666667 0  1.371304347826087 0.01666666666666667 0  1.387826086956522 0.01666666666666667 0  1.404347826086957 0.01666666666666667 0  1.420869565217391 0.01666666666666667 0  1.437391304347826 0.01666666666666667 0  1.453913043478261 0.01666666666666667 0  1.470434782608696 0.01666666666666667 0  1.486956521739131 0.01666666666666667 0  1.503478260869565 0.01666666666666667 0  1.52 0.01666666666666667 0  1.536521739130435 0.01666666666666667 0  1.55304347826087 0.01666666666666667 0  1.569565217391304 0.01666666666666667 0  1.586086956521739 0.01666666666666667 0  1.602608695652174 0.01666666666666667 0  1.619130434782609 0.01666666666666667 0  1.635652173913043 0.01666666666666667 0  1.652173913043478 0.01666666666666667 0  1.668695652173913 0.01666666666666667 0  1.685217391304348 0.01666666666666667 0  1.701739130434782 0.01666666666666667 0  1.718260869565217 0.01666666666666667 0  1.734782608695652 0.01666666666666667 0  1.751304347826087 0.01666666666666667 0  1.767826086956522 0.01666666666666667 0  1.784347826086957 0.01666666666666667 0  1.800869565217391 0.0166666666666666
[...]
<PointData  Scalars="rho_bar"> 
<DataArray  type="Float64"  Name="rho_bar"  format="ascii">9.2588208106862491e-01  9.2337136672507192e-01  9.2020452958111121e-01  9.1590433293305451e-01  9.1042695971475107e-01  9.0377360495232462e-01  8.9588403956249263e-01  8.8674092232625035e-01  8.7663984133225414e-01  8.6639085008580075e-01  8.5709277392221850e-01  8.4963833883757545e-01  8.4450906234433754e-01  8.4185822882774908e-01  8.4167521938136580e-01  8.4387961927202282e-01  8.4828328107618456e-01  8.5442586225992390e-01  8.6139090417478792e-01  8.6777033855236352e-01  8.7177978537785172e-01  8.7134411652052302e-01  8.6401821772079979e-01  8.4709642953104647e-01  8.1947863141931165e-01  7.8568048505693189e-01  7.5589251379942402e-01  7.3932711932176021e-01  7.3668742374139651e-01  7.4129692627890420e-01  7.4694416416994658e-01  7.5133455576769137e-01  7.5429342108749420e-01  7.5622130027742374e-01  7.5743697870084836e-01  7.5808123286494222e-01  7.5826105623281370e-01  7.5814926385719861e-01  7.5795884998455709e-01  7.5777203781334468e-01  7.5738614284377259e-01  7.5651717130486729e-01  7.5514740755139942e-01  7.5349750824106432e-01  7.5184717003877921e-01  7.5040533910381957e-01  7.4927865582424524e-01  7.4849233050867137e-01  7.4803052735785425e-01  7.4784775235275613e-01  7.4787565747857188e-01  7.4805262192462418e-01  7.4830070531171389e-01  7.4849316938245625e-01  7.4849445870217068e-01  7.4828102573583899e-01  7.4799083475312944e-01  7.4784260211375664e-01  7.4802508508634558e-01  7.4855542286370824e-01  7.4919329172666205e-01  7.4959509666027913e-01  7.4968581371670928e-01  7.4976316893659911e-01  7.5014324749745265e-01  7.5082650520412275e-01  7.5153146114303038e-01  7.5197972912103594e-01  7.5218016224047635e-01  7.5243411492747325e-01  7.5291582099094656e-01  7.5345713497838551e-01  7.5389180061833549e-01  7.5417516738270074e-01  7.5434688576254516e-01  7.5451147171495359e-01  7.5485240600159442e-01  7.5553898110041440e-01  7.5658660617977180e-01  7.5783624078375955e-01  7.5898037771630222e-01  7.5966197170486738e-01  7.5956227027414425e-01  7.5837409541840484e-01  7.5575636101989063e-01  7.5143404058553664e-01  7.4549685174882485e-01  7.3875306293043430e-01  7.3271101606288491e-01  7.2912702417430453e-01  7.2958519820734635e-01  7.3511576953036195e-01  7.4591626397028710e-01  7.6109190398969417e-01  7.7855783500847930e-01  7.9559134036573054e-01  8.0965948133994814e-01  8.1889640758423721e-01  8.2239606086368844e-01  8.2006430453125734e-01  8.1220421540260346e-01  7.9928528654447484e-01  7.8219831311586385e-01  7.6279580522234447e-01  7.4387452035338508e-01  7.2825865106292664e-01  7.1784098959269871e-01  7.1315123751788978e-01  7.1343581700792513e-01  7.1693845795441746e-01  7.2126536905560867e-01  7.2367689390235923e-01  7.2140411755010336e-01  7.1228359313503520e-01  6.9562724143933963e-01  6.7295283530775940e-01  6.4791414255297830e-01  6.2494695589339277e-01  6.0723657705834821e-01  5.9583389778682772e-01  5.9035424207862597e-01  5.8938378289726723e-01  5.9069169151642442e-01  5.9242188709677623e-01  5.9346592062435899e-01  5.9353529004723904e-01  5.9319723316650275e-01  5.9309040700306603e-01  5.9308602479377770e-01  5.9283695271704429e-01  5.9286655131067201e-01  5.9400607191949939e-01  5.9570096389130056e-01  5.9654416882677264e-01  5.9563810867567057e-01  5.9342563939062010e-01  5.9136598979518540e-01  5.9026834890662039e-01  5.8998180794368205e-01  5.9062281349074475e-01  5.9198224850652725e-01  5.9362413646664081e-01  5.9509788121553775e-01  5.9608907844584669e-01  5.9654289332419397e-01  5.9655339422159703e-01  5.9595202338069320e-01  5.9431373209787641e-01  5.9140245920381473e-01  5.8721931130229332e-01  5.8196419348183270e-01  5.7619734825316737e-01  5.7069400203522602e-01  5.6615111874491320e-01  5.6295129339405103e-01  5.6110833195822507e-01  5.6045019281444286e-01  5.6059671900630081e-01  5.6114181901835669e-01  5.6190649651944891e-01  5.6254154310042237e-01  5.6205517425422236e-01  5.5951554611955667e-01  5.5499092074787848e-01  5.4908679773069768e-01  5.4266087555610054e-01  5.3659986814323712e-01  5.3153341721626346e-01  5.2767583170202259e-01  5.2516501017713157e-01  5.2407407395475780e-01  5.2415525786316630e-01  5.2509901440473294e-01  5.2671941231921682e-01  5.2879638262557860e-01  5.3095294039378360e-01  5.3278364789244081e-01  5.3391292499931142e-01  5.3414988017148224e-01  5.3341289481377552e-01  5.3148544768636763e-01  5.2800354008153383e-01  5.2243037079603394e-01  5.1421711892022626e-01  5.0361983936969990e-01  4.9215367683842509e-01  4.8138123687774320e-01  4.7095341854243566e-01  4.5819194840500266e-01  4.4130598638070306e-01  4.1840045895857020e-01  3.8689202038984510e-01  3.4497046114973035e-01  2.9495916840960840e-01  2.4376449668007746e-01  1.9646906163280520e-01  1.5528289205307713e-01  1.2093496537465005e-01  9.3192727858594782e-02  7.1265248026161215e-02  5.4175312083387758e-02  4.0983696364729288e-02  3.0876513877124503e-02  2.3180032826192541e-02  1.7349436544187868e-02  1.2951182815524039e-02  9.6450515576314115e-03  7.1672439457521183e-03  5.3151376500994180e-03  3.9341401865400950e-03  2.9068290531223452e-03  2.1443110825305660e-03  1.5794925965918571e-03  1.1618884396960389e-03  8.5364187007734354e-04  6.2645526063169325e-04  4.5924471128249702e-04  3.3633781439951687e-04  2.4611246321174272e-04  1.7996211521285093e-04  1.3152581297837750e-04  9.6109414441127464e-05  7.0257137573868925e-05  5.1431291246647523e-05  3.7776500544789718e-05  2.7943775764782643e-05  2.0962797916902791e-05  1.6148031945009404e-05  1.3035928569591374e-05  1.1349978493543177e-05  1.1022091115915660e-05  9.1502940210279837e-01  9.1343114156578420e-01  9.1011252841960000e-01  9.0526853463024359e-01  8.9905777386676888e-01  8.9154079274902653e-01  8.8261886862858352e-01  8.7218309888497891e-01  8.6050616800356128e-01  8.4858532990545010e-01  8.3783004510206516e-01  8.2930790091413520e-01  8.2352121901181274e-01  8.2057903067004634e-01  8.2043481409299079e-01  8.2301393617985785e-01  8.2817009021094667e-01  8.3546891900036924e-01  8.4392553375125390e-01  8.5196883555287739e-01  8.5765852895378980e-01  8.5890498465030174e-01  8.5347582205912143e-01  8.3893877005708173e-01  8.1385767286541888e-01  7.8109860196955339e-01  7.4923499940774085e-01  7.2780736871332485e-01  7.1983598670220106e-01  7.2055087559697850e-01  7.2365743326591980e-01  7.2632622582504092e-01  7.2810677022819437e-01  7.2925461097029276e-01  7.2995480960617820e-01  7.3021247902151454e-01  7.3005190797434483e-01  7.2963023182081921e-01  7.2920599547421472e-01  7.2891043067865313e-01  7.2846414552264405e-01  7.2743747907571721e-01  7.2580567169256194e-01  7.2386046141106974e-01  7.2194649630665086e-01  7.2030103028307313e-01  7.1903294696255493e-01  7.1815562761125029e-01  7.1764603115691039e-01  7.1745292855915077e-01  7.1749067222778773e-01  7.1769710549144339e-01  7.1799763295490926e-01  7.1824566976828441e-01  7.1825665404922501e-01  7.1798515662511575e-01  7.1760348717656841e-01  7.1738188426710081e-01  7.1756778296033896e-01  7.1821115785060641e-01  7.1901465047489321e-01  7.1949066923233040e-01  7.1950880490799796e-01  7.1949315339171038e-01  7.1989831568369944e-01  7.2072606789900018e-01  7.2158724717019918e-01  7.2208861025194948e-01  7.2222197181414471e-01  7.2243743038884167e-01  7.2301236207882125e-01  7.2366038465575777e-01  7.2415574952199080e-01  7.2446061784147509e-01  7.2462686902931117e-01  7.2476258753160128e-01  7.2509168400631130e-01  7.2584429289127672e-01  7.2704563207175044e-01  7.2851748315166331e-01  7.2989671507105047e-01  7.3076499562167374e-01  7.3078078932640622e-01  7.2962827279963371e-01  7.2691624944087752e-01  7.2226985006233246e-01  7.1568898381214552e-01  7.0806170378399313e-01  7.0117488739115541e-01  6.9706071282586801e-01  6.9753564287835901e-01  7.0377794625944845e-01  7.1606151020379449e-01  7.3345625068926346e-01  7.5354557869744687e-01  7.7307790829445844e-01  7.8908214466114113e-01  7.9936366692593896e-01  8.0294746866159794e-01  7.9989474086306911e-01  7.9068978953415647e-01  7.7586158503479297e-01  7.5628706955193781e-01  7.3402358934972922e-01  7.1240747757141132e-01  6.9478433913316306e-01  6.8330284021527421e-01  6.7848800428395362e-01  6.7945562949868088e-01  6.8425174504948583e-01  6.9028867149372974e-01  6.9464875053269948e-01  6.9432656175389373e-01  6.8680757616634425e-01  6.7091903302768929e-01  6.4767061317589769e-01  6.2072129989959646e-01  5.9516026300330915e-01  5.7490087718271599e-01  5.6136292295404855e-01  5.5427033760766498e-01  5.5237654034269734e-01  5.5318942588956277e-01  5.5457754196706277e-01  5.5530179014352687e-01  5.5495939825873597e-01  5.5418976243217211e-01  5.5383777453405569e-01  5.5373849094981586e-01  5.5327723093182501e-01  5.5294192414732413e-01  5.5397756852005642e-01  5.5583916076269579e-01  5.5683674959726104e-01  5.5584456893585765e-01  5.5326113456124271e-01  5.5088215995396661e-01  5.4975106591100964e-01  5.4940377583938582e-01  5.5005759807418597e-01  5.5151837050132835e-01  5.5330530024729441e-01  5.5493883270462041e-01  5.5608386030587664e-01  5.5670327188489921e-01  5.5701126641998100e-01  5.5689401448930032e-01  5.5578519655667835e-01  5.5333905425340335e-01  5.4952269508220886e-01  5.4447704985457623e-01  5.3878761221552707e-01  5.3328829041829295e-01  5.2870587501313826e-01  5.2543453575547638e-01  5.2343351940505811e-01  5.2254473625101550e-01  5.2240091480006956e-01  5.2255702633222034e-01  5.2290662135953814e-01  5.2326755459367480e-01  5.2260469739748971e-01  5.1973636573405191e-01  5.1479509211702079e-01  5.0845971937119261e-01  5.0163275480160630e-01  4.9524732818056327e-01  4.8998886706073413e-01  4.8600462958123802e-01  4.8339005609070396e-01  4.8228104144068334e-01  4.8239535408122708e-01  4.8336755832159883e-01  4.8502824524782640e-01  4.8719882425139666e-01  4.8948161190922918e-01  4.9147068020021456e-01  4.9276617778465603e-01  4.9318720493775020e-01  4.9273841513845967e-01  4.9127386730685324e-01  4.8855932604988261e-01  4.8430653517794514e-01  4.7827300170909426e-01  4.7082495387479700e-01  4.6330040511073595e-01  4.5692711492124372e-01  4.5119399899239243e-01  4.4342299405477964e-01  4.3170464759516741e-01  4.1443176589440817e-01  3.8915461353830688e-01  3.5340184556186971e-01  3.0785416572202440e-01  2.5821207971342103e-01  2.1021063777759097e-01  1.6709883103471582e-01  1.3047593453669654e-01  1.0061886480928674e-01  7.6920532260444194e-02  5.8422737451959771e-02  4.4146021408545268e-02  3.3219926837447879e-02  2.4913855987606405e-02  1.8632679320187452e-02  1.3901965821922225e-02  1.0350179176801127e-02  7.6904195295772367e-03  5.7032885873019856e-03  4.2219978111083020e-03  3.1201874130294812e-03  2.3023509862660895e-03  1.6964729544628342e-03  1.2484073627604729e-03  9.1756937934085064e-04  6.7364045328779498e-04  4.9403162585294621e-04  3.6195622182399328e-04  2.6495920569921932e-04  1.9381644907431246e-04  1.4170459266434475e-04  1.0358671722207074e-04  7.5751849453851606e-05  5.5474809751916722e-05  4.0761770252903985e-05  3.0163638686709266e-05  2.2636975458438560e-05  1.7444483732260656e-05  1.4082313233946510e-05  1.2229827647891505e-05  1.1700867781900369e-05  8.8301915083463456e-01  8.8111206599924108e-01  8.7656573017710526e-01  8.6970239864307841e-01  8.6098068512874482e-01  8.5061003313106265e-01  8.3835046149638781e-01  8.2371500014387555e-01  8.0676148193161445e-01  7.8912510167707861e-01  7.7344912816996858e-01  7.6140423309294825e-01  7.5348352293912346e-01  7.4958318338460928e-01  7.4951038433730965e-01  7.5321451498830105e-01  7.6073440467038023e-01  7.7180424028876748e-01  7.8525251430723897e-01  7.9892165566976481e-01  8.1024963118749749e-01  8.1692681103197617e-01  8.1716447442852580e-01  8.0910682102320564e-01  7.9097419542040326e-01  7.6295531794717675e-01  7.2925452120185108e-01  6.9784148084889230e-01  6.7519969370919664e-01  6.6213973923746650e-01  6.5502044609891197e-01  6.5063368259243926e-01  6.4760551268112820e-01  6.4553270080516567e-01  6.4406684022323635e-01  6.4270556191634287e-01  6.4116883856664464e-01  6.3952767304037628e-01  6.3815180119730253e-01  6.3736384935320811e-01  6.3667643290364040e-01  6.3511772814244816e-01  6.3264441165709884e-01  6.2978567157674403e-01  6.2708269674255612e-01  6.2483949612322354e-01  6.2316178518195775e-01  6.2201632074549507e-01  6.2135591575803539e-01  6.2112516464315926e-01  6.2117549601584787e-01  6.2144490885201509e-01  6.2188256194433766e-01  6.2229955738283005e-01  6.2235294905611827e-01  6.2190850360598871e-01  6.2125123861765641e-01  6.2079555551322696e-01  6.2095968613571340e-01  6.2191526272207553e-01  6.2323681437265399e-01  6.2396490220834600e-01  6.2373177990112916e-01  6.2337245673243802e-01  6.2381802375733508e-01  6.2507971244385407e-01  6.2642626546268398e-01  6.2710086431639867e-01  6.2698388810575523e-01  6.2700307489246621e-01  6.2788133515847278e-01  6.2886192867689261e-01  6.2952309503742065e-01  6.2987808621350483e-01  6.3003129743758979e-01  6.3007530149907798e-01  6.3033771787620030e-01  6.3126332724671974e-01  6.3289843529903944e-01  6.3502188233529033e-01  6.3711638345809407e-01  6.3857185206224587e-01  6.3899353463941211e-01  6.3807971499779859e-01  6.3531907079845351e-01  6.3005363833398031e-01  6.2197104152675464e-01  6.1213825931810029e-01  6.0320782238353676e-01  5.9794418641743241e-01  5.9875319970749552e-01  6.0717989826146568e-01  6.2371618221204539e-01  6.4750813288050013e-01  6.7531267451808952e-01  7.0221110916018381e-01  7.2389745574495290e-01  7.3705285746804128e-01  7.4044003389637525e-01  7.3471108780084871e-01  7.2107895510592102e-01  7.0035540574665034e-01  6.7333199925269449e-01  6.4266426720913139e-01  6.1343561722051942e-01  5.9044867380472210e-01  5.7634025817230794e-01  5.7141323235478214e-01  5.7442481285538660e-01  5.8298948687572472e-01  5.9414423208774803e-01  6.0464011258966432e-01  6.1087499951653801e-01  6.0931596402722565e-01  5.9740308522849239e-01  5.7486326178562086e-01  5.4501193010147353e-01  5.1433318821832474e-01  4.8842402911967536e-01  4.6966287226985598e-01  4.5797321903301530e-01  4.5256432641980832e-01  4.5090093081846166e-01  4.5043108005784227e-01  4.4970465595511105e-01  4.4807433833321864e-01  4.4604096868417348e-01  4.4474018296371243e-01  4.4405564917942736e-01  4.4306244597820726e-01  4.4178576284754467e-01  4.4210427213179709e-01  4.4376911718542195e-01  4.4477892549283260e-01  4.4366331578720014e-01  4.4063529924911288e-01  4.3763008742800813e-01  4.3644862343025365e-01  4.3598333166991521e-01  4.3652323110788144e-01  4.3800824103195679e-01  4.3992300273416057e-01  4.4178656831056157e-01  4.4329401946766273e-01  4.4444752171480728e-01  4.4568812058780605e-01  4.4720244365662648e-01  4.4820911875979980e-01  4.4792886622252781e-01  4.4616324371320765e-01  4.4285021488318416e-01  4.3853558094466416e-01  4.3409872280705603e-01  4.3014532158698571e-01  4.2705583370471123e-01  4.2467001516088815e-01  4.2285873058347972e-01  4.2144359513414203e-01  4.2003010645508537e-01  4.1866638350058311e-01  4.1749552725070660e-01  4.1580095919459281e-01  4.1199695444207507e-01  4.0625464812693107e-01  3.9933659814586669e-01  3.9213543118843397e-01  3.8551205165898783e-01  3.8018744284569073e-01  3.7623065547510331e-01  3.7355864080253781e-01  3.7240409219239057e-01  3.7249882917892319e-01  3.7341091725683734e-01  3.7496277795028643e-01  3.7710125578348347e-01  3.7943984550714210e-01  3.8162324383731300e-01  3.8329037010784073e-01  3.8427006396097274e-01  3.8474574833857189e-01  3.8477223501042618e-01  3.8439021348036928e-01  3.8383013964560714e-01  3.8351458728276860e-01  3.8432047775209072e-01  3.8709822702169333e-01  3.9183719460055971e-01  3.9743317729712724e-01  4.0153367001870771e-01  4.0228973041117305e-01  3.9867222742509512e-01  3.8886432369519802e-01  3.6931760775866307e-01  3.3759610813466467e-01  2.9622198097430469e-01  2.4978545505685143e-01  2.0310402483555831e-01  1.6050094980147020e-01  1.2441682664998345e-01  9.5227823207040332e-02  7.2244446177617938e-02  5.4462738771587249e-02  4.0876115090047543e-02  3.0585558356769654e-02  2.2836267230351828e-02  1.7021162921305240e-02  1.2666919553659801e-02  9.4117663336244165e-03  6.9820472215718571e-03  5.1715150130558774e-03  3.8248029801215082e-03  2.8248777405601522e-03  2.0836750650559074e-03  1.5350765072236977e-03  1.1295884875907650e-03  8.3026425171120943e-04  6.0959234991890380e-04  4.4711715239704325e-04  3.2765162905823441e-04  2.3992837124662202e-04  1.7560164720573454e-04  1.2849791732257880e-04  9.4063594604311843e-05  6.8949687165552508e-05  5.0705103634004302e-05  3.7546154941565067e-05  2.8188521787262342e-05  2.1722526383886233e-05  1.7524861995935907e-05  1.5194451828981777e-05  1.4507481230129847e-05  8.1828719371523606e-01  8.1555709650204644e-01  8.0826987179486354e-01  7.9705680468335238e-01  7.8314268821194399e-01  7.6722646016828622e-01  7.4886182090906583e-01  7.2669111149757548e-01  6.9996711920614874e-01  6.7157271125571438e-01  6.4715513468370212e-01  6.2935535211813176e-01  6.1820237401296729e-01  6.1293895259111053e-01  6.1301017004115388e-01  6.1840411385121985e-01  6.2959548264999154e-01  6.4694063021710713e-01  6.6924342902917211e-01  6.9332048793931100e-01  7.1533017203800486e-01  7.3224539083285178e-01  7.4305704194521882e-01  7.4680086446656502e-01  7.4112197710966210e-01  7.2345489554401232e-01  6.9353173054890871e-01  6.5493949128717743e-01  6.1514037834426005e-01  5.8119492872306000e-01  5.5541905979890127e-01  5.3670565068371168e-01  5.2323654549664977e-01  5.1362861644285773e-01  5.0673838571876073e-01  5.0131287410285341e-01  4.9655033392973497e-01  4.9225097469188456e-01  4.8870839400547161e-01  4.8635561753019263e-01  4.8478593302863898e-01  4.8234392937038090e-01  4.7879068959548582e-01  4.7485776337903218e-01  4.7127196201261351e-01  4.6837278906614865e-01  4.6623838781854809e-01  4.6478679824536490e-01  4.6390155640015995e-01  4.6356403115467520e-01  4.6355676023737219e-01  4.6379415789928219e-01  4.6425710102667739e-01  4.6477733216176348e-01  4.6491879327361790e-01  4.6437455163221059e-01  4.6350808087186107e-01  4.6283045876768519e-01  4.6287356541232905e-01  4.6392935937294355e-01  4.6564134085774794e-01  4.6673459390692712e-01  4.6638116212210573e-01  4.6561406602149330e-01  4.6590535360434837e-01  4.6742225130431297e-01  4.6919305004197032e-01  4.7012168980462132e-01  4.6987848510282004e-01  4.6947431025249303e-01  4.7052021270223771e-01  4.7183707834435945e-01  4.7265549088199144e-01  4.7304994724496746e-01  4.7322063378056245e-01  4.7325177501370047e-01  4.7342677769628788e-01  4.7445116669198445e-01  4.7641729427505558e-01  4.7910131650182203e-01  4.8193652383912167e-01  4.8414603032031273e-01  4.8527030549454736e-01  4.8509814334674423e-01  4.8314235629850583e-01  4.7860567108291618e-01  4.7097871072760455e-01  4.6116175897598016e-01  4.5251143116129261e-01  4.4825879318444234e-01  4.5109554218116676e-01  4.6281952410340377e-01  4.8414771754936836e-01  5.1456010779210215e-01  5.5076277849968591e-01  5.8577800571462257e-01  6.1331660252107634e-01  6.2817957253204881e-01  6.2847787829816437e-01  6.1614469561515672e-01  5.9436956032945276e-01  5.6527162811760112e-01  5.3004938596183737e-01  4.9167661848173611e-01  4.5658214425035093e-01  4.3023839140794856e-01  4.1498694971037819e-01  4.1051170587842128e-01  4.1543596702965324e-01  4.2765082031939228e-01  4.4464343725650557e-01  4.6374455544221149e-01  4.8125886516782534e-01  4.9210832591377207e-01  4.9088606527356715e-01  4.7497874555206532e-01  4.4706257651549552e-01  4.1457157465078698e-01  3.8487292205506346e-01  3.6144293929427085e-01  3.4471621702192717e-01  3.3398494382274690e-01  3.2746512529341176e-01  3.2305338408246131e-01  3.1936986902517056e-01  3.1573639383150648e-01  3.1221649240726784e-01  3.0939849223917620e-01  3.0729665595354033e-01  3.0531680834921449e-01  3.0329477266696903e-01  3.0222623743635502e-01  3.0226898666009128e-01  3.0218545929344004e-01  3.0086762511473908e-01  2.9832141371055027e-01  2.95694384753