<?xml version="1.0"?>
<VTKFile type="UnstructuredGrid"  version="0.1"  >
<UnstructuredGrid>
<Piece  NumberOfPoints="7161" NumberOfCells="13800">
<Points>
<DataArray  type="Float64"  NumberOfComponents="3"  format="ascii">0 0 0  0.01652173913043478 0 0  0.03304347826086956 0 0  0.04956521739130434 0 0  0.06608695652173913 0 0  0.08260869565217391 0 0  0.09913043478260869 0 0  0.1156521739130435 0 0  0.1321739130434783 0 0  0.148695652173913 0 0  0.1652173913043478 0 0  0.1817391304347826 0 0  0.1982608695652174 0 0  0.2147826086956522 0 0  0.2313043478260869 0 0  0.2478260869565218 0 0  0.2643478260869565 0 0  0.2808695652173913 0 0  0.2973913043478261 0 0  0.3139130434782609 0 0  0.3304347826086956 0 0  0.3469565217391304 0 0  0.3634782608695652 0 0  0.3799999999999999 0 0  0.3965217391304348 0 0  0.4130434782608696 0 0  0.4295652173913043 0 0  0.4460869565217391 0 0  0.4626086956521739 0 0  0.4791304347826086 0 0  0.4956521739130435 0 0  0.5121739130434783 0 0  0.528695652173913 0 0  0.5452173913043478 0 0  0.5617391304347825 0 0  0.5782608695652174 0 0  0.5947826086956521 0 0  0.6113043478260869 0 0  0.6278260869565218 0 0  0.6443478260869565 0 0  0.6608695652173913 0 0  0.677391304347826 0 0  0.6939130434782609 0 0  0.7104347826086956 0 0  0.7269565217391304 0 0  0.7434782608695653 0 0  0.7599999999999999 0 0  0.7765217391304348 0 0  0.7930434782608695 0 0  0.8095652173913043 0 0  0.8260869565217391 0 0  0.8426086956521739 0 0  0.8591304347826086 0 0  0.8756521739130434 0 0  0.8921739130434783 0 0  0.908695652173913 0 0  0.9252173913043478 0 0  0.9417391304347826 0 0  0.9582608695652173 0 0  0.9747826086956521 0 0  0.991304347826087 0 0  1.007826086956522 0 0  1.024347826086957 0 0  1.040869565217391 0 0  1.057391304347826 0 0  1.073913043478261 0 0  1.090434782608696 0 0  1.10695652173913 0 0  1.123478260869565 0 0  1.14 0 0  1.156521739130435 0 0  1.17304347826087 0 0  1.189565217391304 0 0  1.206086956521739 0 0  1.222608695652174 0 0  1.239130434782609 0 0  1.255652173913044 0 0  1.272173913043478 0 0  1.288695652173913 0 0  1.305217391304348 0 0  1.321739130434783 0 0  1.338260869565217 0 0  1.354782608695652 0 0  1.371304347826087 0 0  1.387826086956522 0 0  1.404347826086957 0 0  1.420869565217391 0 0  1.437391304347826 0 0  1.453913043478261 0 0  1.470434782608696 0 0  1.486956521739131 0 0  1.503478260869565 0 0  1.52 0 0  1.536521739130435 0 0  1.55304347826087 0 0  1.569565217391304 0 0  1.586086956521739 0 0  1.602608695652174 0 0  1.619130434782609 0 0  1.635652173913043 0 0  1.652173913043478 0 0  1.668695652173913 0 0  1.685217391304348 0 0  1.701739130434782 0 0  1.718260869565217 0 0  1.734782608695652 0 0  1.751304347826087 0 0  1.767826086956522 0 0  1.784347826086957 0 0  1.800869565217391 0 0  1.817391304347826 0 0  1.833913043478261 0 0  1.850434782608696 0 0  1.86695652173913 0 0  1.883478260869565 0 0  1.9 0 0  1.916521739130435 0 0  1.933043478260869 0 0  1.949565217391304 0 0  1.966086956521739 0 0  1.982608695652174 0 0  1.999130434782608 0 0  2.015652173913043 0 0  2.032173913043478 0 0  2.048695652173913 0 0  2.065217391304348 0 0  2.081739130434782 0 0  2.098260869565217 0 0  2.114782608695652 0 0  2.131304347826087 0 0  2.147826086956522 0 0  2.164347826086956 0 0  2.180869565217391 0 0  2.197391304347826 0 0  2.213913043478261 0 0  2.230434782608695 0 0  2.24695652173913 0 0  2.263478260869565 0 0  2.28 0 0  2.296521739130434 0 0  2.31304347826087 0 0  2.329565217391304 0 0  2.346086956521739 0 0  2.362608695652174 0 0  2.379130434782609 0 0  2.395652173913044 0 0  2.412173913043478 0 0  2.428695652173913 0 0  2.445217391304348 0 0  2.461739130434782 0 0  2.478260869565217 0 0  2.494782608695652 0 0  2.511304347826087 0 0  2.527826086956522 0 0  2.544347826086956 0 0  2.560869565217391 0 0  2.577391304347826 0 0  2.593913043478261 0 0  2.610434782608696 0 0  2.62695652173913 0 0  2.643478260869565 0 0  2.66 0 0  2.676521739130435 0 0  2.693043478260869 0 0  2.709565217391304 0 0  2.726086956521739 0 0  2.742608695652174 0 0  2.759130434782609 0 0  2.775652173913044 0 0  2.792173913043478 0 0  2.808695652173913 0 0  2.825217391304347 0 0  2.841739130434783 0 0  2.858260869565217 0 0  2.874782608695652 0 0  2.891304347826087 0 0  2.907826086956522 0 0  2.924347826086957 0 0  2.940869565217391 0 0  2.957391304347826 0 0  2.973913043478261 0 0  2.990434782608696 0 0  3.006956521739131 0 0  3.023478260869565 0 0  3.04 0 0  3.056521739130435 0 0  3.073043478260869 0 0  3.089565217391304 0 0  3.106086956521739 0 0  3.122608695652174 0 0  3.139130434782609 0 0  3.155652173913043 0 0  3.172173913043478 0 0  3.188695652173913 0 0  3.205217391304347 0 0  3.221739130434782 0 0  3.238260869565217 0 0  3.254782608695652 0 0  3.271304347826087 0 0  3.287826086956521 0 0  3.304347826086957 0 0  3.320869565217391 0 0  3.337391304347826 0 0  3.353913043478261 0 0  3.370434782608696 0 0  3.386956521739131 0 0  3.403478260869565 0 0  3.419999999999999 0 0  3.436521739130435 0 0  3.453043478260869 0 0  3.469565217391304 0 0  3.486086956521739 0 0  3.502608695652174 0 0  3.519130434782609 0 0  3.535652173913043 0 0  3.552173913043478 0 0  3.568695652173913 0 0  3.585217391304347 0 0  3.601739130434782 0 0  3.618260869565217 0 0  3.634782608695652 0 0  3.651304347826087 0 0  3.667826086956521 0 0  3.684347826086956 0 0  3.700869565217391 0 0  3.717391304347826 0 0  3.733913043478261 0 0  3.750434782608695 0 0  3.766956521739131 0 0  3.783478260869565 0 0  3.8 0 0  0 0.01666666666666667 0  0.01652173913043478 0.01666666666666667 0  0.03304347826086956 0.01666666666666667 0  0.04956521739130434 0.01666666666666667 0  0.06608695652173913 0.01666666666666667 0  0.08260869565217391 0.01666666666666667 0  0.09913043478260869 0.01666666666666667 0  0.1156521739130435 0.01666666666666667 0  0.1321739130434783 0.01666666666666667 0  0.148695652173913 0.01666666666666667 0  0.1652173913043478 0.01666666666666667 0  0.1817391304347826 0.01666666666666667 0  0.1982608695652174 0.01666666666666667 0  0.2147826086956522 0.01666666666666667 0  0.2313043478260869 0.01666666666666667 0  0.2478260869565218 0.01666666666666667 0  0.2643478260869565 0.01666666666666667 0  0.2808695652173913 0.01666666666666667 0  0.2973913043478261 0.01666666666666667 0  0.3139130434782609 0.01666666666666667 0  0.3304347826086956 0.01666666666666667 0  0.3469565217391304 0.01666666666666667 0  0.3634782608695652 0.01666666666666667 0  0.3799999999999999 0.01666666666666667 0  0.3965217391304348 0.01666666666666667 0  0.4130434782608696 0.01666666666666667 0  0.4295652173913043 0.01666666666666667 0  0.4460869565217391 0.01666666666666667 0  0.4626086956521739 0.01666666666666667 0  0.4791304347826086 0.01666666666666667 0  0.4956521739130435 0.01666666666666667 0  0.5121739130434783 0.01666666666666667 0  0.528695652173913 0.01666666666666667 0  0.5452173913043478 0.01666666666666667 0  0.5617391304347825 0.01666666666666667 0  0.5782608695652174 0.01666666666666667 0  0.5947826086956521 0.01666666666666667 0  0.6113043478260869 0.01666666666666667 0  0.6278260869565218 0.01666666666666667 0  0.6443478260869565 0.01666666666666667 0  0.6608695652173913 0.01666666666666667 0  0.677391304347826 0.01666666666666667 0  0.6939130434782609 0.01666666666666667 0  0.7104347826086956 0.01666666666666667 0  0.7269565217391304 0.01666666666666667 0  0.7434782608695653 0.01666666666666667 0  0.7599999999999999 0.01666666666666667 0  0.7765217391304348 0.01666666666666667 0  0.7930434782608695 0.01666666666666667 0  0.8095652173913043 0.01666666666666667 0  0.8260869565217391 0.01666666666666667 0  0.8426086956521739 0.01666666666666667 0  0.8591304347826086 0.01666666666666667 0  0.8756521739130434 0.01666666666666667 0  0.8921739130434783 0.01666666666666667 0  0.908695652173913 0.01666666666666667 0  0.9252173913043478 0.01666666666666667 0  0.9417391304347826 0.01666666666666667 0  0.9582608695652173 0.01666666666666667 0  0.9747826086956521 0.01666666666666667 0  0.991304347826087 0.01666666666666667 0  1.007826086956522 0.01666666666666667 0  1.024347826086957 0.01666666666666667 0  1.040869565217391 0.01666666666666667 0  1.057391304347826 0.01666666666666667 0  1.073913043478261 0.01666666666666667 0  1.090434782608696 0.01666666666666667 0  1.10695652173913 0.01666666666666667 0  1.123478260869565 0.01666666666666667 0  1.14 0.01666666666666667 0  1.156521739130435 0.01666666666666667 0  1.17304347826087 0.01666666666666667 0  1.189565217391304 0.01666666666666667 0  1.206086956521739 0.01666666666666667 0  1.222608695652174 0.01666666666666667 0  1.239130434782609 0.01666666666666667 0  1.255652173913044 0.01666666666666667 0  1.272173913043478 0.01666666666666667 0  1.288695652173913 0.01666666666666667 0  1.305217391304348 0.01666666666666667 0  1.321739130434783 0.01666666666666667 0  1.338260869565217 0.01666666666666667 0  1.354782608695652 0.01666666666666667 0  1.371304347826087 0.01666666666666667 0  1.387826086956522 0.01666666666666667 0  1.404347826086957 0.01666666666666667 0  1.420869565217391 0.01666666666666667 0  1.437391304347826 0.01666666666666667 0  1.453913043478261 0.01666666666666667 0  1.470434782608696 0.01666666666666667 0  1.486956521739131 0.01666666666666667 0  1.503478260869565 0.01666666666666667 0  1.52 0.01666666666666667 0  1.536521739130435 0.01666666666666667 0  1.55304347826087 0.01666666666666667 0  1.569565217391304 0.01666666666666667 0  1.586086956521739 0.01666666666666667 0  1.602608695652174 0.01666666666666667 0  1.619130434782609 0.01666666666666667 0  1.635652173913043 0.01666666666666667 0  1.652173913043478 0.01666666666666667 0  1.668695652173913 0.01666666666666667 0  1.685217391304348 0.01666666666666667 0  1.701739130434782 0.01666666666666667 0  1.718260869565217 0.01666666666666667 0  1.734782608695652 0.01666666666666667 0  1.751304347826087 0.01666666666666667 0  1.767826086956522 0.01666666666666667 0  1.784347826086957 0.01666666666666667 0  1.800869565217391 0.0166666666666666
[...]
<PointData  Vectors="Displacement"> 
<DataArray  type="Float64"  Name="Displacement"  NumberOfComponents="3" format="ascii">0.0000000000000000e+00 0.0000000000000000e+00 0.0000000000000000e+00  6.8065892002872263e-06 4.5210158698237618e-06 0.0000000000000000e+00  1.3119722300560732e-05 9.1720917165307320e-06 0.0000000000000000e+00  1.9423640330644154e-05 1.5670856734573097e-05 0.0000000000000000e+00  2.5780784543481359e-05 2.4302570193234512e-05 0.0000000000000000e+00  3.2201874773387020e-05 3.5173245805712675e-05 0.0000000000000000e+00  3.8688422016644151e-05 4.8343490817837465e-05 0.0000000000000000e+00  4.5237574984891663e-05 6.3852305587113717e-05 0.0000000000000000e+00  5.1832554342598681e-05 8.1713893348096339e-05 0.0000000000000000e+00  5.8424527429942543e-05 1.0189721968692858e-04 0.0000000000000000e+00  6.4922418714010038e-05 1.2429728360974441e-04 0.0000000000000000e+00  7.1203650090820127e-05 1.4871670027529201e-04 0.0000000000000000e+00  7.7137447832304826e-05 1.7486976282600228e-04 0.0000000000000000e+00  8.2606513552130320e-05 2.0240257091786145e-04 0.0000000000000000e+00  8.7520787865312123e-05 2.3091968320729402e-04 0.0000000000000000e+00  9.1824842482056402e-05 2.6001356087298734e-04 0.0000000000000000e+00  9.5502349186929475e-05 2.8929704762763376e-04 0.0000000000000000e+00  9.8577867937982663e-05 3.1843712475162263e-04 0.0000000000000000e+00  1.0111253534322865e-04 3.4718119816195972e-04 0.0000000000000000e+00  1.0319221064220160e-04 3.7536432323395977e-04 0.0000000000000000e+00  1.0491361951678653e-04 4.0289578824358321e-04 0.0000000000000000e+00  1.0637682709393726e-04 4.2973772703849302e-04 0.0000000000000000e+00  1.0768719504772834e-04 4.5589105618922958e-04 0.0000000000000000e+00  1.0896274166753047e-04 4.8139260378065175e-04 0.0000000000000000e+00  1.1033838682481411e-04 5.0631131923782071e-04 0.0000000000000000e+00  1.1195228370633379e-04 5.3072760591256908e-04 0.0000000000000000e+00  1.1390018320515815e-04 5.5469733184442471e-04 0.0000000000000000e+00  1.1618515374983638e-04 5.7823535486633485e-04 0.0000000000000000e+00  1.1874029020371665e-04 6.0135211290057158e-04 0.0000000000000000e+00  1.2151151592026937e-04 6.2409358053785730e-04 0.0000000000000000e+00  1.2448955294511670e-04 6.4652935525827447e-04 0.0000000000000000e+00  1.2768383093282693e-04 6.6873189228628359e-04 0.0000000000000000e+00  1.3109947554447383e-04 6.9077856485381917e-04 0.0000000000000000e+00  1.3473087624299166e-04 7.1275741864466001e-04 0.0000000000000000e+00  1.3856379897699903e-04 7.3476474810522767e-04 0.0000000000000000e+00  1.4257971440268641e-04 7.5689630875272148e-04 0.0000000000000000e+00  1.4675845027342413e-04 7.7923830478354012e-04 0.0000000000000000e+00  1.5107859789438040e-04 8.0186253676112445e-04 0.0000000000000000e+00  1.5551736085957414e-04 8.2482680443587270e-04 0.0000000000000000e+00  1.6005250114250967e-04 8.4817963800684593e-04 0.0000000000000000e+00  1.6466674884036561e-04 8.7196379740341122e-04 0.0000000000000000e+00  1.6934973019792310e-04 8.9621279442958404e-04 0.0000000000000000e+00  1.7409418731673102e-04 9.2094611514329623e-04 0.0000000000000000e+00  1.7889148528131544e-04 9.4616984052873425e-04 0.0000000000000000e+00  1.8372997400607514e-04 9.7188114086679584e-04 0.0000000000000000e+00  1.8859607338146171e-04 9.9807288112411163e-04 0.0000000000000000e+00  1.9347646477905724e-04 1.0247364749056242e-03 0.0000000000000000e+00  1.9835988342201152e-04 1.0518626006560540e-03 0.0000000000000000e+00  2.0323766409178793e-04 1.0794406735958274e-03 0.0000000000000000e+00  2.0810358529785704e-04 1.1074587529306809e-03 0.0000000000000000e+00  2.1295345815756372e-04 1.1359029877350683e-03 0.0000000000000000e+00  2.1778381397894153e-04 1.1647569762975327e-03 0.0000000000000000e+00  2.2259134530040286e-04 1.1940030920665429e-03 0.0000000000000000e+00  2.2737387298832278e-04 1.2236246305951787e-03 0.0000000000000000e+00  2.3213115421014577e-04 1.2536055488277084e-03 0.0000000000000000e+00  2.3686366137230100e-04 1.2839278124546476e-03 0.0000000000000000e+00  2.4157042381939845e-04 1.3145701136154573e-03 0.0000000000000000e+00  2.4624809371837829e-04 1.3455090613918299e-03 0.0000000000000000e+00  2.5089156388659583e-04 1.3767219699962279e-03 0.0000000000000000e+00  2.5549657391002494e-04 1.4081908483175737e-03 0.0000000000000000e+00  2.6006338241610507e-04 1.4399045194575450e-03 0.0000000000000000e+00  2.6459763212093349e-04 1.4718537066309657e-03 0.0000000000000000e+00  2.6910546742208021e-04 1.5040215021006082e-03 0.0000000000000000e+00  2.7358738298838877e-04 1.5363807976461776e-03 0.0000000000000000e+00  2.7803813948790314e-04 1.5689029995687852e-03 0.0000000000000000e+00  2.8245242916341150e-04 1.6015678169522263e-03 0.0000000000000000e+00  2.8682964167318507e-04 1.6343638553594228e-03 0.0000000000000000e+00  2.9117341802957714e-04 1.6672808048360794e-03 0.0000000000000000e+00  2.9548691876864669e-04 1.7003009913475521e-03 0.0000000000000000e+00  2.9976883850401059e-04 1.7333997655123929e-03 0.0000000000000000e+00  3.0401553010799194e-04 1.7665557064505879e-03 0.0000000000000000e+00  3.0822612898933976e-04 1.7997553695057360e-03 0.0000000000000000e+00  3.1240310565545129e-04 1.8329884998620890e-03 0.0000000000000000e+00  3.1655063950827844e-04 1.8662436143624471e-03 0.0000000000000000e+00  3.2067316516027938e-04 1.8995065865659165e-03 0.0000000000000000e+00  3.2477389860260670e-04 1.9327597928029954e-03 0.0000000000000000e+00  3.2885321104414038e-04 1.9659822325297700e-03 0.0000000000000000e+00  3.3290850595288487e-04 1.9991533957518085e-03 0.0000000000000000e+00  3.3693642587150654e-04 2.0322586942576062e-03 0.0000000000000000e+00  3.4093553588946648e-04 2.0652925738996165e-03 0.0000000000000000e+00  3.4490831910289179e-04 2.0982585257907421e-03 0.0000000000000000e+00  3.4886195895444206e-04 2.1311670844741380e-03 0.0000000000000000e+00  3.5280873018840987e-04 2.1640351873302281e-03 0.0000000000000000e+00  3.5676783943433278e-04 2.1968887083899046e-03 0.0000000000000000e+00  3.6076885941064386e-04 2.2297652774121630e-03 0.0000000000000000e+00  3.6485466849164324e-04 2.2627127237978160e-03 0.0000000000000000e+00  3.6907996616725343e-04 2.2957791546715425e-03 0.0000000000000000e+00  3.7350153188707631e-04 2.3290001917923324e-03 0.0000000000000000e+00  3.7816328313326075e-04 2.3624019491382685e-03 0.0000000000000000e+00  3.8308386044829003e-04 2.3960222494176973e-03 0.0000000000000000e+00  3.8824627227888349e-04 2.4299366405121192e-03 0.0000000000000000e+00  3.9359229699578919e-04 2.4642828578518841e-03 0.0000000000000000e+00  3.9903039787933899e-04 2.4992700940495477e-03 0.0000000000000000e+00  4.0445880651612700e-04 2.5351592496101962e-03 0.0000000000000000e+00  4.0979786217097014e-04 2.5722201439341143e-03 0.0000000000000000e+00  4.1501729046349256e-04 2.6106896834838743e-03 0.0000000000000000e+00  4.2014376177474403e-04 2.6507580726356766e-03 0.0000000000000000e+00  4.2524469889359108e-04 2.6925853944431599e-03 0.0000000000000000e+00  4.3039744212508449e-04 2.7363280636956379e-03 0.0000000000000000e+00  4.3566540292279572e-04 2.7821479491623629e-03 0.0000000000000000e+00  4.4109381952216165e-04 2.8302020525228853e-03 0.0000000000000000e+00  4.4671754100214397e-04 2.8806335892735324e-03 0.0000000000000000e+00  4.5256098324668976e-04 2.9335659501465230e-03 0.0000000000000000e+00  4.5861183756214571e-04 2.9890761755588966e-03 0.0000000000000000e+00  4.6477403838559867e-04 3.0471293084274346e-03 0.0000000000000000e+00  4.7084218148419363e-04 3.1074933158013783e-03 0.0000000000000000e+00  4.7653711375906052e-04 3.1696968996472973e-03 0.0000000000000000e+00  4.8159245801869045e-04 3.2330780634301083e-03 0.0000000000000000e+00  4.8584074567450464e-04 3.2969077800897428e-03 0.0000000000000000e+00  4.8925364444372336e-04 3.3605277898311782e-03 0.0000000000000000e+00  4.9192888549611619e-04 3.4234460055294637e-03 0.0000000000000000e+00  4.9405009615598346e-04 3.4853716660673329e-03 0.0000000000000000e+00  4.9584727527890015e-04 3.5462027174369315e-03 0.0000000000000000e+00  4.9757047718999143e-04 3.6059843890655133e-03 0.0000000000000000e+00  4.9947435936449234e-04 3.6648568378853429e-03 0.0000000000000000e+00  5.0179542153206270e-04 3.7229978375805171e-03 0.0000000000000000e+00  5.0470449388181644e-04 3.7805615475871041e-03 0.0000000000000000e+00  5.0825695646302706e-04 3.8376420418380730e-03 0.0000000000000000e+00  5.1239044480941244e-04 3.8942872797010342e-03 0.0000000000000000e+00  5.1697360734407867e-04 3.9505441813694640e-03 0.0000000000000000e+00  5.2186437122507686e-04 4.0064928381985587e-03 0.0000000000000000e+00  5.2694851037182126e-04 4.0622548973059738e-03 0.0000000000000000e+00  5.3216204956333985e-04 4.1179792580979882e-03 0.0000000000000000e+00  5.3748637638088089e-04 4.1738111504813777e-03 0.0000000000000000e+00  5.4292854352987034e-04 4.2298712581267384e-03 0.0000000000000000e+00  5.4850032013116208e-04 4.2862473946119230e-03 0.0000000000000000e+00  5.5419641066183219e-04 4.3429923611927280e-03 0.0000000000000000e+00  5.5998875675371653e-04 4.4001346210838944e-03 0.0000000000000000e+00  5.6584618590849384e-04 4.4576929719682057e-03 0.0000000000000000e+00  5.7174724713711367e-04 4.5156727487340982e-03 0.0000000000000000e+00  5.7766066383266757e-04 4.5740474868725574e-03 0.0000000000000000e+00  5.8353026687761329e-04 4.6327652477659289e-03 0.0000000000000000e+00  5.8930756551000315e-04 4.6917807098518236e-03 0.0000000000000000e+00  5.9498469331384818e-04 4.7510662231876125e-03 0.0000000000000000e+00  6.0058955153011032e-04 4.8105932800473362e-03 0.0000000000000000e+00  6.0614983505121974e-04 4.8703060240907594e-03 0.0000000000000000e+00  6.1166009252805421e-04 4.9301149896015693e-03 0.0000000000000000e+00  6.1709250833659197e-04 4.9899251336214118e-03 0.0000000000000000e+00  6.2242489829488314e-04 5.0496531570801001e-03 0.0000000000000000e+00  6.2763852963476088e-04 5.1092196719549881e-03 0.0000000000000000e+00  6.3272142118130700e-04 5.1685523060320503e-03 0.0000000000000000e+00  6.3767337167305361e-04 5.2275882975137715e-03 0.0000000000000000e+00  6.4250489040999239e-04 5.2862716611690704e-03 0.0000000000000000e+00  6.4723423726156977e-04 5.3445503380703703e-03 0.0000000000000000e+00  6.5188314847641955e-04 5.4023741774548543e-03 0.0000000000000000e+00  6.5647438820042655e-04 5.4596977162512340e-03 0.0000000000000000e+00  6.6103495927685556e-04 5.5164883859546319e-03 0.0000000000000000e+00  6.6559767168339519e-04 5.5727325105809789e-03 0.0000000000000000e+00  6.7020019335053797e-04 5.6284446647296782e-03 0.0000000000000000e+00  6.7489330973201649e-04 5.6836829439209291e-03 0.0000000000000000e+00  6.7974020664611045e-04 5.7385431829616723e-03 0.0000000000000000e+00  6.8479630993317320e-04 5.7931513607964542e-03 0.0000000000000000e+00  6.9010440866692721e-04 5.8476833449159424e-03 0.0000000000000000e+00  6.9569275497945865e-04 5.9023742431537577e-03 0.0000000000000000e+00  7.0156387082112625e-04 5.9575098832039628e-03 0.0000000000000000e+00  7.0769511938573203e-04 6.0134126398957728e-03 0.0000000000000000e+00  7.1405386220548190e-04 6.0704212272722057e-03 0.0000000000000000e+00  7.2062782021070540e-04 6.1288692144125167e-03 0.0000000000000000e+00  7.2743588166380351e-04 6.1890567263842480e-03 0.0000000000000000e+00  7.3449283423832447e-04 6.2512297911102880e-03 0.0000000000000000e+00  7.4178525321932779e-04 6.3155792626101021e-03 0.0000000000000000e+00  7.4929057696533055e-04 6.3822480903918590e-03 0.0000000000000000e+00  7.5699689275236413e-04 6.4513292781469269e-03 0.0000000000000000e+00  7.6488568929296286e-04 6.5228564026891308e-03 0.0000000000000000e+00  7.7291801637450564e-04 6.5967981269659977e-03 0.0000000000000000e+00  7.8103125971446593e-04 6.6730537155847511e-03 0.0000000000000000e+00  7.8913751467397919e-04 6.7514489265625647e-03 0.0000000000000000e+00  7.9713131075376785e-04 6.8317409187940003e-03 0.0000000000000000e+00  8.0491062808624582e-04 6.9136337186438959e-03 0.0000000000000000e+00  8.1238902654334007e-04 6.9967923704158993e-03 0.0000000000000000e+00  8.1949743629661405e-04 7.0808559456860213e-03 0.0000000000000000e+00  8.2618718988825110e-04 7.1654521295048245e-03 0.0000000000000000e+00  8.3242627908278655e-04 7.2502061637407834e-03 0.0000000000000000e+00  8.3819292445613076e-04 7.3347481124285260e-03 0.0000000000000000e+00  8.4347816909471299e-04 7.4187277416558270e-03 0.0000000000000000e+00  8.4829321077773030e-04 7.5018306881274059e-03 0.0000000000000000e+00  8.5267091171974704e-04 7.5837864956484254e-03 0.0000000000000000e+00  8.5666456375132235e-04 7.6643706879146256e-03 0.0000000000000000e+00  8.6034367905282467e-04 7.7434006007571750e-03 0.0000000000000000e+00  8.6378994442491296e-04 7.8207296912829478e-03 0.0000000000000000e+00  8.6709512221560918e-04 7.8962442351659789e-03 0.0000000000000000e+00  8.7036004017641084e-04 7.9698662118163257e-03 0.0000000000000000e+00  8.7369921354911863e-04 8.0415749061224662e-03 0.0000000000000000e+00  8.7724911812593674e-04 8.1114448766163808e-03 0.0000000000000000e+00  8.8116329774266648e-04 8.1796805885782729e-03 0.0000000000000000e+00  8.8557659355157161e-04 8.2466392801638037e-03 0.0000000000000000e+00  8.9054607691840327e-04 8.3128360204928059e-03 0.0000000000000000e+00  8.9602338950787639e-04 8.3789054466629608e-03 0.0000000000000000e+00  9.0189511974750314e-04 8.4454996758422732e-03 0.0000000000000000e+00  9.0800968277336366e-04 8.5131530604827168e-03 0.0000000000000000e+00  9.1420147051573673e-04 8.5822068776068988e-03 0.0000000000000000e+00  9.2036332235839160e-04 8.6528402791876211e-03 0.0000000000000000e+00  9.2651243238584436e-04 8.7251841056389893e-03 0.0000000000000000e+00  9.3276334077275124e-04 8.7994113592654490e-03 0.0000000000000000e+00  9.3919625864663915e-04 8.8756682153556012e-03 0.0000000000000000e+00  9.4578386636679217e-04 8.9539495425782871e-03 0.0000000000000000e+00  9.5243855874312480e-04 9.0341033104691729e-03 0.0000000000000000e+00  9.5905791328647339e-04 9.1158979983110306e-03 0.0000000000000000e+00  9.6553619413141268e-04 9.1990334097142735e-03 0.0000000000000000e+00  9.7179421488297513e-04 9.2831463698404143e-03 0.0000000000000000e+00  9.7782831413172609e-04 9.3679006617154881e-03 0.0000000000000000e+00  9.8374830893957358e-04 9.4531022033668421e-03 0.0000000000000000e+00  9.8981148104878864e-04 9.5387578458777725e-03 0.0000000000000000e+00  9.9647196694147727e-04 9.6250872470516492e-03 0.0000000000000000e+00  1.0043839207884574e-03 9.7124662959944732e-03 0.0000000000000000e+00  1.0141275714033423e-03 9.8011460845555624e-03 0.0000000000000000e+00  1.0255760148634278e-03 9.8907642412486910e-03 0.0000000000000000e+00  1.0377365844183404e-03 9.9803841350823430e-03 0.0000000000000000e+00  1.0495625699960738e-03 1.0069255809871808e-02 0.0000000000000000e+00  1.0605269570833642e-03 1.0157165770724123e-02 0.0000000000000000e+00  1.0705073037347217e-03 1.0244207671129704e-02 0.0000000000000000e+00  1.0795418680773160e-03 1.0330546511971895e-02 0.0000000000000000e+00  1.0877017299981224e-03 1.0416326553790659e-02 0.0000000000000000e+00  1.0950478984723374e-03 1.0501651561440489e-02 0.0000000000000000e+00  1.1016233800851373e-03 1.0586586291942715e-02 0.0000000000000000e+00  1.1074564097782787e-03 1.0671162609223808e-02 0.0000000000000000e+00  1.1125659824992844e-03 1.0755386171644048e-02 0.0000000000000000e+00  1.1169668943666173e-03 1.0839242497204686e-02 0.0000000000000000e+00  1.1206738327642260e-03 1.0922701947495684e-02 0.0000000000000000e+00  1.1237048341969735e-03 1.1005723682877973e-02 0.0000000000000000e+00  1.1260845267264466e-03 1.1088259028150476e-02 0.0000000000000000e+00  1.1278473915223945e-03 1.1170254893866692e-02 0.0000000000000000e+00  1.1290410080449641e-03 1.1251657941985425e-02 0.0000000000000000e+00  1.1297289749913795e-03 1.1332420107354611e-02 0.0000000000000000e+00  1.1299929506164686e-03 1.1412505928955829e-02 0.0000000000000000e+00  1.1299330185222634e-03 1.1491901929247726e-02 0.0000000000000000e+00  1.1296653084209170e-03 1.1570627985039382e-02 0.0000000000000000e+00  1.1293153747520982e-03 1.1648750119280897e-02 0.0000000000000000e+00  1.1290049899410947e-03 1.1726392845595440e-02 0.0000000000000000e+00  1.1288277871120292e-03 1.1803744632975744e-02 0.0000000000000000e+00  1.1287995842670950e-03 1.1881027831274905e-02 0.0000000000000000e+00  0.0000000000000000e+00 0.0000000000000000e+00 0.0000000000000000e+00  3.4171049370432032e-06 1.9969168052799480e-06 0.0000000000000000e+00  7.7202726014084135e-06 6.5683519654417266e-06 0.0000000000000000e+00  1.1960855954314796e-05 1.3052051250453893e-05 0.0000000000000000e+00  1.6161691783302399e-05 2.1664099522595376e-05 0.0000000000000000e+00  2.0359447696183934e-05 3.2508907415216651e-05 0.0000000000000000e+00  2.4580076911671624e-05 4.5646971395111392e-05 0.0000000000000000e+00  2.8846230036815915e-05 6.1118212842012170e-05 0.0000000000000000e+00  3.3177970666801037e-05 7.8944487267876027e-05 0.0000000000000000e+00  3.7581828844464855e-05 9.9111175128761136e-05 0.0000000000000000e+00  4.2038631302239068e-05 1.2153156035021942e-04 0.0000000000000000e+00  4.6503761999049646e-05 1.4601981354683702e-04 0.0000000000000000e+00  5.0916791168811642e-05 1.7229267233993424e-04 0.0000000000000000e+00  5.5211963691592967e-05 1.9999184427208169e-04 0.0000000000000000e+00  5.9325082205304404e-05 2.2871359217607650e-04 0.0000000000000000e+00  6.3197075812570629e-05 2.5803937138939791e-04 0.0000000000000000e+00  6.6777439084769779e-05 2.8756780335565025e-04 0.0000000000000000e+00  7.0030605112581535e-05 3.1694877364813004e-04 0.0000000000000000e+00  7.2944004813098960e-05 3.4591323352536001e-04 0.0000000000000000e+00  7.5531829630843346e-05 3.7428492400179273e-04 0.0000000000000000e+00  7.7831177486083848e-05 4.0196774533725430e-04 0.0000000000000000e+00  7.9895020509013846e-05 4.2892031105216336e-04 0.0000000000000000e+00  8.1789825321670935e-05 4.5513679563717862e-04 0.0000000000000000e+00  8.3601026981323725e-05 4.8064280415956813e-04 0.0000000000000000e+00  8.5441021130337562e-05 5.0549638739071643e-04 0.0000000000000000e+00  8.7445342938914991e-05 5.2977999607294068e-04 0.0000000000000000e+00  8.9736886038659593e-05 5.5357972099063764e-04 0.0000000000000000e+00  9.2360934368326936e-05 5.7696001194080452e-04 0.0000000000000000e+00  9.5262192078007793e-05 5.9995732562496777e-04 0.0000000000000000e+00  9.8357285156929964e-05 6.2260419017694637e-04 0.0000000000000000e+00  1.0160737051918279e-04 6.4495049997644808e-04 0.0000000000000000e+00  1.0500748206593251e-04 6.6706270649832366e-04 0.0000000000000000e+00  1.0855324238282799e-04 6.8902066172303730e-04 0.0000000000000000e+00  1.1223082559491309e-04 7.1091617108823366e-04 0.0000000000000000e+00  1.1602158666374075e-04 7.3284761506505120e-04 0.0000000000000000e+00  1.1990878364341690e-04 7.5491126225570601e-04 0.0000000000000000e+00  1.2387983992844908e-04 7.7719347646207988e-04 0.0000000000000000e+00  1.2792422549910752e-04 7.9976666707886755e-04 0.0000000000000000e+00  1.3203011001832851e-04 8.2268905404194272e-04 0.0000000000000000e+00  1.3618404636209930e-04 8.4600763444982326e-04 0.0000000000000000e+00  1.4037667045670632e-04 8.6976179835981926e-04 0.0000000000000000e+00  1.4460774740253948e-04 8.9398256970780001e-04 0.0000000000000000e+00  1.4888190213117118e-04 9.1868941268297881e-04 0.0000000000000000e+00  1.5320121979226108e-04 9.4389004981358454e-04 0.0000000000000000e+00  1.5756178915601372e-04 9.6958340300561444e-04 0.0000000000000000e+00  1.6195472487835234e-04 9.9576313145492202e-04 0.0000000000000000e+00  1.6636931427350233e-04 1.0224202477582074e-03 0.0000000000000000e+00  1.7079610934326713e-04 1.0495443796711967e-03 0.0000000000000000e+00  1.7522812724012968e-04 1.0771237404040284e-03 0.0000000000000000e+00  1.7966071704421971e-04 1.1051452293263605e-03 0.0000000000000000e+00  1.8409157819710155e-04 1.1335944128742829e-03 0.0000000000000000e+00  1.8851910499997007e-04 1.1624549020737443e-03 0.0000000000000000e+00  1.9294079391280838e-04 1.1917088246092098e-03 0.0000000000000000e+