<?xml version="1.0"?>
<VTKFile type="UnstructuredGrid"  version="0.1"  >
<UnstructuredGrid>
<Piece  NumberOfPoints="7161" NumberOfCells="13800">
<Points>
<DataArray  type="Float64"  NumberOfComponents="3"  format="ascii">0 0 0  0.01652173913043478 0 0  0.03304347826086956 0 0  0.04956521739130434 0 0  0.06608695652173913 0 0  0.08260869565217391 0 0  0.09913043478260869 0 0  0.1156521739130435 0 0  0.1321739130434783 0 0  0.148695652173913 0 0  0.1652173913043478 0 0  0.1817391304347826 0 0  0.1982608695652174 0 0  0.2147826086956522 0 0  0.2313043478260869 0 0  0.2478260869565218 0 0  0.2643478260869565 0 0  0.2808695652173913 0 0  0.2973913043478261 0 0  0.3139130434782609 0 0  0.3304347826086956 0 0  0.3469565217391304 0 0  0.3634782608695652 0 0  0.3799999999999999 0 0  0.3965217391304348 0 0  0.4130434782608696 0 0  0.4295652173913043 0 0  0.4460869565217391 0 0  0.4626086956521739 0 0  0.4791304347826086 0 0  0.4956521739130435 0 0  0.5121739130434783 0 0  0.528695652173913 0 0  0.5452173913043478 0 0  0.5617391304347825 0 0  0.5782608695652174 0 0  0.5947826086956521 0 0  0.6113043478260869 0 0  0.6278260869565218 0 0  0.6443478260869565 0 0  0.6608695652173913 0 0  0.677391304347826 0 0  0.6939130434782609 0 0  0.7104347826086956 0 0  0.7269565217391304 0 0  0.7434782608695653 0 0  0.7599999999999999 0 0  0.7765217391304348 0 0  0.7930434782608695 0 0  0.8095652173913043 0 0  0.8260869565217391 0 0  0.8426086956521739 0 0  0.8591304347826086 0 0  0.8756521739130434 0 0  0.8921739130434783 0 0  0.908695652173913 0 0  0.9252173913043478 0 0  0.9417391304347826 0 0  0.9582608695652173 0 0  0.9747826086956521 0 0  0.991304347826087 0 0  1.007826086956522 0 0  1.024347826086957 0 0  1.040869565217391 0 0  1.057391304347826 0 0  1.073913043478261 0 0  1.090434782608696 0 0  1.10695652173913 0 0  1.123478260869565 0 0  1.14 0 0  1.156521739130435 0 0  1.17304347826087 0 0  1.189565217391304 0 0  1.206086956521739 0 0  1.222608695652174 0 0  1.239130434782609 0 0  1.255652173913044 0 0  1.272173913043478 0 0  1.288695652173913 0 0  1.305217391304348 0 0  1.321739130434783 0 0  1.338260869565217 0 0  1.354782608695652 0 0  1.371304347826087 0 0  1.387826086956522 0 0  1.404347826086957 0 0  1.420869565217391 0 0  1.437391304347826 0 0  1.453913043478261 0 0  1.470434782608696 0 0  1.486956521739131 0 0  1.503478260869565 0 0  1.52 0 0  1.536521739130435 0 0  1.55304347826087 0 0  1.569565217391304 0 0  1.586086956521739 0 0  1.602608695652174 0 0  1.619130434782609 0 0  1.635652173913043 0 0  1.652173913043478 0 0  1.668695652173913 0 0  1.685217391304348 0 0  1.701739130434782 0 0  1.718260869565217 0 0  1.734782608695652 0 0  1.751304347826087 0 0  1.767826086956522 0 0  1.784347826086957 0 0  1.800869565217391 0 0  1.817391304347826 0 0  1.833913043478261 0 0  1.850434782608696 0 0  1.86695652173913 0 0  1.883478260869565 0 0  1.9 0 0  1.916521739130435 0 0  1.933043478260869 0 0  1.949565217391304 0 0  1.966086956521739 0 0  1.982608695652174 0 0  1.999130434782608 0 0  2.015652173913043 0 0  2.032173913043478 0 0  2.048695652173913 0 0  2.065217391304348 0 0  2.081739130434782 0 0  2.098260869565217 0 0  2.114782608695652 0 0  2.131304347826087 0 0  2.147826086956522 0 0  2.164347826086956 0 0  2.180869565217391 0 0  2.197391304347826 0 0  2.213913043478261 0 0  2.230434782608695 0 0  2.24695652173913 0 0  2.263478260869565 0 0  2.28 0 0  2.296521739130434 0 0  2.31304347826087 0 0  2.329565217391304 0 0  2.346086956521739 0 0  2.362608695652174 0 0  2.379130434782609 0 0  2.395652173913044 0 0  2.412173913043478 0 0  2.428695652173913 0 0  2.445217391304348 0 0  2.461739130434782 0 0  2.478260869565217 0 0  2.494782608695652 0 0  2.511304347826087 0 0  2.527826086956522 0 0  2.544347826086956 0 0  2.560869565217391 0 0  2.577391304347826 0 0  2.593913043478261 0 0  2.610434782608696 0 0  2.62695652173913 0 0  2.643478260869565 0 0  2.66 0 0  2.676521739130435 0 0  2.693043478260869 0 0  2.709565217391304 0 0  2.726086956521739 0 0  2.742608695652174 0 0  2.759130434782609 0 0  2.775652173913044 0 0  2.792173913043478 0 0  2.808695652173913 0 0  2.825217391304347 0 0  2.841739130434783 0 0  2.858260869565217 0 0  2.874782608695652 0 0  2.891304347826087 0 0  2.907826086956522 0 0  2.924347826086957 0 0  2.940869565217391 0 0  2.957391304347826 0 0  2.973913043478261 0 0  2.990434782608696 0 0  3.006956521739131 0 0  3.023478260869565 0 0  3.04 0 0  3.056521739130435 0 0  3.073043478260869 0 0  3.089565217391304 0 0  3.106086956521739 0 0  3.122608695652174 0 0  3.139130434782609 0 0  3.155652173913043 0 0  3.172173913043478 0 0  3.188695652173913 0 0  3.205217391304347 0 0  3.221739130434782 0 0  3.238260869565217 0 0  3.254782608695652 0 0  3.271304347826087 0 0  3.287826086956521 0 0  3.304347826086957 0 0  3.320869565217391 0 0  3.337391304347826 0 0  3.353913043478261 0 0  3.370434782608696 0 0  3.386956521739131 0 0  3.403478260869565 0 0  3.419999999999999 0 0  3.436521739130435 0 0  3.453043478260869 0 0  3.469565217391304 0 0  3.486086956521739 0 0  3.502608695652174 0 0  3.519130434782609 0 0  3.535652173913043 0 0  3.552173913043478 0 0  3.568695652173913 0 0  3.585217391304347 0 0  3.601739130434782 0 0  3.618260869565217 0 0  3.634782608695652 0 0  3.651304347826087 0 0  3.667826086956521 0 0  3.684347826086956 0 0  3.700869565217391 0 0  3.717391304347826 0 0  3.733913043478261 0 0  3.750434782608695 0 0  3.766956521739131 0 0  3.783478260869565 0 0  3.8 0 0  0 0.01666666666666667 0  0.01652173913043478 0.01666666666666667 0  0.03304347826086956 0.01666666666666667 0  0.04956521739130434 0.01666666666666667 0  0.06608695652173913 0.01666666666666667 0  0.08260869565217391 0.01666666666666667 0  0.09913043478260869 0.01666666666666667 0  0.1156521739130435 0.01666666666666667 0  0.1321739130434783 0.01666666666666667 0  0.148695652173913 0.01666666666666667 0  0.1652173913043478 0.01666666666666667 0  0.1817391304347826 0.01666666666666667 0  0.1982608695652174 0.01666666666666667 0  0.2147826086956522 0.01666666666666667 0  0.2313043478260869 0.01666666666666667 0  0.2478260869565218 0.01666666666666667 0  0.2643478260869565 0.01666666666666667 0  0.2808695652173913 0.01666666666666667 0  0.2973913043478261 0.01666666666666667 0  0.3139130434782609 0.01666666666666667 0  0.3304347826086956 0.01666666666666667 0  0.3469565217391304 0.01666666666666667 0  0.3634782608695652 0.01666666666666667 0  0.3799999999999999 0.01666666666666667 0  0.3965217391304348 0.01666666666666667 0  0.4130434782608696 0.01666666666666667 0  0.4295652173913043 0.01666666666666667 0  0.4460869565217391 0.01666666666666667 0  0.4626086956521739 0.01666666666666667 0  0.4791304347826086 0.01666666666666667 0  0.4956521739130435 0.01666666666666667 0  0.5121739130434783 0.01666666666666667 0  0.528695652173913 0.01666666666666667 0  0.5452173913043478 0.01666666666666667 0  0.5617391304347825 0.01666666666666667 0  0.5782608695652174 0.01666666666666667 0  0.5947826086956521 0.01666666666666667 0  0.6113043478260869 0.01666666666666667 0  0.6278260869565218 0.01666666666666667 0  0.6443478260869565 0.01666666666666667 0  0.6608695652173913 0.01666666666666667 0  0.677391304347826 0.01666666666666667 0  0.6939130434782609 0.01666666666666667 0  0.7104347826086956 0.01666666666666667 0  0.7269565217391304 0.01666666666666667 0  0.7434782608695653 0.01666666666666667 0  0.7599999999999999 0.01666666666666667 0  0.7765217391304348 0.01666666666666667 0  0.7930434782608695 0.01666666666666667 0  0.8095652173913043 0.01666666666666667 0  0.8260869565217391 0.01666666666666667 0  0.8426086956521739 0.01666666666666667 0  0.8591304347826086 0.01666666666666667 0  0.8756521739130434 0.01666666666666667 0  0.8921739130434783 0.01666666666666667 0  0.908695652173913 0.01666666666666667 0  0.9252173913043478 0.01666666666666667 0  0.9417391304347826 0.01666666666666667 0  0.9582608695652173 0.01666666666666667 0  0.9747826086956521 0.01666666666666667 0  0.991304347826087 0.01666666666666667 0  1.007826086956522 0.01666666666666667 0  1.024347826086957 0.01666666666666667 0  1.040869565217391 0.01666666666666667 0  1.057391304347826 0.01666666666666667 0  1.073913043478261 0.01666666666666667 0  1.090434782608696 0.01666666666666667 0  1.10695652173913 0.01666666666666667 0  1.123478260869565 0.01666666666666667 0  1.14 0.01666666666666667 0  1.156521739130435 0.01666666666666667 0  1.17304347826087 0.01666666666666667 0  1.189565217391304 0.01666666666666667 0  1.206086956521739 0.01666666666666667 0  1.222608695652174 0.01666666666666667 0  1.239130434782609 0.01666666666666667 0  1.255652173913044 0.01666666666666667 0  1.272173913043478 0.01666666666666667 0  1.288695652173913 0.01666666666666667 0  1.305217391304348 0.01666666666666667 0  1.321739130434783 0.01666666666666667 0  1.338260869565217 0.01666666666666667 0  1.354782608695652 0.01666666666666667 0  1.371304347826087 0.01666666666666667 0  1.387826086956522 0.01666666666666667 0  1.404347826086957 0.01666666666666667 0  1.420869565217391 0.01666666666666667 0  1.437391304347826 0.01666666666666667 0  1.453913043478261 0.01666666666666667 0  1.470434782608696 0.01666666666666667 0  1.486956521739131 0.01666666666666667 0  1.503478260869565 0.01666666666666667 0  1.52 0.01666666666666667 0  1.536521739130435 0.01666666666666667 0  1.55304347826087 0.01666666666666667 0  1.569565217391304 0.01666666666666667 0  1.586086956521739 0.01666666666666667 0  1.602608695652174 0.01666666666666667 0  1.619130434782609 0.01666666666666667 0  1.635652173913043 0.01666666666666667 0  1.652173913043478 0.01666666666666667 0  1.668695652173913 0.01666666666666667 0  1.685217391304348 0.01666666666666667 0  1.701739130434782 0.01666666666666667 0  1.718260869565217 0.01666666666666667 0  1.734782608695652 0.01666666666666667 0  1.751304347826087 0.01666666666666667 0  1.767826086956522 0.01666666666666667 0  1.784347826086957 0.01666666666666667 0  1.800869565217391 0.0166666666666666
[...]
<PointData  Scalars="rho_bar"> 
<DataArray  type="Float64"  Name="rho_bar"  format="ascii">8.2241681615584716e-01  8.1900417725125085e-01  8.1615121128224788e-01  8.1272468478535809e-01  8.0845309120966480e-01  8.0341646008569434e-01  7.9787024592189637e-01  7.9212748188555460e-01  7.8649909383972083e-01  7.8130204055818997e-01  7.7685498342679649e-01  7.7344431598152064e-01  7.7128260056405296e-01  7.7048100857007507e-01  7.7104312439451539e-01  7.7287584132050324e-01  7.7581090443120593e-01  7.7962894063771315e-01  7.8407898364848672e-01  7.8888393585022998e-01  7.9372375627220026e-01  7.9820308686964458e-01  8.0183458006978903e-01  8.0405700195278740e-01  8.0430608180819152e-01  8.0216184489360243e-01  7.9751354793102702e-01  7.9064660114558616e-01  7.8220740029649305e-01  7.7302709983443707e-01  7.6386348927090741e-01  7.5524296287897874e-01  7.4746100853877195e-01  7.4058247164418711e-01  7.3450735475187012e-01  7.2912275781143643e-01  7.2439693718112985e-01  7.2033795538965661e-01  7.1694961193190776e-01  7.1421282704837130e-01  7.1208301974029509e-01  7.1050039726595948e-01  7.0940380612727938e-01  7.0873220921211988e-01  7.0842086472380683e-01  7.0839737791749158e-01  7.0858017052957589e-01  7.0887861806699604e-01  7.0919521127680329e-01  7.0942905549063151e-01  7.0948179199081751e-01  7.0926484942153722e-01  7.0870602239203395e-01  7.0775358933542343e-01  7.0638083410194585e-01  7.0459069200053837e-01  7.0242082477202994e-01  6.9994573205325183e-01  6.9726875233249352e-01  6.9449695708106574e-01  6.9172171004457117e-01  6.8904934835153153e-01  6.8664897042458983e-01  6.8473667199909738e-01  6.8351541458923193e-01  6.8312370786652610e-01  6.8362968626950815e-01  6.8502783374037191e-01  6.8722089751255766e-01  6.9000080079725645e-01  6.9304339921790570e-01  6.9592298632916327e-01  6.9815349572427721e-01  6.9927806175040708e-01  6.9908508997255070e-01  6.9783027186509294e-01  6.9597517138643361e-01  6.9369167071215332e-01  6.9090783281853307e-01  6.8754610569740160e-01  6.8370709289373366e-01  6.7950522055399876e-01  6.7499961908620310e-01  6.7022633283313870e-01  6.6521434618359154e-01  6.6001728813924498e-01  6.5482221533574947e-01  6.4997453287751372e-01  6.4585275103166973e-01  6.4272453114508998e-01  6.4068712875232703e-01  6.3966722379539454e-01  6.3954535928344736e-01  6.4031320913454293e-01  6.4201924811333122e-01  6.4451942498730175e-01  6.4720594798453424e-01  6.4929777730142002e-01  6.5042200701971087e-01  6.5056992206012321e-01  6.4990526245526448e-01  6.4862583173747135e-01  6.4689298557716668e-01  6.4481835826758060e-01  6.4247585173401545e-01  6.3991810163145468e-01  6.3719158195182901e-01  6.3435067221663788e-01  6.3147771052549939e-01  6.2871907345607325e-01  6.2625023475030239e-01  6.2402407883279798e-01  6.2173595034713147e-01  6.1918293929508450e-01  6.1630252403675978e-01  6.1312708088004952e-01  6.0978552881599080e-01  6.0648087857791977e-01  6.0337797949914496e-01  6.0056453070506544e-01  5.9813346594959349e-01  5.9615590243852090e-01  5.9456237537554135e-01  5.9310427242554664e-01  5.9146074009547978e-01  5.8947968682386576e-01  5.8725028547380465e-01  5.8489232525300527e-01  5.8247054104025187e-01  5.8006797258924780e-01  5.7784466858958261e-01  5.7582047752227927e-01  5.7391763007546048e-01  5.7206739056850375e-01  5.7021784381879337e-01  5.6818594164444991e-01  5.6568520632304187e-01  5.6255745464381690e-01  5.5867594193961356e-01  5.5387096260976754e-01  5.4808792023512964e-01  5.4186216287852018e-01  5.3609654784132488e-01  5.3109353820711203e-01  5.2674083460611809e-01  5.2282277723892501e-01  5.1914693134248369e-01  5.1557258011893525e-01  5.1203389839983315e-01  5.0856861368138540e-01  5.0531713652652765e-01  5.0250008618921316e-01  5.0036147909084094e-01  4.9898962453493301e-01  4.9794257261691133e-01  4.9652260708087431e-01  4.9470200009117177e-01  4.9280928835826310e-01  4.9072558405888184e-01  4.8761816016130943e-01  4.8314864598689095e-01  4.7777312219674195e-01  4.7263760682354605e-01  4.6857966645809590e-01  4.6601850770418185e-01  4.6495764801699502e-01  4.6456780822673349e-01  4.6329014532301710e-01  4.5975744111038874e-01  4.5335303270098298e-01  4.4519296223423838e-01  4.3756941516242948e-01  4.3184605606674570e-01  4.2766999062248401e-01  4.2407733689038896e-01  4.2033182316322909e-01  4.1586039339987796e-01  4.1028225947106700e-01  4.0376267797032533e-01  3.9664168369731528e-01  3.8912281162793350e-01  3.8135998251277436e-01  3.7344025444515444e-01  3.6537892608003891e-01  3.5712712152699522e-01  3.4862503900346692e-01  3.3995877596435226e-01  3.3111997358784928e-01  3.2178286042937770e-01  3.1134764308099483e-01  2.9927564098178955e-01  2.8513562181603613e-01  2.6859374276184633e-01  2.4957351121997134e-01  2.2841589383571950e-01  2.0510535652997966e-01  1.7942020828095936e-01  1.5314669731340572e-01  1.2866780975383282e-01  1.0703789191395903e-01  8.8322804285134129e-02  7.2286548251903018e-02  5.8642270886999789e-02  4.7147054226320838e-02  3.7584806751626156e-02  2.9733468743787038e-02  2.3362837161511951e-02  1.8246602606367662e-02  1.4174120717799225e-02  1.0957539255311415e-02  8.4344806902084263e-03  6.4676823231972829e-03  4.9430289946746208e-03  3.7669336554767468e-03  2.8635730701776752e-03  2.1722057944328034e-03  1.6446792965376605e-03  1.2431721434306251e-03  9.3822221466131536e-04  7.0703168016617783e-04  5.3206496925534738e-04  3.9989612008907216e-04  3.0029295055972318e-04  2.2548762569841782e-04  1.6961399913111860e-04  1.2827140971245578e-04  9.8197727626274793e-05  7.7026450883877412e-05  6.3125276091700733e-05  5.5528016587128407e-05  5.4093219903057398e-05  8.0234287083781708e-01  8.0096512937698505e-01  7.9851609432515136e-01  7.9500090316403704e-01  7.9041621041525512e-01  7.8493968507025680e-01  7.7889546514873242e-01  7.7264386118120321e-01  7.6651674273551751e-01  7.6085507145597076e-01  7.5601066490156243e-01  7.5230306971572936e-01  7.4996782622295910e-01  7.4912544830637362e-01  7.4977604497510664e-01  7.5181396411842050e-01  7.5505315295122033e-01  7.5925578399575733e-01  7.6415584620127008e-01  7.6946802679839554e-01  7.7486671396982842e-01  7.7994079524705617e-01  7.8416913242417841e-01  7.8693675707079058e-01  7.8760188767605466e-01  7.8566902453125631e-01  7.8099117365051374e-01  7.7386214624389615e-01  7.6495959872556896e-01  7.5515635935024616e-01  7.4525993564472826e-01  7.3584835803981963e-01  7.2728907803381471e-01  7.1970510680334920e-01  7.1301292392380911e-01  7.0709197849921823e-01  7.0191283661667236e-01  6.9748322930271989e-01  6.9380012985668316e-01  6.9083567470644680e-01  6.8853456298252891e-01  6.8682644827898232e-01  6.8564377565472590e-01  6.8492146568823686e-01  6.8459048244820508e-01  6.8457335251606188e-01  6.8478213301271496e-01  6.8511895699295156e-01  6.8547794941416373e-01  6.8574912118790921e-01  6.8582442004878064e-01  6.8560668923574741e-01  6.8501678100306562e-01  6.8399765842107885e-01  6.8251878345446482e-01  6.8058153864857363e-01  6.7822505337332140e-01  6.7553118071489493e-01  6.7261809021963170e-01  6.6960938404563064e-01  6.6659965040525060e-01  6.6369241023985737e-01  6.6107216869554231e-01  6.5898363462254950e-01  6.5765469867386561e-01  6.5723294269346766e-01  6.5779166210579187e-01  6.5933236455604138e-01  6.6176043003671625e-01  6.6486168837078852e-01  6.6829781836524804e-01  6.7162438318947804e-01  6.7433386028597242e-01  6.7592884697055167e-01  6.7612058818082754e-01  6.7515071666238158e-01  6.7357158854059962e-01  6.7156945159832804e-01  6.6904761711256922e-01  6.6588217260661575e-01  6.6209488825309726e-01  6.5777129676211898e-01  6.5296819287017294e-01  6.4775276999786258e-01  6.4221666802936184e-01  6.3647184349051167e-01  6.3073232122385403e-01  6.2537875623852168e-01  6.2083391392183873e-01  6.1737884120463360e-01  6.1510608777669074e-01  6.1391628996581515e-01  6.1364223919371230e-01  6.1426231234369877e-01  6.1584929092768925e-01  6.1832614684453080e-01  6.2107982471446810e-01  6.2320273725071795e-01  6.2429725477059339e-01  6.2438129640135021e-01  6.2364357463290854e-01  6.2229748649656658e-01  6.2050770451970361e-01  6.1838351999976238e-01  6.1599533090926373e-01  6.1339334831925241e-01  6.1062246367671080e-01  6.0773542504929190e-01  6.0480973117104797e-01  6.0198379660390844e-01  5.9947302360779875e-01  5.9727267666158324e-01  5.9501280021780967e-01  5.9246979700847491e-01  5.8958902118138390e-01  5.8640206720293531e-01  5.8303183505862022e-01  5.7969371173474149e-01  5.7656199392689889e-01  5.7371163255348634e-01  5.7125178526982079e-01  5.6929866183961764e-01  5.6780630158656831e-01  5.6651313588199570e-01  5.6504785864806073e-01  5.6319548419360532e-01  5.6105000878619915e-01  5.5878899763127887e-01  5.5652578801325125e-01  5.5435546736891095e-01  5.5238868623560300e-01  5.5062834225885837e-01  5.4896905397822759e-01  5.4730428312029611e-01  5.4557796285308402e-01  5.4366189802912357e-01  5.4128969123736759e-01  5.3831143885917232e-01  5.3463165167737736e-01  5.3012473819867389e-01  5.2473772831880905e-01  5.1885657455501100e-01  5.1336612376439339e-01  5.0861491116196822e-01  5.0449770494179746e-01  5.0080653543859788e-01  4.9735668977605357e-01  4.9400366154752312e-01  4.9066901542111080e-01  4.8738252532434567e-01  4.8427450943335615e-01  4.8154337577887735e-01  4.7939463764359785e-01  4.7790680915768852e-01  4.7676130269090167e-01  4.7525022410288881e-01  4.7321497354314002e-01  4.7091538695487234e-01  4.6833406726726790e-01  4.6495898100547817e-01  4.6052224156586724e-01  4.5539043039296750e-01  4.5045717036401933e-01  4.4649971646747433e-01  4.4389642390022399e-01  4.4265528464817688e-01  4.4212298370671255e-01  4.4086244519320744e-01  4.3761547188821642e-01  4.3191400357574961e-01  4.2472464457759990e-01  4.1823171425420452e-01  4.1351042216558231e-01  4.1017060940830036e-01  4.0726905324647172e-01  4.0412120221314940e-01  4.0028541887926689e-01  3.9540829145745560e-01  3.8960290373463663e-01  3.8320736437210273e-01  3.7642647185601630e-01  3.6942116327618468e-01  3.6228378520707333e-01  3.5501507212130456e-01  3.4758871709353556e-01  3.3998278100612711e-01  3.3228973068742468e-01  3.2449082088581271e-01  3.1627909281365696e-01  3.0710199770705759e-01  2.9643752192389894e-01  2.8384324494939450e-01  2.6893308573830144e-01  2.5151777991442864e-01  2.3178236171018426e-01  2.0983621445597150e-01  1.8542475709480316e-01  1.5976000098873197e-01  1.3522953035130367e-01  1.1318000414625433e-01  9.3833300695454855e-02  7.7067751546838092e-02  6.2670878362578661e-02  5.0463789623688388e-02  4.0271940543324704e-02  3.1886060766637178e-02  2.5072365183444120e-02  1.9594562456317837e-02  1.5230356761425066e-02  1.1780623252932583e-02  9.0728071656629768e-03  6.9607363535533996e-03  5.3226273817861018e-03  4.0584116546985580e-03  3.0868969546664184e-03  2.3429837777278711e-03  1.7750366554386277e-03  1.3424939328070275e-03  1.0137484696979364e-03  7.6434283169418986e-04  5.7545410074626103e-04  4.3266823384273509e-04  3.2499060663220529e-04  2.4407202129938613e-04  1.8360061846056763e-04  1.3883898866980381e-04  1.0626995901545893e-04  8.3336517845335125e-05  6.8250618358934375e-05  5.9854407982505106e-05  5.7456114378042465e-05  7.4734077579746128e-01  7.4659987337003675e-01  7.4429422952818469e-01  7.4032293194045384e-01  7.3479571580888170e-01  7.2803774156918322e-01  7.2055666738073199e-01  7.1285074594134046e-01  7.0529283790241726e-01  6.9828667245136966e-01  6.9228363166633489e-01  6.8770342374277227e-01  6.8484982628434199e-01  6.8386995056586897e-01  6.8475426662867822e-01  6.8736170570528365e-01  6.9145736876905817e-01  6.9675349355154337e-01  7.0294680185859049e-01  7.0973982613426279e-01  7.1680991390167159e-01  7.2371436023376312e-01  7.2984197131568518e-01  7.3443437211208307e-01  7.3662622409216427e-01  7.3568616591631930e-01  7.3134755197899992e-01  7.2392616765595696e-01  7.1416255554266694e-01  7.0292768496108471e-01  6.9107121120075410e-01  6.7932788434407898e-01  6.6834462544205808e-01  6.5849311935252175e-01  6.4982513430790967e-01  6.4223457757516600e-01  6.3567947566789895e-01  6.3014071735969324e-01  6.2557791408758612e-01  6.2192976415832224e-01  6.1910885769162827e-01  6.1701276758512691e-01  6.1555648585510825e-01  6.1466391965812228e-01  6.1425447426901048e-01  6.1423620414446223e-01  6.1450384154246207e-01  6.1493923932414851e-01  6.1541360795529354e-01  6.1579103335694640e-01  6.1593562429328008e-01  6.1572474832965951e-01  6.1505946589486682e-01  6.1386633271714663e-01  6.1210299322150186e-01  6.0976453786940965e-01  6.0689188098371571e-01  6.0358397672207165e-01  5.9999915983592034e-01  5.9631443436175235e-01  5.9264325541685225e-01  5.8907768670977900e-01  5.8584460054114662e-01  5.8326493794803469e-01  5.8163451090362450e-01  5.8111897094789122e-01  5.8180537842711111e-01  5.8372224460561717e-01  5.8679031427684170e-01  5.9078218040462338e-01  5.9532678546342788e-01  5.9993815478055701e-01  6.0407846680699528e-01  6.0720355588624386e-01  6.0889254084861788e-01  6.0921335256863651e-01  6.0881132263431670e-01  6.0789336528197313e-01  6.0629371928118447e-01  6.0380352725532482e-01  6.0031814210757295e-01  5.9582694851553952e-01  5.9036038821306414e-01  5.8405780585948552e-01  5.7717042817692599e-01  5.6994944043851625e-01  5.6268788922643398e-01  5.5589567106047821e-01  5.5014816004228495e-01  5.4574668726853870e-01  5.4273600752906692e-01  5.4096489158846361e-01  5.4016531050380212e-01  5.4026329928181394e-01  5.4134501461382145e-01  5.4342276805101764e-01  5.4600600862879700e-01  5.4799887414524395e-01  5.4892336474629566e-01  5.4882864719292768e-01  5.4793641504169388e-01  5.4648310036613168e-01  5.4463124177363953e-01  5.4247721852912012e-01  5.4007935918616790e-01  5.3747968250620615e-01  5.3471894224639172e-01  5.3184750201186182e-01  5.2893770025454134e-01  5.2611132428663077e-01  5.2358926836280595e-01  5.2150463070876918e-01  5.1940659726356608e-01  5.1701893301252078e-01  5.1430178171363772e-01  5.1128816584934023e-01  5.0807514112122076e-01  5.0486866196276048e-01  5.0184848034118457e-01  4.9905092044313099e-01  4.9662490590498432e-01  4.9482280965895770e-01  4.9367399126101591e-01  4.9289484398362388e-01  4.9198531233693538e-01  4.9060344482186408e-01  4.8879486365364094e-01  4.8683736641703701e-01  4.8495837411137072e-01  4.8332978912787189e-01  4.8203790474146657e-01  4.8100946553700030e-01  4.8004882314895686e-01  4.7893612312603129e-01  4.7758731251381670e-01  4.7595143552093527e-01  4.7389834689550892e-01  4.7133108852981914e-01  4.6820476366002650e-01  4.6446991309772678e-01  4.6013188121141896e-01  4.5543990399013295e-01  4.5096879955342323e-01  4.4705349848647130e-01  4.4365257512317113e-01  4.4061854456634247e-01  4.3781079661497097e-01  4.3508622994422880e-01  4.3233255075653620e-01  4.2956226665038660e-01  4.2689026666383967e-01  4.2447728815170316e-01  4.2245543117113799e-01  4.2082549297317778e-01  4.1934582178486984e-01  4.1754231057974234e-01  4.1514775767668372e-01  4.1222231963720601e-01  4.0879412146103589e-01  4.0477439418280703e-01  4.0022556274097604e-01  3.9546570662765324e-01  3.9103561465445558e-01  3.8741500500075760e-01  3.8483424717249404e-01  3.8325145079507950e-01  3.8224484013431725e-01  3.8088559542319561e-01  3.7823970890165176e-01  3.7412334084360366e-01  3.6954674789821840e-01  3.6595743588342527e-01  3.6388606249026212e-01  3.6270333974345159e-01  3.6156415662372188e-01  3.5994053929704617e-01  3.5761980527463660e-01  3.5448782115715183e-01  3.5058822984270699e-01  3.4611928919248941e-01  3.4126111922109942e-01  3.3620323802729635e-01  3.3108888336111869e-01  3.2591446836523696e-01  3.2066071930335316e-01  3.1538212766647866e-01  3.1021287808070325e-01  3.0514048140849498e-01  2.9987259886646594e-01  2.9398758488968901e-01  2.8706324407816802e-01  2.7865873159848431e-01  2.6823114436235801e-01  2.5534395197103943e-01  2.3991910792759782e-01  2.2190927788670220e-01  2.0109477771531192e-01  1.7798708001504635e-01  1.5425712881920825e-01  1.3157780023812610e-01  1.1067293788887229e-01  9.1875323219044708e-02  7.5262251891049209e-02  6.0903238084816458e-02  4.8782994656951933e-02  3.8742652687553294e-02  3.0544593308606583e-02  2.3927725368413338e-02  1.8638103559252366e-02  1.4444487755560826e-02  1.1144411752651096e-02  8.5648325910544186e-03  6.5603883207426932e-03  5.0107956983853801e-03  3.8179646806369826e-03  2.9029856095321009e-03  2.2031474154349138e-03  1.6691186190185155e-03  1.2624210288936710e-03  9.5323839024165022e-04  7.1859566690055121e-04  5.4086414496112812e-04  4.0657531937985752e-04  3.0547629386453801e-04  2.2980136187873107e-04  1.7370473640741080e-04  1.3283550767502166e-04  1.0401617542147472e-04  8.5009986915852127e-05  7.4347229079045296e-05  7.1191451139699061e-05  6.5267151613818242e-01  6.5275291256917500e-01  6.5059020103724952e-01  6.4598213950650951e-01  6.3917031602653618e-01  6.3065621017075024e-01  6.2121941962954008e-01  6.1159679426294755e-01  6.0216111933348326e-01  5.9337263186638434e-01  5.8582081628817728e-01  5.8006874325840552e-01  5.7651318469564183e-01  5.7533479674348742e-01  5.7651073805552588e-01  5.7985682702747410e-01  5.8508213200887826e-01  5.9184751930037116e-01  5.9982346001861853e-01  6.0873814008435911e-01  6.1834552107889984e-01  6.2821805799111674e-01  6.3763294341623966e-01  6.4566478831900753e-01  6.5115914365060523e-01  6.5300896922382501e-01  6.5067575331058758e-01  6.4435445790998103e-01  6.3475859423661585e-01  6.2257098970957325e-01  6.0843841940674082e-01  5.9332692944047716e-01  5.7849928474358658e-01  5.6489551240370417e-01  5.5295336073486689e-01  5.4272008100010571e-01  5.3408638153165300e-01  5.2691348495402179e-01  5.2105600805998720e-01  5.1638085320155103e-01  5.1275738002485038e-01  5.1004258349534570e-01  5.0812682489443983e-01  5.0691926799600717e-01  5.0632393009211463e-01  5.0623054626695707e-01  5.0651244860055611e-01  5.0702697418074261e-01  5.0761724769224181e-01  5.0811517297494369e-01  5.0834721711934938e-01  5.0815429402251899e-01  5.0741008937010357e-01  5.0601675241320554e-01  5.0391302307583208e-01  5.0108328587953621e-01  4.9756606711393730e-01  4.9347359275221181e-01  4.8900612204282834e-01  4.8440949498380564e-01  4.7987329199448769e-01  4.7549677293836085e-01  4.7155115261348329e-01  4.6841667788479108e-01  4.6644681073528516e-01  4.6581570032550218e-01  4.6662360246130252e-01  4.6895156814786970e-01  4.7276802184769651e-01  4.7784187158155628e-01  4.8378603948541571e-01  4.9010525342706851e-01  4.9629354038127627e-01  5.0187027426262920e-01  5.0639417385640362e-01  5.0965278097204492e-01  5.1189189897994669e-01  5.1325316284223854e-01  5.1353804756614729e-01  5.1247784482543002e-01  5.0985665111950407e-01  5.0553316410852245e-01  4.9947893646523533e-01  4.9192696652247053e-01  4.8340127643787201e-01  4.7437557424806542e-01  4.6519213907560375e-01  4.5651261948750649e-01  4.4919154431685065e-01  4.4353593599965319e-01  4.3946386904337248e-01  4.3673215649236996e-01  4.3504253341330112e-01  4.3424121106354935e-01  4.3434097062518690e-01  4.3532930684098320e-01  4.3687007319794141e-01  4.3815762574724576e-01  4.3866118291049810e-01  4.3834660826832994e-01  4.3737732747908359e-01  4.3596746767583455e-01  4.3425614159869069e-01  4.3231258909346915e-01  4.3017388573851856e-01  4.2786840382773683e-01  4.2543022236918954e-01  4.2290878391171366e-01  4.2037701999298671e-01  4.1794297181256113e-01  4.1576197922241226e-01  4.1394649699680652e-01  4.1223690974932264e-01  4.1035577267741880e-01  4.0823953811995317e-01  4.0590775683662572e-01  4.0342549440569847e-01  4.0092661471573210e-01  3.9853431109811827e-01  3.9626170480338635e-01  3.9424956560830371e-01  3.9288323205405878e-01  3.9230230207784961e-01  3.9228672243512097e-01  3.9222520577718706e-01  3.9160558562933745e-01  3.9041597607016226e-01  3.8896410180601876e-01  3.8758175638713976e-01  3.8654038335078905e-01  3.8599756334313806e-01  3.8586593632739863e-01  3.8583608390971214e-01  3.8548574728172097e-01  3.8469123892734031e-01  3.8348371171389911e-01  3.81880764491