<?xml version="1.0"?>
<VTKFile type="UnstructuredGrid"  version="0.1"  >
<UnstructuredGrid>
<Piece  NumberOfPoints="640" NumberOfCells="1175">
<Points>
<DataArray  type="Float64"  NumberOfComponents="3"  format="ascii">2.577391304347826 0 0  2.593913043478261 0 0  2.593913043478261 0.01666666666666667 0  2.577391304347826 0.01666666666666667 0  2.610434782608696 0 0  2.610434782608696 0.01666666666666667 0  2.62695652173913 0 0  2.62695652173913 0.01666666666666667 0  2.643478260869565 0 0  2.643478260869565 0.01666666666666667 0  2.66 0 0  2.66 0.01666666666666667 0  2.676521739130435 0 0  2.676521739130435 0.01666666666666667 0  2.693043478260869 0 0  2.693043478260869 0.01666666666666667 0  2.709565217391304 0 0  2.709565217391304 0.01666666666666667 0  2.726086956521739 0 0  2.726086956521739 0.01666666666666667 0  2.742608695652174 0 0  2.742608695652174 0.01666666666666667 0  2.759130434782609 0 0  2.759130434782609 0.01666666666666667 0  2.775652173913044 0 0  2.775652173913044 0.01666666666666667 0  2.792173913043478 0 0  2.792173913043478 0.01666666666666667 0  2.808695652173913 0 0  2.808695652173913 0.01666666666666667 0  2.825217391304347 0 0  2.825217391304347 0.01666666666666667 0  2.841739130434783 0 0  2.841739130434783 0.01666666666666667 0  2.858260869565217 0 0  2.858260869565217 0.01666666666666667 0  2.874782608695652 0 0  2.874782608695652 0.01666666666666667 0  2.891304347826087 0 0  2.891304347826087 0.01666666666666667 0  2.907826086956522 0 0  2.907826086956522 0.01666666666666667 0  2.924347826086957 0 0  2.924347826086957 0.01666666666666667 0  2.940869565217391 0 0  2.940869565217391 0.01666666666666667 0  2.957391304347826 0 0  2.957391304347826 0.01666666666666667 0  2.973913043478261 0 0  2.973913043478261 0.01666666666666667 0  2.593913043478261 0.03333333333333333 0  2.610434782608696 0.03333333333333333 0  2.62695652173913 0.03333333333333333 0  2.643478260869565 0.03333333333333333 0  2.66 0.03333333333333333 0  2.676521739130435 0.03333333333333333 0  2.693043478260869 0.03333333333333333 0  2.709565217391304 0.03333333333333333 0  2.726086956521739 0.03333333333333333 0  2.742608695652174 0.03333333333333333 0  2.759130434782609 0.03333333333333333 0  2.775652173913044 0.03333333333333333 0  2.792173913043478 0.03333333333333333 0  2.808695652173913 0.03333333333333333 0  2.825217391304347 0.03333333333333333 0  2.841739130434783 0.03333333333333333 0  2.858260869565217 0.03333333333333333 0  2.874782608695652 0.03333333333333333 0  2.891304347826087 0.03333333333333333 0  2.907826086956522 0.03333333333333333 0  2.924347826086957 0.03333333333333333 0  2.940869565217391 0.03333333333333333 0  2.957391304347826 0.03333333333333333 0  2.973913043478261 0.03333333333333333 0  2.610434782608696 0.05 0  2.62695652173913 0.05 0  2.643478260869565 0.05 0  2.66 0.05 0  2.676521739130435 0.05 0  2.693043478260869 0.05 0  2.709565217391304 0.05 0  2.726086956521739 0.05 0  2.742608695652174 0.05 0  2.759130434782609 0.05 0  2.775652173913044 0.05 0  2.792173913043478 0.05 0  2.808695652173913 0.05 0  2.825217391304347 0.05 0  2.841739130434783 0.05 0  2.858260869565217 0.05 0  2.874782608695652 0.05 0  2.891304347826087 0.05 0  2.907826086956522 0.05 0  2.924347826086957 0.05 0  2.940869565217391 0.05 0  2.957391304347826 0.05 0  2.973913043478261 0.05 0  2.990434782608696 0.05 0  2.62695652173913 0.06666666666666667 0  2.643478260869565 0.06666666666666667 0  2.66 0.06666666666666667 0  2.676521739130435 0.06666666666666667 0  2.693043478260869 0.06666666666666667 0  2.709565217391304 0.06666666666666667 0  2.726086956521739 0.06666666666666667 0  2.742608695652174 0.06666666666666667 0  2.759130434782609 0.06666666666666667 0  2.775652173913044 0.06666666666666667 0  2.792173913043478 0.06666666666666667 0  2.808695652173913 0.06666666666666667 0  2.825217391304347 0.06666666666666667 0  2.841739130434783 0.06666666666666667 0  2.858260869565217 0.06666666666666667 0  2.874782608695652 0.06666666666666667 0  2.891304347826087 0.06666666666666667 0  2.907826086956522 0.06666666666666667 0  2.924347826086957 0.06666666666666667 0  2.940869565217391 0.06666666666666667 0  2.957391304347826 0.06666666666666667 0  2.973913043478261 0.06666666666666667 0  2.990434782608696 0.06666666666666667 0  2.643478260869565 0.08333333333333333 0  2.66 0.08333333333333333 0  2.676521739130435 0.08333333333333333 0  2.693043478260869 0.08333333333333333 0  2.709565217391304 0.08333333333333333 0  2.726086956521739 0.08333333333333333 0  2.742608695652174 0.08333333333333333 0  2.759130434782609 0.08333333333333333 0  2.775652173913044 0.08333333333333333 0  2.792173913043478 0.08333333333333333 0  2.808695652173913 0.08333333333333333 0  2.825217391304347 0.08333333333333333 0  2.841739130434783 0.08333333333333333 0  2.858260869565217 0.08333333333333333 0  2.874782608695652 0.08333333333333333 0  2.891304347826087 0.08333333333333333 0  2.907826086956522 0.08333333333333333 0  2.924347826086957 0.08333333333333333 0  2.940869565217391 0.08333333333333333 0  2.957391304347826 0.08333333333333333 0  2.973913043478261 0.08333333333333333 0  2.990434782608696 0.08333333333333333 0  3.006956521739131 0.08333333333333333 0  2.66 0.1 0  2.676521739130435 0.1 0  2.693043478260869 0.1 0  2.709565217391304 0.1 0  2.726086956521739 0.1 0  2.742608695652174 0.1 0  2.759130434782609 0.1 0  2.775652173913044 0.1 0  2.792173913043478 0.1 0  2.808695652173913 0.1 0  2.825217391304347 0.1 0  2.841739130434783 0.1 0  2.858260869565217 0.1 0  2.874782608695652 0.1 0  2.891304347826087 0.1 0  2.907826086956522 0.1 0  2.924347826086957 0.1 0  2.940869565217391 0.1 0  2.957391304347826 0.1 0  2.973913043478261 0.1 0  2.990434782608696 0.1 0  3.006956521739131 0.1 0  2.676521739130435 0.1166666666666667 0  2.693043478260869 0.1166666666666667 0  2.709565217391304 0.1166666666666667 0  2.726086956521739 0.1166666666666667 0  2.742608695652174 0.1166666666666667 0  2.759130434782609 0.1166666666666667 0  2.775652173913044 0.1166666666666667 0  2.792173913043478 0.1166666666666667 0  2.808695652173913 0.1166666666666667 0  2.825217391304347 0.1166666666666667 0  2.841739130434783 0.1166666666666667 0  2.858260869565217 0.1166666666666667 0  2.874782608695652 0.1166666666666667 0  2.891304347826087 0.1166666666666667 0  2.907826086956522 0.1166666666666667 0  2.924347826086957 0.1166666666666667 0  2.940869565217391 0.1166666666666667 0  2.957391304347826 0.1166666666666667 0  2.973913043478261 0.1166666666666667 0  2.990434782608696 0.1166666666666667 0  3.006956521739131 0.1166666666666667 0  3.023478260869565 0.1166666666666667 0  2.693043478260869 0.1333333333333333 0  2.709565217391304 0.1333333333333333 0  2.726086956521739 0.1333333333333333 0  2.742608695652174 0.1333333333333333 0  2.759130434782609 0.1333333333333333 0  2.775652173913044 0.1333333333333333 0  2.792173913043478 0.1333333333333333 0  2.808695652173913 0.1333333333333333 0  2.825217391304347 0.1333333333333333 0  2.841739130434783 0.1333333333333333 0  2.858260869565217 0.1333333333333333 0  2.874782608695652 0.1333333333333333 0  2.891304347826087 0.1333333333333333 0  2.907826086956522 0.1333333333333333 0  2.924347826086957 0.1333333333333333 0  2.940869565217391 0.1333333333333333 0  2.957391304347826 0.1333333333333333 0  2.973913043478261 0.1333333333333333 0  2.990434782608696 0.1333333333333333 0  3.006956521739131 0.1333333333333333 0  3.023478260869565 0.1333333333333333 0  2.726086956521739 0.15 0  2.742608695652174 0.15 0  2.759130434782609 0.15 0  2.775652173913044 0.15 0  2.792173913043478 0.15 0  2.808695652173913 0.15 0  2.825217391304347 0.15 0  2.841739130434783 0.15 0  2.858260869565217 0.15 0  2.874782608695652 0.15 0  2.891304347826087 0.15 0  2.907826086956522 0.15 0  2.924347826086957 0.15 0  2.940869565217391 0.15 0  2.957391304347826 0.15 0  2.973913043478261 0.15 0  2.990434782608696 0.15 0  3.006956521739131 0.15 0  3.023478260869565 0.15 0  3.04 0.15 0  2.742608695652174 0.1666666666666667 0  2.759130434782609 0.1666666666666667 0  2.775652173913044 0.1666666666666667 0  2.792173913043478 0.1666666666666667 0  2.808695652173913 0.1666666666666667 0  2.825217391304347 0.1666666666666667 0  2.841739130434783 0.1666666666666667 0  2.858260869565217 0.1666666666666667 0  2.874782608695652 0.1666666666666667 0  2.891304347826087 0.1666666666666667 0  2.907826086956522 0.1666666666666667 0  2.924347826086957 0.1666666666666667 0  2.940869565217391 0.1666666666666667 0  2.957391304347826 0.1666666666666667 0  2.973913043478261 0.1666666666666667 0  2.990434782608696 0.1666666666666667 0  3.006956521739131 0.1666666666666667 0  3.023478260869565 0.1666666666666667 0  3.04 0.1666666666666667 0  3.056521739130435 0.1666666666666667 0  2.759130434782609 0.1833333333333333 0  2.775652173913044 0.1833333333333333 0  2.792173913043478 0.1833333333333333 0  2.808695652173913 0.1833333333333333 0  2.825217391304347 0.1833333333333333 0  2.841739130434783 0.1833333333333333 0  2.858260869565217 0.1833333333333333 0  2.874782608695652 0.1833333333333333 0  2.891304347826087 0.1833333333333333 0  2.907826086956522 0.1833333333333333 0  2.924347826086957 0.1833333333333333 0  2.940869565217391 0.1833333333333333 0  2.957391304347826 0.1833333333333333 0  2.973913043478261 0.1833333333333333 0  2.990434782608696 0.1833333333333333 0  3.006956521739131 0.1833333333333333 0  3.023478260869565 0.1833333333333333 0  3.04 0.1833333333333333 0  3.056521739130435 0.1833333333333333 0  3.073043478260869 0.1833333333333333 0  2.775652173913044 0.2 0  2.792173913043478 0.2 0  2.808695652173913 0.2 0  2.825217391304347 0.2 0  2.841739130434783 0.2 0  2.858260869565217 0.2 0  2.874782608695652 0.2 0  2.891304347826087 0.2 0  2.907826086956522 0.2 0  2.924347826086957 0.2 0  2.940869565217391 0.2 0  2.957391304347826 0.2 0  2.973913043478261 0.2 0  2.990434782608696 0.2 0  3.006956521739131 0.2 0  3.023478260869565 0.2 0  3.04 0.2 0  3.056521739130435 0.
[...]
<PointData  Vectors="Displacement"> 
<DataArray  type="Float64"  Name="Displacement"  NumberOfComponents="3" format="ascii">4.3305712482829910e-04 4.3509015583863015e-03 0.0000000000000000e+00  4.3595702598772624e-04 4.3726416740813628e-03 0.0000000000000000e+00  4.1187144279375491e-04 4.3722791296504342e-03 0.0000000000000000e+00  4.1135322558188839e-04 4.3504745503975080e-03 0.0000000000000000e+00  4.3948448886408389e-04 4.3971697088121360e-03 0.0000000000000000e+00  4.1187350441214578e-04 4.3966028320518080e-03 0.0000000000000000e+00  4.4323272881343647e-04 4.4266486676934292e-03 0.0000000000000000e+00  4.1118536015549950e-04 4.4261170375688623e-03 0.0000000000000000e+00  4.4695026685055022e-04 4.4611754559237774e-03 0.0000000000000000e+00  4.1021544559220014e-04 4.4604575754016258e-03 0.0000000000000000e+00  4.5069265024854732e-04 4.5017437159362720e-03 0.0000000000000000e+00  4.0834298056722682e-04 4.5009106529576648e-03 0.0000000000000000e+00  4.5430048788607744e-04 4.5494277013481549e-03 0.0000000000000000e+00  4.0517542198627033e-04 4.5487334897433953e-03 0.0000000000000000e+00  4.5764907592897792e-04 4.6021217847558825e-03 0.0000000000000000e+00  4.0350633512641515e-04 4.6014815885371298e-03 0.0000000000000000e+00  4.6079061702658676e-04 4.6588402337077736e-03 0.0000000000000000e+00  4.0264666259115804e-04 4.6581707599131833e-03 0.0000000000000000e+00  4.6382092622403078e-04 4.7193207687937161e-03 0.0000000000000000e+00  4.0207842954917975e-04 4.7185293461988447e-03 0.0000000000000000e+00  4.6685765102479326e-04 4.7837769504570126e-03 0.0000000000000000e+00  4.0145622187804937e-04 4.7828343341611915e-03 0.0000000000000000e+00  4.7010792040644576e-04 4.8528245434443706e-03 0.0000000000000000e+00  4.0049096276867358e-04 4.8517410595854543e-03 0.0000000000000000e+00  4.7385459021541691e-04 4.9266135814023228e-03 0.0000000000000000e+00  3.9987210810245045e-04 4.9253197301703982e-03 0.0000000000000000e+00  4.7800441326010428e-04 5.0029655281925373e-03 0.0000000000000000e+00  4.0184499988718845e-04 5.0014586915508403e-03 0.0000000000000000e+00  4.8201500771112229e-04 5.0780390293264557e-03 0.0000000000000000e+00  4.0747046357504825e-04 5.0764895346550321e-03 0.0000000000000000e+00  4.8535653381300134e-04 5.1479412089598291e-03 0.0000000000000000e+00  4.1616975494734458e-04 5.1465691609510183e-03 0.0000000000000000e+00  4.8789253429095628e-04 5.2107448788912183e-03 0.0000000000000000e+00  4.2583829212806506e-04 5.2096647629735178e-03 0.0000000000000000e+00  4.8984531755152971e-04 5.2679158072483972e-03 0.0000000000000000e+00  4.3340325086651252e-04 5.2670907679942067e-03 0.0000000000000000e+00  4.9140603012563105e-04 5.3218750304243941e-03 0.0000000000000000e+00  4.3810606789591947e-04 5.3212234143322793e-03 0.0000000000000000e+00  4.9265628492251631e-04 5.3739277115278502e-03 0.0000000000000000e+00  4.4115683633030633e-04 5.3733604750664660e-03 0.0000000000000000e+00  4.9366035174486158e-04 5.4245460409902569e-03 0.0000000000000000e+00  4.4357161960339168e-04 5.4239955415364268e-03 0.0000000000000000e+00  4.9446910581511880e-04 5.4737221617865541e-03 0.0000000000000000e+00  4.4592826877289311e-04 5.4731704233984537e-03 0.0000000000000000e+00  4.9510083525243726e-04 5.5211851577762362e-03 0.0000000000000000e+00  4.4844090448731939e-04 5.5206374032744131e-03 0.0000000000000000e+00  4.9555524350471981e-04 5.5666000707677819e-03 0.0000000000000000e+00  4.5111908711091965e-04 5.5660624028727778e-03 0.0000000000000000e+00  4.9583166798420437e-04 5.6096706499086353e-03 0.0000000000000000e+00  4.5391076292573823e-04 5.6091380211101428e-03 0.0000000000000000e+00  3.8986291475579351e-04 4.3721339070764082e-03 0.0000000000000000e+00  3.8883648741307799e-04 4.3962135608151612e-03 0.0000000000000000e+00  3.8386376768781926e-04 4.4259727680027987e-03 0.0000000000000000e+00  3.7567408874176084e-04 4.4608043583436669e-03 0.0000000000000000e+00  3.7827370699651953e-04 4.5091486498582455e-03 0.0000000000000000e+00  3.7649864624731029e-04 4.5576974247965073e-03 0.0000000000000000e+00  3.7395164027344871e-04 4.6096854622191550e-03 0.0000000000000000e+00  3.7148227760269682e-04 4.6654159684525022e-03 0.0000000000000000e+00  3.6923438431200677e-04 4.7247174882109957e-03 0.0000000000000000e+00  3.6728697397586028e-04 4.7876010649063076e-03 0.0000000000000000e+00  3.6591247146314346e-04 4.8541417032026794e-03 0.0000000000000000e+00  3.6577591660358371e-04 4.9237750236954389e-03 0.0000000000000000e+00  3.6780177891271510e-04 4.9946831388799681e-03 0.0000000000000000e+00  3.7247682634148417e-04 5.0645255976938088e-03 0.0000000000000000e+00  3.7938671927259618e-04 5.1310398099828659e-03 0.0000000000000000e+00  3.8729562630423348e-04 5.1930814592894194e-03 0.0000000000000000e+00  3.9477324902444626e-04 5.2512065719256028e-03 0.0000000000000000e+00  4.0111944653584586e-04 5.3063270446426633e-03 0.0000000000000000e+00  4.0647683631460444e-04 5.3590619043424204e-03 0.0000000000000000e+00  4.1126742848490423e-04 5.4098850131479963e-03 0.0000000000000000e+00  4.1584262517917555e-04 5.4590040282629674e-03 0.0000000000000000e+00  4.2039068613947703e-04 5.5063928434399651e-03 0.0000000000000000e+00  4.2493542647929701e-04 5.5519041503886016e-03 0.0000000000000000e+00  4.2936158758796999e-04 5.5953745839040460e-03 0.0000000000000000e+00  3.6470065204976626e-04 4.3966443075519083e-03 0.0000000000000000e+00  3.6277849662017740e-04 4.4341539049003210e-03 0.0000000000000000e+00  3.5777872240808572e-04 4.4722906667320214e-03 0.0000000000000000e+00  3.5307555758361774e-04 4.5164116388311231e-03 0.0000000000000000e+00  3.4952744140167224e-04 4.5654764677384848e-03 0.0000000000000000e+00  3.4562501779075017e-04 4.6173771198719654e-03 0.0000000000000000e+00  3.4175699476031869e-04 4.6724055786197642e-03 0.0000000000000000e+00  3.3825140068553236e-04 4.7305565331598794e-03 0.0000000000000000e+00  3.3538378943295826e-04 4.7917267913441383e-03 0.0000000000000000e+00  3.3352867933698286e-04 4.8556874471812001e-03 0.0000000000000000e+00  3.3320686877689478e-04 4.9217390719024628e-03 0.0000000000000000e+00  3.3491936749184358e-04 4.9885067319622991e-03 0.0000000000000000e+00  3.3883825831536562e-04 5.0543833052506832e-03 0.0000000000000000e+00  3.4465026323004058e-04 5.1179522169602113e-03 0.0000000000000000e+00  3.5161451273087803e-04 5.1784843335565735e-03 0.0000000000000000e+00  3.5891083948545673e-04 5.2361138750871977e-03 0.0000000000000000e+00  3.6603840961366298e-04 5.2912037174414756e-03 0.0000000000000000e+00  3.7285369615089363e-04 5.3440474778253273e-03 0.0000000000000000e+00  3.7941491612524024e-04 5.3949368482973650e-03 0.0000000000000000e+00  3.8584356946851474e-04 5.4440701931441973e-03 0.0000000000000000e+00  3.9221959228316259e-04 5.4915107271012020e-03 0.0000000000000000e+00  3.9853790259616179e-04 5.5372310046736695e-03 0.0000000000000000e+00  4.0470682790421086e-04 5.5811884953595806e-03 0.0000000000000000e+00  4.1055993378683183e-04 5.6234039729404790e-03 0.0000000000000000e+00  3.4161516492653215e-04 4.4413894632024135e-03 0.0000000000000000e+00  3.3574651991533588e-04 4.4811909878183015e-03 0.0000000000000000e+00  3.2948113407749207e-04 4.5252386022772151e-03 0.0000000000000000e+00  3.2354829803876912e-04 4.5734207141981406e-03 0.0000000000000000e+00  3.1804418975147855e-04 4.6248894167546899e-03 0.0000000000000000e+00  3.1288735739232133e-04 4.6791560248612002e-03 0.0000000000000000e+00  3.0831988952358032e-04 4.7360548709215709e-03 0.0000000000000000e+00  3.0465706260435514e-04 4.7953899516073066e-03 0.0000000000000000e+00  3.0226519340573399e-04 4.8568171018726868e-03 0.0000000000000000e+00  3.0153933487787703e-04 4.9196779162518859e-03 0.0000000000000000e+00  3.0278448392872918e-04 4.9829549860388820e-03 0.0000000000000000e+00  3.0606005700320287e-04 5.0455314409887601e-03 0.0000000000000000e+00  3.1112638648868118e-04 5.1064634204233249e-03 0.0000000000000000e+00  3.1750839279014539e-04 5.1652339691345868e-03 0.0000000000000000e+00  3.2468423963488057e-04 5.2217925168968867e-03 0.0000000000000000e+00  3.3227470278033455e-04 5.2762561435500512e-03 0.0000000000000000e+00  3.4006745209497771e-04 5.3287622779982736e-03 0.0000000000000000e+00  3.4796440701981442e-04 5.3794777039834572e-03 0.0000000000000000e+00  3.5593059796890927e-04 5.4285454772662221e-03 0.0000000000000000e+00  3.6393529586953343e-04 5.4760453800064826e-03 0.0000000000000000e+00  3.7191286301196318e-04 5.5220020947219228e-03 0.0000000000000000e+00  3.7975677543158431e-04 5.5664310671041783e-03 0.0000000000000000e+00  3.8734099682404108e-04 5.6094125782057492e-03 0.0000000000000000e+00  3.1302115895280109e-04 4.4894295109465009e-03 0.0000000000000000e+00  3.0528216436848549e-04 4.5337083322331256e-03 0.0000000000000000e+00  2.9777446917021179e-04 4.5815586739926424e-03 0.0000000000000000e+00  2.9073720194959019e-04 4.6324043167334031e-03 0.0000000000000000e+00  2.8433062348471889e-04 4.6857757737274906e-03 0.0000000000000000e+00  2.7876632908446298e-04 4.7413358824224851e-03 0.0000000000000000e+00  2.7433722184547373e-04 4.7988009997031447e-03 0.0000000000000000e+00  2.7136591817850494e-04 4.8578009875299482e-03 0.0000000000000000e+00  2.7015429556214674e-04 4.9177770385374119e-03 0.0000000000000000e+00  2.7090258135306329e-04 4.9779829340491164e-03 0.0000000000000000e+00  2.7362929861163342e-04 5.0376372080031115e-03 0.0000000000000000e+00  2.7815526975539265e-04 5.0960893176178676e-03 0.0000000000000000e+00  2.8415642553896093e-04 5.1529530926508402e-03 0.0000000000000000e+00  2.9127229870421856e-04 5.2081115591907732e-03 0.0000000000000000e+00  2.9920316030100533e-04 5.2615746280720169e-03 0.0000000000000000e+00  3.0772930924926082e-04 5.3134019575807436e-03 0.0000000000000000e+00  3.1669276191599257e-04 5.3636913154817010e-03 0.0000000000000000e+00  3.2597345559272415e-04 5.4125443362295763e-03 0.0000000000000000e+00  3.3545452957720279e-04 5.4600371002787636e-03 0.0000000000000000e+00  3.4499053223483974e-04 5.5062129840496438e-03 0.0000000000000000e+00  3.5439808259135516e-04 5.5511079363118315e-03 0.0000000000000000e+00  3.6346502038537063e-04 5.5948139752046372e-03 0.0000000000000000e+00  3.7197349814357164e-04 5.6376347574233730e-03 0.0000000000000000e+00  2.8025572123588393e-04 4.5418978312397598e-03 0.0000000000000000e+00  2.7142716724261958e-04 4.5896416723454660e-03 0.0000000000000000e+00  2.6308432521592501e-04 4.6399646142219596e-03 0.0000000000000000e+00  2.5550843087942111e-04 4.6923911433307550e-03 0.0000000000000000e+00  2.4898248799379091e-04 4.7465561259943459e-03 0.0000000000000000e+00  2.4379521054808655e-04 4.8021459302865117e-03 0.0000000000000000e+00  2.4022733180064152e-04 4.8588149450230801e-03 0.0000000000000000e+00  2.3851346015488562e-04 4.9161184750476953e-03 0.0000000000000000e+00  2.3879147853441066e-04 4.9735184450867458e-03 0.0000000000000000e+00  2.4106247192254651e-04 5.0304704445385219e-03 0.0000000000000000e+00  2.4519027340979708e-04 5.0865218770823799e-03 0.0000000000000000e+00  2.5094114616329433e-04 5.1413838456739035e-03 0.0000000000000000e+00  2.5804944318353777e-04 5.1949306261480366e-03 0.0000000000000000e+00  2.6627265043709287e-04 5.2471323318871938e-03 0.0000000000000000e+00  2.7540769519665645e-04 5.2980133191306514e-03 0.0000000000000000e+00  2.8528530238126524e-04 5.3476382377226671e-03 0.0000000000000000e+00  2.9575442758482699e-04 5.3960904946002844e-03 0.0000000000000000e+00  3.0665317118867916e-04 5.4434516375682597e-03 0.0000000000000000e+00  3.1777201181757472e-04 5.4897882057441541e-03 0.0000000000000000e+00  3.2881816811698760e-04 5.5351495221594499e-03 0.0000000000000000e+00  3.3942384052239636e-04 5.5796439126345534e-03 0.0000000000000000e+00  3.4905306880626011e-04 5.6235994774694016e-03 0.0000000000000000e+00  2.4411347539609671e-04 4.5976970124713577e-03 0.0000000000000000e+00  2.3455266517468127e-04 4.6476180426381578e-03 0.0000000000000000e+00  2.2586669328223308e-04 4.6991181212504606e-03 0.0000000000000000e+00  2.1841043209166065e-04 4.7518611104482699e-03 0.0000000000000000e+00  2.1248403252609307e-04 4.8055718986322864e-03 0.0000000000000000e+00  2.0833585797298121e-04 4.8599713430088776e-03 0.0000000000000000e+00  2.0614900024806305e-04 4.9147329251611029e-03 0.0000000000000000e+00  2.0601729660459564e-04 4.9694849455451757e-03 0.0000000000000000e+00  2.0792891789984524e-04 5.0238586379235308e-03 0.0000000000000000e+00  2.1177321071329843e-04 5.0775449971979967e-03 0.0000000000000000e+00  2.1737049504069064e-04 5.1303349108457507e-03 0.0000000000000000e+00  2.2451453413220723e-04 5.1821201378356692e-03 0.0000000000000000e+00  2.3300796173008332e-04 5.2328626687673267e-03 0.0000000000000000e+00  2.4267829947026331e-04 5.2825723585643433e-03 0.0000000000000000e+00  2.5337961601184627e-04 5.3312980339913834e-03 0.0000000000000000e+00  2.6498245700906653e-04 5.3791177312597039e-03 0.0000000000000000e+00  2.7734882578330118e-04 5.4261284742836329e-03 0.0000000000000000e+00  2.9029068597706878e-04 5.4724312732456854e-03 0.0000000000000000e+00  3.0352430119407983e-04 5.5181149012393689e-03 0.0000000000000000e+00  3.1658104038881368e-04 5.5631936196727195e-03 0.0000000000000000e+00  3.2903600905132040e-04 5.6081263762147908e-03 0.0000000000000000e+00  3.3877589471405174e-04 5.6551031575257284e-03 0.0000000000000000e+00  2.0469145573104829e-04 4.6555197956626567e-03 0.0000000000000000e+00  1.9487822893756414e-04 4.7060955112934915e-03 0.0000000000000000e+00  1.8652223451968362e-04 4.7573791848193126e-03 0.0000000000000000e+00  1.7990722516159554e-04 4.8091850251688701e-03 0.0000000000000000e+00  1.7524026525327479e-04 4.8613325849587502e-03 0.0000000000000000e+00  1.7265492726229172e-04 4.9136159203773460e-03 0.0000000000000000e+00  1.7220529650243814e-04 4.9658029653875000e-03 0.0000000000000000e+00  1.7386314791591553e-04 5.0176618917414017e-03 0.0000000000000000e+00  1.7752794116132365e-04 5.0689940828539488e-03 0.0000000000000000e+00  1.8304988328962773e-04 5.1196578458959736e-03 0.0000000000000000e+00  1.9025995042168848e-04 5.1695714567146075e-03 0.0000000000000000e+00  1.9899684387449150e-04 5.2187004112646505e-03 0.0000000000000000e+00  2.0912648075347500e-04 5.2670441494593280e-03 0.0000000000000000e+00  2.2055273376068641e-04 5.3146346365365816e-03 0.0000000000000000e+00  2.3321622128281272e-04 5.3615384929753870e-03 0.0000000000000000e+00  2.4707918437028064e-04 5.4078583583115000e-03 0.0000000000000000e+00  2.6209615605224368e-04 5.4537296703708032e-03 0.0000000000000000e+00  2.7814500541437244e-04 5.4992742299720294e-03 0.0000000000000000e+00  2.9501358749437281e-04 5.5446525838206339e-03 0.0000000000000000e+00  3.1139910943965983e-04 5.5895529613907815e-03 0.0000000000000000e+00  3.2547896738354770e-04 5.6414126393532944e-03 0.0000000000000000e+00  1.5278217608771634e-04 4.7632106246680407e-03 0.0000000000000000e+00  1.4560193489215697e-04 4.8130433655868285e-03 0.0000000000000000e+00  1.4054520349872691e-04 4.8629120206531715e-03 0.0000000000000000e+00  1.3769013888383804e-04 4.9127292889144551e-03 0.0000000000000000e+00  1.3705002649798412e-04 4.9623839457517156e-03 0.0000000000000000e+00  1.3857530893617598e-04 5.0117555574181157e-03 0.0000000000000000e+00  1.4216339876968269e-04 5.0607342035434918e-03 0.0000000000000000e+00  1.4767651971367524e-04 5.1092356121858473e-03 0.0000000000000000e+00  1.5496460595820855e-04 5.1572052143069773e-03 0.0000000000000000e+00  1.6388904535030193e-04 5.2046130137105183e-03 0.0000000000000000e+00  1.7435009132354151e-04 5.2514402015852567e-03 0.0000000000000000e+00  1.8630842202350007e-04 5.2976858853994611e-03 0.0000000000000000e+00  1.9979557861446502e-04 5.3433869524281844e-03 0.0000000000000000e+00  2.1489768120732533e-04 5.3886359208056020e-03 0.0000000000000000e+00  2.3171316817533391e-04 5.4336064500201658e-03 0.0000000000000000e+00  2.5025736575377279e-04 5.4786376216429938e-03 0.0000000000000000e+00  2.6983398453511064e-04 5.5241732842737324e-03 0.0000000000000000e+00  2.8867213234882972e-04 5.5738472457544748e-03 0.0000000000000000e+00  2.8319864338532800e-04 5.6378182123512687e-03 0.0000000000000000e+00  2.8163195460591180e-04 5.6969208969701330e-03 0.0000000000000000e+00  1.0916351196845619e-04 4.8171370280236086e-03 0.0000000000000000e+00  1.0393392965455831e-04 4.8646667477836216e-03 0.0000000000000000e+00  1.0099825583937015e-04 4.9119971144402389e-03 0.0000000000000000e+00  1.0033264839916687e-04 4.9591228428760405e-03 0.0000000000000000e+00  1.0186527958183057e-04 5.0060174177749680e-03 0.0000000000000000e+00  1.0548388156566780e-04 5.0526454497940671e-03 0.0000000000000000e+00  1.1104856141789843e-04 5.0989733917996749e-03 0.0000000000000000e+00  1.1840891560054840e-04 5.1449733163522792e-03 0.0000000000000000e+00  1.2742579777967695e-04 5.1906193720010685e-03 0.0000000000000000e+00  1.3800988568936302e-04 5.2358595687435313e-03 0.0000000000000000e+00  1.5015831217667861e-04 5.2806410635109317e-03 0.0000000000000000e+00  1.6395333809950707e-04 5.3249520587637230e-03 0.0000000000000000e+00  1.7953604458836018e-04 5.3689228206531877e-03 0.0000000000000000e+00  1.9685823071175439e-04 5.4129421920237064e-03 0.0000000000000000e+00  2.1515531017798117e-04 5.4580958048051510e-03 0.0000000000000000e+00  2.3144122976402745e-04 5.5082180460762891e-03 0.0000000000000000e+00  2.2987746842291888e-04 5.5731718842015852e-03 0.0000000000000000e+00  2.2903341537450876e-04 5.6363379643036534e-03 0.0000000000000000e+00  2.2796133447656420e-04 5.6955581861237205e-03 0.0000000000000000e+00  2.2826227489804326e-04 5.7490615549363605e-03 0.0000000000000000e+00  6.5219440758604243e-05 4.8664948727775732e-03 0.0000000000000000e+00  6.2440405793971225e-05 4.9113052868679594e-03 0.0000000000000000e+00  6.1943104076830365e-05 4.9558944103351484e-03 0.0000000000000000e+00  6.3638762515061064e-05 5.0003187652871515e-03 0.0000000000000000e+00  6.7403192710660626e-05 5.0446098100086541e-03 0.0000000000000000e+00  7.3084006711889542e-05 5.0887835904882203e-03 0.0000000000000000e+00  8.0510276915802883e-05 5.1328440203973836e-03 0.0000000000000000e+00  8.9508654020588172e-05 5.1767752924985807e-03 0.0000000000000000e+00  9.9966896806836445e-05 5.2204745767885129e-03 0.0000000000000000e+00  1.1187520899695777e-04 5.2637976830211385e-03 0.0000000000000000e+00  1.2535776382782251e-04 5.3067075920545555e-03 0.0000000000000000e+00  1.4041066689925903e-04 5.3493946941502090e-03 0.0000000000000000e+00  1.5665137032148509e-04 5.3931739294200811e-03 0.0000000000000000e+00  1.7061766618409484e-04 5.4416662451807303e-03 0.0000000000000000e+00  1.6984065939109927e-04 5.5071915715316586e-03 0.0000000000000000e+00  1.6921442212020418e-04 5.5723837948931862e-03 0.0000000000000000e+00  1.6854260457822325e-04 5.6355680188757097e-03 0.0000000000000000e+00  1.6864192522413556e-04 5.6958247660153782e-03 0.0000000000000000e+00  1.7211721493154926e-04 5.7472673406404736e-03 0.0000000000000000e+00  1.7412354759729272e-04 5.7943065998153857e-03 0.0000000000000000e+00  2.2022185713625878e-05 4.9105120200033971e-03 0.0000000000000000e+00  2.1895583052999801e-05 4.9525566033195040e-03 0.0000000000000000e+00  2.3916484739992841e-05 4.9945202573418333e-03 0.0000000000000000e+00  2.7951084135241272e-05 5.0364989768771906e-03 0.0000000000000000e+00  3.3829431140357903e-05 5.0785653428834553e-03 0.0000000000000000e+00  4.1339580629586076e-05 5.1207728121564792e-03 0.0000000000000000e+00  5.0230131351939259e-05 5.1631444403300213e-03 0.0000000000000000e+00  6.0306952752818075e-05 5.2054891086426571e-03 0.0000000000000000e+00  7.1532314263781765e-05 5.2475687075106943e-03 0.0000000000000000e+00  8.3843172727845634e-05 5.2892181422859279e-03 0.0000000000000000e+00  9.7184016028066606e-05 5.3314574409450300e-03 0.0000000000000000e+00  1.0810154972777383e-04 5.3770128463148598e-03 0.0000000000000000e+00  1.0760483347543789e-04 5.4409782207790556e-03 0.0000000000000000e+00  1.0665802553554661e-04 5.5065081297586893e-03 0.0000000000000000e+00  1.0601025094461084e-04 5.5717456085995574e-03 0.0000000000000000e+