<?xml version="1.0"?>
<VTKFile type="UnstructuredGrid"  version="0.1"  >
<UnstructuredGrid>
<Piece  NumberOfPoints="640" NumberOfCells="1181">
<Points>
<DataArray  type="Float64"  NumberOfComponents="3"  format="ascii">2.973913043478261 0 0  2.990434782608696 0 0  2.990434782608696 0.01666666666666667 0  2.973913043478261 0.01666666666666667 0  3.006956521739131 0 0  3.006956521739131 0.01666666666666667 0  3.023478260869565 0 0  3.023478260869565 0.01666666666666667 0  3.04 0 0  3.04 0.01666666666666667 0  3.056521739130435 0 0  3.056521739130435 0.01666666666666667 0  3.073043478260869 0 0  3.073043478260869 0.01666666666666667 0  3.089565217391304 0 0  3.089565217391304 0.01666666666666667 0  3.106086956521739 0 0  3.106086956521739 0.01666666666666667 0  3.122608695652174 0 0  3.122608695652174 0.01666666666666667 0  3.139130434782609 0 0  3.139130434782609 0.01666666666666667 0  3.155652173913043 0 0  3.155652173913043 0.01666666666666667 0  3.172173913043478 0 0  3.172173913043478 0.01666666666666667 0  3.188695652173913 0 0  3.188695652173913 0.01666666666666667 0  3.205217391304347 0 0  3.205217391304347 0.01666666666666667 0  3.221739130434782 0 0  3.221739130434782 0.01666666666666667 0  3.238260869565217 0 0  3.238260869565217 0.01666666666666667 0  2.990434782608696 0.03333333333333333 0  2.973913043478261 0.03333333333333333 0  3.006956521739131 0.03333333333333333 0  3.023478260869565 0.03333333333333333 0  3.04 0.03333333333333333 0  3.056521739130435 0.03333333333333333 0  3.073043478260869 0.03333333333333333 0  3.089565217391304 0.03333333333333333 0  3.106086956521739 0.03333333333333333 0  3.122608695652174 0.03333333333333333 0  3.139130434782609 0.03333333333333333 0  3.155652173913043 0.03333333333333333 0  3.172173913043478 0.03333333333333333 0  3.188695652173913 0.03333333333333333 0  3.205217391304347 0.03333333333333333 0  3.221739130434782 0.03333333333333333 0  3.238260869565217 0.03333333333333333 0  3.254782608695652 0.03333333333333333 0  2.990434782608696 0.05 0  3.006956521739131 0.05 0  3.023478260869565 0.05 0  3.04 0.05 0  3.056521739130435 0.05 0  3.073043478260869 0.05 0  3.089565217391304 0.05 0  3.106086956521739 0.05 0  3.122608695652174 0.05 0  3.139130434782609 0.05 0  3.155652173913043 0.05 0  3.172173913043478 0.05 0  3.188695652173913 0.05 0  3.205217391304347 0.05 0  3.221739130434782 0.05 0  3.238260869565217 0.05 0  3.254782608695652 0.05 0  3.271304347826087 0.05 0  3.006956521739131 0.06666666666666667 0  2.990434782608696 0.06666666666666667 0  3.023478260869565 0.06666666666666667 0  3.04 0.06666666666666667 0  3.056521739130435 0.06666666666666667 0  3.073043478260869 0.06666666666666667 0  3.089565217391304 0.06666666666666667 0  3.106086956521739 0.06666666666666667 0  3.122608695652174 0.06666666666666667 0  3.139130434782609 0.06666666666666667 0  3.155652173913043 0.06666666666666667 0  3.172173913043478 0.06666666666666667 0  3.188695652173913 0.06666666666666667 0  3.205217391304347 0.06666666666666667 0  3.221739130434782 0.06666666666666667 0  3.238260869565217 0.06666666666666667 0  3.254782608695652 0.06666666666666667 0  3.271304347826087 0.06666666666666667 0  3.287826086956521 0.06666666666666667 0  3.006956521739131 0.08333333333333333 0  3.023478260869565 0.08333333333333333 0  3.04 0.08333333333333333 0  3.056521739130435 0.08333333333333333 0  3.073043478260869 0.08333333333333333 0  3.089565217391304 0.08333333333333333 0  3.106086956521739 0.08333333333333333 0  3.122608695652174 0.08333333333333333 0  3.139130434782609 0.08333333333333333 0  3.155652173913043 0.08333333333333333 0  3.172173913043478 0.08333333333333333 0  3.188695652173913 0.08333333333333333 0  3.205217391304347 0.08333333333333333 0  3.221739130434782 0.08333333333333333 0  3.238260869565217 0.08333333333333333 0  3.254782608695652 0.08333333333333333 0  3.271304347826087 0.08333333333333333 0  3.287826086956521 0.08333333333333333 0  3.304347826086957 0.08333333333333333 0  3.023478260869565 0.1 0  3.006956521739131 0.1 0  3.04 0.1 0  3.056521739130435 0.1 0  3.073043478260869 0.1 0  3.089565217391304 0.1 0  3.106086956521739 0.1 0  3.122608695652174 0.1 0  3.139130434782609 0.1 0  3.155652173913043 0.1 0  3.172173913043478 0.1 0  3.188695652173913 0.1 0  3.205217391304347 0.1 0  3.221739130434782 0.1 0  3.238260869565217 0.1 0  3.254782608695652 0.1 0  3.271304347826087 0.1 0  3.287826086956521 0.1 0  3.304347826086957 0.1 0  3.320869565217391 0.1 0  3.023478260869565 0.1166666666666667 0  3.04 0.1166666666666667 0  3.056521739130435 0.1166666666666667 0  3.073043478260869 0.1166666666666667 0  3.089565217391304 0.1166666666666667 0  3.106086956521739 0.1166666666666667 0  3.122608695652174 0.1166666666666667 0  3.139130434782609 0.1166666666666667 0  3.155652173913043 0.1166666666666667 0  3.172173913043478 0.1166666666666667 0  3.188695652173913 0.1166666666666667 0  3.205217391304347 0.1166666666666667 0  3.221739130434782 0.1166666666666667 0  3.238260869565217 0.1166666666666667 0  3.254782608695652 0.1166666666666667 0  3.271304347826087 0.1166666666666667 0  3.287826086956521 0.1166666666666667 0  3.304347826086957 0.1166666666666667 0  3.320869565217391 0.1166666666666667 0  3.337391304347826 0.1166666666666667 0  3.04 0.1333333333333333 0  3.023478260869565 0.1333333333333333 0  3.056521739130435 0.1333333333333333 0  3.073043478260869 0.1333333333333333 0  3.089565217391304 0.1333333333333333 0  3.106086956521739 0.1333333333333333 0  3.122608695652174 0.1333333333333333 0  3.139130434782609 0.1333333333333333 0  3.155652173913043 0.1333333333333333 0  3.172173913043478 0.1333333333333333 0  3.188695652173913 0.1333333333333333 0  3.205217391304347 0.1333333333333333 0  3.221739130434782 0.1333333333333333 0  3.238260869565217 0.1333333333333333 0  3.254782608695652 0.1333333333333333 0  3.271304347826087 0.1333333333333333 0  3.287826086956521 0.1333333333333333 0  3.304347826086957 0.1333333333333333 0  3.320869565217391 0.1333333333333333 0  3.337391304347826 0.1333333333333333 0  3.353913043478261 0.1333333333333333 0  3.04 0.15 0  3.056521739130435 0.15 0  3.073043478260869 0.15 0  3.089565217391304 0.15 0  3.106086956521739 0.15 0  3.122608695652174 0.15 0  3.139130434782609 0.15 0  3.155652173913043 0.15 0  3.172173913043478 0.15 0  3.188695652173913 0.15 0  3.205217391304347 0.15 0  3.221739130434782 0.15 0  3.238260869565217 0.15 0  3.254782608695652 0.15 0  3.271304347826087 0.15 0  3.287826086956521 0.15 0  3.304347826086957 0.15 0  3.320869565217391 0.15 0  3.337391304347826 0.15 0  3.353913043478261 0.15 0  3.370434782608696 0.15 0  3.056521739130435 0.1666666666666667 0  3.073043478260869 0.1666666666666667 0  3.089565217391304 0.1666666666666667 0  3.106086956521739 0.1666666666666667 0  3.122608695652174 0.1666666666666667 0  3.139130434782609 0.1666666666666667 0  3.155652173913043 0.1666666666666667 0  3.172173913043478 0.1666666666666667 0  3.188695652173913 0.1666666666666667 0  3.205217391304347 0.1666666666666667 0  3.221739130434782 0.1666666666666667 0  3.238260869565217 0.1666666666666667 0  3.254782608695652 0.1666666666666667 0  3.271304347826087 0.1666666666666667 0  3.287826086956521 0.1666666666666667 0  3.304347826086957 0.1666666666666667 0  3.320869565217391 0.1666666666666667 0  3.337391304347826 0.1666666666666667 0  3.353913043478261 0.1666666666666667 0  3.370434782608696 0.1666666666666667 0  3.386956521739131 0.1666666666666667 0  3.073043478260869 0.1833333333333333 0  3.089565217391304 0.1833333333333333 0  3.106086956521739 0.1833333333333333 0  3.122608695652174 0.1833333333333333 0  3.139130434782609 0.1833333333333333 0  3.155652173913043 0.1833333333333333 0  3.172173913043478 0.1833333333333333 0  3.188695652173913 0.1833333333333333 0  3.205217391304347 0.1833333333333333 0  3.221739130434782 0.1833333333333333 0  3.238260869565217 0.1833333333333333 0  3.254782608695652 0.1833333333333333 0  3.271304347826087 0.1833333333333333 0  3.287826086956521 0.1833333333333333 0  3.304347826086957 0.1833333333333333 0  3.320869565217391 0.1833333333333333 0  3.337391304347826 0.1833333333333333 0  3.353913043478261 0.1833333333333333 0  3.370434782608696 0.1833333333333333 0  3.386956521739131 0.1833333333333333 0  3.403478260869565 0.1833333333333333 0  3.089565217391304 0.2 0  3.106086956521739 0.2 0  3.122608695652174 0.2 0  3.139130434782609 0.2 0  3.155652173913043 0.2 0  3.172173913043478 0.2 0  3.188695652173913 0.2 0  3.205217391304347 0.2 0  3.221739130434782 0.2 0  3.238260869565217 0.2 0  3.254782608695652 0.2 0  3.271304347826087 0.2 0  3.287826086956521 0.2 0  3.304347826086957 0.2 0  3.320869565217391 0.2 0  3.337391304347826 0.2 0  3.353913043478261 0.2 0  3.370434782608696 0.2 0  3.386956521739131 0.2 0  3.403478260869565 0.2 0  3.419999999999999 0.2 0  3.106086956521739 0.2166666666666667 0  3.122608695652174 0.2166666666666667 0  3.139130434782609 0.2166666666666667 0  3.155652173913043 0.2166666666666667 0  3.172173913043478 0.2166666666666667 0  3.188695652173913 0.2166666666666667 0  3.205217391304347 0.2166666666666667 0  3.221739130434782 0.2166666666666667 0  3.238260869565217 0.2166666666666667 0  3.254782608695652 0.2166666666666667 0  3.271304347826087 0.2166666666666667 0  3.287826086956521 0.2166666666666667 0  3.304347826086957 0.2166666666666667 0  3.320869565217391 0.2166666666666667 0  3.337391304347826 0.2166666666666667 0  3.353913043478261 0.2166666666666667 0  3.370434782608696 0.2166666666666667 0  3.386956521739131 0.2166666666666667 0  3.403478260869565 0.2166666666666667 0  3.419999999999999 0.2166666666666667 0  3.436521739130435 0.2166666666666667 0  3.122608695652174 0.2333333333333333 0  3.139130434782609 0.2333333333333333 0  3.155652173913043 0.2333333333333333 0  3.172173913043478 0.2333333333333333 0  3.188695652173913 0.2333333333333333 0  3.205217391304347 0.2333333333333333 0  3.221739130434782 0.2333333333333333 0  3.238260869565217 0.2333333333333333 0  3.254782
[...]
<PointData  Vectors="Displacement"> 
<DataArray  type="Float64"  Name="Displacement"  NumberOfComponents="3" format="ascii">4.9583166798420437e-04 5.6096706499086353e-03 0.0000000000000000e+00  4.9592939225080322e-04 5.6500864212423669e-03 0.0000000000000000e+00  4.5684190900698588e-04 5.6495660189104756e-03 0.0000000000000000e+00  4.5391076292573823e-04 5.6091380211101428e-03 0.0000000000000000e+00  4.9584263309770417e-04 5.6875778039636761e-03 0.0000000000000000e+00  4.5984848810487673e-04 5.6870762847409679e-03 0.0000000000000000e+00  4.9557192649299895e-04 5.7219634324233342e-03 0.0000000000000000e+00  4.6284341063622126e-04 5.7214686195087910e-03 0.0000000000000000e+00  4.9508118856033106e-04 5.7529035961648399e-03 0.0000000000000000e+00  4.6595731726658190e-04 5.7525213692935636e-03 0.0000000000000000e+00  4.9431710403755676e-04 5.7800158036629612e-03 0.0000000000000000e+00  4.6890077388749154e-04 5.7798914914436736e-03 0.0000000000000000e+00  4.9340004202769910e-04 5.8028841531161234e-03 0.0000000000000000e+00  4.7134522209822774e-04 5.8031984818712181e-03 0.0000000000000000e+00  4.9318153122095978e-04 5.8227046186104126e-03 0.0000000000000000e+00  4.7229660519888865e-04 5.8224763981053890e-03 0.0000000000000000e+00  5.0620817084891798e-04 5.8491075337442459e-03 0.0000000000000000e+00  4.7286480836872231e-04 5.8433239316062766e-03 0.0000000000000000e+00  5.2178191981477147e-04 5.8794035464884344e-03 0.0000000000000000e+00  4.8951053284214830e-04 5.8744954305024952e-03 0.0000000000000000e+00  5.3825306390804708e-04 5.9106993481048602e-03 0.0000000000000000e+00  5.0420452125903904e-04 5.9056337712762716e-03 0.0000000000000000e+00  5.5546975175999687e-04 5.9449912972004476e-03 0.0000000000000000e+00  5.1828370272443964e-04 5.9397605680408631e-03 0.0000000000000000e+00  5.7285298199835676e-04 5.9837635477667638e-03 0.0000000000000000e+00  5.3181497710673084e-04 5.9786132600016138e-03 0.0000000000000000e+00  5.8973045110146522e-04 6.0273897210749708e-03 0.0000000000000000e+00  5.4457913295682459e-04 6.0224846933561987e-03 0.0000000000000000e+00  6.0536609190908481e-04 6.0760769279062585e-03 0.0000000000000000e+00  5.5613222605245191e-04 6.0716471886545810e-03 0.0000000000000000e+00  6.1897379883294466e-04 6.1296519059624690e-03 0.0000000000000000e+00  5.6595101306764395e-04 6.1259556105911234e-03 0.0000000000000000e+00  6.3003196449502765e-04 6.1872293125230715e-03 0.0000000000000000e+00  5.7375503485038593e-04 6.1843634049929038e-03 0.0000000000000000e+00  4.3339419007144207e-04 5.6366853806324325e-03 0.0000000000000000e+00  4.2936158758796999e-04 5.5953745839040460e-03 0.0000000000000000e+00  4.3645625346589719e-04 5.6758782212031856e-03 0.0000000000000000e+00  4.3742716061164643e-04 5.7133807402440428e-03 0.0000000000000000e+00  4.3469660586816996e-04 5.7514689941702678e-03 0.0000000000000000e+00  4.4338336465439527e-04 5.7787294936358039e-03 0.0000000000000000e+00  4.5309293748345381e-04 5.8024649502834503e-03 0.0000000000000000e+00  4.5670311807144691e-04 5.8221962249138913e-03 0.0000000000000000e+00  4.5901521694659991e-04 5.8445834109563232e-03 0.0000000000000000e+00  4.6287824225778621e-04 5.8709015585158321e-03 0.0000000000000000e+00  4.7261571266716038e-04 5.9014536949154681e-03 0.0000000000000000e+00  4.8279471120164736e-04 5.9351465371784724e-03 0.0000000000000000e+00  4.9282169319437327e-04 5.9741317276992001e-03 0.0000000000000000e+00  5.0234316844752290e-04 6.0182079000358525e-03 0.0000000000000000e+00  5.1075897167481108e-04 6.0678876471555801e-03 0.0000000000000000e+00  5.1743210438132028e-04 6.1231266770920868e-03 0.0000000000000000e+00  5.2227269788457950e-04 6.1824153427412860e-03 0.0000000000000000e+00  5.2537214858686294e-04 6.2446726925602337e-03 0.0000000000000000e+00  4.1055993378683183e-04 5.6234039729404790e-03 0.0000000000000000e+00  4.1586787084109384e-04 5.6640458863899505e-03 0.0000000000000000e+00  4.2039158422242380e-04 5.7034101417622668e-03 0.0000000000000000e+00  4.2436829102751995e-04 5.7413944389485515e-03 0.0000000000000000e+00  4.2903360160378274e-04 5.7714473589467307e-03 0.0000000000000000e+00  4.3369898665732035e-04 5.7970718312747105e-03 0.0000000000000000e+00  4.3754932962878772e-04 5.8215300464250297e-03 0.0000000000000000e+00  4.3826786793528256e-04 5.8446060027804473e-03 0.0000000000000000e+00  4.3986981062997440e-04 5.8704590109083226e-03 0.0000000000000000e+00  4.4201204813393540e-04 5.8991320954476251e-03 0.0000000000000000e+00  4.4841468661342476e-04 5.9310876693899903e-03 0.0000000000000000e+00  4.5530779345803274e-04 5.9698604281446721e-03 0.0000000000000000e+00  4.6253252685512261e-04 6.0138602126602395e-03 0.0000000000000000e+00  4.6870714116865940e-04 6.0642674096617367e-03 0.0000000000000000e+00  4.7245203322145499e-04 6.1209589789332636e-03 0.0000000000000000e+00  4.7435102185521206e-04 6.1813423368073279e-03 0.0000000000000000e+00  4.7478779529099019e-04 6.2444450317092398e-03 0.0000000000000000e+00  4.7399421866627052e-04 6.3094174483745505e-03 0.0000000000000000e+00  3.9454446445349312e-04 5.6511880016198862e-03 0.0000000000000000e+00  3.8734099682404108e-04 5.6094125782057492e-03 0.0000000000000000e+00  4.0117840074192546e-04 5.6922165514287221e-03 0.0000000000000000e+00  4.0665101792082249e-04 5.7321735778203186e-03 0.0000000000000000e+00  4.1012500020752698e-04 5.7676210786405807e-03 0.0000000000000000e+00  4.1300954750126719e-04 5.7950060796716973e-03 0.0000000000000000e+00  4.1314420833987747e-04 5.8203623723426896e-03 0.0000000000000000e+00  4.1343271197313451e-04 5.8445976974457661e-03 0.0000000000000000e+00  4.1368033447673432e-04 5.8703599622101799e-03 0.0000000000000000e+00  4.1438748578159599e-04 5.8987422077562499e-03 0.0000000000000000e+00  4.1593618053350280e-04 5.9300284407888910e-03 0.0000000000000000e+00  4.1834726754751963e-04 5.9663317698357247e-03 0.0000000000000000e+00  4.2310228437374793e-04 6.0074795106985065e-03 0.0000000000000000e+00  4.3112258555320411e-04 6.0607691258110644e-03 0.0000000000000000e+00  4.3035791427473158e-04 6.1196430554008481e-03 0.0000000000000000e+00  4.2889351724818652e-04 6.1812917941418905e-03 0.0000000000000000e+00  4.2645974150188086e-04 6.2452749019590607e-03 0.0000000000000000e+00  4.2327565018351502e-04 6.3108812366051209e-03 0.0000000000000000e+00  4.1949957159199952e-04 6.3773974421283330e-03 0.0000000000000000e+00  3.7197349814357164e-04 5.6376347574233730e-03 0.0000000000000000e+00  3.7954411510696660e-04 5.6805037088695168e-03 0.0000000000000000e+00  3.8554364053256554e-04 5.7247378620732320e-03 0.0000000000000000e+00  3.8678282632391008e-04 5.7676621861404145e-03 0.0000000000000000e+00  3.8752297714375242e-04 5.7958689584372853e-03 0.0000000000000000e+00  3.8756479385473826e-04 5.8199523699636420e-03 0.0000000000000000e+00  3.8735963926129775e-04 5.8446736616299226e-03 0.0000000000000000e+00  3.8623246504294829e-04 5.8706453181478864e-03 0.0000000000000000e+00  3.8448503027372152e-04 5.8989810021098264e-03 0.0000000000000000e+00  3.8279700947213194e-04 5.9302002706762991e-03 0.0000000000000000e+00  3.8157635049628234e-04 5.9659753394550007e-03 0.0000000000000000e+00  3.8175107198861640e-04 6.0064543088381665e-03 0.0000000000000000e+00  3.8338905767274807e-04 6.0598932517134853e-03 0.0000000000000000e+00  3.8641246673821040e-04 6.1191052726390863e-03 0.0000000000000000e+00  3.8431751442855820e-04 6.1825435781901038e-03 0.0000000000000000e+00  3.7899185955214465e-04 6.2473218970083245e-03 0.0000000000000000e+00  3.7339984492900790e-04 6.3134650982560438e-03 0.0000000000000000e+00  3.6775017835837133e-04 6.3803016999892711e-03 0.0000000000000000e+00  3.6215406345889846e-04 6.4471415505705639e-03 0.0000000000000000e+00  3.5670684376443423e-04 5.6686174753953558e-03 0.0000000000000000e+00  3.4905306880626011e-04 5.6235994774694016e-03 0.0000000000000000e+00  3.6089909844587399e-04 5.7169792537433576e-03 0.0000000000000000e+00  3.6390529070103663e-04 5.7736016186943385e-03 0.0000000000000000e+00  3.6425345160431583e-04 5.7953815291438638e-03 0.0000000000000000e+00  3.6355645724580905e-04 5.8196592940149691e-03 0.0000000000000000e+00  3.6317677076251977e-04 5.8445077761892289e-03 0.0000000000000000e+00  3.6180877421634178e-04 5.8707083884845376e-03 0.0000000000000000e+00  3.5590438810708671e-04 5.8995630538841463e-03 0.0000000000000000e+00  3.5117992628794529e-04 5.9311954915693046e-03 0.0000000000000000e+00  3.4547959046212710e-04 5.9663932042744684e-03 0.0000000000000000e+00  3.3656362914643407e-04 6.0070571312590190e-03 0.0000000000000000e+00  3.2842268218076021e-04 6.0601311635549923e-03 0.0000000000000000e+00  3.2909584384267055e-04 6.1188218545638069e-03 0.0000000000000000e+00  3.3033195016270980e-04 6.1840731830971971e-03 0.0000000000000000e+00  3.3131903297535758e-04 6.2507960405504426e-03 0.0000000000000000e+00  3.2297683745658899e-04 6.3171568298142026e-03 0.0000000000000000e+00  3.1572738579147772e-04 6.3841779976840547e-03 0.0000000000000000e+00  3.0910354992464193e-04 6.4508080413179861e-03 0.0000000000000000e+00  3.0281751332039626e-04 6.5174164856427177e-03 0.0000000000000000e+00  3.3877589471405174e-04 5.6551031575257284e-03 0.0000000000000000e+00  3.4434043403847552e-04 5.7069175701517337e-03 0.0000000000000000e+00  3.4762450599278304e-04 5.7549348722842194e-03 0.0000000000000000e+00  3.4460926490639517e-04 5.7934734636847620e-03 0.0000000000000000e+00  3.4281388630249881e-04 5.8188707888561803e-03 0.0000000000000000e+00  3.4138594233717789e-04 5.8437034213771090e-03 0.0000000000000000e+00  3.3369575430776031e-04 5.8794608482171514e-03 0.0000000000000000e+00  3.2455052264606158e-04 5.9134812567277510e-03 0.0000000000000000e+00  3.1488820722616107e-04 5.9483847684324090e-03 0.0000000000000000e+00  3.0447087310022416e-04 5.9865673762270607e-03 0.0000000000000000e+00  2.9275476818647076e-04 6.0293876523396300e-03 0.0000000000000000e+00  2.8012542087989939e-04 6.0774993553172887e-03 0.0000000000000000e+00  2.6568223339733791e-04 6.1192978303121004e-03 0.0000000000000000e+00  2.6586628423947990e-04 6.1842661082798537e-03 0.0000000000000000e+00  2.6698744997207907e-04 6.2513648160405673e-03 0.0000000000000000e+00  2.6878096793377007e-04 6.3214010691877319e-03 0.0000000000000000e+00  2.6196328868649245e-04 6.3886575481381181e-03 0.0000000000000000e+00  2.5553824210129168e-04 6.4549441109535508e-03 0.0000000000000000e+00  2.4890189231938629e-04 6.5212516676532578e-03 0.0000000000000000e+00  2.4228884184247801e-04 6.5880893803878316e-03 0.0000000000000000e+00  3.2456595476825504e-04 5.6993075889370812e-03 0.0000000000000000e+00  3.2547896738354770e-04 5.6414126393532944e-03 0.0000000000000000e+00  3.2194674904055027e-04 5.7510101871350418e-03 0.0000000000000000e+00  3.1853342716271722e-04 5.7905048881707298e-03 0.0000000000000000e+00  3.1911435149583901e-04 5.8183544014614045e-03 0.0000000000000000e+00  3.0833731704448387e-04 5.8535289656281514e-03 0.0000000000000000e+00  2.9717942129478433e-04 5.8914260437767547e-03 0.0000000000000000e+00  2.8654346846256713e-04 5.9286969696116434e-03 0.0000000000000000e+00  2.7535609784850256e-04 5.9666484427907344e-03 0.0000000000000000e+00  2.6334071344747957e-04 6.0070869932127473e-03 0.0000000000000000e+00  2.5059818341849983e-04 6.0509840070622481e-03 0.0000000000000000e+00  2.3757982161821497e-04 6.0980598238263720e-03 0.0000000000000000e+00  2.2452417910072682e-04 6.1445791217159115e-03 0.0000000000000000e+00  2.1153123926359577e-04 6.1982543068158013e-03 0.0000000000000000e+00  2.0076175883231259e-04 6.2518711330129097e-03 0.0000000000000000e+00  2.0223048402854226e-04 6.3218161154620436e-03 0.0000000000000000e+00  2.0324323466883569e-04 6.3911441833624958e-03 0.0000000000000000e+00  2.0370063713661180e-04 6.4597171158633270e-03 0.0000000000000000e+00  1.9494522333500972e-04 6.5252836696203537e-03 0.0000000000000000e+00  1.8755686599058715e-04 6.5923925791979985e-03 0.0000000000000000e+00  1.8058109678287707e-04 6.6593861736132928e-03 0.0000000000000000e+00  2.8163195460591180e-04 5.6969208969701330e-03 0.0000000000000000e+00  2.7979838949965469e-04 5.7485867702833614e-03 0.0000000000000000e+00  2.8032095605762253e-04 5.7911263305920587e-03 0.0000000000000000e+00  2.7326503283549547e-04 5.8259037676947944e-03 0.0000000000000000e+00  2.6445041094765801e-04 5.8650993422535410e-03 0.0000000000000000e+00  2.5467257569036756e-04 5.9046348011566174e-03 0.0000000000000000e+00  2.4443321116451508e-04 5.9441656237442086e-03 0.0000000000000000e+00  2.3329077232576363e-04 5.9846376322734100e-03 0.0000000000000000e+00  2.2109102554841462e-04 6.0270704019897755e-03 0.0000000000000000e+00  2.0803014655205925e-04 6.0720356982538314e-03 0.0000000000000000e+00  1.9443125386980252e-04 6.1192825644190135e-03 0.0000000000000000e+00  1.8035577174535053e-04 6.1675530739677209e-03 0.0000000000000000e+00  1.6558137672592656e-04 6.2193238159667756e-03 0.0000000000000000e+00  1.5086340312217401e-04 6.2714414431756663e-03 0.0000000000000000e+00  1.3494947353006502e-04 6.3223035531423449e-03 0.0000000000000000e+00  1.3568324418899256e-04 6.3914003591846553e-03 0.0000000000000000e+00  1.3640186212391896e-04 6.4601983424751484e-03 0.0000000000000000e+00  1.3706601631640478e-04 6.5291759894620972e-03 0.0000000000000000e+00  1.3064558295220071e-04 6.5967960539738196e-03 0.0000000000000000e+00  1.2426336254699872e-04 6.6644433001475300e-03 0.0000000000000000e+00  1.1783264000352739e-04 6.7307288889718363e-03 0.0000000000000000e+00  2.2826227489804326e-04 5.7490615549363605e-03 0.0000000000000000e+00  2.2674433098817371e-04 5.7924021048591269e-03 0.0000000000000000e+00  2.2345753022075582e-04 5.8336477463131007e-03 0.0000000000000000e+00  2.1720914152936302e-04 5.8752043808485309e-03 0.0000000000000000e+00  2.0949215964020327e-04 5.9169913193326332e-03 0.0000000000000000e+00  2.0041828415009677e-04 5.9589542443034722e-03 0.0000000000000000e+00  1.8995010567183525e-04 6.0018084973933045e-03 0.0000000000000000e+00  1.7815231919469807e-04 6.0462022557427834e-03 0.0000000000000000e+00  1.6524064988481383e-04 6.0924740847485507e-03 0.0000000000000000e+00  1.5146970341011352e-04 6.1405061332072686e-03 0.0000000000000000e+00  1.3693189622104615e-04 6.1898647333522320e-03 0.0000000000000000e+00  1.2159439391299366e-04 6.2412610889553593e-03 0.0000000000000000e+00  1.0571819439061251e-04 6.2931515409367315e-03 0.0000000000000000e+00  8.8649320333160996e-05 6.3443940189641303e-03 0.0000000000000000e+00  6.8484964624076231e-05 6.3919059174104426e-03 0.0000000000000000e+00  6.8970444699827403e-05 6.4604778011595268e-03 0.0000000000000000e+00  7.0025135085866681e-05 6.5297898392495035e-03 0.0000000000000000e+00  7.1660150183521911e-05 6.6003602630290139e-03 0.0000000000000000e+00  6.6784538204540969e-05 6.6694519930984375e-03 0.0000000000000000e+00  6.1288594663956789e-05 6.7363907285864716e-03 0.0000000000000000e+00  5.5195455084362327e-05 6.8016256023014409e-03 0.0000000000000000e+00  1.7412354759729272e-04 5.7943065998153857e-03 0.0000000000000000e+00  1.7313198474119506e-04 5.8391631331344467e-03 0.0000000000000000e+00  1.6944264253460580e-04 5.8837541258562063e-03 0.0000000000000000e+00  1.6356225662815950e-04 5.9281601471779391e-03 0.0000000000000000e+00  1.5578960284471938e-04 5.9727368287196816e-03 0.0000000000000000e+00  1.4624939045591740e-04 6.0180021478793725e-03 0.0000000000000000e+00  1.3512609209508753e-04 6.0644071613917914e-03 0.0000000000000000e+00  1.2266724481283539e-04 6.1121848235176001e-03 0.0000000000000000e+00  1.0912746237406405e-04 6.1613014775311640e-03 0.0000000000000000e+00  9.4690153363439315e-05 6.2115829344234832e-03 0.0000000000000000e+00  7.9513206455823434e-05 6.2631367307054275e-03 0.0000000000000000e+00  6.3881681374255907e-05 6.3151324949445101e-03 0.0000000000000000e+00  4.7822084163469126e-05 6.3669160185822141e-03 0.0000000000000000e+00  3.1317712015129072e-05 6.4179728140522892e-03 0.0000000000000000e+00  1.5596650978757300e-05 6.4737398670380291e-03 0.0000000000000000e+00  3.6245182117490214e-06 6.5303404349661611e-03 0.0000000000000000e+00  5.8493213149658684e-06 6.6014579097643982e-03 0.0000000000000000e+00  8.1220203202295717e-06 6.6738168545626324e-03 0.0000000000000000e+00  5.2271768195228078e-06 6.7423753503295814e-03 0.0000000000000000e+00  -1.0313422776964372e-06 6.8082868828086788e-03 0.0000000000000000e+00  -7.4011181181246172e-06 6.8717800815269684e-03 0.0000000000000000e+00  1.2437666145150394e-04 5.8434102208988620e-03 0.0000000000000000e+00  1.2244322956290562e-04 5.8910068443827216e-03 0.0000000000000000e+00  1.1805870533807668e-04 5.9382597830629292e-03 0.0000000000000000e+00  1.1146365696651206e-04 5.9855325122099403e-03 0.0000000000000000e+00  1.0286463474673112e-04 6.0332443124491621e-03 0.0000000000000000e+00  9.2491762524128643e-05 6.0817256182679842e-03 0.0000000000000000e+00  8.0606155175877336e-05 6.1311525371264344e-03 0.0000000000000000e+00  6.7467887649652942e-05 6.1815311287575806e-03 0.0000000000000000e+00  5.3302097842290766e-05 6.2327691681678520e-03 0.0000000000000000e+00  3.8317491662852398e-05 6.2847914686628443e-03 0.0000000000000000e+00  2.2734809252977732e-05 6.3371245644927602e-03 0.0000000000000000e+00  6.6131102550629463e-06 6.3894127199387880e-03 0.0000000000000000e+00  -1.0086500323024526e-05 6.4416591362524891e-03 0.0000000000000000e+00  -2.7157481821270400e-05 6.4957365006334212e-03 0.0000000000000000e+00  -4.3791536386309353e-05 6.5499294593437700e-03 0.0000000000000000e+00  -6.0927444079494126e-05 6.6026912971663748e-03 0.0000000000000000e+00  -5.9365973723548263e-05 6.6744488625985572e-03 0.0000000000000000e+00  -5.8023616670810726e-05 6.7456996027063171e-03 0.0000000000000000e+00  -5.7334962288246669e-05 6.8161081480171450e-03 0.0000000000000000e+00  -6.4539808417871518e-05 6.8793389570813296e-03 0.0000000000000000e+00  -7.0633839084154141e-05 6.9408119068553667e-03 0.0000000000000000e+00  7.7024487071485534e-05 5.8974275499981263e-03 0.0000000000000000e+00  7.3713894262226570e-05 5.9475325213662680e-03 0.0000000000000000e+00  6.8068154751362630e-05 5.9975075427736967e-03 0.0000000000000000e+00  6.0291941391688001e-05 6.0476738649171335e-03 0.0000000000000000e+00  5.0618481328055811e-05 6.0982793205582924e-03 0.0000000000000000e+00  3.9301381383142246e-05 6.1494593320529922e-03 0.0000000000000000e+00  2.6593075733966334e-05 6.2012337370214833e-03 0.0000000000000000e+00  1.2723573732840277e-05 6.2535434512705317e-03 0.0000000000000000e+00  -2.1014648169602308e-06 6.3062848508990315e-03 0.0000000000000000e+00  -1.7711306334819372e-05 6.3591881529188772e-03 0.0000000000000000e+00  -3.4049396528711679e-05 6.4120744134635648e-03 0.0000000000000000e+00  -5.1136385590059969e-05 6.4650237359410940e-03 0.0000000000000000e+00  -6.8913852254196627e-05 6.5186842950006414e-03 0.0000000000000000e+00  -8.7151230249206263e-05 6.5722448265460960e-03 0.0000000000000000e+00  -1.0629891391090705e-04 6.6248855242993206e-03 0.0000000000000000e+00  -1.2749348443799591e-04 6.6752875452328799e-03 0.0000000000000000e+00  -1.2669146265589589e-04 6.7460653530374897e-03 0.0000000000000000e+00  -1.2557331983810977e-04 6.8168173287116249e-03 0.0000000000000000e+00  -1.2457139843201202e-04 6.8873697646299210e-03 0.0000000000000000e+00  -1.2945074899381773e-04 6.9486243064732240e-03 0.0000000000000000e+00  -1.3391072447693482e-04 7.0083490641539049e-03 0.0000000000000000e+00  3.0954449670251462e-05 5.9562570338397500e-03 0.0000000000000000e+00  2.6001316356047214e-05 6.0088812283156361e-03 0.0000000000000000e+00  1.8874194233221296e-05 6.0614818906550025e-03 0.0000000000000000e+00  9.7846079920527181e-06 6.1142353707123662e-03 0.0000000000000000e+00  -1.0340377588024031e-06 6.1672397556392818e-03 0.0000000000000000e+00  -1.3345660730464206e-05 6.2205136972265660e-03 0.0000000000000000e+00  -2.6929121025619183e-05 6.2740156397538471e-03 0.0000000000000000e+00  -4.1588538935422598e-05 6.3276596881429500e-03 0.0000000000000000e+00  -5.7169072596151300e-05 6.3812941804350133e-03 0.0000000000000000e+00  -7.3589209944486332e-05 6.43483254727