<?xml version="1.0"?>
<VTKFile type="UnstructuredGrid"  version="0.1"  >
<UnstructuredGrid>
<Piece  NumberOfPoints="617" NumberOfCells="1135">
<Points>
<DataArray  type="Float64"  NumberOfComponents="3"  format="ascii">0 0 0  0.01652173913043478 0 0  0.01652173913043478 0.01666666666666667 0  0 0.01666666666666667 0  0.03304347826086956 0 0  0.03304347826086956 0.01666666666666667 0  0.04956521739130434 0 0  0.04956521739130434 0.01666666666666667 0  0.06608695652173913 0 0  0.06608695652173913 0.01666666666666667 0  0.08260869565217391 0 0  0.08260869565217391 0.01666666666666667 0  0.09913043478260869 0.01666666666666667 0  0.01652173913043478 0.03333333333333333 0  0 0.03333333333333333 0  0.03304347826086956 0.03333333333333333 0  0.04956521739130434 0.03333333333333333 0  0.06608695652173913 0.03333333333333333 0  0.08260869565217391 0.03333333333333333 0  0.09913043478260869 0.03333333333333333 0  0.1156521739130435 0.03333333333333333 0  0.01652173913043478 0.05 0  0 0.05 0  0.03304347826086956 0.05 0  0.04956521739130434 0.05 0  0.06608695652173913 0.05 0  0.08260869565217391 0.05 0  0.09913043478260869 0.05 0  0.1156521739130435 0.05 0  0.1321739130434783 0.05 0  0.01652173913043478 0.06666666666666667 0  0 0.06666666666666667 0  0.03304347826086956 0.06666666666666667 0  0.04956521739130434 0.06666666666666667 0  0.06608695652173913 0.06666666666666667 0  0.08260869565217391 0.06666666666666667 0  0.09913043478260869 0.06666666666666667 0  0.1156521739130435 0.06666666666666667 0  0.1321739130434783 0.06666666666666667 0  0.148695652173913 0.06666666666666667 0  0.01652173913043478 0.08333333333333333 0  0 0.08333333333333333 0  0.03304347826086956 0.08333333333333333 0  0.04956521739130434 0.08333333333333333 0  0.06608695652173913 0.08333333333333333 0  0.08260869565217391 0.08333333333333333 0  0.09913043478260869 0.08333333333333333 0  0.1156521739130435 0.08333333333333333 0  0.1321739130434783 0.08333333333333333 0  0.148695652173913 0.08333333333333333 0  0.1652173913043478 0.08333333333333333 0  0.01652173913043478 0.1 0  0 0.1 0  0.03304347826086956 0.1 0  0.04956521739130434 0.1 0  0.06608695652173913 0.1 0  0.08260869565217391 0.1 0  0.09913043478260869 0.1 0  0.1156521739130435 0.1 0  0.1321739130434783 0.1 0  0.148695652173913 0.1 0  0.1652173913043478 0.1 0  0.1817391304347826 0.1 0  0.01652173913043478 0.1166666666666667 0  0 0.1166666666666667 0  0.03304347826086956 0.1166666666666667 0  0.04956521739130434 0.1166666666666667 0  0.06608695652173913 0.1166666666666667 0  0.08260869565217391 0.1166666666666667 0  0.09913043478260869 0.1166666666666667 0  0.1156521739130435 0.1166666666666667 0  0.1321739130434783 0.1166666666666667 0  0.148695652173913 0.1166666666666667 0  0.1652173913043478 0.1166666666666667 0  0.1817391304347826 0.1166666666666667 0  0.1982608695652174 0.1166666666666667 0  0.01652173913043478 0.1333333333333333 0  0 0.1333333333333333 0  0.03304347826086956 0.1333333333333333 0  0.04956521739130434 0.1333333333333333 0  0.06608695652173913 0.1333333333333333 0  0.08260869565217391 0.1333333333333333 0  0.09913043478260869 0.1333333333333333 0  0.1156521739130435 0.1333333333333333 0  0.1321739130434783 0.1333333333333333 0  0.148695652173913 0.1333333333333333 0  0.1652173913043478 0.1333333333333333 0  0.1817391304347826 0.1333333333333333 0  0.1982608695652174 0.1333333333333333 0  0.2147826086956522 0.1333333333333333 0  0.01652173913043478 0.15 0  0 0.15 0  0.03304347826086956 0.15 0  0.04956521739130434 0.15 0  0.06608695652173913 0.15 0  0.08260869565217391 0.15 0  0.09913043478260869 0.15 0  0.1156521739130435 0.15 0  0.1321739130434783 0.15 0  0.148695652173913 0.15 0  0.1652173913043478 0.15 0  0.1817391304347826 0.15 0  0.1982608695652174 0.15 0  0.2147826086956522 0.15 0  0.2313043478260869 0.15 0  0.01652173913043478 0.1666666666666667 0  0 0.1666666666666667 0  0.03304347826086956 0.1666666666666667 0  0.04956521739130434 0.1666666666666667 0  0.06608695652173913 0.1666666666666667 0  0.08260869565217391 0.1666666666666667 0  0.09913043478260869 0.1666666666666667 0  0.1156521739130435 0.1666666666666667 0  0.1321739130434783 0.1666666666666667 0  0.148695652173913 0.1666666666666667 0  0.1652173913043478 0.1666666666666667 0  0.1817391304347826 0.1666666666666667 0  0.1982608695652174 0.1666666666666667 0  0.2147826086956522 0.1666666666666667 0  0.2313043478260869 0.1666666666666667 0  0.2478260869565218 0.1666666666666667 0  0.01652173913043478 0.1833333333333333 0  0 0.1833333333333333 0  0.03304347826086956 0.1833333333333333 0  0.04956521739130434 0.1833333333333333 0  0.06608695652173913 0.1833333333333333 0  0.08260869565217391 0.1833333333333333 0  0.09913043478260869 0.1833333333333333 0  0.1156521739130435 0.1833333333333333 0  0.1321739130434783 0.1833333333333333 0  0.148695652173913 0.1833333333333333 0  0.1652173913043478 0.1833333333333333 0  0.1817391304347826 0.1833333333333333 0  0.1982608695652174 0.1833333333333333 0  0.2147826086956522 0.1833333333333333 0  0.2313043478260869 0.1833333333333333 0  0.2478260869565218 0.1833333333333333 0  0.2643478260869565 0.1833333333333333 0  0.01652173913043478 0.2 0  0 0.2 0  0.03304347826086956 0.2 0  0.04956521739130434 0.2 0  0.06608695652173913 0.2 0  0.08260869565217391 0.2 0  0.09913043478260869 0.2 0  0.1156521739130435 0.2 0  0.1321739130434783 0.2 0  0.148695652173913 0.2 0  0.1652173913043478 0.2 0  0.1817391304347826 0.2 0  0.1982608695652174 0.2 0  0.2147826086956522 0.2 0  0.2313043478260869 0.2 0  0.2478260869565218 0.2 0  0.2643478260869565 0.2 0  0.2808695652173913 0.2 0  0.01652173913043478 0.2166666666666667 0  0 0.2166666666666667 0  0.03304347826086956 0.2166666666666667 0  0.04956521739130434 0.2166666666666667 0  0.06608695652173913 0.2166666666666667 0  0.08260869565217391 0.2166666666666667 0  0.09913043478260869 0.2166666666666667 0  0.1156521739130435 0.2166666666666667 0  0.1321739130434783 0.2166666666666667 0  0.148695652173913 0.2166666666666667 0  0.1652173913043478 0.2166666666666667 0  0.1817391304347826 0.2166666666666667 0  0.1982608695652174 0.2166666666666667 0  0.2147826086956522 0.2166666666666667 0  0.2313043478260869 0.2166666666666667 0  0.2478260869565218 0.2166666666666667 0  0.2643478260869565 0.2166666666666667 0  0.2808695652173913 0.2166666666666667 0  0.2973913043478261 0.2166666666666667 0  0.01652173913043478 0.2333333333333333 0  0 0.2333333333333333 0  0.03304347826086956 0.2333333333333333 0  0.04956521739130434 0.2333333333333333 0  0.06608695652173913 0.2333333333333333 0  0.08260869565217391 0.2333333333333333 0  0.09913043478260869 0.2333333333333333 0  0.1156521739130435 0.2333333333333333 0  0.1321739130434783 0.2333333333333333 0  0.148695652173913 0.2333333333333333 0  0.1652173913043478 0.2333333333333333 0  0.1817391304347826 0.2333333333333333 0  0.1982608695652174 0.2333333333333333 0  0.2147826086956522 0.2333333333333333 0  0.2313043478260869 0.2333333333333333 0  0.2478260869565218 0.2333333333333333 0  0.2643478260869565 0.2333333333333333 0  0.2808695652173913 0.2333333333333333 0  0.2973913043478261 0.2333333333333333 0  0.01652173913043478 0.25 0  0 0.25 0  0.03304347826086956 0.25 0  0.04956521739130434 0.25 0  0.06608695652173913 0.25 0  0.08260869565217391 0.25 0  0.09913043478260869 0.25 0  0.1156521739130435 0.25 0  0.1321739130434783 0.25 0  0.148695652173913 0.25 0  0.1652173913043478 0.25 0  0.1817391304347826 0.25 0  0.1982608695652174 0.25 0  0.2147826086956522 0.25 0  0.2313043478260869 0.25 0  0.2478260869565218 0.25 0  0.2643478260869565 0.25 0  0.2808695652173913 0.25 0  0.2973913043478261 0.25 0  0.01652173913043478 0.2666666666666667 0  0 0.2666666666666667 0  0.03304347826086956 0.2666666666666667 0  0.04956521739130434 0.2666666666666667 0  0.06608695652173913 0.2666666666666667 0  0.08260869565217391 0.2666666666666667 0  0.09913043478260869 0.2666666666666667 0  0.1156521739130435 0.2666666666666667 0  0.1321739130434783 0.2666666666666667 0  0.148695652173913 0.2666666666666667 0  0.1652173913043478 0.2666666666666667 0  0.1817391304347826 0.2666666666666667 0  0.1982608695652174 0.2666666666666667 0  0.2147826086956522 0.2666666666666667 0  0.2313043478260869 0.2666666666666667 0  0.2478260869565218 0.2666666666666667 0  0.2643478260869565 0.2666666666666667 0  0.2808695652173913 0.2666666666666667 0  0.2973913043478261 0.2666666666666667 0  0.3139130434782609 0.2666666666666667 0  0.01652173913043478 0.2833333333333333 0  0 0.2833333333333333 0  0.03304347826086956 0.2833333333333333 0  0.04956521739130434 0.2833333333333333 0  0.06608695652173913 0.2833333333333333 0  0.08260869565217391 0.2833333333333333 0  0.09913043478260869 0.2833333333333333 0  0.1156521739130435 0.2833333333333333 0  0.1321739130434783 0.2833333333333333 0  0.148695652173913 0.2833333333333333 0  0.1652173913043478 0.2833333333333333 0  0.1817391304347826 0.2833333333333333 0  0.1982608695652174 0.2833333333333333 0  0.2147826086956522 0.2833333333333333 0  0.2313043478260869 0.2833333333333333 0  0.2478260869565218 0.2833333333333333 0  0.2643478260869565 0.2833333333333333 0  0.2808695652173913 0.2833333333333333 0  0.2973913043478261 0.2833333333333333 0  0.3139130434782609 0.2833333333333333 0  0.3304347826086956 0.2833333333333333 0  0.01652173913043478 0.3 0  0 0.3 0  0.03304347826086956 0.3 0  0.04956521739130434 0.3 0  0.06608695652173913 0.3 0  0.08260869565217391 0.3 0  0.09913043478260869 0.3 0  0.1156521739130435 0.3 0  0.1321739130434783 0.3 0  0.148695652173913 0.3 0  0.1652173913043478 0.3 0  0.1817391304347826 0.3 0  0.1982608695652174 0.3 0  0.2147826086956522 0.3 0  0.2313043478260869 0.3 0  0.2478260869565218 0.3 0  0.2643478260869565 0.3 0  0.2808695652173913 0.3 0  0.2973913043478261 0.3 0  0.3139130434782609 0.3 0  0.3304347826086956 0.3 0  0.3469565217391304 0.3 0  0.01652173913043478 0.3166666666666667 0  0 0.3166666666666667 0  0.03304347826086956 0.3166666666666667 0  0.04956521739130434 0.31666666
[...]
<PointData  Vectors="Displacement"> 
<DataArray  type="Float64"  Name="Displacement"  NumberOfComponents="3" format="ascii">0.0000000000000000e+00 0.0000000000000000e+00 0.0000000000000000e+00  6.8281505707536825e-06 3.4954269885643599e-06 0.0000000000000000e+00  3.7151928245027071e-06 1.8927633229773022e-06 0.0000000000000000e+00  0.0000000000000000e+00 0.0000000000000000e+00 0.0000000000000000e+00  1.3114086235521936e-05 7.9382309186215327e-06 0.0000000000000000e+00  7.7900777041885798e-06 6.2682125865966848e-06 0.0000000000000000e+00  1.9260426454394223e-05 1.4404544201312252e-05 0.0000000000000000e+00  1.1717650877577817e-05 1.2768109749608002e-05 0.0000000000000000e+00  2.5329007550816266e-05 2.3051823924721218e-05 0.0000000000000000e+00  1.5495182954143812e-05 2.1453137342242725e-05 0.0000000000000000e+00  3.1370042893536622e-05 3.3947442593752899e-05 0.0000000000000000e+00  1.9150648353115321e-05 3.2367231476248302e-05 0.0000000000000000e+00  2.2738194270185525e-05 4.5586168343961486e-05 0.0000000000000000e+00  1.4083467096981227e-06 1.3297040775505471e-06 0.0000000000000000e+00  0.0000000000000000e+00 0.0000000000000000e+00 0.0000000000000000e+00  2.9734531430538708e-06 5.4114368354682994e-06 0.0000000000000000e+00  4.5283061309413750e-06 1.1918864050768289e-05 0.0000000000000000e+00  5.9568351964141217e-06 2.0672525742210107e-05 0.0000000000000000e+00  7.1988416290078043e-06 3.1624100379191722e-05 0.0000000000000000e+00  8.3337728813739514e-06 4.4763367325715429e-05 0.0000000000000000e+00  9.2714149197700659e-06 6.0691270414166230e-05 0.0000000000000000e+00  -7.0615308724592329e-07 1.3953917094441268e-06 0.0000000000000000e+00  0.0000000000000000e+00 0.0000000000000000e+00 0.0000000000000000e+00  -1.5057681268047576e-06 5.3724829240688300e-06 0.0000000000000000e+00  -2.3447340637591840e-06 1.1867750422069130e-05 0.0000000000000000e+00  -3.2059844143707034e-06 2.0681224650728989e-05 0.0000000000000000e+00  -4.2020623539545969e-06 3.1754994653319169e-05 0.0000000000000000e+00  -5.4829377568839913e-06 4.4631418154154281e-05 0.0000000000000000e+00  -6.9866125522799808e-06 6.0650566341670186e-05 0.0000000000000000e+00  -8.9828737083951543e-06 7.9575874683956147e-05 0.0000000000000000e+00  -2.7616119355174060e-06 1.9903644190265818e-06 0.0000000000000000e+00  0.0000000000000000e+00 0.0000000000000000e+00 0.0000000000000000e+00  -5.6486474972157184e-06 6.1263546635472984e-06 0.0000000000000000e+00  -9.0459610551045715e-06 1.2509726330307612e-05 0.0000000000000000e+00  -1.1935871278873164e-05 2.1231369200108989e-05 0.0000000000000000e+00  -1.4553684387016955e-05 3.2221985218954049e-05 0.0000000000000000e+00  -1.6430641832767693e-05 4.4792288352913867e-05 0.0000000000000000e+00  -2.1373059607993844e-05 6.0958922562136401e-05 0.0000000000000000e+00  -2.6327504690740599e-05 8.0047872801881741e-05 0.0000000000000000e+00  -3.2063799187893876e-05 1.0154661169306190e-04 0.0000000000000000e+00  -4.7761112597366368e-06 2.9242398771579132e-06 0.0000000000000000e+00  0.0000000000000000e+00 0.0000000000000000e+00 0.0000000000000000e+00  -9.9306373633910890e-06 7.1238851973213983e-06 0.0000000000000000e+00  -1.5288914184045969e-05 1.3666727999663983e-05 0.0000000000000000e+00  -1.9433104468375917e-05 2.2111609586524584e-05 0.0000000000000000e+00  -2.5403843609542764e-05 3.3076983021493138e-05 0.0000000000000000e+00  -2.8999199984823946e-05 4.5436563730870541e-05 0.0000000000000000e+00  -2.7665086682856030e-05 6.4959635242811179e-05 0.0000000000000000e+00  -2.9238450335695757e-05 8.4002572360240312e-05 0.0000000000000000e+00  -3.1163252671605331e-05 1.0481112813665612e-04 0.0000000000000000e+00  -3.1918705891553233e-05 1.2706127434963064e-04 0.0000000000000000e+00  -3.5856591322013239e-06 4.9509553143403362e-06 0.0000000000000000e+00  0.0000000000000000e+00 0.0000000000000000e+00 0.0000000000000000e+00  -7.9483226838750689e-06 1.0511697534591314e-05 0.0000000000000000e+00  -1.2622979347501714e-05 1.7692596253172808e-05 0.0000000000000000e+00  -1.7210023570282359e-05 2.6531903644247186e-05 0.0000000000000000e+00  -2.1662237036069989e-05 3.7782411199203734e-05 0.0000000000000000e+00  -2.5554203802939985e-05 5.0507629594263066e-05 0.0000000000000000e+00  -2.8523850478693663e-05 6.7187567954008428e-05 0.0000000000000000e+00  -3.0600450667703688e-05 8.6268549790701892e-05 0.0000000000000000e+00  -3.2666133242248928e-05 1.0664232754278768e-04 0.0000000000000000e+00  -3.4425005353653735e-05 1.2843540941841804e-04 0.0000000000000000e+00  -3.5782438282934363e-05 1.5273154799728359e-04 0.0000000000000000e+00  -3.2522764625242119e-06 6.2049259879138545e-06 0.0000000000000000e+00  0.0000000000000000e+00 0.0000000000000000e+00 0.0000000000000000e+00  -7.1213178175733359e-06 1.2952311674745639e-05 0.0000000000000000e+00  -1.1410548979310747e-05 2.0872544210071934e-05 0.0000000000000000e+00  -1.5844749693698823e-05 3.0259687125982092e-05 0.0000000000000000e+00  -2.0240120813064538e-05 4.1563447192889322e-05 0.0000000000000000e+00  -2.4393493617461967e-05 5.4620407701113344e-05 0.0000000000000000e+00  -2.8228928983891476e-05 7.0417929325974655e-05 0.0000000000000000e+00  -3.1430692962157324e-05 8.8480377954538767e-05 0.0000000000000000e+00  -3.4145641959210941e-05 1.0825189056236747e-04 0.0000000000000000e+00  -3.6545373771467719e-05 1.2952557521195214e-04 0.0000000000000000e+00  -3.8596769740184266e-05 1.5267539994956640e-04 0.0000000000000000e+00  -4.0116756450152632e-05 1.7724364561771234e-04 0.0000000000000000e+00  -3.2126865165792994e-06 7.1053648200683984e-06 0.0000000000000000e+00  0.0000000000000000e+00 0.0000000000000000e+00 0.0000000000000000e+00  -6.9124351061530031e-06 1.4763410938147269e-05 0.0000000000000000e+00  -1.1010504655592474e-05 2.3389168389926666e-05 0.0000000000000000e+00  -1.5343423777110028e-05 3.3288177562544323e-05 0.0000000000000000e+00  -1.9754756221213393e-05 4.4789171707992599e-05 0.0000000000000000e+00  -2.4091261337115661e-05 5.7994268850136504e-05 0.0000000000000000e+00  -2.8247696032569379e-05 7.3352869269784882e-05 0.0000000000000000e+00  -3.2004885475390440e-05 9.0688537534248256e-05 0.0000000000000000e+00  -3.5320751883400315e-05 1.0974590340846624e-04 0.0000000000000000e+00  -3.8253462452443785e-05 1.3036149495724881e-04 0.0000000000000000e+00  -4.0812825592892954e-05 1.5256213302870662e-04 0.0000000000000000e+00  -4.2910178560293207e-05 1.7606691729555560e-04 0.0000000000000000e+00  -4.4544482248183172e-05 2.0059481590662846e-04 0.0000000000000000e+00  -3.3045200670917946e-06 7.8040900716499204e-06 0.0000000000000000e+00  0.0000000000000000e+00 0.0000000000000000e+00 0.0000000000000000e+00  -7.0041978288329916e-06 1.6170655481703271e-05 0.0000000000000000e+00  -1.1051061106894775e-05 2.5394490639305928e-05 0.0000000000000000e+00  -1.5344841307741572e-05 3.5740538584076141e-05 0.0000000000000000e+00  -1.9767990560619965e-05 4.7469683615816918e-05 0.0000000000000000e+00  -2.4195032237181740e-05 6.0748507561625225e-05 0.0000000000000000e+00  -2.8509740512260080e-05 7.5818154430003627e-05 0.0000000000000000e+00  -3.2555123719870824e-05 9.2624448734819674e-05 0.0000000000000000e+00  -3.6253751345715414e-05 1.1104574026724868e-04 0.0000000000000000e+00  -3.9590347803077380e-05 1.3097121213904468e-04 0.0000000000000000e+00  -4.2553312074133290e-05 1.5232650213758332e-04 0.0000000000000000e+00  -4.5103363731906944e-05 1.7490380155464583e-04 0.0000000000000000e+00  -4.7240734354883660e-05 1.9849082480490209e-04 0.0000000000000000e+00  -4.9001070950073359e-05 2.2288599524248262e-04 0.0000000000000000e+00  -3.4547795941726912e-06 8.3685913029243508e-06 0.0000000000000000e+00  0.0000000000000000e+00 0.0000000000000000e+00 0.0000000000000000e+00  -7.2341283813649021e-06 1.7293654002619976e-05 0.0000000000000000e+00  -1.1304912764572276e-05 2.7000292386776238e-05 0.0000000000000000e+00  -1.5599350676411552e-05 3.7710414254685598e-05 0.0000000000000000e+00  -2.0028893172517628e-05 4.9637790789438197e-05 0.0000000000000000e+00  -2.4491478269988337e-05 6.2947633685312969e-05 0.0000000000000000e+00  -2.8880770775978644e-05 7.7795181167263113e-05 0.0000000000000000e+00  -3.3077256342995132e-05 9.4182173953461987e-05 0.0000000000000000e+00  -3.7001592424391553e-05 1.1205274679094290e-04 0.0000000000000000e+00  -4.0611176862135615e-05 1.3133099807344819e-04 0.0000000000000000e+00  -4.3878323812666807e-05 1.5192718118180545e-04 0.0000000000000000e+00  -4.6778751708275628e-05 1.7368213424602224e-04 0.0000000000000000e+00  -4.9315099524747904e-05 1.9642745516249054e-04 0.0000000000000000e+00  -5.1514842434403739e-05 2.1999850281359488e-04 0.0000000000000000e+00  -5.3425106403278628e-05 2.4424476489270382e-04 0.0000000000000000e+00  -3.6245779687081654e-06 8.8307811753167533e-06 0.0000000000000000e+00  0.0000000000000000e+00 0.0000000000000000e+00 0.0000000000000000e+00  -7.5142129970018775e-06 1.8195567869569626e-05 0.0000000000000000e+00  -1.1640551651429344e-05 2.8277987336370977e-05 0.0000000000000000e+00  -1.5952758998923867e-05 3.9265534169337741e-05 0.0000000000000000e+00  -2.0382269797628502e-05 5.1337506750225319e-05 0.0000000000000000e+00  -2.4847094722571991e-05 6.4641725247901400e-05 0.0000000000000000e+00  -2.9258007035972912e-05 7.9294988263004150e-05 0.0000000000000000e+00  -3.3521767259258467e-05 9.5325321646167206e-05 0.0000000000000000e+00  -3.7566839947686002e-05 1.1271199624827679e-04 0.0000000000000000e+00  -4.1344628068681816e-05 1.3140367431273818e-04 0.0000000000000000e+00  -4.4822296640125507e-05 1.5132113587134111e-04 0.0000000000000000e+00  -4.7979944385393430e-05 1.7234204111586646e-04 0.0000000000000000e+00  -5.0819412175219224e-05 1.9433151939941677e-04 0.0000000000000000e+00  -5.3362319235090533e-05 2.1715369919585701e-04 0.0000000000000000e+00  -5.5646706574392266e-05 2.4068036675806473e-04 0.0000000000000000e+00  -5.7722657988268452e-05 2.6479725320297908e-04 0.0000000000000000e+00  -3.7919030155698021e-06 9.2059213215951677e-06 0.0000000000000000e+00  0.0000000000000000e+00 0.0000000000000000e+00 0.0000000000000000e+00  -7.7949526125279806e-06 1.8910204644664814e-05 0.0000000000000000e+00  -1.1982034248553420e-05 2.9271689562476192e-05 0.0000000000000000e+00  -1.6311933190156067e-05 4.0453198892216201e-05 0.0000000000000000e+00  -2.0730319323174758e-05 5.2609392218263521e-05 0.0000000000000000e+00  -2.5172057834412842e-05 6.5870833734449878e-05 0.0000000000000000e+00  -2.9565555781632626e-05 8.0335540384376443e-05 0.0000000000000000e+00  -3.3838083489535926e-05 9.6044112482608423e-05 0.0000000000000000e+00  -3.7929244683347757e-05 1.1299593481954752e-04 0.0000000000000000e+00  -4.1793705897590914e-05 1.3115800551668035e-04 0.0000000000000000e+00  -4.5399900818754758e-05 1.5046748731084578e-04 0.0000000000000000e+00  -4.8730323280662713e-05 1.7083028921501998e-04 0.0000000000000000e+00  -5.1785209198811756e-05 1.9213823521463779e-04 0.0000000000000000e+00  -5.4581086712011206e-05 2.1427867522163220e-04 0.0000000000000000e+00  -5.7148222791415120e-05 2.3714195920005883e-04 0.0000000000000000e+00  -5.9527411173099970e-05 2.6062687685513621e-04 0.0000000000000000e+00  -6.1766601513025754e-05 2.8464369043347787e-04 0.0000000000000000e+00  -3.9439526420402415e-06 9.5010970852010448e-06 0.0000000000000000e+00  0.0000000000000000e+00 0.0000000000000000e+00 0.0000000000000000e+00  -8.0477876135152291e-06 1.9455581544746281e-05 0.0000000000000000e+00  -1.2284780198245283e-05 3.0008034786174891e-05 0.0000000000000000e+00  -1.6620097912916517e-05 4.1305083638161540e-05 0.0000000000000000e+00  -2.1010335882467127e-05 5.3484829702656499e-05 0.0000000000000000e+00  -2.5404568720370591e-05 6.6664950813340128e-05 0.0000000000000000e+00  -2.9747230846181402e-05 8.0933739993094029e-05 0.0000000000000000e+00  -3.3982568934575552e-05 9.6338139465726441e-05 0.0000000000000000e+00  -3.8062171624694378e-05 1.1288985779156064e-04 0.0000000000000000e+00  -4.1947808913961256e-05 1.3056980283451323e-04 0.0000000000000000e+00  -4.5612290637070911e-05 1.4933072936555667e-04 0.0000000000000000e+00  -4.9040682856254124e-05 1.6910008414300909e-04 0.0000000000000000e+00  -5.2232108616332763e-05 1.8979071030202337e-04 0.0000000000000000e+00  -5.5198830714968591e-05 2.1130862384032275e-04 0.0000000000000000e+00  -5.7964352116630473e-05 2.3355939198754159e-04 0.0000000000000000e+00  -6.0560937185893069e-05 2.5645294312512363e-04 0.0000000000000000e+00  -6.3026880673425667e-05 2.7990671623283266e-04 0.0000000000000000e+00  -6.5403798383819814e-05 3.0384782412424502e-04 0.0000000000000000e+00  -4.0731088181456672e-06 9.7191410016425666e-06 0.0000000000000000e+00  0.0000000000000000e+00 0.0000000000000000e+00 0.0000000000000000e+00  -8.2557391481211542e-06 1.9840651772026242e-05 0.0000000000000000e+00  -1.2521762987391764e-05 3.0502063121326397e-05 0.0000000000000000e+00  -1.6841509032807957e-05 4.1840770847422846e-05 0.0000000000000000e+00  -2.1180762708192133e-05 5.3984954146233760e-05 0.0000000000000000e+00  -2.5500935859691042e-05 6.7044188954473613e-05 0.0000000000000000e+00  -2.9760672574585499e-05 8.1101863504450948e-05 0.0000000000000000e+00  -3.3918817141009902e-05 9.6208545641460018e-05 0.0000000000000000e+00  -3.7938725765792958e-05 1.1238397232503475e-04 0.0000000000000000e+00  -4.1790626851641861e-05 1.2961949531982620e-04 0.0000000000000000e+00  -4.5453028054833237e-05 1.4788068512412781e-04 0.0000000000000000e+00  -4.8914035002223721e-05 1.6711113237050364e-04 0.0000000000000000e+00  -5.2172412594460253e-05 1.8723980842455488e-04 0.0000000000000000e+00  -5.5237072644679748e-05 2.0818734711519252e-04 0.0000000000000000e+00  -5.8125732971097740e-05 2.2987143663284808e-04 0.0000000000000000e+00  -6.0863028832578025e-05 2.5221103245279600e-04 0.0000000000000000e+00  -6.3478296798967623e-05 2.7512929276054664e-04 0.0000000000000000e+00  -6.6003173223355715e-05 2.9855548753312692e-04 0.0000000000000000e+00  -4.1746475507165210e-06 9.8603976584025467e-06 0.0000000000000000e+00  0.0000000000000000e+00 0.0000000000000000e+00 0.0000000000000000e+00  -8.4081419468088618e-06 2.0068558750165946e-05 0.0000000000000000e+00  -1.2675540748459056e-05 3.0760471670302144e-05 0.0000000000000000e+00  -1.6952161309299427e-05 4.2070107451010582e-05 0.0000000000000000e+00  -2.1212293713149880e-05 5.4121194830047209e-05 0.0000000000000000e+00  -2.5428599037481011e-05 6.7019380712861278e-05 0.0000000000000000e+00  -2.9572556007395125e-05 8.0846089036190697e-05 0.0000000000000000e+00  -3.3615996635685813e-05 9.5654357416170840e-05 0.0000000000000000e+00  -3.7533452936656762e-05 1.1146933560526945e-04 0.0000000000000000e+00  -4.1303846779698519e-05 1.2828995520446567e-04 0.0000000000000000e+00  -4.4911796144769554e-05 1.4609145468934457e-04 0.0000000000000000e+00  -4.8348756548674814e-05 1.6482913368910229e-04 0.0000000000000000e+00  -5.1613760037330640e-05 1.8444387424725516e-04 0.0000000000000000e+00  -5.4713193686810916e-05 2.0486730657388882e-04 0.0000000000000000e+00  -5.7659926640783919e-05 2.2602638268121654e-04 0.0000000000000000e+00  -6.0471943299630381e-05 2.4784702432842533e-04 0.0000000000000000e+00  -6.3170612743813486e-05 2.7025670336693037e-04 0.0000000000000000e+00  -6.5778682790320248e-05 2.9318601479219906e-04 0.0000000000000000e+00  -4.2453550707778684e-06 9.9234181366298582e-06 0.0000000000000000e+00  0.0000000000000000e+00 0.0000000000000000e+00 0.0000000000000000e+00  -8.4975117046578605e-06 2.0138065134778233e-05 0.0000000000000000e+00  -1.2733460626261589e-05 3.0783235588968418e-05 0.0000000000000000e+00  -1.6933989983984457e-05 4.1994608893886319e-05 0.0000000000000000e+00  -2.1082001834278893e-05 5.3896081217414610e-05 0.0000000000000000e+00  -2.5161053074606171e-05 6.6592774158133719e-05 0.0000000000000000e+00  -2.9154679843471536e-05 8.0166067050457395e-05 0.0000000000000000e+00  -3.3046678019121284e-05 9.4670870892787234e-05 0.0000000000000000e+00  -3.6822118951615614e-05 1.1013587186243768e-04 0.0000000000000000e+00  -4.0468378645534245e-05 1.2656508612975226e-04 0.0000000000000000e+00  -4.3976138578723807e-05 1.4394039371130822e-04 0.0000000000000000e+00  -4.7340293679753128e-05 1.6222506384250970e-04 0.0000000000000000e+00  -5.0560538917057997e-05 1.8136823859338024e-04 0.0000000000000000e+00  -5.3641373351056793e-05 2.0130932979903584e-04 0.0000000000000000e+00  -5.6591634071009416e-05 2.2198197284231747e-04 0.0000000000000000e+00  -5.9423611702966353e-05 2.4331717424986205e-04 0.0000000000000000e+00  -6.2151796798060686e-05 2.6524549367625883e-04 0.0000000000000000e+00  -6.4791319310552456e-05 2.8769826831221839e-04 0.0000000000000000e+00  -6.7356133727791329e-05 3.1060783620494965e-04 0.0000000000000000e+00  -4.2826167257227561e-06 9.9050831881204234e-06 0.0000000000000000e+00  0.0000000000000000e+00 0.0000000000000000e+00 0.0000000000000000e+00  -8.5175078981156020e-06 2.0043940656557537e-05 0.0000000000000000e+00  -1.2684516406672918e-05 3.0564165231271835e-05 0.0000000000000000e+00  -1.6770963094344137e-05 4.1608090221162049e-05 0.0000000000000000e+00  -2.0769187955074987e-05 5.3303816506765968e-05 0.0000000000000000e+00  -2.4673975567009089e-05 6.5758609606189641e-05 0.0000000000000000e+00  -2.8480714894156577e-05 7.9054967255711364e-05 0.0000000000000000e+00  -3.2184589727202654e-05 9.3249084822449995e-05 0.0000000000000000e+00  -3.5780644309379212e-05 1.0837152126038786e-04 0.0000000000000000e+00  -3.9264272368967890e-05 1.2442905917299361e-04 0.0000000000000000e+00  -4.2631922393085000e-05 1.4140739738062956e-04 0.0000000000000000e+00  -4.5881814378826436e-05 1.5927452554384040e-04 0.0000000000000000e+00  -4.9014462402687777e-05 1.7798464354450185e-04 0.0000000000000000e+00  -5.2032882996688828e-05 1.9748209889452057e-04 0.0000000000000000e+00  -5.4942515298629318e-05 2.1770493204933456e-04 0.0000000000000000e+00  -5.7750802660818515e-05 2.3858760271691204e-04 0.0000000000000000e+00  -6.0466403398612345e-05 2.6006276445214772e-04 0.0000000000000000e+00  -6.3098081232242515e-05 2.8206215583573713e-04 0.0000000000000000e+00  -6.5653374656216590e-05 3.0451660585149902e-04 0.0000000000000000e+00  -6.8137162591406188e-05 3.2735501365825355e-04 0.0000000000000000e+00  -4.2837172305840184e-06 9.8003551890667582e-06 0.0000000000000000e+00  0.0000000000000000e+00 0.0000000000000000e+00 0.0000000000000000e+00  -8.4613754564816626e-06 1.9776636794554199e-05 0.0000000000000000e+00  -1.2516943226663409e-05 3.0090667583097765e-05 0.0000000000000000e+00  -1.6446055753036605e-05 4.0896640305254981e-05 0.0000000000000000e+00  -2.0252086775406998e-05 5.2330479299481135e-05 0.0000000000000000e+00  -2.3942027244432153e-05 6.4503505589751369e-05 0.0000000000000000e+00  -2.7523385152129933e-05 7.7499727708695438e-05 0.0000000000000000e+00  -3.1002448356045174e-05 9.1375687087191936e-05 0.0000000000000000e+00  -3.4383709497259547e-05 1.0616203838552201e-04 0.0000000000000000e+00  -3.7670018110251617e-05 1.2186603133770301e-04 0.0000000000000000e+00  -4.0863115203095447e-05 1.3847451674923523e-04 0.0000000000000000e+00  -4.3964243065535318e-05 1.5595728454794220e-04 0.0000000000000000e+00  -4.6974657435968514e-05 1.7427071628550966e-04 0.0000000000000000e+00  -4.9896049447004167e-05 1.9336155859942794e-04 0.0000000000000000e+00  -5.2730875387861833e-05 2.1317028788339463e-04 0.0000000000000000e+00  -5.5482411376629066e-05 2.3363347561755412e-04 0.0000000000000000e+00  -5.8154402205331621e-05 2.5468512370455164e-04 0.0000000000000000e+00  -6.0750366023124603e-05 2.7625722963591491e-04 0.0000000000000000e+00  -6.3272710434403038e-05 2.9827965608654190e-04 0.0000000000000000e+00  -6.5721814463040254e-05 3.2067917819713065e-04 0.0000000000000000e+00  -6.8095251307806912e-05 3.4337753231840313e-04 0.0000000000000000e+00  -4.2451559271648126e-06 9.6016785251263898e-06 0.0000000000000000e+00  0.0000000000000000e+00 0.0000000000000000e+00 0.0000000000000000e+00  -8.3204222385058154e-06 1.9321303119036656e-05 0.0000000000000000e+00  -1.2215910814522566e-05 2.9342784061985880e-05 0.0000000000000000e+00  -1.5938407711678176e-05 3.98380044