<?xml version="1.0"?>
<VTKFile type="UnstructuredGrid"  version="0.1"  >
<UnstructuredGrid>
<Piece  NumberOfPoints="608" NumberOfCells="1117">
<Points>
<DataArray  type="Float64"  NumberOfComponents="3"  format="ascii">0.08260869565217391 0 0  0.09913043478260869 0 0  0.09913043478260869 0.01666666666666667 0  0.1156521739130435 0 0  0.1156521739130435 0.01666666666666667 0  0.1321739130434783 0 0  0.1321739130434783 0.01666666666666667 0  0.148695652173913 0 0  0.148695652173913 0.01666666666666667 0  0.1652173913043478 0 0  0.1652173913043478 0.01666666666666667 0  0.1817391304347826 0 0  0.1817391304347826 0.01666666666666667 0  0.1982608695652174 0 0  0.1982608695652174 0.01666666666666667 0  0.2147826086956522 0 0  0.2147826086956522 0.01666666666666667 0  0.2313043478260869 0 0  0.2313043478260869 0.01666666666666667 0  0.2478260869565218 0 0  0.2478260869565218 0.01666666666666667 0  0.2643478260869565 0 0  0.2643478260869565 0.01666666666666667 0  0.2808695652173913 0 0  0.2808695652173913 0.01666666666666667 0  0.2973913043478261 0 0  0.2973913043478261 0.01666666666666667 0  0.3139130434782609 0 0  0.3139130434782609 0.01666666666666667 0  0.3304347826086956 0 0  0.3304347826086956 0.01666666666666667 0  0.3469565217391304 0 0  0.3469565217391304 0.01666666666666667 0  0.3634782608695652 0 0  0.3634782608695652 0.01666666666666667 0  0.3799999999999999 0 0  0.3799999999999999 0.01666666666666667 0  0.3965217391304348 0 0  0.3965217391304348 0.01666666666666667 0  0.4130434782608696 0 0  0.4130434782608696 0.01666666666666667 0  0.4295652173913043 0.01666666666666667 0  0.1156521739130435 0.03333333333333333 0  0.1321739130434783 0.03333333333333333 0  0.148695652173913 0.03333333333333333 0  0.1652173913043478 0.03333333333333333 0  0.1817391304347826 0.03333333333333333 0  0.1982608695652174 0.03333333333333333 0  0.2147826086956522 0.03333333333333333 0  0.2313043478260869 0.03333333333333333 0  0.2478260869565218 0.03333333333333333 0  0.2643478260869565 0.03333333333333333 0  0.2808695652173913 0.03333333333333333 0  0.2973913043478261 0.03333333333333333 0  0.3139130434782609 0.03333333333333333 0  0.3304347826086956 0.03333333333333333 0  0.3469565217391304 0.03333333333333333 0  0.3634782608695652 0.03333333333333333 0  0.3799999999999999 0.03333333333333333 0  0.3965217391304348 0.03333333333333333 0  0.4130434782608696 0.03333333333333333 0  0.4295652173913043 0.03333333333333333 0  0.4460869565217391 0.03333333333333333 0  0.1321739130434783 0.05 0  0.148695652173913 0.05 0  0.1652173913043478 0.05 0  0.1817391304347826 0.05 0  0.1982608695652174 0.05 0  0.2147826086956522 0.05 0  0.2313043478260869 0.05 0  0.2478260869565218 0.05 0  0.2643478260869565 0.05 0  0.2808695652173913 0.05 0  0.2973913043478261 0.05 0  0.3139130434782609 0.05 0  0.3304347826086956 0.05 0  0.3469565217391304 0.05 0  0.3634782608695652 0.05 0  0.3799999999999999 0.05 0  0.3965217391304348 0.05 0  0.4130434782608696 0.05 0  0.4295652173913043 0.05 0  0.4460869565217391 0.05 0  0.4626086956521739 0.05 0  0.148695652173913 0.06666666666666667 0  0.1652173913043478 0.06666666666666667 0  0.1817391304347826 0.06666666666666667 0  0.1982608695652174 0.06666666666666667 0  0.2147826086956522 0.06666666666666667 0  0.2313043478260869 0.06666666666666667 0  0.2478260869565218 0.06666666666666667 0  0.2643478260869565 0.06666666666666667 0  0.2808695652173913 0.06666666666666667 0  0.2973913043478261 0.06666666666666667 0  0.3139130434782609 0.06666666666666667 0  0.3304347826086956 0.06666666666666667 0  0.3469565217391304 0.06666666666666667 0  0.3634782608695652 0.06666666666666667 0  0.3799999999999999 0.06666666666666667 0  0.3965217391304348 0.06666666666666667 0  0.4130434782608696 0.06666666666666667 0  0.4295652173913043 0.06666666666666667 0  0.4460869565217391 0.06666666666666667 0  0.4626086956521739 0.06666666666666667 0  0.4791304347826086 0.06666666666666667 0  0.1652173913043478 0.08333333333333333 0  0.1817391304347826 0.08333333333333333 0  0.1982608695652174 0.08333333333333333 0  0.2147826086956522 0.08333333333333333 0  0.2313043478260869 0.08333333333333333 0  0.2478260869565218 0.08333333333333333 0  0.2643478260869565 0.08333333333333333 0  0.2808695652173913 0.08333333333333333 0  0.2973913043478261 0.08333333333333333 0  0.3139130434782609 0.08333333333333333 0  0.3304347826086956 0.08333333333333333 0  0.3469565217391304 0.08333333333333333 0  0.3634782608695652 0.08333333333333333 0  0.3799999999999999 0.08333333333333333 0  0.3965217391304348 0.08333333333333333 0  0.4130434782608696 0.08333333333333333 0  0.4295652173913043 0.08333333333333333 0  0.4460869565217391 0.08333333333333333 0  0.4626086956521739 0.08333333333333333 0  0.4791304347826086 0.08333333333333333 0  0.4956521739130435 0.08333333333333333 0  0.1817391304347826 0.1 0  0.1982608695652174 0.1 0  0.2147826086956522 0.1 0  0.2313043478260869 0.1 0  0.2478260869565218 0.1 0  0.2643478260869565 0.1 0  0.2808695652173913 0.1 0  0.2973913043478261 0.1 0  0.3139130434782609 0.1 0  0.3304347826086956 0.1 0  0.3469565217391304 0.1 0  0.3634782608695652 0.1 0  0.3799999999999999 0.1 0  0.3965217391304348 0.1 0  0.4130434782608696 0.1 0  0.4295652173913043 0.1 0  0.4460869565217391 0.1 0  0.4626086956521739 0.1 0  0.4791304347826086 0.1 0  0.4956521739130435 0.1 0  0.5121739130434783 0.1 0  0.1982608695652174 0.1166666666666667 0  0.2147826086956522 0.1166666666666667 0  0.2313043478260869 0.1166666666666667 0  0.2478260869565218 0.1166666666666667 0  0.2643478260869565 0.1166666666666667 0  0.2808695652173913 0.1166666666666667 0  0.2973913043478261 0.1166666666666667 0  0.3139130434782609 0.1166666666666667 0  0.3304347826086956 0.1166666666666667 0  0.3469565217391304 0.1166666666666667 0  0.3634782608695652 0.1166666666666667 0  0.3799999999999999 0.1166666666666667 0  0.3965217391304348 0.1166666666666667 0  0.4130434782608696 0.1166666666666667 0  0.4295652173913043 0.1166666666666667 0  0.4460869565217391 0.1166666666666667 0  0.4626086956521739 0.1166666666666667 0  0.4791304347826086 0.1166666666666667 0  0.4956521739130435 0.1166666666666667 0  0.5121739130434783 0.1166666666666667 0  0.528695652173913 0.1166666666666667 0  0.2147826086956522 0.1333333333333333 0  0.2313043478260869 0.1333333333333333 0  0.2478260869565218 0.1333333333333333 0  0.2643478260869565 0.1333333333333333 0  0.2808695652173913 0.1333333333333333 0  0.2973913043478261 0.1333333333333333 0  0.3139130434782609 0.1333333333333333 0  0.3304347826086956 0.1333333333333333 0  0.3469565217391304 0.1333333333333333 0  0.3634782608695652 0.1333333333333333 0  0.3799999999999999 0.1333333333333333 0  0.3965217391304348 0.1333333333333333 0  0.4130434782608696 0.1333333333333333 0  0.4295652173913043 0.1333333333333333 0  0.4460869565217391 0.1333333333333333 0  0.4626086956521739 0.1333333333333333 0  0.4791304347826086 0.1333333333333333 0  0.4956521739130435 0.1333333333333333 0  0.5121739130434783 0.1333333333333333 0  0.528695652173913 0.1333333333333333 0  0.5452173913043478 0.1333333333333333 0  0.2313043478260869 0.15 0  0.2478260869565218 0.15 0  0.2643478260869565 0.15 0  0.2808695652173913 0.15 0  0.2973913043478261 0.15 0  0.3139130434782609 0.15 0  0.3304347826086956 0.15 0  0.3469565217391304 0.15 0  0.3634782608695652 0.15 0  0.3799999999999999 0.15 0  0.3965217391304348 0.15 0  0.4130434782608696 0.15 0  0.4295652173913043 0.15 0  0.4460869565217391 0.15 0  0.4626086956521739 0.15 0  0.4791304347826086 0.15 0  0.4956521739130435 0.15 0  0.5121739130434783 0.15 0  0.528695652173913 0.15 0  0.5452173913043478 0.15 0  0.5617391304347825 0.15 0  0.2478260869565218 0.1666666666666667 0  0.2643478260869565 0.1666666666666667 0  0.2808695652173913 0.1666666666666667 0  0.2973913043478261 0.1666666666666667 0  0.3139130434782609 0.1666666666666667 0  0.3304347826086956 0.1666666666666667 0  0.3469565217391304 0.1666666666666667 0  0.3634782608695652 0.1666666666666667 0  0.3799999999999999 0.1666666666666667 0  0.3965217391304348 0.1666666666666667 0  0.4130434782608696 0.1666666666666667 0  0.4295652173913043 0.1666666666666667 0  0.4460869565217391 0.1666666666666667 0  0.4626086956521739 0.1666666666666667 0  0.4791304347826086 0.1666666666666667 0  0.4956521739130435 0.1666666666666667 0  0.5121739130434783 0.1666666666666667 0  0.528695652173913 0.1666666666666667 0  0.5452173913043478 0.1666666666666667 0  0.5617391304347825 0.1666666666666667 0  0.5782608695652174 0.1666666666666667 0  0.2643478260869565 0.1833333333333333 0  0.2808695652173913 0.1833333333333333 0  0.2973913043478261 0.1833333333333333 0  0.3139130434782609 0.1833333333333333 0  0.3304347826086956 0.1833333333333333 0  0.3469565217391304 0.1833333333333333 0  0.3634782608695652 0.1833333333333333 0  0.3799999999999999 0.1833333333333333 0  0.3965217391304348 0.1833333333333333 0  0.4130434782608696 0.1833333333333333 0  0.4295652173913043 0.1833333333333333 0  0.4460869565217391 0.1833333333333333 0  0.4626086956521739 0.1833333333333333 0  0.4791304347826086 0.1833333333333333 0  0.4956521739130435 0.1833333333333333 0  0.5121739130434783 0.1833333333333333 0  0.528695652173913 0.1833333333333333 0  0.5452173913043478 0.1833333333333333 0  0.5617391304347825 0.1833333333333333 0  0.5782608695652174 0.1833333333333333 0  0.2808695652173913 0.2 0  0.2973913043478261 0.2 0  0.3139130434782609 0.2 0  0.3304347826086956 0.2 0  0.3469565217391304 0.2 0  0.3634782608695652 0.2 0  0.3799999999999999 0.2 0  0.3965217391304348 0.2 0  0.4130434782608696 0.2 0  0.4295652173913043 0.2 0  0.4460869565217391 0.2 0  0.4626086956521739 0.2 0  0.4791304347826086 0.2 0  0.4956521739130435 0.2 0  0.5121739130434783 0.2 0  0.528695652173913 0.2 0  0.5452173913043478 0.2 0  0.5617391304347825 0.2 0  0.5782608695652174 0.2 0  0.2973913043478261 0.2166666666666667 0  0.3139130434782609 0.2166666666666667 0  0.3304347826086956 0.2166666666666667 0  0.3469565217391304 0.2166666666666667 0  0.36347826086956
[...]
<CellData  Scalars="rho"> 
<DataArray  type="Float64"  Name="rho"  format="ascii">1.0000000000000000e+00   1.0000000000000000e+00   1.0000000000000000e+00   1.0000000000000000e+00   1.0000000000000000e+00   1.0000000000000000e+00   1.0000000000000000e+00   1.0000000000000000e+00   1.0000000000000000e+00   1.0000000000000000e+00   1.0000000000000000e+00   1.0000000000000000e+00   1.0000000000000000e+00   1.0000000000000000e+00   1.0000000000000000e+00   1.0000000000000000e+00   1.0000000000000000e+00   1.0000000000000000e+00   1.0000000000000000e+00   1.0000000000000000e+00   1.0000000000000000e+00   1.0000000000000000e+00   1.0000000000000000e+00   1.0000000000000000e+00   1.0000000000000000e+00   1.0000000000000000e+00   1.0000000000000000e+00   9.9957778580716505e-01   9.9960620255901622e-01   9.9914156106185747e-01   9.9915671434693976e-01   9.9880482975787388e-01   9.9880325637688983e-01   9.9857546122525576e-01   9.9855507355894069e-01   9.9845623268687622e-01   9.9841649566321899e-01   9.9844457500643036e-01   9.9838648146831144e-01   9.9845868210620481e-01   1.0000000000000000e+00   1.0000000000000000e+00   1.0000000000000000e+00   1.0000000000000000e+00   1.0000000000000000e+00   1.0000000000000000e+00   1.0000000000000000e+00   1.0000000000000000e+00   1.0000000000000000e+00   1.0000000000000000e+00   1.0000000000000000e+00   1.0000000000000000e+00   1.0000000000000000e+00   1.0000000000000000e+00   1.0000000000000000e+00   1.0000000000000000e+00   1.0000000000000000e+00   1.0000000000000000e+00   1.0000000000000000e+00   1.0000000000000000e+00   1.0000000000000000e+00   9.9989541368951251e-01   9.9958809826761585e-01   9.9937949933806558e-01   9.9909520342796432e-01   9.9893881068004986e-01   9.9867492041924433e-01   9.9858775066315408e-01   9.9834172219664674e-01   9.9833759498688890e-01   9.9810747304199532e-01   9.9819526867934405e-01   9.9798008697019491e-01   9.9816243373362090e-01   9.9796241964525545e-01   9.9823500486244421e-01   9.9805151314046081e-01   9.9840326899804088e-01   9.9823837712921859e-01   9.9850856191481496e-01   1.0000000000000000e+00   1.0000000000000000e+00   1.0000000000000000e+00   1.0000000000000000e+00   1.0000000000000000e+00   1.0000000000000000e+00   1.0000000000000000e+00   1.0000000000000000e+00   1.0000000000000000e+00   1.0000000000000000e+00   1.0000000000000000e+00   1.0000000000000000e+00   9.9953150407976654e-01   9.9968435860117866e-01   9.9899404128280500e-01   9.9915239167399239e-01   9.9849159521859066e-01   9.9866367295919212e-01   9.9803563936783990e-01   9.9823188381635852e-01   9.9763885615705916e-01   9.9787134444624026e-01   9.9731468354591746e-01   9.9759606933447564e-01   9.9707659167617724e-01   9.9741847341348377e-01   9.9693695051504094e-01   9.9734794696805740e-01   9.9690559902186093e-01   9.9738947323381100e-01   9.9698836600790131e-01   9.9754232986653912e-01   9.9718561345900703e-01   9.9779906492501214e-01   9.9749088300751365e-01   9.9814522643050207e-01   9.9789010749399998e-01   9.9856024099992946e-01   9.9836199214864485e-01   9.9887986865539702e-01   1.0000000000000000e+00   9.9964613753892950e-01   9.9879582851302751e-01   9.9906304417806446e-01   9.9820935907299746e-01   9.9849904584171523e-01   9.9764588772474472e-01   9.9796194548373551e-01   9.9711396579895717e-01   9.9746026957230927e-01   9.9662254218440083e-01   9.9700346980653054e-01   9.9618120626028028e-01   9.9660198309385628e-01   9.9580026531692456e-01   9.9626717210861315e-01   9.9549076569825234e-01   9.9601112850174445e-01   9.9526440514869707e-01   9.9584640076826514e-01   9.9513337254911960e-01   9.9578534913538985e-01   9.9510995977134409e-01   9.9583885488488055e-01   9.9520553827614711e-01   9.9601464490706126e-01   9.9542887007844505e-01   9.9631559134081571e-01   9.9578420260859235e-01   9.9673784351757810e-01   9.9626924827428487e-01   9.9726894867495142e-01   9.9687297553876786e-01   9.9788690424934257e-01   9.9757393228811952e-01   9.9856099457175995e-01   9.9834029541413605e-01   9.9925473561806499e-01   9.9913232201660473e-01   9.9990694894754995e-01   9.6231116825955876e-01   8.3197021675286986e-01   0.0000000000000000e+00   7.3391821979102501e-01   0.0000000000000000e+00   6.6331098468776684e-01   0.0000000000000000e+00   5.6501472132193409e-01   0.0000000000000000e+00   5.6043020830069046e-01   0.0000000000000000e+00   5.2913340677774845e-01   0.0000000000000000e+00   5.7310678814882332e-01   0.0000000000000000e+00   6.5537310753339484e-01   0.0000000000000000e+00   6.9324670820776024e-01   0.0000000000000000e+00   7.3095996251720607e-01   4.5687591329629544e-03   7.7041448981255378e-01   1.4449661566295646e-01   8.0355037470447910e-01   3.6123991787453247e-01   8.3043103522014117e-01   4.7523142173050231e-01   8.4680462749070762e-01   4.9423206429187522e-01   8.4967109295090604e-01   5.5498222840820788e-01   8.3750429665613102e-01   5.8499335389037421e-01   8.0893550985743667e-01   6.0088254235114291e-01   7.6780110354747255e-01   5.0957705630631778e-01   5.9735091146899300e-01   5.0613236297458430e-01   4.8064968519442242e-01   0.0000000000000000e+00   0.0000000000000000e+00   0.0000000000000000e+00   0.0000000000000000e+00   0.0000000000000000e+00   0.0000000000000000e+00   0.0000000000000000e+00   0.0000000000000000e+00   0.0000000000000000e+00   0.0000000000000000e+00   0.0000000000000000e+00   0.0000000000000000e+00   0.0000000000000000e+00   0.0000000000000000e+00   0.0000000000000000e+00   0.0000000000000000e+00   0.0000000000000000e+00   0.0000000000000000e+00   0.0000000000000000e+00   0.0000000000000000e+00   0.0000000000000000e+00   0.0000000000000000e+00   0.0000000000000000e+00   0.0000000000000000e+00   0.0000000000000000e+00   0.0000000000000000e+00   0.0000000000000000e+00   1.0219102554710564e-01   0.0000000000000000e+00   3.3284706546183801e-01   0.0000000000000000e+00   3.5997931565802060e-01   2.0781192469507806e-01   3.6557810525906631e-01   2.8134676286451893e-01   3.6031310149199680e-01   2.8762899856713298e-01   3.4229094921149023e-01   2.7679232870458292e-01   2.1530149903638446e-01   0.0000000000000000e+00   0.0000000000000000e+00   0.0000000000000000e+00   0.0000000000000000e+00   0.0000000000000000e+00   0.0000000000000000e+00   0.0000000000000000e+00   0.0000000000000000e+00   0.0000000000000000e+00   0.0000000000000000e+00   0.0000000000000000e+00   0.0000000000000000e+00   0.0000000000000000e+00   0.0000000000000000e+00   0.0000000000000000e+00   0.0000000000000000e+00   0.0000000000000000e+00   0.0000000000000000e+00   0.0000000000000000e+00   0.0000000000000000e+00   0.0000000000000000e+00   0.0000000000000000e+00   0.0000000000000000e+00   0.0000000000000000e+00   0.0000000000000000e+00   0.0000000000000000e+00   0.0000000000000000e+00   0.0000000000000000e+00   0.0000000000000000e+00   1.0846014673690212e-03   1.0064529118362462e-03   1.0220103180110446e-01   1.0414918754586154e-02   1.3698757816117166e-01   7.7347368772163902e-02   1.3225030018699896e-01   9.8504909923310582e-02   9.3082249838821254e-02   7.8489087826239423e-02   2.4034297319063952e-02   0.0000000000000000e+00   0.0000000000000000e+00   0.0000000000000000e+00   0.0000000000000000e+00   0.0000000000000000e+00   0.0000000000000000e+00   0.0000000000000000e+00   0.0000000000000000e+00   0.0000000000000000e+00   0.0000000000000000e+00   0.0000000000000000e+00   0.0000000000000000e+00   0.0000000000000000e+00   0.0000000000000000e+00   0.0000000000000000e+00   0.0000000000000000e+00   0.0000000000000000e+00   0.0000000000000000e+00   0.0000000000000000e+00   0.0000000000000000e+00   0.0000000000000000e+00   0.0000000000000000e+00   0.0000000000000000e+00   0.0000000000000000e+00   0.0000000000000000e+00   6.6894834735519099e-04   4.3621125836926054e-04   2.9337052671125127e-03   2.8020955153354719e-03   5.1853643746712043e-03   5.2024936658893271e-03   3.6943096994869966e-02   1.1068100015249509e-02   8.1451362300945129e-02   8.3580698322890237e-02   6.8562678776665900e-02   9.3540961036293252e-02   1.1708191804792554e-02   6.4827612108352542e-02   1.3500921543188155e-02   0.0000000000000000e+00   0.0000000000000000e+00   0.0000000000000000e+00   0.0000000000000000e+00   0.0000000000000000e+00   0.0000000000000000e+00   0.0000000000000000e+00   0.0000000000000000e+00   0.0000000000000000e+00   0.0000000000000000e+00   0.0000000000000000e+00   0.0000000000000000e+00   0.0000000000000000e+00   0.0000000000000000e+00   0.0000000000000000e+00   0.0000000000000000e+00   0.0000000000000000e+00   0.0000000000000000e+00   0.0000000000000000e+00   0.0000000000000000e+00   0.0000000000000000e+00   0.0000000000000000e+00   0.0000000000000000e+00   2.2816471853534231e-03   1.9345012727386283e-03   4.9043830123458873e-03   4.6227341500127443e-03   7.5303534135487890e-03   7.3683946709416455e-03   5.4260447187312620e-02   3.7603552889784210e-02   1.0371767710691182e-01   9.2690277340877314e-02   1.1920867673321255e-01   1.1920391106824028e-01   1.0264557324115889e-01   1.2772563783102367e-01   6.2644295165778935e-02   1.2020609064110134e-01   8.6771158745031884e-02   0.0000000000000000e+00   0.0000000000000000e+00   0.0000000000000000e+00   0.0000000000000000e+00   0.0000000000000000e+00   0.0000000000000000e+00   0.0000000000000000e+00   0.0000000000000000e+00   0.0000000000000000e+00   0.0000000000000000e+00   0.0000000000000000e+00   0.0000000000000000e+00   0.0000000000000000e+00   0.0000000000000000e+00   0.0000000000000000e+00   0.0000000000000000e+00   0.0000000000000000e+00   0.0000000000000000e+00   0.0000000000000000e+00   1.0439421264241970e-03   5.5207384572631074e-04   3.7698924189047182e-03   3.2524327569144647e-03   6.6574810730844871e-03   6.1592093455804268e-03   9.5699638271170961e-03   9.1474977990183975e-03   8.1601275288061173e-02   7.2404282924251939e-02   1.3434597850397292e-01   1.3893189751142490e-01   1.6595724608767423e-01   1.5516797751028910e-01   1.6033148658303742e-01   1.7762266517417105e-01   1.6655959125923614e-01   1.8037840429775168e-01   1.6457103864879302e-01   1.8724392624057826e-01   1.8884349585768681e-01   0.0000000000000000e+00   0.0000000000000000e+00   0.0000000000000000e+00   0.0000000000000000e+00   0.0000000000000000e+00   0.0000000000000000e+00   0.0000000000000000e+00   0.0000000000000000e+00   0.0000000000000000e+00   0.0000000000000000e+00   0.0000000000000000e+00   0.0000000000000000e+00   0.0000000000000000e+00   0.0000000000000000e+00   0.0000000000000000e+00   0.0000000000000000e+00   0.0000000000000000e+00   2.0531565033431601e-03   1.4218999465017974e-03   4.9042568480694932e-03   4.2040612959693352e-03   7.9375479283770485e-03   7.2082342377550101e-03   5.6582975392029687e-02   1.0315013749968311e-02   1.3369886806252027e-01   1.3152191613069697e-01   1.6546660985857770e-01   1.7105154900925928e-01   1.9360678866712874e-01   1.9919054830428309e-01   2.1150136424736701e-01   2.7876753726440451e-01   2.3897728137239602e-01   2.9396541961660405e-01   2.4374875015807665e-01   2.9846878820954315e-01   2.4355461317743762e-01   2.9482038003371469e-01   0.0000000000000000e+00   0.0000000000000000e+00   0.0000000000000000e+00   0.0000000000000000e+00   0.0000000000000000e+00   0.0000000000000000e+00   0.0000000000000000e+00   0.0000000000000000e+00   0.0000000000000000e+00   0.0000000000000000e+00   0.0000000000000000e+00   0.0000000000000000e+00   0.0000000000000000e+00   1.2971801210961756e-04   0.0000000000000000e+00   2.7157257919914438e-03   1.9666846057599637e-03   5.5817938892056837e-03   4.7312620037301256e-03   8.6410568825476923e-03   7.7221333589945320e-03   1.2364376649734700e-01   9.6901110657177547e-02   1.6452895336998549e-01   1.6079153274789182e-01   2.1739779433564174e-01   2.1050616272363942e-01   3.6240907396547634e-01   2.8730740172097835e-01   3.9916491000865839e-01   4.0204817905897389e-01   4.1427636105698584e-01   4.2915947304925006e-01   4.1287956572437351e-01   4.3824367460008345e-01   3.4404890327045456e-01   4.3391187486753435e-01   0.0000000000000000e+00   0.0000000000000000e+00   0.0000000000000000e+00   0.0000000000000000e+00   0.0000000000000000e+00   0.0000000000000000e+00   0.0000000000000000e+00   0.0000000000000000e+00   0.0000000000000000e+00   0.0000000000000000e+00   0.0000000000000000e+00   5.0909336322756268e-04   0.0000000000000000e+00   3.0370763800101090e-03   2.2135600672739900e-03   5.8364280246632752e-03   4.8964834381424842e-03   8.8305187739587381e-03   7.8007607030552246e-03   1.4196598995792883e-01   1.1635029480064171e-01   1.9351754490324372e-01   1.8128038550361356e-01   2.6735389483425764e-01   2.4986082380544394e-01   3.7878847687178385e-01   3.5465253680858827e-01   4.2993741900008398e-01   4.1751009221140628e-01   4.6051878439882687e-01   4.5874796527905454e-01   4.7500339318707541e-01   4.8274404873121024e-01   4.7736413535225841e-01   4.9345175551367987e-01   0.0000000000000000e+00   0.0000000000000000e+00   0.0000000000000000e+00   0.0000000000000000e+00   0.0000000000000000e+00   0.0000000000000000e+00   0.0000000000000000e+00   0.0000000000000000e+00   0.0000000000000000e+00   0.0000000000000000e+00   6.6098415348154788e-04   0.0000000000000000e+00   3.1011744228876268e-03   2.2463172511540219e-03   5.7984926174984592e-03   4.8307085215137735e-03   8.6851281609586859e-03   7.6265076206031889e-03   1.5394293185155422e-01   8.2698425372545945e-02   2.0960730386218049e-01   1.9357593941043119e-01   2.7823280334302314e-01   2.5947936755640161e-01   3.7062643638798104e-01   3.1893420446706156e-01   4.3210012436144057e-01   4.0969779953071034e-01   4.7439962285702852e-01   4.6055308628981456e-01   5.0144110277334542e-01   4.9525495478048720e-01   5.1663684638281671e-01   5.1727861611113668e-01   0.0000000000000000e+00   0.0000000000000000e+00   0.0000000000000000e+00   0.0000000000000000e+00   0.0000000000000000e+00   0.0000000000000000e+00   0.0000000000000000e+00   0.0000000000000000e+00   0.0000000000000000e+00   0.0000000000000000e+00   6.4826668716700894e-04   0.0000000000000000e+00   3.0120709377780856e-03   2.1483523712083666e-03   5.6193248339333124e-03   4.6590237585830132e-03   8.4073070010289470e-03   7.3707887257575466e-03   1.0627984292975844e-01   7.7272420433822875e-02   2.1576432662289377e-01   1.8715286467013090e-01   2.8122780702015232e-01   2.5475781487140647e-01   3.5325031317982458e-01   3.1902816234471421e-01   4.1147584781779145e-01   3.8955830237053268e-01   4.6619364926990070e-01   4.4603266550555104e-01   5.0044601340824435e-01   4.8547431781540712e-01   5.1056597971450379e-01   5.0012682107342754e-01   5.1849080839235429e-01   0.0000000000000000e+00   0.0000000000000000e+00   0.0000000000000000e+00   0.0000000000000000e+00   0.0000000000000000e+00   0.0000000000000000e+00   0.0000000000000000e+00   0.0000000000000000e+00   0.0000000000000000e+00   5.0881598694821860e-04   0.0000000000000000e+00   2.8339023345505848e-03   1.9532969360716522e-03   5.3939968946460229e-03   4.4362156360026900e-03   8.1266832434825510e-03   7.1131352803524396e-03   9.9404400035572937e-02   6.9810017980236741e-02   2.1057072273362029e-01   1.7820798571575638e-01   2.7051163626307057e-01   2.4396109953582948e-01   3.3926444354815555e-01   3.0689355746559310e-01   3.9577038818843396e-01   3.7244034230141726e-01   4.3930242337536901e-01   4.1858092210092196e-01   4.8041893095176952e-01   4.5306271991453556e-01   4.9255887029664996e-01   4.7831544600504866e-01   5.1005305682526569e-01   4.8371708725938034e-01   4.9631850755001228e-01   0.0000000000000000e+00   0.0000000000000000e+00   0.0000000000000000e+00   0.0000000000000000e+00   0.0000000000000000e+00   0.0000000000000000e+00   0.0000000000000000e+00   2.3026955228539115e-04   0.0000000000000000e+00   2.5557459212137887e-03   1.6254322333207622e-03   5.1152183234491229e-03   4.1195178030698091e-03   7.8421634708464479e-03   6.8055893522513088e-03   8.9643008329587298e-02   5.8935560003151033e-02   1.9393836772734324e-01   1.5982673846314496e-01   2.5305572974162066e-01   2.2017633495536804e-01   3.1993779257502936e-01   2.8254221535164081e-01   3.7103764274346390e-01   3.4584343540692836e-01   4.0951673233471336e-01   3.8585720847815425e-01   4.3712325504741717e-01   4.1400919739759295e-01   4.5717046113089943e-01   4.3403441131142079e-01   4.7193970849450412e-01   4.4862284797584973e-01   4.8302827200457582e-01   4.5971005619768657e-01   4.6851762182242296e-01   0.0000000000000000e+00   0.0000000000000000e+00   0.0000000000000000e+00   0.0000000000000000e+00   0.0000000000000000e+00   0.0000000000000000e+00   0.0000000000000000e+00   2.0982170926482318e-03   1.0808058764843805e-03   4.6785854482939392e-03   3.5921893228514261e-03   7.4253052867227455e-03   6.2981037367635748e-03   1.0643513358725583e-01   9.1063044246600736e-03   1.6501621958639448e-01   1.4155707759150044e-01   2.1481496096579852e-01   1.8792217872675460e-01   2.7373188894801587e-01   2.4527707610760402e-01   3.3958961131219034e-01   3.1222988209198371e-01   3.6952843356161413e-01   3.4287670164248263e-01   3.8203125114650982e-01   3.5426161714616611e-01   3.9474876349195881e-01   3.6542659696985413e-01   4.0396250277390683e-01   3.7228575303598760e-01   4.1159151683441858e-01   3.7833907037175180e-01   4.1873406335646829e-01   3.8416743130000774e-01   3.9031681640628074e-01   0.0000000000000000e+00   0.0000000000000000e+00   0.0000000000000000e+00   0.0000000000000000e+00   0.0000000000000000e+00   1.3615253580357358e-03   2.4147533420994772e-04   3.9405232901834350e-03   2.7315302881937321e-03   6.6875875047088191e-03   5.4201008478337335e-03   9.4975557911564524e-03   8.2082650539299432e-03   1.3509674943928571e-01   1.0780485000093468e-01   1.6979683093669848e-01   1.4849293668057820e-01   2.1307458830119366e-01   1.7485734714274898e-01   2.5848902887259445e-01   2.1276577461403207e-01   2.7632208337415526e-01   2.3307684243187368e-01   2.8966464315640322e-01   2.4876175947886850e-01   2.9906439405516322e-01   2.6897521174167965e-01   3.0585305181219979e-01   2.6438438255991276e-01   3.1132579186863873e-01   2.7094716370766070e-01   3.1621169087781664e-01   2.7614631147863450e-01   3.2078115967062398e-01   2.8022255348085462e-01   2.8317361986982054e-01   0.0000000000000000e+00   0.0000000000000000e+00   0.0000000000000000e+00   2.9279865648421772e-04   0.0000000000000000e+00   2.8048024379563048e-03   1.4890491752746135e-03   5.4860820220263579e-03   4.0817776309998825e-03   8.2272505612895827e-03   6.7727971140408355e-03   5.6578486438317782e-02   9.4400069204251570e-03   1.2746942554231172e-01   6.1602811493889978e-02   1.5665481928012487e-01   1.1413229126079391e-01   1.7723955340128003e-01   1.4003191677146357e-01   1.9342268760749898e-01   1.5811828827088523e-01   2.0602816292549805e-01   1.6958169397700551e-01   2.1095070137877825e-01   1.7879059514244719e-01   2.1787669288321476e-01   1.8581429722978612e-01   2.2326086742361578e-01   1.9119891819593279e-01   2.2736408901415595e-01   1.9296524172390922e-01   2.3027021287913224e-01   1.9593927160960184e-01   2.3190903830249021e-01   2.0004021474317976e-01   2.0049954678374363e-01   0.0000000000000000e+00   0.0000000000000000e+00   0.0000000000000000e+00   1.2931914263038372e-03   0.0000000000000000e+00   3.8148504975521061e-03   2.3417023679009942e-03   6.3953019317947212e-03   4.8393165574620615e-03   8.9106350967559332e-03   7.3156710721077253e-03   1.1239311586194466e-02   9.6488579086113115e-03   6.6690423796137738e-02   1.1734472583088117e-02   8.7139825878785271e-02   2.6970978305107810e-02   9.5157156930932879e-02   2.3889554253806861e-02   9.4906638366037008e-02   1.6122994386237464e-02   6.8709185990930385e-02   1.7076197157788062e-02   1.9304315658459040e-02   1.7901385497600453e-02   2.0095115408445028e-02   1.8672415542907661e-02   2.0879519130198226e-02   1.9437928844281974e-02   2.1662365018973652e-02   2.0214933823613931e-02   2.2420394682186762e-02   2.0990003952812281e-02   2.3107893237732012e-02   2.1724167335004589e-02   2.2359110474520660e-02   0.0000000000000000