<?xml version="1.0"?>
<VTKFile type="UnstructuredGrid"  version="0.1"  >
<UnstructuredGrid>
<Piece  NumberOfPoints="614" NumberOfCells="1122">
<Points>
<DataArray  type="Float64"  NumberOfComponents="3"  format="ascii">2.792173913043478 0.2166666666666667 0  2.792173913043478 0.2333333333333333 0  2.808695652173913 0.2333333333333333 0  2.445217391304348 0.2333333333333333 0  2.461739130434782 0.2333333333333333 0  2.461739130434782 0.25 0  2.445217391304348 0.25 0  2.478260869565217 0.2333333333333333 0  2.478260869565217 0.25 0  2.494782608695652 0.2333333333333333 0  2.494782608695652 0.25 0  2.511304347826087 0.2333333333333333 0  2.511304347826087 0.25 0  2.527826086956522 0.2333333333333333 0  2.527826086956522 0.25 0  2.544347826086956 0.2333333333333333 0  2.544347826086956 0.25 0  2.560869565217391 0.2333333333333333 0  2.560869565217391 0.25 0  2.577391304347826 0.2333333333333333 0  2.577391304347826 0.25 0  2.593913043478261 0.2333333333333333 0  2.593913043478261 0.25 0  2.610434782608696 0.2333333333333333 0  2.610434782608696 0.25 0  2.62695652173913 0.2333333333333333 0  2.62695652173913 0.25 0  2.643478260869565 0.2333333333333333 0  2.643478260869565 0.25 0  2.66 0.2333333333333333 0  2.66 0.25 0  2.676521739130435 0.2333333333333333 0  2.676521739130435 0.25 0  2.693043478260869 0.2333333333333333 0  2.693043478260869 0.25 0  2.709565217391304 0.2333333333333333 0  2.709565217391304 0.25 0  2.726086956521739 0.2333333333333333 0  2.726086956521739 0.25 0  2.742608695652174 0.2333333333333333 0  2.742608695652174 0.25 0  2.759130434782609 0.2333333333333333 0  2.759130434782609 0.25 0  2.775652173913044 0.2333333333333333 0  2.775652173913044 0.25 0  2.792173913043478 0.25 0  2.808695652173913 0.25 0  2.825217391304347 0.25 0  2.28 0.25 0  2.296521739130434 0.25 0  2.296521739130434 0.2666666666666667 0  2.28 0.2666666666666667 0  2.31304347826087 0.25 0  2.31304347826087 0.2666666666666667 0  2.329565217391304 0.25 0  2.329565217391304 0.2666666666666667 0  2.346086956521739 0.25 0  2.346086956521739 0.2666666666666667 0  2.362608695652174 0.25 0  2.362608695652174 0.2666666666666667 0  2.379130434782609 0.25 0  2.379130434782609 0.2666666666666667 0  2.395652173913044 0.25 0  2.395652173913044 0.2666666666666667 0  2.412173913043478 0.25 0  2.412173913043478 0.2666666666666667 0  2.428695652173913 0.25 0  2.428695652173913 0.2666666666666667 0  2.445217391304348 0.2666666666666667 0  2.461739130434782 0.2666666666666667 0  2.478260869565217 0.2666666666666667 0  2.494782608695652 0.2666666666666667 0  2.511304347826087 0.2666666666666667 0  2.527826086956522 0.2666666666666667 0  2.544347826086956 0.2666666666666667 0  2.560869565217391 0.2666666666666667 0  2.577391304347826 0.2666666666666667 0  2.593913043478261 0.2666666666666667 0  2.610434782608696 0.2666666666666667 0  2.62695652173913 0.2666666666666667 0  2.643478260869565 0.2666666666666667 0  2.66 0.2666666666666667 0  2.676521739130435 0.2666666666666667 0  2.693043478260869 0.2666666666666667 0  2.709565217391304 0.2666666666666667 0  2.726086956521739 0.2666666666666667 0  2.742608695652174 0.2666666666666667 0  2.759130434782609 0.2666666666666667 0  2.775652173913044 0.2666666666666667 0  2.792173913043478 0.2666666666666667 0  2.808695652173913 0.2666666666666667 0  2.825217391304347 0.2666666666666667 0  2.841739130434783 0.2666666666666667 0  2.24695652173913 0.2666666666666667 0  2.263478260869565 0.2666666666666667 0  2.263478260869565 0.2833333333333333 0  2.28 0.2833333333333333 0  2.296521739130434 0.2833333333333333 0  2.31304347826087 0.2833333333333333 0  2.329565217391304 0.2833333333333333 0  2.346086956521739 0.2833333333333333 0  2.362608695652174 0.2833333333333333 0  2.379130434782609 0.2833333333333333 0  2.395652173913044 0.2833333333333333 0  2.412173913043478 0.2833333333333333 0  2.428695652173913 0.2833333333333333 0  2.445217391304348 0.2833333333333333 0  2.461739130434782 0.2833333333333333 0  2.478260869565217 0.2833333333333333 0  2.494782608695652 0.2833333333333333 0  2.511304347826087 0.2833333333333333 0  2.527826086956522 0.2833333333333333 0  2.544347826086956 0.2833333333333333 0  2.560869565217391 0.2833333333333333 0  2.577391304347826 0.2833333333333333 0  2.593913043478261 0.2833333333333333 0  2.610434782608696 0.2833333333333333 0  2.62695652173913 0.2833333333333333 0  2.643478260869565 0.2833333333333333 0  2.66 0.2833333333333333 0  2.676521739130435 0.2833333333333333 0  2.693043478260869 0.2833333333333333 0  2.709565217391304 0.2833333333333333 0  2.726086956521739 0.2833333333333333 0  2.742608695652174 0.2833333333333333 0  2.759130434782609 0.2833333333333333 0  2.775652173913044 0.2833333333333333 0  2.792173913043478 0.2833333333333333 0  2.808695652173913 0.2833333333333333 0  2.825217391304347 0.2833333333333333 0  2.841739130434783 0.2833333333333333 0  2.858260869565217 0.2833333333333333 0  2.28 0.3 0  2.296521739130434 0.3 0  2.31304347826087 0.3 0  2.329565217391304 0.3 0  2.346086956521739 0.3 0  2.362608695652174 0.3 0  2.379130434782609 0.3 0  2.395652173913044 0.3 0  2.412173913043478 0.3 0  2.428695652173913 0.3 0  2.445217391304348 0.3 0  2.461739130434782 0.3 0  2.478260869565217 0.3 0  2.494782608695652 0.3 0  2.511304347826087 0.3 0  2.527826086956522 0.3 0  2.544347826086956 0.3 0  2.560869565217391 0.3 0  2.577391304347826 0.3 0  2.593913043478261 0.3 0  2.610434782608696 0.3 0  2.62695652173913 0.3 0  2.643478260869565 0.3 0  2.66 0.3 0  2.676521739130435 0.3 0  2.693043478260869 0.3 0  2.709565217391304 0.3 0  2.726086956521739 0.3 0  2.742608695652174 0.3 0  2.759130434782609 0.3 0  2.775652173913044 0.3 0  2.792173913043478 0.3 0  2.808695652173913 0.3 0  2.825217391304347 0.3 0  2.841739130434783 0.3 0  2.858260869565217 0.3 0  2.874782608695652 0.3 0  2.296521739130434 0.3166666666666667 0  2.31304347826087 0.3166666666666667 0  2.329565217391304 0.3166666666666667 0  2.346086956521739 0.3166666666666667 0  2.362608695652174 0.3166666666666667 0  2.379130434782609 0.3166666666666667 0  2.395652173913044 0.3166666666666667 0  2.412173913043478 0.3166666666666667 0  2.428695652173913 0.3166666666666667 0  2.445217391304348 0.3166666666666667 0  2.461739130434782 0.3166666666666667 0  2.478260869565217 0.3166666666666667 0  2.494782608695652 0.3166666666666667 0  2.511304347826087 0.3166666666666667 0  2.527826086956522 0.3166666666666667 0  2.544347826086956 0.3166666666666667 0  2.560869565217391 0.3166666666666667 0  2.577391304347826 0.3166666666666667 0  2.593913043478261 0.3166666666666667 0  2.610434782608696 0.3166666666666667 0  2.62695652173913 0.3166666666666667 0  2.643478260869565 0.3166666666666667 0  2.66 0.3166666666666667 0  2.676521739130435 0.3166666666666667 0  2.693043478260869 0.3166666666666667 0  2.709565217391304 0.3166666666666667 0  2.726086956521739 0.3166666666666667 0  2.742608695652174 0.3166666666666667 0  2.759130434782609 0.3166666666666667 0  2.775652173913044 0.3166666666666667 0  2.792173913043478 0.3166666666666667 0  2.808695652173913 0.3166666666666667 0  2.825217391304347 0.3166666666666667 0  2.841739130434783 0.3166666666666667 0  2.858260869565217 0.3166666666666667 0  2.874782608695652 0.3166666666666667 0  2.891304347826087 0.3166666666666667 0  2.31304347826087 0.3333333333333333 0  2.329565217391304 0.3333333333333333 0  2.346086956521739 0.3333333333333333 0  2.362608695652174 0.3333333333333333 0  2.379130434782609 0.3333333333333333 0  2.395652173913044 0.3333333333333333 0  2.412173913043478 0.3333333333333333 0  2.428695652173913 0.3333333333333333 0  2.445217391304348 0.3333333333333333 0  2.461739130434782 0.3333333333333333 0  2.478260869565217 0.3333333333333333 0  2.494782608695652 0.3333333333333333 0  2.511304347826087 0.3333333333333333 0  2.527826086956522 0.3333333333333333 0  2.544347826086956 0.3333333333333333 0  2.560869565217391 0.3333333333333333 0  2.577391304347826 0.3333333333333333 0  2.593913043478261 0.3333333333333333 0  2.610434782608696 0.3333333333333333 0  2.62695652173913 0.3333333333333333 0  2.643478260869565 0.3333333333333333 0  2.66 0.3333333333333333 0  2.676521739130435 0.3333333333333333 0  2.693043478260869 0.3333333333333333 0  2.709565217391304 0.3333333333333333 0  2.726086956521739 0.3333333333333333 0  2.742608695652174 0.3333333333333333 0  2.759130434782609 0.3333333333333333 0  2.775652173913044 0.3333333333333333 0  2.792173913043478 0.3333333333333333 0  2.808695652173913 0.3333333333333333 0  2.825217391304347 0.3333333333333333 0  2.841739130434783 0.3333333333333333 0  2.858260869565217 0.3333333333333333 0  2.874782608695652 0.3333333333333333 0  2.891304347826087 0.3333333333333333 0  2.907826086956522 0.3333333333333333 0  2.329565217391304 0.35 0  2.346086956521739 0.35 0  2.362608695652174 0.35 0  2.379130434782609 0.35 0  2.395652173913044 0.35 0  2.412173913043478 0.35 0  2.428695652173913 0.35 0  2.445217391304348 0.35 0  2.461739130434782 0.35 0  2.478260869565217 0.35 0  2.494782608695652 0.35 0  2.511304347826087 0.35 0  2.527826086956522 0.35 0  2.544347826086956 0.35 0  2.560869565217391 0.35 0  2.577391304347826 0.35 0  2.593913043478261 0.35 0  2.610434782608696 0.35 0  2.62695652173913 0.35 0  2.643478260869565 0.35 0  2.66 0.35 0  2.676521739130435 0.35 0  2.693043478260869 0.35 0  2.709565217391304 0.35 0  2.726086956521739 0.35 0  2.742608695652174 0.35 0  2.759130434782609 0.35 0  2.775652173913044 0.35 0  2.792173913043478 0.35 0  2.808695652173913 0.35 0  2.825217391304347 0.35 0  2.841739130434783 0.35 0  2.858260869565217 0.35 0  2.874782608695652 0.35 0  2.891304347826087 0.35 0  2.907826086956522 0.35 0  2.924347826086957 0.35 0  2.346086956521739 0.3666666666666666 0  2.362608695652174 0.3666666666666666 0  2.379130434782609 0.3666666666666666 0  2.395652173913044 0.3666666666666666 0  2.412173913043478 0.3666666666666666 0  2.428695652173913 0.3666666666666666 0  2.445217391304348 0.3666666666666666 0  2.461739130434782 0.3
[...]
<CellData  Scalars="sigma_m"> 
<DataArray  type="Float64"  Name="sigma_m"  format="ascii">0.0000000000000000e+00   6.8057366936434582e+06   2.8917413610087465e+06   2.2391337061929566e-06   1.0027035137890080e-04   0.0000000000000000e+00   0.0000000000000000e+00   0.0000000000000000e+00   0.0000000000000000e+00   0.0000000000000000e+00   0.0000000000000000e+00   0.0000000000000000e+00   0.0000000000000000e+00   0.0000000000000000e+00   0.0000000000000000e+00   0.0000000000000000e+00   0.0000000000000000e+00   0.0000000000000000e+00   0.0000000000000000e+00   0.0000000000000000e+00   0.0000000000000000e+00   0.0000000000000000e+00   0.0000000000000000e+00   0.0000000000000000e+00   0.0000000000000000e+00   1.0257519636074585e+04   1.6500290580915677e-04   1.2310469295546727e+07   7.6482680394961564e+06   7.5032264657072214e+04   7.0581133952562660e+06   0.0000000000000000e+00   4.0346182664799876e-02   0.0000000000000000e+00   0.0000000000000000e+00   0.0000000000000000e+00   0.0000000000000000e+00   0.0000000000000000e+00   0.0000000000000000e+00   0.0000000000000000e+00   0.0000000000000000e+00   0.0000000000000000e+00   0.0000000000000000e+00   0.0000000000000000e+00   0.0000000000000000e+00   0.0000000000000000e+00   0.0000000000000000e+00   0.0000000000000000e+00   0.0000000000000000e+00   0.0000000000000000e+00   0.0000000000000000e+00   0.0000000000000000e+00   0.0000000000000000e+00   0.0000000000000000e+00   0.0000000000000000e+00   0.0000000000000000e+00   0.0000000000000000e+00   0.0000000000000000e+00   8.7435170704568944e-10   0.0000000000000000e+00   5.7563616617646115e+05   1.9806092029638210e+04   1.6521867588050043e+07   1.6005674315456703e+07   4.6757394577568181e+07   2.1690055496867593e+07   6.1379741754762636e-02   1.7938387138518173e+00   0.0000000000000000e+00   0.0000000000000000e+00   0.0000000000000000e+00   0.0000000000000000e+00   0.0000000000000000e+00   0.0000000000000000e+00   0.0000000000000000e+00   0.0000000000000000e+00   0.0000000000000000e+00   0.0000000000000000e+00   0.0000000000000000e+00   0.0000000000000000e+00   0.0000000000000000e+00   0.0000000000000000e+00   0.0000000000000000e+00   0.0000000000000000e+00   0.0000000000000000e+00   0.0000000000000000e+00   0.0000000000000000e+00   0.0000000000000000e+00   0.0000000000000000e+00   0.0000000000000000e+00   3.5855651712665206e-05   0.0000000000000000e+00   1.0626190988269076e+07   4.0525550156358477e+03   5.6848083516333057e+06   7.2118141704718117e+06   4.0199644908875759e-01   1.6777198636584147e+05   0.0000000000000000e+00   0.0000000000000000e+00   0.0000000000000000e+00   0.0000000000000000e+00   0.0000000000000000e+00   0.0000000000000000e+00   0.0000000000000000e+00   0.0000000000000000e+00   0.0000000000000000e+00   0.0000000000000000e+00   0.0000000000000000e+00   0.0000000000000000e+00   0.0000000000000000e+00   0.0000000000000000e+00   0.0000000000000000e+00   0.0000000000000000e+00   0.0000000000000000e+00   0.0000000000000000e+00   0.0000000000000000e+00   0.0000000000000000e+00   0.0000000000000000e+00   0.0000000000000000e+00   0.0000000000000000e+00   0.0000000000000000e+00   0.0000000000000000e+00   0.0000000000000000e+00   0.0000000000000000e+00   0.0000000000000000e+00   0.0000000000000000e+00   0.0000000000000000e+00   3.8871086697283863e+03   6.5149025795780472e+02   1.6720665073203174e+07   2.0973502296418499e+07   2.4090110101545140e+07   1.4228640268617131e+07   6.9878058948863782e+01   9.0908857606347931e+02   0.0000000000000000e+00   0.0000000000000000e+00   0.0000000000000000e+00   0.0000000000000000e+00   0.0000000000000000e+00   0.0000000000000000e+00   0.0000000000000000e+00   0.0000000000000000e+00   0.0000000000000000e+00   0.0000000000000000e+00   0.0000000000000000e+00   0.0000000000000000e+00   0.0000000000000000e+00   0.0000000000000000e+00   0.0000000000000000e+00   0.0000000000000000e+00   0.0000000000000000e+00   0.0000000000000000e+00   0.0000000000000000e+00   0.0000000000000000e+00   0.0000000000000000e+00   0.0000000000000000e+00   0.0000000000000000e+00   0.0000000000000000e+00   0.0000000000000000e+00   0.0000000000000000e+00   1.4963571092492512e+03   4.0909179692370451e-06   6.9268784151849290e+06   3.4766437727708970e+06   4.8989878544237424e+05   3.5961029400802655e+06   6.8204273196019138e-09   5.4767799340709303e+01   0.0000000000000000e+00   0.0000000000000000e+00   0.0000000000000000e+00   0.0000000000000000e+00   0.0000000000000000e+00   0.0000000000000000e+00   0.0000000000000000e+00   0.0000000000000000e+00   0.0000000000000000e+00   0.0000000000000000e+00   0.0000000000000000e+00   0.0000000000000000e+00   0.0000000000000000e+00   0.0000000000000000e+00   0.0000000000000000e+00   0.0000000000000000e+00   0.0000000000000000e+00   0.0000000000000000e+00   0.0000000000000000e+00   0.0000000000000000e+00   0.0000000000000000e+00   0.0000000000000000e+00   0.0000000000000000e+00   0.0000000000000000e+00   0.0000000000000000e+00   0.0000000000000000e+00   7.4323996569245452e+01   3.5715397685817329e+01   1.6632826523698557e+07   1.9433270464224488e+07   9.2531336623313688e+06   9.8645461338674631e+06   3.4519677550570683e+04   3.4930450965214346e+05   0.0000000000000000e+00   0.0000000000000000e+00   0.0000000000000000e+00   0.0000000000000000e+00   0.0000000000000000e+00   0.0000000000000000e+00   0.0000000000000000e+00   0.0000000000000000e+00   0.0000000000000000e+00   0.0000000000000000e+00   0.0000000000000000e+00   0.0000000000000000e+00   0.0000000000000000e+00   0.0000000000000000e+00   0.0000000000000000e+00   0.0000000000000000e+00   0.0000000000000000e+00   0.0000000000000000e+00   0.0000000000000000e+00   0.0000000000000000e+00   0.0000000000000000e+00   0.0000000000000000e+00   0.0000000000000000e+00   0.0000000000000000e+00   0.0000000000000000e+00   0.0000000000000000e+00   0.0000000000000000e+00   0.0000000000000000e+00   1.1835896559653554e-06   0.0000000000000000e+00   5.5803199649465205e+06   1.6845273798162285e+02   6.2544662599596167e+06   7.5651664844308365e+06   3.0813320045766403e+02   1.1878562927701015e+07   0.0000000000000000e+00   1.0578518733637204e-05   0.0000000000000000e+00   0.0000000000000000e+00   0.0000000000000000e+00   0.0000000000000000e+00   0.0000000000000000e+00   0.0000000000000000e+00   0.0000000000000000e+00   0.0000000000000000e+00   0.0000000000000000e+00   0.0000000000000000e+00   0.0000000000000000e+00   0.0000000000000000e+00   0.0000000000000000e+00   0.0000000000000000e+00   1.8037918319116206e-02   0.0000000000000000e+00   0.0000000000000000e+00   0.0000000000000000e+00   0.0000000000000000e+00   0.0000000000000000e+00   0.0000000000000000e+00   0.0000000000000000e+00   2.4001419783478304e+00   1.5051065800698631e+00   1.4553771350537391e+07   2.1448092825512968e+07   6.6059517743555037e+06   7.6237831703496026e+06   2.0015728058211384e+06   1.0902526191257958e+06   8.1857693342074769e-07   3.2308863876333149e-05   0.0000000000000000e+00   0.0000000000000000e+00   0.0000000000000000e+00   0.0000000000000000e+00   0.0000000000000000e+00   0.0000000000000000e+00   0.0000000000000000e+00   0.0000000000000000e+00   0.0000000000000000e+00   0.0000000000000000e+00   0.0000000000000000e+00   0.0000000000000000e+00   0.0000000000000000e+00   0.0000000000000000e+00   0.0000000000000000e+00   0.0000000000000000e+00   0.0000000000000000e+00   0.0000000000000000e+00   0.0000000000000000e+00   0.0000000000000000e+00   0.0000000000000000e+00   0.0000000000000000e+00   0.0000000000000000e+00   0.0000000000000000e+00   0.0000000000000000e+00   0.0000000000000000e+00   0.0000000000000000e+00   0.0000000000000000e+00   0.0000000000000000e+00   0.0000000000000000e+00   1.3967268265242053e+01   0.0000000000000000e+00   2.7961663644941412e+07   6.3284126843766205e+05   2.9951526348094526e+06   6.0033788512168052e+06   3.9767977375546856e-04   3.1746838455313045e+04   0.0000000000000000e+00   0.0000000000000000e+00   0.0000000000000000e+00   0.0000000000000000e+00   0.0000000000000000e+00   0.0000000000000000e+00   0.0000000000000000e+00   0.0000000000000000e+00   0.0000000000000000e+00   0.0000000000000000e+00   0.0000000000000000e+00   0.0000000000000000e+00   1.3185271196078433e-02   3.0811854133384435e-02   8.1236890143483700e+06   9.0659891167079490e+06   8.5236846807737164e+06   0.0000000000000000e+00   0.0000000000000000e+00   0.0000000000000000e+00   1.1377556141726188e-01   2.0750417784423880e-02   4.6988591033690413e+06   5.5005744656986035e+06   7.4771563313562684e+06   8.6324066698184833e+06   5.9926649804050270e+06   5.2657493003043672e+06   8.5686172374509276e-03   1.4278648853979590e-02   0.0000000000000000e+00   0.0000000000000000e+00   0.0000000000000000e+00   0.0000000000000000e+00   0.0000000000000000e+00   0.0000000000000000e+00   0.0000000000000000e+00   0.0000000000000000e+00   0.0000000000000000e+00   0.0000000000000000e+00   0.0000000000000000e+00   0.0000000000000000e+00   0.0000000000000000e+00   0.0000000000000000e+00   0.0000000000000000e+00   0.0000000000000000e+00   0.0000000000000000e+00   0.0000000000000000e+00   0.0000000000000000e+00   0.0000000000000000e+00   0.0000000000000000e+00   0.0000000000000000e+00   0.0000000000000000e+00   0.0000000000000000e+00   0.0000000000000000e+00   0.0000000000000000e+00   0.0000000000000000e+00   0.0000000000000000e+00   0.0000000000000000e+00   0.0000000000000000e+00   0.0000000000000000e+00   0.0000000000000000e+00   0.0000000000000000e+00   0.0000000000000000e+00   1.2162323050000872e+04   1.1199267046738430e-05   2.2153617853763130e+07   5.0173997555582412e+06   4.8093912839118368e+05   7.6260087728944551e+06   1.7637416827660934e-06   1.1594580974203585e+04   0.0000000000000000e+00   1.9001083906685063e-08   0.0000000000000000e+00   0.0000000000000000e+00   0.0000000000000000e+00   0.0000000000000000e+00   0.0000000000000000e+00   7.1800129876968414e-08   3.1021719787627142e+00   1.1477891821504458e+02   1.2215110412915763e+07   7.5894772089633280e+06   1.4809788155237602e+07   1.6992270820140399e+07   2.9278175244506192e+06   4.9332130447284821e+06   1.9186732606940694e+02   1.3354530477493070e-03   6.3877535796765629e+06   8.7917710884197243e+06   1.3252703562633215e+07   1.1790073532416074e+07   6.7783354380027102e+06   7.6182438010210339e+06   1.2045454140938935e-01   1.0568665649055349e-01   0.0000000000000000e+00   0.0000000000000000e+00   0.0000000000000000e+00   0.0000000000000000e+00   0.0000000000000000e+00   0.0000000000000000e+00   0.0000000000000000e+00   0.0000000000000000e+00   0.0000000000000000e+00   0.0000000000000000e+00   0.0000000000000000e+00   0.0000000000000000e+00   0.0000000000000000e+00   0.0000000000000000e+00   0.0000000000000000e+00   0.0000000000000000e+00   0.0000000000000000e+00   0.0000000000000000e+00   0.0000000000000000e+00   0.0000000000000000e+00   0.0000000000000000e+00   0.0000000000000000e+00   0.0000000000000000e+00   0.0000000000000000e+00   0.0000000000000000e+00   0.0000000000000000e+00   0.0000000000000000e+00   0.0000000000000000e+00   0.0000000000000000e+00   0.0000000000000000e+00   0.0000000000000000e+00   0.0000000000000000e+00   0.0000000000000000e+00   0.0000000000000000e+00   0.0000000000000000e+00   0.0000000000000000e+00   0.0000000000000000e+00   0.0000000000000000e+00   3.5658716972736892e+05   5.8324639613721585e-03   8.8032113311756942e+06   6.7292423918938609e+06   5.0180715547023267e+06   4.1706819455804029e+06   2.1323697862667785e+05   4.6390667127902973e+06   5.9298577685507308e+00   4.2477399520170124e+05   2.0358809056740739e+02   8.1579389046509331e+05   5.2970174899580143e+06   6.6368322952373046e+05   7.0356051290527945e+06   2.5255506921485583e+06   2.6150686064355906e+07   2.7125217754223868e+07   1.1954075824093299e+07   3.7676625007922299e+07   2.2338794929868783e+01   3.5000372674999025e+00   0.0000000000000000e+00   0.0000000000000000e+00   0.0000000000000000e+00   9.2380374769288730e+06   3.6499571450589761e+07   1.3750609240931351e+07   3.4938693381677410e-01   3.1484288976882953e+00   0.0000000000000000e+00   0.0000000000000000e+00   0.0000000000000000e+00   0.0000000000000000e+00   0.0000000000000000e+00   0.0000000000000000e+00   0.0000000000000000e+00   0.0000000000000000e+00   0.0000000000000000e+00   0.0000000000000000e+00   0.0000000000000000e+00   0.0000000000000000e+00   0.0000000000000000e+00   0.0000000000000000e+00   0.0000000000000000e+00   0.0000000000000000e+00   0.0000000000000000e+00   0.0000000000000000e+00   0.0000000000000000e+00   0.0000000000000000e+00   0.0000000000000000e+00   0.0000000000000000e+00   0.0000000000000000e+00   0.0000000000000000e+00   0.0000000000000000e+00   0.0000000000000000e+00   0.0000000000000000e+00   0.0000000000000000e+00   0.0000000000000000e+00   0.0000000000000000e+00   0.0000000000000000e+00   0.0000000000000000e+00   0.0000000000000000e+00   0.0000000000000000e+00   0.0000000000000000e+00   0.0000000000000000e+00   0.0000000000000000e+00   0.0000000000000000e+00   0.0000000000000000e+00   0.0000000000000000e+00   1.6011252982237997e-06   0.0000000000000000e+00   1.0754209009957846e+07   2.0994430825740505e+02   3.8234351309676208e+06   3.9962345110666170e+06   1.0413240761231997e+06   1.7185203731062193e+06   2.2763541245804313e+06   1.9742152299592185e+06   2.1027350074046091e+06   1.0359388760562828e+06   1.5222174481678577e+06   4.0135541788071077e+06   1.4701510573393255e+07   1.4111882009393413e+07   3.7134561369641619e+06   2.8748158853803721e+05   1.2898085126558661e-02   9.9691734285899260e-05   0.0000000000000000e+00   0.0000000000000000e+00   0.0000000000000000e+00   0.0000000000000000e+00   0.0000000000000000e+00   0.0000000000000000e+00   0.0000000000000000e+00   3.9454020545276529e+02   0.0000000000000000e+00   0.0000000000000000e+00   0.0000000000000000e+00   0.0000000000000000e+00   0.0000000000000000e+00   0.0000000000000000e+00   0.0000000000000000e+00   0.0000000000000000e+00   0.0000000000000000e+00   0.0000000000000000e+00   0.0000000000000000e+00   0.0000000000000000e+00   0.0000000000000000e+00   0.0000000000000000e+00   0.0000000000000000e+00   0.0000000000000000e+00   0.0000000000000000e+00   0.0000000000000000e+00   0.0000000000000000e+00   0.0000000000000000e+00   0.0000000000000000e+00   0.0000000000000000e+00   0.0000000000000000e+00   0.0000000000000000e+00   0.0000000000000000e+00   0.0000000000000000e+00   0.0000000000000000e+00   0.0000000000000000e+00   0.0000000000000000e+00   0.0000000000000000e+00   0.0000000000000000e+00   0.0000000000000000e+00   0.0000000000000000e+00   0.0000000000000000e+00   0.0000000000000000e+00   0.0000000000000000e+00   0.0000000000000000e+00   0.0000000000000000e+00   0.0000000000000000e+00   0.0000000000000000e+00   0.0000000000000000e+00   0.0000000000000000e+00   0.0000000000000000e+00   0.0000000000000000e+00   1.5154568543502194e+00   0.0000000000000000e+00   4.8963723074725820e+06   3.8751040554566099e+06   7.4983354009184055e+05   2.5798421011367803e+06   1.3538355198767022e+06   1.3776596109280307e+06   2.9267682620358253e+06   3.0073356503969254e+06   6.9720386034954898e+06   6.0975218035049373e+06   3.5215634732079081e+04   3.0505343060041128e+03   8.8489487917163393e-09   0.0000000000000000e+00   0.0000000000000000e+00   0.0000000000000000e+00   0.0000000000000000e+00   0.0000000000000000e+00   0.0000000000000000e+00   0.0000000000000000e+00   0.0000000000000000e+00   0.0000000000000000e+00   0.0000000000000000e+00   0.0000000000000000e+00   0.0000000000000000e+00   0.0000000000000000e+00   0.0000000000000000e+00   0.0000000000000000e+00   0.0000000000000000e+00   0.0000000000000000e+00   0.0000000000000000e+00   0.0000000000000000e+00   0.0000000000000000e+00   0.0000000000000000e+00   0.0000000000000000e+00   0.0000000000000000e+00   0.0000000000000000e+00   0.0000000000000000e+00   0.0000000000000000e+00   0.0000000000000000e+00   0.0000000000000000e+00   0.0000000000000000e+00   0.0000000000000000e+00   0.0000000000000000e+00   0.0000000000000000e+00   0.0000000000000000e+00   0.0000000000000000e+00   0.0000000000000000e+00   0.0000000000000000e+00   0.0000000000000000e+00   0.0000000000000000e+00   0.0000000000000000e+00   0.0000000000000000e+00   0.0000000000000000e+00   0.0000000000000000e+00   0.0000000000000000e+00   0.0000000000000000e+00   0.0000000000000000e+00   0.0000000000000000e+00   0.0000000000000000e+00   0.0000000000000000e+00   0.0000000000000000e+00   0.0000000000000000e+00   0.0000000000000000e+00   0.0000000000000000e+00   0.0000000000000000e+00   0.0000000000000000e+00   0.0000000000000000e+00   0.0000000000000000e+00   0.0000000000000000e+00   5.6369875549655370e+06   4.0382009904705155e-02   3.2920630159698855e+06   4.2900574051907621e+06   4.2174411294168392e+06   6.3745270318885299e+05   6.0898925734836403e+06   6.9624338558989130e+06   7.0429281284562603e+03   1.6859310874548752e+04   0.0000000000000000e+00   0.0000000000000000e+00   0.0000000000000000e+00   0.0000000000000000e+00   0.0000000000000000e+00   0.0000000000000000e+00   0.0000000000000000e+00   0.0000000000000000e+00   0.0000000000000000e+00   0.0000000000000000e+00   0.0000000000000000e+00   0.0000000000000000e+00   0.0000000000000000e+00   0.0000000000000000e+00   0.0000000000000000e+00   0.0000000000000000e+00   0.0000000000000000e+00   0.0000000000000000e+00   0.0000000000000000e+00   0.0000000000000000e+00   0.0000000000000000e+00   0.0000000000000000e+00   0.0000000000000000e+00   0.0000000000000000e+00   0.0000000000000000e+00   0.0000000000000000e+00   0.0000000000000000e+00   0.0000000000000000e+00   0.0000000000000000e+00   0.0000000000000000e+00   0.0000000000000000e+00   0.0000000000000000e+00   0.0000000000000000e+00   0.0000000000000000e+00   0.0000000000000000e+00   0.0000000000000000e+00   0.0000000000000000e+00   0.0000000000000000e+00   0.0000000000000000e+00   0.0000000000000000e+00   0.0000000000000000e+00   0.0000000000000000e+00   0.0000000000000000e+00   0.0000000000000000e+00   0.0000000000000000e+00   0.0000000000000000e+00   0.0000000000000000e+00   0.0000000000000000e+00   0.0000000000000000e+00   0.0000000000000000e+00   0.0000000000000000e+00   0.0000000000000000e+00   0.0000000000000000e+00   0.0000000000000000e+00   0.0000000000000000e+00   0.0000000000000000e+00   0.0000000000000000e+00   0.0000000000000000e+00   0.0000000000000000e+00   0.0000000000000000e+00   4.1034854655794806e-01   0.0000000000000000e+00   6.7959303402540674e+06   4.4400884119041942e+07   6.0292103780890061e+06   3.0913752826623120e+06   3.0623091418083329e+06   1.7672711538054962e+06   0.0000000000000000e+00   0.0000000000000000e+00   0.0000000000000000e+00   0.0000000000000000e+00   0.0000000000000000e+00   0.0000000000000000e+00   0.0000000000000000e+00   0.0000000000000000e+00   0.0000000000000000e+00   0.0000000000000000e+00   0.0000000000000000e+00   0.0000000000000000e+00   0.0000000000000000e+00   0.0000000000000000e+00   0.0000000000000000e+00   0.0000000000000000e+00   0.0000000000000000e+00   0.0000000000000000e+00   0.0000000000000000e+00   0.0000000000000000e+00   0.0000000000000000e+00   0.0000000000000000e+00   0.0000000000000000e+00   0.0000000000000000e+00   0.0000000000000000e+00   0.0000000000000000e+00   0.0000000000000000e+00   0.0000000000000000e+00   0.0000000000000000e+00   0.0000000000000000e+00   0.0000000000000000e+00   0.0000000000000000e+00   0.0000000000000000e+00   0.0000000000000000e+00   0.0000000000000000e+00   0.0000000000000000e+00   0.0000000000000000e+00   0.0000000000000000e+00   0.0000000000000000e+00   0.0000000000000000e+00   0.0000000000000000e+00   0.0000000000000000e+00   0.0000000000000000e+00   0.0000000000000000e+00   0.0000000000000000e+00   0.0000000000000000e+00   0.0000000000000000e+00   0.0000000000000000e+00   0.0000000000000000e+00   0.0000000000000000e+00   0.0000000000000000e+00   0.0000000000000000e+00   0.0000000000000000e+00   0.0000000000000000e+00   0.0000000000000000e+00   0.0000000000000000e+00   0.00000000