<?xml version="1.0"?>
<VTKFile type="UnstructuredGrid"  version="0.1"  >
<UnstructuredGrid>
<Piece  NumberOfPoints="621" NumberOfCells="1125">
<Points>
<DataArray  type="Float64"  NumberOfComponents="3"  format="ascii">1.883478260869565 0 0  1.9 0 0  1.9 0.01666666666666667 0  1.883478260869565 0.01666666666666667 0  1.916521739130435 0 0  1.916521739130435 0.01666666666666667 0  1.933043478260869 0 0  1.933043478260869 0.01666666666666667 0  1.949565217391304 0 0  1.949565217391304 0.01666666666666667 0  1.966086956521739 0 0  1.966086956521739 0.01666666666666667 0  1.982608695652174 0 0  1.982608695652174 0.01666666666666667 0  1.999130434782608 0 0  1.999130434782608 0.01666666666666667 0  2.015652173913043 0 0  2.015652173913043 0.01666666666666667 0  2.032173913043478 0 0  2.032173913043478 0.01666666666666667 0  2.048695652173913 0 0  2.048695652173913 0.01666666666666667 0  2.065217391304348 0 0  2.065217391304348 0.01666666666666667 0  2.081739130434782 0 0  2.081739130434782 0.01666666666666667 0  2.098260869565217 0 0  2.098260869565217 0.01666666666666667 0  2.114782608695652 0 0  2.114782608695652 0.01666666666666667 0  2.131304347826087 0 0  2.131304347826087 0.01666666666666667 0  2.147826086956522 0 0  2.147826086956522 0.01666666666666667 0  2.164347826086956 0 0  2.164347826086956 0.01666666666666667 0  2.180869565217391 0 0  2.180869565217391 0.01666666666666667 0  2.197391304347826 0 0  2.197391304347826 0.01666666666666667 0  2.213913043478261 0 0  2.213913043478261 0.01666666666666667 0  2.230434782608695 0 0  2.230434782608695 0.01666666666666667 0  2.24695652173913 0 0  2.24695652173913 0.01666666666666667 0  2.263478260869565 0 0  2.263478260869565 0.01666666666666667 0  2.28 0 0  2.28 0.01666666666666667 0  2.296521739130434 0 0  2.296521739130434 0.01666666666666667 0  2.31304347826087 0 0  2.31304347826087 0.01666666666666667 0  2.329565217391304 0 0  2.329565217391304 0.01666666666666667 0  2.346086956521739 0 0  2.346086956521739 0.01666666666666667 0  2.362608695652174 0 0  2.362608695652174 0.01666666666666667 0  2.379130434782609 0 0  2.379130434782609 0.01666666666666667 0  2.395652173913044 0 0  2.395652173913044 0.01666666666666667 0  2.412173913043478 0 0  2.412173913043478 0.01666666666666667 0  2.428695652173913 0 0  2.428695652173913 0.01666666666666667 0  2.445217391304348 0 0  2.445217391304348 0.01666666666666667 0  2.461739130434782 0 0  2.461739130434782 0.01666666666666667 0  2.478260869565217 0 0  2.478260869565217 0.01666666666666667 0  2.494782608695652 0 0  2.494782608695652 0.01666666666666667 0  2.511304347826087 0 0  2.511304347826087 0.01666666666666667 0  2.527826086956522 0 0  2.527826086956522 0.01666666666666667 0  2.544347826086956 0 0  2.544347826086956 0.01666666666666667 0  2.560869565217391 0 0  2.560869565217391 0.01666666666666667 0  2.577391304347826 0 0  2.577391304347826 0.01666666666666667 0  1.916521739130435 0.03333333333333333 0  1.933043478260869 0.03333333333333333 0  1.949565217391304 0.03333333333333333 0  1.966086956521739 0.03333333333333333 0  1.982608695652174 0.03333333333333333 0  1.999130434782608 0.03333333333333333 0  2.015652173913043 0.03333333333333333 0  2.032173913043478 0.03333333333333333 0  2.048695652173913 0.03333333333333333 0  2.065217391304348 0.03333333333333333 0  2.081739130434782 0.03333333333333333 0  2.098260869565217 0.03333333333333333 0  2.114782608695652 0.03333333333333333 0  2.131304347826087 0.03333333333333333 0  2.147826086956522 0.03333333333333333 0  2.164347826086956 0.03333333333333333 0  2.180869565217391 0.03333333333333333 0  2.197391304347826 0.03333333333333333 0  2.213913043478261 0.03333333333333333 0  2.230434782608695 0.03333333333333333 0  2.24695652173913 0.03333333333333333 0  2.263478260869565 0.03333333333333333 0  2.28 0.03333333333333333 0  2.296521739130434 0.03333333333333333 0  2.31304347826087 0.03333333333333333 0  2.329565217391304 0.03333333333333333 0  2.346086956521739 0.03333333333333333 0  2.362608695652174 0.03333333333333333 0  2.379130434782609 0.03333333333333333 0  2.395652173913044 0.03333333333333333 0  2.412173913043478 0.03333333333333333 0  2.428695652173913 0.03333333333333333 0  2.445217391304348 0.03333333333333333 0  2.461739130434782 0.03333333333333333 0  2.478260869565217 0.03333333333333333 0  2.494782608695652 0.03333333333333333 0  2.511304347826087 0.03333333333333333 0  2.527826086956522 0.03333333333333333 0  2.544347826086956 0.03333333333333333 0  2.560869565217391 0.03333333333333333 0  2.577391304347826 0.03333333333333333 0  2.593913043478261 0.03333333333333333 0  1.933043478260869 0.05 0  1.949565217391304 0.05 0  1.966086956521739 0.05 0  1.982608695652174 0.05 0  1.999130434782608 0.05 0  2.015652173913043 0.05 0  2.032173913043478 0.05 0  2.048695652173913 0.05 0  2.065217391304348 0.05 0  2.081739130434782 0.05 0  2.098260869565217 0.05 0  2.114782608695652 0.05 0  2.131304347826087 0.05 0  2.147826086956522 0.05 0  2.164347826086956 0.05 0  2.180869565217391 0.05 0  2.197391304347826 0.05 0  2.213913043478261 0.05 0  2.230434782608695 0.05 0  2.24695652173913 0.05 0  2.263478260869565 0.05 0  2.28 0.05 0  2.296521739130434 0.05 0  2.31304347826087 0.05 0  2.329565217391304 0.05 0  2.346086956521739 0.05 0  2.362608695652174 0.05 0  2.379130434782609 0.05 0  2.395652173913044 0.05 0  2.412173913043478 0.05 0  2.428695652173913 0.05 0  2.445217391304348 0.05 0  2.461739130434782 0.05 0  2.478260869565217 0.05 0  2.494782608695652 0.05 0  2.511304347826087 0.05 0  2.527826086956522 0.05 0  2.544347826086956 0.05 0  2.560869565217391 0.05 0  2.577391304347826 0.05 0  2.593913043478261 0.05 0  2.610434782608696 0.05 0  1.949565217391304 0.06666666666666667 0  1.966086956521739 0.06666666666666667 0  1.982608695652174 0.06666666666666667 0  1.999130434782608 0.06666666666666667 0  2.015652173913043 0.06666666666666667 0  2.032173913043478 0.06666666666666667 0  2.048695652173913 0.06666666666666667 0  2.065217391304348 0.06666666666666667 0  2.081739130434782 0.06666666666666667 0  2.098260869565217 0.06666666666666667 0  2.114782608695652 0.06666666666666667 0  2.131304347826087 0.06666666666666667 0  2.147826086956522 0.06666666666666667 0  2.164347826086956 0.06666666666666667 0  2.180869565217391 0.06666666666666667 0  2.197391304347826 0.06666666666666667 0  2.213913043478261 0.06666666666666667 0  2.230434782608695 0.06666666666666667 0  2.24695652173913 0.06666666666666667 0  2.263478260869565 0.06666666666666667 0  2.28 0.06666666666666667 0  2.296521739130434 0.06666666666666667 0  2.31304347826087 0.06666666666666667 0  2.329565217391304 0.06666666666666667 0  2.346086956521739 0.06666666666666667 0  2.362608695652174 0.06666666666666667 0  2.379130434782609 0.06666666666666667 0  2.395652173913044 0.06666666666666667 0  2.412173913043478 0.06666666666666667 0  2.428695652173913 0.06666666666666667 0  2.445217391304348 0.06666666666666667 0  2.461739130434782 0.06666666666666667 0  2.478260869565217 0.06666666666666667 0  2.494782608695652 0.06666666666666667 0  2.511304347826087 0.06666666666666667 0  2.527826086956522 0.06666666666666667 0  2.544347826086956 0.06666666666666667 0  2.560869565217391 0.06666666666666667 0  2.577391304347826 0.06666666666666667 0  2.593913043478261 0.06666666666666667 0  2.610434782608696 0.06666666666666667 0  2.62695652173913 0.06666666666666667 0  1.966086956521739 0.08333333333333333 0  1.982608695652174 0.08333333333333333 0  1.999130434782608 0.08333333333333333 0  2.015652173913043 0.08333333333333333 0  2.032173913043478 0.08333333333333333 0  2.048695652173913 0.08333333333333333 0  2.065217391304348 0.08333333333333333 0  2.081739130434782 0.08333333333333333 0  2.098260869565217 0.08333333333333333 0  2.114782608695652 0.08333333333333333 0  2.131304347826087 0.08333333333333333 0  2.147826086956522 0.08333333333333333 0  2.164347826086956 0.08333333333333333 0  2.180869565217391 0.08333333333333333 0  2.197391304347826 0.08333333333333333 0  2.213913043478261 0.08333333333333333 0  2.230434782608695 0.08333333333333333 0  2.24695652173913 0.08333333333333333 0  2.263478260869565 0.08333333333333333 0  2.28 0.08333333333333333 0  2.296521739130434 0.08333333333333333 0  2.31304347826087 0.08333333333333333 0  2.329565217391304 0.08333333333333333 0  2.346086956521739 0.08333333333333333 0  2.362608695652174 0.08333333333333333 0  2.379130434782609 0.08333333333333333 0  2.395652173913044 0.08333333333333333 0  2.412173913043478 0.08333333333333333 0  2.428695652173913 0.08333333333333333 0  2.445217391304348 0.08333333333333333 0  2.461739130434782 0.08333333333333333 0  2.478260869565217 0.08333333333333333 0  2.494782608695652 0.08333333333333333 0  2.511304347826087 0.08333333333333333 0  2.527826086956522 0.08333333333333333 0  2.544347826086956 0.08333333333333333 0  2.560869565217391 0.08333333333333333 0  2.577391304347826 0.08333333333333333 0  2.593913043478261 0.08333333333333333 0  2.610434782608696 0.08333333333333333 0  2.62695652173913 0.08333333333333333 0  2.643478260869565 0.08333333333333333 0  1.982608695652174 0.1 0  1.999130434782608 0.1 0  2.015652173913043 0.1 0  2.032173913043478 0.1 0  2.048695652173913 0.1 0  2.065217391304348 0.1 0  2.081739130434782 0.1 0  2.098260869565217 0.1 0  2.114782608695652 0.1 0  2.131304347826087 0.1 0  2.147826086956522 0.1 0  2.164347826086956 0.1 0  2.180869565217391 0.1 0  2.197391304347826 0.1 0  2.213913043478261 0.1 0  2.230434782608695 0.1 0  2.24695652173913 0.1 0  2.263478260869565 0.1 0  2.28 0.1 0  2.296521739130434 0.1 0  2.31304347826087 0.1 0  2.329565217391304 0.1 0  2.346086956521739 0.1 0  2.362608695652174 0.1 0  2.379130434782609 0.1 0  2.395652173913044 0.1 0  2.412173913043478 0.1 0  2.428695652173913 0.1 0  2.445217391304348 0.1 0  2.461739130434782 0.1 0  2.478260869565217 0.1 0  2.494782608695652 0.1 0  2.511304347826087 0.1 0  2.527826086956522 0.1 0  2.544347826086956 0.1 0  2.560869565217391 0.1 0  2.5773
[...]
<CellData  Scalars="sigma_m"> 
<DataArray  type="Float64"  Name="sigma_m"  format="ascii">4.2009902867787722e+06   4.5528326700078836e+06   4.2497565648299344e+06   4.5089953540280657e+06   4.2767499008970615e+06   4.5094516984842243e+06   4.2668932330976017e+06   4.5815761080035539e+06   4.1611390917825885e+06   4.7540843775328603e+06   4.0516595291833379e+06   4.8881202145313602e+06   4.0451492235255037e+06   4.8622635722496845e+06   4.1160726890137265e+06   4.7345665942638712e+06   4.1930768907562187e+06   4.6228685029700259e+06   4.2458506209677905e+06   4.5578636660514353e+06   4.2761746613463778e+06   4.5253909179611765e+06   4.2929860101683643e+06   4.5104620920315282e+06   4.3027263917159317e+06   4.5044373369606137e+06   4.3087986408813084e+06   4.5029915887998333e+06   4.3129634386774739e+06   4.5037674517493378e+06   4.3163479308505971e+06   4.5051748514658809e+06   4.3197614161988944e+06   4.5061469578463864e+06   4.3236504676951189e+06   4.5062360575150512e+06   4.3280855644653263e+06   4.5055468988161944e+06   4.3328996037242608e+06   4.5044849928919235e+06   4.3378157756636683e+06   4.5035783841658812e+06   4.3424880128052868e+06   4.5034284802614190e+06   4.3466338326424565e+06   4.5046136170659102e+06   4.3500670569923110e+06   4.5078589123926954e+06   4.3520612859198265e+06   4.5148314411722235e+06   4.3501212875455404e+06   4.5282773331546737e+06   4.3420676550278487e+06   4.5474610049159061e+06   4.3345113785889037e+06   4.5609822486857055e+06   4.3385017790107243e+06   4.5582534197800858e+06   4.3544774262694353e+06   4.5517758949731328e+06   4.3771564151806654e+06   4.5794130037789736e+06   4.3640101044763979e+06   4.7331950982500492e+06   4.1335844344797558e+06   5.1448409000663683e+06   3.8089132421991751e+06   5.5693233723554788e+06   3.5369669197550807e+06   5.7781898433054816e+06   3.7045976898847451e+06   5.4997187754995311e+06   4.1094469067821186e+06   4.7317925830683243e+06   4.5144206549028689e+06   4.2136519891160168e+06   4.8400716898808507e+06   3.9141961777512650e+06   4.9731440598613191e+06   3.7277853154714890e+06   4.9423987673877971e+06   3.4741344468523772e+06   5.0411561533209914e+06   3.2079582058077501e+06   4.5237626326950276e+06   4.5238605130219869e+06   4.6593309385014456e+06   4.6104548395689223e+06   4.6515132759265676e+06   4.8115877755491426e+06   5.0202591405760320e+06   4.9411528294809759e+06   6.0981869268971058e+06   4.9016680740649328e+06   6.0345164676267439e+06   4.7605035480764508e+06   5.2932835224301452e+06   4.6431603651375342e+06   4.9023510238317391e+06   4.5749425138995722e+06   4.7752782219079947e+06   4.5403390362082766e+06   4.7299482790804887e+06   4.5241867087912904e+06   4.7095395169220380e+06   4.5175445280574961e+06   4.6994853213439370e+06   4.5158215441250801e+06   4.6958400923002874e+06   4.5164562826741068e+06   4.6963351582645429e+06   4.5177078547149878e+06   4.6980067478476772e+06   4.5184379358687997e+06   4.6976773339228621e+06   4.5181980746486569e+06   4.6938404575209850e+06   4.5171269392695352e+06   4.6870949050967349e+06   4.5156705458313273e+06   4.6790011080350270e+06   4.5144131774361022e+06   4.6709254061098639e+06   4.5140201481472133e+06   4.6643187148127379e+06   4.5151004396079816e+06   4.6608504878488407e+06   4.5184704310050663e+06   4.6610099821671546e+06   4.5261396891602064e+06   4.6662175124281486e+06   4.5413595949444445e+06   4.6854199657467036e+06   4.5626619426125828e+06   4.7370654147954276e+06   4.5756564327999996e+06   4.8087098224933390e+06   4.5697172626836533e+06   4.8024988974820562e+06   4.5604626289372286e+06   4.6977355384308165e+06   4.5879584020442460e+06   4.5969477507072315e+06   4.7640655465594968e+06   4.5224398424641760e+06   5.2470830652882680e+06   4.9253457037398247e+06   5.6546557945733918e+06   7.6584776973762196e+06   5.8673712961269459e+06   8.6054471008402258e+06   5.5715034343331140e+06   8.8453208938866202e+06   4.6960124248743048e+06   4.3880561816238770e+06   4.1593226535980767e+06   3.7586019877163777e+06   3.8824121276917728e+06   2.6016166617901255e+06   3.6399762588924845e+06   2.4786125925039742e+06   3.3191463653740264e+06   2.1431779362170622e+06   3.1329484572825683e+06   1.4342488654523138e+06   8.4046854688605771e+05   1.1911904684597130e+03   1.8105720331473256e+02   4.7780976258809670e-06   1.3193873704651063e+01   2.9314626899429711e-07   2.6366195616438421e+00   2.7384331293206217e-08   2.7866621993161167e+00   1.4395129425307686e-08   6.4849075945926922e+00   2.5638302983232339e-08   1.5674424581210818e+01   5.9048614082902328e-08   2.9947414709415142e+01   1.1558390152795035e-07   4.4308602752755469e+01   1.7653793102516914e-07   5.4254699388996301e+01   2.1935905546501554e-07   5.8282323823653435e+01   2.3795652750064030e-07   5.6876950396428924e+01   2.3438789917369890e-07   5.2420811888897937e+01   2.1618053264281705e-07   4.7896889948697002e+01   1.9468960489100563e-07   4.5137944725148337e+01   1.7895494007581519e-07   4.4456913065281555e+01   1.7229222874809571e-07   4.5405789959359588e+01   1.7251441468975079e-07   4.7286413627032815e+01   1.7801758103709709e-07   4.9394241503615376e+01   1.8632639164176588e-07   5.0702568544504395e+01   1.9462502459761022e-07   4.9870327209773706e+01   1.9740489868290850e-07   4.6723627538883768e+01   1.9165960264278723e-07   4.1241710570033966e+01   1.7903067174947083e-07   3.2517275270633675e+01   1.5723105485125885e-07   2.2440243998737955e+01   1.2226835322234247e-07   1.6396980274698578e+01   8.9651102801159283e-08   1.7951700215517373e+01   8.6523026198187950e-08   3.1865463972993279e+01   1.4263107464104899e-07   6.0172916288369649e+01   3.3994018528043942e-07   5.6157543078938993e+01   6.5162095750223922e-07   1.3928199589168548e+01   4.5000138487748216e-07   1.0920121511697733e+00   8.7342467224904574e-08   1.2056601914373559e-01   2.0713284921597651e-08   1.0668643166957275e+00   5.8061796022192166e-08   4.9813593327785970e+05   1.4006198033979933e-04   3.3621713553888537e+06   3.4795241053285688e+04   2.4639408043336589e+06   1.3093465355650173e+06   2.2561665969917336e+06   1.5757747016513913e+06   1.8517969330884432e+06   2.1453021632947857e+06   1.3818864113256915e+06   1.7375230159945732e+06   8.6908440796255262e+05   9.9137862739084975e+05   1.9388389146769161e+06   0.0000000000000000e+00   0.0000000000000000e+00   0.0000000000000000e+00   0.0000000000000000e+00   0.0000000000000000e+00   0.0000000000000000e+00   0.0000000000000000e+00   0.0000000000000000e+00   0.0000000000000000e+00   0.0000000000000000e+00   0.0000000000000000e+00   0.0000000000000000e+00   0.0000000000000000e+00   0.0000000000000000e+00   0.0000000000000000e+00   0.0000000000000000e+00   0.0000000000000000e+00   0.0000000000000000e+00   0.0000000000000000e+00   0.0000000000000000e+00   0.0000000000000000e+00   0.0000000000000000e+00   0.0000000000000000e+00   0.0000000000000000e+00   0.0000000000000000e+00   0.0000000000000000e+00   0.0000000000000000e+00   0.0000000000000000e+00   0.0000000000000000e+00   0.0000000000000000e+00   0.0000000000000000e+00   0.0000000000000000e+00   0.0000000000000000e+00   0.0000000000000000e+00   0.0000000000000000e+00   0.0000000000000000e+00   0.0000000000000000e+00   0.0000000000000000e+00   0.0000000000000000e+00   0.0000000000000000e+00   0.0000000000000000e+00   0.0000000000000000e+00   0.0000000000000000e+00   0.0000000000000000e+00   0.0000000000000000e+00   0.0000000000000000e+00   0.0000000000000000e+00   0.0000000000000000e+00   0.0000000000000000e+00   0.0000000000000000e+00   0.0000000000000000e+00   0.0000000000000000e+00   0.0000000000000000e+00   0.0000000000000000e+00   0.0000000000000000e+00   0.0000000000000000e+00   0.0000000000000000e+00   0.0000000000000000e+00   0.0000000000000000e+00   0.0000000000000000e+00   0.0000000000000000e+00   0.0000000000000000e+00   0.0000000000000000e+00   0.0000000000000000e+00   0.0000000000000000e+00   0.0000000000000000e+00   0.0000000000000000e+00   1.4075028193793134e-07   0.0000000000000000e+00   1.4750968555055880e+06   1.6181395232638087e-02   1.1329105644768141e+06   1.5410508076651052e+06   1.5892696199055121e+06   2.6710708053795057e+06   2.3127440886488645e+06   2.6998036833197791e+06   1.6233305352832575e+06   1.8564252240272837e+06   1.9981344661619971e+06   1.6565206983998867e+06   1.8413805695348808e-08   0.0000000000000000e+00   0.0000000000000000e+00   0.0000000000000000e+00   0.0000000000000000e+00   0.0000000000000000e+00   0.0000000000000000e+00   0.0000000000000000e+00   0.0000000000000000e+00   0.0000000000000000e+00   0.0000000000000000e+00   0.0000000000000000e+00   0.0000000000000000e+00   0.0000000000000000e+00   0.0000000000000000e+00   0.0000000000000000e+00   0.0000000000000000e+00   0.0000000000000000e+00   0.0000000000000000e+00   0.0000000000000000e+00   0.0000000000000000e+00   0.0000000000000000e+00   0.0000000000000000e+00   0.0000000000000000e+00   0.0000000000000000e+00   0.0000000000000000e+00   0.0000000000000000e+00   0.0000000000000000e+00   0.0000000000000000e+00   0.0000000000000000e+00   0.0000000000000000e+00   0.0000000000000000e+00   0.0000000000000000e+00   0.0000000000000000e+00   0.0000000000000000e+00   0.0000000000000000e+00   0.0000000000000000e+00   0.0000000000000000e+00   0.0000000000000000e+00   0.0000000000000000e+00   0.0000000000000000e+00   0.0000000000000000e+00   0.0000000000000000e+00   0.0000000000000000e+00   0.0000000000000000e+00   0.0000000000000000e+00   0.0000000000000000e+00   0.0000000000000000e+00   0.0000000000000000e+00   0.0000000000000000e+00   0.0000000000000000e+00   0.0000000000000000e+00   0.0000000000000000e+00   0.0000000000000000e+00   0.0000000000000000e+00   0.0000000000000000e+00   0.0000000000000000e+00   0.0000000000000000e+00   0.0000000000000000e+00   0.0000000000000000e+00   0.0000000000000000e+00   0.0000000000000000e+00   0.0000000000000000e+00   0.0000000000000000e+00   0.0000000000000000e+00   0.0000000000000000e+00   0.0000000000000000e+00   0.0000000000000000e+00   2.6967596626944984e-01   7.3062383774169996e-06   2.0906947934022073e+06   9.2413412188706137e+06   1.2578169100461944e+06   3.5147163910960145e+06   2.6426005302822175e+06   2.9301512688429561e+06   4.9593721732210638e+06   3.8628226254263790e+06   2.3769162246659822e-06   1.6841654261614884e-02   0.0000000000000000e+00   0.0000000000000000e+00   0.0000000000000000e+00   0.0000000000000000e+00   0.0000000000000000e+00   0.0000000000000000e+00   0.0000000000000000e+00   0.0000000000000000e+00   0.0000000000000000e+00   0.0000000000000000e+00   0.0000000000000000e+00   0.0000000000000000e+00   0.0000000000000000e+00   0.0000000000000000e+00   0.0000000000000000e+00   0.0000000000000000e+00   0.0000000000000000e+00   0.0000000000000000e+00   0.0000000000000000e+00   0.0000000000000000e+00   0.0000000000000000e+00   0.0000000000000000e+00   0.0000000000000000e+00   0.0000000000000000e+00   0.0000000000000000e+00   0.0000000000000000e+00   0.0000000000000000e+00   0.0000000000000000e+00   0.0000000000000000e+00   0.0000000000000000e+00   0.0000000000000000e+00   0.0000000000000000e+00   0.0000000000000000e+00   0.0000000000000000e+00   0.0000000000000000e+00   0.0000000000000000e+00   0.0000000000000000e+00   0.0000000000000000e+00   0.0000000000000000e+00   0.0000000000000000e+00   0.0000000000000000e+00   0.0000000000000000e+00   0.0000000000000000e+00   0.0000000000000000e+00   0.0000000000000000e+00   0.0000000000000000e+00   0.0000000000000000e+00   0.0000000000000000e+00   0.0000000000000000e+00   0.0000000000000000e+00   0.0000000000000000e+00   0.0000000000000000e+00   0.0000000000000000e+00   0.0000000000000000e+00   0.0000000000000000e+00   0.0000000000000000e+00   0.0000000000000000e+00   0.0000000000000000e+00   0.0000000000000000e+00   0.0000000000000000e+00   0.0000000000000000e+00   0.0000000000000000e+00   0.0000000000000000e+00   0.0000000000000000e+00   0.0000000000000000e+00   0.0000000000000000e+00   0.0000000000000000e+00   0.0000000000000000e+00   7.6336200431112156e+04   1.1471826590236924e+02   2.9570890212522936e+06   3.3963814145504776e+06   2.8101429320825986e+05   2.4769063011569926e+06   1.9828054867509527e+06   1.7204934285877484e+06   4.8974776068041064e+06   3.6688366932258704e+06   5.4128621448011502e-06   1.5120517755997472e+06   0.0000000000000000e+00   0.0000000000000000e+00   0.0000000000000000e+00   0.0000000000000000e+00   0.0000000000000000e+00   0.0000000000000000e+00   0.0000000000000000e+00   0.0000000000000000e+00   0.0000000000000000e+00   0.0000000000000000e+00   0.0000000000000000e+00   0.0000000000000000e+00   0.0000000000000000e+00   0.0000000000000000e+00   0.0000000000000000e+00   0.0000000000000000e+00   0.0000000000000000e+00   0.0000000000000000e+00   0.0000000000000000e+00   0.0000000000000000e+00   0.0000000000000000e+00   0.0000000000000000e+00   0.0000000000000000e+00   0.0000000000000000e+00   0.0000000000000000e+00   0.0000000000000000e+00   0.0000000000000000e+00   0.0000000000000000e+00   0.0000000000000000e+00   0.0000000000000000e+00   0.0000000000000000e+00   0.0000000000000000e+00   0.0000000000000000e+00   0.0000000000000000e+00   0.0000000000000000e+00   0.0000000000000000e+00   0.0000000000000000e+00   0.0000000000000000e+00   0.0000000000000000e+00   0.0000000000000000e+00   0.0000000000000000e+00   0.0000000000000000e+00   0.0000000000000000e+00   0.0000000000000000e+00   0.0000000000000000e+00   0.0000000000000000e+00   0.0000000000000000e+00   0.0000000000000000e+00   0.0000000000000000e+00   0.0000000000000000e+00   0.0000000000000000e+00   0.0000000000000000e+00   0.0000000000000000e+00   0.0000000000000000e+00   0.0000000000000000e+00   0.0000000000000000e+00   0.0000000000000000e+00   0.0000000000000000e+00   0.0000000000000000e+00   0.0000000000000000e+00   0.0000000000000000e+00   0.0000000000000000e+00   0.0000000000000000e+00   0.0000000000000000e+00   0.0000000000000000e+00   0.0000000000000000e+00   9.9151206138462226e-06   1.5768882516320036e-06   2.9355984614756424e+06   4.5508555614534821e+06   2.0839911391862193e+06   3.2796095159883634e+06   6.1070772791275382e+05   1.9408421642005045e+06   1.1147809861286317e+06   1.0263218778846412e+06   2.7209143183510164e+06   2.3317091470395857e+06   1.2186856775529375e+06   4.1590249514888404e+06   0.0000000000000000e+00   3.2760044439398963e-05   0.0000000000000000e+00   0.0000000000000000e+00   0.0000000000000000e+00   0.0000000000000000e+00   0.0000000000000000e+00   0.0000000000000000e+00   0.0000000000000000e+00   0.0000000000000000e+00   0.0000000000000000e+00   0.0000000000000000e+00   0.0000000000000000e+00   0.0000000000000000e+00   0.0000000000000000e+00   0.0000000000000000e+00   0.0000000000000000e+00   0.0000000000000000e+00   0.0000000000000000e+00   0.0000000000000000e+00   0.0000000000000000e+00   0.0000000000000000e+00   0.0000000000000000e+00   0.0000000000000000e+00   0.0000000000000000e+00   0.0000000000000000e+00   0.0000000000000000e+00   0.0000000000000000e+00   0.0000000000000000e+00   0.0000000000000000e+00   0.0000000000000000e+00   0.0000000000000000e+00   0.0000000000000000e+00   0.0000000000000000e+00   0.0000000000000000e+00   0.0000000000000000e+00   0.0000000000000000e+00   0.0000000000000000e+00   0.0000000000000000e+00   0.0000000000000000e+00   0.0000000000000000e+00   0.0000000000000000e+00   0.0000000000000000e+00   0.0000000000000000e+00   0.0000000000000000e+00   0.0000000000000000e+00   0.0000000000000000e+00   0.0000000000000000e+00   0.0000000000000000e+00   0.0000000000000000e+00   0.0000000000000000e+00   0.0000000000000000e+00   0.0000000000000000e+00   0.0000000000000000e+00   1.7723337896662679e-06   1.0574622195922568e-05   1.8636456962396896e+06   1.6359412029679150e+06   2.5244895608532946e+06   2.0380370052185031e+06   1.1926623554883457e+06   1.6542626943137085e+06   8.1915518823994428e+05   1.1557200454418876e+06   7.1315635552600643e+05   4.9867646499622252e+05   1.6317022325281375e+06   1.4016985607335796e+06   3.5953949910694798e+06   3.2898677704034923e+06   3.3378145928504147e-02   5.2123731806795206e+06   0.0000000000000000e+00   5.1596554069800434e-09   0.0000000000000000e+00   0.0000000000000000e+00   0.0000000000000000e+00   0.0000000000000000e+00   0.0000000000000000e+00   0.0000000000000000e+00   0.0000000000000000e+00   0.0000000000000000e+00   0.0000000000000000e+00   0.0000000000000000e+00   0.0000000000000000e+00   0.0000000000000000e+00   0.0000000000000000e+00   0.0000000000000000e+00   0.0000000000000000e+00   0.0000000000000000e+00   0.0000000000000000e+00   0.0000000000000000e+00   0.0000000000000000e+00   0.0000000000000000e+00   0.0000000000000000e+00   0.0000000000000000e+00   0.0000000000000000e+00   0.0000000000000000e+00   0.0000000000000000e+00   0.0000000000000000e+00   0.0000000000000000e+00   0.0000000000000000e+00   0.0000000000000000e+00   0.0000000000000000e+00   0.0000000000000000e+00   0.0000000000000000e+00   0.0000000000000000e+00   0.0000000000000000e+00   0.0000000000000000e+00   0.0000000000000000e+00   0.0000000000000000e+00   0.0000000000000000e+00   0.0000000000000000e+00   0.0000000000000000e+00   0.0000000000000000e+00   0.0000000000000000e+00   0.0000000000000000e+00   0.0000000000000000e+00   0.0000000000000000e+00   0.0000000000000000e+00   0.0000000000000000e+00   0.0000000000000000e+00   2.1094838432569780e-02   3.0393098591913925e-01   1.7296662419764870e+06   9.5676396093009925e+05   1.8324496773815262e+06   1.5866758918700451e+06   1.4857454351216524e+06   1.3431401240376148e+06   6.5648658756465791e+05   9.8707406921768666e+05   1.1335821321190761e+06   9.3171709174681420e+05   1.1594675447155780e+06   7.2099694477073441e+05   8.6183794105188339e+05   4.7573892479945126e+05   2.1146741005952009e+06   2.0461793111349214e+06   4.2385823365075868e+06   4.6831318668513279e+06   3.8545425872582562e-03   4.3045626808568910e+06   0.0000000000000000e+00   8.5446414152955981e-08   0.0000000000000000e+00   0.0000000000000000e+00   0.0000000000000000e+00   0.0000000000000000e+00   0.0000000000000000e+00   0.0000000000000000e+00   0.0000000000000000e+00   0.0000000000000000e+00   0.0000000000000000e+00   0.0000000000000000e+00   0.0000000000000000e+00   0.0000000000000000e+00   0.0000000000000000e+00   0.0000000000000000e+00   0.0000000000000000e+00   0.0000000000000000e+00   0.0000000000000000e+00   0.0000000000000000e+00   0.0000000000000000e+00   0.0000000000000000e+00   0.0000000000000000e+00   0.0000000000000000e+00   0.0000000000000000e+00   0.0000000000000000e+00   0.0000000000000000e+00   0.0000000000000000e+00   0.0000000000000000e+00   0.0000000000000000e+00   0.0000000000000000e+00   0.0000000000000000e+00   0.0000000000000000e+00   0.0000000000000000e+00   0.0000000000000000e+00   0.0000000000000000e+00   0.0000000000000000e+00   0.0000000000000000e+00   0.0000000000000000e+00   0.0000000000000000e+00   0.0000000000000000e+00   0.0000000000000000e+00   0.0000000000000000e+00   0.0000000000000000e+00   0.0000000000000000e+00   0.0000000000000000e+00   0.0000000000000000e+00   0.0000000000000000e+00   2.3117259332943604e+01   1.9987059403644679e+01   1.2075304450076143e+06   7.5492143745561852e+05   1.4934262046045582e+06   1.2429423600254550e+06   1.4154540541188545e+06   1.2713148290899126e+06   9.5972141164170031e+05   1.1158713038818454e+06   2.3482822272624771e+05   6.4220077270416450e+05   1.0996560689204594e+06   9.9550170832338417e+05   1.7634620897721867e+06   1.9287682154759539e+06   1.3091385210922782e+06   1.4146198663887125e+06   9.7463403891684883e+05   1.0451091687838929e+06   2.1096241543977545e+06   2.5304893642873745e+06   3.0944128408351783e+06   3.3561912147069476e+06   2.0948302936751437e-01   3.2096104910613997e+06   0.0000000000000000e+00   6.1362019240403918e-07   0.0000000000000000e+00   0.0000000000000000e+00   0.0000000000000000e+00   0.0000000000000000e+00   0.0000000000000000e+00   0.0000000000000000e+00   0.0000000000000000e+00   0.00000000