<?xml version="1.0"?>
<VTKFile type="UnstructuredGrid"  version="0.1"  >
<UnstructuredGrid>
<Piece  NumberOfPoints="640" NumberOfCells="1175">
<Points>
<DataArray  type="Float64"  NumberOfComponents="3"  format="ascii">2.577391304347826 0 0  2.593913043478261 0 0  2.593913043478261 0.01666666666666667 0  2.577391304347826 0.01666666666666667 0  2.610434782608696 0 0  2.610434782608696 0.01666666666666667 0  2.62695652173913 0 0  2.62695652173913 0.01666666666666667 0  2.643478260869565 0 0  2.643478260869565 0.01666666666666667 0  2.66 0 0  2.66 0.01666666666666667 0  2.676521739130435 0 0  2.676521739130435 0.01666666666666667 0  2.693043478260869 0 0  2.693043478260869 0.01666666666666667 0  2.709565217391304 0 0  2.709565217391304 0.01666666666666667 0  2.726086956521739 0 0  2.726086956521739 0.01666666666666667 0  2.742608695652174 0 0  2.742608695652174 0.01666666666666667 0  2.759130434782609 0 0  2.759130434782609 0.01666666666666667 0  2.775652173913044 0 0  2.775652173913044 0.01666666666666667 0  2.792173913043478 0 0  2.792173913043478 0.01666666666666667 0  2.808695652173913 0 0  2.808695652173913 0.01666666666666667 0  2.825217391304347 0 0  2.825217391304347 0.01666666666666667 0  2.841739130434783 0 0  2.841739130434783 0.01666666666666667 0  2.858260869565217 0 0  2.858260869565217 0.01666666666666667 0  2.874782608695652 0 0  2.874782608695652 0.01666666666666667 0  2.891304347826087 0 0  2.891304347826087 0.01666666666666667 0  2.907826086956522 0 0  2.907826086956522 0.01666666666666667 0  2.924347826086957 0 0  2.924347826086957 0.01666666666666667 0  2.940869565217391 0 0  2.940869565217391 0.01666666666666667 0  2.957391304347826 0 0  2.957391304347826 0.01666666666666667 0  2.973913043478261 0 0  2.973913043478261 0.01666666666666667 0  2.593913043478261 0.03333333333333333 0  2.610434782608696 0.03333333333333333 0  2.62695652173913 0.03333333333333333 0  2.643478260869565 0.03333333333333333 0  2.66 0.03333333333333333 0  2.676521739130435 0.03333333333333333 0  2.693043478260869 0.03333333333333333 0  2.709565217391304 0.03333333333333333 0  2.726086956521739 0.03333333333333333 0  2.742608695652174 0.03333333333333333 0  2.759130434782609 0.03333333333333333 0  2.775652173913044 0.03333333333333333 0  2.792173913043478 0.03333333333333333 0  2.808695652173913 0.03333333333333333 0  2.825217391304347 0.03333333333333333 0  2.841739130434783 0.03333333333333333 0  2.858260869565217 0.03333333333333333 0  2.874782608695652 0.03333333333333333 0  2.891304347826087 0.03333333333333333 0  2.907826086956522 0.03333333333333333 0  2.924347826086957 0.03333333333333333 0  2.940869565217391 0.03333333333333333 0  2.957391304347826 0.03333333333333333 0  2.973913043478261 0.03333333333333333 0  2.610434782608696 0.05 0  2.62695652173913 0.05 0  2.643478260869565 0.05 0  2.66 0.05 0  2.676521739130435 0.05 0  2.693043478260869 0.05 0  2.709565217391304 0.05 0  2.726086956521739 0.05 0  2.742608695652174 0.05 0  2.759130434782609 0.05 0  2.775652173913044 0.05 0  2.792173913043478 0.05 0  2.808695652173913 0.05 0  2.825217391304347 0.05 0  2.841739130434783 0.05 0  2.858260869565217 0.05 0  2.874782608695652 0.05 0  2.891304347826087 0.05 0  2.907826086956522 0.05 0  2.924347826086957 0.05 0  2.940869565217391 0.05 0  2.957391304347826 0.05 0  2.973913043478261 0.05 0  2.990434782608696 0.05 0  2.62695652173913 0.06666666666666667 0  2.643478260869565 0.06666666666666667 0  2.66 0.06666666666666667 0  2.676521739130435 0.06666666666666667 0  2.693043478260869 0.06666666666666667 0  2.709565217391304 0.06666666666666667 0  2.726086956521739 0.06666666666666667 0  2.742608695652174 0.06666666666666667 0  2.759130434782609 0.06666666666666667 0  2.775652173913044 0.06666666666666667 0  2.792173913043478 0.06666666666666667 0  2.808695652173913 0.06666666666666667 0  2.825217391304347 0.06666666666666667 0  2.841739130434783 0.06666666666666667 0  2.858260869565217 0.06666666666666667 0  2.874782608695652 0.06666666666666667 0  2.891304347826087 0.06666666666666667 0  2.907826086956522 0.06666666666666667 0  2.924347826086957 0.06666666666666667 0  2.940869565217391 0.06666666666666667 0  2.957391304347826 0.06666666666666667 0  2.973913043478261 0.06666666666666667 0  2.990434782608696 0.06666666666666667 0  2.643478260869565 0.08333333333333333 0  2.66 0.08333333333333333 0  2.676521739130435 0.08333333333333333 0  2.693043478260869 0.08333333333333333 0  2.709565217391304 0.08333333333333333 0  2.726086956521739 0.08333333333333333 0  2.742608695652174 0.08333333333333333 0  2.759130434782609 0.08333333333333333 0  2.775652173913044 0.08333333333333333 0  2.792173913043478 0.08333333333333333 0  2.808695652173913 0.08333333333333333 0  2.825217391304347 0.08333333333333333 0  2.841739130434783 0.08333333333333333 0  2.858260869565217 0.08333333333333333 0  2.874782608695652 0.08333333333333333 0  2.891304347826087 0.08333333333333333 0  2.907826086956522 0.08333333333333333 0  2.924347826086957 0.08333333333333333 0  2.940869565217391 0.08333333333333333 0  2.957391304347826 0.08333333333333333 0  2.973913043478261 0.08333333333333333 0  2.990434782608696 0.08333333333333333 0  3.006956521739131 0.08333333333333333 0  2.66 0.1 0  2.676521739130435 0.1 0  2.693043478260869 0.1 0  2.709565217391304 0.1 0  2.726086956521739 0.1 0  2.742608695652174 0.1 0  2.759130434782609 0.1 0  2.775652173913044 0.1 0  2.792173913043478 0.1 0  2.808695652173913 0.1 0  2.825217391304347 0.1 0  2.841739130434783 0.1 0  2.858260869565217 0.1 0  2.874782608695652 0.1 0  2.891304347826087 0.1 0  2.907826086956522 0.1 0  2.924347826086957 0.1 0  2.940869565217391 0.1 0  2.957391304347826 0.1 0  2.973913043478261 0.1 0  2.990434782608696 0.1 0  3.006956521739131 0.1 0  2.676521739130435 0.1166666666666667 0  2.693043478260869 0.1166666666666667 0  2.709565217391304 0.1166666666666667 0  2.726086956521739 0.1166666666666667 0  2.742608695652174 0.1166666666666667 0  2.759130434782609 0.1166666666666667 0  2.775652173913044 0.1166666666666667 0  2.792173913043478 0.1166666666666667 0  2.808695652173913 0.1166666666666667 0  2.825217391304347 0.1166666666666667 0  2.841739130434783 0.1166666666666667 0  2.858260869565217 0.1166666666666667 0  2.874782608695652 0.1166666666666667 0  2.891304347826087 0.1166666666666667 0  2.907826086956522 0.1166666666666667 0  2.924347826086957 0.1166666666666667 0  2.940869565217391 0.1166666666666667 0  2.957391304347826 0.1166666666666667 0  2.973913043478261 0.1166666666666667 0  2.990434782608696 0.1166666666666667 0  3.006956521739131 0.1166666666666667 0  3.023478260869565 0.1166666666666667 0  2.693043478260869 0.1333333333333333 0  2.709565217391304 0.1333333333333333 0  2.726086956521739 0.1333333333333333 0  2.742608695652174 0.1333333333333333 0  2.759130434782609 0.1333333333333333 0  2.775652173913044 0.1333333333333333 0  2.792173913043478 0.1333333333333333 0  2.808695652173913 0.1333333333333333 0  2.825217391304347 0.1333333333333333 0  2.841739130434783 0.1333333333333333 0  2.858260869565217 0.1333333333333333 0  2.874782608695652 0.1333333333333333 0  2.891304347826087 0.1333333333333333 0  2.907826086956522 0.1333333333333333 0  2.924347826086957 0.1333333333333333 0  2.940869565217391 0.1333333333333333 0  2.957391304347826 0.1333333333333333 0  2.973913043478261 0.1333333333333333 0  2.990434782608696 0.1333333333333333 0  3.006956521739131 0.1333333333333333 0  3.023478260869565 0.1333333333333333 0  2.726086956521739 0.15 0  2.742608695652174 0.15 0  2.759130434782609 0.15 0  2.775652173913044 0.15 0  2.792173913043478 0.15 0  2.808695652173913 0.15 0  2.825217391304347 0.15 0  2.841739130434783 0.15 0  2.858260869565217 0.15 0  2.874782608695652 0.15 0  2.891304347826087 0.15 0  2.907826086956522 0.15 0  2.924347826086957 0.15 0  2.940869565217391 0.15 0  2.957391304347826 0.15 0  2.973913043478261 0.15 0  2.990434782608696 0.15 0  3.006956521739131 0.15 0  3.023478260869565 0.15 0  3.04 0.15 0  2.742608695652174 0.1666666666666667 0  2.759130434782609 0.1666666666666667 0  2.775652173913044 0.1666666666666667 0  2.792173913043478 0.1666666666666667 0  2.808695652173913 0.1666666666666667 0  2.825217391304347 0.1666666666666667 0  2.841739130434783 0.1666666666666667 0  2.858260869565217 0.1666666666666667 0  2.874782608695652 0.1666666666666667 0  2.891304347826087 0.1666666666666667 0  2.907826086956522 0.1666666666666667 0  2.924347826086957 0.1666666666666667 0  2.940869565217391 0.1666666666666667 0  2.957391304347826 0.1666666666666667 0  2.973913043478261 0.1666666666666667 0  2.990434782608696 0.1666666666666667 0  3.006956521739131 0.1666666666666667 0  3.023478260869565 0.1666666666666667 0  3.04 0.1666666666666667 0  3.056521739130435 0.1666666666666667 0  2.759130434782609 0.1833333333333333 0  2.775652173913044 0.1833333333333333 0  2.792173913043478 0.1833333333333333 0  2.808695652173913 0.1833333333333333 0  2.825217391304347 0.1833333333333333 0  2.841739130434783 0.1833333333333333 0  2.858260869565217 0.1833333333333333 0  2.874782608695652 0.1833333333333333 0  2.891304347826087 0.1833333333333333 0  2.907826086956522 0.1833333333333333 0  2.924347826086957 0.1833333333333333 0  2.940869565217391 0.1833333333333333 0  2.957391304347826 0.1833333333333333 0  2.973913043478261 0.1833333333333333 0  2.990434782608696 0.1833333333333333 0  3.006956521739131 0.1833333333333333 0  3.023478260869565 0.1833333333333333 0  3.04 0.1833333333333333 0  3.056521739130435 0.1833333333333333 0  3.073043478260869 0.1833333333333333 0  2.775652173913044 0.2 0  2.792173913043478 0.2 0  2.808695652173913 0.2 0  2.825217391304347 0.2 0  2.841739130434783 0.2 0  2.858260869565217 0.2 0  2.874782608695652 0.2 0  2.891304347826087 0.2 0  2.907826086956522 0.2 0  2.924347826086957 0.2 0  2.940869565217391 0.2 0  2.957391304347826 0.2 0  2.973913043478261 0.2 0  2.990434782608696 0.2 0  3.006956521739131 0.2 0  3.023478260869565 0.2 0  3.04 0.2 0  3.056521739130435 0.
[...]
<PointData  Vectors="Displacement"> 
<DataArray  type="Float64"  Name="Displacement"  NumberOfComponents="3" format="ascii">2.6274962579792477e-04 2.3743364299824415e-03 0.0000000000000000e+00  2.6403554561246566e-04 2.3913631745067672e-03 0.0000000000000000e+00  2.4638525319006663e-04 2.3910366516567338e-03 0.0000000000000000e+00  2.4565771030569706e-04 2.3740453635548889e-03 0.0000000000000000e+00  2.6545031623278874e-04 2.4090156201971155e-03 0.0000000000000000e+00  2.4711534805765400e-04 2.4086520356728304e-03 0.0000000000000000e+00  2.6692420541387811e-04 2.4275274117982210e-03 0.0000000000000000e+00  2.4780304468836867e-04 2.4271682647493296e-03 0.0000000000000000e+00  2.6841945835126438e-04 2.4468880705816164e-03 0.0000000000000000e+00  2.4846426180449735e-04 2.4465153206823767e-03 0.0000000000000000e+00  2.6989396901943202e-04 2.4671448005679844e-03 0.0000000000000000e+00  2.4912099526516962e-04 2.4667762912057305e-03 0.0000000000000000e+00  2.7131145431791488e-04 2.4882186586422674e-03 0.0000000000000000e+00  2.4978676940253327e-04 2.4878631505669698e-03 0.0000000000000000e+00  2.7266623704221167e-04 2.5099929477429383e-03 0.0000000000000000e+00  2.5046979615080762e-04 2.5096453456833305e-03 0.0000000000000000e+00  2.7396271900893555e-04 2.5323914934986765e-03 0.0000000000000000e+00  2.5116970834325225e-04 2.5320487177448009e-03 0.0000000000000000e+00  2.7520336500384677e-04 2.5553500379334178e-03 0.0000000000000000e+00  2.5188868936874381e-04 2.5550075984669056e-03 0.0000000000000000e+00  2.7638175805197918e-04 2.5787995718319018e-03 0.0000000000000000e+00  2.5263808435607677e-04 2.5784587746684501e-03 0.0000000000000000e+00  2.7748516676284773e-04 2.6026337346066754e-03 0.0000000000000000e+00  2.5342975155810693e-04 2.6023012568081893e-03 0.0000000000000000e+00  2.7851133458765289e-04 2.6267116724679462e-03 0.0000000000000000e+00  2.5426649397994674e-04 2.6263857269567363e-03 0.0000000000000000e+00  2.7946218460704527e-04 2.6509146251209735e-03 0.0000000000000000e+00  2.5514450068051192e-04 2.6505957034039926e-03 0.0000000000000000e+00  2.8033807337810317e-04 2.6751301931648283e-03 0.0000000000000000e+00  2.5605829913728301e-04 2.6748211746949573e-03 0.0000000000000000e+00  2.8113984660129614e-04 2.6992444171690761e-03 0.0000000000000000e+00  2.5700034651068279e-04 2.6989508543585621e-03 0.0000000000000000e+00  2.8187856368082099e-04 2.7231420666148287e-03 0.0000000000000000e+00  2.5795988657258774e-04 2.7228672374826324e-03 0.0000000000000000e+00  2.8258326493280924e-04 2.7467573579309148e-03 0.0000000000000000e+00  2.5891115968617050e-04 2.7464880031243906e-03 0.0000000000000000e+00  2.8326677713384031e-04 2.7701351043833895e-03 0.0000000000000000e+00  2.5982954454877206e-04 2.7698674067783606e-03 0.0000000000000000e+00  2.8392086062928724e-04 2.7933049477135421e-03 0.0000000000000000e+00  2.6072361527589412e-04 2.7930412241714882e-03 0.0000000000000000e+00  2.8453326819008245e-04 2.8162403721303316e-03 0.0000000000000000e+00  2.6161292169043002e-04 2.8159823358604474e-03 0.0000000000000000e+00  2.8509482111111476e-04 2.8388839873289750e-03 0.0000000000000000e+00  2.6250949956046788e-04 2.8386340994574532e-03 0.0000000000000000e+00  2.8560198188598064e-04 2.8611603860952627e-03 0.0000000000000000e+00  2.6341793996410525e-04 2.8609213944397437e-03 0.0000000000000000e+00  2.8605759695118487e-04 2.8829925702342019e-03 0.0000000000000000e+00  2.6433404852540464e-04 2.8827681417698567e-03 0.0000000000000000e+00  2.8647120845205407e-04 2.9043158719393863e-03 0.0000000000000000e+00  2.6524402103921359e-04 2.9041117418540049e-03 0.0000000000000000e+00  2.2883019902805629e-04 2.3909081276660389e-03 0.0000000000000000e+00  2.2889405961539673e-04 2.4084561056893624e-03 0.0000000000000000e+00  2.2885101247821114e-04 2.4270244899580718e-03 0.0000000000000000e+00  2.2880524905974795e-04 2.4462852218270293e-03 0.0000000000000000e+00  2.2861961505453134e-04 2.4665780264138027e-03 0.0000000000000000e+00  2.2843691500842972e-04 2.4876907469494835e-03 0.0000000000000000e+00  2.2841945227832704e-04 2.5094629959270020e-03 0.0000000000000000e+00  2.2850322398851018e-04 2.5318511813615624e-03 0.0000000000000000e+00  2.2867160052808576e-04 2.5547880200239279e-03 0.0000000000000000e+00  2.2892261131177098e-04 2.5782008856412024e-03 0.0000000000000000e+00  2.2934020064001109e-04 2.6020320799745502e-03 0.0000000000000000e+00  2.2996934873707227e-04 2.6261064364561651e-03 0.0000000000000000e+00  2.3073566326635653e-04 2.6503017327291390e-03 0.0000000000000000e+00  2.3164455219369887e-04 2.6745136730228504e-03 0.0000000000000000e+00  2.3270803405327895e-04 2.6986312160111685e-03 0.0000000000000000e+00  2.3395978337739513e-04 2.7225375761756186e-03 0.0000000000000000e+00  2.3532831293686341e-04 2.7461659200640463e-03 0.0000000000000000e+00  2.3647827882440994e-04 2.7695540302365446e-03 0.0000000000000000e+00  2.3751868703257795e-04 2.7927208714192331e-03 0.0000000000000000e+00  2.3862256197351535e-04 2.8156561813991021e-03 0.0000000000000000e+00  2.3981098991478756e-04 2.8382985633896261e-03 0.0000000000000000e+00  2.4111117154495832e-04 2.8605764627372132e-03 0.0000000000000000e+00  2.4251772982587485e-04 2.8824154801139518e-03 0.0000000000000000e+00  2.4400645465300237e-04 2.9037580178250953e-03 0.0000000000000000e+00  2.1164618316665804e-04 2.4082840565562793e-03 0.0000000000000000e+00  2.1079246087328071e-04 2.4269119278555991e-03 0.0000000000000000e+00  2.1122176879119858e-04 2.4475387897515783e-03 0.0000000000000000e+00  2.1103532843942365e-04 2.4680909308820616e-03 0.0000000000000000e+00  2.1074194492645386e-04 2.4891870878764738e-03 0.0000000000000000e+00  2.1049178661453475e-04 2.5108423973715906e-03 0.0000000000000000e+00  2.1033091767061295e-04 2.5330585408439221e-03 0.0000000000000000e+00  2.1028043437992331e-04 2.5557776062035509e-03 0.0000000000000000e+00  2.1036053923673026e-04 2.5789274786569855e-03 0.0000000000000000e+00  2.1060002261760998e-04 2.6024235953199561e-03 0.0000000000000000e+00  2.1102374974410251e-04 2.6261502234814112e-03 0.0000000000000000e+00  2.1162492708144990e-04 2.6500125011704361e-03 0.0000000000000000e+00  2.1239259861387513e-04 2.6739015575537066e-03 0.0000000000000000e+00  2.1331657987105416e-04 2.6977194666648568e-03 0.0000000000000000e+00  2.1437438818271666e-04 2.7213787824514296e-03 0.0000000000000000e+00  2.1551491781724453e-04 2.7448456669223031e-03 0.0000000000000000e+00  2.1666933473840351e-04 2.7681421960243165e-03 0.0000000000000000e+00  2.1782576902784493e-04 2.7911993029049245e-03 0.0000000000000000e+00  2.1902083063476261e-04 2.8139844442895278e-03 0.0000000000000000e+00  2.2028390733494041e-04 2.8364740643663086e-03 0.0000000000000000e+00  2.2162172841980960e-04 2.8586181728745639e-03 0.0000000000000000e+00  2.2302014087266731e-04 2.8803724873756073e-03 0.0000000000000000e+00  2.2443937029382511e-04 2.9017108769673595e-03 0.0000000000000000e+00  2.2581158065348045e-04 2.9226479487623283e-03 0.0000000000000000e+00  1.9469567198770552e-04 2.4285147936656142e-03 0.0000000000000000e+00  1.9399154830093183e-04 2.4487699025186977e-03 0.0000000000000000e+00  1.9350260582586624e-04 2.4694860348013661e-03 0.0000000000000000e+00  1.9300832110706687e-04 2.4905958102197641e-03 0.0000000000000000e+00  1.9256177098880421e-04 2.5121751480156511e-03 0.0000000000000000e+00  1.9220267339892656e-04 2.5342396829512574e-03 0.0000000000000000e+00  1.9196384634463185e-04 2.5567518838693249e-03 0.0000000000000000e+00  1.9187059765334922e-04 2.5796488527049305e-03 0.0000000000000000e+00  1.9194463900109302e-04 2.6028523830527953e-03 0.0000000000000000e+00  1.9220106752760151e-04 2.6262704226139508e-03 0.0000000000000000e+00  1.9264198503807610e-04 2.6498192982476335e-03 0.0000000000000000e+00  1.9326128050339321e-04 2.6734086109953116e-03 0.0000000000000000e+00  1.9404350396731585e-04 2.6969546902468212e-03 0.0000000000000000e+00  1.9496382010756902e-04 2.7203893907128624e-03 0.0000000000000000e+00  1.9598882020979802e-04 2.7436777413524494e-03 0.0000000000000000e+00  1.9709023455950677e-04 2.7668066566047434e-03 0.0000000000000000e+00  1.9825809345382645e-04 2.7897196656743823e-03 0.0000000000000000e+00  1.9948853040535169e-04 2.8123722630716288e-03 0.0000000000000000e+00  2.0078321755727418e-04 2.8347363558559316e-03 0.0000000000000000e+00  2.0213879855003478e-04 2.8567800992326991e-03 0.0000000000000000e+00  2.0353733268316110e-04 2.8784778712245898e-03 0.0000000000000000e+00  2.0494507101195421e-04 2.8998230446781468e-03 0.0000000000000000e+00  2.0631970157868290e-04 2.9208342210875668e-03 0.0000000000000000e+00  1.7658982571651003e-04 2.4503013796163629e-03 0.0000000000000000e+00  1.7587025446253897e-04 2.4709077155954263e-03 0.0000000000000000e+00  1.7519915463303239e-04 2.4919692126851413e-03 0.0000000000000000e+00  1.7458156436036743e-04 2.5134655588394976e-03 0.0000000000000000e+00  1.7405195574207838e-04 2.5353908718548051e-03 0.0000000000000000e+00  1.7364567049866047e-04 2.5577122379345577e-03 0.0000000000000000e+00  1.7339121548293923e-04 2.5803759867756952e-03 0.0000000000000000e+00  1.7330986179875694e-04 2.6033143331058227e-03 0.0000000000000000e+00  1.7341484545716591e-04 2.6264510336056392e-03 0.0000000000000000e+00  1.7370997556052996e-04 2.6497123617574342e-03 0.0000000000000000e+00  1.7419124047298815e-04 2.6730230262912266e-03 0.0000000000000000e+00  1.7484569562522845e-04 2.6963133398770038e-03 0.0000000000000000e+00  1.7565299185108395e-04 2.7195257366957079e-03 0.0000000000000000e+00  1.7658935752329607e-04 2.7426214860087035e-03 0.0000000000000000e+00  1.7763541475974295e-04 2.7655706242550445e-03 0.0000000000000000e+00  1.7877904687614162e-04 2.7883255350410045e-03 0.0000000000000000e+00  1.8000780386502165e-04 2.8108438557494174e-03 0.0000000000000000e+00  1.8131057858044932e-04 2.8330940541809579e-03 0.0000000000000000e+00  1.8267569564302767e-04 2.8550505630384241e-03 0.0000000000000000e+00  1.8408451029091927e-04 2.8766985822730167e-03 0.0000000000000000e+00  1.8550666017533724e-04 2.8980424250736889e-03 0.0000000000000000e+00  1.8691260165935863e-04 2.9190914442599213e-03 0.0000000000000000e+00  1.8828391202099394e-04 2.9398738784433480e-03 0.0000000000000000e+00  1.5827253305175437e-04 2.4723305861691783e-03 0.0000000000000000e+00  1.5736590879606279e-04 2.4933202351476317e-03 0.0000000000000000e+00  1.5654989487192249e-04 2.5147265664079120e-03 0.0000000000000000e+00  1.5584300495245754e-04 2.5365193424069458e-03 0.0000000000000000e+00  1.5527243129020499e-04 2.5586639403467589e-03 0.0000000000000000e+00  1.5486324520472316e-04 2.5811128811770796e-03 0.0000000000000000e+00  1.5463490973005470e-04 2.6038078030282091e-03 0.0000000000000000e+00  1.5459971755346771e-04 2.6266844835409926e-03 0.0000000000000000e+00  1.5476209412379022e-04 2.6496791352773352e-03 0.0000000000000000e+00  1.5511924653003589e-04 2.6727284850375133e-03 0.0000000000000000e+00  1.5566098216781118e-04 2.6957739563603631e-03 0.0000000000000000e+00  1.5637123737608245e-04 2.7187653356111666e-03 0.0000000000000000e+00  1.5723134360430861e-04 2.7416627670434125e-03 0.0000000000000000e+00  1.5822425272059008e-04 2.7644303160419261e-03 0.0000000000000000e+00  1.5933525759709473e-04 2.7870253678254128e-03 0.0000000000000000e+00  1.6054856188769414e-04 2.8094083129200959e-03 0.0000000000000000e+00  1.6184866134884819e-04 2.8315467677457610e-03 0.0000000000000000e+00  1.6322090895970123e-04 2.8534173220489661e-03 0.0000000000000000e+00  1.6464663173320219e-04 2.8750116957821786e-03 0.0000000000000000e+00  1.6609216725650285e-04 2.8963499082880809e-03 0.0000000000000000e+00  1.6752067634608872e-04 2.9174255445958480e-03 0.0000000000000000e+00  1.6890242224215055e-04 2.9382600476277865e-03 0.0000000000000000e+00  1.3942838828146992e-04 2.4946758321030922e-03 0.0000000000000000e+00  1.3841076272254143e-04 2.5159832538845981e-03 0.0000000000000000e+00  1.3752241053899378e-04 2.5376423025678528e-03 0.0000000000000000e+00  1.3678797009342947e-04 2.5596173724935691e-03 0.0000000000000000e+00  1.3622859452389502e-04 2.5818645314317407e-03 0.0000000000000000e+00  1.3586099305900345e-04 2.6043321264081036e-03 0.0000000000000000e+00  1.3569606557939064e-04 2.6269650955083332e-03 0.0000000000000000e+00  1.3573810984312182e-04 2.6497087774062025e-03 0.0000000000000000e+00  1.3598498871830852e-04 2.6725098813741213e-03 0.0000000000000000e+00  1.3642838095318148e-04 2.6953188468269752e-03 0.0000000000000000e+00  1.3705508088766020e-04 2.7180916249939504e-03 0.0000000000000000e+00  1.3784925657489314e-04 2.7407898001816167e-03 0.0000000000000000e+00  1.3879477356924444e-04 2.7633767995129278e-03 0.0000000000000000e+00  1.3987548744688773e-04 2.7858134441114475e-03 0.0000000000000000e+00  1.4107390881163288e-04 2.8080618429800024e-03 0.0000000000000000e+00  1.4237239136505745e-04 2.8300877374590238e-03 0.0000000000000000e+00  1.4375647279520122e-04 2.8518654799803925e-03 0.0000000000000000e+00  1.4521308297536786e-04 2.8733932074372303e-03 0.0000000000000000e+00  1.4669814160984336e-04 2.8947206311109282e-03 0.0000000000000000e+00  1.4818159568627187e-04 2.9158331123729253e-03 0.0000000000000000e+00  1.4956681802779165e-04 2.9367300941535303e-03 0.0000000000000000e+00  1.5072525256247394e-04 2.9577407722814167e-03 0.0000000000000000e+00  1.2011523823521713e-04 2.5172519374078040e-03 0.0000000000000000e+00  1.1903535472484135e-04 2.5387738910680980e-03 0.0000000000000000e+00  1.1813546200068695e-04 2.5605819900208285e-03 0.0000000000000000e+00  1.1743006601066715e-04 2.5826353856930884e-03 0.0000000000000000e+00  1.1693135820821812e-04 2.6048866132592622e-03 0.0000000000000000e+00  1.1664768926160634e-04 2.6272875412617098e-03 0.0000000000000000e+00  1.1658222329022843e-04 2.6497915474499806e-03 0.0000000000000000e+00  1.1673267938386807e-04 2.6723539118363709e-03 0.0000000000000000e+00  1.1709161979564484e-04 2.6949328259681122e-03 0.0000000000000000e+00  1.1764746366583574e-04 2.7174900032277830e-03 0.0000000000000000e+00  1.1838609458068287e-04 2.7399900218400032e-03 0.0000000000000000e+00  1.1929233464111149e-04 2.7623980971929322e-03 0.0000000000000000e+00  1.2035020610448469e-04 2.7846779867048413e-03 0.0000000000000000e+00  1.2154226918938584e-04 2.8067931097614201e-03 0.0000000000000000e+00  1.2285001683736606e-04 2.8287068905275643e-03 0.0000000000000000e+00  1.2425483284222481e-04 2.8503835421883786e-03 0.0000000000000000e+00  1.2574530341881855e-04 2.8718211939857221e-03 0.0000000000000000e+00  1.2726449604637163e-04 2.8931631424308664e-03 0.0000000000000000e+00  1.2871285735041198e-04 2.9143308512941169e-03 0.0000000000000000e+00  1.2999332581810556e-04 2.9356185100447630e-03 0.0000000000000000e+00  1.2978541547117623e-04 2.9574923535560416e-03 0.0000000000000000e+00  9.9249445160020402e-05 2.5615642363263475e-03 0.0000000000000000e+00  9.8407634640596201e-05 2.5834277378996577e-03 0.0000000000000000e+00  9.7789786238662224e-05 2.6054692820443376e-03 0.0000000000000000e+00  9.7401053918471424e-05 2.6276458447987965e-03 0.0000000000000000e+00  9.7242660017576185e-05 2.6499178987011238e-03 0.0000000000000000e+00  9.7311382051866100e-05 2.6722483012772040e-03 0.0000000000000000e+00  9.7599786231235484e-05 2.6946022123795067e-03 0.0000000000000000e+00  9.8096984962511567e-05 2.7169469352216584e-03 0.0000000000000000e+00  9.8789995298590024e-05 2.7392506810413647e-03 0.0000000000000000e+00  9.9665040813740749e-05 2.7614811756407091e-03 0.0000000000000000e+00  1.0070828063810421e-04 2.7836046543355851e-03 0.0000000000000000e+00  1.0190543012232870e-04 2.8055859076700912e-03 0.0000000000000000e+00  1.0324072479322341e-04 2.8273870575519894e-03 0.0000000000000000e+00  1.0469537849237606e-04 2.8489681367296323e-03 0.0000000000000000e+00  1.0620966633539184e-04 2.8703047545137663e-03 0.0000000000000000e+00  1.0762658090928200e-04 2.8917174120042812e-03 0.0000000000000000e+00  1.0888470547491093e-04 2.9132895071093921e-03 0.0000000000000000e+00  1.0870419483079765e-04 2.9353902737284882e-03 0.0000000000000000e+00  1.0855833838437664e-04 2.9572953156495507e-03 0.0000000000000000e+00  1.0845217708951033e-04 2.9789625438819121e-03 0.0000000000000000e+00  7.9100823097150318e-05 2.5842390382814439e-03 0.0000000000000000e+00  7.8381943013614184e-05 2.6060750246417732e-03 0.0000000000000000e+00  7.7906332736500105e-05 2.6280320958971593e-03 0.0000000000000000e+00  7.7672627221237741e-05 2.6500774688502709e-03 0.0000000000000000e+00  7.7675936412302399e-05 2.6721809597798460e-03 0.0000000000000000e+00  7.7908087506017813e-05 2.6943142211985106e-03 0.0000000000000000e+00  7.8358088002823369e-05 2.7164501020472539e-03 0.0000000000000000e+00  7.9013547771795802e-05 2.7385604135471884e-03 0.0000000000000000e+00  7.9862357728950156e-05 2.7606150285204257e-03 0.0000000000000000e+00  8.0894181239701105e-05 2.7825809745457707e-03 0.0000000000000000e+00  8.2102481523195999e-05 2.8044236521483786e-03 0.0000000000000000e+00  8.3481736946994364e-05 2.8261054561806291e-03 0.0000000000000000e+00  8.5018531531332896e-05 2.8475865526667019e-03 0.0000000000000000e+00  8.6630607675528185e-05 2.8689550656545524e-03 0.0000000000000000e+00  8.7449276835425618e-05 2.8908075456087301e-03 0.0000000000000000e+00  8.7297091490080067e-05 2.9130756077380602e-03 0.0000000000000000e+00  8.7169087812806375e-05 2.9352030538073478e-03 0.0000000000000000e+00  8.7071649930273859e-05 2.9571388660690409e-03 0.0000000000000000e+00  8.7019711017983288e-05 2.9788515086590947e-03 0.0000000000000000e+00  8.7017397690010870e-05 3.0003202825745453e-03 0.0000000000000000e+00  5.8657276621270158e-05 2.6066942970318827e-03 0.0000000000000000e+00  5.8119295313588372e-05 2.6284352992724919e-03 0.0000000000000000e+00  5.7832180784837876e-05 2.6502582018520433e-03 0.0000000000000000e+00  5.7788638777585456e-05 2.6721393724076191e-03 0.0000000000000000e+00  5.7979162794178523e-05 2.6940568010361062e-03 0.0000000000000000e+00  5.8391610691916162e-05 2.7159893294425863e-03 0.0000000000000000e+00  5.9012746500718693e-05 2.7379124375816926e-03 0.0000000000000000e+00  5.9829628016872860e-05 2.7597979566781859e-03 0.0000000000000000e+00  6.0831494975267873e-05 2.7816142982654791e-03 0.0000000000000000e+00  6.2006547906024318e-05 2.8033273736238189e-03 0.0000000000000000e+00  6.3341455852190104e-05 2.8249217135568393e-03 0.0000000000000000e+00  6.4746527351355380e-05 2.8464250173405605e-03 0.0000000000000000e+00  6.5734841677621294e-05 2.8682595341480138e-03 0.0000000000000000e+00  6.5610759502897115e-05 2.8906182953324054e-03 0.0000000000000000e+00  6.5501690855475714e-05 2.9128988323035582e-03 0.0000000000000000e+00  6.5413998211853066e-05 2.9350487921151565e-03 0.0000000000000000e+00  6.5359884985769369e-05 2.9570292706066195e-03 0.0000000000000000e+00  6.5346658200228188e-05 2.9787979003978939e-03 0.0000000000000000e+00  6.5365252890904908e-05 3.0003111528513668e-03 0.0000000000000000e+00  6.5448055391375976e-05 3.0215567704671136e-03 0.0000000000000000e+00  3.8004281870186199e-05 2.6288400575715330e-03 0.0000000000000000e+00  3.7691662617932063e-05 2.6504454929064496e-03 0.0000000000000000e+00  3.7622756619272416e-05 2.6721098580014739e-03 0.0000000000000000e+00  3.7787286763388984e-05 2.6938177124234920e-03 0.0000000000000000e+00  3.8171361910300805e-05 2.7155554033084688e-03 0.0000000000000000e+00  3.8759585503004993e-05 2.7373021817502403e-03 0.0000000000000000e+00  3.9536537311438082e-05 2.7590330774364597e-03 0.0000000000000000e+00  4.0485036465879290e-05 2.7807173250307890e-03 0.0000000000000000e+00  4.1587190948443547e-05 2.8023379955448204e-03 0.0000000000000000e+00  4.2757314387247901e-05 2.8238999750766890e-03 0.0000000000000000e+00  4.3816264842442853e-05 2.8457211827090465e-03 0.0000000000000000e+00  4.3717427339144101e-05 2.8680991735754251e-03 0.0000000000000000e+00  4.3623134751292433e-05 2.8904574119360750e-03 0.0000000000000000e+00  4.3541050041351754e-05 2.9127472402906574e-03 0.0000000000000000e+00  4.3480524428269945e-05 2.9349327428262032e-03 0.0000000000000000e+