<?xml version="1.0"?>
<VTKFile type="UnstructuredGrid"  version="0.1"  >
<UnstructuredGrid>
<Piece  NumberOfPoints="629" NumberOfCells="1162">
<Points>
<DataArray  type="Float64"  NumberOfComponents="3"  format="ascii">0.7104347826086956 0 0  0.7269565217391304 0 0  0.7269565217391304 0.01666666666666667 0  0.7104347826086956 0.01666666666666667 0  0.7434782608695653 0 0  0.7434782608695653 0.01666666666666667 0  0.7599999999999999 0 0  0.7599999999999999 0.01666666666666667 0  0.7765217391304348 0 0  0.7765217391304348 0.01666666666666667 0  0.7930434782608695 0 0  0.7930434782608695 0.01666666666666667 0  0.8095652173913043 0 0  0.8095652173913043 0.01666666666666667 0  0.8260869565217391 0 0  0.8260869565217391 0.01666666666666667 0  0.8426086956521739 0 0  0.8426086956521739 0.01666666666666667 0  0.8591304347826086 0 0  0.8591304347826086 0.01666666666666667 0  0.8756521739130434 0 0  0.8756521739130434 0.01666666666666667 0  0.8921739130434783 0 0  0.8921739130434783 0.01666666666666667 0  0.908695652173913 0 0  0.908695652173913 0.01666666666666667 0  0.9252173913043478 0 0  0.9252173913043478 0.01666666666666667 0  0.9417391304347826 0 0  0.9417391304347826 0.01666666666666667 0  0.9582608695652173 0 0  0.9582608695652173 0.01666666666666667 0  0.9747826086956521 0 0  0.9747826086956521 0.01666666666666667 0  0.991304347826087 0 0  0.991304347826087 0.01666666666666667 0  1.007826086956522 0 0  1.007826086956522 0.01666666666666667 0  1.024347826086957 0 0  1.024347826086957 0.01666666666666667 0  0.7269565217391304 0.03333333333333333 0  0.7104347826086956 0.03333333333333333 0  0.7434782608695653 0.03333333333333333 0  0.7599999999999999 0.03333333333333333 0  0.7765217391304348 0.03333333333333333 0  0.7930434782608695 0.03333333333333333 0  0.8095652173913043 0.03333333333333333 0  0.8260869565217391 0.03333333333333333 0  0.8426086956521739 0.03333333333333333 0  0.8591304347826086 0.03333333333333333 0  0.8756521739130434 0.03333333333333333 0  0.8921739130434783 0.03333333333333333 0  0.908695652173913 0.03333333333333333 0  0.9252173913043478 0.03333333333333333 0  0.9417391304347826 0.03333333333333333 0  0.9582608695652173 0.03333333333333333 0  0.9747826086956521 0.03333333333333333 0  0.991304347826087 0.03333333333333333 0  1.007826086956522 0.03333333333333333 0  1.024347826086957 0.03333333333333333 0  1.040869565217391 0.03333333333333333 0  0.7269565217391304 0.05 0  0.7434782608695653 0.05 0  0.7599999999999999 0.05 0  0.7765217391304348 0.05 0  0.7930434782608695 0.05 0  0.8095652173913043 0.05 0  0.8260869565217391 0.05 0  0.8426086956521739 0.05 0  0.8591304347826086 0.05 0  0.8756521739130434 0.05 0  0.8921739130434783 0.05 0  0.908695652173913 0.05 0  0.9252173913043478 0.05 0  0.9417391304347826 0.05 0  0.9582608695652173 0.05 0  0.9747826086956521 0.05 0  0.991304347826087 0.05 0  1.007826086956522 0.05 0  1.024347826086957 0.05 0  1.040869565217391 0.05 0  1.057391304347826 0.05 0  0.7434782608695653 0.06666666666666667 0  0.7599999999999999 0.06666666666666667 0  0.7765217391304348 0.06666666666666667 0  0.7930434782608695 0.06666666666666667 0  0.8095652173913043 0.06666666666666667 0  0.8260869565217391 0.06666666666666667 0  0.8426086956521739 0.06666666666666667 0  0.8591304347826086 0.06666666666666667 0  0.8756521739130434 0.06666666666666667 0  0.8921739130434783 0.06666666666666667 0  0.908695652173913 0.06666666666666667 0  0.9252173913043478 0.06666666666666667 0  0.9417391304347826 0.06666666666666667 0  0.9582608695652173 0.06666666666666667 0  0.9747826086956521 0.06666666666666667 0  0.991304347826087 0.06666666666666667 0  1.007826086956522 0.06666666666666667 0  1.024347826086957 0.06666666666666667 0  1.040869565217391 0.06666666666666667 0  1.057391304347826 0.06666666666666667 0  1.073913043478261 0.06666666666666667 0  0.7599999999999999 0.08333333333333333 0  0.7765217391304348 0.08333333333333333 0  0.7930434782608695 0.08333333333333333 0  0.8095652173913043 0.08333333333333333 0  0.8260869565217391 0.08333333333333333 0  0.8426086956521739 0.08333333333333333 0  0.8591304347826086 0.08333333333333333 0  0.8756521739130434 0.08333333333333333 0  0.8921739130434783 0.08333333333333333 0  0.908695652173913 0.08333333333333333 0  0.9252173913043478 0.08333333333333333 0  0.9417391304347826 0.08333333333333333 0  0.9582608695652173 0.08333333333333333 0  0.9747826086956521 0.08333333333333333 0  0.991304347826087 0.08333333333333333 0  1.007826086956522 0.08333333333333333 0  1.024347826086957 0.08333333333333333 0  1.040869565217391 0.08333333333333333 0  1.057391304347826 0.08333333333333333 0  1.073913043478261 0.08333333333333333 0  1.090434782608696 0.08333333333333333 0  0.7765217391304348 0.1 0  0.7930434782608695 0.1 0  0.8095652173913043 0.1 0  0.8260869565217391 0.1 0  0.8426086956521739 0.1 0  0.8591304347826086 0.1 0  0.8756521739130434 0.1 0  0.8921739130434783 0.1 0  0.908695652173913 0.1 0  0.9252173913043478 0.1 0  0.9417391304347826 0.1 0  0.9582608695652173 0.1 0  0.9747826086956521 0.1 0  0.991304347826087 0.1 0  1.007826086956522 0.1 0  1.024347826086957 0.1 0  1.040869565217391 0.1 0  1.057391304347826 0.1 0  1.073913043478261 0.1 0  1.090434782608696 0.1 0  1.10695652173913 0.1 0  0.7930434782608695 0.1166666666666667 0  0.8095652173913043 0.1166666666666667 0  0.8260869565217391 0.1166666666666667 0  0.8426086956521739 0.1166666666666667 0  0.8591304347826086 0.1166666666666667 0  0.8756521739130434 0.1166666666666667 0  0.8921739130434783 0.1166666666666667 0  0.908695652173913 0.1166666666666667 0  0.9252173913043478 0.1166666666666667 0  0.9417391304347826 0.1166666666666667 0  0.9582608695652173 0.1166666666666667 0  0.9747826086956521 0.1166666666666667 0  0.991304347826087 0.1166666666666667 0  1.007826086956522 0.1166666666666667 0  1.024347826086957 0.1166666666666667 0  1.040869565217391 0.1166666666666667 0  1.057391304347826 0.1166666666666667 0  1.073913043478261 0.1166666666666667 0  1.090434782608696 0.1166666666666667 0  1.10695652173913 0.1166666666666667 0  1.123478260869565 0.1166666666666667 0  0.8095652173913043 0.1333333333333333 0  0.8260869565217391 0.1333333333333333 0  0.8426086956521739 0.1333333333333333 0  0.8591304347826086 0.1333333333333333 0  0.8756521739130434 0.1333333333333333 0  0.8921739130434783 0.1333333333333333 0  0.908695652173913 0.1333333333333333 0  0.9252173913043478 0.1333333333333333 0  0.9417391304347826 0.1333333333333333 0  0.9582608695652173 0.1333333333333333 0  0.9747826086956521 0.1333333333333333 0  0.991304347826087 0.1333333333333333 0  1.007826086956522 0.1333333333333333 0  1.024347826086957 0.1333333333333333 0  1.040869565217391 0.1333333333333333 0  1.057391304347826 0.1333333333333333 0  1.073913043478261 0.1333333333333333 0  1.090434782608696 0.1333333333333333 0  1.10695652173913 0.1333333333333333 0  1.123478260869565 0.1333333333333333 0  1.14 0.1333333333333333 0  0.8260869565217391 0.15 0  0.8426086956521739 0.15 0  0.8591304347826086 0.15 0  0.8756521739130434 0.15 0  0.8921739130434783 0.15 0  0.908695652173913 0.15 0  0.9252173913043478 0.15 0  0.9417391304347826 0.15 0  0.9582608695652173 0.15 0  0.9747826086956521 0.15 0  0.991304347826087 0.15 0  1.007826086956522 0.15 0  1.024347826086957 0.15 0  1.040869565217391 0.15 0  1.057391304347826 0.15 0  1.073913043478261 0.15 0  1.090434782608696 0.15 0  1.10695652173913 0.15 0  1.123478260869565 0.15 0  1.14 0.15 0  1.156521739130435 0.15 0  0.8426086956521739 0.1666666666666667 0  0.8591304347826086 0.1666666666666667 0  0.8756521739130434 0.1666666666666667 0  0.8921739130434783 0.1666666666666667 0  0.908695652173913 0.1666666666666667 0  0.9252173913043478 0.1666666666666667 0  0.9417391304347826 0.1666666666666667 0  0.9582608695652173 0.1666666666666667 0  0.9747826086956521 0.1666666666666667 0  0.991304347826087 0.1666666666666667 0  1.007826086956522 0.1666666666666667 0  1.024347826086957 0.1666666666666667 0  1.040869565217391 0.1666666666666667 0  1.057391304347826 0.1666666666666667 0  1.073913043478261 0.1666666666666667 0  1.090434782608696 0.1666666666666667 0  1.10695652173913 0.1666666666666667 0  1.123478260869565 0.1666666666666667 0  1.14 0.1666666666666667 0  1.156521739130435 0.1666666666666667 0  1.17304347826087 0.1666666666666667 0  0.8591304347826086 0.1833333333333333 0  0.8756521739130434 0.1833333333333333 0  0.8921739130434783 0.1833333333333333 0  0.908695652173913 0.1833333333333333 0  0.9252173913043478 0.1833333333333333 0  0.9417391304347826 0.1833333333333333 0  0.9582608695652173 0.1833333333333333 0  0.9747826086956521 0.1833333333333333 0  0.991304347826087 0.1833333333333333 0  1.007826086956522 0.1833333333333333 0  1.024347826086957 0.1833333333333333 0  1.040869565217391 0.1833333333333333 0  1.057391304347826 0.1833333333333333 0  1.073913043478261 0.1833333333333333 0  1.090434782608696 0.1833333333333333 0  1.10695652173913 0.1833333333333333 0  1.123478260869565 0.1833333333333333 0  1.14 0.1833333333333333 0  1.156521739130435 0.1833333333333333 0  1.17304347826087 0.1833333333333333 0  1.189565217391304 0.1833333333333333 0  0.8756521739130434 0.2 0  0.8921739130434783 0.2 0  0.908695652173913 0.2 0  0.9252173913043478 0.2 0  0.9417391304347826 0.2 0  0.9582608695652173 0.2 0  0.9747826086956521 0.2 0  0.991304347826087 0.2 0  1.007826086956522 0.2 0  1.024347826086957 0.2 0  1.040869565217391 0.2 0  1.057391304347826 0.2 0  1.073913043478261 0.2 0  1.090434782608696 0.2 0  1.10695652173913 0.2 0  1.123478260869565 0.2 0  1.14 0.2 0  1.156521739130435 0.2 0  1.17304347826087 0.2 0  1.189565217391304 0.2 0  1.206086956521739 0.2 0  0.8921739130434783 0.2166666666666667 0  0.908695652173913 0.2166666666666667 0  0.9252173913043478 0.2166666666666667 0  0.9417391304347826 0.2166666666666667 0  0.9582608695652173 0.2166666666666667 0  0.9747826086956521 0.2166666666666667 0  0.991304347826087 0.2166666666666667 0  1.007826086956522 0.2166666666666667 0  1.02434782608
[...]
<PointData  Vectors="Displacement"> 
<DataArray  type="Float64"  Name="Displacement"  NumberOfComponents="3" format="ascii">1.5099712196187611e-04 1.3943553587558465e-03 0.0000000000000000e+00  1.5367636074552712e-04 1.4185718999058931e-03 0.0000000000000000e+00  1.2964226724221511e-04 1.4175433530021482e-03 0.0000000000000000e+00  1.2610270738412296e-04 1.3933260407809759e-03 0.0000000000000000e+00  1.5637220621531262e-04 1.4419542273290224e-03 0.0000000000000000e+00  1.3316118225736284e-04 1.4409263489932682e-03 0.0000000000000000e+00  1.5908487382214161e-04 1.4645394115027288e-03 0.0000000000000000e+00  1.3665949901031245e-04 1.4635116392170599e-03 0.0000000000000000e+00  1.6181489054817243e-04 1.4863635838016371e-03 0.0000000000000000e+00  1.4013953036154080e-04 1.4853353802640210e-03 0.0000000000000000e+00  1.6456266815837841e-04 1.5074608636072696e-03 0.0000000000000000e+00  1.4360384657715816e-04 1.5064320670701891e-03 0.0000000000000000e+00  1.6732840524181090e-04 1.5278640422117830e-03 0.0000000000000000e+00  1.4705350049863691e-04 1.5268345418589359e-03 0.0000000000000000e+00  1.7011221768555932e-04 1.5476052122341318e-03 0.0000000000000000e+00  1.5048913739183545e-04 1.5465749180673758e-03 0.0000000000000000e+00  1.7291416405255209e-04 1.5667159515661074e-03 0.0000000000000000e+00  1.5391125914113665e-04 1.5656848384492815e-03 0.0000000000000000e+00  1.7573429936836122e-04 1.5852275954376677e-03 0.0000000000000000e+00  1.5732006266048362e-04 1.5841955602757655e-03 0.0000000000000000e+00  1.7857273650652444e-04 1.6031712088389501e-03 0.0000000000000000e+00  1.6071602219907533e-04 1.6021380941265548e-03 0.0000000000000000e+00  1.8142960725571705e-04 1.6205773502840418e-03 0.0000000000000000e+00  1.6409987509579082e-04 1.6195430335156629e-03 0.0000000000000000e+00  1.8430499101628126e-04 1.6374760012519698e-03 0.0000000000000000e+00  1.6747225442088616e-04 1.6364404441167996e-03 0.0000000000000000e+00  1.8719886928108095e-04 1.6538967275079434e-03 0.0000000000000000e+00  1.7083343692485790e-04 1.6528599920645902e-03 0.0000000000000000e+00  1.9011110407976523e-04 1.6698689650920123e-03 0.0000000000000000e+00  1.7418324319190166e-04 1.6688312263466363e-03 0.0000000000000000e+00  1.9304145679061157e-04 1.6854224094330866e-03 0.0000000000000000e+00  1.7752096790727483e-04 1.6843839028774326e-03 0.0000000000000000e+00  1.9598973334904781e-04 1.7005874898868274e-03 0.0000000000000000e+00  1.8084555667004633e-04 1.6995482569453193e-03 0.0000000000000000e+00  1.9895588850217598e-04 1.7153951312537706e-03 0.0000000000000000e+00  1.8415670771061495e-04 1.7143551010946915e-03 0.0000000000000000e+00  2.0193997698078563e-04 1.7298762660027576e-03 0.0000000000000000e+00  1.8745467833490028e-04 1.7288353323579315e-03 0.0000000000000000e+00  2.0494205758514396e-04 1.7440614889816148e-03 0.0000000000000000e+00  1.9073995940051749e-04 1.7430196195367901e-03 0.0000000000000000e+00  1.0528640914179932e-04 1.4163362019431541e-03 0.0000000000000000e+00  1.0087507514963176e-04 1.3921112188454144e-03 0.0000000000000000e+00  1.0964206681844533e-04 1.4397276920184064e-03 0.0000000000000000e+00  1.1394131458893354e-04 1.4623213108623310e-03 0.0000000000000000e+00  1.1818652777565442e-04 1.4841524378566486e-03 0.0000000000000000e+00  1.2238126469064515e-04 1.5052555578063986e-03 0.0000000000000000e+00  1.2652808756205550e-04 1.5256640735368857e-03 0.0000000000000000e+00  1.3062846687200843e-04 1.5454102496407051e-03 0.0000000000000000e+00  1.3468339588253519e-04 1.5645257849205999e-03 0.0000000000000000e+00  1.3869357061909254e-04 1.5830420303001292e-03 0.0000000000000000e+00  1.4265977902709853e-04 1.6009898938626644e-03 0.0000000000000000e+00  1.4658308465915863e-04 1.6183998892161885e-03 0.0000000000000000e+00  1.5046450229075554e-04 1.6353021388775882e-03 0.0000000000000000e+00  1.5430459028977257e-04 1.6517264532243739e-03 0.0000000000000000e+00  1.5810322106287573e-04 1.6677025546385767e-03 0.0000000000000000e+00  1.6185954891217904e-04 1.6832603768427998e-03 0.0000000000000000e+00  1.6557233659244712e-04 1.6984302357606540e-03 0.0000000000000000e+00  1.6924084595946242e-04 1.7132426649313077e-03 0.0000000000000000e+00  1.7286517367338898e-04 1.7277283706699528e-03 0.0000000000000000e+00  1.7644586819731461e-04 1.7419179608060599e-03 0.0000000000000000e+00  1.7998336682840862e-04 1.7558419001869380e-03 0.0000000000000000e+00  8.6924701421626873e-05 1.3902670769566281e-03 0.0000000000000000e+00  9.3052439025519812e-05 1.4135944936815117e-03 0.0000000000000000e+00  9.9099809773326187e-05 1.4362344735796486e-03 0.0000000000000000e+00  1.0505983152494167e-04 1.4582173571852099e-03 0.0000000000000000e+00  1.1092572183481052e-04 1.4795729748528785e-03 0.0000000000000000e+00  1.1669061380611185e-04 1.5003302131201153e-03 0.0000000000000000e+00  1.2234760085815089e-04 1.5205165381697446e-03 0.0000000000000000e+00  1.2789008293048168e-04 1.5401581338947161e-03 0.0000000000000000e+00  1.3331219678337943e-04 1.5592802245499933e-03 0.0000000000000000e+00  1.3860910918041779e-04 1.5779072656713754e-03 0.0000000000000000e+00  1.4377707852600744e-04 1.5960632533081026e-03 0.0000000000000000e+00  1.4881328795403128e-04 1.6137720340990876e-03 0.0000000000000000e+00  1.5371553719225735e-04 1.6310575173346246e-03 0.0000000000000000e+00  1.5848195329017412e-04 1.6479438319387317e-03 0.0000000000000000e+00  1.6311084177929105e-04 1.6644554342904573e-03 0.0000000000000000e+00  1.6760073537842339e-04 1.6806170723652424e-03 0.0000000000000000e+00  1.7195059261425894e-04 1.6964535813703240e-03 0.0000000000000000e+00  1.7615995798814690e-04 1.7119898605360646e-03 0.0000000000000000e+00  1.8022900582085144e-04 1.7272508071583996e-03 0.0000000000000000e+00  1.8415850395879965e-04 1.7422612591100814e-03 0.0000000000000000e+00  1.8794985651384368e-04 1.7570459288167217e-03 0.0000000000000000e+00  7.6718703711391398e-05 1.3865824269559289e-03 0.0000000000000000e+00  8.4312904280157226e-05 1.4092747306526381e-03 0.0000000000000000e+00  9.1795098872006893e-05 1.4314217298735782e-03 0.0000000000000000e+00  9.9149311433850085e-05 1.4530490412904575e-03 0.0000000000000000e+00  1.0635959139795405e-04 1.4741806697056799e-03 0.0000000000000000e+00  1.1341061074411571e-04 1.4948385805597666e-03 0.0000000000000000e+00  1.2028824949786948e-04 1.5150427330979756e-03 0.0000000000000000e+00  1.2698012882448215e-04 1.5348114646215035e-03 0.0000000000000000e+00  1.3347593848230663e-04 1.5541620223684775e-03 0.0000000000000000e+00  1.3976746066457580e-04 1.5731111889697596e-03 0.0000000000000000e+00  1.4584834572487873e-04 1.5916758405211369e-03 0.0000000000000000e+00  1.5171374262513604e-04 1.6098733104516780e-03 0.0000000000000000e+00  1.5735990684604667e-04 1.6277215469161388e-03 0.0000000000000000e+00  1.6278390047256224e-04 1.6452390955147690e-03 0.0000000000000000e+00  1.6798344486482086e-04 1.6624449237484433e-03 0.0000000000000000e+00  1.7295690978257741e-04 1.6793581549599803e-03 0.0000000000000000e+00  1.7770338818696950e-04 1.6959979060522416e-03 0.0000000000000000e+00  1.8222284491402644e-04 1.7123831672323253e-03 0.0000000000000000e+00  1.8651630474139072e-04 1.7285327183914408e-03 0.0000000000000000e+00  1.9058607611422508e-04 1.7444650742730835e-03 0.0000000000000000e+00  1.9443598320368122e-04 1.7601984979319801e-03 0.0000000000000000e+00  6.9641680741782083e-05 1.3815311324986343e-03 0.0000000000000000e+00  7.8468229042859530e-05 1.4038500846644437e-03 0.0000000000000000e+00  8.7142050667935153e-05 1.4257636252031683e-03 0.0000000000000000e+00  9.5638057569777106e-05 1.4472908006496197e-03 0.0000000000000000e+00  1.0393233696852620e-04 1.4684475285432934e-03 0.0000000000000000e+00  1.1200311947020905e-04 1.4892467260096099e-03 0.0000000000000000e+00  1.1983152194285740e-04 1.5096989241257688e-03 0.0000000000000000e+00  1.2740192562920352e-04 1.5298132214673300e-03 0.0000000000000000e+00  1.3470193350324891e-04 1.5495983327325649e-03 0.0000000000000000e+00  1.4172199632492480e-04 1.5690634550089614e-03 0.0000000000000000e+00  1.4845486240587215e-04 1.5882187882533894e-03 0.0000000000000000e+00  1.5489500703790525e-04 1.6070756922223414e-03 0.0000000000000000e+00  1.6103816577428952e-04 1.6256465476702970e-03 0.0000000000000000e+00  1.6688104120421063e-04 1.6439444172255482e-03 0.0000000000000000e+00  1.7242119351516716e-04 1.6619826292041137e-03 0.0000000000000000e+00  1.7765709637814313e-04 1.6797744304618198e-03 0.0000000000000000e+00  1.8258834185913607e-04 1.6973327281027308e-03 0.0000000000000000e+00  1.8721594966099799e-04 1.7146699361830894e-03 0.0000000000000000e+00  1.9154273029070665e-04 1.7317979374225107e-03 0.0000000000000000e+00  1.9557364383201845e-04 1.7487282002818802e-03 0.0000000000000000e+00  1.9931609679661906e-04 1.7654721227886390e-03 0.0000000000000000e+00  6.5136057296909141e-05 1.3755750432834361e-03 0.0000000000000000e+00  7.4974649783225508e-05 1.3977852837527831e-03 0.0000000000000000e+00  8.4609596801303393e-05 1.4197256434493437e-03 0.0000000000000000e+00  9.4007937531352285e-05 1.4414053911571169e-03 0.0000000000000000e+00  1.0313996250260346e-04 1.4628294104089439e-03 0.0000000000000000e+00  1.1198024469487284e-04 1.4839992293922257e-03 0.0000000000000000e+00  1.2050807489625358e-04 1.5049146002823674e-03 0.0000000000000000e+00  1.2870727496279275e-04 1.5255751454018888e-03 0.0000000000000000e+00  1.3656555904481419e-04 1.5459816256387763e-03 0.0000000000000000e+00  1.4407368768973292e-04 1.5661366227730877e-03 0.0000000000000000e+00  1.5122463506674102e-04 1.5860446515325454e-03 0.0000000000000000e+00  1.5801292132664401e-04 1.6057118398275121e-03 0.0000000000000000e+00  1.6443418702540838e-04 1.6251453525155874e-03 0.0000000000000000e+00  1.7048502437675304e-04 1.6443527354002457e-03 0.0000000000000000e+00  1.7616304539569579e-04 1.6633413316336956e-03 0.0000000000000000e+00  1.8146715306915754e-04 1.6821178400201477e-03 0.0000000000000000e+00  1.8639796056185107e-04 1.7006880570791200e-03 0.0000000000000000e+00  1.9095829347764035e-04 1.7190568298766919e-03 0.0000000000000000e+00  1.9515370423556973e-04 1.7372282552885864e-03 0.0000000000000000e+00  1.9899292860527912e-04 1.7552061646122360e-03 0.0000000000000000e+00  2.0248821595785107e-04 1.7729948804130762e-03 0.0000000000000000e+00  6.2699933786499503e-05 1.3691711347958509e-03 0.0000000000000000e+00  7.3339980244673705e-05 1.3915398164593333e-03 0.0000000000000000e+00  8.3714699688109472e-05 1.4137650760779590e-03 0.0000000000000000e+00  9.3785961563580534e-05 1.4358424312620494e-03 0.0000000000000000e+00  1.0352173521757616e-04 1.4577627812621089e-03 0.0000000000000000e+00  1.1289655429244492e-04 1.4795149574528290e-03 0.0000000000000000e+00  1.2189105084514456e-04 1.5010882385230882e-03 0.0000000000000000e+00  1.3049088118304182e-04 1.5224741350943287e-03 0.0000000000000000e+00  1.3868543704722907e-04 1.5436672109482811e-03 0.0000000000000000e+00  1.4646665308120551e-04 1.5646650531601124e-03 0.0000000000000000e+00  1.5382809459557292e-04 1.5854676533699238e-03 0.0000000000000000e+00  1.6076439969725734e-04 1.6060764788984605e-03 0.0000000000000000e+00  1.6727107454260804e-04 1.6264934753916036e-03 0.0000000000000000e+00  1.7334460050575474e-04 1.6467201817819800e-03 0.0000000000000000e+00  1.7898279593797468e-04 1.6667570597914368e-03 0.0000000000000000e+00  1.8418536475833921e-04 1.6866030966895752e-03 0.0000000000000000e+00  1.8895456029168804e-04 1.7062557178014418e-03 0.0000000000000000e+00  1.9329588958895687e-04 1.7257110424590784e-03 0.0000000000000000e+00  1.9721877985896672e-04 1.7449645121760358e-03 0.0000000000000000e+00  2.0073711958875791e-04 1.7640118899569441e-03 0.0000000000000000e+00  2.0386956542345404e-04 1.7828506009910741e-03 0.0000000000000000e+00  6.1878918455637925e-05 1.3627772027190585e-03 0.0000000000000000e+00  7.3113919084088190e-05 1.3855703235565169e-03 0.0000000000000000e+00  8.4012107100779479e-05 1.4083299876294028e-03 0.0000000000000000e+00  9.4534819311867550e-05 1.4310341715603801e-03 0.0000000000000000e+00  1.0465238550205258e-04 1.4536586670500595e-03 0.0000000000000000e+00  1.1434314819086436e-04 1.4761808658136540e-03 0.0000000000000000e+00  1.2359169425500143e-04 1.4985821740958858e-03 0.0000000000000000e+00  1.3238692580386089e-04 1.5208488808918603e-03 0.0000000000000000e+00  1.4072039474801449e-04 1.5429718061608262e-03 0.0000000000000000e+00  1.4858510461482317e-04 1.5649451957355060e-03 0.0000000000000000e+00  1.5597482700727418e-04 1.5867652797027327e-03 0.0000000000000000e+00  1.6288389052382114e-04 1.6084288131465753e-03 0.0000000000000000e+00  1.6930736094855983e-04 1.6299318133073146e-03 0.0000000000000000e+00  1.7524152477368845e-04 1.6512686113296733e-03 0.0000000000000000e+00  1.8068459426180501e-04 1.6724312790673244e-03 0.0000000000000000e+00  1.8563756113446650e-04 1.6934094662658947e-03 0.0000000000000000e+00  1.9010512865654013e-04 1.7141906807992507e-03 0.0000000000000000e+00  1.9409664482189821e-04 1.7347610441134779e-03 0.0000000000000000e+00  1.9762693995666617e-04 1.7551065393774646e-03 0.0000000000000000e+00  2.0071694033218292e-04 1.7752147470893678e-03 0.0000000000000000e+00  2.0339389639748568e-04 1.7950770316500957e-03 0.0000000000000000e+00  6.2252920634078168e-05 1.3568555620593387e-03 0.0000000000000000e+00  7.3875168790921473e-05 1.3803291154723704e-03 0.0000000000000000e+00  8.5083526894218467e-05 1.4038527795754610e-03 0.0000000000000000e+00  9.5845056319655741e-05 1.4273864135128623e-03 0.0000000000000000e+00  1.0613718039159744e-04 1.4508936331650182e-03 0.0000000000000000e+00  1.1594482985013541e-04 1.4743449126834345e-03 0.0000000000000000e+00  1.2525761586542589e-04 1.4977182676064120e-03 0.0000000000000000e+00  1.3406757318543694e-04 1.5209982703965044e-03 0.0000000000000000e+00  1.4236765526711286e-04 1.5441741823962083e-03 0.0000000000000000e+00  1.5015095812739016e-04 1.5672377906123382e-03 0.0000000000000000e+00  1.5741055496106817e-04 1.5901813481909615e-03 0.0000000000000000e+00  1.6413979765950764e-04 1.6129958548322500e-03 0.0000000000000000e+00  1.7033295755377912e-04 1.6356697862444313e-03 0.0000000000000000e+00  1.7598611029040422e-04 1.6581883113422501e-03 0.0000000000000000e+00  1.8109819905391358e-04 1.6805330159234387e-03 0.0000000000000000e+00  1.8567222343101420e-04 1.7026821621824294e-03 0.0000000000000000e+00  1.8971649296566176e-04 1.7246115293462570e-03 0.0000000000000000e+00  1.9324585380522052e-04 1.7462958838124776e-03 0.0000000000000000e+00  1.9628274702457587e-04 1.7677111123030097e-03 0.0000000000000000e+00  1.9885790055098565e-04 1.7888370117482386e-03 0.0000000000000000e+00  2.0101040401217585e-04 1.8096606693984029e-03 0.0000000000000000e+00  6.3419787919153422e-05 1.3518701408422708e-03 0.0000000000000000e+00  7.5218926895933579e-05 1.3762536638435999e-03 0.0000000000000000e+00  8.6530065089973531e-05 1.4007362455313722e-03 0.0000000000000000e+00  9.7331773710773923e-05 1.4252654873028446e-03 0.0000000000000000e+00  1.0761130413533681e-04 1.4498002879613043e-03 0.0000000000000000e+00  1.1736054860182151e-04 1.4743108464307180e-03 0.0000000000000000e+00  1.2657309627910076e-04 1.4987765369337204e-03 0.0000000000000000e+00  1.3524245164872777e-04 1.5231828919828063e-03 0.0000000000000000e+00  1.4336124967545693e-04 1.5475184611588207e-03 0.0000000000000000e+00  1.5092122673303484e-04 1.5717720062572134e-03 0.0000000000000000e+00  1.5791371248990584e-04 1.5959302610240409e-03 0.0000000000000000e+00  1.6433046511799964e-04 1.6199763148117036e-03 0.0000000000000000e+00  1.7016474547729260e-04 1.6438886008298909e-03 0.0000000000000000e+00  1.7541258567853221e-04 1.6676404682902466e-03 0.0000000000000000e+00  1.8007423709480449e-04 1.6912003583797206e-03 0.0000000000000000e+00  1.8415577707540676e-04 1.7145326511258925e-03 0.0000000000000000e+00  1.8767081140624026e-04 1.7375992810058655e-03 0.0000000000000000e+00  1.9064213383581996e-04 1.7603622211455115e-03 0.0000000000000000e+00  1.9310310856172466e-04 1.7827868933391730e-03 0.0000000000000000e+00  1.9509843408830777e-04 1.8048464964765727e-03 0.0000000000000000e+00  1.9668386610076426e-04 1.8265271135032772e-03 0.0000000000000000e+00  6.4980973083061453e-05 1.3482689119365464e-03 0.0000000000000000e+00  7.6750374204160844e-05 1.3737450705857879e-03 0.0000000000000000e+00  8.7971717493794374e-05 1.3993350456541307e-03 0.0000000000000000e+00  9.8637268076444856e-05 1.4249860214357673e-03 0.0000000000000000e+00  1.0874317131650299e-04 1.4506616082992120e-03 0.0000000000000000e+00  1.1828580736144923e-04 1.4763377951614652e-03 0.0000000000000000e+00  1.2725985965414237e-04 1.5019982810852740e-03 0.0000000000000000e+00  1.3565768729529229e-04 1.5276300667297522e-03 0.0000000000000000e+00  1.4346957955332863e-04 1.5532197768147518e-03 0.0000000000000000e+00  1.5068453407741261e-04 1.5787508797503443e-03 0.0000000000000000e+00  1.5729132199501531e-04 1.6042017496275655e-03 0.0000000000000000e+00  1.6327973557725485e-04 1.6295444391239775e-03 0.0000000000000000e+00  1.6864201592641296e-04 1.6547440705653288e-03 0.0000000000000000e+00  1.7337451192282315e-04 1.6797588448522166e-03 0.0000000000000000e+00  1.7747962486959368e-04 1.7045407643824244e-03 0.0000000000000000e+00  1.8096804351198180e-04 1.7290372411576523e-03 0.0000000000000000e+00  1.8386116805599255e-04 1.7531937983088536e-03 0.0000000000000000e+00  1.8619347225982049e-04 1.7769580390315934e-03 0.0000000000000000e+00  1.8801434759044302e-04 1.8002850125016512e-03 0.0000000000000000e+00  1.8938878425214735e-04 1.8231439207238758e-03 0.0000000000000000e+00  1.9039620080777155e-04 1.8455257656551976e-03 0.0000000000000000e+00  6.6537714008856587e-05 1.3464507382292934e-03 0.0000000000000000e+00  7.8088939630322309e-05 1.3731423207468730e-03 0.0000000000000000e+00  8.9054819571574172e-05 1.3999408553287743e-03 0.0000000000000000e+00  9.9438085283812028e-05 1.4268058380985237e-03 0.0000000000000000e+00  1.0923920052628297e-04 1.4537127476654172e-03 0.0000000000000000e+00  1.1845456784114993e-04 1.4806461384488830e-03 0.0000000000000000e+00  1.2707634178703769e-04 1.5075936793316482e-03 0.0000000000000000e+00  1.3509318948078653e-04 1.5345415353381670e-03 0.0000000000000000e+00  1.4249148262432098e-04 1.5614711171449299e-03 0.0000000000000000e+00  1.4925662071518803e-04 1.5883569315324859e-03 0.0000000000000000e+00  1.5537439853309954e-04 1.6151652126084660e-03 0.0000000000000000e+00  1.6083248471661577e-04 1.6418531261830494e-03 0.0000000000000000e+00  1.6562216295627088e-04 1.6683685103996738e-03 0.0000000000000000e+00  1.6974051123307300e-04 1.6946502796934470e-03 0.0000000000000000e+00  1.7319315187621661e-04 1.7206297598499560e-03 0.0000000000000000e+00  1.7599757604086667e-04 1.7462333251036907e-03 0.0000000000000000e+00  1.7818683749683652e-04 1.7713867033062498e-03 0.0000000000000000e+00  1.7981304557945023e-04 1.7960213683123130e-03 0.0000000000000000e+00  1.8094968413190208e-04 1.8200831843887264e-03 0.0000000000000000e+00  1.8169160167374774e-04 1.8435428377537773e-03 0.0000000000000000e+00  1.8215150234064092e-04 1.8664073872833255e-03 0.0000000000000000e+00  6.7703254454570667e-05 1.3467308579115619e-03 0.0000000000000000e+00  7.8882688540996213e-05 1.3747059482026962e-03 0.0000000000000000e+00  8.9463777345280044e-05 1.4027799157975101e-03 0.0000000000000000e+00  9.9452203300120508e-05 1.4309320066574489e-03 0.0000000000000000e+00  1.0884635647049447e-04 1.4591512463419975e-03 0.0000000000000000e+00  1.1763802232970327e-04 1.4874287077503465e-03 0.0000000000000000e+00  1.2581396001160860e-04 1.5157520039872708e-03 0.0000000000000000e+00  1.3335766672300964e-04 1.5441017907139515e-03 0.0000000000000000e+00  1.4025097208888803e-04 1.5724496514837821e-03 0.0000000000000000e+00  1.4647542320629970e-04 1.6007567559323563e-03 0.0000000000000000e+00  1.5201362728879846e-04 1.6289729206831157e-03 0.0000000000000000e+00  1.5685083451611888e-04 1.6570359783855122e-03 0.0000000000000000e+00  1.6097710638626438e-04 1.6848715997475102e-03 0.0000000000000000e+