<?xml version="1.0"?>
<VTKFile type="UnstructuredGrid"  version="0.1"  >
<UnstructuredGrid>
<Piece  NumberOfPoints="7161" NumberOfCells="13800">
<Points>
<DataArray  type="Float64"  NumberOfComponents="3"  format="ascii">0 0 0  0.01652173913043478 0 0  0.03304347826086956 0 0  0.04956521739130434 0 0  0.06608695652173913 0 0  0.08260869565217391 0 0  0.09913043478260869 0 0  0.1156521739130435 0 0  0.1321739130434783 0 0  0.148695652173913 0 0  0.1652173913043478 0 0  0.1817391304347826 0 0  0.1982608695652174 0 0  0.2147826086956522 0 0  0.2313043478260869 0 0  0.2478260869565218 0 0  0.2643478260869565 0 0  0.2808695652173913 0 0  0.2973913043478261 0 0  0.3139130434782609 0 0  0.3304347826086956 0 0  0.3469565217391304 0 0  0.3634782608695652 0 0  0.3799999999999999 0 0  0.3965217391304348 0 0  0.4130434782608696 0 0  0.4295652173913043 0 0  0.4460869565217391 0 0  0.4626086956521739 0 0  0.4791304347826086 0 0  0.4956521739130435 0 0  0.5121739130434783 0 0  0.528695652173913 0 0  0.5452173913043478 0 0  0.5617391304347825 0 0  0.5782608695652174 0 0  0.5947826086956521 0 0  0.6113043478260869 0 0  0.6278260869565218 0 0  0.6443478260869565 0 0  0.6608695652173913 0 0  0.677391304347826 0 0  0.6939130434782609 0 0  0.7104347826086956 0 0  0.7269565217391304 0 0  0.7434782608695653 0 0  0.7599999999999999 0 0  0.7765217391304348 0 0  0.7930434782608695 0 0  0.8095652173913043 0 0  0.8260869565217391 0 0  0.8426086956521739 0 0  0.8591304347826086 0 0  0.8756521739130434 0 0  0.8921739130434783 0 0  0.908695652173913 0 0  0.9252173913043478 0 0  0.9417391304347826 0 0  0.9582608695652173 0 0  0.9747826086956521 0 0  0.991304347826087 0 0  1.007826086956522 0 0  1.024347826086957 0 0  1.040869565217391 0 0  1.057391304347826 0 0  1.073913043478261 0 0  1.090434782608696 0 0  1.10695652173913 0 0  1.123478260869565 0 0  1.14 0 0  1.156521739130435 0 0  1.17304347826087 0 0  1.189565217391304 0 0  1.206086956521739 0 0  1.222608695652174 0 0  1.239130434782609 0 0  1.255652173913044 0 0  1.272173913043478 0 0  1.288695652173913 0 0  1.305217391304348 0 0  1.321739130434783 0 0  1.338260869565217 0 0  1.354782608695652 0 0  1.371304347826087 0 0  1.387826086956522 0 0  1.404347826086957 0 0  1.420869565217391 0 0  1.437391304347826 0 0  1.453913043478261 0 0  1.470434782608696 0 0  1.486956521739131 0 0  1.503478260869565 0 0  1.52 0 0  1.536521739130435 0 0  1.55304347826087 0 0  1.569565217391304 0 0  1.586086956521739 0 0  1.602608695652174 0 0  1.619130434782609 0 0  1.635652173913043 0 0  1.652173913043478 0 0  1.668695652173913 0 0  1.685217391304348 0 0  1.701739130434782 0 0  1.718260869565217 0 0  1.734782608695652 0 0  1.751304347826087 0 0  1.767826086956522 0 0  1.784347826086957 0 0  1.800869565217391 0 0  1.817391304347826 0 0  1.833913043478261 0 0  1.850434782608696 0 0  1.86695652173913 0 0  1.883478260869565 0 0  1.9 0 0  1.916521739130435 0 0  1.933043478260869 0 0  1.949565217391304 0 0  1.966086956521739 0 0  1.982608695652174 0 0  1.999130434782608 0 0  2.015652173913043 0 0  2.032173913043478 0 0  2.048695652173913 0 0  2.065217391304348 0 0  2.081739130434782 0 0  2.098260869565217 0 0  2.114782608695652 0 0  2.131304347826087 0 0  2.147826086956522 0 0  2.164347826086956 0 0  2.180869565217391 0 0  2.197391304347826 0 0  2.213913043478261 0 0  2.230434782608695 0 0  2.24695652173913 0 0  2.263478260869565 0 0  2.28 0 0  2.296521739130434 0 0  2.31304347826087 0 0  2.329565217391304 0 0  2.346086956521739 0 0  2.362608695652174 0 0  2.379130434782609 0 0  2.395652173913044 0 0  2.412173913043478 0 0  2.428695652173913 0 0  2.445217391304348 0 0  2.461739130434782 0 0  2.478260869565217 0 0  2.494782608695652 0 0  2.511304347826087 0 0  2.527826086956522 0 0  2.544347826086956 0 0  2.560869565217391 0 0  2.577391304347826 0 0  2.593913043478261 0 0  2.610434782608696 0 0  2.62695652173913 0 0  2.643478260869565 0 0  2.66 0 0  2.676521739130435 0 0  2.693043478260869 0 0  2.709565217391304 0 0  2.726086956521739 0 0  2.742608695652174 0 0  2.759130434782609 0 0  2.775652173913044 0 0  2.792173913043478 0 0  2.808695652173913 0 0  2.825217391304347 0 0  2.841739130434783 0 0  2.858260869565217 0 0  2.874782608695652 0 0  2.891304347826087 0 0  2.907826086956522 0 0  2.924347826086957 0 0  2.940869565217391 0 0  2.957391304347826 0 0  2.973913043478261 0 0  2.990434782608696 0 0  3.006956521739131 0 0  3.023478260869565 0 0  3.04 0 0  3.056521739130435 0 0  3.073043478260869 0 0  3.089565217391304 0 0  3.106086956521739 0 0  3.122608695652174 0 0  3.139130434782609 0 0  3.155652173913043 0 0  3.172173913043478 0 0  3.188695652173913 0 0  3.205217391304347 0 0  3.221739130434782 0 0  3.238260869565217 0 0  3.254782608695652 0 0  3.271304347826087 0 0  3.287826086956521 0 0  3.304347826086957 0 0  3.320869565217391 0 0  3.337391304347826 0 0  3.353913043478261 0 0  3.370434782608696 0 0  3.386956521739131 0 0  3.403478260869565 0 0  3.419999999999999 0 0  3.436521739130435 0 0  3.453043478260869 0 0  3.469565217391304 0 0  3.486086956521739 0 0  3.502608695652174 0 0  3.519130434782609 0 0  3.535652173913043 0 0  3.552173913043478 0 0  3.568695652173913 0 0  3.585217391304347 0 0  3.601739130434782 0 0  3.618260869565217 0 0  3.634782608695652 0 0  3.651304347826087 0 0  3.667826086956521 0 0  3.684347826086956 0 0  3.700869565217391 0 0  3.717391304347826 0 0  3.733913043478261 0 0  3.750434782608695 0 0  3.766956521739131 0 0  3.783478260869565 0 0  3.8 0 0  0 0.01666666666666667 0  0.01652173913043478 0.01666666666666667 0  0.03304347826086956 0.01666666666666667 0  0.04956521739130434 0.01666666666666667 0  0.06608695652173913 0.01666666666666667 0  0.08260869565217391 0.01666666666666667 0  0.09913043478260869 0.01666666666666667 0  0.1156521739130435 0.01666666666666667 0  0.1321739130434783 0.01666666666666667 0  0.148695652173913 0.01666666666666667 0  0.1652173913043478 0.01666666666666667 0  0.1817391304347826 0.01666666666666667 0  0.1982608695652174 0.01666666666666667 0  0.2147826086956522 0.01666666666666667 0  0.2313043478260869 0.01666666666666667 0  0.2478260869565218 0.01666666666666667 0  0.2643478260869565 0.01666666666666667 0  0.2808695652173913 0.01666666666666667 0  0.2973913043478261 0.01666666666666667 0  0.3139130434782609 0.01666666666666667 0  0.3304347826086956 0.01666666666666667 0  0.3469565217391304 0.01666666666666667 0  0.3634782608695652 0.01666666666666667 0  0.3799999999999999 0.01666666666666667 0  0.3965217391304348 0.01666666666666667 0  0.4130434782608696 0.01666666666666667 0  0.4295652173913043 0.01666666666666667 0  0.4460869565217391 0.01666666666666667 0  0.4626086956521739 0.01666666666666667 0  0.4791304347826086 0.01666666666666667 0  0.4956521739130435 0.01666666666666667 0  0.5121739130434783 0.01666666666666667 0  0.528695652173913 0.01666666666666667 0  0.5452173913043478 0.01666666666666667 0  0.5617391304347825 0.01666666666666667 0  0.5782608695652174 0.01666666666666667 0  0.5947826086956521 0.01666666666666667 0  0.6113043478260869 0.01666666666666667 0  0.6278260869565218 0.01666666666666667 0  0.6443478260869565 0.01666666666666667 0  0.6608695652173913 0.01666666666666667 0  0.677391304347826 0.01666666666666667 0  0.6939130434782609 0.01666666666666667 0  0.7104347826086956 0.01666666666666667 0  0.7269565217391304 0.01666666666666667 0  0.7434782608695653 0.01666666666666667 0  0.7599999999999999 0.01666666666666667 0  0.7765217391304348 0.01666666666666667 0  0.7930434782608695 0.01666666666666667 0  0.8095652173913043 0.01666666666666667 0  0.8260869565217391 0.01666666666666667 0  0.8426086956521739 0.01666666666666667 0  0.8591304347826086 0.01666666666666667 0  0.8756521739130434 0.01666666666666667 0  0.8921739130434783 0.01666666666666667 0  0.908695652173913 0.01666666666666667 0  0.9252173913043478 0.01666666666666667 0  0.9417391304347826 0.01666666666666667 0  0.9582608695652173 0.01666666666666667 0  0.9747826086956521 0.01666666666666667 0  0.991304347826087 0.01666666666666667 0  1.007826086956522 0.01666666666666667 0  1.024347826086957 0.01666666666666667 0  1.040869565217391 0.01666666666666667 0  1.057391304347826 0.01666666666666667 0  1.073913043478261 0.01666666666666667 0  1.090434782608696 0.01666666666666667 0  1.10695652173913 0.01666666666666667 0  1.123478260869565 0.01666666666666667 0  1.14 0.01666666666666667 0  1.156521739130435 0.01666666666666667 0  1.17304347826087 0.01666666666666667 0  1.189565217391304 0.01666666666666667 0  1.206086956521739 0.01666666666666667 0  1.222608695652174 0.01666666666666667 0  1.239130434782609 0.01666666666666667 0  1.255652173913044 0.01666666666666667 0  1.272173913043478 0.01666666666666667 0  1.288695652173913 0.01666666666666667 0  1.305217391304348 0.01666666666666667 0  1.321739130434783 0.01666666666666667 0  1.338260869565217 0.01666666666666667 0  1.354782608695652 0.01666666666666667 0  1.371304347826087 0.01666666666666667 0  1.387826086956522 0.01666666666666667 0  1.404347826086957 0.01666666666666667 0  1.420869565217391 0.01666666666666667 0  1.437391304347826 0.01666666666666667 0  1.453913043478261 0.01666666666666667 0  1.470434782608696 0.01666666666666667 0  1.486956521739131 0.01666666666666667 0  1.503478260869565 0.01666666666666667 0  1.52 0.01666666666666667 0  1.536521739130435 0.01666666666666667 0  1.55304347826087 0.01666666666666667 0  1.569565217391304 0.01666666666666667 0  1.586086956521739 0.01666666666666667 0  1.602608695652174 0.01666666666666667 0  1.619130434782609 0.01666666666666667 0  1.635652173913043 0.01666666666666667 0  1.652173913043478 0.01666666666666667 0  1.668695652173913 0.01666666666666667 0  1.685217391304348 0.01666666666666667 0  1.701739130434782 0.01666666666666667 0  1.718260869565217 0.01666666666666667 0  1.734782608695652 0.01666666666666667 0  1.751304347826087 0.01666666666666667 0  1.767826086956522 0.01666666666666667 0  1.784347826086957 0.01666666666666667 0  1.800869565217391 0.0166666666666666
[...]
<PointData  Scalars="rho_bar"> 
<DataArray  type="Float64"  Name="rho_bar"  format="ascii">9.9783521459055402e-01  9.9857396497012707e-01  9.9672463472219819e-01  9.9487000433405548e-01  9.9351945804034991e-01  9.9276217095259822e-01  9.9213582163618663e-01  9.9317733598611679e-01  9.9710315788170478e-01  1.0018774890431810e+00  1.0038210086243677e+00  1.0034708633394038e+00  1.0041647693976037e+00  1.0056693756628468e+00  1.0062531968419599e+00  1.0063110305242071e+00  1.0060729277060600e+00  1.0047388108438420e+00  1.0036366692347174e+00  1.0036511087473929e+00  1.0026361568961093e+00  9.9912712896782951e-01  9.9426857957134762e-01  9.9180339854751209e-01  9.9255229337863682e-01  9.9420169105270007e-01  9.9684239279299147e-01  1.0000843091996192e+00  1.0018911631158647e+00  1.0012550616920619e+00  9.9986279363136676e-01  9.9971471704409520e-01  1.0000361867090590e+00  1.0000300216272684e+00  1.0000806583003092e+00  9.9989017196645402e-01  9.9959798417503620e-01  1.0005101472636511e+00  1.0015564157235401e+00  1.0004661099648466e+00  9.9606059441878025e-01  9.9197523177958224e-01  9.9612953501087043e-01  1.0024850291550003e+00  1.0035306016077234e+00  1.0076584590403965e+00  1.0165213165649254e+00  1.0226990877641393e+00  1.0255574468573372e+00  1.0274839862449399e+00  1.0278115299058381e+00  1.0274428348425917e+00  1.0275222777731745e+00  1.0275147369630910e+00  1.0275132855528986e+00  1.0275140787934363e+00  1.0275138838792124e+00  1.0275139079848556e+00  1.0275138919346345e+00  1.0275138553726231e+00  1.0275137900207378e+00  1.0275136966067298e+00  1.0275135884495445e+00  1.0275134795661014e+00  1.0275133672990167e+00  1.0275132159774343e+00  1.0275130336131564e+00  1.0275129155689411e+00  1.0275129263940630e+00  1.0275156240932695e+00  1.0274999180404947e+00  1.0275820915719367e+00  1.0272708617271000e+00  1.0280256967117232e+00  1.0278806906799702e+00  1.0197582936548415e+00  1.0108817766249685e+00  1.0091312368440670e+00  1.0094944285039624e+00  1.0084463244927340e+00  1.0106754895693462e+00  1.0218064861214236e+00  1.0296667429056559e+00  1.0232976283682629e+00  1.0075656631357064e+00  9.9574305787817141e-01  9.9703909861268969e-01  1.0010726440037463e+00  1.0003161081007328e+00  9.9973771688823754e-01  1.0000736845080271e+00  9.9997076316161304e-01  1.0000036426709067e+00  1.0000948075848504e+00  1.0000177764898464e+00  9.9970103627204754e-01  9.9947755943345540e-01  9.9967417315728457e-01  1.0001370981579987e+00  1.0007532471174494e+00  1.0015110108937277e+00  1.0022049912385909e+00  1.0018655065997082e+00  1.0002105632274156e+00  9.9900852483521518e-01  9.9897591753807313e-01  9.9911676267357374e-01  9.9903954135753270e-01  9.9837414790425838e-01  9.9670294601396958e-01  9.9512765080251731e-01  9.9458622365949301e-01  9.9408350210956886e-01  9.9317112775568539e-01  9.9263535711424278e-01  9.9254785588301253e-01  9.9269034676130952e-01  9.9253375778927078e-01  9.9242489928873046e-01  9.9401105273768975e-01  9.9641577593834596e-01  9.9915131769605070e-01  1.0024960745043290e+00  1.0038123988682011e+00  1.0031849483747433e+00  1.0045497610554914e+00  1.0097737214699474e+00  1.0164053234155586e+00  1.0210126239882342e+00  1.0230962289656196e+00  1.0305216874418981e+00  1.0273374820832069e+00  9.9960797264698109e-01  9.8850115166734631e-01  9.8399058383256788e-01  9.4171784441019180e-01  9.1008586158781080e-01  8.9493895764293363e-01  8.9958594539936099e-01  9.5062398707463824e-01  1.0070221353214326e+00  1.0392969627449509e+00  1.0367204878298928e+00  1.0081547694137118e+00  9.4356190955427066e-01  8.9262293953150940e-01  8.9796937518024555e-01  9.1210793093682785e-01  9.4729782775667071e-01  9.8586778919844920e-01  9.9131032150528042e-01  1.0072673894182491e+00  1.0295588117558296e+00  1.0288043263681672e+00  1.0225934268664556e+00  1.0201259557902229e+00  1.0188852954861687e+00  1.0192863867636353e+00  1.0190363741396211e+00  1.0160748575215774e+00  1.0109671802082538e+00  1.0073642245468761e+00  1.0056426159251426e+00  1.0040191495486082e+00  1.0033867441948325e+00  1.0038153636617160e+00  1.0023301937174451e+00  9.9887533615273505e-01  9.9684885738645634e-01  9.9566635924054259e-01  9.9376502165013558e-01  9.9270787962509577e-01  9.9264000353008996e-01  9.9263034518833582e-01  9.9264789622489846e-01  9.9257425317653936e-01  9.9252116249904565e-01  9.9303978737944243e-01  9.9391518523033817e-01  9.9457565908180134e-01  9.9569269924218196e-01  9.9773632929188361e-01  9.9903711642016957e-01  9.9910601637113416e-01  1.0002098233270287e+00  1.0018238410965956e+00  1.0013103071404499e+00  9.9986938715985507e-01  9.9961360053581183e-01  1.0006384906353003e+00  9.9718183256348136e-01  1.0079858285589416e+00  1.0052017784648897e+00  8.2420809504285808e-01  -5.1929557073286697e-02  -8.5279786645899164e-03  3.9672530125674831e-03  -8.4223453094657173e-04  2.1442679085175841e-04  -9.5645240474573600e-05  3.9500321480955278e-05  -7.6747115146487023e-06  -1.9221782832508963e-06  1.7759742704781349e-06  -5.1185015815258077e-07  -2.9102198096528072e-08  8.8418469581878811e-08  -3.7579211891032451e-08  5.9933358760178559e-09  2.0568962613639663e-09  -1.8446449202493947e-09  7.1423082456745297e-10  -1.5830349010109194e-10  1.9056122022350974e-12  1.6810358192314362e-11  -9.3371127036480482e-12  3.3127849450759198e-12  -8.5852345009788856e-13  1.4636578230207799e-13  -1.1069297581689470e-15  -1.1345128636046139e-14  5.6682147251832995e-15  -1.9076454647905548e-15  5.1135977526901126e-16  -1.1295178951242676e-16  2.0070686466529421e-17  -2.4999666799562281e-18  4.3813387645982765e-20  8.8372756516638406e-20  -3.3419646806738202e-20  2.1658666918942664e-20  1.0056886456103309e+00  1.0021982655286550e+00  1.0047999149045792e+00  1.0083041962767267e+00  1.0119637443398246e+00  1.0136617938957899e+00  1.0152240534081380e+00  1.0153987282139358e+00  1.0104497740687597e+00  1.0007133397714680e+00  9.9319210984594497e-01  9.9267068808965020e-01  9.9292383288114427e-01  9.9001173942491039e-01  9.8777115046675890e-01  9.8747905591382701e-01  9.8742479023953378e-01  9.8883150595825353e-01  9.9209726303982460e-01  9.9279776946039910e-01  9.9311249123200074e-01  9.9758991922205231e-01  1.0065763256407243e+00  1.0151526718875525e+00  1.0160266959949118e+00  1.0133138790690641e+00  1.0093837046870113e+00  1.0029461168078468e+00  9.9743417763885922e-01  9.9622264756769729e-01  9.9913518898249165e-01  1.0007915407553207e+00  1.0001148179421731e+00  9.9990425259495930e-01  9.9994726001854095e-01  9.9985066828366442e-01  1.0006394945792929e+00  1.0003663932805362e+00  9.9752596497921409e-01  9.9731665923590795e-01  1.0024765057983835e+00  1.0131210400730519e+00  1.0148581998733681e+00  9.9952306462672114e-01  9.9319177959897231e-01  9.9114467148015140e-01  9.7585399231232550e-01  9.5940328459062196e-01  9.5146007040581970e-01  9.4677605201762038e-01  9.4408750086596416e-01  9.4501449887274658e-01  9.4499009275996460e-01  9.4496428801766119e-01  9.4497371943002362e-01  9.4497201603300862e-01  9.4497216287061814e-01  9.4497219210259142e-01  9.4497219603591220e-01  9.4497224648143785e-01  9.4497234642300088e-01  9.4497250752510165e-01  9.4497271341955902e-01  9.4497293314538522e-01  9.4497315028202122e-01  9.4497340004915464e-01  9.4497375156244923e-01  9.4497408182488574e-01  9.4497419146467387e-01  9.4497275952202375e-01  9.4497394598088835e-01  9.4497744206501821e-01  9.4489089333536747e-01  9.4549262734149475e-01  9.4285450631979462e-01  9.4961142645700425e-01  9.7173245892599613e-01  9.8117744594963752e-01  9.8124074095368430e-01  9.8148719286602204e-01  9.8308887461911576e-01  9.6975825136575933e-01  9.4465117403246035e-01  9.4379654000571989e-01  9.6769437186880503e-01  1.0000882956008532e+00  1.0103801498904272e+00  1.0000947033305370e+00  9.9800976130150520e-01  1.0006367339502986e+00  9.9995521908060159e-01  9.9996948737038516e-01  1.0000795595553023e+00  9.9987672705873964e-01  9.9982814060632508e-01  1.0002206079956808e+00  1.0009286152265202e+00  1.0009511017584389e+00  1.0002190499739714e+00  9.9915594541465902e-01  9.9776025870712393e-01  9.9622758943366707e-01  9.9546917810383473e-01  9.9772652486403068e-01  1.0012047697362523e+00  1.0021764153753518e+00  1.0018331882560232e+00  1.0018087942754450e+00  1.0023271263630349e+00  1.0046791862384317e+00  1.0084610763662629e+00  1.0105113863894468e+00  1.0111243661760227e+00  1.0127464517876745e+00  1.0143807353333565e+00  1.0148537015045593e+00  1.0148398789086186e+00  1.0145482739713028e+00  1.0152928296358592e+00  1.0141600672344628e+00  1.0093864369389238e+00  1.0047850500291604e+00  9.9830507166134186e-01  9.9272484654353876e-01  9.9299744541231383e-01  9.9326662950160272e-01  9.8660475240957124e-01  9.7359654094505421e-01  9.6179431607917176e-01  9.5541703576552783e-01  9.4952712162253894e-01  9.3369096052734557e-01  9.6923176317858595e-01  1.0240250020051871e+00  1.0186722647529938e+00  1.0642464857105249e+00  1.1635617583487026e+00  1.1878522558612929e+00  1.2224949677163148e+00  1.1559657237268073e+00  1.0388582746888719e+00  9.4511484443700777e-01  9.1512295575229408e-01  9.5098971467840943e-01  1.0344047783882730e+00  1.1845206384762899e+00  1.2168449005619140e+00  1.1868815386631724e+00  1.1541610670578775e+00  1.0549575896044634e+00  1.0181349681692040e+00  1.0113664780065990e+00  9.5639678710809028e-01  9.3689091973120486e-01  9.5061998185314134e-01  9.5713459646828947e-01  9.6174817498472176e-01  9.6188976727983500e-01  9.6129023761635579e-01  9.6392001782216685e-01  9.7285363243915557e-01  9.8252528590184807e-01  9.8707714239081823e-01  9.9030332278600441e-01  9.9312454850817578e-01  9.9279796230215733e-01  9.9289747775654535e-01  9.9876659118388600e-01  1.0050178748059511e+00  1.0071647053380319e+00  1.0105292774220382e+00  1.0139885381947278e+00  1.0146853103398639e+00  1.0147255666631432e+00  1.0147394478943468e+00  1.0147145642485116e+00  1.0149781468598904e+00  1.0146513453649733e+00  1.0130111186319968e+00  1.0114356024463580e+00  1.0100334780719695e+00  1.0067324300146354e+00  1.0026936742785277e+00  1.0017738036294463e+00  1.0012846773835442e+00  9.9762092390149604e-01  9.9614748757497040e-01  9.9907497687544589e-01  1.0008549078068505e+00  1.0000503516881278e+00  9.9963645985631866e-01  1.0045058828561093e+00  9.7034482595287119e-01  1.0979528768512927e+00  -2.4929562637389915e-01  5.7610087103728606e-02  -8.0449990795990814e-03  8.2834663966487010e-04  -3.9248294853473653e-04  2.1814246169004435e-04  -5.8170296432676996e-05  -8.6706920155767305e-06  1.2905754960670644e-05  -4.1898514888326475e-06  7.8942898100011372e-08  5.8317154016693895e-07  -2.8414910159200407e-07  5.2234397840145955e-08  1.3297335104004002e-08  -1.3516184917223162e-08  5.2711506552469825e-09  -1.1227794374645534e-09  -1.8438831062562959e-11  1.3528108298099998e-10  -7.0251353633316156e-11  2.3536029307079043e-11  -5.5862627648303100e-12  7.4572600647562695e-13  1.0026898012910436e-13  -1.0955113710730350e-13  4.5361599548794847e-14  -1.3606856124163871e-14  3.2285989990323101e-15  -5.9544985488673098e-16  7.1669156231206787e-17  1.4709814383081125e-18  -3.9571627417039590e-18  1.3998128544849410e-18  -3.2545605570310823e-19  5.5140915733573339e-20  -9.8976870311471241e-21  9.7764119475108113e-01  9.9299759296952606e-01  9.8691507378294052e-01  9.7848437529186627e-01  9.6333214874710438e-01  9.5452993266701591e-01  9.5002987721731635e-01  9.4466728763533470e-01  9.5195335798183678e-01  9.7895543575236688e-01  1.0141419947792218e+00  1.0276228206164271e+00  1.0229452361547988e+00  1.0291937063067575e+00  1.0402067287354158e+00  1.0437530006204732e+00  1.0436124958240958e+00  1.0431442426363462e+00  1.0335329297848630e+00  1.0238787364789628e+00  1.0268371145046975e+00  1.0178129837773366e+00  9.9519539815367530e-01  9.5920834835318869e-01  9.4120062056699028e-01  9.4981696058076137e-01  9.5813537989158326e-01  9.7825831226373505e-01  1.0003204025706924e+00  1.0139302949051159e+00  1.0090182282594113e+00  9.9803859419917862e-01  9.9838464366876301e-01  1.0004797515747543e+00  9.9996644655843825e-01  1.0004843925241056e+00  9.9985401290929954e-01  9.9660380190924291e-01  1.0029242474103344e+00  1.0121703472107357e+00  1.0019047009078237e+00  9.7627186060927873e-01  9.3963136708228567e-01  9.7047056218726480e-01  1.0257265064141865e+00  1.0184394491223749e+00  1.0544576894372899e+00  1.1156906250126466e+00  1.1613552003964007e+00  1.1754485059389546e+00  1.1953061775812528e+00  1.1930827501818098e+00  1.1924982982073418e+00  1.1926172457266855e+00  1.1925961992410841e+00  1.1925971576121059e+00  1.1925974995428568e+00  1.1925973524251758e+00  1.1925973441886679e+00  1.1925972410923322e+00  1.1925969902528604e+00  1.1925965318092253e+00  1.1925958765701263e+00  1.1925951171857510e+00  1.1925943522246998e+00  1.1925935660235074e+00  1.1925925485606390e+00  1.1925912106000265e+00  1.1925904062414281e+00  1.1925917616606041e+00  1.1925949932743491e+00  1.1925955871195091e+00  1.1925929115616840e+00  1.1927387057205507e+00  1.1912635721364877e+00  1.2005989487545425e+00  1.1395065429228219e+00  1.0686697608347415e+00  1.0712793501187070e+00  1.0599858999954859e+00  1.0688205742388783e+00  1.0622789197525560e+00  1.1589495477105316e+00  1.2081153876961310e+00  1.1637954550943546e+00  1.0552901865822646e+00  9.6279679703949506e-01  9.8195714819568058e-01  1.0109729780127181e+00  9.9884826479292776e-01  9.9931252613419441e-01  1.0005385366652377e+00  9.9956531280689975e-01  1.0001367095996343e+00  1.0005967776305338e+00  1.0002244596023921e+00  9.9797632382877499e-01  9.9610167935247040e-01  9.9789231230565678e-01  1.0008750693621216e+00  1.0053196041933710e+00  1.0104710507043728e+00  1.0152179737503373e+00  1.0139423454906420e+00  1.0009484876579540e+00  9.9270086562251125e-01  9.9321824175980311e-01  9.9370473884160437e-01  9.9312587685555065e-01  9.8900969519056303e-01  9.7704989073130943e-01  9.6516248162673646e-01  9.6246988303227587e-01  9.5885635596539454e-01  9.5190520193391237e-01  9.4840374790377635e-01  9.4807021582962825e-01  9.4825033259846581e-01  9.4910321047864876e-01  9.4547281342241929e-01  9.5845156456959102e-01  9.7585786785719864e-01  9.9217322973316679e-01  1.0188390515256944e+00  1.0272008787668769e+00  1.0218256254711480e+00  1.0312376902671059e+00  1.0679471423033597e+00  1.1158954986520593e+00  1.1469070807585247e+00  1.1651604139927307e+00  1.1949509435716394e+00  1.2262852389380476e+00  9.7366276472770419e-01  9.0617407099525715e-01  9.2102911726933556e-01  5.8554900643720154e-01  3.0624603590874355e-01  5.7493095808593221e-02  8.1650280634016442e-02  -4.7943021180012327e-02  -1.3667007545111526e-01  -1.8435761385934449e-01  -1.8631981952673757e-01  -1.3285393093673734e-01  -2.8725240018753512e-02  8.9914266886414809e-02  6.2669153441770431e-02  3.3482469165119089e-01  6.2490822283742165e-01  9.3988389656362592e-01  9.0780411610111389e-01  1.0508875496584589e+00  1.2256481287811116e+00  1.1876264457464203e+00  1.1632303937005990e+00  1.1388744879951156e+00  1.1326008470720246e+00  1.1348504543980757e+00  1.1332755738985192e+00  1.1139492174517587e+00  1.0754416464594518e+00  1.0511444585443432e+00  1.0405572379508643e+00  1.0277593689603559e+00  1.0229861611589774e+00  1.0270019309067997e+00  1.0179030916887104e+00  9.9037647877529023e-01  9.7786078232788387e-01  9.7108861678892489e-01  9.5515109425539468e-01  9.4923018753909694e-01  9.4859596240865529e-01  9.4835553065983946e-01  9.4848940964918116e-01  9.4828346070406522e-01  9.4738633284751017e-01  9.5115537959226326e-01  9.5773598819462957e-01  9.6211495611110376e-01  9.6924778467209227e-01  9.8420145435552242e-01  9.9435682061716479e-01  9.9287887315277257e-01  1.0007024953168453e+00  1.0141061318920290e+00  1.0091788936441501e+00  9.9818915542104092e-01  9.9807308147860385e-01  1.0008813495583369e+00  9.9892333356072183e-01  9.9889242237100051e-01  1.0633922551805250e+00  3.9374079062194656e-01  -2.4893983214310678e-02  -2.9683782166822219e-03  -2.6393353970943279e-03  2.9817191056179188e-03  -1.0455027756696095e-03  6.8519700119569143e-05  1.2717522779564353e-04  -6.1712144196483335e-05  6.7350477347681738e-06  5.5655673522297431e-06  -3.6966689044896464e-06  9.4379822322914262e-07  6.6374176830451654e-08  -1.5976805507417430e-07  7.2851707542242731e-08  -1.8373315935536071e-08  1.1731250176274764e-09  1.4412538786573670e-09  -8.9904987226479224e-10  3.3245143697353404e-10  -8.8476397856262663e-11  1.5624592923269378e-11  -3.6444388927024162e-13  -1.0781798598603827e-12  5.5254877751325147e-13  -1.8613138709123344e-13  4.9571841424148724e-14  -1.0843989316129806e-14  1.9141320405936654e-15  -2.4541537701527150e-16  1.0971327319867707e-17  5.3718936066787595e-18  -2.0704312358212617e-18  4.1032619862883694e-19  -4.4729778791360847e-20  -5.7150825857301816e-21  1.0856177115971637e+00  1.0284256441734747e+00  1.0411456183363492e+00  1.0588837902713675e+00  1.1068586242660721e+00  1.1598662346758557e+00  1.1739666051220052e+00  1.1977710639678050e+00  1.2016191933989460e+00  1.1371894330396246e+00  1.0118194858448766e+00  9.0284483949357341e-01  9.0846820793824024e-01  9.1144932723886385e-01  8.6730089771813201e-01  8.4072913298756768e-01  8.3768343214442631e-01  8.3884050322652493e-01  8.4889231899038298e-01  9.0195835415286740e-01  9.0950415018167419e-01  9.0187118184142046e-01  9.7851599238212339e-01  1.0691240417025145e+00  1.2175008519294019e+00  1.1950907478522321e+00  1.1773309131406386e+00  1.1230839509092809e+00  1.0365805715511662e+00  9.6892811140911606e-01  9.4449466312351882e-01  9.9406924166552268e-01  1.0103695914734117e+00  9.9989784204257559e-01  9.9885348774455596e-01  1.0005321761924464e+00  9.9694308089297246e-01  1.0063544843549157e+00  1.0102385560101557e+00  9.6554945214810028e-01  9.6175689205419823e-01  1.0385795296445475e+00  1.1466556928382261e+00  1.2408344419250892e+00  9.5660304695474752e-01  9.0741305902479108e-01  9.1742959931002965e-01  6.5469552072585946e-01  5.0003836697972992e-01  2.8633138795023577e-01  1.3905741617852488e-01  9.3060645908640868e-02  9.2290950686134479e-02  9.1537981078039551e-02  9.1423105105877214e-02  9.1397705870253351e-02  9.1384170806923390e-02  9.1379842550575838e-02  9.1379005965353075e-02  9.1381546994157820e-02  9.1387573392176569e-02  9.1397226275394094e-02  9.1410347238988471e-02  9.1425962197444421e-02  9.1442660804932782e-02  9.1459867218306970e-02  9.1478635407721429e-02  9.1499575584871692e-02  9.1515642096628019e-02  9.1508568656246611e-02  9.1469835710552796e-02  9.1418699108268497e-02  9.1391200530610492e-02  9.1320134793719865e-02  9.1419000612170176e-02  9.2129861025374307e-02  7.0951388167896687e-02  -4.9326705769913375e-02  -7.7168739313564855e-02  -8.6382325257678888e-02  -8.9091943285421846e-02  -7.9286329417982540e-02  -4.4858003695952532e-02  9.1023160983042445e-02  6.2362973208065060e-02  5.5755447147796156e-01  1.0163287015144098e+00  1.1591747359793825e+00  9.6483774657334720e-01  9.9041450772968509e-01  1.0075639041140223e+00  9.9658218459173653e-01  1.0013840500247482e+00  1.0004997799432882e+00  9.9856158540742201e-01  9.9779171194227345e-01  1.0022396803820568e+00  1.0124270144682168e+00  1.0132145562975610e+00  1.0012846694214852e+00  9.9087800251811653e-01  9.6894204813337148e-01  9.5370622155588247e-01  9.3887577220956631e-01  9.6810799047041107e-01  1.0206265778684191e+00  1.0256203138671431e+00  1.0246550274785369e+00  1.0231304383250088e+00  1.0312639458710318e+00  1.0574958027972556e+00  1.1128924133928848e+00  1.1376404603273915e+00  1.1418856513213431e+00  1.1667303099563933e+00  1.1874511874499207e+00  1.1929164705259510e+00  1.1923145735808494e+00  1.1916218516401473e+00  1.1901946358599031e+00  1.1999608116870140e+00  1.1044526154424286e+00  1.0756038961435288e+00  9.7356968438406555e-01  9.0299197975683565e-01  9.0741577868919687e-01  9.1692782453584964e-01  8.2600188411851527e-01  6.5898076951278584e-01  4.9539877178100850e-01  4.2178881341713498e-01  9.7003226661345393e-02  9.0469747368764356e-02  3.1892547190741562