<?xml version="1.0"?>
<VTKFile type="UnstructuredGrid"  version="0.1"  >
<UnstructuredGrid>
<Piece  NumberOfPoints="7161" NumberOfCells="13800">
<Points>
<DataArray  type="Float64"  NumberOfComponents="3"  format="ascii">0 0 0  0.01652173913043478 0 0  0.03304347826086956 0 0  0.04956521739130434 0 0  0.06608695652173913 0 0  0.08260869565217391 0 0  0.09913043478260869 0 0  0.1156521739130435 0 0  0.1321739130434783 0 0  0.148695652173913 0 0  0.1652173913043478 0 0  0.1817391304347826 0 0  0.1982608695652174 0 0  0.2147826086956522 0 0  0.2313043478260869 0 0  0.2478260869565218 0 0  0.2643478260869565 0 0  0.2808695652173913 0 0  0.2973913043478261 0 0  0.3139130434782609 0 0  0.3304347826086956 0 0  0.3469565217391304 0 0  0.3634782608695652 0 0  0.3799999999999999 0 0  0.3965217391304348 0 0  0.4130434782608696 0 0  0.4295652173913043 0 0  0.4460869565217391 0 0  0.4626086956521739 0 0  0.4791304347826086 0 0  0.4956521739130435 0 0  0.5121739130434783 0 0  0.528695652173913 0 0  0.5452173913043478 0 0  0.5617391304347825 0 0  0.5782608695652174 0 0  0.5947826086956521 0 0  0.6113043478260869 0 0  0.6278260869565218 0 0  0.6443478260869565 0 0  0.6608695652173913 0 0  0.677391304347826 0 0  0.6939130434782609 0 0  0.7104347826086956 0 0  0.7269565217391304 0 0  0.7434782608695653 0 0  0.7599999999999999 0 0  0.7765217391304348 0 0  0.7930434782608695 0 0  0.8095652173913043 0 0  0.8260869565217391 0 0  0.8426086956521739 0 0  0.8591304347826086 0 0  0.8756521739130434 0 0  0.8921739130434783 0 0  0.908695652173913 0 0  0.9252173913043478 0 0  0.9417391304347826 0 0  0.9582608695652173 0 0  0.9747826086956521 0 0  0.991304347826087 0 0  1.007826086956522 0 0  1.024347826086957 0 0  1.040869565217391 0 0  1.057391304347826 0 0  1.073913043478261 0 0  1.090434782608696 0 0  1.10695652173913 0 0  1.123478260869565 0 0  1.14 0 0  1.156521739130435 0 0  1.17304347826087 0 0  1.189565217391304 0 0  1.206086956521739 0 0  1.222608695652174 0 0  1.239130434782609 0 0  1.255652173913044 0 0  1.272173913043478 0 0  1.288695652173913 0 0  1.305217391304348 0 0  1.321739130434783 0 0  1.338260869565217 0 0  1.354782608695652 0 0  1.371304347826087 0 0  1.387826086956522 0 0  1.404347826086957 0 0  1.420869565217391 0 0  1.437391304347826 0 0  1.453913043478261 0 0  1.470434782608696 0 0  1.486956521739131 0 0  1.503478260869565 0 0  1.52 0 0  1.536521739130435 0 0  1.55304347826087 0 0  1.569565217391304 0 0  1.586086956521739 0 0  1.602608695652174 0 0  1.619130434782609 0 0  1.635652173913043 0 0  1.652173913043478 0 0  1.668695652173913 0 0  1.685217391304348 0 0  1.701739130434782 0 0  1.718260869565217 0 0  1.734782608695652 0 0  1.751304347826087 0 0  1.767826086956522 0 0  1.784347826086957 0 0  1.800869565217391 0 0  1.817391304347826 0 0  1.833913043478261 0 0  1.850434782608696 0 0  1.86695652173913 0 0  1.883478260869565 0 0  1.9 0 0  1.916521739130435 0 0  1.933043478260869 0 0  1.949565217391304 0 0  1.966086956521739 0 0  1.982608695652174 0 0  1.999130434782608 0 0  2.015652173913043 0 0  2.032173913043478 0 0  2.048695652173913 0 0  2.065217391304348 0 0  2.081739130434782 0 0  2.098260869565217 0 0  2.114782608695652 0 0  2.131304347826087 0 0  2.147826086956522 0 0  2.164347826086956 0 0  2.180869565217391 0 0  2.197391304347826 0 0  2.213913043478261 0 0  2.230434782608695 0 0  2.24695652173913 0 0  2.263478260869565 0 0  2.28 0 0  2.296521739130434 0 0  2.31304347826087 0 0  2.329565217391304 0 0  2.346086956521739 0 0  2.362608695652174 0 0  2.379130434782609 0 0  2.395652173913044 0 0  2.412173913043478 0 0  2.428695652173913 0 0  2.445217391304348 0 0  2.461739130434782 0 0  2.478260869565217 0 0  2.494782608695652 0 0  2.511304347826087 0 0  2.527826086956522 0 0  2.544347826086956 0 0  2.560869565217391 0 0  2.577391304347826 0 0  2.593913043478261 0 0  2.610434782608696 0 0  2.62695652173913 0 0  2.643478260869565 0 0  2.66 0 0  2.676521739130435 0 0  2.693043478260869 0 0  2.709565217391304 0 0  2.726086956521739 0 0  2.742608695652174 0 0  2.759130434782609 0 0  2.775652173913044 0 0  2.792173913043478 0 0  2.808695652173913 0 0  2.825217391304347 0 0  2.841739130434783 0 0  2.858260869565217 0 0  2.874782608695652 0 0  2.891304347826087 0 0  2.907826086956522 0 0  2.924347826086957 0 0  2.940869565217391 0 0  2.957391304347826 0 0  2.973913043478261 0 0  2.990434782608696 0 0  3.006956521739131 0 0  3.023478260869565 0 0  3.04 0 0  3.056521739130435 0 0  3.073043478260869 0 0  3.089565217391304 0 0  3.106086956521739 0 0  3.122608695652174 0 0  3.139130434782609 0 0  3.155652173913043 0 0  3.172173913043478 0 0  3.188695652173913 0 0  3.205217391304347 0 0  3.221739130434782 0 0  3.238260869565217 0 0  3.254782608695652 0 0  3.271304347826087 0 0  3.287826086956521 0 0  3.304347826086957 0 0  3.320869565217391 0 0  3.337391304347826 0 0  3.353913043478261 0 0  3.370434782608696 0 0  3.386956521739131 0 0  3.403478260869565 0 0  3.419999999999999 0 0  3.436521739130435 0 0  3.453043478260869 0 0  3.469565217391304 0 0  3.486086956521739 0 0  3.502608695652174 0 0  3.519130434782609 0 0  3.535652173913043 0 0  3.552173913043478 0 0  3.568695652173913 0 0  3.585217391304347 0 0  3.601739130434782 0 0  3.618260869565217 0 0  3.634782608695652 0 0  3.651304347826087 0 0  3.667826086956521 0 0  3.684347826086956 0 0  3.700869565217391 0 0  3.717391304347826 0 0  3.733913043478261 0 0  3.750434782608695 0 0  3.766956521739131 0 0  3.783478260869565 0 0  3.8 0 0  0 0.01666666666666667 0  0.01652173913043478 0.01666666666666667 0  0.03304347826086956 0.01666666666666667 0  0.04956521739130434 0.01666666666666667 0  0.06608695652173913 0.01666666666666667 0  0.08260869565217391 0.01666666666666667 0  0.09913043478260869 0.01666666666666667 0  0.1156521739130435 0.01666666666666667 0  0.1321739130434783 0.01666666666666667 0  0.148695652173913 0.01666666666666667 0  0.1652173913043478 0.01666666666666667 0  0.1817391304347826 0.01666666666666667 0  0.1982608695652174 0.01666666666666667 0  0.2147826086956522 0.01666666666666667 0  0.2313043478260869 0.01666666666666667 0  0.2478260869565218 0.01666666666666667 0  0.2643478260869565 0.01666666666666667 0  0.2808695652173913 0.01666666666666667 0  0.2973913043478261 0.01666666666666667 0  0.3139130434782609 0.01666666666666667 0  0.3304347826086956 0.01666666666666667 0  0.3469565217391304 0.01666666666666667 0  0.3634782608695652 0.01666666666666667 0  0.3799999999999999 0.01666666666666667 0  0.3965217391304348 0.01666666666666667 0  0.4130434782608696 0.01666666666666667 0  0.4295652173913043 0.01666666666666667 0  0.4460869565217391 0.01666666666666667 0  0.4626086956521739 0.01666666666666667 0  0.4791304347826086 0.01666666666666667 0  0.4956521739130435 0.01666666666666667 0  0.5121739130434783 0.01666666666666667 0  0.528695652173913 0.01666666666666667 0  0.5452173913043478 0.01666666666666667 0  0.5617391304347825 0.01666666666666667 0  0.5782608695652174 0.01666666666666667 0  0.5947826086956521 0.01666666666666667 0  0.6113043478260869 0.01666666666666667 0  0.6278260869565218 0.01666666666666667 0  0.6443478260869565 0.01666666666666667 0  0.6608695652173913 0.01666666666666667 0  0.677391304347826 0.01666666666666667 0  0.6939130434782609 0.01666666666666667 0  0.7104347826086956 0.01666666666666667 0  0.7269565217391304 0.01666666666666667 0  0.7434782608695653 0.01666666666666667 0  0.7599999999999999 0.01666666666666667 0  0.7765217391304348 0.01666666666666667 0  0.7930434782608695 0.01666666666666667 0  0.8095652173913043 0.01666666666666667 0  0.8260869565217391 0.01666666666666667 0  0.8426086956521739 0.01666666666666667 0  0.8591304347826086 0.01666666666666667 0  0.8756521739130434 0.01666666666666667 0  0.8921739130434783 0.01666666666666667 0  0.908695652173913 0.01666666666666667 0  0.9252173913043478 0.01666666666666667 0  0.9417391304347826 0.01666666666666667 0  0.9582608695652173 0.01666666666666667 0  0.9747826086956521 0.01666666666666667 0  0.991304347826087 0.01666666666666667 0  1.007826086956522 0.01666666666666667 0  1.024347826086957 0.01666666666666667 0  1.040869565217391 0.01666666666666667 0  1.057391304347826 0.01666666666666667 0  1.073913043478261 0.01666666666666667 0  1.090434782608696 0.01666666666666667 0  1.10695652173913 0.01666666666666667 0  1.123478260869565 0.01666666666666667 0  1.14 0.01666666666666667 0  1.156521739130435 0.01666666666666667 0  1.17304347826087 0.01666666666666667 0  1.189565217391304 0.01666666666666667 0  1.206086956521739 0.01666666666666667 0  1.222608695652174 0.01666666666666667 0  1.239130434782609 0.01666666666666667 0  1.255652173913044 0.01666666666666667 0  1.272173913043478 0.01666666666666667 0  1.288695652173913 0.01666666666666667 0  1.305217391304348 0.01666666666666667 0  1.321739130434783 0.01666666666666667 0  1.338260869565217 0.01666666666666667 0  1.354782608695652 0.01666666666666667 0  1.371304347826087 0.01666666666666667 0  1.387826086956522 0.01666666666666667 0  1.404347826086957 0.01666666666666667 0  1.420869565217391 0.01666666666666667 0  1.437391304347826 0.01666666666666667 0  1.453913043478261 0.01666666666666667 0  1.470434782608696 0.01666666666666667 0  1.486956521739131 0.01666666666666667 0  1.503478260869565 0.01666666666666667 0  1.52 0.01666666666666667 0  1.536521739130435 0.01666666666666667 0  1.55304347826087 0.01666666666666667 0  1.569565217391304 0.01666666666666667 0  1.586086956521739 0.01666666666666667 0  1.602608695652174 0.01666666666666667 0  1.619130434782609 0.01666666666666667 0  1.635652173913043 0.01666666666666667 0  1.652173913043478 0.01666666666666667 0  1.668695652173913 0.01666666666666667 0  1.685217391304348 0.01666666666666667 0  1.701739130434782 0.01666666666666667 0  1.718260869565217 0.01666666666666667 0  1.734782608695652 0.01666666666666667 0  1.751304347826087 0.01666666666666667 0  1.767826086956522 0.01666666666666667 0  1.784347826086957 0.01666666666666667 0  1.800869565217391 0.0166666666666666
[...]
<PointData  Vectors="Displacement"> 
<DataArray  type="Float64"  Name="Displacement"  NumberOfComponents="3" format="ascii">0.0000000000000000e+00 0.0000000000000000e+00 0.0000000000000000e+00  5.0050405087050950e-05 2.4708438936739465e-05 0.0000000000000000e+00  9.8885639803981861e-05 6.2652704471621103e-05 0.0000000000000000e+00  1.4905210508237246e-04 1.2327697408753935e-04 0.0000000000000000e+00  2.0114385231040141e-04 2.0879541718876542e-04 0.0000000000000000e+00  2.5550026077347506e-04 3.2160071290259531e-04 0.0000000000000000e+00  3.1204369024800602e-04 4.6409033628757706e-04 0.0000000000000000e+00  3.7013583650323859e-04 6.3842765758190267e-04 0.0000000000000000e+00  4.2910553328088418e-04 8.4535720144596584e-04 0.0000000000000000e+00  4.8893525223676828e-04 1.0850023232882014e-03 0.0000000000000000e+00  5.5033129539643684e-04 1.3580172824462320e-03 0.0000000000000000e+00  6.1399050335388409e-04 1.6673860950955929e-03 0.0000000000000000e+00  6.8001109588894338e-04 2.0165647230224837e-03 0.0000000000000000e+00  7.4760446876235187e-04 2.4088930941652724e-03 0.0000000000000000e+00  8.1588657329069360e-04 2.8455821513691916e-03 0.0000000000000000e+00  8.8421184188287329e-04 3.3268077065041835e-03 0.0000000000000000e+00  9.5186950181193537e-04 3.8523931478908419e-03 0.0000000000000000e+00  1.0178935466792565e-03 4.4213032541766031e-03 0.0000000000000000e+00  1.0816838550799423e-03 5.0310156803923135e-03 0.0000000000000000e+00  1.1431607646597973e-03 5.6782906443542704e-03 0.0000000000000000e+00  1.2023898739096581e-03 6.3609119225723071e-03 0.0000000000000000e+00  1.2596440014641618e-03 7.0766453566679949e-03 0.0000000000000000e+00  1.3154058730013604e-03 7.8236237474429600e-03 0.0000000000000000e+00  1.3701787589110214e-03 8.6009849961184021e-03 0.0000000000000000e+00  1.4242806443468289e-03 9.4084910021714797e-03 0.0000000000000000e+00  1.4777139608051883e-03 1.0246166780699591e-02 0.0000000000000000e+00  1.5299960731681632e-03 1.1113936845605552e-02 0.0000000000000000e+00  1.5801851386230566e-03 1.2010972274176470e-02 0.0000000000000000e+00  1.6273966293350419e-03 1.2934900713515808e-02 0.0000000000000000e+00  1.6712092151405285e-03 1.3882626445576658e-02 0.0000000000000000e+00  1.7115512277890617e-03 1.4851089613313931e-02 0.0000000000000000e+00  1.7484054472774913e-03 1.5837657036184827e-02 0.0000000000000000e+00  1.7819000210838128e-03 1.6839710348214819e-02 0.0000000000000000e+00  1.8122607671723964e-03 1.7854924634080123e-02 0.0000000000000000e+00  1.8399252597342667e-03 1.8881084768249342e-02 0.0000000000000000e+00  1.8656865981158842e-03 1.9916313881933427e-02 0.0000000000000000e+00  1.8906370765698597e-03 2.0959530376807672e-02 0.0000000000000000e+00  1.9160463492696852e-03 2.2010567051309105e-02 0.0000000000000000e+00  1.9432452085200265e-03 2.3070257756824329e-02 0.0000000000000000e+00  1.9734745575762632e-03 2.4140617611225761e-02 0.0000000000000000e+00  2.0076033200152939e-03 2.5224808877386561e-02 0.0000000000000000e+00  2.0459487030799212e-03 2.6326553968462924e-02 0.0000000000000000e+00  2.0885411255424993e-03 2.7449846103927353e-02 0.0000000000000000e+00  2.1352708110868391e-03 2.8598683358196302e-02 0.0000000000000000e+00  2.1854898162107688e-03 2.9777130215402799e-02 0.0000000000000000e+00  2.2388341637896714e-03 3.0988788185181627e-02 0.0000000000000000e+00  2.2957582439806752e-03 3.2236414962342606e-02 0.0000000000000000e+00  2.3562164252817386e-03 3.3524893470248486e-02 0.0000000000000000e+00  2.4200014019031980e-03 3.4858934820380605e-02 0.0000000000000000e+00  2.4865595131127981e-03 3.6242442045614401e-02 0.0000000000000000e+00  2.5546691602930300e-03 3.7678823014169721e-02 0.0000000000000000e+00  2.6232790449301417e-03 3.9168937797914805e-02 0.0000000000000000e+00  2.6917418640743478e-03 4.0712583510193981e-02 0.0000000000000000e+00  2.7597412821565108e-03 4.2309264246707133e-02 0.0000000000000000e+00  2.8271500444990052e-03 4.3958461027217226e-02 0.0000000000000000e+00  2.8939078732387528e-03 4.5659653689179285e-02 0.0000000000000000e+00  2.9599824031074618e-03 4.7412307366781176e-02 0.0000000000000000e+00  3.0253579990178795e-03 4.9215869249523182e-02 0.0000000000000000e+00  3.0900344438918388e-03 5.1069779586437068e-02 0.0000000000000000e+00  3.1540237583457249e-03 5.2973489237964945e-02 0.0000000000000000e+00  3.2173422375200225e-03 5.4926472023939306e-02 0.0000000000000000e+00  3.2800009057051497e-03 5.6928223814792477e-02 0.0000000000000000e+00  3.3419997002130056e-03 5.8978248835171436e-02 0.0000000000000000e+00  3.4033288029543547e-03 6.1076041770560162e-02 0.0000000000000000e+00  3.4639762031194116e-03 6.3221076953775282e-02 0.0000000000000000e+00  3.5239366960051919e-03 6.5412811483635647e-02 0.0000000000000000e+00  3.5832166137066222e-03 6.7650700350473617e-02 0.0000000000000000e+00  3.6418312844015144e-03 6.9934214028335495e-02 0.0000000000000000e+00  3.6997968203161084e-03 7.2262847402062208e-02 0.0000000000000000e+00  3.7571213421972796e-03 7.4636114231131756e-02 0.0000000000000000e+00  3.8138020162655777e-03 7.7053530581728050e-02 0.0000000000000000e+00  3.8698247123905749e-03 7.9514594558592389e-02 0.0000000000000000e+00  3.9251931194737508e-03 8.2018777852870609e-02 0.0000000000000000e+00  3.9798688010267416e-03 8.4565512794116879e-02 0.0000000000000000e+00  4.0339268307302417e-03 8.7154100263795442e-02 0.0000000000000000e+00  4.0875892288185552e-03 8.9783887927918152e-02 0.0000000000000000e+00  4.1413016295624673e-03 9.2454681341361380e-02 0.0000000000000000e+00  4.1959607319079694e-03 9.5168860757174803e-02 0.0000000000000000e+00  4.2512080769587799e-03 9.7929992995394899e-02 0.0000000000000000e+00  4.3063752398950564e-03 1.0073835211593367e-01 0.0000000000000000e+00  4.3610462216847092e-03 1.0359408469447533e-01 0.0000000000000000e+00  4.4148281084647033e-03 1.0649653525165426e-01 0.0000000000000000e+00  4.4671310143844832e-03 1.0944445010684228e-01 0.0000000000000000e+00  4.5173247905419501e-03 1.1243418050088221e-01 0.0000000000000000e+00  4.5651771063731153e-03 1.1546287051608373e-01 0.0000000000000000e+00  4.6091668493722371e-03 1.1852852167849910e-01 0.0000000000000000e+00  4.6479103361640227e-03 1.2162487289049936e-01 0.0000000000000000e+00  4.6812642548357489e-03 1.2474459482059554e-01 0.0000000000000000e+00  4.7094948979946602e-03 1.2788186394480758e-01 0.0000000000000000e+00  4.7330109824222930e-03 1.3103263512933658e-01 0.0000000000000000e+00  4.7523382463753984e-03 1.3419331972267681e-01 0.0000000000000000e+00  4.7681080852198616e-03 1.3736099476129984e-01 0.0000000000000000e+00  4.7810669159126492e-03 1.4053352040813968e-01 0.0000000000000000e+00  4.7920084019832969e-03 1.4370942406568865e-01 0.0000000000000000e+00  4.8017018296676265e-03 1.4688783698378080e-01 0.0000000000000000e+00  4.8108381817945720e-03 1.5006840286104459e-01 0.0000000000000000e+00  4.8199812393052658e-03 1.5325117272550809e-01 0.0000000000000000e+00  4.8295364761152841e-03 1.5643649972397750e-01 0.0000000000000000e+00  4.8397429287447705e-03 1.5962491814443813e-01 0.0000000000000000e+00  4.8507098006921115e-03 1.6281701242710889e-01 0.0000000000000000e+00  4.8624652277590025e-03 1.6601335840919754e-01 0.0000000000000000e+00  4.8749933553856256e-03 1.6921448923722240e-01 0.0000000000000000e+00  4.8882469777561510e-03 1.7242091925599734e-01 0.0000000000000000e+00  4.9021376698640340e-03 1.7563317433898384e-01 0.0000000000000000e+00  4.9166273703507646e-03 1.7885166224160307e-01 0.0000000000000000e+00  4.9317322617044596e-03 1.8207684136281410e-01 0.0000000000000000e+00  4.9473062149437332e-03 1.8530940615862632e-01 0.0000000000000000e+00  4.9631118743892555e-03 1.8854970468726376e-01 0.0000000000000000e+00  4.9790041232696267e-03 1.9179775192344714e-01 0.0000000000000000e+00  4.9949953191267080e-03 1.9505349770397459e-01 0.0000000000000000e+00  5.0112281640962526e-03 1.9831704237169362e-01 0.0000000000000000e+00  5.0278409114336113e-03 2.0158877867545483e-01 0.0000000000000000e+00  5.0448237337824822e-03 2.0486927620563533e-01 0.0000000000000000e+00  5.0621007682378951e-03 2.0815890819669897e-01 0.0000000000000000e+00  5.0796242431883770e-03 2.1145792437725322e-01 0.0000000000000000e+00  5.0972925685406362e-03 2.1476665363479053e-01 0.0000000000000000e+00  5.1149538624711771e-03 2.1808525655451516e-01 0.0000000000000000e+00  5.1324656718857060e-03 2.2141370861147741e-01 0.0000000000000000e+00  5.1497466606795200e-03 2.2475184460867595e-01 0.0000000000000000e+00  5.1667654480632283e-03 2.2809948778185440e-01 0.0000000000000000e+00  5.1835132921100322e-03 2.3145647867930763e-01 0.0000000000000000e+00  5.1999860503420293e-03 2.3482267234435567e-01 0.0000000000000000e+00  5.2161783771889963e-03 2.3819792597528128e-01 0.0000000000000000e+00  5.2320843577520915e-03 2.4158209357815355e-01 0.0000000000000000e+00  5.2477055895564046e-03 2.4497501186619228e-01 0.0000000000000000e+00  5.2630428893557148e-03 2.4837653695099393e-01 0.0000000000000000e+00  5.2781025351100134e-03 2.5178649408865789e-01 0.0000000000000000e+00  5.2929277704150453e-03 2.5520471357713442e-01 0.0000000000000000e+00  5.3076165446438875e-03 2.5863109499761677e-01 0.0000000000000000e+00  5.3222801956902413e-03 2.6206566682779603e-01 0.0000000000000000e+00  5.3370704009771319e-03 2.6550865861082790e-01 0.0000000000000000e+00  5.3521311599691616e-03 2.6896039233207608e-01 0.0000000000000000e+00  5.3675337317092902e-03 2.7242135323384781e-01 0.0000000000000000e+00  5.3836616884946897e-03 2.7589206271130079e-01 0.0000000000000000e+00  5.4010070603203331e-03 2.7937362202147414e-01 0.0000000000000000e+00  5.4197524659930826e-03 2.8286812189962907e-01 0.0000000000000000e+00  5.4397240120313160e-03 2.8637741974718633e-01 0.0000000000000000e+00  5.4614696571766491e-03 2.8990390788785148e-01 0.0000000000000000e+00  5.4850188562443189e-03 2.9345154121407196e-01 0.0000000000000000e+00  5.5103294716545934e-03 2.9702414229442126e-01 0.0000000000000000e+00  5.5383826068906971e-03 3.0062873464847195e-01 0.0000000000000000e+00  5.5673278844969509e-03 3.0427129418487026e-01 0.0000000000000000e+00  5.5966076263132738e-03 3.0795287233119800e-01 0.0000000000000000e+00  5.6254271353772161e-03 3.1167297267174088e-01 0.0000000000000000e+00  5.6535987637835435e-03 3.1543079241103167e-01 0.0000000000000000e+00  5.6809707271111270e-03 3.1922541108799030e-01 0.0000000000000000e+00  5.7073901311593131e-03 3.2305605962715417e-01 0.0000000000000000e+00  5.7325609625786984e-03 3.2692171976401468e-01 0.0000000000000000e+00  5.7556771705685036e-03 3.3081920101387230e-01 0.0000000000000000e+00  5.7767874039657656e-03 3.3474313206244255e-01 0.0000000000000000e+00  5.7954520221437152e-03 3.3868810767008117e-01 0.0000000000000000e+00  5.8122283039714695e-03 3.4264961993946325e-01 0.0000000000000000e+00  5.8276738210422440e-03 3.4662597313868543e-01 0.0000000000000000e+00  5.8416187329254823e-03 3.5061456859506140e-01 0.0000000000000000e+00  5.8544425663816530e-03 3.5461330708381300e-01 0.0000000000000000e+00  5.8664168174406804e-03 3.5862156143070445e-01 0.0000000000000000e+00  5.8775649980634427e-03 3.6263852755959514e-01 0.0000000000000000e+00  5.8880279237325354e-03 3.6666334685944513e-01 0.0000000000000000e+00  5.8979586764577726e-03 3.7069550019493769e-01 0.0000000000000000e+00  5.9074443522586124e-03 3.7473470550967708e-01 0.0000000000000000e+00  5.9164563191782989e-03 3.7878068940483905e-01 0.0000000000000000e+00  5.9249087776142113e-03 3.8283301759686339e-01 0.0000000000000000e+00  5.9327697979587530e-03 3.8689106554154173e-01 0.0000000000000000e+00  5.9400781511563449e-03 3.9095420764578370e-01 0.0000000000000000e+00  5.9469033648493035e-03 3.9502197316929344e-01 0.0000000000000000e+00  5.9533248808694523e-03 3.9909400577744308e-01 0.0000000000000000e+00  5.9594142566143102e-03 4.0317003555526187e-01 0.0000000000000000e+00  5.9651864779452727e-03 4.0724988239006144e-01 0.0000000000000000e+00  5.9706029655744479e-03 4.1133332751700113e-01 0.0000000000000000e+00  5.9756446540034482e-03 4.1542003193677879e-01 0.0000000000000000e+00  5.9803336758773289e-03 4.1950963344241415e-01 0.0000000000000000e+00  5.9846969297811586e-03 4.2360188008672028e-01 0.0000000000000000e+00  5.9887621146490983e-03 4.2769654029983251e-01 0.0000000000000000e+00  5.9925623238620369e-03 4.3179339703340619e-01 0.0000000000000000e+00  5.9961330776478238e-03 4.3589228584341483e-01 0.0000000000000000e+00  5.9995000179508878e-03 4.3999308719544789e-01 0.0000000000000000e+00  6.0026840716669201e-03 4.4409568804528704e-01 0.0000000000000000e+00  6.0056980877778981e-03 4.4820000103443458e-01 0.0000000000000000e+00  6.0085488056790858e-03 4.5230593873821107e-01 0.0000000000000000e+00  6.0112397012628800e-03 4.5641341729292856e-01 0.0000000000000000e+00  6.0137664967568408e-03 4.6052235656192814e-01 0.0000000000000000e+00  6.0161139670760260e-03 4.6463266426770189e-01 0.0000000000000000e+00  6.0182687676228605e-03 4.6874422208997518e-01 0.0000000000000000e+00  6.0202231605057058e-03 4.7285689826803773e-01 0.0000000000000000e+00  6.0219700955617883e-03 4.7697055980931785e-01 0.0000000000000000e+00  6.0235158310003390e-03 4.8108506118497946e-01 0.0000000000000000e+00  6.0248756287245211e-03 4.8520027280531708e-01 0.0000000000000000e+00  6.0260592228952433e-03 4.8931609212863147e-01 0.0000000000000000e+00  6.0270749502907544e-03 4.9343241882880667e-01 0.0000000000000000e+00  6.0279245603403510e-03 4.9754916738079413e-01 0.0000000000000000e+00  6.0285925681768920e-03 5.0166624719757780e-01 0.0000000000000000e+00  6.0290821039769788e-03 5.0578356978235639e-01 0.0000000000000000e+00  6.0292766039340669e-03 5.0990089789673332e-01 0.0000000000000000e+00  6.0293863561999882e-03 5.1401827982118931e-01 0.0000000000000000e+00  5.3227674544536890e-03 5.1729552722147765e-01 0.0000000000000000e+00  1.4846895236624641e-02 5.3257684623008072e-01 0.0000000000000000e+00  2.7698256328992737e-02 5.2357333972824271e-01 0.0000000000000000e+00  5.7009856258288638e-02 4.7596374637154354e-01 0.0000000000000000e+00  7.9785016944036252e-02 4.9527468122099272e-01 0.0000000000000000e+00  8.9366261990110316e-02 5.2190086583146256e-01 0.0000000000000000e+00  9.2148910647029916e-02 5.4582640868026100e-01 0.0000000000000000e+00  9.2655127556993844e-02 5.6687057310743572e-01 0.0000000000000000e+00  9.2840948450801597e-02 5.8634477145246300e-01 0.0000000000000000e+00  9.3198403829811288e-02 6.0528480700823617e-01 0.0000000000000000e+00  9.3609029846410396e-02 6.2421181279765947e-01 0.0000000000000000e+00  9.3806269532694511e-02 6.4324589017177491e-01 0.0000000000000000e+00  9.3573689458966075e-02 6.6228172252269757e-01 0.0000000000000000e+00  9.2799674075801447e-02 6.8112671263488833e-01 0.0000000000000000e+00  9.1468740384270317e-02 6.9958379321467978e-01 0.0000000000000000e+00  8.9633027579227073e-02 7.1749117989743216e-01 0.0000000000000000e+00  8.7383525531007478e-02 7.3473559863177995e-01 0.0000000000000000e+00  8.4827740707296789e-02 7.5125156484579914e-01 0.0000000000000000e+00  8.2074672280373545e-02 7.6701455153035059e-01 0.0000000000000000e+00  7.9225843478831715e-02 7.8203236964818834e-01 0.0000000000000000e+00  7.6370686008137290e-02 7.9633688610644238e-01 0.0000000000000000e+00  7.3584770689566412e-02 8.0997695718439011e-01 0.0000000000000000e+00  7.0929742772216114e-02 8.2301280248676056e-01 0.0000000000000000e+00  6.8454168457740522e-02 8.3551173418766655e-01 0.0000000000000000e+00  6.6194772945617361e-02 8.4754503093668687e-01 0.0000000000000000e+00  6.4177745605148731e-02 8.5918571300898383e-01 0.0000000000000000e+00  6.2419918325214707e-02 8.7050698320348208e-01 0.0000000000000000e+00  6.0929705548938930e-02 8.8158111804706840e-01 0.0000000000000000e+00  5.9707744091371535e-02 8.9247860990111239e-01 0.0000000000000000e+00  5.8747200211278723e-02 9.0326736191998391e-01 0.0000000000000000e+00  5.8033732158723712e-02 9.1401171427288397e-01 0.0000000000000000e+00  5.7545122476600596e-02 9.2477101718571630e-01 0.0000000000000000e+00  5.7250648745044951e-02 9.3559734010986528e-01 0.0000000000000000e+00  5.7110391514760425e-02 9.4653167710715080e-01 0.0000000000000000e+00  5.7074997336104036e-02 9.5759763384742924e-01 0.0000000000000000e+00  5.7087303322886127e-02 9.6879127513971353e-01 0.0000000000000000e+00  5.7091733185116705e-02 9.8007026957865118e-01 0.0000000000000000e+00  0.0000000000000000e+00 0.0000000000000000e+00 0.0000000000000000e+00  2.1435854249555602e-05 9.7431906664377822e-06 0.0000000000000000e+00  4.7179522861666632e-05 4.6930597650569848e-05 0.0000000000000000e+00  7.2494057852723494e-05 1.0722155782642787e-04 0.0000000000000000e+00  9.7855708755026257e-05 1.9220468198537658e-04 0.0000000000000000e+00  1.2352199094306930e-04 3.0433235057890601e-04 0.0000000000000000e+00  1.4965133757147294e-04 4.4619665587179627e-04 0.0000000000000000e+00  1.7598688978975082e-04 6.2025528233460307e-04 0.0000000000000000e+00  2.0222255740404179e-04 8.2725086937996653e-04 0.0000000000000000e+00  2.2798693270538605e-04 1.0669264186701057e-03 0.0000000000000000e+00  2.5343668933561507e-04 1.3395611136835586e-03 0.0000000000000000e+00  2.7859478424857316e-04 1.6482992249727065e-03 0.0000000000000000e+00  3.0362752115557014e-04 1.9967527590040927e-03 0.0000000000000000e+00  3.2851051119134876e-04 2.3887584420060276e-03 0.0000000000000000e+00  3.5310908915642475e-04 2.8253366572469000e-03 0.0000000000000000e+00  3.7754369600400192e-04 3.3064981457826916e-03 0.0000000000000000e+00  4.0200032661904980e-04 3.8321429798225878e-03 0.0000000000000000e+00  4.2656687752020198e-04 4.4015266569169629e-03 0.0000000000000000e+00  4.5098427188853353e-04 5.0118982990132298e-03 0.0000000000000000e+00  4.7536257771129819e-04 5.6596943468319588e-03 0.0000000000000000e+00  4.9973067668383645e-04 6.3429177496177238e-03 0.0000000000000000e+00  5.2389808411349369e-04 7.0592002143925045e-03 0.0000000000000000e+00  5.4788069034480741e-04 7.8065344955208817e-03 0.0000000000000000e+00  5.7171835628175196e-04 8.5840812446640949e-03 0.0000000000000000e+00  5.9545998698102372e-04 9.3916426001950312e-03 0.0000000000000000e+00  6.1915970782011696e-04 1.0229333281734013e-02 0.0000000000000000e+00  6.4274714605252223e-04 1.1097321997827205e-02 0.0000000000000000e+00  6.6585090482756731e-04 1.1994979980634007e-02 0.0000000000000000e+00  6.8819272039746836e-04 1.2919792505495948e-02 0.0000000000000000e+00  7.0971186489095879e-04 1.3868504671254589e-02 0.0000000000000000e+00  7.3036207601234391e-04 1.4837944161428722e-02 0.0000000000000000e+00  7.5006547625306461e-04 1.5825534979876980e-02 0.0000000000000000e+00  7.6874790894539743e-04 1.6828607469488902e-02 0.0000000000000000e+00  7.8630831567230209e-04 1.7844819476360810e-02 0.0000000000000000e+00  8.0279632613072967e-04 1.8871856267370396e-02 0.0000000000000000e+00  8.1846406797632908e-04 1.9907691203551639e-02 0.0000000000000000e+00  8.3369846670017147e-04 2.0951169095902666e-02 0.0000000000000000e+00  8.4893593746233041e-04 2.2002077470525825e-02 0.0000000000000000e+00  8.6463302831304447e-04 2.3061221096373687e-02 0.0000000000000000e+00  8.8118415981561335e-04 2.4130665259625230e-02 0.0000000000000000e+00  8.9877767036168133e-04 2.5213731705612891e-02 0.0000000000000000e+00  9.1739548747941783e-04 2.6314382637160807e-02 0.0000000000000000e+00  9.3657543092573947e-04 2.7436728704261032e-02 0.0000000000000000e+00  9.5579888625102916e-04 2.8584577709292739e-02 0.0000000000000000e+00  9.7502968220609932e-04 2.9762340242875003e-02 0.0000000000000000e+00  9.9368210017674197e-04 3.0973629818247875e-02 0.0000000000000000e+00  1.0115647562068657e-03 3.2220322182889539e-02 0.0000000000000000e+00  1.0291525412568403e-03 3.3507934969495577e-02 0.0000000000000000e+00  1.0461698281053172e-03 3.4841188483373767e-02 0.0000000000000000e+00  1.0626945036615468e-03 3.6223941521028674e-02 0.0000000000000000e+00  1.0787509700333556e-03 3.7660074971900263e-02 0.0000000000000000e+00  1.0943444506910950e-03 3.9150217255709080e-02 0.0000000000000000e+00  1.1095715821196274e-03 4.0693992352908201e-02 0.0000000000000000e+