<?xml version="1.0"?>
<VTKFile type="UnstructuredGrid"  version="0.1"  >
<UnstructuredGrid>
<Piece  NumberOfPoints="7161" NumberOfCells="13800">
<Points>
<DataArray  type="Float64"  NumberOfComponents="3"  format="ascii">0 0 0  0.01652173913043478 0 0  0.03304347826086956 0 0  0.04956521739130434 0 0  0.06608695652173913 0 0  0.08260869565217391 0 0  0.09913043478260869 0 0  0.1156521739130435 0 0  0.1321739130434783 0 0  0.148695652173913 0 0  0.1652173913043478 0 0  0.1817391304347826 0 0  0.1982608695652174 0 0  0.2147826086956522 0 0  0.2313043478260869 0 0  0.2478260869565218 0 0  0.2643478260869565 0 0  0.2808695652173913 0 0  0.2973913043478261 0 0  0.3139130434782609 0 0  0.3304347826086956 0 0  0.3469565217391304 0 0  0.3634782608695652 0 0  0.3799999999999999 0 0  0.3965217391304348 0 0  0.4130434782608696 0 0  0.4295652173913043 0 0  0.4460869565217391 0 0  0.4626086956521739 0 0  0.4791304347826086 0 0  0.4956521739130435 0 0  0.5121739130434783 0 0  0.528695652173913 0 0  0.5452173913043478 0 0  0.5617391304347825 0 0  0.5782608695652174 0 0  0.5947826086956521 0 0  0.6113043478260869 0 0  0.6278260869565218 0 0  0.6443478260869565 0 0  0.6608695652173913 0 0  0.677391304347826 0 0  0.6939130434782609 0 0  0.7104347826086956 0 0  0.7269565217391304 0 0  0.7434782608695653 0 0  0.7599999999999999 0 0  0.7765217391304348 0 0  0.7930434782608695 0 0  0.8095652173913043 0 0  0.8260869565217391 0 0  0.8426086956521739 0 0  0.8591304347826086 0 0  0.8756521739130434 0 0  0.8921739130434783 0 0  0.908695652173913 0 0  0.9252173913043478 0 0  0.9417391304347826 0 0  0.9582608695652173 0 0  0.9747826086956521 0 0  0.991304347826087 0 0  1.007826086956522 0 0  1.024347826086957 0 0  1.040869565217391 0 0  1.057391304347826 0 0  1.073913043478261 0 0  1.090434782608696 0 0  1.10695652173913 0 0  1.123478260869565 0 0  1.14 0 0  1.156521739130435 0 0  1.17304347826087 0 0  1.189565217391304 0 0  1.206086956521739 0 0  1.222608695652174 0 0  1.239130434782609 0 0  1.255652173913044 0 0  1.272173913043478 0 0  1.288695652173913 0 0  1.305217391304348 0 0  1.321739130434783 0 0  1.338260869565217 0 0  1.354782608695652 0 0  1.371304347826087 0 0  1.387826086956522 0 0  1.404347826086957 0 0  1.420869565217391 0 0  1.437391304347826 0 0  1.453913043478261 0 0  1.470434782608696 0 0  1.486956521739131 0 0  1.503478260869565 0 0  1.52 0 0  1.536521739130435 0 0  1.55304347826087 0 0  1.569565217391304 0 0  1.586086956521739 0 0  1.602608695652174 0 0  1.619130434782609 0 0  1.635652173913043 0 0  1.652173913043478 0 0  1.668695652173913 0 0  1.685217391304348 0 0  1.701739130434782 0 0  1.718260869565217 0 0  1.734782608695652 0 0  1.751304347826087 0 0  1.767826086956522 0 0  1.784347826086957 0 0  1.800869565217391 0 0  1.817391304347826 0 0  1.833913043478261 0 0  1.850434782608696 0 0  1.86695652173913 0 0  1.883478260869565 0 0  1.9 0 0  1.916521739130435 0 0  1.933043478260869 0 0  1.949565217391304 0 0  1.966086956521739 0 0  1.982608695652174 0 0  1.999130434782608 0 0  2.015652173913043 0 0  2.032173913043478 0 0  2.048695652173913 0 0  2.065217391304348 0 0  2.081739130434782 0 0  2.098260869565217 0 0  2.114782608695652 0 0  2.131304347826087 0 0  2.147826086956522 0 0  2.164347826086956 0 0  2.180869565217391 0 0  2.197391304347826 0 0  2.213913043478261 0 0  2.230434782608695 0 0  2.24695652173913 0 0  2.263478260869565 0 0  2.28 0 0  2.296521739130434 0 0  2.31304347826087 0 0  2.329565217391304 0 0  2.346086956521739 0 0  2.362608695652174 0 0  2.379130434782609 0 0  2.395652173913044 0 0  2.412173913043478 0 0  2.428695652173913 0 0  2.445217391304348 0 0  2.461739130434782 0 0  2.478260869565217 0 0  2.494782608695652 0 0  2.511304347826087 0 0  2.527826086956522 0 0  2.544347826086956 0 0  2.560869565217391 0 0  2.577391304347826 0 0  2.593913043478261 0 0  2.610434782608696 0 0  2.62695652173913 0 0  2.643478260869565 0 0  2.66 0 0  2.676521739130435 0 0  2.693043478260869 0 0  2.709565217391304 0 0  2.726086956521739 0 0  2.742608695652174 0 0  2.759130434782609 0 0  2.775652173913044 0 0  2.792173913043478 0 0  2.808695652173913 0 0  2.825217391304347 0 0  2.841739130434783 0 0  2.858260869565217 0 0  2.874782608695652 0 0  2.891304347826087 0 0  2.907826086956522 0 0  2.924347826086957 0 0  2.940869565217391 0 0  2.957391304347826 0 0  2.973913043478261 0 0  2.990434782608696 0 0  3.006956521739131 0 0  3.023478260869565 0 0  3.04 0 0  3.056521739130435 0 0  3.073043478260869 0 0  3.089565217391304 0 0  3.106086956521739 0 0  3.122608695652174 0 0  3.139130434782609 0 0  3.155652173913043 0 0  3.172173913043478 0 0  3.188695652173913 0 0  3.205217391304347 0 0  3.221739130434782 0 0  3.238260869565217 0 0  3.254782608695652 0 0  3.271304347826087 0 0  3.287826086956521 0 0  3.304347826086957 0 0  3.320869565217391 0 0  3.337391304347826 0 0  3.353913043478261 0 0  3.370434782608696 0 0  3.386956521739131 0 0  3.403478260869565 0 0  3.419999999999999 0 0  3.436521739130435 0 0  3.453043478260869 0 0  3.469565217391304 0 0  3.486086956521739 0 0  3.502608695652174 0 0  3.519130434782609 0 0  3.535652173913043 0 0  3.552173913043478 0 0  3.568695652173913 0 0  3.585217391304347 0 0  3.601739130434782 0 0  3.618260869565217 0 0  3.634782608695652 0 0  3.651304347826087 0 0  3.667826086956521 0 0  3.684347826086956 0 0  3.700869565217391 0 0  3.717391304347826 0 0  3.733913043478261 0 0  3.750434782608695 0 0  3.766956521739131 0 0  3.783478260869565 0 0  3.8 0 0  0 0.01666666666666667 0  0.01652173913043478 0.01666666666666667 0  0.03304347826086956 0.01666666666666667 0  0.04956521739130434 0.01666666666666667 0  0.06608695652173913 0.01666666666666667 0  0.08260869565217391 0.01666666666666667 0  0.09913043478260869 0.01666666666666667 0  0.1156521739130435 0.01666666666666667 0  0.1321739130434783 0.01666666666666667 0  0.148695652173913 0.01666666666666667 0  0.1652173913043478 0.01666666666666667 0  0.1817391304347826 0.01666666666666667 0  0.1982608695652174 0.01666666666666667 0  0.2147826086956522 0.01666666666666667 0  0.2313043478260869 0.01666666666666667 0  0.2478260869565218 0.01666666666666667 0  0.2643478260869565 0.01666666666666667 0  0.2808695652173913 0.01666666666666667 0  0.2973913043478261 0.01666666666666667 0  0.3139130434782609 0.01666666666666667 0  0.3304347826086956 0.01666666666666667 0  0.3469565217391304 0.01666666666666667 0  0.3634782608695652 0.01666666666666667 0  0.3799999999999999 0.01666666666666667 0  0.3965217391304348 0.01666666666666667 0  0.4130434782608696 0.01666666666666667 0  0.4295652173913043 0.01666666666666667 0  0.4460869565217391 0.01666666666666667 0  0.4626086956521739 0.01666666666666667 0  0.4791304347826086 0.01666666666666667 0  0.4956521739130435 0.01666666666666667 0  0.5121739130434783 0.01666666666666667 0  0.528695652173913 0.01666666666666667 0  0.5452173913043478 0.01666666666666667 0  0.5617391304347825 0.01666666666666667 0  0.5782608695652174 0.01666666666666667 0  0.5947826086956521 0.01666666666666667 0  0.6113043478260869 0.01666666666666667 0  0.6278260869565218 0.01666666666666667 0  0.6443478260869565 0.01666666666666667 0  0.6608695652173913 0.01666666666666667 0  0.677391304347826 0.01666666666666667 0  0.6939130434782609 0.01666666666666667 0  0.7104347826086956 0.01666666666666667 0  0.7269565217391304 0.01666666666666667 0  0.7434782608695653 0.01666666666666667 0  0.7599999999999999 0.01666666666666667 0  0.7765217391304348 0.01666666666666667 0  0.7930434782608695 0.01666666666666667 0  0.8095652173913043 0.01666666666666667 0  0.8260869565217391 0.01666666666666667 0  0.8426086956521739 0.01666666666666667 0  0.8591304347826086 0.01666666666666667 0  0.8756521739130434 0.01666666666666667 0  0.8921739130434783 0.01666666666666667 0  0.908695652173913 0.01666666666666667 0  0.9252173913043478 0.01666666666666667 0  0.9417391304347826 0.01666666666666667 0  0.9582608695652173 0.01666666666666667 0  0.9747826086956521 0.01666666666666667 0  0.991304347826087 0.01666666666666667 0  1.007826086956522 0.01666666666666667 0  1.024347826086957 0.01666666666666667 0  1.040869565217391 0.01666666666666667 0  1.057391304347826 0.01666666666666667 0  1.073913043478261 0.01666666666666667 0  1.090434782608696 0.01666666666666667 0  1.10695652173913 0.01666666666666667 0  1.123478260869565 0.01666666666666667 0  1.14 0.01666666666666667 0  1.156521739130435 0.01666666666666667 0  1.17304347826087 0.01666666666666667 0  1.189565217391304 0.01666666666666667 0  1.206086956521739 0.01666666666666667 0  1.222608695652174 0.01666666666666667 0  1.239130434782609 0.01666666666666667 0  1.255652173913044 0.01666666666666667 0  1.272173913043478 0.01666666666666667 0  1.288695652173913 0.01666666666666667 0  1.305217391304348 0.01666666666666667 0  1.321739130434783 0.01666666666666667 0  1.338260869565217 0.01666666666666667 0  1.354782608695652 0.01666666666666667 0  1.371304347826087 0.01666666666666667 0  1.387826086956522 0.01666666666666667 0  1.404347826086957 0.01666666666666667 0  1.420869565217391 0.01666666666666667 0  1.437391304347826 0.01666666666666667 0  1.453913043478261 0.01666666666666667 0  1.470434782608696 0.01666666666666667 0  1.486956521739131 0.01666666666666667 0  1.503478260869565 0.01666666666666667 0  1.52 0.01666666666666667 0  1.536521739130435 0.01666666666666667 0  1.55304347826087 0.01666666666666667 0  1.569565217391304 0.01666666666666667 0  1.586086956521739 0.01666666666666667 0  1.602608695652174 0.01666666666666667 0  1.619130434782609 0.01666666666666667 0  1.635652173913043 0.01666666666666667 0  1.652173913043478 0.01666666666666667 0  1.668695652173913 0.01666666666666667 0  1.685217391304348 0.01666666666666667 0  1.701739130434782 0.01666666666666667 0  1.718260869565217 0.01666666666666667 0  1.734782608695652 0.01666666666666667 0  1.751304347826087 0.01666666666666667 0  1.767826086956522 0.01666666666666667 0  1.784347826086957 0.01666666666666667 0  1.800869565217391 0.0166666666666666
[...]
<PointData  Vectors="Displacement"> 
<DataArray  type="Float64"  Name="Displacement"  NumberOfComponents="3" format="ascii">0.0000000000000000e+00 0.0000000000000000e+00 0.0000000000000000e+00  4.6005978076156569e-05 2.2587935666133046e-05 0.0000000000000000e+00  9.0925747067534761e-05 5.6047506771389766e-05 0.0000000000000000e+00  1.3678807320569034e-04 1.0957944298574204e-04 0.0000000000000000e+00  1.8352121514682019e-04 1.8497774806002182e-04 0.0000000000000000e+00  2.3109436232091927e-04 2.8287987785860340e-04 0.0000000000000000e+00  2.7995386797357089e-04 4.0372096259142659e-04 0.0000000000000000e+00  3.3083427221441638e-04 5.4884778192990514e-04 0.0000000000000000e+00  3.8405421869103923e-04 7.2085740868262625e-04 0.0000000000000000e+00  4.3938742680113286e-04 9.2217432606390428e-04 0.0000000000000000e+00  4.9624657889599808e-04 1.1547329428584026e-03 0.0000000000000000e+00  5.5392305747265500e-04 1.4195426282379712e-03 0.0000000000000000e+00  6.1183177555435887e-04 1.7168296718493043e-03 0.0000000000000000e+00  6.6963564265101229e-04 2.0464245363398040e-03 0.0000000000000000e+00  7.2716882644490626e-04 2.4080720789950169e-03 0.0000000000000000e+00  7.8436267509437215e-04 2.8015287423200628e-03 0.0000000000000000e+00  8.4119063926729515e-04 3.2265752287682888e-03 0.0000000000000000e+00  8.9763501115621563e-04 3.6830097100115956e-03 0.0000000000000000e+00  9.5366420859167378e-04 4.1706387366907743e-03 0.0000000000000000e+00  1.0092072118548115e-03 4.6892511742319390e-03 0.0000000000000000e+00  1.0641797941776236e-03 5.2385354038128450e-03 0.0000000000000000e+00  1.1184912649769760e-03 5.8181415047168792e-03 0.0000000000000000e+00  1.1719306070432896e-03 6.4277275692302908e-03 0.0000000000000000e+00  1.2241324279223017e-03 7.0666788693082615e-03 0.0000000000000000e+00  1.2748131780800020e-03 7.7338757931539690e-03 0.0000000000000000e+00  1.3236705618118998e-03 8.4281224042920752e-03 0.0000000000000000e+00  1.3701620782919431e-03 9.1480171110464789e-03 0.0000000000000000e+00  1.4139001483085840e-03 9.8912895455511435e-03 0.0000000000000000e+00  1.4547762947290394e-03 1.0655410368573764e-02 0.0000000000000000e+00  1.4927741208947210e-03 1.1438157306478628e-02 0.0000000000000000e+00  1.5280672492818440e-03 1.2237292336968995e-02 0.0000000000000000e+00  1.5607157078588426e-03 1.3051212441907638e-02 0.0000000000000000e+00  1.5906446018037054e-03 1.3878267914682829e-02 0.0000000000000000e+00  1.6179218171330514e-03 1.4716494246001740e-02 0.0000000000000000e+00  1.6429433606147913e-03 1.5563955558638751e-02 0.0000000000000000e+00  1.6663787332755421e-03 1.6419250822084334e-02 0.0000000000000000e+00  1.6890965434046337e-03 1.7281539163283829e-02 0.0000000000000000e+00  1.7121363247343600e-03 1.8150612561981010e-02 0.0000000000000000e+00  1.7365855854692132e-03 1.9027079564148848e-02 0.0000000000000000e+00  1.7634507958411861e-03 1.9912406663887664e-02 0.0000000000000000e+00  1.7935362480577335e-03 2.0808941356065192e-02 0.0000000000000000e+00  1.8274309553427490e-03 2.1719660578759493e-02 0.0000000000000000e+00  1.8652385795236732e-03 2.2648143182430726e-02 0.0000000000000000e+00  1.9064857180748952e-03 2.3597818063854945e-02 0.0000000000000000e+00  1.9505417429832744e-03 2.4571659945269990e-02 0.0000000000000000e+00  1.9972743867986975e-03 2.5571488777982977e-02 0.0000000000000000e+00  2.0463852155185201e-03 2.6600563472754784e-02 0.0000000000000000e+00  2.0971824525105320e-03 2.7661544360464960e-02 0.0000000000000000e+00  2.1490089964119573e-03 2.8755694638785641e-02 0.0000000000000000e+00  2.2017755829371369e-03 2.9883448256957105e-02 0.0000000000000000e+00  2.2558877764406009e-03 3.1046046721199556e-02 0.0000000000000000e+00  2.3118236142342977e-03 3.2245776695502631e-02 0.0000000000000000e+00  2.3694598599667566e-03 3.3485671389091032e-02 0.0000000000000000e+00  2.4281646089536662e-03 3.4768018213728498e-02 0.0000000000000000e+00  2.4872538538822596e-03 3.6093614410409335e-02 0.0000000000000000e+00  2.5462409687914949e-03 3.7462449167267875e-02 0.0000000000000000e+00  2.6048621110711782e-03 3.8874221646156656e-02 0.0000000000000000e+00  2.6629852330328600e-03 4.0328536626096652e-02 0.0000000000000000e+00  2.7205467501930773e-03 4.1824967513025599e-02 0.0000000000000000e+00  2.7775143855642932e-03 4.3363073196385375e-02 0.0000000000000000e+00  2.8338692496570578e-03 4.4942400840885736e-02 0.0000000000000000e+00  2.8895984201924444e-03 4.6562485795414769e-02 0.0000000000000000e+00  2.9446926227489271e-03 4.8222852321618791e-02 0.0000000000000000e+00  2.9991457370417284e-03 4.9923016126440317e-02 0.0000000000000000e+00  3.0529540830344080e-03 5.1662487684274748e-02 0.0000000000000000e+00  3.1061150014036016e-03 5.3440773454139341e-02 0.0000000000000000e+00  3.1586269607758975e-03 5.5257373172844758e-02 0.0000000000000000e+00  3.2104959573677695e-03 5.7111778651276479e-02 0.0000000000000000e+00  3.2617478744378938e-03 5.9003489155174428e-02 0.0000000000000000e+00  3.3124320190830274e-03 6.0932050947745113e-02 0.0000000000000000e+00  3.3626064537599482e-03 6.2897095608532905e-02 0.0000000000000000e+00  3.4122962720520198e-03 6.4898322978905798e-02 0.0000000000000000e+00  3.4615348287856092e-03 6.6935427065029113e-02 0.0000000000000000e+00  3.5102679772305348e-03 6.9008030171283097e-02 0.0000000000000000e+00  3.5586478740285590e-03 7.1115579046109087e-02 0.0000000000000000e+00  3.6072537260625989e-03 7.3257858280328436e-02 0.0000000000000000e+00  3.6567447898852249e-03 7.5435910307973197e-02 0.0000000000000000e+00  3.7070765454425333e-03 7.7652228022776951e-02 0.0000000000000000e+00  3.7577448633049964e-03 7.9907912812591686e-02 0.0000000000000000e+00  3.8083161254055149e-03 8.2203199930347290e-02 0.0000000000000000e+00  3.8585101063217699e-03 8.4537912685753142e-02 0.0000000000000000e+00  3.9079748367773035e-03 8.6911852680561966e-02 0.0000000000000000e+00  3.9561498774625887e-03 8.9324500677910326e-02 0.0000000000000000e+00  4.0019450244368985e-03 9.1774346023310194e-02 0.0000000000000000e+00  4.0440503595380994e-03 9.4257620865450184e-02 0.0000000000000000e+00  4.0816783800924948e-03 9.6769138611661032e-02 0.0000000000000000e+00  4.1147476799410542e-03 9.9303191578483566e-02 0.0000000000000000e+00  4.1435012442279460e-03 1.0185493482382792e-01 0.0000000000000000e+00  4.1681126435803859e-03 1.0442093021896985e-01 0.0000000000000000e+00  4.1888626526544251e-03 1.0699794372919123e-01 0.0000000000000000e+00  4.2061014193565845e-03 1.0958318830911207e-01 0.0000000000000000e+00  4.2202982307816272e-03 1.1217437902016142e-01 0.0000000000000000e+00  4.2320587551881641e-03 1.1476971611814812e-01 0.0000000000000000e+00  4.2420567335586272e-03 1.1736795367222340e-01 0.0000000000000000e+00  4.2509594484977922e-03 1.1996836481021089e-01 0.0000000000000000e+00  4.2593688188619057e-03 1.2257065467121339e-01 0.0000000000000000e+00  4.2677778216703424e-03 1.2517487268996697e-01 0.0000000000000000e+00  4.2765407883703400e-03 1.2778131833863599e-01 0.0000000000000000e+00  4.2858704843688625e-03 1.3039043512394316e-01 0.0000000000000000e+00  4.2958584592719855e-03 1.3300272409934583e-01 0.0000000000000000e+00  4.3065277968309312e-03 1.3561865473208631e-01 0.0000000000000000e+00  4.3178875368400692e-03 1.3823866623684186e-01 0.0000000000000000e+00  4.3299299711990090e-03 1.4086323368043718e-01 0.0000000000000000e+00  4.3426203965391489e-03 1.4349281821408355e-01 0.0000000000000000e+00  4.3558603050723238e-03 1.4612789636882573e-01 0.0000000000000000e+00  4.3694713471933624e-03 1.4876887075224285e-01 0.0000000000000000e+00  4.3833018843510308e-03 1.5141589248701057e-01 0.0000000000000000e+00  4.3973155592488657e-03 1.5406900811523827e-01 0.0000000000000000e+00  4.4115387565911096e-03 1.5672838211841830e-01 0.0000000000000000e+00  4.4259874097904708e-03 1.5939429275823166e-01 0.0000000000000000e+00  4.4406561533429220e-03 1.6206701255689807e-01 0.0000000000000000e+00  4.4554567304440637e-03 1.6474684419702865e-01 0.0000000000000000e+00  4.4702683708417379e-03 1.6743389857649996e-01 0.0000000000000000e+00  4.4850389407373892e-03 1.7012811848386930e-01 0.0000000000000000e+00  4.4998282564539934e-03 1.7282944131362804e-01 0.0000000000000000e+00  4.5147840780255409e-03 1.7553795273206019e-01 0.0000000000000000e+00  4.5300406670009102e-03 1.7825398908937923e-01 0.0000000000000000e+00  4.5455784933811742e-03 1.8097806146336237e-01 0.0000000000000000e+00  4.5612577319189803e-03 1.8371049516224983e-01 0.0000000000000000e+00  4.5769949841466444e-03 1.8645132910920614e-01 0.0000000000000000e+00  4.5927770916230626e-03 1.8920061632083957e-01 0.0000000000000000e+00  4.6085639574530799e-03 1.9195850817267901e-01 0.0000000000000000e+00  4.6242721230565558e-03 1.9472508974478692e-01 0.0000000000000000e+00  4.6398169294432148e-03 1.9750031561804823e-01 0.0000000000000000e+00  4.6551392304899821e-03 2.0028406394785633e-01 0.0000000000000000e+00  4.6702051449928452e-03 2.0307618328917432e-01 0.0000000000000000e+00  4.6849978905385429e-03 2.0587651246499206e-01 0.0000000000000000e+00  4.6995143631105955e-03 2.0868488790606177e-01 0.0000000000000000e+00  4.7137534433774929e-03 2.1150114460291855e-01 0.0000000000000000e+00  4.7277418739854402e-03 2.1432511206892246e-01 0.0000000000000000e+00  4.7414789161045502e-03 2.1715662950983791e-01 0.0000000000000000e+00  4.7550142613076354e-03 2.1999546904014713e-01 0.0000000000000000e+00  4.7686451315983990e-03 2.2284150948171302e-01 0.0000000000000000e+00  4.7827548927159170e-03 2.2569504413714178e-01 0.0000000000000000e+00  4.7977299867836736e-03 2.2855720833198170e-01 0.0000000000000000e+00  4.8138970017412817e-03 2.3142935790702249e-01 0.0000000000000000e+00  4.8316136711944284e-03 2.3431328594944895e-01 0.0000000000000000e+00  4.8503846744239283e-03 2.3721135437938043e-01 0.0000000000000000e+00  4.8703602692258124e-03 2.4012450361759971e-01 0.0000000000000000e+00  4.8916590698905721e-03 2.4305679055295390e-01 0.0000000000000000e+00  4.9135048297306990e-03 2.4600938270798470e-01 0.0000000000000000e+00  4.9358708614292528e-03 2.4898284070030699e-01 0.0000000000000000e+00  4.9593040789568449e-03 2.5198067736093799e-01 0.0000000000000000e+00  4.9834261356368967e-03 2.5500674253910666e-01 0.0000000000000000e+00  5.0071545697283303e-03 2.5806174507232177e-01 0.0000000000000000e+00  5.0300458741615239e-03 2.6114476396485614e-01 0.0000000000000000e+00  5.0514819251256064e-03 2.6425286225741301e-01 0.0000000000000000e+00  5.0711009266668702e-03 2.6738162378452562e-01 0.0000000000000000e+00  5.0893502862732675e-03 2.7052829090878938e-01 0.0000000000000000e+00  5.1065784419331373e-03 2.7369181589607772e-01 0.0000000000000000e+00  5.1224235768428262e-03 2.7687021694287828e-01 0.0000000000000000e+00  5.1369058355907639e-03 2.8006058958192487e-01 0.0000000000000000e+00  5.1504055165922866e-03 2.8326177630488492e-01 0.0000000000000000e+00  5.1628440873835481e-03 2.8647306582515830e-01 0.0000000000000000e+00  5.1740988710798873e-03 2.8969313248768125e-01 0.0000000000000000e+00  5.1842438110052983e-03 2.9292060686510718e-01 0.0000000000000000e+00  5.1935162161901357e-03 2.9615428864583510e-01 0.0000000000000000e+00  5.2021842173004982e-03 2.9939356048674154e-01 0.0000000000000000e+00  5.2104341641149767e-03 3.0263815302355479e-01 0.0000000000000000e+00  5.2183580711962644e-03 3.0588788733028494e-01 0.0000000000000000e+00  5.2259965481596749e-03 3.0914260584170128e-01 0.0000000000000000e+00  5.2333643350330090e-03 3.1240215958573825e-01 0.0000000000000000e+00  5.2404270082885597e-03 3.1566638647634787e-01 0.0000000000000000e+00  5.2471239830552225e-03 3.1893504656155452e-01 0.0000000000000000e+00  5.2534071659105595e-03 3.2220778441390846e-01 0.0000000000000000e+00  5.2592499897380013e-03 3.2548416931435303e-01 0.0000000000000000e+00  5.2646685094732285e-03 3.2876382482560113e-01 0.0000000000000000e+00  5.2697343275325808e-03 3.3204636083846423e-01 0.0000000000000000e+00  5.2745196328551434e-03 3.3533157594950430e-01 0.0000000000000000e+00  5.2790776823660032e-03 3.3861934574511710e-01 0.0000000000000000e+00  5.2834283793847759e-03 3.4190957180963222e-01 0.0000000000000000e+00  5.2875787309176791e-03 3.4520214700303548e-01 0.0000000000000000e+00  5.2915354774969335e-03 3.4849695551698984e-01 0.0000000000000000e+00  5.2953039375778031e-03 3.5179389343486972e-01 0.0000000000000000e+00  5.2988826137133583e-03 3.5509286167944515e-01 0.0000000000000000e+00  5.3022626721938452e-03 3.5839375394722650e-01 0.0000000000000000e+00  5.3054345305247400e-03 3.6169644537924789e-01 0.0000000000000000e+00  5.3083987210698616e-03 3.6500079612147263e-01 0.0000000000000000e+00  5.3111654361470860e-03 3.6830667839459591e-01 0.0000000000000000e+00  5.3137357308439296e-03 3.7161398888952268e-01 0.0000000000000000e+00  5.3160964261149708e-03 3.7492261375942143e-01 0.0000000000000000e+00  5.3182428156822951e-03 3.7823240312685069e-01 0.0000000000000000e+00  5.3201909315318185e-03 3.8154320589326124e-01 0.0000000000000000e+00  5.3219632279829015e-03 3.8485490807147704e-01 0.0000000000000000e+00  5.3235707622331478e-03 3.8816742558298245e-01 0.0000000000000000e+00  5.3250152548669650e-03 3.9148066886333988e-01 0.0000000000000000e+00  5.3263024403166510e-03 3.9479453683820631e-01 0.0000000000000000e+00  5.3274415961795342e-03 3.9810894217150222e-01 0.0000000000000000e+00  5.3284342492334342e-03 4.0142381802789451e-01 0.0000000000000000e+00  5.3292728517232131e-03 4.0473909294261101e-01 0.0000000000000000e+00  5.3299478277375493e-03 4.0805468431747233e-01 0.0000000000000000e+00  5.3304373442180563e-03 4.1137049608318310e-01 0.0000000000000000e+00  5.3307176104061115e-03 4.1468639766890109e-01 0.0000000000000000e+00  5.3308034664077651e-03 4.1800223131985248e-01 0.0000000000000000e+00  5.3309122083564876e-03 4.2131820257510649e-01 0.0000000000000000e+00  5.5202360135943066e-03 4.2474360279605067e-01 0.0000000000000000e+00  9.6425741031952450e-03 4.2993226904419235e-01 0.0000000000000000e+00  1.3768758360090004e-02 4.3523012896024921e-01 0.0000000000000000e+00  1.8684387658311746e-02 4.4074314789777314e-01 0.0000000000000000e+00  2.4297490755854748e-02 4.4682392006771021e-01 0.0000000000000000e+00  3.0470110917112891e-02 4.5400236947783318e-01 0.0000000000000000e+00  3.6913793602122907e-02 4.6267356821142958e-01 0.0000000000000000e+00  4.3298548516887338e-02 4.7293178105731482e-01 0.0000000000000000e+00  4.9346603039971827e-02 4.8467108394124803e-01 0.0000000000000000e+00  5.4811537323568964e-02 4.9778033525294879e-01 0.0000000000000000e+00  5.9475302769059796e-02 5.1207282983896774e-01 0.0000000000000000e+00  6.3182578844855161e-02 5.2726169646681553e-01 0.0000000000000000e+00  6.5864719866768201e-02 5.4300710990574275e-01 0.0000000000000000e+00  6.7537781721950088e-02 5.5897456131529799e-01 0.0000000000000000e+00  6.8283535304521178e-02 5.7487417111449979e-01 0.0000000000000000e+00  6.8225482225699421e-02 5.9047823205649730e-01 0.0000000000000000e+00  6.7507284426682981e-02 6.0562345718164157e-01 0.0000000000000000e+00  6.6276470763864170e-02 6.2020485475062970e-01 0.0000000000000000e+00  6.4673609262641971e-02 6.3416613500282981e-01 0.0000000000000000e+00  6.2825992898250416e-02 6.4748953050014024e-01 0.0000000000000000e+00  6.0844615700299115e-02 6.6018648005483427e-01 0.0000000000000000e+00  5.8823334226516574e-02 6.7228975614918884e-01 0.0000000000000000e+00  5.6839351334017463e-02 6.8384714081817954e-01 0.0000000000000000e+00  5.4954402128013891e-02 6.9491652343925037e-01 0.0000000000000000e+00  5.3216221159145025e-02 7.0556219911393825e-01 0.0000000000000000e+00  5.1660017201821791e-02 7.1585212120779540e-01 0.0000000000000000e+00  5.0309783652057412e-02 7.2585586652236078e-01 0.0000000000000000e+00  4.9179339263092044e-02 7.3564308333792594e-01 0.0000000000000000e+00  4.8273036417358764e-02 7.4528219625104664e-01 0.0000000000000000e+00  4.7586103208933153e-02 7.5483912465537406e-01 0.0000000000000000e+00  4.7104614205379883e-02 7.6437571811201510e-01 0.0000000000000000e+00  4.6805133568611497e-02 7.7394749619756642e-01 0.0000000000000000e+00  4.6654185120361048e-02 7.8360005841492264e-01 0.0000000000000000e+00  4.6607977409694343e-02 7.9336313930836333e-01 0.0000000000000000e+00  4.6613586286149131e-02 8.0324084574981180e-01 0.0000000000000000e+00  4.6616857859525455e-02 8.1320021261806352e-01 0.0000000000000000e+00  0.0000000000000000e+00 0.0000000000000000e+00 0.0000000000000000e+00  2.0749388109928839e-05 8.5634092307761048e-06 0.0000000000000000e+00  4.5663041986043372e-05 4.1154453445905599e-05 0.0000000000000000e+00  7.0309235675222726e-05 9.4448030737775688e-05 0.0000000000000000e+00  9.4674440566781037e-05 1.6978294473047286e-04 0.0000000000000000e+00  1.1878745603710650e-04 2.6762394055456049e-04 0.0000000000000000e+00  1.4294441057384629e-04 3.8813733422650985e-04 0.0000000000000000e+00  1.6753789671812103e-04 5.3262365985392570e-04 0.0000000000000000e+00  1.9261768552912499e-04 7.0392951831281048e-04 0.0000000000000000e+00  2.1815260764728188e-04 9.0463925447838720e-04 0.0000000000000000e+00  2.4395675424222887e-04 1.1368309893173849e-03 0.0000000000000000e+00  2.6979523882658050e-04 1.4014987890648008e-03 0.0000000000000000e+00  2.9554615112606543e-04 1.6987988675383069e-03 0.0000000000000000e+00  3.2114817365357600e-04 2.0284745216347334e-03 0.0000000000000000e+00  3.4658359533203212e-04 2.3902277931682416e-03 0.0000000000000000e+00  3.7184934693526730e-04 2.7837980401938874e-03 0.0000000000000000e+00  3.9694461705426818e-04 3.2089563780358346e-03 0.0000000000000000e+00  4.2187646142325096e-04 3.6654991248477303e-03 0.0000000000000000e+00  4.4664699558370909e-04 4.1532452313188034e-03 0.0000000000000000e+00  4.7122905605914787e-04 4.6719949313611614e-03 0.0000000000000000e+00  4.9561621665484006e-04 5.2214161869900159e-03 0.0000000000000000e+00  5.1982909435831345e-04 5.8011640617455828e-03 0.0000000000000000e+00  5.4381391614558884e-04 6.4109688869041347e-03 0.0000000000000000e+00  5.6745561325341411e-04 7.0502364032695563e-03 0.0000000000000000e+00  5.9077348224438912e-04 7.7177941859464519e-03 0.0000000000000000e+00  6.1370424690176603e-04 8.4124938843259459e-03 0.0000000000000000e+00  6.3605161393542409e-04 9.1330603299165317e-03 0.0000000000000000e+00  6.5772764364263115e-04 9.8771437809965189e-03 0.0000000000000000e+00  6.7865383868738070e-04 1.0642080427156768e-02 0.0000000000000000e+00  6.9878092640634831e-04 1.1425653021281190e-02 0.0000000000000000e+00  7.1817989889587863e-04 1.2225526850289664e-02 0.0000000000000000e+00  7.3675469844214293e-04 1.3040232520493862e-02 0.0000000000000000e+00  7.5431858865369081e-04 1.3868174946140290e-02 0.0000000000000000e+00  7.7078234088850343e-04 1.4707280304099169e-02 0.0000000000000000e+00  7.8627488611695325e-04 1.5555468000960599e-02 0.0000000000000000e+00  8.0103660266774121e-04 1.6411269469933504e-02 0.0000000000000000e+00  8.1539792885051575e-04 1.7273780871332980e-02 0.0000000000000000e+00  8.2977802483363708e-04 1.8142743196837341e-02 0.0000000000000000e+00  8.4458386928181058e-04 1.9018771417695125e-02 0.0000000000000000e+00  8.6013589976537694e-04 1.9903372182768494e-02 0.0000000000000000e+00  8.7661062426700625e-04 2.0798957909021913e-02 0.0000000000000000e+00  8.9413453346414730e-04 2.1708553230495444e-02 0.0000000000000000e+00  9.1266507620546414e-04 2.2635928037952099e-02 0.0000000000000000e+00  9.3195841600534875e-04 2.3584820153722017e-02 0.0000000000000000e+00  9.5123767131772012e-04 2.4558189251105162e-02 0.0000000000000000e+00  9.7040851856746791e-04 2.5557309753765998e-02 0.0000000000000000e+00  9.8952229319662069e-04 2.6585789454359191e-02 0.0000000000000000e+00  1.0084181114168541e-03 2.7646522795023925e-02 0.0000000000000000e+00  1.0268489072910772e-03 2.8740684335447499e-02 0.0000000000000000e+00  1.0447687657345122e-03 2.9868373838925651e-02 0.0000000000000000e+00  1.0622177333087040e-03 3.1030690988472939e-02 0.0000000000000000e+00  1.0792869389734535e-03 3.2229869287521702e-02 0.0000000000000000e+00  1.0961231468096530e-03 3.3469285027661194e-02 0.0000000000000000e+