<?xml version="1.0"?>
<VTKFile type="UnstructuredGrid"  version="0.1"  >
<UnstructuredGrid>
<Piece  NumberOfPoints="7161" NumberOfCells="13800">
<Points>
<DataArray  type="Float64"  NumberOfComponents="3"  format="ascii">0 0 0  0.01652173913043478 0 0  0.03304347826086956 0 0  0.04956521739130434 0 0  0.06608695652173913 0 0  0.08260869565217391 0 0  0.09913043478260869 0 0  0.1156521739130435 0 0  0.1321739130434783 0 0  0.148695652173913 0 0  0.1652173913043478 0 0  0.1817391304347826 0 0  0.1982608695652174 0 0  0.2147826086956522 0 0  0.2313043478260869 0 0  0.2478260869565218 0 0  0.2643478260869565 0 0  0.2808695652173913 0 0  0.2973913043478261 0 0  0.3139130434782609 0 0  0.3304347826086956 0 0  0.3469565217391304 0 0  0.3634782608695652 0 0  0.3799999999999999 0 0  0.3965217391304348 0 0  0.4130434782608696 0 0  0.4295652173913043 0 0  0.4460869565217391 0 0  0.4626086956521739 0 0  0.4791304347826086 0 0  0.4956521739130435 0 0  0.5121739130434783 0 0  0.528695652173913 0 0  0.5452173913043478 0 0  0.5617391304347825 0 0  0.5782608695652174 0 0  0.5947826086956521 0 0  0.6113043478260869 0 0  0.6278260869565218 0 0  0.6443478260869565 0 0  0.6608695652173913 0 0  0.677391304347826 0 0  0.6939130434782609 0 0  0.7104347826086956 0 0  0.7269565217391304 0 0  0.7434782608695653 0 0  0.7599999999999999 0 0  0.7765217391304348 0 0  0.7930434782608695 0 0  0.8095652173913043 0 0  0.8260869565217391 0 0  0.8426086956521739 0 0  0.8591304347826086 0 0  0.8756521739130434 0 0  0.8921739130434783 0 0  0.908695652173913 0 0  0.9252173913043478 0 0  0.9417391304347826 0 0  0.9582608695652173 0 0  0.9747826086956521 0 0  0.991304347826087 0 0  1.007826086956522 0 0  1.024347826086957 0 0  1.040869565217391 0 0  1.057391304347826 0 0  1.073913043478261 0 0  1.090434782608696 0 0  1.10695652173913 0 0  1.123478260869565 0 0  1.14 0 0  1.156521739130435 0 0  1.17304347826087 0 0  1.189565217391304 0 0  1.206086956521739 0 0  1.222608695652174 0 0  1.239130434782609 0 0  1.255652173913044 0 0  1.272173913043478 0 0  1.288695652173913 0 0  1.305217391304348 0 0  1.321739130434783 0 0  1.338260869565217 0 0  1.354782608695652 0 0  1.371304347826087 0 0  1.387826086956522 0 0  1.404347826086957 0 0  1.420869565217391 0 0  1.437391304347826 0 0  1.453913043478261 0 0  1.470434782608696 0 0  1.486956521739131 0 0  1.503478260869565 0 0  1.52 0 0  1.536521739130435 0 0  1.55304347826087 0 0  1.569565217391304 0 0  1.586086956521739 0 0  1.602608695652174 0 0  1.619130434782609 0 0  1.635652173913043 0 0  1.652173913043478 0 0  1.668695652173913 0 0  1.685217391304348 0 0  1.701739130434782 0 0  1.718260869565217 0 0  1.734782608695652 0 0  1.751304347826087 0 0  1.767826086956522 0 0  1.784347826086957 0 0  1.800869565217391 0 0  1.817391304347826 0 0  1.833913043478261 0 0  1.850434782608696 0 0  1.86695652173913 0 0  1.883478260869565 0 0  1.9 0 0  1.916521739130435 0 0  1.933043478260869 0 0  1.949565217391304 0 0  1.966086956521739 0 0  1.982608695652174 0 0  1.999130434782608 0 0  2.015652173913043 0 0  2.032173913043478 0 0  2.048695652173913 0 0  2.065217391304348 0 0  2.081739130434782 0 0  2.098260869565217 0 0  2.114782608695652 0 0  2.131304347826087 0 0  2.147826086956522 0 0  2.164347826086956 0 0  2.180869565217391 0 0  2.197391304347826 0 0  2.213913043478261 0 0  2.230434782608695 0 0  2.24695652173913 0 0  2.263478260869565 0 0  2.28 0 0  2.296521739130434 0 0  2.31304347826087 0 0  2.329565217391304 0 0  2.346086956521739 0 0  2.362608695652174 0 0  2.379130434782609 0 0  2.395652173913044 0 0  2.412173913043478 0 0  2.428695652173913 0 0  2.445217391304348 0 0  2.461739130434782 0 0  2.478260869565217 0 0  2.494782608695652 0 0  2.511304347826087 0 0  2.527826086956522 0 0  2.544347826086956 0 0  2.560869565217391 0 0  2.577391304347826 0 0  2.593913043478261 0 0  2.610434782608696 0 0  2.62695652173913 0 0  2.643478260869565 0 0  2.66 0 0  2.676521739130435 0 0  2.693043478260869 0 0  2.709565217391304 0 0  2.726086956521739 0 0  2.742608695652174 0 0  2.759130434782609 0 0  2.775652173913044 0 0  2.792173913043478 0 0  2.808695652173913 0 0  2.825217391304347 0 0  2.841739130434783 0 0  2.858260869565217 0 0  2.874782608695652 0 0  2.891304347826087 0 0  2.907826086956522 0 0  2.924347826086957 0 0  2.940869565217391 0 0  2.957391304347826 0 0  2.973913043478261 0 0  2.990434782608696 0 0  3.006956521739131 0 0  3.023478260869565 0 0  3.04 0 0  3.056521739130435 0 0  3.073043478260869 0 0  3.089565217391304 0 0  3.106086956521739 0 0  3.122608695652174 0 0  3.139130434782609 0 0  3.155652173913043 0 0  3.172173913043478 0 0  3.188695652173913 0 0  3.205217391304347 0 0  3.221739130434782 0 0  3.238260869565217 0 0  3.254782608695652 0 0  3.271304347826087 0 0  3.287826086956521 0 0  3.304347826086957 0 0  3.320869565217391 0 0  3.337391304347826 0 0  3.353913043478261 0 0  3.370434782608696 0 0  3.386956521739131 0 0  3.403478260869565 0 0  3.419999999999999 0 0  3.436521739130435 0 0  3.453043478260869 0 0  3.469565217391304 0 0  3.486086956521739 0 0  3.502608695652174 0 0  3.519130434782609 0 0  3.535652173913043 0 0  3.552173913043478 0 0  3.568695652173913 0 0  3.585217391304347 0 0  3.601739130434782 0 0  3.618260869565217 0 0  3.634782608695652 0 0  3.651304347826087 0 0  3.667826086956521 0 0  3.684347826086956 0 0  3.700869565217391 0 0  3.717391304347826 0 0  3.733913043478261 0 0  3.750434782608695 0 0  3.766956521739131 0 0  3.783478260869565 0 0  3.8 0 0  0 0.01666666666666667 0  0.01652173913043478 0.01666666666666667 0  0.03304347826086956 0.01666666666666667 0  0.04956521739130434 0.01666666666666667 0  0.06608695652173913 0.01666666666666667 0  0.08260869565217391 0.01666666666666667 0  0.09913043478260869 0.01666666666666667 0  0.1156521739130435 0.01666666666666667 0  0.1321739130434783 0.01666666666666667 0  0.148695652173913 0.01666666666666667 0  0.1652173913043478 0.01666666666666667 0  0.1817391304347826 0.01666666666666667 0  0.1982608695652174 0.01666666666666667 0  0.2147826086956522 0.01666666666666667 0  0.2313043478260869 0.01666666666666667 0  0.2478260869565218 0.01666666666666667 0  0.2643478260869565 0.01666666666666667 0  0.2808695652173913 0.01666666666666667 0  0.2973913043478261 0.01666666666666667 0  0.3139130434782609 0.01666666666666667 0  0.3304347826086956 0.01666666666666667 0  0.3469565217391304 0.01666666666666667 0  0.3634782608695652 0.01666666666666667 0  0.3799999999999999 0.01666666666666667 0  0.3965217391304348 0.01666666666666667 0  0.4130434782608696 0.01666666666666667 0  0.4295652173913043 0.01666666666666667 0  0.4460869565217391 0.01666666666666667 0  0.4626086956521739 0.01666666666666667 0  0.4791304347826086 0.01666666666666667 0  0.4956521739130435 0.01666666666666667 0  0.5121739130434783 0.01666666666666667 0  0.528695652173913 0.01666666666666667 0  0.5452173913043478 0.01666666666666667 0  0.5617391304347825 0.01666666666666667 0  0.5782608695652174 0.01666666666666667 0  0.5947826086956521 0.01666666666666667 0  0.6113043478260869 0.01666666666666667 0  0.6278260869565218 0.01666666666666667 0  0.6443478260869565 0.01666666666666667 0  0.6608695652173913 0.01666666666666667 0  0.677391304347826 0.01666666666666667 0  0.6939130434782609 0.01666666666666667 0  0.7104347826086956 0.01666666666666667 0  0.7269565217391304 0.01666666666666667 0  0.7434782608695653 0.01666666666666667 0  0.7599999999999999 0.01666666666666667 0  0.7765217391304348 0.01666666666666667 0  0.7930434782608695 0.01666666666666667 0  0.8095652173913043 0.01666666666666667 0  0.8260869565217391 0.01666666666666667 0  0.8426086956521739 0.01666666666666667 0  0.8591304347826086 0.01666666666666667 0  0.8756521739130434 0.01666666666666667 0  0.8921739130434783 0.01666666666666667 0  0.908695652173913 0.01666666666666667 0  0.9252173913043478 0.01666666666666667 0  0.9417391304347826 0.01666666666666667 0  0.9582608695652173 0.01666666666666667 0  0.9747826086956521 0.01666666666666667 0  0.991304347826087 0.01666666666666667 0  1.007826086956522 0.01666666666666667 0  1.024347826086957 0.01666666666666667 0  1.040869565217391 0.01666666666666667 0  1.057391304347826 0.01666666666666667 0  1.073913043478261 0.01666666666666667 0  1.090434782608696 0.01666666666666667 0  1.10695652173913 0.01666666666666667 0  1.123478260869565 0.01666666666666667 0  1.14 0.01666666666666667 0  1.156521739130435 0.01666666666666667 0  1.17304347826087 0.01666666666666667 0  1.189565217391304 0.01666666666666667 0  1.206086956521739 0.01666666666666667 0  1.222608695652174 0.01666666666666667 0  1.239130434782609 0.01666666666666667 0  1.255652173913044 0.01666666666666667 0  1.272173913043478 0.01666666666666667 0  1.288695652173913 0.01666666666666667 0  1.305217391304348 0.01666666666666667 0  1.321739130434783 0.01666666666666667 0  1.338260869565217 0.01666666666666667 0  1.354782608695652 0.01666666666666667 0  1.371304347826087 0.01666666666666667 0  1.387826086956522 0.01666666666666667 0  1.404347826086957 0.01666666666666667 0  1.420869565217391 0.01666666666666667 0  1.437391304347826 0.01666666666666667 0  1.453913043478261 0.01666666666666667 0  1.470434782608696 0.01666666666666667 0  1.486956521739131 0.01666666666666667 0  1.503478260869565 0.01666666666666667 0  1.52 0.01666666666666667 0  1.536521739130435 0.01666666666666667 0  1.55304347826087 0.01666666666666667 0  1.569565217391304 0.01666666666666667 0  1.586086956521739 0.01666666666666667 0  1.602608695652174 0.01666666666666667 0  1.619130434782609 0.01666666666666667 0  1.635652173913043 0.01666666666666667 0  1.652173913043478 0.01666666666666667 0  1.668695652173913 0.01666666666666667 0  1.685217391304348 0.01666666666666667 0  1.701739130434782 0.01666666666666667 0  1.718260869565217 0.01666666666666667 0  1.734782608695652 0.01666666666666667 0  1.751304347826087 0.01666666666666667 0  1.767826086956522 0.01666666666666667 0  1.784347826086957 0.01666666666666667 0  1.800869565217391 0.0166666666666666
[...]
<PointData  Vectors="Displacement"> 
<DataArray  type="Float64"  Name="Displacement"  NumberOfComponents="3" format="ascii">0.0000000000000000e+00 0.0000000000000000e+00 0.0000000000000000e+00  6.0309220859896223e-05 2.9132763756862992e-05 0.0000000000000000e+00  1.1930440642428544e-04 7.9065754654651191e-05 0.0000000000000000e+00  1.7931724757896364e-04 1.6043907603807976e-04 0.0000000000000000e+00  2.3983939753125153e-04 2.7467592512463922e-04 0.0000000000000000e+00  3.0089143869005213e-04 4.2193586656687708e-04 0.0000000000000000e+00  3.6346566644591721e-04 6.0275929530393107e-04 0.0000000000000000e+00  4.2877765834769893e-04 8.1986430565867199e-04 0.0000000000000000e+00  4.9678806165946298e-04 1.0783128667289836e-03 0.0000000000000000e+00  5.6647611179595325e-04 1.3813863923701902e-03 0.0000000000000000e+00  6.3702785892975206e-04 1.7296147000636843e-03 0.0000000000000000e+00  7.0863169806269124e-04 2.1230807721616556e-03 0.0000000000000000e+00  7.8234958935830912e-04 2.5633419894977114e-03 0.0000000000000000e+00  8.5905285998446072e-04 3.0546004621863935e-03 0.0000000000000000e+00  9.3807067724817372e-04 3.6021035550224032e-03 0.0000000000000000e+00  1.0172133753312972e-03 4.2085965246361177e-03 0.0000000000000000e+00  1.0943124180180254e-03 4.8722258977043362e-03 0.0000000000000000e+00  1.1682659939816020e-03 5.5882528331628835e-03 0.0000000000000000e+00  1.2391972377409190e-03 6.3520520716766954e-03 0.0000000000000000e+00  1.3079226582237461e-03 7.1604701545367041e-03 0.0000000000000000e+00  1.3752476169099389e-03 8.0120759757531333e-03 0.0000000000000000e+00  1.4416835849111948e-03 8.9063585367165337e-03 0.0000000000000000e+00  1.5075036338149071e-03 9.8430894844004600e-03 0.0000000000000000e+00  1.5727829704135919e-03 1.0822238097617913e-02 0.0000000000000000e+00  1.6370870278476066e-03 1.1843662120224710e-02 0.0000000000000000e+00  1.6993008455260192e-03 1.2906290028333132e-02 0.0000000000000000e+00  1.7584631493288824e-03 1.4006885788304922e-02 0.0000000000000000e+00  1.8144754514385427e-03 1.5141266600683122e-02 0.0000000000000000e+00  1.8675304243052761e-03 1.6306435889715948e-02 0.0000000000000000e+00  1.9173015236734819e-03 1.7500530297341690e-02 0.0000000000000000e+00  1.9632508907052957e-03 1.8720653753264142e-02 0.0000000000000000e+00  2.0050798802833478e-03 1.9963123782245289e-02 0.0000000000000000e+00  2.0428195069308926e-03 2.1224409672291739e-02 0.0000000000000000e+00  2.0768925988659940e-03 2.2501240013169964e-02 0.0000000000000000e+00  2.1079583444767393e-03 2.3791063047612103e-02 0.0000000000000000e+00  2.1369436176333009e-03 2.5091864355952367e-02 0.0000000000000000e+00  2.1650877595490925e-03 2.6402407240478949e-02 0.0000000000000000e+00  2.1938475189181156e-03 2.7722498068875993e-02 0.0000000000000000e+00  2.2247900777019936e-03 2.9053253547101861e-02 0.0000000000000000e+00  2.2591704270280679e-03 3.0397221155639267e-02 0.0000000000000000e+00  2.2980120913507120e-03 3.1757827598966129e-02 0.0000000000000000e+00  2.3420778756184494e-03 3.3139890538456264e-02 0.0000000000000000e+00  2.3915114982952807e-03 3.4548650949856090e-02 0.0000000000000000e+00  2.4462967049014993e-03 3.5990415108625821e-02 0.0000000000000000e+00  2.5067212483306360e-03 3.7470739242593087e-02 0.0000000000000000e+00  2.5724947391562725e-03 3.8996857143853932e-02 0.0000000000000000e+00  2.6422668339546630e-03 4.0575505257680937e-02 0.0000000000000000e+00  2.7144491993517711e-03 4.2209957207174700e-02 0.0000000000000000e+00  2.7880257540404598e-03 4.3900892226390834e-02 0.0000000000000000e+00  2.8639940765574547e-03 4.5650698904446639e-02 0.0000000000000000e+00  2.9422891346854245e-03 4.7466212213620657e-02 0.0000000000000000e+00  3.0224675333764320e-03 4.9350649434830612e-02 0.0000000000000000e+00  3.1046198514137089e-03 5.1309804824147369e-02 0.0000000000000000e+00  3.1876621210841774e-03 5.3346982515453535e-02 0.0000000000000000e+00  3.2708167895912068e-03 5.5462936600863474e-02 0.0000000000000000e+00  3.3536751419093211e-03 5.7657496044353378e-02 0.0000000000000000e+00  3.4360465903282792e-03 5.9930209705961301e-02 0.0000000000000000e+00  3.5178511020342433e-03 6.2280537693680610e-02 0.0000000000000000e+00  3.5990564011181858e-03 6.4707909094027349e-02 0.0000000000000000e+00  3.6796496089854542e-03 6.7211738500684945e-02 0.0000000000000000e+00  3.7596254392235498e-03 6.9791430411478700e-02 0.0000000000000000e+00  3.8389817886092261e-03 7.2446380749252151e-02 0.0000000000000000e+00  3.9177184148776285e-03 7.5175978540200389e-02 0.0000000000000000e+00  3.9958367435433580e-03 7.7979608856294541e-02 0.0000000000000000e+00  4.0733396867953294e-03 8.0856656402830004e-02 0.0000000000000000e+00  4.1502311437603828e-03 8.3806507322687157e-02 0.0000000000000000e+00  4.2265161843165963e-03 8.6828547955061008e-02 0.0000000000000000e+00  4.3022036911000315e-03 8.9922165870748957e-02 0.0000000000000000e+00  4.3773115384045918e-03 9.3086766107954397e-02 0.0000000000000000e+00  4.4518696779558883e-03 9.6321807881023985e-02 0.0000000000000000e+00  4.5259131950233710e-03 9.9626836359101897e-02 0.0000000000000000e+00  4.5994666429714538e-03 1.0300146886357842e-01 0.0000000000000000e+00  4.6725342840933980e-03 1.0644533733467977e-01 0.0000000000000000e+00  4.7451065199524594e-03 1.0995803508806683e-01 0.0000000000000000e+00  4.8171739230725534e-03 1.1353910092636754e-01 0.0000000000000000e+00  4.8887086859297421e-03 1.1718800659918899e-01 0.0000000000000000e+00  4.9598387791436622e-03 1.2090415065683642e-01 0.0000000000000000e+00  5.0306020338535939e-03 1.2468712477634518e-01 0.0000000000000000e+00  5.1014038386041124e-03 1.2853742445512473e-01 0.0000000000000000e+00  5.1723448941598501e-03 1.3245703598897438e-01 0.0000000000000000e+00  5.2429583651150058e-03 1.3644665388233371e-01 0.0000000000000000e+00  5.3128324374149636e-03 1.4050529978204565e-01 0.0000000000000000e+00  5.3813856284193606e-03 1.4463079768931780e-01 0.0000000000000000e+00  5.4485833984732656e-03 1.4882173561491088e-01 0.0000000000000000e+00  5.5141235186603839e-03 1.5307687910351742e-01 0.0000000000000000e+00  5.5745801141262527e-03 1.5738929069281385e-01 0.0000000000000000e+00  5.6277959836496319e-03 1.6174731783357740e-01 0.0000000000000000e+00  5.6738581667356274e-03 1.6614180319255495e-01 0.0000000000000000e+00  5.7127340842349720e-03 1.7056332452847087e-01 0.0000000000000000e+00  5.7449313649887085e-03 1.7500475509803931e-01 0.0000000000000000e+00  5.7713334022369139e-03 1.7946062164667587e-01 0.0000000000000000e+00  5.7928923429380001e-03 1.8392675620391918e-01 0.0000000000000000e+00  5.8106054280046395e-03 1.8840004692793436e-01 0.0000000000000000e+00  5.8255650936537232e-03 1.9287829692980471e-01 0.0000000000000000e+00  5.8388584820317536e-03 1.9736020709168930e-01 0.0000000000000000e+00  5.8514762916748808e-03 2.0184525896359082e-01 0.0000000000000000e+00  5.8642269655967763e-03 2.0633357304139466e-01 0.0000000000000000e+00  5.8776856945668126e-03 2.1082572467067501e-01 0.0000000000000000e+00  5.8921962904604080e-03 2.1532253902936510e-01 0.0000000000000000e+00  5.9079192735010900e-03 2.1982491831224310e-01 0.0000000000000000e+00  5.9248932030253306e-03 2.2433375486018783e-01 0.0000000000000000e+00  5.9430771560658726e-03 2.2884991335355750e-01 0.0000000000000000e+00  5.9624367757916989e-03 2.3337421404192568e-01 0.0000000000000000e+00  5.9830078622093849e-03 2.3790746406853444e-01 0.0000000000000000e+00  6.0046862356245342e-03 2.4245077295768860e-01 0.0000000000000000e+00  6.0274154949548162e-03 2.4700488301947915e-01 0.0000000000000000e+00  6.0512480829181970e-03 2.5157060509786394e-01 0.0000000000000000e+00  6.0760447007092268e-03 2.5614907911295404e-01 0.0000000000000000e+00  6.1015799582041941e-03 2.6074104320032349e-01 0.0000000000000000e+00  6.1277418239014036e-03 2.6534693457551489e-01 0.0000000000000000e+00  6.1543823777761037e-03 2.6996734537859141e-01 0.0000000000000000e+00  6.1812742589838878e-03 2.7460268496559337e-01 0.0000000000000000e+00  6.2081732049721486e-03 2.7925300367904454e-01 0.0000000000000000e+00  6.2350218999324466e-03 2.8391808868946783e-01 0.0000000000000000e+00  6.2620332833152803e-03 2.8859787365786005e-01 0.0000000000000000e+00  6.2895252927716834e-03 2.9329270901752302e-01 0.0000000000000000e+00  6.3177300016475845e-03 2.9800376186624472e-01 0.0000000000000000e+00  6.3467704570136316e-03 3.0273211229852809e-01 0.0000000000000000e+00  6.3764402955588826e-03 3.0747909104049403e-01 0.0000000000000000e+00  6.4063846396288579e-03 3.1224542122181820e-01 0.0000000000000000e+00  6.4363042359091554e-03 3.1703113507083269e-01 0.0000000000000000e+00  6.4660363505951177e-03 3.2183606801838538e-01 0.0000000000000000e+00  6.4955075630141927e-03 3.2666002027151725e-01 0.0000000000000000e+00  6.5246849073207916e-03 3.3150278703126440e-01 0.0000000000000000e+00  6.5535532864098031e-03 3.3636416265673980e-01 0.0000000000000000e+00  6.5821050145787111e-03 3.4124393869255482e-01 0.0000000000000000e+00  6.6103333206632741e-03 3.4614189873752055e-01 0.0000000000000000e+00  6.6382373710517327e-03 3.5105780579757068e-01 0.0000000000000000e+00  6.6658250862067850e-03 3.5599138374324418e-01 0.0000000000000000e+00  6.6931464433416547e-03 3.6094228626331787e-01 0.0000000000000000e+00  6.7204588512906911e-03 3.6591017249389590e-01 0.0000000000000000e+00  6.7486176573340016e-03 3.7089522773875716e-01 0.0000000000000000e+00  6.7783298863386783e-03 3.7589911813902832e-01 0.0000000000000000e+00  6.8105174376015864e-03 3.8092453686071093e-01 0.0000000000000000e+00  6.8444306738106083e-03 3.8597497325042007e-01 0.0000000000000000e+00  6.8812582042429944e-03 3.9105189651391092e-01 0.0000000000000000e+00  6.9219741075152484e-03 3.9616308894374519e-01 0.0000000000000000e+00  6.9667726432482025e-03 4.0131510438539231e-01 0.0000000000000000e+00  7.0163374107808964e-03 4.0652323848306549e-01 0.0000000000000000e+00  7.0709898469894974e-03 4.1180048967965610e-01 0.0000000000000000e+00  7.1321892109325003e-03 4.1716308997875884e-01 0.0000000000000000e+00  7.1932856930469842e-03 4.2263383267594740e-01 0.0000000000000000e+00  7.2538418722002552e-03 4.2821444982773316e-01 0.0000000000000000e+00  7.3145610466130943e-03 4.3390414590428489e-01 0.0000000000000000e+00  7.3743834484174629e-03 4.3970465146111049e-01 0.0000000000000000e+00  7.4325261678016598e-03 4.4561246833014651e-01 0.0000000000000000e+00  7.4900626763899107e-03 4.5162276230774206e-01 0.0000000000000000e+00  7.5481595180049319e-03 4.5773381081137438e-01 0.0000000000000000e+00  7.6007365215374472e-03 4.6393631610709041e-01 0.0000000000000000e+00  7.6484723417652315e-03 4.7021159943587448e-01 0.0000000000000000e+00  7.6923952739548079e-03 4.7654815504445386e-01 0.0000000000000000e+00  7.7322718443150855e-03 4.8293736941711840e-01 0.0000000000000000e+00  7.7675775871031876e-03 4.8936839467899546e-01 0.0000000000000000e+00  7.7991699324440542e-03 4.9583188522436084e-01 0.0000000000000000e+00  7.8282067421115136e-03 5.0232357741613098e-01 0.0000000000000000e+00  7.8550655605291314e-03 5.0884023448939941e-01 0.0000000000000000e+00  7.8797338552610389e-03 5.1537818168383864e-01 0.0000000000000000e+00  7.9027282289550575e-03 5.2193415338643834e-01 0.0000000000000000e+00  7.9247171036609144e-03 5.2850717430441163e-01 0.0000000000000000e+00  7.9459079154738238e-03 5.3509668657853438e-01 0.0000000000000000e+00  7.9664326252424558e-03 5.4170223705645659e-01 0.0000000000000000e+00  7.9863253255633513e-03 5.4832338577556805e-01 0.0000000000000000e+00  8.0055930443249622e-03 5.5495970703999220e-01 0.0000000000000000e+00  8.0241521429253362e-03 5.6161076029026780e-01 0.0000000000000000e+00  8.0418136170350638e-03 5.6827593237583796e-01 0.0000000000000000e+00  8.0584119390049100e-03 5.7495425416764179e-01 0.0000000000000000e+00  8.0738854328205427e-03 5.8164448431924287e-01 0.0000000000000000e+00  8.0881513146042559e-03 5.8834552755743030e-01 0.0000000000000000e+00  8.1011612037611546e-03 5.9505616205098510e-01 0.0000000000000000e+00  8.1130492280236718e-03 6.0177498883729852e-01 0.0000000000000000e+00  8.1240563682747052e-03 6.0850101884644203e-01 0.0000000000000000e+00  8.1344034950944690e-03 6.1523373737410303e-01 0.0000000000000000e+00  8.1442193918110431e-03 6.2197281977681373e-01 0.0000000000000000e+00  8.1535664522070384e-03 6.2871798693710190e-01 0.0000000000000000e+00  8.1624746495824099e-03 6.3546896993654634e-01 0.0000000000000000e+00  8.1709564411254609e-03 6.4222550476573514e-01 0.0000000000000000e+00  8.1790232760384669e-03 6.4898733483425997e-01 0.0000000000000000e+00  8.1866672382694960e-03 6.5575421623211094e-01 0.0000000000000000e+00  8.1938396906588596e-03 6.6252587679011998e-01 0.0000000000000000e+00  8.2004654360307849e-03 6.6930194884451322e-01 0.0000000000000000e+00  8.2064947662030246e-03 6.7608190213635011e-01 0.0000000000000000e+00  8.2119395502816515e-03 6.8286520384418836e-01 0.0000000000000000e+00  8.2168745944964008e-03 6.8965137706602464e-01 0.0000000000000000e+00  8.2213767572266155e-03 6.9644012178562176e-01 0.0000000000000000e+00  8.2254813191706931e-03 7.0323123740047655e-01 0.0000000000000000e+00  8.2291773245180225e-03 7.1002451827669311e-01 0.0000000000000000e+00  8.2324386889162122e-03 7.1681969424325065e-01 0.0000000000000000e+00  8.2352575972156616e-03 7.2361645795388752e-01 0.0000000000000000e+00  8.2376460635918292e-03 7.3041451027947568e-01 0.0000000000000000e+00  8.2396138908839445e-03 7.3721360787310974e-01 0.0000000000000000e+00  8.2410985295261821e-03 7.4401348491717223e-01 0.0000000000000000e+00  8.2421306192404058e-03 7.5081388683038319e-01 0.0000000000000000e+00  8.2424533912580124e-03 7.5761418562213823e-01 0.0000000000000000e+00  8.2428398461006809e-03 7.6441486822867766e-01 0.0000000000000000e+00  8.0971235846849961e-03 7.7110883768753713e-01 0.0000000000000000e+00  2.6660173980154425e-02 7.8859583098723052e-01 0.0000000000000000e+00  5.0147334294207237e-02 8.0631679451246352e-01 0.0000000000000000e+00  7.5888881006178521e-02 8.2643075669592658e-01 0.0000000000000000e+00  1.0350992285191885e-01 8.5133056829043585e-01 0.0000000000000000e+00  1.3186523930051627e-01 8.8250620812616321e-01 0.0000000000000000e+00  1.5947831020326056e-01 9.2049080421361429e-01 0.0000000000000000e+00  1.8464184994432956e-01 9.6534854568315220e-01 0.0000000000000000e+00  2.0603315420188228e-01 1.0156103538169250e+00 0.0000000000000000e+00  2.2303151715142469e-01 1.0692968778217447e+00 0.0000000000000000e+00  2.3561092560384680e-01 1.1245864537893036e+00 0.0000000000000000e+00  2.4412048948314063e-01 1.1800384465331859e+00 0.0000000000000000e+00  2.4909738757701691e-01 1.2346103397419614e+00 0.0000000000000000e+00  2.5114077430841225e-01 1.2876015222516490e+00 0.0000000000000000e+00  2.5083724559074472e-01 1.3385803004281693e+00 0.0000000000000000e+00  2.4872204460943506e-01 1.3873157863018506e+00 0.0000000000000000e+00  2.4526271238679095e-01 1.4337215099880094e+00 0.0000000000000000e+00  2.4085582108360520e-01 1.4778115404508301e+00 0.0000000000000000e+00  2.3583072375832467e-01 1.5196676402469205e+00 0.0000000000000000e+00  2.3045659816024341e-01 1.5594153685855003e+00 0.0000000000000000e+00  2.2495060740331130e-01 1.5972071114861024e+00 0.0000000000000000e+00  2.1948597274810377e-01 1.6332103197250656e+00 0.0000000000000000e+00  2.1419934291417073e-01 1.6675995831828461e+00 0.0000000000000000e+00  2.0919718689351058e-01 1.7005514870476381e+00 0.0000000000000000e+00  2.0456112488070363e-01 1.7322414555553751e+00 0.0000000000000000e+00  2.0035220412808047e-01 1.7628419888039923e+00 0.0000000000000000e+00  1.9661416097476558e-01 1.7925218417433124e+00 0.0000000000000000e+00  1.9337571057994749e-01 1.8214457868586889e+00 0.0000000000000000e+00  1.9065188691345183e-01 1.8497746457220661e+00 0.0000000000000000e+00  1.8844442771087130e-01 1.8776652658853674e+00 0.0000000000000000e+00  1.8674117246380295e-01 1.9052700444923951e+00 0.0000000000000000e+00  1.8551443216503596e-01 1.9327354255810187e+00 0.0000000000000000e+00  1.8471833231728080e-01 1.9601984557099201e+00 0.0000000000000000e+00  1.8428530918675862e-01 1.9877798352272276e+00 0.0000000000000000e+00  1.8412246860232115e-01 2.0155707036408423e+00 0.0000000000000000e+00  1.8411013681809052e-01 2.0436085905367674e+00 0.0000000000000000e+00  1.8411396583972842e-01 2.0718438651120414e+00 0.0000000000000000e+00  0.0000000000000000e+00 0.0000000000000000e+00 0.0000000000000000e+00  2.3063561514975765e-05 1.1415411670489810e-05 0.0000000000000000e+00  5.1510329514354198e-05 6.0446146225816378e-05 0.0000000000000000e+00  7.9283147883939367e-05 1.4168334691252999e-04 0.0000000000000000e+00  1.0651882610882224e-04 2.5605777580942578e-04 0.0000000000000000e+00  1.3317873760550030e-04 4.0353236626569313e-04 0.0000000000000000e+00  1.5918641766374570e-04 5.8406285826635880e-04 0.0000000000000000e+00  1.8498136566947679e-04 8.0020093212506891e-04 0.0000000000000000e+00  2.1079562117602666e-04 1.0579333148588066e-03 0.0000000000000000e+00  2.3629336214884417e-04 1.3608792542943342e-03 0.0000000000000000e+00  2.6125339750805813e-04 1.7092737762445399e-03 0.0000000000000000e+00  2.8552914954368844e-04 2.1027242629151495e-03 0.0000000000000000e+00  3.0923846163213680e-04 2.5423520755964847e-03 0.0000000000000000e+00  3.3268237624990704e-04 3.0324903177343177e-03 0.0000000000000000e+00  3.5613107781489627e-04 3.5791163082927874e-03 0.0000000000000000e+00  3.7966946065770291e-04 4.1856738862402583e-03 0.0000000000000000e+00  4.0309925858486324e-04 4.8500945246712441e-03 0.0000000000000000e+00  4.2641841244626992e-04 5.5670970023608555e-03 0.0000000000000000e+00  4.4967733836557660e-04 6.3317124743924339e-03 0.0000000000000000e+00  4.7290630868861676e-04 7.1406195251846683e-03 0.0000000000000000e+00  4.9613051125149720e-04 7.9924971229290657e-03 0.0000000000000000e+00  5.1929615168292743e-04 8.8869406411466005e-03 0.0000000000000000e+00  5.4238832144662852e-04 9.8237379131317863e-03 0.0000000000000000e+00  5.6546093060630387e-04 1.0802833733525726e-02 0.0000000000000000e+00  5.8874951975918367e-04 1.1824302656493386e-02 0.0000000000000000e+00  6.1225638278435265e-04 1.2887469457798962e-02 0.0000000000000000e+00  6.3573114245536180e-04 1.3988932161224928e-02 0.0000000000000000e+00  6.5905924259780386e-04 1.5124023374213369e-02 0.0000000000000000e+00  6.8226345564979438e-04 1.6289758817344784e-02 0.0000000000000000e+00  7.0502537600187034e-04 1.7484698688185956e-02 0.0000000000000000e+00  7.2697968657199944e-04 1.8705942599014164e-02 0.0000000000000000e+00  7.4792966530054180e-04 1.9949634166377298e-02 0.0000000000000000e+00  7.6776057567381486e-04 2.1212156016324993e-02 0.0000000000000000e+00  7.8648095056320399e-04 2.2490101056214823e-02 0.0000000000000000e+00  8.0414007127963677e-04 2.3780863884009358e-02 0.0000000000000000e+00  8.2097368636656928e-04 2.5082334748978575e-02 0.0000000000000000e+00  8.3735151346821626e-04 2.6393168863233438e-02 0.0000000000000000e+00  8.5374738515147069e-04 2.7713099051716115e-02 0.0000000000000000e+00  8.7064402898708374e-04 2.9043234302716655e-02 0.0000000000000000e+00  8.8835679561018340e-04 3.0386240341137342e-02 0.0000000000000000e+00  9.0710421245709884e-04 3.1745768672075896e-02 0.0000000000000000e+00  9.2625660714405343e-04 3.3126607613680921e-02 0.0000000000000000e+00  9.4567942154291098e-04 3.4534146295392219e-02 0.0000000000000000e+00  9.6464004750939096e-04 3.5974874036968342e-02 0.0000000000000000e+00  9.8297414310548532e-04 3.7453713666493207e-02 0.0000000000000000e+00  1.0009548636833753e-03 3.8978384485688855e-02 0.0000000000000000e+00  1.0182920783338499e-03 4.0556343709807832e-02 0.0000000000000000e+00  1.0345576881112622e-03 4.2191202636420407e-02 0.0000000000000000e+00  1.0489301429271376e-03 4.3882481407283146e-02 0.0000000000000000e+00  1.0618538961948592e-03 4.5632180313886876e-02 0.0000000000000000e+00  1.0721477290408521e-03 4.7447975190712033e-02 0.0000000000000000e+00  1.0803987672604975e-03 4.9332221002483238e-02 0.0000000000000000e+00  1.0867319055214244e-03 5.1291136409569699e-02 0.0000000000000000e+