<?xml version="1.0"?>
<VTKFile type="UnstructuredGrid"  version="0.1"  >
<UnstructuredGrid>
<Piece  NumberOfPoints="7161" NumberOfCells="13800">
<Points>
<DataArray  type="Float64"  NumberOfComponents="3"  format="ascii">0 0 0  0.01652173913043478 0 0  0.03304347826086956 0 0  0.04956521739130434 0 0  0.06608695652173913 0 0  0.08260869565217391 0 0  0.09913043478260869 0 0  0.1156521739130435 0 0  0.1321739130434783 0 0  0.148695652173913 0 0  0.1652173913043478 0 0  0.1817391304347826 0 0  0.1982608695652174 0 0  0.2147826086956522 0 0  0.2313043478260869 0 0  0.2478260869565218 0 0  0.2643478260869565 0 0  0.2808695652173913 0 0  0.2973913043478261 0 0  0.3139130434782609 0 0  0.3304347826086956 0 0  0.3469565217391304 0 0  0.3634782608695652 0 0  0.3799999999999999 0 0  0.3965217391304348 0 0  0.4130434782608696 0 0  0.4295652173913043 0 0  0.4460869565217391 0 0  0.4626086956521739 0 0  0.4791304347826086 0 0  0.4956521739130435 0 0  0.5121739130434783 0 0  0.528695652173913 0 0  0.5452173913043478 0 0  0.5617391304347825 0 0  0.5782608695652174 0 0  0.5947826086956521 0 0  0.6113043478260869 0 0  0.6278260869565218 0 0  0.6443478260869565 0 0  0.6608695652173913 0 0  0.677391304347826 0 0  0.6939130434782609 0 0  0.7104347826086956 0 0  0.7269565217391304 0 0  0.7434782608695653 0 0  0.7599999999999999 0 0  0.7765217391304348 0 0  0.7930434782608695 0 0  0.8095652173913043 0 0  0.8260869565217391 0 0  0.8426086956521739 0 0  0.8591304347826086 0 0  0.8756521739130434 0 0  0.8921739130434783 0 0  0.908695652173913 0 0  0.9252173913043478 0 0  0.9417391304347826 0 0  0.9582608695652173 0 0  0.9747826086956521 0 0  0.991304347826087 0 0  1.007826086956522 0 0  1.024347826086957 0 0  1.040869565217391 0 0  1.057391304347826 0 0  1.073913043478261 0 0  1.090434782608696 0 0  1.10695652173913 0 0  1.123478260869565 0 0  1.14 0 0  1.156521739130435 0 0  1.17304347826087 0 0  1.189565217391304 0 0  1.206086956521739 0 0  1.222608695652174 0 0  1.239130434782609 0 0  1.255652173913044 0 0  1.272173913043478 0 0  1.288695652173913 0 0  1.305217391304348 0 0  1.321739130434783 0 0  1.338260869565217 0 0  1.354782608695652 0 0  1.371304347826087 0 0  1.387826086956522 0 0  1.404347826086957 0 0  1.420869565217391 0 0  1.437391304347826 0 0  1.453913043478261 0 0  1.470434782608696 0 0  1.486956521739131 0 0  1.503478260869565 0 0  1.52 0 0  1.536521739130435 0 0  1.55304347826087 0 0  1.569565217391304 0 0  1.586086956521739 0 0  1.602608695652174 0 0  1.619130434782609 0 0  1.635652173913043 0 0  1.652173913043478 0 0  1.668695652173913 0 0  1.685217391304348 0 0  1.701739130434782 0 0  1.718260869565217 0 0  1.734782608695652 0 0  1.751304347826087 0 0  1.767826086956522 0 0  1.784347826086957 0 0  1.800869565217391 0 0  1.817391304347826 0 0  1.833913043478261 0 0  1.850434782608696 0 0  1.86695652173913 0 0  1.883478260869565 0 0  1.9 0 0  1.916521739130435 0 0  1.933043478260869 0 0  1.949565217391304 0 0  1.966086956521739 0 0  1.982608695652174 0 0  1.999130434782608 0 0  2.015652173913043 0 0  2.032173913043478 0 0  2.048695652173913 0 0  2.065217391304348 0 0  2.081739130434782 0 0  2.098260869565217 0 0  2.114782608695652 0 0  2.131304347826087 0 0  2.147826086956522 0 0  2.164347826086956 0 0  2.180869565217391 0 0  2.197391304347826 0 0  2.213913043478261 0 0  2.230434782608695 0 0  2.24695652173913 0 0  2.263478260869565 0 0  2.28 0 0  2.296521739130434 0 0  2.31304347826087 0 0  2.329565217391304 0 0  2.346086956521739 0 0  2.362608695652174 0 0  2.379130434782609 0 0  2.395652173913044 0 0  2.412173913043478 0 0  2.428695652173913 0 0  2.445217391304348 0 0  2.461739130434782 0 0  2.478260869565217 0 0  2.494782608695652 0 0  2.511304347826087 0 0  2.527826086956522 0 0  2.544347826086956 0 0  2.560869565217391 0 0  2.577391304347826 0 0  2.593913043478261 0 0  2.610434782608696 0 0  2.62695652173913 0 0  2.643478260869565 0 0  2.66 0 0  2.676521739130435 0 0  2.693043478260869 0 0  2.709565217391304 0 0  2.726086956521739 0 0  2.742608695652174 0 0  2.759130434782609 0 0  2.775652173913044 0 0  2.792173913043478 0 0  2.808695652173913 0 0  2.825217391304347 0 0  2.841739130434783 0 0  2.858260869565217 0 0  2.874782608695652 0 0  2.891304347826087 0 0  2.907826086956522 0 0  2.924347826086957 0 0  2.940869565217391 0 0  2.957391304347826 0 0  2.973913043478261 0 0  2.990434782608696 0 0  3.006956521739131 0 0  3.023478260869565 0 0  3.04 0 0  3.056521739130435 0 0  3.073043478260869 0 0  3.089565217391304 0 0  3.106086956521739 0 0  3.122608695652174 0 0  3.139130434782609 0 0  3.155652173913043 0 0  3.172173913043478 0 0  3.188695652173913 0 0  3.205217391304347 0 0  3.221739130434782 0 0  3.238260869565217 0 0  3.254782608695652 0 0  3.271304347826087 0 0  3.287826086956521 0 0  3.304347826086957 0 0  3.320869565217391 0 0  3.337391304347826 0 0  3.353913043478261 0 0  3.370434782608696 0 0  3.386956521739131 0 0  3.403478260869565 0 0  3.419999999999999 0 0  3.436521739130435 0 0  3.453043478260869 0 0  3.469565217391304 0 0  3.486086956521739 0 0  3.502608695652174 0 0  3.519130434782609 0 0  3.535652173913043 0 0  3.552173913043478 0 0  3.568695652173913 0 0  3.585217391304347 0 0  3.601739130434782 0 0  3.618260869565217 0 0  3.634782608695652 0 0  3.651304347826087 0 0  3.667826086956521 0 0  3.684347826086956 0 0  3.700869565217391 0 0  3.717391304347826 0 0  3.733913043478261 0 0  3.750434782608695 0 0  3.766956521739131 0 0  3.783478260869565 0 0  3.8 0 0  0 0.01666666666666667 0  0.01652173913043478 0.01666666666666667 0  0.03304347826086956 0.01666666666666667 0  0.04956521739130434 0.01666666666666667 0  0.06608695652173913 0.01666666666666667 0  0.08260869565217391 0.01666666666666667 0  0.09913043478260869 0.01666666666666667 0  0.1156521739130435 0.01666666666666667 0  0.1321739130434783 0.01666666666666667 0  0.148695652173913 0.01666666666666667 0  0.1652173913043478 0.01666666666666667 0  0.1817391304347826 0.01666666666666667 0  0.1982608695652174 0.01666666666666667 0  0.2147826086956522 0.01666666666666667 0  0.2313043478260869 0.01666666666666667 0  0.2478260869565218 0.01666666666666667 0  0.2643478260869565 0.01666666666666667 0  0.2808695652173913 0.01666666666666667 0  0.2973913043478261 0.01666666666666667 0  0.3139130434782609 0.01666666666666667 0  0.3304347826086956 0.01666666666666667 0  0.3469565217391304 0.01666666666666667 0  0.3634782608695652 0.01666666666666667 0  0.3799999999999999 0.01666666666666667 0  0.3965217391304348 0.01666666666666667 0  0.4130434782608696 0.01666666666666667 0  0.4295652173913043 0.01666666666666667 0  0.4460869565217391 0.01666666666666667 0  0.4626086956521739 0.01666666666666667 0  0.4791304347826086 0.01666666666666667 0  0.4956521739130435 0.01666666666666667 0  0.5121739130434783 0.01666666666666667 0  0.528695652173913 0.01666666666666667 0  0.5452173913043478 0.01666666666666667 0  0.5617391304347825 0.01666666666666667 0  0.5782608695652174 0.01666666666666667 0  0.5947826086956521 0.01666666666666667 0  0.6113043478260869 0.01666666666666667 0  0.6278260869565218 0.01666666666666667 0  0.6443478260869565 0.01666666666666667 0  0.6608695652173913 0.01666666666666667 0  0.677391304347826 0.01666666666666667 0  0.6939130434782609 0.01666666666666667 0  0.7104347826086956 0.01666666666666667 0  0.7269565217391304 0.01666666666666667 0  0.7434782608695653 0.01666666666666667 0  0.7599999999999999 0.01666666666666667 0  0.7765217391304348 0.01666666666666667 0  0.7930434782608695 0.01666666666666667 0  0.8095652173913043 0.01666666666666667 0  0.8260869565217391 0.01666666666666667 0  0.8426086956521739 0.01666666666666667 0  0.8591304347826086 0.01666666666666667 0  0.8756521739130434 0.01666666666666667 0  0.8921739130434783 0.01666666666666667 0  0.908695652173913 0.01666666666666667 0  0.9252173913043478 0.01666666666666667 0  0.9417391304347826 0.01666666666666667 0  0.9582608695652173 0.01666666666666667 0  0.9747826086956521 0.01666666666666667 0  0.991304347826087 0.01666666666666667 0  1.007826086956522 0.01666666666666667 0  1.024347826086957 0.01666666666666667 0  1.040869565217391 0.01666666666666667 0  1.057391304347826 0.01666666666666667 0  1.073913043478261 0.01666666666666667 0  1.090434782608696 0.01666666666666667 0  1.10695652173913 0.01666666666666667 0  1.123478260869565 0.01666666666666667 0  1.14 0.01666666666666667 0  1.156521739130435 0.01666666666666667 0  1.17304347826087 0.01666666666666667 0  1.189565217391304 0.01666666666666667 0  1.206086956521739 0.01666666666666667 0  1.222608695652174 0.01666666666666667 0  1.239130434782609 0.01666666666666667 0  1.255652173913044 0.01666666666666667 0  1.272173913043478 0.01666666666666667 0  1.288695652173913 0.01666666666666667 0  1.305217391304348 0.01666666666666667 0  1.321739130434783 0.01666666666666667 0  1.338260869565217 0.01666666666666667 0  1.354782608695652 0.01666666666666667 0  1.371304347826087 0.01666666666666667 0  1.387826086956522 0.01666666666666667 0  1.404347826086957 0.01666666666666667 0  1.420869565217391 0.01666666666666667 0  1.437391304347826 0.01666666666666667 0  1.453913043478261 0.01666666666666667 0  1.470434782608696 0.01666666666666667 0  1.486956521739131 0.01666666666666667 0  1.503478260869565 0.01666666666666667 0  1.52 0.01666666666666667 0  1.536521739130435 0.01666666666666667 0  1.55304347826087 0.01666666666666667 0  1.569565217391304 0.01666666666666667 0  1.586086956521739 0.01666666666666667 0  1.602608695652174 0.01666666666666667 0  1.619130434782609 0.01666666666666667 0  1.635652173913043 0.01666666666666667 0  1.652173913043478 0.01666666666666667 0  1.668695652173913 0.01666666666666667 0  1.685217391304348 0.01666666666666667 0  1.701739130434782 0.01666666666666667 0  1.718260869565217 0.01666666666666667 0  1.734782608695652 0.01666666666666667 0  1.751304347826087 0.01666666666666667 0  1.767826086956522 0.01666666666666667 0  1.784347826086957 0.01666666666666667 0  1.800869565217391 0.0166666666666666
[...]
<PointData  Scalars="rho_bar"> 
<DataArray  type="Float64"  Name="rho_bar"  format="ascii">9.9996856133403444e-01  9.9932757634018521e-01  9.9902410481875425e-01  9.9924173360593960e-01  9.9893475041191815e-01  9.9703463924200286e-01  9.9482491076297075e-01  9.9373595604666320e-01  9.9305561165153999e-01  9.9253602012026132e-01  9.9256142681467507e-01  9.9265472625383711e-01  9.9262629944231873e-01  9.9262650829124677e-01  9.9263172030506652e-01  9.9262906580287413e-01  9.9259893333385774e-01  9.9262426514155200e-01  9.9273247375937368e-01  9.9279753532173776e-01  9.9305816378839074e-01  9.9379577882622405e-01  9.9437346083190747e-01  9.9502613692894404e-01  9.9687472110061781e-01  9.9882929644071583e-01  1.0002318399645787e+00  1.0016804759225579e+00  1.0020027086713590e+00  1.0009202374270008e+00  9.9981675096800060e-01  9.9944401223875534e-01  9.9970843914245866e-01  9.9992662752120876e-01  9.9971574458285883e-01  9.9940924456528679e-01  9.9989738345731283e-01  1.0012997878264673e+00  1.0019337267648685e+00  1.0002040057889396e+00  9.9703931376293919e-01  9.9381724415591888e-01  9.9177468555237724e-01  9.9423032321692906e-01  9.9976454205310861e-01  1.0029244507679762e+00  1.0034745011657822e+00  1.0042002051757604e+00  1.0061902684987698e+00  1.0098003248145608e+00  1.0146182302136419e+00  1.0179471329968039e+00  1.0188168701963198e+00  1.0189577706247550e+00  1.0190644213990434e+00  1.0190908572723700e+00  1.0190978014463832e+00  1.0190853084476912e+00  1.0190517843242748e+00  1.0189960041219690e+00  1.0189192563535385e+00  1.0188265914461765e+00  1.0187253275689501e+00  1.0186192994107450e+00  1.0185031452332065e+00  1.0183691378437625e+00  1.0182421581222896e+00  1.0182100309125521e+00  1.0183591257930120e+00  1.0186678349846499e+00  1.0189216217814707e+00  1.0192818931908758e+00  1.0189949859086234e+00  1.0189815342662958e+00  1.0215323945098058e+00  1.0250618376147453e+00  1.0273261536910989e+00  1.0277481493479796e+00  1.0274420941231230e+00  1.0278291685602996e+00  1.0273533251875699e+00  1.0248339681036847e+00  1.0187298300089589e+00  1.0063970187027853e+00  9.9486683316277247e-01  9.9428307512838776e-01  9.9973142741623044e-01  1.0011084170428199e+00  9.9987427152596631e-01  9.9989045795328102e-01  1.0000549901198645e+00  9.9995609018687004e-01  9.9999671665233003e-01  1.0001015873269516e+00  1.0001095830860107e+00  9.9992423532812758e-01  9.9959168890813854e-01  9.9943400486362699e-01  9.9968871965859674e-01  1.0000966855950930e+00  1.0005715202226000e+00  1.0012435692751112e+00  1.0017913834871899e+00  1.0020475732413503e+00  1.0020520527468810e+00  1.0015844495080513e+00  1.0009433691613270e+00  1.0003771734732247e+00  9.9959811534407128e-01  9.9902909803797324e-01  9.9901195716553592e-01  9.9910461416410090e-01  9.9901293388587398e-01  9.9830952271814855e-01  9.9661613340608846e-01  9.9503050991519826e-01  9.9471982263367709e-01  9.9472739155149170e-01  9.9410274888066930e-01  9.9339133874685048e-01  9.9302815678452327e-01  9.9290163394644937e-01  9.9285704057482349e-01  9.9283258557476395e-01  9.9281653995336960e-01  9.9279533646054430e-01  9.9282705812235972e-01  9.9270301558590290e-01  9.9285763937920468e-01  9.9244371494007910e-01  9.9168705826894499e-01  9.9554141712966060e-01  1.0007825992625099e+00  1.0060798840097243e+00  1.0144887887872402e+00  1.0284220270893876e+00  1.0285802414472787e+00  1.0005187839341423e+00  9.8600840177191917e-01  9.8825212213146707e-01  9.6742403736608673e-01  9.3695707274582207e-01  9.2646870582564489e-01  9.2696097768349239e-01  9.3856433573406117e-01  9.6804271552617294e-01  9.8703645379043625e-01  9.8640102091860515e-01  9.9737101234404879e-01  1.0220641522331562e+00  1.0300875436047829e+00  1.0247090100546752e+00  1.0185341733151250e+00  1.0093272124048833e+00  1.0033913653380466e+00  1.0031665054683101e+00  1.0036298212516654e+00  1.0035176098995719e+00  1.0035152509511946e+00  1.0035098997980474e+00  1.0036380814099444e+00  1.0024713775004963e+00  9.9984631759379050e-01  9.9762511386638841e-01  9.9460768816876188e-01  9.9222024235597905e-01  9.9247892311578634e-01  9.9272868984786666e-01  9.9257641341155423e-01  9.9273411915117016e-01  9.9278426024207600e-01  9.9280864444633177e-01  9.9291916674619296e-01  9.9326826644290178e-01  9.9396430023668370e-01  9.9465453251558933e-01  9.9473944407973147e-01  9.9491218855129271e-01  9.9636205489413654e-01  9.9827320202003544e-01  9.9910925323040356e-01  9.9907629187826208e-01  9.9948751458791030e-01  1.0008865445332744e+00  1.0020942125028041e+00  1.0018049432205507e+00  1.0005642128941516e+00  9.9974283810522735e-01  9.9970018132643323e-01  1.0006039955692676e+00  9.9770395212711416e-01  1.0044707666169854e+00  1.0186366587934901e+00  8.1822960284506319e-01  -4.3061540319703065e-02  -1.0853461897770820e-02  4.5741368613693009e-03  -9.1427773503940544e-04  1.4101112454523122e-04  -3.7841234442632116e-05  1.7974049272333397e-05  -7.3187680855667814e-06  2.2047538056982492e-06  -4.7266617436400018e-07  5.6109997740043144e-08  6.3512426336102414e-09  -5.8838976641251500e-09  1.9562486736586999e-09  -4.3690533541660181e-10  6.4476155473285763e-11  -2.4691355924124835e-12  -2.0956498624641572e-12  8.4105164906887976e-13  -1.9799129642713705e-13  3.1679964756311688e-14  -2.5381958686861751e-15  -4.0989302879476449e-16  2.0890030482701000e-16  -5.1571037141387558e-17  9.1613323256704585e-18  2.2971749188043848e-19  -4.5266456351052627e-19  -1.0295898299334120e-19  4.7761292228401166e-20  3.3595769030965451e-20  -1.5096255895620562e-20  -4.4706892795838279e-21  3.7815229525809811e-21  3.4871377024334043e-23  -7.5208742630796571e-22  2.9839445110395317e-22  9.9935995443182946e-01  1.0007191119459153e+00  1.0018018259571262e+00  1.0018412046135408e+00  1.0014541669532953e+00  1.0036033953869703e+00  1.0084128562995698e+00  1.0117271137671764e+00  1.0131247568855704e+00  1.0145724200763389e+00  1.0150110003297623e+00  1.0147093460391545e+00  1.0147326120708293e+00  1.0147478723296632e+00  1.0147435929228945e+00  1.0147334591148387e+00  1.0147640166570697e+00  1.0148125178691352e+00  1.0146489831595840e+00  1.0144426953306422e+00  1.0142693799302542e+00  1.0132594716305861e+00  1.0116373795805862e+00  1.0108312800460979e+00  1.0084662182008002e+00  1.0039819018125085e+00  1.0009769283327412e+00  9.9807266559187813e-01  9.9576863232247059e-01  9.9692288498866399e-01  9.9940667291064655e-01  1.0009609493524654e+00  1.0009444188760306e+00  1.0002449438166021e+00  1.0002630817571025e+00  1.0009217484510660e+00  1.0010439538329794e+00  9.9890937959919635e-01  9.9627570181030300e-01  9.9717122108737988e-01  1.0027302412818890e+00  1.0091411924568556e+00  1.0150000754177211e+00  1.0156520842387142e+00  1.0058873323077469e+00  9.9624165454046731e-01  9.9336547154614752e-01  9.9264869698462932e-01  9.8991830265580538e-01  9.8451062685271629e-01  9.7568414934738701e-01  9.6658743110599621e-01  9.6285361969860350e-01  9.6224331790164908e-01  9.6194272442639805e-01  9.6183969742790154e-01  9.6180661933226586e-01  9.6181189346854690e-01  9.6185738830304435e-01  9.6194660243929309e-01  9.6207986485588748e-01  9.6225106829941720e-01  9.6244686540080004e-01  9.6265420646388156e-01  9.6287365890279686e-01  9.6312268677032375e-01  9.6339724802063309e-01  9.6358669323433321e-01  9.6348257207035282e-01  9.6300111760200258e-01  9.6235500365679838e-01  9.6190526691101996e-01  9.6129074967129957e-01  9.6259257887423610e-01  9.6019912811765407e-01  9.5318200241239959e-01  9.4720321064290613e-01  9.4441333480242795e-01  9.4495809324651669e-01  9.4492696542996835e-01  9.4418781923377981e-01  9.4742063687151035e-01  9.5503588121916427e-01  9.7315913535071530e-01  1.0008514769550574e+00  1.0142079766410330e+00  1.0056436676842946e+00  9.9746630398140146e-01  9.9940559541903307e-01  1.0004721525050109e+00  9.9989184281222299e-01  1.0000199127581020e+00  1.0000859632951835e+00  9.9989504799090823e-01  9.9974704015905869e-01  9.9991129925536315e-01  1.0004653587631731e+00  1.0010804544165255e+00  1.0009773267092170e+00  1.0001911690856267e+00  9.9938865418849088e-01  9.9822665770860142e-01  9.9686118261116119e-01  9.9611909566903223e-01  9.9581646648987299e-01  9.9621136389477682e-01  9.9753757662695730e-01  9.9865150439841499e-01  9.9994623292920515e-01  1.0015562852829754e+00  1.0020513843482930e+00  1.0018458880540553e+00  1.0018278239279286e+00  1.0024263059733178e+00  1.0048305922262513e+00  1.0086509912388035e+00  1.0105895009957109e+00  1.0103720803699037e+00  1.0110344592184426e+00  1.0125979289903724e+00  1.0136626019364745e+00  1.0141064413632985e+00  1.0142460581176722e+00  1.0143157103972436e+00  1.0143497426143586e+00  1.0143866765078706e+00  1.0144055150726237e+00  1.0143641345370655e+00  1.0146844699544357e+00  1.0141692466449506e+00  1.0162272597107320e+00  1.0147189994475549e+00  1.0024219203977276e+00  9.9441963124504240e-01  9.7970502270090087e-01  9.5957765538781348e-01  9.3362174822675603e-01  9.6616712191963638e-01  1.0249822046683330e+00  1.0226071369830960e+00  1.0359202770534923e+00  1.0992030134095963e+00  1.1429793967570621e+00  1.1456554605513387e+00  1.1409450856183221e+00  1.0958600605746527e+00  1.0372113980845712e+00  1.0244573723217232e+00  1.0241358318552116e+00  9.7951854453675269e-01  9.4055972078935690e-01  9.4579106725237128e-01  9.5577104412364011e-01  9.7160832470119796e-01  9.8944726875755751e-01  9.9413177629169824e-01  9.9285811400850799e-01  9.9291036455254611e-01  9.9296426964729878e-01  9.9297622265029895e-01  9.9291741177498050e-01  9.9317770534590721e-01  9.9766596265072727e-01  1.0027468388844518e+00  1.0071508166350993e+00  1.0141034407474239e+00  1.0156925265423569e+00  1.0143962380083527e+00  1.0148900241843701e+00  1.0146493310814408e+00  1.0144679746382264e+00  1.0144078628367863e+00  1.0143144903300745e+00  1.0138895539867228e+00  1.0128639131931247e+00  1.0112817866175707e+00  1.0104027436774468e+00  1.0105955635499095e+00  1.0091171213092698e+00  1.0052040187226476e+00  1.0022407211549684e+00  1.0017567722046647e+00  1.0017159682513832e+00  9.9984006977910878e-01  9.9670943307570337e-01  9.9566218553896402e-01  9.9759377210089872e-01  9.9993969855374953e-01  1.0006995900202686e+00  1.0000264491631761e+00  9.9945949740223861e-01  1.0048912651232853e+00  9.7352612956544726e-01  1.0592137092936540e+00  -2.7568454432083195e-01  6.0054982125600509e-02  -8.2508947031210943e-03  4.1235393541829839e-04  -2.7094723257305610e-05  8.0120834362639362e-05  -4.6089717943523315e-05  1.4747571390623184e-05  -2.8806686729386625e-06  1.6212438580922544e-07  1.2544223556361067e-07  -6.0614762918548310e-08  1.6447984979758352e-08  -2.9500376410172176e-09  2.4169311981192396e-10  5.8660471871871347e-11  -3.2401702787224880e-11  8.6188567590511630e-12  -1.5178651999868854e-12  1.4153083222586568e-13  1.6077250142941936e-14  -1.0852398263967001e-14  2.8319500062668560e-15  -4.3762313795297165e-16  4.1654256440005815e-17  4.0280364078147426e-18  -5.8413735600729553e-18  7.9788720335162275e-19  4.9672723273640762e-19  1.4601351884676542e-20  -1.2320362158869229e-19  6.0837963294054755e-21  2.4642431481765291e-20  -5.5729971714940062e-21  -3.5536627349692275e-21  1.9343308407597084e-21  1.5529852410005930e-22  1.0026522850856303e+00  9.9989060154875486e-01  9.9533680871256391e-01  9.9294023782627083e-01  9.9449070315736088e-01  9.9316321110448835e-01  9.7938000366689126e-01  9.6295279937655842e-01  9.5658603802559738e-01  9.5157431911925128e-01  9.4726377143556928e-01  9.4829101353542067e-01  9.4849314476053725e-01  9.4837293874950368e-01  9.4841081454521547e-01  9.4838806787659469e-01  9.4844278174646013e-01  9.4819914219040680e-01  9.4828955230271139e-01  9.4920459663906687e-01  9.4969085920611773e-01  9.5113499514099142e-01  9.5654747295002807e-01  9.6136825823162986e-01  9.6414086594953552e-01  9.7834778495748376e-01  9.9261364009257902e-01  1.0004090861012931e+00  1.0124970438050789e+00  1.0142124270856292e+00  1.0061520116509015e+00  9.9878712814907911e-01  9.9583532074268544e-01  9.9813982145084157e-01  9.9954794835273431e-01  9.9806449673290321e-01  9.9597298782246191e-01  9.9862553310679136e-01  1.0094013623709583e+00  1.0136303114893035e+00  1.0021986863404089e+00  9.7786413287213358e-01  9.5870183776825502e-01  9.4091250332154197e-01  9.5828257475139000e-01  1.0005048273528994e+00  1.0201034487293084e+00  1.0244144185349384e+00  1.0287349190137780e+00  1.0442054675395072e+00  1.0671377260276607e+00  1.1032407649010956e+00  1.1261315162064833e+00  1.1311520134011195e+00  1.1328170942429003e+00  1.1334213518453520e+00  1.1336358411571512e+00  1.1336841932340436e+00  1.1335973284252836e+00  1.1333627530766290e+00  1.1329725906824275e+00  1.1324352889680209e+00  1.1317857231790613e+00  1.1310758906377036e+00  1.1303337192957041e+00  1.1295249894093502e+00  1.1285956999682991e+00  1.1277001359371828e+00  1.1274476955309800e+00  1.1284999045049935e+00  1.1306288533781692e+00  1.1327452834018836e+00  1.1339738468315441e+00  1.1355069302558940e+00  1.1294711985348065e+00  1.1530455226965204e+00  1.1738658919439633e+00  1.1929315156779208e+00  1.1933528685790027e+00  1.1923680282383895e+00  1.1936530040180715e+00  1.1936899845298907e+00  1.1703752004968400e+00  1.1352659418532942e+00  1.0447650391564383e+00  9.6149513525590347e-01  9.5761195196737592e-01  1.0028372587597894e+00  1.0064758097894149e+00  9.9816947264117994e-01  9.9993544461824191e-01  1.0002759851721521e+00  9.9961565186508528e-01  1.0000008007755941e+00  1.0006976038454221e+00  1.0008026375409826e+00  9.9948334959045959e-01  9.9721681992233635e-01  9.9583207433434606e-01  9.9790961738596418e-01  1.0007919819488684e+00  1.0037900603082566e+00  1.0087850671427625e+00  1.0126671310503261e+00  1.0141016891058967e+00  1.0145694264028149e+00  1.0111718448567513e+00  1.0062120084189283e+00  1.0030746129998582e+00  9.9706491092621630e-01  9.9297254671638047e-01  9.9327591865331166e-01  9.9365297341648684e-01  9.9299034093858296e-01  9.8847095046330002e-01  9.7654254284282371e-01  9.6448477318109482e-01  9.6320481668704494e-01  9.6349152669420068e-01  9.5850156820270593e-01  9.5371970907261328e-01  9.5118081342348670e-01  9.5034208761159367e-01  9.5000073740054958e-01  9.4981957333436107e-01  9.4973045854623073e-01  9.4958234830563748e-01  9.4961135563076826e-01  9.4958377841150765e-01  9.4821536571474230e-01  9.5055607043109025e-01  9.3906135200297836e-01  9.6674699580461665e-01  1.0132588347242404e+00  1.0312339514346334e+00  1.1159699529301299e+00  1.1703265279386954e+00  1.2451959368566388e+00  9.7009835334902528e-01  9.0470697403216949e-01  9.2448719844349203e-01  7.8250482780475183e-01  5.3899572698722376e-01  4.9482266737153163e-01  4.9382298770916977e-01  5.5344163035011418e-01  7.8663362210577625e-01  9.1470138136354318e-01  9.0376968003979974e-01  9.6366737870777797e-01  1.1750906368499214e+00  1.2040897307868650e+00  1.1700365471264413e+00  1.1346946128083424e+00  1.0625757403832532e+00  1.0222819683355677e+00  1.0240641203418117e+00  1.0249487280429050e+00  1.0246192698347660e+00  1.0246756642278161e+00  1.0245601676988576e+00  1.0246334524470517e+00  1.0196074821413459e+00  9.9615450262963801e-01  9.8507625331763671e-01  9.6293576520473179e-01  9.4277231660851912e-01  9.4987367990977700e-01  9.4795872834971817e-01  9.4835045419483677e-01  9.4908502793118676e-01  9.4953155092796759e-01  9.4964590239459623e-01  9.5044192760891311e-01  9.5285491175844816e-01  9.5755770179891386e-01  9.6286608887280800e-01  9.6344612229969961e-01  9.6380899878309212e-01  9.7441444764329099e-01  9.8836834064240253e-01  9.9384408625002529e-01  9.9347304600695852e-01  9.9607049603478282e-01  1.0060896248422824e+00  1.0151707643493353e+00  1.0126537615169151e+00  1.0038125656702639e+00  9.9794882988668554e-01  9.9844446284310540e-01  1.0009335778596200e+00  9.9908377574409446e-01  9.9640828780439872e-01  1.0752225349754898e+00  3.1431602745501208e-01  -1.6865380720056385e-02  -5.6140707921156930e-03  9.3142798622497980e-04  1.2125787013136649e-03  -7.6921852105659707e-04  2.5850806597898905e-04  -5.6970978900814139e-05  6.8006559867703639e-06  6.8767455429782009e-07  -6.3728206311236863e-07  1.9967520346397827e-07  -4.0338086869716266e-08  4.7476325812458312e-09  1.9056415575378680e-10  -2.6868904372207338e-10  7.9863975409458988e-11  -1.4740107197907223e-11  1.5113200856886539e-12  9.0081736350997913e-14  -8.0539132503983348e-14  1.9708529355257537e-14  -2.6451088082904740e-15  -1.0848092990957531e-16  6.1608218888361733e-17  -3.5267923668859735e-17  1.7696527157755241e-17  3.1347407739650971e-18  -2.3544705951081979e-18  -8.8275781004266238e-19  4.7682377835182704e-19  1.6035574170687687e-19  -1.1679684271172763e-19  -1.2001600161571196e-20  2.5039980770742008e-20  -3.8957323597976620e-21  -3.5946724246077939e-21  1.0001241262337701e+00  9.9241050286154642e-01  1.0101777276699746e+00  1.0224496427765635e+00  1.0264383878252086e+00  1.0172185727330212e+00  1.0448738914755191e+00  1.1107138243555339e+00  1.1554633676258681e+00  1.1656414150719803e+00  1.1933656837894249e+00  1.1936029345363741e+00  1.1911737216860645e+00  1.1917614993557919e+00  1.1916164244409297e+00  1.1916662164091107e+00  1.1916747280019035e+00  1.1915838956804181e+00  1.1929123826017558e+00  1.1904850637237716e+00  1.1872152664427589e+00  1.1855879112795704e+00  1.1738349341574839e+00  1.1494801235585457e+00  1.1391533285254176e+00  1.1169879343413454e+00  1.0437227298583156e+00  1.0168797283821736e+00  9.7650547718777314e-01  9.4004944888047570e-01  9.6333541583862614e-01  9.9042340112193794e-01  1.0144988753268789e+00  1.0116568823885830e+00  1.0029315571183073e+00  1.0030684090078303e+00  1.0118388442113759e+00  1.0136674967301067e+00  9.8925162100354180e-01  9.4689927876510760e-01  9.6627188069001302e-01  1.0291400945368185e+00  1.1309031503829625e+00  1.1739679189392467e+00  1.2329204889554133e+00  1.0544273153153363e+00  9.6202871023834791e-01  9.0282422541133911e-01  9.1583672710514663e-01  8.6056687308854452e-01  8.0389874640745707e-01  6.8563387581620738e-01  5.5938061604946288e-01  5.1999604567923452e-01  5.0904513716143540e-01  5.0529044926837707e-01  5.0394231669116263e-01  5.0348608255447591e-01  5.0355208749926750e-01  5.0414309148079139e-01  5.0530266426009141e-01  5.0703434440259321e-01  5.0926245926873182e-01  5.1181239320108785e-01  5.1451040954370308e-01  5.1735743804766576e-01  5.2056595579494902e-01  5.2411402821217012e-01  5.2665716699004250e-01  5.2538672682567389e-01  5.1905286510988802e-01  5.1057154502463631e-01  5.0409129545269971e-01  5.0060936590624339e-01  4.9896965027994700e-01  5.1183581242447695e-01  3.1166455862033771e-01  1.6453863120912701e-01  1.0328357241946405e-01  9.3811131188428876e-02  9.4423152275682959e-02  9.4706627474434701e-02  1.6348025352861834e-01  3.7554352829668602e-01  6.6396977939291824e-01  9.9666827603838581e-01  1.2169244677062818e+00  1.0532197821484297e+00  9.6255893187034192e-01  1.0007075785917572e+00  1.0039865832294559e+00  9.9759129593051898e-01  1.0012899409829086e+00  1.0006334858255415e+00  9.9906744252428703e-01  9.9630140793662625e-01  9.9904347396717008e-01  1.0056603130082076e+00  1.0141775303532616e+00  1.0136458052066106e+00  1.0011039383995382e+00  9.9286466893890424e-01  9.7720260822282445e-01  9.5854195724224589e-01  9.4958822192693360e-01  9.4662952382562893e-01  9.4865255341017329e-01  9.6978600210583454e-01  9.8250640849861048e-01  9.9717125682946750e-01  1.0228895996848051e+00  1.0253266208061058e+00  1.0244950747387964e+00  1.0236471131883957e+00  1.0320327873990642e+00  1.0603517278401522e+00  1.1139557079934412e+00  1.1401478011555957e+00  1.1316854174812154e+00  1.1442524978754740e+00  1.1638944689326602e+00  1.1778443640786149e+00  1.1832399153964772e+00  1.1851735086289474e+00  1.1860986375068721e+00  1.1865872735285701e+00  1.1868916344318070e+00  1.1874802699768623e+00  1.1869158199116838e+00  1.1887061837822492e+00  1.1930080564873025e+00  1.1859822968527431e+00  1.2314002657353782e+00  9.9865665286441163e-01  9.2696783