<?xml version="1.0"?>
<VTKFile type="UnstructuredGrid"  version="0.1"  >
<UnstructuredGrid>
<Piece  NumberOfPoints="7161" NumberOfCells="13800">
<Points>
<DataArray  type="Float64"  NumberOfComponents="3"  format="ascii">0 0 0  0.01652173913043478 0 0  0.03304347826086956 0 0  0.04956521739130434 0 0  0.06608695652173913 0 0  0.08260869565217391 0 0  0.09913043478260869 0 0  0.1156521739130435 0 0  0.1321739130434783 0 0  0.148695652173913 0 0  0.1652173913043478 0 0  0.1817391304347826 0 0  0.1982608695652174 0 0  0.2147826086956522 0 0  0.2313043478260869 0 0  0.2478260869565218 0 0  0.2643478260869565 0 0  0.2808695652173913 0 0  0.2973913043478261 0 0  0.3139130434782609 0 0  0.3304347826086956 0 0  0.3469565217391304 0 0  0.3634782608695652 0 0  0.3799999999999999 0 0  0.3965217391304348 0 0  0.4130434782608696 0 0  0.4295652173913043 0 0  0.4460869565217391 0 0  0.4626086956521739 0 0  0.4791304347826086 0 0  0.4956521739130435 0 0  0.5121739130434783 0 0  0.528695652173913 0 0  0.5452173913043478 0 0  0.5617391304347825 0 0  0.5782608695652174 0 0  0.5947826086956521 0 0  0.6113043478260869 0 0  0.6278260869565218 0 0  0.6443478260869565 0 0  0.6608695652173913 0 0  0.677391304347826 0 0  0.6939130434782609 0 0  0.7104347826086956 0 0  0.7269565217391304 0 0  0.7434782608695653 0 0  0.7599999999999999 0 0  0.7765217391304348 0 0  0.7930434782608695 0 0  0.8095652173913043 0 0  0.8260869565217391 0 0  0.8426086956521739 0 0  0.8591304347826086 0 0  0.8756521739130434 0 0  0.8921739130434783 0 0  0.908695652173913 0 0  0.9252173913043478 0 0  0.9417391304347826 0 0  0.9582608695652173 0 0  0.9747826086956521 0 0  0.991304347826087 0 0  1.007826086956522 0 0  1.024347826086957 0 0  1.040869565217391 0 0  1.057391304347826 0 0  1.073913043478261 0 0  1.090434782608696 0 0  1.10695652173913 0 0  1.123478260869565 0 0  1.14 0 0  1.156521739130435 0 0  1.17304347826087 0 0  1.189565217391304 0 0  1.206086956521739 0 0  1.222608695652174 0 0  1.239130434782609 0 0  1.255652173913044 0 0  1.272173913043478 0 0  1.288695652173913 0 0  1.305217391304348 0 0  1.321739130434783 0 0  1.338260869565217 0 0  1.354782608695652 0 0  1.371304347826087 0 0  1.387826086956522 0 0  1.404347826086957 0 0  1.420869565217391 0 0  1.437391304347826 0 0  1.453913043478261 0 0  1.470434782608696 0 0  1.486956521739131 0 0  1.503478260869565 0 0  1.52 0 0  1.536521739130435 0 0  1.55304347826087 0 0  1.569565217391304 0 0  1.586086956521739 0 0  1.602608695652174 0 0  1.619130434782609 0 0  1.635652173913043 0 0  1.652173913043478 0 0  1.668695652173913 0 0  1.685217391304348 0 0  1.701739130434782 0 0  1.718260869565217 0 0  1.734782608695652 0 0  1.751304347826087 0 0  1.767826086956522 0 0  1.784347826086957 0 0  1.800869565217391 0 0  1.817391304347826 0 0  1.833913043478261 0 0  1.850434782608696 0 0  1.86695652173913 0 0  1.883478260869565 0 0  1.9 0 0  1.916521739130435 0 0  1.933043478260869 0 0  1.949565217391304 0 0  1.966086956521739 0 0  1.982608695652174 0 0  1.999130434782608 0 0  2.015652173913043 0 0  2.032173913043478 0 0  2.048695652173913 0 0  2.065217391304348 0 0  2.081739130434782 0 0  2.098260869565217 0 0  2.114782608695652 0 0  2.131304347826087 0 0  2.147826086956522 0 0  2.164347826086956 0 0  2.180869565217391 0 0  2.197391304347826 0 0  2.213913043478261 0 0  2.230434782608695 0 0  2.24695652173913 0 0  2.263478260869565 0 0  2.28 0 0  2.296521739130434 0 0  2.31304347826087 0 0  2.329565217391304 0 0  2.346086956521739 0 0  2.362608695652174 0 0  2.379130434782609 0 0  2.395652173913044 0 0  2.412173913043478 0 0  2.428695652173913 0 0  2.445217391304348 0 0  2.461739130434782 0 0  2.478260869565217 0 0  2.494782608695652 0 0  2.511304347826087 0 0  2.527826086956522 0 0  2.544347826086956 0 0  2.560869565217391 0 0  2.577391304347826 0 0  2.593913043478261 0 0  2.610434782608696 0 0  2.62695652173913 0 0  2.643478260869565 0 0  2.66 0 0  2.676521739130435 0 0  2.693043478260869 0 0  2.709565217391304 0 0  2.726086956521739 0 0  2.742608695652174 0 0  2.759130434782609 0 0  2.775652173913044 0 0  2.792173913043478 0 0  2.808695652173913 0 0  2.825217391304347 0 0  2.841739130434783 0 0  2.858260869565217 0 0  2.874782608695652 0 0  2.891304347826087 0 0  2.907826086956522 0 0  2.924347826086957 0 0  2.940869565217391 0 0  2.957391304347826 0 0  2.973913043478261 0 0  2.990434782608696 0 0  3.006956521739131 0 0  3.023478260869565 0 0  3.04 0 0  3.056521739130435 0 0  3.073043478260869 0 0  3.089565217391304 0 0  3.106086956521739 0 0  3.122608695652174 0 0  3.139130434782609 0 0  3.155652173913043 0 0  3.172173913043478 0 0  3.188695652173913 0 0  3.205217391304347 0 0  3.221739130434782 0 0  3.238260869565217 0 0  3.254782608695652 0 0  3.271304347826087 0 0  3.287826086956521 0 0  3.304347826086957 0 0  3.320869565217391 0 0  3.337391304347826 0 0  3.353913043478261 0 0  3.370434782608696 0 0  3.386956521739131 0 0  3.403478260869565 0 0  3.419999999999999 0 0  3.436521739130435 0 0  3.453043478260869 0 0  3.469565217391304 0 0  3.486086956521739 0 0  3.502608695652174 0 0  3.519130434782609 0 0  3.535652173913043 0 0  3.552173913043478 0 0  3.568695652173913 0 0  3.585217391304347 0 0  3.601739130434782 0 0  3.618260869565217 0 0  3.634782608695652 0 0  3.651304347826087 0 0  3.667826086956521 0 0  3.684347826086956 0 0  3.700869565217391 0 0  3.717391304347826 0 0  3.733913043478261 0 0  3.750434782608695 0 0  3.766956521739131 0 0  3.783478260869565 0 0  3.8 0 0  0 0.01666666666666667 0  0.01652173913043478 0.01666666666666667 0  0.03304347826086956 0.01666666666666667 0  0.04956521739130434 0.01666666666666667 0  0.06608695652173913 0.01666666666666667 0  0.08260869565217391 0.01666666666666667 0  0.09913043478260869 0.01666666666666667 0  0.1156521739130435 0.01666666666666667 0  0.1321739130434783 0.01666666666666667 0  0.148695652173913 0.01666666666666667 0  0.1652173913043478 0.01666666666666667 0  0.1817391304347826 0.01666666666666667 0  0.1982608695652174 0.01666666666666667 0  0.2147826086956522 0.01666666666666667 0  0.2313043478260869 0.01666666666666667 0  0.2478260869565218 0.01666666666666667 0  0.2643478260869565 0.01666666666666667 0  0.2808695652173913 0.01666666666666667 0  0.2973913043478261 0.01666666666666667 0  0.3139130434782609 0.01666666666666667 0  0.3304347826086956 0.01666666666666667 0  0.3469565217391304 0.01666666666666667 0  0.3634782608695652 0.01666666666666667 0  0.3799999999999999 0.01666666666666667 0  0.3965217391304348 0.01666666666666667 0  0.4130434782608696 0.01666666666666667 0  0.4295652173913043 0.01666666666666667 0  0.4460869565217391 0.01666666666666667 0  0.4626086956521739 0.01666666666666667 0  0.4791304347826086 0.01666666666666667 0  0.4956521739130435 0.01666666666666667 0  0.5121739130434783 0.01666666666666667 0  0.528695652173913 0.01666666666666667 0  0.5452173913043478 0.01666666666666667 0  0.5617391304347825 0.01666666666666667 0  0.5782608695652174 0.01666666666666667 0  0.5947826086956521 0.01666666666666667 0  0.6113043478260869 0.01666666666666667 0  0.6278260869565218 0.01666666666666667 0  0.6443478260869565 0.01666666666666667 0  0.6608695652173913 0.01666666666666667 0  0.677391304347826 0.01666666666666667 0  0.6939130434782609 0.01666666666666667 0  0.7104347826086956 0.01666666666666667 0  0.7269565217391304 0.01666666666666667 0  0.7434782608695653 0.01666666666666667 0  0.7599999999999999 0.01666666666666667 0  0.7765217391304348 0.01666666666666667 0  0.7930434782608695 0.01666666666666667 0  0.8095652173913043 0.01666666666666667 0  0.8260869565217391 0.01666666666666667 0  0.8426086956521739 0.01666666666666667 0  0.8591304347826086 0.01666666666666667 0  0.8756521739130434 0.01666666666666667 0  0.8921739130434783 0.01666666666666667 0  0.908695652173913 0.01666666666666667 0  0.9252173913043478 0.01666666666666667 0  0.9417391304347826 0.01666666666666667 0  0.9582608695652173 0.01666666666666667 0  0.9747826086956521 0.01666666666666667 0  0.991304347826087 0.01666666666666667 0  1.007826086956522 0.01666666666666667 0  1.024347826086957 0.01666666666666667 0  1.040869565217391 0.01666666666666667 0  1.057391304347826 0.01666666666666667 0  1.073913043478261 0.01666666666666667 0  1.090434782608696 0.01666666666666667 0  1.10695652173913 0.01666666666666667 0  1.123478260869565 0.01666666666666667 0  1.14 0.01666666666666667 0  1.156521739130435 0.01666666666666667 0  1.17304347826087 0.01666666666666667 0  1.189565217391304 0.01666666666666667 0  1.206086956521739 0.01666666666666667 0  1.222608695652174 0.01666666666666667 0  1.239130434782609 0.01666666666666667 0  1.255652173913044 0.01666666666666667 0  1.272173913043478 0.01666666666666667 0  1.288695652173913 0.01666666666666667 0  1.305217391304348 0.01666666666666667 0  1.321739130434783 0.01666666666666667 0  1.338260869565217 0.01666666666666667 0  1.354782608695652 0.01666666666666667 0  1.371304347826087 0.01666666666666667 0  1.387826086956522 0.01666666666666667 0  1.404347826086957 0.01666666666666667 0  1.420869565217391 0.01666666666666667 0  1.437391304347826 0.01666666666666667 0  1.453913043478261 0.01666666666666667 0  1.470434782608696 0.01666666666666667 0  1.486956521739131 0.01666666666666667 0  1.503478260869565 0.01666666666666667 0  1.52 0.01666666666666667 0  1.536521739130435 0.01666666666666667 0  1.55304347826087 0.01666666666666667 0  1.569565217391304 0.01666666666666667 0  1.586086956521739 0.01666666666666667 0  1.602608695652174 0.01666666666666667 0  1.619130434782609 0.01666666666666667 0  1.635652173913043 0.01666666666666667 0  1.652173913043478 0.01666666666666667 0  1.668695652173913 0.01666666666666667 0  1.685217391304348 0.01666666666666667 0  1.701739130434782 0.01666666666666667 0  1.718260869565217 0.01666666666666667 0  1.734782608695652 0.01666666666666667 0  1.751304347826087 0.01666666666666667 0  1.767826086956522 0.01666666666666667 0  1.784347826086957 0.01666666666666667 0  1.800869565217391 0.0166666666666666
[...]
<PointData  Scalars="rho_bar"> 
<DataArray  type="Float64"  Name="rho_bar"  format="ascii">3.3670328852523468e-01  3.3677459498015938e-01  3.3699574688420797e-01  3.3722181295899412e-01  3.3737864175974508e-01  3.3743704973496513e-01  3.3739177048055058e-01  3.3724893431773229e-01  3.3701898831553645e-01  3.3671319393995530e-01  3.3634200159935745e-01  3.3591449162785031e-01  3.3543838955303645e-01  3.3492009198869077e-01  3.3436502517813499e-01  3.3377770975781662e-01  3.3316203821643414e-01  3.3252134855082194e-01  3.3185854068880150e-01  3.3117613127959677e-01  3.3047635116174390e-01  3.2976110322874058e-01  3.2903209842786563e-01  3.2829079805941563e-01  3.2753852398390260e-01  3.2677643939507089e-01  3.2600560964823577e-01  3.2522698354770158e-01  3.2444147716380151e-01  3.2364991500524365e-01  3.2285312468089833e-01  3.2205189403824031e-01  3.2124703405740002e-01  3.2043934629943305e-01  3.1962967464179731e-01  3.1881884452343151e-01  3.1800774715594310e-01  3.1719724682062911e-01  3.1638825487726957e-01  3.1558166699415685e-01  3.1477840237831861e-01  3.1397934859877352e-01  3.1318540080400131e-01  3.1239738213047846e-01  3.1161611660765709e-01  3.1084232830582659e-01  3.1007670588979991e-01  3.0931983728601825e-01  3.0857224734380423e-01  3.0783434602075266e-01  3.0710647115281636e-01  3.0638881801332779e-01  3.0568151979896852e-01  3.0498456023590115e-01  3.0429784941655524e-01  3.0362117383911735e-01  3.0295424759720924e-01  3.0229667732902260e-01  3.0164801800084906e-01  3.0100771983702163e-01  3.0037521932260880e-01  2.9974986574059465e-01  2.9913100620775329e-01  2.9851794635918599e-01  2.9791000496799303e-01  2.9730648363725032e-01  2.9670672309375423e-01  2.9611004994117957e-01  2.9551586335274083e-01  2.9492355318388197e-01  2.9433258082466679e-01  2.9374242743843382e-01  2.9315264266749136e-01  2.9256280229141313e-01  2.9197255036015085e-01  2.9138154467890043e-01  2.9078953074533415e-01  2.9019624124439147e-01  2.8960149256020951e-01  2.8900508620653481e-01  2.8840689931514535e-01  2.8780680344883458e-01  2.8720471703812084e-01  2.8660056399370121e-01  2.8599430755758115e-01  2.8538590378635104e-01  2.8477535096520262e-01  2.8416261965329848e-01  2.8354773245817166e-01  2.8293068023640539e-01  2.8231148887425483e-01  2.8169016863049073e-01  2.8106675488936778e-01  2.8044126683961035e-01  2.7981375223965094e-01  2.7918422487357392e-01  2.7855274045219736e-01  2.7791931702574874e-01  2.7728400148594728e-01  2.7664682071030167e-01  2.7600782265549556e-01  2.7536703703570953e-01  2.7472451861638164e-01  2.7408028821241542e-01  2.7343440634637789e-01  2.7278689534817924e-01  2.7213780560072082e-01  2.7148716737758249e-01  2.7083503172273249e-01  2.7018143199721328e-01  2.6952642633375729e-01  2.6887004008739335e-01  2.6821233790568016e-01  2.6755334751072507e-01  2.6689312458109937e-01  2.6623170583113326e-01  2.6556914873400683e-01  2.6490549411970798e-01  2.6424080773059122e-01  2.6357512379113884e-01  2.6290851562956452e-01  2.6224102018902012e-01  2.6157270201077509e-01  2.6090360914154537e-01  2.6023380952134850e-01  2.5956335549171050e-01  2.5889232112104243e-01  2.5822075485886131e-01  2.5754873649334614e-01  2.5687632023886164e-01  2.5620358570842550e-01  2.5553059112260484e-01  2.5485742652138710e-01  2.5418415167616676e-01  2.5351085158956121e-01  2.5283759280482898e-01  2.5216446194615966e-01  2.5149153579456812e-01  2.5081890966695419e-01  2.5014665656909824e-01  2.4947488262505615e-01  2.4880366319845026e-01  2.4813309821596180e-01  2.4746327353407979e-01  2.4679429242855272e-01  2.4612624760283255e-01  2.4545925315798914e-01  2.4479339689136681e-01  2.4412880260951128e-01  2.4346556221252272e-01  2.4280379506103075e-01  2.4214360330171766e-01  2.4148511012997059e-01  2.4082842450868627e-01  2.4017367961812519e-01  2.3952098067613309e-01  2.3887046965948780e-01  2.3822225725268559e-01  2.3757648050889857e-01  2.3693326067897719e-01  2.3629273869230308e-01  2.3565504196685857e-01  2.3502032063304906e-01  2.3438869825411948e-01  2.3376033352688988e-01  2.3313535377099590e-01  2.3251391149304437e-01  2.3189614385409760e-01  2.3128220598532995e-01  2.3067223876368900e-01  2.3006640429438147e-01  2.2946483779516036e-01  2.2886770842001675e-01  2.2827515117450672e-01  2.2768732551362211e-01  2.2710437251241092e-01  2.2652645066608390e-01  2.2595370282526039e-01  2.2538628810710745e-01  2.2482434115610500e-01  2.2426802946872723e-01  2.2371747884597667e-01  2.2317284843266524e-01  2.2263425822361219e-01  2.2210186003950994e-01  2.2157577819353921e-01  2.2105615191314856e-01  2.2054310613741721e-01  2.2003677978610184e-01  2.1953729274990227e-01  2.1904478588363543e-01  2.1855936987118288e-01  2.1808118844279786e-01  2.1761035642663351e-01  2.1714701311574403e-01  2.1669128517721437e-01  2.1624331999840543e-01  2.1580325587762580e-01  2.1537125786086747e-01  2.1494747139172685e-01  2.1453208151421033e-01  2.1412525297993523e-01  2.1372718193829243e-01  2.1333805877857279e-01  2.1295810012813315e-01  2.1258751912649246e-01  2.1222655918901345e-01  2.1187544994767998e-01  2.1153446590813252e-01  2.1120387055701886e-01  2.1088397345828785e-01  2.1057510259869033e-01  2.1027765030138956e-01  2.0999206393449163e-01  2.0971890681379987e-01  2.0945885084083410e-01  2.0921278201372201e-01  2.0898180477640629e-01  2.0876736821293002e-01  2.0857131951467411e-01  2.0839603187382683e-01  2.0824446294341953e-01  2.0812024249273270e-01  2.0802758524557910e-01  2.0797109618215595e-01  2.0795507068599800e-01  2.0798213342140331e-01  2.0805040635027977e-01  2.0814811061659849e-01  2.0824285239962220e-01  2.0827362435934510e-01  3.3624804816299037e-01  3.3635306029703266e-01  3.3659360341157929e-01  3.3683452718742041e-01  3.3700308388287636e-01  3.3707096827084276e-01  3.3703352178738660e-01  3.3689715283417876e-01  3.3667253607623049e-01  3.3637105836612025e-01  3.3600328783351857e-01  3.3557845221754207e-01  3.3510433633961684e-01  3.3458752580446777e-01  3.3403348714320119e-01  3.3344688742946227e-01  3.3283168285441761e-01  3.3219129900888000e-01  3.3152868626061344e-01  3.3084642932579589e-01  3.3014676003751320e-01  3.2943165910781236e-01  3.2870281251371214e-01  3.2796172862566364e-01  3.2720971581930708e-01  3.2644795989711423e-01  3.2567750281187952e-01  3.2489931952355000e-01  3.2411428517947966e-01  3.2332325722939453e-01  3.2252702770948144e-01  3.2172639935178832e-01  3.2092215770260396e-01  3.2011512188152941e-01  3.1930609640100155e-01  3.1849593861490033e-01  3.1768549349179831e-01  3.1687566145936708e-01  3.1606732168922885e-01  3.1526138799216813e-01  3.1445875750406982e-01  3.1366034242533114e-01  3.1286700228375219e-01  3.1207959836126897e-01  3.1129891463024795e-01  3.1052571539493712e-01  3.0976066276165864e-01  3.0900436690217736e-01  3.0825733508002390e-01  3.0752000474066660e-01  3.0679268196223664e-01  3.0607560167911557e-01  3.0536885988254830e-01  3.0467248106385342e-01  3.0398635030241250e-01  3.0331027617133877e-01  3.0264395588030951e-01  3.0198702199069832e-01  3.0133899818114773e-01  3.0069937192795076e-01  3.0006754163743948e-01  2.9944289461295687e-01  2.9882475204922182e-01  2.9821243871282943e-01  2.9760525459580583e-01  2.9700252469698446e-01  2.9640355728219281e-01  2.9580771423774893e-01  2.9521435425642306e-01  2.9462290598805818e-01  2.9403280197357745e-01  2.9344354288358687e-01  2.9285465951962447e-01  2.9226574983572373e-01  2.9167643019578998e-01  2.9108639081488563e-01  2.9049533380334569e-01  2.8990304362549724e-01  2.8930928723806770e-01  2.8871390716668166e-01  2.8811674658830178e-01  2.8751770634757573e-01  2.8691668496831696e-01  2.8631362208497996e-01  2.8570846201450756e-01  2.8510118768685078e-01  2.8449176257030745e-01  2.8388019390287700e-01  2.8326646672063427e-01  2.8265060731002012e-01  2.8203261646122973e-01  2.8141252296166847e-01  2.8079034401122144e-01  2.8016612220347653e-01  2.7953987348113185e-01  2.7891164603389140e-01  2.7828145929241099e-01  2.7764936591576300e-01  2.7701538805050296e-01  2.7637957061102564e-01  2.7574194408666547e-01  2.7510256060246663e-01  2.7446144450217003e-01  2.7381864970863662e-01  2.7317420125486025e-01  2.7252815571743477e-01  2.7188053893832276e-01  2.7123139905070659e-01  2.7058076996024683e-01  2.6992870694415994e-01  2.6927523840714573e-01  2.6862042209286779e-01  2.6796428789663529e-01  2.6730689702855470e-01  2.6664828124463791e-01  2.6598849462327745e-01  2.6532757788208700e-01  2.6466559323454231e-01  2.6400257725420934e-01  2.6333859620282302e-01  2.6267368886335207e-01  2.6200792494824521e-01  2.6134134609837439e-01  2.6067401651078898e-01  2.6000598839681927e-01  2.5933733310297141e-01  2.5866810080430291e-01  2.5799836425724038e-01  2.5732817744329817e-01  2.5665762167371958e-01  2.5598675130019588e-01  2.5531564805321966e-01  2.5464437485405883e-01  2.5397301949814799e-01  2.5330164461297749e-01  2.5263033170321225e-01  2.5195915483316711e-01  2.5128820622369497e-01  2.5061755931402813e-01  2.4994731137445400e-01  2.4927753978568951e-01  2.4860834802280971e-01  2.4793981598581727e-01  2.4727204253089802e-01  2.4660511837204513e-01  2.4593915251981119e-01  2.4527423413764199e-01  2.4461047864147656e-01  2.4394797832890841e-01  2.4328685530468666e-01  2.4262720586081382e-01  2.4196914851241907e-01  2.4131279004956427e-01  2.4065825884704650e-01  2.4000566070244558e-01  2.3935512939704004e-01  2.3870677532159559e-01  2.3806073841483347e-01  2.3741713367555650e-01  2.3677609729508667e-01  2.3613775476706181e-01  2.3550225157044194e-01  2.3486971170073501e-01  2.3424028598884919e-01  2.3361410209425504e-01  2.3299131573800441e-01  2.3237205813489989e-01  2.3175648066798740e-01  2.3114472320451002e-01  2.3053694414679798e-01  2.2993328013310552e-01  2.2933389321606171e-01  2.2873892096294529e-01  2.2814852796545745e-01  2.2756285098286594e-01  2.2698204575807640e-01  2.2640625595605032e-01  2.2583564076775831e-01  2.2527033779825195e-01  2.2471050577000767e-01  2.2415627880036354e-01  2.2360782143318025e-01  2.2306525489055679e-01  2.2252872985288619e-01  2.2199837197367842e-01  2.2147432758951655e-01  2.2095672049888562e-01  2.2044568755554556e-01  2.1994135315690361e-01  2.1944385765546745e-01  2.1895331535233528e-01  2.1846986503372404e-01  2.1799362168841624e-01  2.1752472730902250e-01  2.1706330171760693e-01  2.1660948568098648e-01  2.1616341210066073e-01  2.1572523635353941e-01  2.1529509800502336e-01  2.1487316714868746e-01  2.1445959882786206e-01  2.1405458139657196e-01  2.1365828826986560e-01  2.1327091925863464e-01  2.1289267207084067e-01  2.1252377056709598e-01  2.1216442744625294e-01  2.1181488939330193e-01  2.1147539454824490e-01  2.1114622291216123e-01  2.1082765491666716e-01  2.1052002218025545e-01  2.1022369392912488e-01  2.0993912554018510e-01  2.0966684951155012e-01  2.0940755723322907e-01  2.0916210490828865e-01  2.0893162223726236e-01  2.0871754255177502e-01  2.0852173299820020e-01  2.0834656042765687e-01  2.0819500882335773e-01  2.0807069186516469e-01  2.0797784949357329e-01  2.0792105076036249e-01  2.0790458455258604e-01  2.0793102128788932e-01  2.0799852091144044e-01  2.0809576556405870e-01  2.0819325205206010e-01  2.0823854122505261e-01  3.3491625001864472e-01  3.3504213689163831e-01  3.3531110079936416e-01  3.3558091734764928e-01  3.3577613645885479e-01  3.3586813636942009e-01  3.3585213025794219e-01  3.3573449004510475e-01  3.3552582133090064e-01  3.3523760834382954e-01  3.3488059286730776e-01  3.3446423411599363e-01  3.3399664999818029e-01  3.3348469914757906e-01  3.3293421456093397e-01  3.3235013565499422e-01  3.3173669502771841e-01  3.3109754320773577e-01  3.3043582721164921e-01  3.2975427515054401e-01  3.2905525573503586e-01  3.2834080883803285e-01  3.2761272094625038e-01  3.2687252205125583e-01  3.2612156085114125e-01  3.2536102181796595e-01  3.2459196450935585e-01  3.2381533847537319e-01  3.2303202862318892e-01  3.2224285221860272e-01  3.2144861139725256e-01  3.2065007229212189e-01  3.1984801599465945e-01  3.1904322188827694e-01  3.1823649697365780e-01  3.1742865999452619e-01  3.1662056211092032e-01  3.1581306864559061e-01  3.1500707573354042e-01  3.1420346998361409e-01  3.1340315882160952e-01  3.1260702602949619e-01  3.1181595082862013e-01  3.1103077107310190e-01  3.1025229277607386e-01  3.0948126070226278e-01  3.0871836745115278e-01  3.0796420944070840e-01  3.0721931549030901e-01  3.0648410567848056e-01  3.0575891397678223e-01  3.0504395993206629e-01  3.0433936692043867e-01  3.0364514499795137e-01  3.0296121218153510e-01  3.0228736577382004e-01  3.0162332442407264e-01  3.0096870362178019e-01  3.0032305240515195e-01  2.9968584016240418e-01  2.9905648889857872e-01  2.9843436688092345e-01  2.9781882315935870e-01  2.9720916468905506e-01  2.9660470813548345e-01  2.9600475525712339e-01  2.9540863467294270e-01  2.9481568518976758e-01  2.9422528557184030e-01  2.9363684156793451e-01  2.9304980936544273e-01  2.9246367449368244e-01  2.9187797771233026e-01  2.9129229983340221e-01  2.9070627565498314e-01  2.9011957722273007e-01  2.8953192660318777e-01  2.8894307895910926e-01  2.8835283392909217e-01  2.8776101260917891e-01  2.8716747308896101e-01  2.8657210204897982e-01  2.8597481698402955e-01  2.8537554578183832e-01  2.8477424544029750e-01  2.8417087757692705e-01  2.8356542821579400e-01  2.8295788250629600e-01  2.8234824526639085e-01  2.8173652300004198e-01  2.8112274140974486e-01  2.8050691190807209e-01  2.7988906754712334e-01  2.7926922850576757e-01  2.7864743112675661e-01  2.7802370258055886e-01  2.7739808146235756e-01  2.7677060086202099e-01  2.7614130675110005e-01  2.7551022780067219e-01  2.7487740886956202e-01  2.7424288128683533e-01  2.7360668845763786e-01  2.7296886453839603e-01  2.7232945286701482e-01  2.7168849089793284e-01  2.7104602803758382e-01  2.7040209642847512e-01  2.6975674412384421e-01  2.6911000605369245e-01  2.6846192927682255e-01  2.6781255214760180e-01  2.6716192251223320e-01  2.6651008280080146e-01  2.6585708789151574e-01  2.6520297596774756e-01  2.6454780164587188e-01  2.6389160693570773e-01  2.6323444704280119e-01  2.6257636825359748e-01  2.6191742789118827e-01  2.6125767675818651e-01  2.6059717809358096e-01  2.5993598103239884e-01  2.5927415023846012e-01  2.5861173908334861e-01  2.5794881355202759e-01  2.5728543229700995e-01  2.5662166054603108e-01  2.5595756497079691e-01  2.5529321556830115e-01  2.5462868029631780e-01  2.5396403363255676e-01  2.5329934646232694e-01  2.5263469806567912e-01  2.5197016090036084e-01  2.5130581310310357e-01  2.5064173609641144e-01  2.4997801345385778e-01  2.4931472917969275e-01  2.4865197162750219e-01  2.4798982896251778e-01  2.4732839888103769e-01  2.4666776711233362e-01  2.4600803345533764e-01  2.4534928970640996e-01  2.4469163898533342e-01  2.4403517818751833e-01  2.4338001465757436e-01  2.4272625132522718e-01  2.4207400471419863e-01  2.4142337638446887e-01  2.4077448496802256e-01  2.4012743832882208e-01  2.3948235741640359e-01  2.3883935662295677e-01  2.3819856047994672e-01  2.3756009008811121e-01  2.3692407888810943e-01  2.3629064687120094e-01  2.3565992958320567e-01  2.3503205261553095e-01  2.3440715374027013e-01  2.3378536417765319e-01  2.3316682520863055e-01  2.3255167328023291e-01  2.3194005776833734e-01  2.3133211269676496e-01  2.3072798841000403e-01  2.3012782273632498e-01  2.2953176590025742e-01  2.2893996006749734e-01  2.2835255644834029e-01  2.2776969993384319e-01  2.2719154364442617e-01  2.2661822950136959e-01  2.2604990680072456e-01  2.2548671943110021e-01  2.2492881673549722e-01  2.2437634147949403e-01  2.2382944063835017e-01  2.2328825447920042e-01  2.2275292688536558e-01  2.2222359046502882e-01  2.2170038046588453e-01  2.2118343094092577e-01  2.2067287904600877e-01  2.2016885146575574e-01  2.1967148173215018e-01  2.1918089319262482e-01  2.1869721699655012e-01  2.1822057455641469e-01  2.1775109577104634e-01  2.1728890679648413e-01  2.1683414603752638e-01  2.1638693938436401e-01  2.1594743045107329e-01  2.1551575457090241e-01  2.1509206320507196e-01  2.1467650510528022e-01  2.1426924328164867e-01  2.1387044212616721e-01  2.1348028245626655e-01  2.1309893766948171e-01  2.1272660048382547e-01  2.1236345932013917e-01  2.1200971930524257e-01  2.1166558681659611e-01  2.1133128643359900e-01  2.1100705355635757e-01  2.1069315566678665e-01  2.1038988015055740e-01  2.1009757633230819e-01  2.0981665470760713e-01  2.0954763684375965e-01  2.0929117917503248e-01  2.0904813815085277e-01  2.0881962418085265e-01  2.0860709330279276e-01  2.0841241336610813e-01  2.0823798870061866e-01  2.0808681916158542e-01  2.0796257598427015e-01  2.0786952683119408e-01  2.0781230629233791e-01  2.0779524435281807e-01  2.0782100942962500e-01  2.0788791666427697e-01  2.0798507825864154e-01  2.0808381298704806e-01  2.0813177763925048e-01  3.3262484785414570e-01  3.3276723296420868e-01  3.3306527981052420e-01  3.3336969861626481e-01  3.3360065552030171e-01  3.3372736687561561e-01  3.3374373798260282e-01  3.3365524139388808e-01  3.3347202797905728e-01  3.3320537026976638e-01  3.3286612296654233e-01  3.3246402758381499e-01  3.3200760148213654e-01  3.3150418316294189e-01  3.3096008515740682e-01  3.3038072070126684e-01  3.2977075644203913e-01  3.2913419184041864e-01  3.2847450548448126e-01  3.2779466805589913e-01  3.2709724423995457e-01  3.2638443150679231e-01  3.2565811494889751e-01  3.2491991559127015e-01  3.2417122335590842e-01  3.2341324201196503e-01  3.2264703964180452e-01  3.2187355724270716e-01  3.2109365631965792e-01  3.2030813945951381e-01  3.1951776901730067e-01  3.1872329949612116e-01  3.1792546618446710e-01  3.1712502023022721e-01  3.1632273762780089e-01  3.1551940616760898e-01  3.1471585435752569e-01  3.1391292795953424e-01  3.1311149750500433e-01  3.1231245389718543e-01  3.1151667420418688e-01  3.1072504132234952e-01  3.0993842489424550e-01  3.0915765970904718e-01  3.0838355404091300e-01  3.0761685815098133e-01  3.0685826255676879e-01  3.0610838908633364e-01  3.0536775655639564e-01  3.0463680103411345e-01  3.0391586250453084e-01  3.0320516995543684e-01  3.0250485978055014e-01  3.0181495557864357e-01  3.0113537998219064e-01  3.0046595911725660e-01  2.9980640454798674e-01  2.9915634752525339e-01  2.9851534118555667e-01  2.9788286130914865e-01  2.9725833616751257e-01  2.9664114303174605e-01  2.9603062478945463e-01  2.9542611098848892e-01  2.9482689898110381e-01  2.9423229996299471e-01  2.9364163578375874e-01  2.9305424474673675e-01  2.9246950508455771e-01  2.9188682199215915e-01  2.9130564941174275e-01  2.9072548102810708e-01  2.9014584967554558e-01  2.8956633246696251e-01  2.8898656879655804e-01  2.8840622837336510e-01  2.8782503807780679e-01  2.8724274432505814e-01  2.8665915638081108e-01  2.8607409192818106e-01  2.8548741637022967e-01  2.8489900913378274e-01  2.8430879250264784e-01  2.8371670449922581e-01  2.8312269246627791e-01  2.8252672128472756e-01  2.8192877455923554e-01  2.8132883760979310e-01  2.8072691677114370e-01  2.8012302137122408e-01  2.7951717001583526e-01  2.7890939307249440e-01  2.7829970500309609e-01  2.7768813445477947e-01  2.7707471194182043e-01  2.7645946484432721e-01  2.7584243256652535e-01  2.7522365078281669e-01  2.7460315905754618e-01  2.7398100268530262e-01  2.7335721039261279e-01  2.7273181951112668e-01  2.7210486975659826e-01  2.7147639409469360e-01  2.7084643741361769e-01  2.7021503933607699e-01  2.6958224312418211e-01  2.6894809730408958e-01  2.6831263411055772e-01  2.6767589438015554e-01  2.6703792149891142e-01  2.6639875268893853e-01  2.6575843710163011e-01  2.6511701951922506e-01  2.6447454826212374e-01  2.6383107788241139e-01  2.6318664680590254e-01  2.6254130331158465e-01  2.6189509768964581e-01  2.6124807628520869e-01  2.6060029611731139e-01  2.5995181089545660e-01  2.5930267758294151e-01  2.5865295921055265e-01  2.5800270444598528e-01  2.5735197323670678e-01  2.5670082663931271e-01  2.5604932270621378e-01  2.5539753137046628e-01  2.5474550820792080e-01  2.5409333216963048e-01  2.5344106515027320e-01  2.5278878127840448e-01  2.5213654832774157e-01  2.5148444543157866e-01  2.5083254749017697e-01  2.50180932177