<?xml version="1.0"?>
<VTKFile type="UnstructuredGrid"  version="0.1"  >
<UnstructuredGrid>
<Piece  NumberOfPoints="7161" NumberOfCells="13800">
<Points>
<DataArray  type="Float64"  NumberOfComponents="3"  format="ascii">0 0 0  0.01652173913043478 0 0  0.03304347826086956 0 0  0.04956521739130434 0 0  0.06608695652173913 0 0  0.08260869565217391 0 0  0.09913043478260869 0 0  0.1156521739130435 0 0  0.1321739130434783 0 0  0.148695652173913 0 0  0.1652173913043478 0 0  0.1817391304347826 0 0  0.1982608695652174 0 0  0.2147826086956522 0 0  0.2313043478260869 0 0  0.2478260869565218 0 0  0.2643478260869565 0 0  0.2808695652173913 0 0  0.2973913043478261 0 0  0.3139130434782609 0 0  0.3304347826086956 0 0  0.3469565217391304 0 0  0.3634782608695652 0 0  0.3799999999999999 0 0  0.3965217391304348 0 0  0.4130434782608696 0 0  0.4295652173913043 0 0  0.4460869565217391 0 0  0.4626086956521739 0 0  0.4791304347826086 0 0  0.4956521739130435 0 0  0.5121739130434783 0 0  0.528695652173913 0 0  0.5452173913043478 0 0  0.5617391304347825 0 0  0.5782608695652174 0 0  0.5947826086956521 0 0  0.6113043478260869 0 0  0.6278260869565218 0 0  0.6443478260869565 0 0  0.6608695652173913 0 0  0.677391304347826 0 0  0.6939130434782609 0 0  0.7104347826086956 0 0  0.7269565217391304 0 0  0.7434782608695653 0 0  0.7599999999999999 0 0  0.7765217391304348 0 0  0.7930434782608695 0 0  0.8095652173913043 0 0  0.8260869565217391 0 0  0.8426086956521739 0 0  0.8591304347826086 0 0  0.8756521739130434 0 0  0.8921739130434783 0 0  0.908695652173913 0 0  0.9252173913043478 0 0  0.9417391304347826 0 0  0.9582608695652173 0 0  0.9747826086956521 0 0  0.991304347826087 0 0  1.007826086956522 0 0  1.024347826086957 0 0  1.040869565217391 0 0  1.057391304347826 0 0  1.073913043478261 0 0  1.090434782608696 0 0  1.10695652173913 0 0  1.123478260869565 0 0  1.14 0 0  1.156521739130435 0 0  1.17304347826087 0 0  1.189565217391304 0 0  1.206086956521739 0 0  1.222608695652174 0 0  1.239130434782609 0 0  1.255652173913044 0 0  1.272173913043478 0 0  1.288695652173913 0 0  1.305217391304348 0 0  1.321739130434783 0 0  1.338260869565217 0 0  1.354782608695652 0 0  1.371304347826087 0 0  1.387826086956522 0 0  1.404347826086957 0 0  1.420869565217391 0 0  1.437391304347826 0 0  1.453913043478261 0 0  1.470434782608696 0 0  1.486956521739131 0 0  1.503478260869565 0 0  1.52 0 0  1.536521739130435 0 0  1.55304347826087 0 0  1.569565217391304 0 0  1.586086956521739 0 0  1.602608695652174 0 0  1.619130434782609 0 0  1.635652173913043 0 0  1.652173913043478 0 0  1.668695652173913 0 0  1.685217391304348 0 0  1.701739130434782 0 0  1.718260869565217 0 0  1.734782608695652 0 0  1.751304347826087 0 0  1.767826086956522 0 0  1.784347826086957 0 0  1.800869565217391 0 0  1.817391304347826 0 0  1.833913043478261 0 0  1.850434782608696 0 0  1.86695652173913 0 0  1.883478260869565 0 0  1.9 0 0  1.916521739130435 0 0  1.933043478260869 0 0  1.949565217391304 0 0  1.966086956521739 0 0  1.982608695652174 0 0  1.999130434782608 0 0  2.015652173913043 0 0  2.032173913043478 0 0  2.048695652173913 0 0  2.065217391304348 0 0  2.081739130434782 0 0  2.098260869565217 0 0  2.114782608695652 0 0  2.131304347826087 0 0  2.147826086956522 0 0  2.164347826086956 0 0  2.180869565217391 0 0  2.197391304347826 0 0  2.213913043478261 0 0  2.230434782608695 0 0  2.24695652173913 0 0  2.263478260869565 0 0  2.28 0 0  2.296521739130434 0 0  2.31304347826087 0 0  2.329565217391304 0 0  2.346086956521739 0 0  2.362608695652174 0 0  2.379130434782609 0 0  2.395652173913044 0 0  2.412173913043478 0 0  2.428695652173913 0 0  2.445217391304348 0 0  2.461739130434782 0 0  2.478260869565217 0 0  2.494782608695652 0 0  2.511304347826087 0 0  2.527826086956522 0 0  2.544347826086956 0 0  2.560869565217391 0 0  2.577391304347826 0 0  2.593913043478261 0 0  2.610434782608696 0 0  2.62695652173913 0 0  2.643478260869565 0 0  2.66 0 0  2.676521739130435 0 0  2.693043478260869 0 0  2.709565217391304 0 0  2.726086956521739 0 0  2.742608695652174 0 0  2.759130434782609 0 0  2.775652173913044 0 0  2.792173913043478 0 0  2.808695652173913 0 0  2.825217391304347 0 0  2.841739130434783 0 0  2.858260869565217 0 0  2.874782608695652 0 0  2.891304347826087 0 0  2.907826086956522 0 0  2.924347826086957 0 0  2.940869565217391 0 0  2.957391304347826 0 0  2.973913043478261 0 0  2.990434782608696 0 0  3.006956521739131 0 0  3.023478260869565 0 0  3.04 0 0  3.056521739130435 0 0  3.073043478260869 0 0  3.089565217391304 0 0  3.106086956521739 0 0  3.122608695652174 0 0  3.139130434782609 0 0  3.155652173913043 0 0  3.172173913043478 0 0  3.188695652173913 0 0  3.205217391304347 0 0  3.221739130434782 0 0  3.238260869565217 0 0  3.254782608695652 0 0  3.271304347826087 0 0  3.287826086956521 0 0  3.304347826086957 0 0  3.320869565217391 0 0  3.337391304347826 0 0  3.353913043478261 0 0  3.370434782608696 0 0  3.386956521739131 0 0  3.403478260869565 0 0  3.419999999999999 0 0  3.436521739130435 0 0  3.453043478260869 0 0  3.469565217391304 0 0  3.486086956521739 0 0  3.502608695652174 0 0  3.519130434782609 0 0  3.535652173913043 0 0  3.552173913043478 0 0  3.568695652173913 0 0  3.585217391304347 0 0  3.601739130434782 0 0  3.618260869565217 0 0  3.634782608695652 0 0  3.651304347826087 0 0  3.667826086956521 0 0  3.684347826086956 0 0  3.700869565217391 0 0  3.717391304347826 0 0  3.733913043478261 0 0  3.750434782608695 0 0  3.766956521739131 0 0  3.783478260869565 0 0  3.8 0 0  0 0.01666666666666667 0  0.01652173913043478 0.01666666666666667 0  0.03304347826086956 0.01666666666666667 0  0.04956521739130434 0.01666666666666667 0  0.06608695652173913 0.01666666666666667 0  0.08260869565217391 0.01666666666666667 0  0.09913043478260869 0.01666666666666667 0  0.1156521739130435 0.01666666666666667 0  0.1321739130434783 0.01666666666666667 0  0.148695652173913 0.01666666666666667 0  0.1652173913043478 0.01666666666666667 0  0.1817391304347826 0.01666666666666667 0  0.1982608695652174 0.01666666666666667 0  0.2147826086956522 0.01666666666666667 0  0.2313043478260869 0.01666666666666667 0  0.2478260869565218 0.01666666666666667 0  0.2643478260869565 0.01666666666666667 0  0.2808695652173913 0.01666666666666667 0  0.2973913043478261 0.01666666666666667 0  0.3139130434782609 0.01666666666666667 0  0.3304347826086956 0.01666666666666667 0  0.3469565217391304 0.01666666666666667 0  0.3634782608695652 0.01666666666666667 0  0.3799999999999999 0.01666666666666667 0  0.3965217391304348 0.01666666666666667 0  0.4130434782608696 0.01666666666666667 0  0.4295652173913043 0.01666666666666667 0  0.4460869565217391 0.01666666666666667 0  0.4626086956521739 0.01666666666666667 0  0.4791304347826086 0.01666666666666667 0  0.4956521739130435 0.01666666666666667 0  0.5121739130434783 0.01666666666666667 0  0.528695652173913 0.01666666666666667 0  0.5452173913043478 0.01666666666666667 0  0.5617391304347825 0.01666666666666667 0  0.5782608695652174 0.01666666666666667 0  0.5947826086956521 0.01666666666666667 0  0.6113043478260869 0.01666666666666667 0  0.6278260869565218 0.01666666666666667 0  0.6443478260869565 0.01666666666666667 0  0.6608695652173913 0.01666666666666667 0  0.677391304347826 0.01666666666666667 0  0.6939130434782609 0.01666666666666667 0  0.7104347826086956 0.01666666666666667 0  0.7269565217391304 0.01666666666666667 0  0.7434782608695653 0.01666666666666667 0  0.7599999999999999 0.01666666666666667 0  0.7765217391304348 0.01666666666666667 0  0.7930434782608695 0.01666666666666667 0  0.8095652173913043 0.01666666666666667 0  0.8260869565217391 0.01666666666666667 0  0.8426086956521739 0.01666666666666667 0  0.8591304347826086 0.01666666666666667 0  0.8756521739130434 0.01666666666666667 0  0.8921739130434783 0.01666666666666667 0  0.908695652173913 0.01666666666666667 0  0.9252173913043478 0.01666666666666667 0  0.9417391304347826 0.01666666666666667 0  0.9582608695652173 0.01666666666666667 0  0.9747826086956521 0.01666666666666667 0  0.991304347826087 0.01666666666666667 0  1.007826086956522 0.01666666666666667 0  1.024347826086957 0.01666666666666667 0  1.040869565217391 0.01666666666666667 0  1.057391304347826 0.01666666666666667 0  1.073913043478261 0.01666666666666667 0  1.090434782608696 0.01666666666666667 0  1.10695652173913 0.01666666666666667 0  1.123478260869565 0.01666666666666667 0  1.14 0.01666666666666667 0  1.156521739130435 0.01666666666666667 0  1.17304347826087 0.01666666666666667 0  1.189565217391304 0.01666666666666667 0  1.206086956521739 0.01666666666666667 0  1.222608695652174 0.01666666666666667 0  1.239130434782609 0.01666666666666667 0  1.255652173913044 0.01666666666666667 0  1.272173913043478 0.01666666666666667 0  1.288695652173913 0.01666666666666667 0  1.305217391304348 0.01666666666666667 0  1.321739130434783 0.01666666666666667 0  1.338260869565217 0.01666666666666667 0  1.354782608695652 0.01666666666666667 0  1.371304347826087 0.01666666666666667 0  1.387826086956522 0.01666666666666667 0  1.404347826086957 0.01666666666666667 0  1.420869565217391 0.01666666666666667 0  1.437391304347826 0.01666666666666667 0  1.453913043478261 0.01666666666666667 0  1.470434782608696 0.01666666666666667 0  1.486956521739131 0.01666666666666667 0  1.503478260869565 0.01666666666666667 0  1.52 0.01666666666666667 0  1.536521739130435 0.01666666666666667 0  1.55304347826087 0.01666666666666667 0  1.569565217391304 0.01666666666666667 0  1.586086956521739 0.01666666666666667 0  1.602608695652174 0.01666666666666667 0  1.619130434782609 0.01666666666666667 0  1.635652173913043 0.01666666666666667 0  1.652173913043478 0.01666666666666667 0  1.668695652173913 0.01666666666666667 0  1.685217391304348 0.01666666666666667 0  1.701739130434782 0.01666666666666667 0  1.718260869565217 0.01666666666666667 0  1.734782608695652 0.01666666666666667 0  1.751304347826087 0.01666666666666667 0  1.767826086956522 0.01666666666666667 0  1.784347826086957 0.01666666666666667 0  1.800869565217391 0.0166666666666666
[...]
<PointData  Scalars="rho_bar"> 
<DataArray  type="Float64"  Name="rho_bar"  format="ascii">9.9782789199949617e-01  9.9843628980081556e-01  9.9665928609474852e-01  9.9507013118414234e-01  9.9375734756419287e-01  9.9288043032291695e-01  9.9224487184070198e-01  9.9305263476924632e-01  9.9657997859251313e-01  1.0011867740956788e+00  1.0034963804677661e+00  1.0036479793330133e+00  1.0041216810618478e+00  1.0052072982610865e+00  1.0059348791976648e+00  1.0059991712835756e+00  1.0053985545283008e+00  1.0043135521931543e+00  1.0036885569091119e+00  1.0036174574648840e+00  1.0020425559585533e+00  9.9796306393786516e-01  9.9376062264728826e-01  9.9211476639125640e-01  9.9280642528455187e-01  9.9491589131916758e-01  9.9789469945592602e-01  1.0004949983484548e+00  1.0015534450726513e+00  1.0007459834026720e+00  9.9976235098606625e-01  9.9986574796541139e-01  1.0000706175172012e+00  9.9998140490228116e-01  1.0000158474729544e+00  1.0000605112391874e+00  9.9976004469656765e-01  9.9976910550588816e-01  1.0011415985980763e+00  1.0016456890695979e+00  9.9840861794879854e-01  9.9357913229383288e-01  9.9314294277784065e-01  9.9872124315758593e-01  1.0029259092385603e+00  1.0054764408975487e+00  1.0123347461932610e+00  1.0190303096524436e+00  1.0224815049683198e+00  1.0254002354821907e+00  1.0272718950774045e+00  1.0275383879944504e+00  1.0274516056251510e+00  1.0274791787976478e+00  1.0274704976378568e+00  1.0274652068098926e+00  1.0274615947903467e+00  1.0274609331680631e+00  1.0274631309364040e+00  1.0274665683953592e+00  1.0274689331289240e+00  1.0274675417645336e+00  1.0274589248334651e+00  1.0274378665958204e+00  1.0273937596746312e+00  1.0273138674147575e+00  1.0272078170407319e+00  1.0271223398012261e+00  1.0271107126497339e+00  1.0271888357790271e+00  1.0273178537957113e+00  1.0274288384778283e+00  1.0274822550422709e+00  1.0274717418536967e+00  1.0274045096953290e+00  1.0270493930539117e+00  1.0250887986532902e+00  1.0212142515848688e+00  1.0182055010512283e+00  1.0193885856953404e+00  1.0248141893964560e+00  1.0285234831713654e+00  1.0258152164650964e+00  1.0136465102758356e+00  9.9762682070222730e-01  9.9458931749817747e-01  1.0002657156837431e+00  1.0008895022139725e+00  9.9973280997490999e-01  9.9999208540719575e-01  1.0000412373459107e+00  9.9997605606239059e-01  9.9998404809587926e-01  1.0000401239345493e+00  1.0001200362554614e+00  9.9994555554339037e-01  9.9962651961654980e-01  9.9958082463589326e-01  9.9993737182612830e-01  1.0005786922467061e+00  1.0013697820293543e+00  1.0020985332597265e+00  1.0019273644729536e+00  1.0004862622116617e+00  9.9921940831599043e-01  9.9899410955481882e-01  9.9905658581076084e-01  9.9882766464084449e-01  9.9792965135657075e-01  9.9637101505318204e-01  9.9513708000832346e-01  9.9460476423077782e-01  9.9401399660034973e-01  9.9321027494373904e-01  9.9271223286079502e-01  9.9259500684515756e-01  9.9263892869867221e-01  9.9260055277260439e-01  9.9272326305737668e-01  9.9390832190854850e-01  9.9614751817642111e-01  9.9902367094408451e-01  1.0020318737060128e+00  1.0035601028425740e+00  1.0035097662496215e+00  1.0037278330465333e+00  1.0068053379731179e+00  1.0128447819395434e+00  1.0183018720104395e+00  1.0222225039940995e+00  1.0255595596097704e+00  1.0296751166463922e+00  1.0232769438475771e+00  1.0003988578487890e+00  9.8899492459513538e-01  9.8448316984793549e-01  9.5741527070092380e-01  9.2448030044527685e-01  9.0688554543676125e-01  8.9805946131866043e-01  8.9728488443705623e-01  9.0636482787700101e-01  9.1426713281109073e-01  9.1048525738013886e-01  8.9912292551082018e-01  8.9812898020979948e-01  9.0683229245153607e-01  9.2774861311991441e-01  9.6382378693367887e-01  9.8652214649559167e-01  9.9648657027864307e-01  1.0164593408863349e+00  1.0295128307394128e+00  1.0266256827890154e+00  1.0224509512487321e+00  1.0198709645292323e+00  1.0187829710551946e+00  1.0181222256891056e+00  1.0161114025342164e+00  1.0127059395429203e+00  1.0090055865860472e+00  1.0061357786768388e+00  1.0042852413831349e+00  1.0035214270565129e+00  1.0035628177690179e+00  1.0032150660616441e+00  1.0012866173208659e+00  9.9860366085583130e-01  9.9674396832826451e-01  9.9539605602505277e-01  9.9406561467532872e-01  9.9317919965218315e-01  9.9279890763686429e-01  9.9266776181310412e-01  9.9263876400129314e-01  9.9260694344028100e-01  9.9260541506115241e-01  9.9292443594378332e-01  9.9367374820202548e-01  9.9440760589208843e-01  9.9505822002317601e-01  9.9642477145804775e-01  9.9815679791947487e-01  9.9893153352672792e-01  9.9959959605415150e-01  1.0011348450071984e+00  1.0016886062478474e+00  1.0006287008867281e+00  9.9986623266345276e-01  9.9764304073952603e-01  1.0169796350350275e+00  9.1326197784111918e-01  1.2998800897822145e+00  -2.4295783357261264e-02  2.0965287612900686e-03  2.3573722697659205e-03  -1.6700319944179514e-03  7.6189329061236689e-04  -1.9521044784482231e-04  -7.6631051683446285e-06  2.3596092372955895e-05  -5.9648938622158378e-06  -1.8859138635106133e-06  1.6110407536138088e-06  -3.2794065410596271e-07  -1.1453273590815523e-07  1.0268990302807277e-07  -3.2264985000137189e-08  9.7409353034320685e-10  4.2206049850371572e-09  -2.4056339855335674e-09  7.3597729798363150e-10  -8.7919408004025047e-11  -4.4121152983804584e-11  3.4312695757052176e-11  -1.3475959969350805e-11  3.5556360173373245e-12  -5.2017723458108978e-13  -8.9030976317926383e-14  1.1299436256516538e-13  -5.9965961296239507e-14  2.4001670118459860e-14  -7.6161237458800088e-15  1.7597273780598991e-15  -1.6774218724767341e-16  -9.2282018584067853e-17  6.6019442103034481e-17  -2.5451166040031428e-17  5.6430851931285270e-18  -1.9377440130299027e-18  -2.8235953655420294e-19  1.0055169878484433e+00  1.0023675771763705e+00  1.0050799643740524e+00  1.0081889668492148e+00  1.0113923227688790e+00  1.0133603537850042e+00  1.0149972455437895e+00  1.0153016063880147e+00  1.0111280640876310e+00  1.0020122957023574e+00  9.9438920248045981e-01  9.9270427940188632e-01  9.9254275183425933e-01  9.9066456618313825e-01  9.8868525890383629e-01  9.8790686873082989e-01  9.8842890055545263e-01  9.9021907412127219e-01  9.9229671358055183e-01  9.9267211086308682e-01  9.9360996030842053e-01  9.9947211111453693e-01  1.0087371077689367e+00  1.0149421091246282e+00  1.0154300677356751e+00  1.0126353275554505e+00  1.0072664361168016e+00  1.0013440206816011e+00  9.9744691200873736e-01  9.9727226189773654e-01  9.9983188986488092e-01  1.0005751914928702e+00  9.9991108035925425e-01  9.9995349065528749e-01  1.0000590621427830e+00  9.9987243736761200e-01  1.0000580828300558e+00  1.0007469747076940e+00  9.9949488712731294e-01  9.9637291979070730e-01  9.9891490472705236e-01  1.0082468307448278e+00  1.0152399920103468e+00  1.0091809919304129e+00  9.9662085258861954e-01  9.9250257766812577e-01  9.8343777192331383e-01  9.6730461422189973e-01  9.5819633123997039e-01  9.5214388128774441e-01  9.4677871224281340e-01  9.4493629078664398e-01  9.4508679487871861e-01  9.4504960484977008e-01  9.4505180712577552e-01  9.4506450715687529e-01  9.4507382619933689e-01  9.4507831944063869e-01  9.4507651819179006e-01  9.4507033821727826e-01  9.4506392456397492e-01  9.4506222096930037e-01  9.4507122475589622e-01  9.4509929656352487e-01  9.4516076139495819e-01  9.4528209257585338e-01  9.4547551682218589e-01  9.4568292844761825e-01  9.4579078730346311e-01  9.4572148695720049e-01  9.4549772248298980e-01  9.4523987900144335e-01  9.4507355114607472e-01  9.4502939356134219e-01  9.4511199850875960e-01  9.4541390495143984e-01  9.4719126171250967e-01  9.5341052000822324e-01  9.6129957538490396e-01  9.6378250282129985e-01  9.5654189486883001e-01  9.4505950250844206e-01  9.4405534504667865e-01  9.5741400883442351e-01  9.8992544175440267e-01  1.0130761822519021e+00  1.0042095970605740e+00  9.9725384603211231e-01  1.0000783844966357e+00  1.0002823917680437e+00  9.9985432834995258e-01  1.0000378888775170e+00  1.0000213002144098e+00  1.0000184654994762e+00  9.9980912052119930e-01  9.9983793097343976e-01  1.0004521244603770e+00  1.0009051266003228e+00  1.0005704537706483e+00  9.9953767230966117e-01  9.9807267402247335e-01  9.9647936713624052e-01  9.9557645983341791e-01  9.9734904901202059e-01  1.0006187779585138e+00  1.0019828112102678e+00  1.0018968630618923e+00  1.0020224924079857e+00  1.0030013950858090e+00  1.0056103109974590e+00  1.0087432781605392e+00  1.0103575921725041e+00  1.0112525768308185e+00  1.0127979137808685e+00  1.0142081466573378e+00  1.0147525138658220e+00  1.0147868848189638e+00  1.0146985492761309e+00  1.0148186965280239e+00  1.0137570769592628e+00  1.0100825666981872e+00  1.0050088823462264e+00  9.9883040888029606e-01  9.9378208310832961e-01  9.9276678838612298e-01  9.9305994492045091e-01  9.9059900382857025e-01  9.8069867475902883e-01  9.6821337443055433e-01  9.5934736657129682e-01  9.5205440563629196e-01  9.4531810521414295e-01  9.4123829311799889e-01  9.7389388809167188e-01  1.0187736041405979e+00  1.0218006082256261e+00  1.0515447845825299e+00  1.1217276681680817e+00  1.1726810224271549e+00  1.1953924603785724e+00  1.2083439406985350e+00  1.1975892611355059e+00  1.1775402454315349e+00  1.1712333108335304e+00  1.1906158850453334e+00  1.2077082182728209e+00  1.1949272318066322e+00  1.1716370941363161e+00  1.1097890268086477e+00  1.0416042325824366e+00  1.0186741493246154e+00  9.9037539614848380e-01  9.4724688068347507e-01  9.4267211526060457e-01  9.5146894537827009e-01  9.5792987721640177e-01  9.6184026804393030e-01  9.6281422368130887e-01  9.6537191245666132e-01  9.7087979732466856e-01  9.7844388948643102e-01  9.8511849164554044e-01  9.8982875833934292e-01  9.9248691464456906e-01  9.9302477460980787e-01  9.9291852552405202e-01  9.9501155874606251e-01  1.0002192258325948e+00  1.0049544987753389e+00  1.0078137377994165e+00  1.0105933026236216e+00  1.0129222255117656e+00  1.0141079143755789e+00  1.0145718819811764e+00  1.0147059967604228e+00  1.0147403586089967e+00  1.0148167215389303e+00  1.0146013435855716e+00  1.0134857669514803e+00  1.0118269675244982e+00  1.0105842306866277e+00  1.0088249205687689e+00  1.0052932560857535e+00  1.0025581976634255e+00  1.0017690047695698e+00  9.9939901780100482e-01  9.9655234602639242e-01  9.9750006228309407e-01  9.9983641560106384e-01  1.0014290155954417e+00  9.9721892833673287e-01  9.9638965726785345e-01  1.1053945467951460e+00  9.0224092614066623e-02  1.6808301672944809e-02  -1.2128681914001365e-02  4.8433167212676110e-03  -1.3928535182028982e-03  3.9794867497163404e-05  1.6872138331528702e-04  -5.9924890074320445e-05  -4.0493875292667634e-06  1.1088979861191632e-05  -3.2543117163587537e-06  -4.7188328567436186e-07  7.0745123913942982e-07  -2.5122765587602283e-07  1.6556807245948459e-08  2.8406149475255894e-08  -1.7306240058735468e-08  5.3601953312190618e-09  -6.2158451612881449e-10  -3.3957068105328446e-10  2.5740083256544906e-10  -9.8234017490549761e-11  2.4094486695969882e-11  -2.6007726751126080e-12  -1.0680667749333012e-12  8.9529595816691031e-13  -4.2461159320517132e-13  1.6012697431675400e-13  -4.8727106769850066e-14  1.0513138935530218e-14  -5.4546644614980088e-16  -8.4178272146599499e-16  5.1128660347110729e-16  -1.8357917514658627e-16  4.4387441149532355e-17  -3.8652066775187492e-18  6.3040612466430610e-19  2.5024630861383087e-18  9.7868620600525291e-01  9.9282441027591672e-01  9.8610899264304208e-01  9.7775910119148246e-01  9.6490539329139635e-01  9.5636387071276685e-01  9.5044666037741843e-01  9.4578260402319980e-01  9.5098494140733147e-01  9.7530015861473829e-01  1.0093420479148232e+00  1.0249230075347155e+00  1.0247750019384565e+00  1.0288299810760895e+00  1.0366256317640414e+00  1.0415492024402093e+00  1.0419613752342729e+00  1.0379415527690252e+00  1.0303062816458737e+00  1.0250201427841801e+00  1.0257345037743200e+00  1.0148014989740886e+00  9.8601314636490445e-01  9.5542630019714314e-01  9.4487848051192047e-01  9.5004248471813035e-01  9.6372672949295912e-01  9.8588471479407835e-01  1.0029481151863848e+00  1.0117056867607386e+00  1.0050825115038908e+00  9.9757036152747114e-01  9.9960742033968653e-01  1.0004610498740096e+00  9.9979584127273746e-01  1.0000266054724234e+00  1.0005452666369115e+00  9.9866626837168415e-01  9.9776976322231603e-01  1.0072303154114310e+00  1.0133350863222763e+00  9.8850142776146821e-01  9.5587494078952462e-01  9.4853520940146718e-01  9.9265380848165274e-01  1.0242903539919344e+00  1.0322332053512611e+00  1.0895217841280116e+00  1.1336513715315901e+00  1.1562103308981706e+00  1.1780695974420561e+00  1.1915058264670695e+00  1.1922006386196708e+00  1.1923027028519895e+00  1.1923302816220731e+00  1.1922950871810956e+00  1.1922565321047527e+00  1.1922308825014267e+00  1.1922263285051566e+00  1.1922418405816626e+00  1.1922659880270923e+00  1.1922824038781556e+00  1.1922726460926760e+00  1.1922120212410945e+00  1.1920634217975923e+00  1.1917589944228113e+00  1.1912045448155208e+00  1.1904556487723890e+00  1.1898503195742807e+00  1.1897674887491476e+00  1.1903155312924256e+00  1.1912300782762402e+00  1.1920126818124817e+00  1.1923656452281635e+00  1.1923184468529429e+00  1.1916900120326137e+00  1.1890693952880349e+00  1.1768204177694359e+00  1.1479225748439594e+00  1.1276671973774675e+00  1.1342022286899962e+00  1.1735016216727530e+00  1.2022064507925996e+00  1.1766492679479463e+00  1.1054241655034909e+00  9.7325966190569513e-01  9.6193206756750049e-01  1.0076252886031112e+00  1.0034084357492790e+00  9.9796270728185976e-01  1.0006853338811772e+00  9.9983509262043302e-01  1.0000446521417929e+00  9.9981108803647634e-01  1.0002235262006201e+00  1.0009051940092495e+00  9.9974038336967463e-01  9.9723173713435065e-01  9.9710758078023598e-01  9.9950870122385982e-01  1.0041060730522082e+00  1.0094923690909805e+00  1.0145139789465958e+00  1.0141729481719466e+00  1.0031238932793751e+00  9.9412590821959257e-01  9.9324806562757539e-01  9.9331475701722327e-01  9.9176777993554777e-01  9.8583373014672770e-01  9.7445906421240647e-01  9.6560526859287887e-01  9.6251147914162660e-01  9.5819879308895228e-01  9.5232872919358436e-01  9.4894945541115505e-01  9.4823319021164820e-01  9.4836050218877599e-01  9.4860313933616469e-01  9.4870523943030727e-01  9.5721945062197156e-01  9.7346334979843785e-01  9.9239919142520583e-01  1.0147718451883552e+00  1.0253464823466496e+00  1.0241408902156295e+00  1.0268960487508061e+00  1.0452181375786298e+00  1.0921273156954048e+00  1.1273997424409501e+00  1.1557239020598717e+00  1.1795021287330609e+00  1.2000618649716088e+00  1.1803443225203587e+00  9.9260464995784137e-01  9.0966544473804001e-01  9.1573418121535755e-01  6.8953308919703904e-01  4.7005041317771507e-01  2.4019647328891661e-01  8.6722222373678853e-02  8.4178864186693111e-02  6.5462689930247689e-02  4.6644729691921828e-02  5.6747851327650721e-02  8.0082312267077113e-02  8.5567239082713034e-02  2.4498340412195771e-01  4.8594237975658344e-01  7.4708978675691584e-01  9.2444699145161580e-01  9.4851960515158362e-01  1.1303610756197289e+00  1.2071379572324319e+00  1.1819750116135554e+00  1.1595326896020539e+00  1.1372569178993628e+00  1.1323034373549039e+00  1.1266938433123426e+00  1.1131470327183783e+00  1.0889410393133729e+00  1.0626858086688553e+00  1.0431892283692314e+00  1.0298117952446175e+00  1.0246065154991595e+00  1.0247551518478308e+00  1.0229194778213164e+00  1.0093717349631413e+00  9.8945657434318268e-01  9.7743584018866503e-01  9.6799390726254786e-01  9.5824864298414925e-01  9.5227197261853547e-01  9.4960832634599290e-01  9.4867980118096618e-01  9.4846545185191400e-01  9.4832397075316766e-01  9.4822163931723735e-01  9.5033795967397372e-01  9.5572094336126223e-01  9.6116589975951550e-01  9.6521100211217625e-01  9.7447899622159539e-01  9.8779677965415569e-01  9.9270344206375472e-01  9.9619418427350725e-01  1.0083559170631429e+00  1.0126074754393435e+00  1.0036860821000524e+00  9.9787141286483649e-01  9.9898987622172652e-01  1.0052552051200243e+00  9.8355176326480265e-01  9.3861360326724197e-01  -2.2274121113285611e-01  6.5995840610058906e-02  -1.9329268551319560e-02  3.1035633805701858e-03  1.2785848436880395e-03  -8.5990475655095371e-04  7.0580032249553050e-05  1.0836432520573727e-04  -5.2863288327747886e-05  1.4839161319499573e-06  7.6997307005820693e-06  -3.6046706088244024e-06  5.2554750555235436e-07  2.6965321619849074e-07  -2.1659747130134953e-07  7.8200898732396144e-08  -1.3324501701838144e-08  -2.7238167101153990e-09  3.1023558442724442e-09  -1.3488059643689618e-09  3.7424622850794064e-10  -5.6528985599304891e-11  -8.0398801985527110e-12  1.0538420280205241e-11  -5.4600016964158183e-12  2.1901125264518870e-12  -7.2182928595174322e-13  1.8137773875732040e-13  -2.3690920212724522e-14  -6.5008865570370460e-15  5.9587253876917683e-15  -2.4658344070292844e-15  6.8350088864698305e-16  -1.1143730590707143e-16  -8.0112352290223114e-18  5.9927088668407367e-18  -1.2117743203544450e-17  1.0808115035432049e+00  1.0279527260124925e+00  1.0424210486588874e+00  1.0628939424650277e+00  1.1062681332283588e+00  1.1505952455009079e+00  1.1711167999997829e+00  1.1956991636709353e+00  1.1978747584732994e+00  1.1487031599690982e+00  1.0260285392296342e+00  9.2129450890904707e-01  9.0795691197492134e-01  9.0439299992043309e-01  8.7801862265823283e-01  8.5249646813441871e-01  8.4302504035137371e-01  8.4937554948927485e-01  8.7205648065770214e-01  9.0062728103763356e-01  9.0824207403454893e-01  9.1124717725262228e-01  9.9511410686027957e-01  1.1103699968834164e+00  1.2025013581629995e+00  1.1923867969898818e+00  1.1706876894053198e+00  1.0911229704524552e+00  1.0182834393053133e+00  9.6764653533121547e-01  9.5936954350759507e-01  1.0037551874182249e+00  1.0057256302156099e+00  9.9811216449265749e-01  9.9985370363631221e-01  1.0008710405827517e+00  9.9869671916265268e-01  9.9940828697409589e-01  1.0094740153988135e+00  9.9776895964916001e-01  9.5187649141963671e-01  9.7709342295603929e-01  1.1155262478914625e+00  1.1887006474532729e+00  1.1471383629259768e+00  9.1831137825296272e-01  9.2193604292533227e-01  7.9491049530806113e-01  5.5118742542454158e-01  4.6903568307819410e-01  2.8332842934267177e-01  1.5014296810244368e-01  1.0876406782409170e-01  9.8067626157104723e-02  9.4592990975233229e-02  9.3248657407619770e-02  9.2629102534764848e-02  9.2331393662807987e-02  9.2237290953486151e-02  9.2326888929296108e-02  9.2601717401135250e-02  9.3091627275219538e-02  9.3889045616056613e-02  9.5195087383196333e-02  9.7388724507898455e-02  1.0107970729344766e-01  1.0708724972977511e-01  1.1557532267057836e-01  1.2413012542666119e-01  1.2842843948630425e-01  1.2558004627224989e-01  1.1634063982404899e-01  1.0514452988681763e-01  9.6965435900080679e-02  9.2907284758888223e-02  9.0991498590643496e-02  8.8275091197978231e-02  7.7857411346658301e-02  4.8315712144788851e-02  1.2332305372422690e-02  2.6647359439150474e-03  3.6234057975065355e-02  8.4790077535873809e-02  6.2050778267718119e-02  3.8057413012907448e-01  8.8121047146305098e-01  1.2088735827428181e+00  1.0213632820307792e+00  9.6608103994108363e-01  1.0105481191495140e+00  9.9722109126418168e-01  1.0007323854284567e+00  9.9963485559849508e-01  1.0003918618019028e+00  1.0004336659229338e+00  9.9768130880693506e-01  9.9727656607262261e-01  1.0058541471319014e+00  1.0125502148513763e+00  1.0065882817380176e+00  9.9503773100606008e-01  9.7371441403370529e-01  9.5615927826288483e-01  9.4103570382494672e-01  9.6336322607195413e-01  1.0116267308897151e+00  1.0246442717169872e+00  1.0245469950085739e+00  1.0266292618550767e+00  1.0385916838738833e+00  1.0715673850145195e+00  1.1158856418134278e+00  1.1344113329422114e+00  1.1451055615228660e+00  1.1668109809965137e+00  1.1850623349036586e+00  1.1917183527010051e+00  1.1920331497443786e+00  1.1914820734800493e+00  1.1903161030797120e+00  1.1830540968929990e+00  1.1276209664888945e+00  1.0668888436283133e+00  9.8664152160091390e-01  9.1436924141199960e-01  9.0809025584319758e-01  9.0899510632198444e-01  8.7661009228195774e-01  7.6175189126184306e-01  5.6382100396100843e-01  4.9333281125520129e-01  2.8329849377503141e-01  8.3073993187090467e-02  8.6517042333019586e-02  -