<?xml version="1.0"?>
<VTKFile type="UnstructuredGrid"  version="0.1"  >
<UnstructuredGrid>
<Piece  NumberOfPoints="5151" NumberOfCells="10000">
<Points>
<DataArray  type="Float64"  NumberOfComponents="3"  format="ascii">0 0 0  0.01 0 0  0.02 0 0  0.03 0 0  0.04 0 0  0.05 0 0  0.06 0 0  0.07000000000000001 0 0  0.08 0 0  0.09 0 0  0.1 0 0  0.11 0 0  0.12 0 0  0.13 0 0  0.14 0 0  0.15 0 0  0.16 0 0  0.17 0 0  0.18 0 0  0.19 0 0  0.2 0 0  0.21 0 0  0.22 0 0  0.23 0 0  0.24 0 0  0.25 0 0  0.26 0 0  0.27 0 0  0.28 0 0  0.29 0 0  0.3 0 0  0.31 0 0  0.32 0 0  0.33 0 0  0.34 0 0  0.35 0 0  0.36 0 0  0.37 0 0  0.38 0 0  0.39 0 0  0.4 0 0  0.41 0 0  0.42 0 0  0.43 0 0  0.44 0 0  0.45 0 0  0.46 0 0  0.47 0 0  0.48 0 0  0.49 0 0  0.5 0 0  0.51 0 0  0.52 0 0  0.53 0 0  0.54 0 0  0.55 0 0  0.5600000000000001 0 0  0.57 0 0  0.58 0 0  0.59 0 0  0.6 0 0  0.61 0 0  0.62 0 0  0.63 0 0  0.64 0 0  0.65 0 0  0.66 0 0  0.67 0 0  0.68 0 0  0.6899999999999999 0 0  0.7 0 0  0.71 0 0  0.72 0 0  0.73 0 0  0.74 0 0  0.75 0 0  0.76 0 0  0.77 0 0  0.78 0 0  0.79 0 0  0.8 0 0  0.8100000000000001 0 0  0.82 0 0  0.83 0 0  0.84 0 0  0.85 0 0  0.86 0 0  0.87 0 0  0.88 0 0  0.89 0 0  0.9 0 0  0.91 0 0  0.92 0 0  0.93 0 0  0.9399999999999999 0 0  0.95 0 0  0.96 0 0  0.97 0 0  0.98 0 0  0.99 0 0  1 0 0  0 0.01 0  0.01 0.01 0  0.02 0.01 0  0.03 0.01 0  0.04 0.01 0  0.05 0.01 0  0.06 0.01 0  0.07000000000000001 0.01 0  0.08 0.01 0  0.09 0.01 0  0.1 0.01 0  0.11 0.01 0  0.12 0.01 0  0.13 0.01 0  0.14 0.01 0  0.15 0.01 0  0.16 0.01 0  0.17 0.01 0  0.18 0.01 0  0.19 0.01 0  0.2 0.01 0  0.21 0.01 0  0.22 0.01 0  0.23 0.01 0  0.24 0.01 0  0.25 0.01 0  0.26 0.01 0  0.27 0.01 0  0.28 0.01 0  0.29 0.01 0  0.3 0.01 0  0.31 0.01 0  0.32 0.01 0  0.33 0.01 0  0.34 0.01 0  0.35 0.01 0  0.36 0.01 0  0.37 0.01 0  0.38 0.01 0  0.39 0.01 0  0.4 0.01 0  0.41 0.01 0  0.42 0.01 0  0.43 0.01 0  0.44 0.01 0  0.45 0.01 0  0.46 0.01 0  0.47 0.01 0  0.48 0.01 0  0.49 0.01 0  0.5 0.01 0  0.51 0.01 0  0.52 0.01 0  0.53 0.01 0  0.54 0.01 0  0.55 0.01 0  0.5600000000000001 0.01 0  0.57 0.01 0  0.58 0.01 0  0.59 0.01 0  0.6 0.01 0  0.61 0.01 0  0.62 0.01 0  0.63 0.01 0  0.64 0.01 0  0.65 0.01 0  0.66 0.01 0  0.67 0.01 0  0.68 0.01 0  0.6899999999999999 0.01 0  0.7 0.01 0  0.71 0.01 0  0.72 0.01 0  0.73 0.01 0  0.74 0.01 0  0.75 0.01 0  0.76 0.01 0  0.77 0.01 0  0.78 0.01 0  0.79 0.01 0  0.8 0.01 0  0.8100000000000001 0.01 0  0.82 0.01 0  0.83 0.01 0  0.84 0.01 0  0.85 0.01 0  0.86 0.01 0  0.87 0.01 0  0.88 0.01 0  0.89 0.01 0  0.9 0.01 0  0.91 0.01 0  0.92 0.01 0  0.93 0.01 0  0.9399999999999999 0.01 0  0.95 0.01 0  0.96 0.01 0  0.97 0.01 0  0.98 0.01 0  0.99 0.01 0  1 0.01 0  0 0.02 0  0.01 0.02 0  0.02 0.02 0  0.03 0.02 0  0.04 0.02 0  0.05 0.02 0  0.06 0.02 0  0.07000000000000001 0.02 0  0.08 0.02 0  0.09 0.02 0  0.1 0.02 0  0.11 0.02 0  0.12 0.02 0  0.13 0.02 0  0.14 0.02 0  0.15 0.02 0  0.16 0.02 0  0.17 0.02 0  0.18 0.02 0  0.19 0.02 0  0.2 0.02 0  0.21 0.02 0  0.22 0.02 0  0.23 0.02 0  0.24 0.02 0  0.25 0.02 0  0.26 0.02 0  0.27 0.02 0  0.28 0.02 0  0.29 0.02 0  0.3 0.02 0  0.31 0.02 0  0.32 0.02 0  0.33 0.02 0  0.34 0.02 0  0.35 0.02 0  0.36 0.02 0  0.37 0.02 0  0.38 0.02 0  0.39 0.02 0  0.4 0.02 0  0.41 0.02 0  0.42 0.02 0  0.43 0.02 0  0.44 0.02 0  0.45 0.02 0  0.46 0.02 0  0.47 0.02 0  0.48 0.02 0  0.49 0.02 0  0.5 0.02 0  0.51 0.02 0  0.52 0.02 0  0.53 0.02 0  0.54 0.02 0  0.55 0.02 0  0.5600000000000001 0.02 0  0.57 0.02 0  0.58 0.02 0  0.59 0.02 0  0.6 0.02 0  0.61 0.02 0  0.62 0.02 0  0.63 0.02 0  0.64 0.02 0  0.65 0.02 0  0.66 0.02 0  0.67 0.02 0  0.68 0.02 0  0.6899999999999999 0.02 0  0.7 0.02 0  0.71 0.02 0  0.72 0.02 0  0.73 0.02 0  0.74 0.02 0  0.75 0.02 0  0.76 0.02 0  0.77 0.02 0  0.78 0.02 0  0.79 0.02 0  0.8 0.02 0  0.8100000000000001 0.02 0  0.82 0.02 0  0.83 0.02 0  0.84 0.02 0  0.85 0.02 0  0.86 0.02 0  0.87 0.02 0  0.88 0.02 0  0.89 0.02 0  0.9 0.02 0  0.91 0.02 0  0.92 0.02 0  0.93 0.02 0  0.9399999999999999 0.02 0  0.95 0.02 0  0.96 0.02 0  0.97 0.02 0  0.98 0.02 0  0.99 0.02 0  1 0.02 0  0 0.03 0  0.01 0.03 0  0.02 0.03 0  0.03 0.03 0  0.04 0.03 0  0.05 0.03 0  0.06 0.03 0  0.07000000000000001 0.03 0  0.08 0.03 0  0.09 0.03 0  0.1 0.03 0  0.11 0.03 0  0.12 0.03 0  0.13 0.03 0  0.14 0.03 0  0.15 0.03 0  0.16 0.03 0  0.17 0.03 0  0.18 0.03 0  0.19 0.03 0  0.2 0.03 0  0.21 0.03 0  0.22 0.03 0  0.23 0.03 0  0.24 0.03 0  0.25 0.03 0  0.26 0.03 0  0.27 0.03 0  0.28 0.03 0  0.29 0.03 0  0.3 0.03 0  0.31 0.03 0  0.32 0.03 0  0.33 0.03 0  0.34 0.03 0  0.35 0.03 0  0.36 0.03 0  0.37 0.03 0  0.38 0.03 0  0.39 0.03 0  0.4 0.03 0  0.41 0.03 0  0.42 0.03 0  0.43 0.03 0  0.44 0.03 0  0.45 0.03 0  0.46 0.03 0  0.47 0.03 0  0.48 0.03 0  0.49 0.03 0  0.5 0.03 0  0.51 0.03 0  0.52 0.03 0  0.53 0.03 0  0.54 0.03 0  0.55 0.03 0  0.5600000000000001 0.03 0  0.57 0.03 0  0.58 0.03 0  0.59 0.03 0  0.6 0.03 0  0.61 0.03 0  0.62 0.03 0  0.63 0.03 0  0.64 0.03 0  0.65 0.03 0  0.66 0.03 0  0.67 0.03 0  0.68 0.03 0  0.6899999999999999 0.03 0  0.7 0.03 0  0.71 0.03 0  0.72 0.03 0  0.73 0.03 0  0.74 0.03 0  0.75 0.03 0  0.76 0.03 0  0.77 0.03 0  0.78 0.03 0  0.79 0.03 0  0.8 0.03 0  0.8100000000000001 0.03 0  0.82 0.03 0  0.83 0.03 0  0.84 0.03 0  0.85 0.03 0  0.86 0.03 0  0.87 0.03 0  0.88 0.03 0  0.89 0.03 0  0.9 0.03 0  0.91 0.03 0  0.92 0.03 0  0.93 0.03 0  0.9399999999999999 0.03 0  0.95 0.03 0  0.96 0.03 0  0.97 0.03 0  0.98 0.03 0  0.99 0.03 0  1 0.03 0  0 0.04 0  0.01 0.04 0  0.02 0.04 0  0.03 0.04 0  0.04 0.04 0  0.05 0.04 0  0.06 0.04 0  0.07000000000000001 0.04 0  0.08 0.04 0  0.09 0.04 0  0.1 0.04 0  0.11 0.04 0  0.12 0.04 0  0.13 0.04 0  0.14 0.04 0  0.15 0.04 0  0.16 0.04 0  0.17 0.04 0  0.18 0.04 0  0.19 0.04 0  0.2 0.04 0  0.21 0.04 0  0.22 0.04 0  0.23 0.04 0  0.24 0.04 0  0.25 0.04 0  0.26 0.04 0  0.27 0.04 0  0.28 0.04 0  0.29 0.04 0  0.3 0.04 0  0.31 0.04 0  0.32 0.04 0  0.33 0.04 0  0.34 0.04 0  0.35 0.04 0  0.36 0.04 0  0.37 0.04 0  0.38 0.04 0  0.39 0.04 0  0.4 0.04 0  0.41 0.04 0  0.42 0.04 0  0.43 0.04 0  0.44 0.04 0  0.45 0.04 0  0.46 0.04 0  0.47 0.04 0  0.48 0.04 0  0.49 0.04 0  0.5 0.04 0  0.51 0.04 0  0.52 0.04 0  0.53 0.04 0  0.54 0.04 0  0.55 0.04 0  0.5600000000000001 0.04 0  0.57 0.04 0  0.58 0.04 0  0.59 0.04 0  0.6 0.04 0  0.61 0.04 0  0.62 0.04 0  0.63 0.04 0  0.64 0.04 0  0.65 0.04 0  0.66 0.04 0  0.67 0.04 0  0.68 0.04 0  0.6899999999999999 0.04 0  0.7 0.04 0  0.71 0.04 0  0.72 0.04 0  0.73 0.04 0  0.74 0.04 0  0.75 0.04 0  0.76 0.04 0  0.77 0.04 0  0.78 0.04 0  0.79 0.04 0  0.8 0.04 0  0.8100000000000001 0.04 0  0.82 0.04 0  0.83 0.04 0  0.84 0.04 0  0.85 0.04 0  0.86 0.04 0  0.87 0.04 0  0.88 0.04 0  0.89 0.04 0  0.9 0.04 0  0.91 0.04 0  0.92 0.04 0  0.93 0.04 0  0.9399999999999999 0.04 0  0.95 0.04 0  0.96 0.04 0  0.97 0.04 0  0.98 0.04 0  0.99 0.04 0  1 0.04 0  0 0.05 0  0.01 0.05 0  0.02 0.05 0  0.03 0.05 0  0.04 0.05 0  0.05 0.05 0  0.06 0.05 0  0.07000000000000001 0.05 0  0.08 0.05 0  0.09 0.05 0  0.1 0.05 0  0.11 0.05 0  0.12 0.05 0  0.13 0.05 0  0.14 0.05 0  0.15 0.05 0  0.16 0.05 0  0.17 0.05 0  0.18 0.05 0  0.19 0.05 0  0.2 0.05 0  0.21 0.05 0  0.22 0.05 0  0.23 0.05 0  0.24 0.05 0  0.25 0.05 0  0.26 0.05 0  0.27 0.05 0  0.28 0.05 0  0.29 0.05 0  0.3 0.05 0  0.31 0.05 0  0.32 0.05 0  0.33 0.05 0  0.34 0.05 0  0.35 0.05 0  0.36 0.05 0  0.37 0.05 0  0.38 0.05 0  0.39 0.05 0  0.4 0.05 0  0.41 0.05 0  0.42 0.05 0  0.43 0.05 0  0.44 0.05 0  0.45 0.05 0  0.46 0.05 0  0.47 0.05 0  0.48 0.05 0  0.49 0.05 0  0.5 0.05 0  0.51 0.05 0  0.52 0.05 0  0.53 0.05 0  0.54 0.05 0  0.55 0.05 0  0.5600000000000001 0.05 0  0.57 0.05 0  0.58 0.05 0  0.59 0.05 0  0.6 0.05 0  0.61 0.05 0  0.62 0.05 0  0.63 0.05 0  0.64 0.05 0  0.65 0.05 0  0.66 0.05 0  0.67 0.05 0  0.68 0.05 0  0.6899999999999999 0.05 0  0.7 0.05 0  0.71 0.05 0  0.72 0.05 0  0.73 0.05 0  0.74 0.05 0  0.75 0.05 0  0.76 0.05 0  0.77 0.05 0  0.78 0.05 0  0.79 0.05 0  0.8 0.05 0  0.8100000000000001 0.05 0  0.82 0.05 0  0.83 0.05 0  0.84 0.05 0  0.85 0.05 0  0.86 0.05 0  0.87 0.05 0  0.88 0.05 0  0.89 0.05 0  0.9 0.05 0  0.91 0.05 0  0.92 0.05 0  0.93 0.05 0  0.9399999999999999 0.05 0  0.95 0.05 0  0.96 0.05 0  0.97 0.05 0  0.98 0.05 0  0.99 0.05 0  1 0.05 0  0 0.06 0  0.01 0.06 0  0.02 0.06 0  0.03 0.06 0  0.04 0.06 0  0.05 0.06 0  0.06 0.06 0  0.07000000000000001 0.06 0  0.08 0.06 0  0.09 0.06 0  0.1 0.06 0  0.11 0.06 0  0.12 0.06 0  0.13 0.06 0  0.14 0.06 0  0.15 0.06 0  0.16 0.06 0  0.17 0.06 0  0.18 0.06 0  0.19 0.06 0  0.2 0.06 0  0.21 0.06 0  0.22 0.06 0  0.23 0.06 0  0.24 0.06 0  0.25 0.06 0  0.26 0.06 0  0.27 0.06 0  0.28 0.06 0  0.29 0.06 0  0.3 0.06 0  0.31 0.06 0  0.32 0.06 0  0.33 0.06 0  0.34 0.06 0  0.35 0.06 0  0.36 0.06 0  0.37 0.06 0  0.38 0.06 0  0.39 0.06 0  0.4 0.06 0  0.41 0.06 0  0.42 0.06 0  0.43 0.06 0  0.44 0.06 0  0.45 0.06 0  0.46 0.06 0  0.47 0.06 0  0.48 0.06 0  0.49 0.06 0  0.5 0.06 0  0.51 0.06 0  0.52 0.06 0  0.53 0.06 0  0.54 0.06 0  0.55 0.06 0  0.5600000000000001 0.06 0  0.57 0.06 0  0.58 0.06 0  0.59 0.06 0  0.6 0.06 0  0.61 0.06 0  0.62 0.06 0  0.63 0.06 0  0.64 0.06 0  0.65 0.06 0  0.66 0.06 0  0.67 0.06 0  0.68 0.06 0  0.6899999999999999 0.06 0  0.7 0.06 0  0.71 0.06 0  0.72 0.06 0  0.73 0.06 0  0.74 0.06 0  0.75 0.06 0  0.76 0.06 0  0.77 0.06 0  0.78 0.06 0  0.79 0.06 0  0.8 0.06 0  0.8100000000000001 0.06 0  0.82 0.06 0  0.83 0.06 0  0.84 0.06 0  0.85 0.06 0  0.86 0.06 0  0.87 0.06 0  0.88 0.06 0  0.89 0.06 0  0.9 0.06 0  0.91 0.06 0  0.92 0.06 0  0.93 0.06 0  0.9399999999999999 0.06 0  0.95 0.06 0  0.96 0.06 0  0.97 0.06 0  0.98 0.06 0  0.99 0.06 0  1 0.06 0  0 0.07000000000000001 0  0.01 0.07000000000000001 0  0.02 0.07000000000000001 0  0.03 0.07000000000000001 0  0.04 0.07000000000000001 0  0.05 0.07000000000000001 0  0.06 0.07000000000000001 0  0.07000000000000001 0.07000000000000001 0  0.08 0.07000000000000001 0  0.09 0.07000000000000001 0  0.1 0.07000000000000001 0  0.11 0.07000000000000001 0  0.12 0.07000000000000001 0  0.13 0.07000000000000001 0  0.14 0.07000000000000001 0  0.15 0.07000000000000001 0  0.16 0.07000000000000001 0  0.17 0.07000
[...]
<PointData  Scalars="rho_bar"> 
<DataArray  type="Float64"  Name="rho_bar"  format="ascii">7.5187294775232139e-01  7.5054897016096755e-01  7.4899428597973505e-01  7.4690524434195926e-01  7.4423403586915160e-01  7.4101167771930820e-01  7.3730270970099121e-01  7.3318938411704782e-01  7.2876578146568771e-01  7.2413258648872558e-01  7.1939409390890396e-01  7.1465374182828190e-01  7.1000864025903077e-01  7.0553983042669222e-01  7.0130042971507800e-01  6.9730215165669462e-01  6.9350596867639092e-01  6.8981545563565760e-01  6.8607634731110112e-01  6.8207913138028242e-01  6.7756885784746412e-01  6.7225950262372036e-01  6.6585511830561728e-01  6.5807484508049796e-01  6.4868508840680406e-01  6.3754296879311756e-01  6.2466349441314850e-01  6.1028555425901843e-01  5.9483664686527893e-01  5.7883766734179565e-01  5.6283796364663330e-01  5.4734216833082261e-01  5.3268713527483635e-01  5.1898952038885404e-01  5.0615463023291618e-01  4.9391233367523496e-01  4.8188467294654264e-01  4.6969341051737695e-01  4.5708184232645743e-01  4.4394422704118452e-01  4.3030071598793029e-01  4.1617969401364802e-01  4.0144835557656111e-01  3.8586665021869193e-01  3.6917777701113114e-01  3.5115538131428664e-01  3.3165682142269481e-01  3.1074146549591636e-01  2.8878074865398551e-01  2.6640481853405057e-01  2.4429554486881216e-01  2.2302633220607943e-01  2.0294285251480965e-01  1.8420027975286749e-01  1.6683857057391691e-01  1.5083605195075600e-01  1.3614103792828039e-01  1.2268875701070890e-01  1.1040928559027860e-01  9.9230878347624826e-02  8.9081215006406797e-02  7.9888057367714399e-02  7.1579910269486874e-02  6.4086684776518243e-02  5.7340464676018096e-02  5.1276050783056026e-02  4.5831580337548403e-02  4.0948839869974753e-02  3.6573627030007029e-02  3.2655786811502593e-02  2.9149324672184878e-02  2.6012258411846061e-02  2.3206532857912868e-02  2.0697740696814581e-02  1.8454928116632057e-02  1.6450276683239402e-02  1.4658879840888074e-02  1.3058418019089399e-02  1.1628949223360838e-02  1.0352638369710719e-02  9.2135649616592822e-03  8.1975064422053351e-03  7.2917745002939495e-03  6.4850501828923384e-03  5.7672517469981328e-03  5.1294026440995488e-03  4.5635270854454809e-03  4.0625536535720654e-03  3.6202232247994747e-03  3.2310221340741160e-03  2.8901028081322650e-03  2.5932339011536260e-03  2.3367376988961634e-03  2.1174526003872162e-03  1.9326855984344799e-03  1.7801978865563985e-03  1.6581685528283849e-03  1.5652087008502099e-03  1.5004051571760651e-03  1.4636297754419248e-03  1.4566425008659322e-03  7.4565348385811847e-01  7.4499786604746732e-01  7.4358161521841459e-01  7.4149328545860194e-01  7.3877447519037798e-01  7.3548063291040211e-01  7.3168498258681558e-01  7.2747536538421775e-01  7.2294940487852022e-01  7.1821165400377718e-01  7.1336958177603849e-01  7.0853054772639956e-01  7.0379611130043651e-01  6.9925311338828000e-01  6.9495973782048259e-01  6.9093210646670966e-01  6.8713307889068032e-01  6.8346721423076895e-01  6.7977869467425678e-01  6.7585559685366758e-01  6.7143856786532152e-01  6.6623731198176384e-01  6.5995247517950240e-01  6.5230352020387727e-01  6.4306075057930023e-01  6.3208987996332100e-01  6.1941093788546486e-01  6.0525476972691439e-01  5.9004317886386093e-01  5.7429143020124829e-01  5.5853427345247930e-01  5.4326852124518310e-01  5.2883803191068457e-01  5.1536597283704522e-01  5.0276126563327195e-01  4.9075724448532193e-01  4.7898616776360242e-01  4.6708724850215833e-01  4.5481607458446210e-01  4.4207473147125675e-01  4.2886842755562282e-01  4.1520461470304210e-01  4.0094473506721690e-01  3.8584200067443597e-01  3.6963615924265658e-01  3.5210258913254305e-01  3.3309330504194667e-01  3.1264099540557450e-01  2.9106733122444917e-01  2.6896769414826904e-01  2.4701629124639646e-01  2.2579842279009213e-01  2.0568735031521104e-01  1.8685959968309737e-01  1.6937142894406518e-01  1.5321464872368579e-01  1.3834887456837650e-01  1.2471855831494491e-01  1.1226100331899781e-01  1.0090974524061185e-01  9.0596050818389409e-02  8.1249866753359976e-02  7.2800773282060610e-02  6.5179018753828324e-02  5.8316432340364488e-02  5.2147290182940675e-02  4.6608901544905150e-02  4.1642201178911514e-02  3.7192017241671718e-02  3.3207329264829506e-02  2.9641247758763513e-02  2.6451027883740739e-02  2.3597875277360111e-02  2.1046772196975230e-02  1.8766174261246851e-02  1.6727786974845504e-02  1.4906240866411806e-02  1.3278850045412217e-02  1.1825312539110549e-02  1.0527499780807874e-02  9.3692145523673713e-03  8.3360004928037679e-03  7.4149517074777061e-03  6.5945633776793144e-03  5.8645828219891062e-03  5.2158864699211830e-03  4.6403670823902199e-03  4.1308341147956468e-03  3.6809310417418701e-03  3.2850487520321298e-03  2.9382662963312765e-03  2.6362801191397748e-03  2.3753572253311646e-03  2.1522794499649854e-03  1.9643167239751765e-03  1.8091834834955257e-03  1.6850217376428694e-03  1.5903757465788261e-03  1.5241873152840094e-03  1.4857214377862131e-03  1.4741868558549324e-03  7.2911145434276137e-01  7.2859593482755458e-01  7.2720937319228773e-01  7.2503844663169537e-01  7.2215750202361195e-01  7.1864420519293437e-01  7.1458848805324804e-01  7.1009080606567321e-01  7.0526046255146135e-01  7.0021216623063287e-01  6.9506361780642334e-01  6.8993277319399149e-01  6.8493540704419309e-01  6.8017516326945116e-01  6.7572725599281902e-01  6.7161962435683009e-01  6.6782216609967449e-01  6.6424056554570987e-01  6.6071613670333562e-01  6.5702834778270147e-01  6.5290523203493434e-01  6.4804152265608261e-01  6.4212687771606014e-01  6.3487828905065147e-01  6.2607452579074274e-01  6.1559897501573146e-01  6.0349343365860386e-01  5.8999217203929755e-01  5.7550045161967589e-01  5.6050936737298185e-01  5.4551992444531339e-01  5.3099536987538754e-01  5.1728302461872999e-01  5.0451869592103382e-01  4.9262140196364290e-01  4.8133565990611665e-01  4.7031758539263857e-01  4.5925985940438196e-01  4.4796741525361822e-01  4.3636461223129375e-01  4.2443892014659040e-01  4.1213245948335780e-01  3.9926859495698480e-01  3.8557974220614505e-01  3.7079494370184063e-01  3.5468403117164971e-01  3.3708064092351414e-01  3.1796459906074986e-01  2.9755931709223832e-01  2.7634944452440224e-01  2.5496299514137155e-01  2.3399707905814149e-01  2.1388126817246655e-01  1.9485370484933270e-01  1.7702359607712659e-01  1.6042769800686549e-01  1.4506310219646373e-01  1.3090492392159386e-01  1.1791435878873995e-01  1.0604251106101428e-01  9.5232634400351804e-02  8.5422013431900062e-02  7.6544105097533344e-02  6.8530501967577165e-02  6.1312667185423268e-02  5.4823317970060730e-02  4.8997553327344547e-02  4.3773650321079077e-02  3.9093708741975916e-02  3.4903944933313842e-02  3.1154909883811640e-02  2.7801453214894335e-02  2.4802629683139118e-02  2.2121467675474467e-02  1.9724723568627919e-02  1.7582566072195757e-02  1.5668301139221075e-02  1.3958037889658605e-02  1.2430438103035346e-02  1.1066434768099960e-02  9.8490085937228602e-03  8.7629631932561042e-03  7.7947412853825847e-03  6.9322548401733941e-03  6.1647368177695479e-03  5.4826035986122361e-03  4.8773423840618394e-03  4.3414067666892259e-03  3.8681219519264842e-03  3.4516064865990808e-03  3.0866933014542619e-03  2.7688715484405022e-03  2.4942237317706266e-03  2.2593775838375715e-03  2.0614630668874573e-03  1.8980767798430997e-03  1.7672517760001186e-03  1.6674161898954497e-03  1.5973616389608584e-03  1.5561599993090091e-03  1.5429790529248514e-03  7.0119094127912696e-01  7.0069066569193528e-01  6.9923237161573260e-01  6.9687727071387917e-01  6.9371020194172772e-01  6.8982882631843956e-01  6.8534404229416823e-01  6.8037616441739901e-01  6.7505245143030257e-01  6.6950526233234098e-01  6.6386754886966171e-01  6.5827340883011543e-01  6.5286009888041352e-01  6.4776139866008242e-01  6.4308143761983105e-01  6.3886890949775044e-01  6.3510385678913783e-01  6.3169559612081649e-01  6.2848150886649512e-01  6.2522983949746502e-01  6.2164819887686240e-01  6.1740655118937904e-01  6.1217452066025813e-01  6.0566652646767349e-01  5.9767419713854630e-01  5.8810416925832587e-01  5.7702576870711375e-01  5.6467867315642073e-01  5.5144016246652461e-01  5.3775808083558152e-01  5.2408444521721997e-01  5.1083487801087657e-01  4.9834190556456198e-01  4.8676015287309204e-01  4.7602667987671637e-01  4.6591448362128018e-01  4.5613482150704043e-01  4.4645930562684710e-01  4.3675927259844999e-01  4.2698482065201865e-01  4.1708181306506981e-01  4.0692586640965112e-01  3.9628941981866567e-01  3.8487559253506531e-01  3.7238838108132838e-01  3.5857648927440289e-01  3.4323694252124337e-01  3.2628014116092052e-01  3.0781342197972000e-01  2.8817233065457315e-01  2.6786835974052592e-01  2.4748095962228689e-01  2.2749623066977040e-01  2.0824089468491810e-01  1.8991446360613842e-01  1.7263388391780324e-01  1.5646380258325121e-01  1.4143585922606067e-01  1.2755574594781857e-01  1.1480776744703226e-01  1.0315800985144621e-01  9.2558088723952520e-02  8.2949300292027656e-02  7.4266503367747969e-02  6.6441170018349566e-02  5.9403829643493833e-02  5.3085986024180305e-02  4.7421594886655295e-02  4.2348075616565756e-02  3.7807037571822216e-02  3.3744601536624882e-02  3.0111548084938728e-02  2.6863220908943199e-02  2.3959339633932077e-02  2.1363710468120373e-02  1.9043910629691602e-02  1.6970928034412580e-02  1.5118851770678177e-02  1.3464530277329592e-02  1.1987305027370438e-02  1.0668729667562372e-02  9.4923464717382305e-03  8.4434735151421962e-03  7.5090236115634866e-03  6.6773398756535219e-03  5.9380550628311563e-03  5.2819590801435447e-03  4.7008918187354471e-03  4.1876397824813410e-03  3.7358467835705441e-03  3.3399346500971043e-03  2.9950309247931571e-03  2.6969073693779203e-03  2.4419254131050313e-03  2.2269824023081878e-03  2.0494829227736852e-03  1.9072816531209413e-03  1.7986725318447398e-03  1.7223176840393843e-03  1.6772240181838127e-03  1.6626966574606670e-03  6.6086239006349412e-01  6.6035622702422792e-01  6.5876779524285300e-01  6.5614488793112691e-01  6.5258414661600550e-01  6.4820812170978859e-01  6.4315646941936555e-01  6.3757507248671219e-01  6.3161630517557332e-01  6.2543717413431466e-01  6.1919096434343890e-01  6.1302679006656002e-01  6.0710742728075651e-01  6.0160774698993924e-01  5.9667548117434677e-01  5.9238504019422511e-01  5.8872966745367372e-01  5.8562438057072530e-01  5.8290757500085133e-01  5.8033839913900209e-01  5.7760265766040375e-01  5.7433832249919892e-01  5.7018706015448073e-01  5.6486009169962537e-01  5.5817228889205295e-01  5.5004679577328786e-01  5.4056794537702268e-01  5.2996180325376085e-01  5.1856210676268000e-01  5.0675894015676415e-01  4.9494826886646076e-01  4.8349550222532289e-01  4.7270463632234205e-01  4.6274913033557480e-01  4.5360154725533447e-01  4.4507988036652524e-01  4.3698533266291412e-01  4.2918342904529588e-01  4.2160867905483318e-01  4.1421452454666302e-01  4.0691483281784363e-01  3.9953512397036117e-01  3.9180636376969508e-01  3.8340068984934345e-01  3.7398428261458966e-01  3.6325876464584123e-01  3.5096185278545106e-01  3.3691531295063853e-01  3.2110821069093665e-01  3.0373200869932127e-01  2.8515208863857944e-01  2.6585283460066000e-01  2.4633277337249818e-01  2.2699316758788521e-01  2.0814702394655815e-01  1.9002833549790246e-01  1.7280397771861944e-01  1.5659507263057898e-01  1.4147939284525157e-01  1.2749611684057174e-01  1.1465008042614971e-01  1.0291761254385014e-01  9.2254593401546320e-02  8.2603011464459988e-02  7.3896081841194394e-02  6.6062294442676306e-02  5.9028632657319911e-02  5.2723110907081955e-02  4.7076624828461741e-02  4.2024138907961160e-02  3.7505427513487136e-02  3.3465349914835366e-02  2.9853880901171356e-02  2.6625919480619781e-02  2.3740989131577166e-02  2.1162862810787192e-02  1.8859182154875451e-02  1.6801049556865295e-02  1.4962689066126982e-02  1.3321091645787049e-02  1.1855734789778338e-02  1.0548306506416021e-02  9.3824790916180872e-03  8.3437008884498735e-03  7.4190180074760201e-03  6.5969105835661365e-03  5.8671567252459398e-03  5.2206992301508754e-03  4.6495405896564241e-03  4.1466361487771239e-03  3.7058083533722413e-03  3.3216638946496771e-03  2.9895249111284192e-03  2.7053638591602596e-03  2.4657526358422867e-03  2.2678095566104231e-03  2.1091698047112522e-03  1.9879264085186600e-03  1.9026217221807529e-03  1.8521922099968223e-03  1.8359869858205903e-03  6.0746508269128907e-01  6.0698189964620319e-01  6.0525534405490800e-01  6.0233258916657506e-01  5.9832954887803813e-01  5.9340636145695669e-01  5.8774066240231748e-01  5.8150827601818622e-01  5.7489033636605369e-01  5.6807915782307716e-01  5.6125330403180451e-01  5.5456962194287562e-01  5.4820467272608975e-01  5.4237728205604185e-01  5.3728736422764256e-01  5.3303571992598164e-01  5.2962672048791437e-01  5.2698674662101608e-01  5.2496696429221346e-01  5.2333300183383180e-01  5.2175909883467553e-01  5.1985722363048625e-01  5.1724321538364060e-01  5.1361459020304201e-01  5.0880551460063683e-01  5.0274586565055279e-01  4.9549446201424002e-01  4.8723680562848726e-01  4.7824789471185808e-01  4.6885416383060657e-01  4.5939388172866191e-01  4.5018937591247776e-01  4.4151847096610009e-01  4.3356570324403099e-01  4.2635655704522057e-01  4.1978357447482195e-01  4.1373980761404539e-01  4.0818620524819732e-01  4.0309321975491191e-01  3.9842244307268582e-01  3.9408236961194898e-01  3.8988486382462384e-01  3.8553612822668798e-01  3.8068396140812932e-01  3.7495570262271749e-01  3.6797860780847391e-01  3.5940098778606361e-01  3.4893539131119294e-01  3.3644627287621348e-01  3.2199628106571027e-01  3.0581329846558825e-01  2.8825691285696470e-01  2.6975803450957792e-01  2.5073691990071567e-01  2.3158754578269522e-01  2.1266898581167254e-01  1.9427794780846366e-01  1.7666572668978578e-01  1.6001892877792501e-01  1.4446330388635081e-01  1.3006648449307071e-01  1.1684629664551950e-01  1.0478507022053429e-01  9.3839959966649455e-02  8.3950556550121472e-02  7.5045246356038653e-02  6.7046603096598489e-02  5.9875661373420437e-02  5.3455087623357656e-02  4.7711290895613379e-02  4.2575664922161416e-02  3.7985228232202746e-02  3.3882772053198021e-02  3.0216733093804512e-02  2.6940862637714592e-02  2.4013812653508788e-02  2.1398669673251203e-02  1.9062511381196440e-02  1.6975965073185603e-02  1.5112840778078708e-02  1.3449770906726159e-02  1.1965920967917855e-02  1.0642714242576861e-02  9.4636052871717394e-03  8.4138698861513980e-03  7.4804270357109459e-03  6.6516723355180265e-03  5.9173409420855061e-03  5.2683684810544210e-03  4.6967854535940436e-03  4.1956038471688325e-03  3.7587314548198770e-03  3.3808844039160792e-03  3.0575185125569968e-03  2.7847633047684414e-03  2.5593713262107827e-03  2.3786672075724840e-03  2.2405146867519135e-03  2.1432742042365878e-03  2.0857892312173202e-03  2.0673795870551179e-03  5.4161136696204726e-01  5.4121702019146178e-01  5.3941592278251183e-01  5.3626442069280023e-01  5.3190552941986802e-01  5.2654774531293869e-01  5.2041468263833557e-01  5.1370946287003583e-01  5.0663668207915813e-01  4.9943076293702715e-01  4.9231052610822629e-01  4.8543226642354059e-01  4.7896104935197342e-01  4.7312232819624983e-01  4.6815226668241716e-01  4.6417181824812759e-01  4.6119638283411823e-01  4.5917115247331286e-01  4.5797991798143822e-01  4.5742538899050428e-01  4.5720270362485660e-01  4.5692127653488290e-01  4.5619518990862001e-01  4.5470926554253360e-01  4.5226864261743227e-01  4.4878057259924037e-01  4.4425614481262626e-01  4.3881593946787051e-01  4.3266679661280461e-01  4.2606991121658144e-01  4.1931017323132447e-01  4.1267190314023799e-01  4.0641569641198866e-01  4.0073341177168620e-01  3.9570884979501625e-01  3.9132606102331019e-01  3.8756348494779364e-01  3.8443421290041696e-01  3.8194918935598993e-01  3.8009213789863522e-01  3.7879927012437770e-01  3.7791179971237238e-01  3.7713891851304038e-01  3.7611558407308943e-01  3.7444729883443889e-01  3.7168559193164030e-01  3.6735323763825523e-01  3.6102931575651898e-01  3.5243891866075983e-01  3.4152382937806680e-01  3.2838905641838617e-01  3.1327049305384230e-01  2.9649997716586712e-01  2.7845625872834873e-01  2.5954867733224651e-01  2.4019728614929434e-01  2.2080351667111395e-01  2.0177040758953729e-01  1.8343551900220353e-01  1.6605506272467407e-01  1.4979695911647842e-01  1.3474737671008019e-01  1.2093705663499145e-01  1.0835436098551396e-01  9.6955582457147291e-02  8.6674702185238151e-02  7.7432262078042602e-02  6.9142665562830968e-02  6.1719471768230609e-02  5.5078993017954395e-02  4.9142445111249204e-02  4.3837087113259156e-02  3.9096683690657830e-02  3.4861448738446175e-02  3.1077751784676279e-02  2.7697641583510981e-02  2.4678315171803765e-02  2.1981590703878336e-02  1.9573416455319459e-02  1.7423412069932944e-02  1.5504490287779055e-02  1.3792488773073012e-02  1.2265881747520871e-02  1.0905500124292285e-02  9.6943013710695750e-03  8.6171538195330740e-03  7.6606538422996327e-03  6.8129506061254458e-03  6.0636028410110962e-03  5.4034307094831769e-03  4.8244044793387224e-03  4.3195227345671312e-03  3.8827237956596413e-03  3.5087945439434272e-03  3.1932995893774979e-03  2.9325160517085246e-03  2.7233834793399378e-03  2.5634547817209039e-03  2.4508718829035171e-03  2.3843251616482517e-03  2.3630716256510340e-03  4.6649498163753733e-01  4.6622782569099169e-01  4.6448424409123101e-01  4.6133088025017305e-01  4.5692557369600673e-01  4.5151085982343792e-01  4.4534573875407923e-01  4.3865433324878195e-01  4.3164774706969361e-01  4.2457783672409649e-01  4.1770338757513636e-01  4.1119180849643155e-01  4.0518521468004293e-01  3.9986761177896102e-01  3.9544001834772663e-01  3.9202911185973871e-01  3.8966887150406654e-01  3.8833319942139272e-01  3.8794850981245632e-01  3.8837936932818840e-01  3.8939272954332599e-01  3.9064864175219033e-01  3.9179511052828608e-01  3.9252032345139914e-01  3.9258405317086215e-01  3.9183216253463465e-01  3.9020695015686391e-01  3.8775167883389067e-01  3.8459721131273927e-01  3.8093976613629060e-01  3.7701414648202908e-01  3.7307135617338710e-01  3.6935406783838426e-01  3.6605983185890667e-01  3.6332127338458298e-01  3.6120150902321929e-01  3.5974508915628911e-01  3.5900436301273791e-01  3.5902487052530691e-01  3.5983019500314650e-01  3.6140288330753478e-01  3.6364108678455770e-01  3.6630352014731954e-01  3.6903388542744414e-01  3.7143985586806244e-01  3.7302972047698740e-01  3.7320265184978801e-01  3.7138514533473144e-01  3.6713885423154058e-01  3.6027878045274531e-01  3.5080277367727836e-01  3.3883486892255976e-01  3.2459757348099350e-01  3.0838312701464254e-01  2.9055112163558638e-01  2.7150812343537306e-01  2.5169059919110964e-01  2.3159466725987377e-01  2.1171081211391804e-01  1.9246087866868844e-01  1.7416325386234993e-01  1.5701524260382285e-01  1.4113590203813323e-01  1.2657532169957464e-01  1.1332703291620130e-01  1.0134325157843940e-01  9.0549529714469043e-02  8.0856981146737450e-02  7.2171223596877901e-02  6.4398208362545561e-02  5.7447907006146826e-02  5.1236356936424567e-02  4.5686601963800581e-02  4.0728948170078598e-02  3.6300707342787078e-02  3.2345731950600198e-02  2.8813831582375157e-02  2.5660173195902934e-02  2.2844728472216788e-02  2.0331771497163396e-02  1.8089415268753645e-02  1.6089235297385967e-02  1.4305897008940256e-02  1.2716864223103756e-02  1.1302109985569273e-02  1.0043878506683311e-02  8.9264564050218643e-03  7.9359790536145964e-03  7.0602401875349639e-03  6.2885373755870591e-03  5.6115096400775983e-03  5.0210171417238228e-03  4.5100113619787373e-03  4.0724400160064593e-03  3.7031549184912858e-03  3.3978384633890483e-03  3.1529397318215959e-03  2.9656310781675087e-03  2.8337565574910323e-03  2.7558197631003807e-03  2.7309648361093330e-03  3.8862979661115482e-01  3.8838676238342684e-01  3.8680667456999029e-01  3.8394869800908749e-01  3.7994846419193973e-01  3.7502978545941429e-01  3.6943900847085520e-01  3.6340242445197246e-01  3.5713031874802581e-01  3.5085189127372390e-01  3.4480389106736653e-01  3.3916283694312371e-01  3.3406278365245590e-01  3.2964667195332953e-01  3.2606192728322153e-01  3.2341556354319184e-01  3.2175579997019671e-01  3.2108411684395582e-01  3.2136373019749787e-01  3.2251193957528357e-01  3.2437951714150370e-01  3.26739287557