<?xml version="1.0"?>
<VTKFile type="UnstructuredGrid"  version="0.1"  >
<UnstructuredGrid>
<Piece  NumberOfPoints="5151" NumberOfCells="10000">
<Points>
<DataArray  type="Float64"  NumberOfComponents="3"  format="ascii">0 0 0  0.01 0 0  0.02 0 0  0.03 0 0  0.04 0 0  0.05 0 0  0.06 0 0  0.07000000000000001 0 0  0.08 0 0  0.09 0 0  0.1 0 0  0.11 0 0  0.12 0 0  0.13 0 0  0.14 0 0  0.15 0 0  0.16 0 0  0.17 0 0  0.18 0 0  0.19 0 0  0.2 0 0  0.21 0 0  0.22 0 0  0.23 0 0  0.24 0 0  0.25 0 0  0.26 0 0  0.27 0 0  0.28 0 0  0.29 0 0  0.3 0 0  0.31 0 0  0.32 0 0  0.33 0 0  0.34 0 0  0.35 0 0  0.36 0 0  0.37 0 0  0.38 0 0  0.39 0 0  0.4 0 0  0.41 0 0  0.42 0 0  0.43 0 0  0.44 0 0  0.45 0 0  0.46 0 0  0.47 0 0  0.48 0 0  0.49 0 0  0.5 0 0  0.51 0 0  0.52 0 0  0.53 0 0  0.54 0 0  0.55 0 0  0.5600000000000001 0 0  0.57 0 0  0.58 0 0  0.59 0 0  0.6 0 0  0.61 0 0  0.62 0 0  0.63 0 0  0.64 0 0  0.65 0 0  0.66 0 0  0.67 0 0  0.68 0 0  0.6899999999999999 0 0  0.7 0 0  0.71 0 0  0.72 0 0  0.73 0 0  0.74 0 0  0.75 0 0  0.76 0 0  0.77 0 0  0.78 0 0  0.79 0 0  0.8 0 0  0.8100000000000001 0 0  0.82 0 0  0.83 0 0  0.84 0 0  0.85 0 0  0.86 0 0  0.87 0 0  0.88 0 0  0.89 0 0  0.9 0 0  0.91 0 0  0.92 0 0  0.93 0 0  0.9399999999999999 0 0  0.95 0 0  0.96 0 0  0.97 0 0  0.98 0 0  0.99 0 0  1 0 0  0 0.01 0  0.01 0.01 0  0.02 0.01 0  0.03 0.01 0  0.04 0.01 0  0.05 0.01 0  0.06 0.01 0  0.07000000000000001 0.01 0  0.08 0.01 0  0.09 0.01 0  0.1 0.01 0  0.11 0.01 0  0.12 0.01 0  0.13 0.01 0  0.14 0.01 0  0.15 0.01 0  0.16 0.01 0  0.17 0.01 0  0.18 0.01 0  0.19 0.01 0  0.2 0.01 0  0.21 0.01 0  0.22 0.01 0  0.23 0.01 0  0.24 0.01 0  0.25 0.01 0  0.26 0.01 0  0.27 0.01 0  0.28 0.01 0  0.29 0.01 0  0.3 0.01 0  0.31 0.01 0  0.32 0.01 0  0.33 0.01 0  0.34 0.01 0  0.35 0.01 0  0.36 0.01 0  0.37 0.01 0  0.38 0.01 0  0.39 0.01 0  0.4 0.01 0  0.41 0.01 0  0.42 0.01 0  0.43 0.01 0  0.44 0.01 0  0.45 0.01 0  0.46 0.01 0  0.47 0.01 0  0.48 0.01 0  0.49 0.01 0  0.5 0.01 0  0.51 0.01 0  0.52 0.01 0  0.53 0.01 0  0.54 0.01 0  0.55 0.01 0  0.5600000000000001 0.01 0  0.57 0.01 0  0.58 0.01 0  0.59 0.01 0  0.6 0.01 0  0.61 0.01 0  0.62 0.01 0  0.63 0.01 0  0.64 0.01 0  0.65 0.01 0  0.66 0.01 0  0.67 0.01 0  0.68 0.01 0  0.6899999999999999 0.01 0  0.7 0.01 0  0.71 0.01 0  0.72 0.01 0  0.73 0.01 0  0.74 0.01 0  0.75 0.01 0  0.76 0.01 0  0.77 0.01 0  0.78 0.01 0  0.79 0.01 0  0.8 0.01 0  0.8100000000000001 0.01 0  0.82 0.01 0  0.83 0.01 0  0.84 0.01 0  0.85 0.01 0  0.86 0.01 0  0.87 0.01 0  0.88 0.01 0  0.89 0.01 0  0.9 0.01 0  0.91 0.01 0  0.92 0.01 0  0.93 0.01 0  0.9399999999999999 0.01 0  0.95 0.01 0  0.96 0.01 0  0.97 0.01 0  0.98 0.01 0  0.99 0.01 0  1 0.01 0  0 0.02 0  0.01 0.02 0  0.02 0.02 0  0.03 0.02 0  0.04 0.02 0  0.05 0.02 0  0.06 0.02 0  0.07000000000000001 0.02 0  0.08 0.02 0  0.09 0.02 0  0.1 0.02 0  0.11 0.02 0  0.12 0.02 0  0.13 0.02 0  0.14 0.02 0  0.15 0.02 0  0.16 0.02 0  0.17 0.02 0  0.18 0.02 0  0.19 0.02 0  0.2 0.02 0  0.21 0.02 0  0.22 0.02 0  0.23 0.02 0  0.24 0.02 0  0.25 0.02 0  0.26 0.02 0  0.27 0.02 0  0.28 0.02 0  0.29 0.02 0  0.3 0.02 0  0.31 0.02 0  0.32 0.02 0  0.33 0.02 0  0.34 0.02 0  0.35 0.02 0  0.36 0.02 0  0.37 0.02 0  0.38 0.02 0  0.39 0.02 0  0.4 0.02 0  0.41 0.02 0  0.42 0.02 0  0.43 0.02 0  0.44 0.02 0  0.45 0.02 0  0.46 0.02 0  0.47 0.02 0  0.48 0.02 0  0.49 0.02 0  0.5 0.02 0  0.51 0.02 0  0.52 0.02 0  0.53 0.02 0  0.54 0.02 0  0.55 0.02 0  0.5600000000000001 0.02 0  0.57 0.02 0  0.58 0.02 0  0.59 0.02 0  0.6 0.02 0  0.61 0.02 0  0.62 0.02 0  0.63 0.02 0  0.64 0.02 0  0.65 0.02 0  0.66 0.02 0  0.67 0.02 0  0.68 0.02 0  0.6899999999999999 0.02 0  0.7 0.02 0  0.71 0.02 0  0.72 0.02 0  0.73 0.02 0  0.74 0.02 0  0.75 0.02 0  0.76 0.02 0  0.77 0.02 0  0.78 0.02 0  0.79 0.02 0  0.8 0.02 0  0.8100000000000001 0.02 0  0.82 0.02 0  0.83 0.02 0  0.84 0.02 0  0.85 0.02 0  0.86 0.02 0  0.87 0.02 0  0.88 0.02 0  0.89 0.02 0  0.9 0.02 0  0.91 0.02 0  0.92 0.02 0  0.93 0.02 0  0.9399999999999999 0.02 0  0.95 0.02 0  0.96 0.02 0  0.97 0.02 0  0.98 0.02 0  0.99 0.02 0  1 0.02 0  0 0.03 0  0.01 0.03 0  0.02 0.03 0  0.03 0.03 0  0.04 0.03 0  0.05 0.03 0  0.06 0.03 0  0.07000000000000001 0.03 0  0.08 0.03 0  0.09 0.03 0  0.1 0.03 0  0.11 0.03 0  0.12 0.03 0  0.13 0.03 0  0.14 0.03 0  0.15 0.03 0  0.16 0.03 0  0.17 0.03 0  0.18 0.03 0  0.19 0.03 0  0.2 0.03 0  0.21 0.03 0  0.22 0.03 0  0.23 0.03 0  0.24 0.03 0  0.25 0.03 0  0.26 0.03 0  0.27 0.03 0  0.28 0.03 0  0.29 0.03 0  0.3 0.03 0  0.31 0.03 0  0.32 0.03 0  0.33 0.03 0  0.34 0.03 0  0.35 0.03 0  0.36 0.03 0  0.37 0.03 0  0.38 0.03 0  0.39 0.03 0  0.4 0.03 0  0.41 0.03 0  0.42 0.03 0  0.43 0.03 0  0.44 0.03 0  0.45 0.03 0  0.46 0.03 0  0.47 0.03 0  0.48 0.03 0  0.49 0.03 0  0.5 0.03 0  0.51 0.03 0  0.52 0.03 0  0.53 0.03 0  0.54 0.03 0  0.55 0.03 0  0.5600000000000001 0.03 0  0.57 0.03 0  0.58 0.03 0  0.59 0.03 0  0.6 0.03 0  0.61 0.03 0  0.62 0.03 0  0.63 0.03 0  0.64 0.03 0  0.65 0.03 0  0.66 0.03 0  0.67 0.03 0  0.68 0.03 0  0.6899999999999999 0.03 0  0.7 0.03 0  0.71 0.03 0  0.72 0.03 0  0.73 0.03 0  0.74 0.03 0  0.75 0.03 0  0.76 0.03 0  0.77 0.03 0  0.78 0.03 0  0.79 0.03 0  0.8 0.03 0  0.8100000000000001 0.03 0  0.82 0.03 0  0.83 0.03 0  0.84 0.03 0  0.85 0.03 0  0.86 0.03 0  0.87 0.03 0  0.88 0.03 0  0.89 0.03 0  0.9 0.03 0  0.91 0.03 0  0.92 0.03 0  0.93 0.03 0  0.9399999999999999 0.03 0  0.95 0.03 0  0.96 0.03 0  0.97 0.03 0  0.98 0.03 0  0.99 0.03 0  1 0.03 0  0 0.04 0  0.01 0.04 0  0.02 0.04 0  0.03 0.04 0  0.04 0.04 0  0.05 0.04 0  0.06 0.04 0  0.07000000000000001 0.04 0  0.08 0.04 0  0.09 0.04 0  0.1 0.04 0  0.11 0.04 0  0.12 0.04 0  0.13 0.04 0  0.14 0.04 0  0.15 0.04 0  0.16 0.04 0  0.17 0.04 0  0.18 0.04 0  0.19 0.04 0  0.2 0.04 0  0.21 0.04 0  0.22 0.04 0  0.23 0.04 0  0.24 0.04 0  0.25 0.04 0  0.26 0.04 0  0.27 0.04 0  0.28 0.04 0  0.29 0.04 0  0.3 0.04 0  0.31 0.04 0  0.32 0.04 0  0.33 0.04 0  0.34 0.04 0  0.35 0.04 0  0.36 0.04 0  0.37 0.04 0  0.38 0.04 0  0.39 0.04 0  0.4 0.04 0  0.41 0.04 0  0.42 0.04 0  0.43 0.04 0  0.44 0.04 0  0.45 0.04 0  0.46 0.04 0  0.47 0.04 0  0.48 0.04 0  0.49 0.04 0  0.5 0.04 0  0.51 0.04 0  0.52 0.04 0  0.53 0.04 0  0.54 0.04 0  0.55 0.04 0  0.5600000000000001 0.04 0  0.57 0.04 0  0.58 0.04 0  0.59 0.04 0  0.6 0.04 0  0.61 0.04 0  0.62 0.04 0  0.63 0.04 0  0.64 0.04 0  0.65 0.04 0  0.66 0.04 0  0.67 0.04 0  0.68 0.04 0  0.6899999999999999 0.04 0  0.7 0.04 0  0.71 0.04 0  0.72 0.04 0  0.73 0.04 0  0.74 0.04 0  0.75 0.04 0  0.76 0.04 0  0.77 0.04 0  0.78 0.04 0  0.79 0.04 0  0.8 0.04 0  0.8100000000000001 0.04 0  0.82 0.04 0  0.83 0.04 0  0.84 0.04 0  0.85 0.04 0  0.86 0.04 0  0.87 0.04 0  0.88 0.04 0  0.89 0.04 0  0.9 0.04 0  0.91 0.04 0  0.92 0.04 0  0.93 0.04 0  0.9399999999999999 0.04 0  0.95 0.04 0  0.96 0.04 0  0.97 0.04 0  0.98 0.04 0  0.99 0.04 0  1 0.04 0  0 0.05 0  0.01 0.05 0  0.02 0.05 0  0.03 0.05 0  0.04 0.05 0  0.05 0.05 0  0.06 0.05 0  0.07000000000000001 0.05 0  0.08 0.05 0  0.09 0.05 0  0.1 0.05 0  0.11 0.05 0  0.12 0.05 0  0.13 0.05 0  0.14 0.05 0  0.15 0.05 0  0.16 0.05 0  0.17 0.05 0  0.18 0.05 0  0.19 0.05 0  0.2 0.05 0  0.21 0.05 0  0.22 0.05 0  0.23 0.05 0  0.24 0.05 0  0.25 0.05 0  0.26 0.05 0  0.27 0.05 0  0.28 0.05 0  0.29 0.05 0  0.3 0.05 0  0.31 0.05 0  0.32 0.05 0  0.33 0.05 0  0.34 0.05 0  0.35 0.05 0  0.36 0.05 0  0.37 0.05 0  0.38 0.05 0  0.39 0.05 0  0.4 0.05 0  0.41 0.05 0  0.42 0.05 0  0.43 0.05 0  0.44 0.05 0  0.45 0.05 0  0.46 0.05 0  0.47 0.05 0  0.48 0.05 0  0.49 0.05 0  0.5 0.05 0  0.51 0.05 0  0.52 0.05 0  0.53 0.05 0  0.54 0.05 0  0.55 0.05 0  0.5600000000000001 0.05 0  0.57 0.05 0  0.58 0.05 0  0.59 0.05 0  0.6 0.05 0  0.61 0.05 0  0.62 0.05 0  0.63 0.05 0  0.64 0.05 0  0.65 0.05 0  0.66 0.05 0  0.67 0.05 0  0.68 0.05 0  0.6899999999999999 0.05 0  0.7 0.05 0  0.71 0.05 0  0.72 0.05 0  0.73 0.05 0  0.74 0.05 0  0.75 0.05 0  0.76 0.05 0  0.77 0.05 0  0.78 0.05 0  0.79 0.05 0  0.8 0.05 0  0.8100000000000001 0.05 0  0.82 0.05 0  0.83 0.05 0  0.84 0.05 0  0.85 0.05 0  0.86 0.05 0  0.87 0.05 0  0.88 0.05 0  0.89 0.05 0  0.9 0.05 0  0.91 0.05 0  0.92 0.05 0  0.93 0.05 0  0.9399999999999999 0.05 0  0.95 0.05 0  0.96 0.05 0  0.97 0.05 0  0.98 0.05 0  0.99 0.05 0  1 0.05 0  0 0.06 0  0.01 0.06 0  0.02 0.06 0  0.03 0.06 0  0.04 0.06 0  0.05 0.06 0  0.06 0.06 0  0.07000000000000001 0.06 0  0.08 0.06 0  0.09 0.06 0  0.1 0.06 0  0.11 0.06 0  0.12 0.06 0  0.13 0.06 0  0.14 0.06 0  0.15 0.06 0  0.16 0.06 0  0.17 0.06 0  0.18 0.06 0  0.19 0.06 0  0.2 0.06 0  0.21 0.06 0  0.22 0.06 0  0.23 0.06 0  0.24 0.06 0  0.25 0.06 0  0.26 0.06 0  0.27 0.06 0  0.28 0.06 0  0.29 0.06 0  0.3 0.06 0  0.31 0.06 0  0.32 0.06 0  0.33 0.06 0  0.34 0.06 0  0.35 0.06 0  0.36 0.06 0  0.37 0.06 0  0.38 0.06 0  0.39 0.06 0  0.4 0.06 0  0.41 0.06 0  0.42 0.06 0  0.43 0.06 0  0.44 0.06 0  0.45 0.06 0  0.46 0.06 0  0.47 0.06 0  0.48 0.06 0  0.49 0.06 0  0.5 0.06 0  0.51 0.06 0  0.52 0.06 0  0.53 0.06 0  0.54 0.06 0  0.55 0.06 0  0.5600000000000001 0.06 0  0.57 0.06 0  0.58 0.06 0  0.59 0.06 0  0.6 0.06 0  0.61 0.06 0  0.62 0.06 0  0.63 0.06 0  0.64 0.06 0  0.65 0.06 0  0.66 0.06 0  0.67 0.06 0  0.68 0.06 0  0.6899999999999999 0.06 0  0.7 0.06 0  0.71 0.06 0  0.72 0.06 0  0.73 0.06 0  0.74 0.06 0  0.75 0.06 0  0.76 0.06 0  0.77 0.06 0  0.78 0.06 0  0.79 0.06 0  0.8 0.06 0  0.8100000000000001 0.06 0  0.82 0.06 0  0.83 0.06 0  0.84 0.06 0  0.85 0.06 0  0.86 0.06 0  0.87 0.06 0  0.88 0.06 0  0.89 0.06 0  0.9 0.06 0  0.91 0.06 0  0.92 0.06 0  0.93 0.06 0  0.9399999999999999 0.06 0  0.95 0.06 0  0.96 0.06 0  0.97 0.06 0  0.98 0.06 0  0.99 0.06 0  1 0.06 0  0 0.07000000000000001 0  0.01 0.07000000000000001 0  0.02 0.07000000000000001 0  0.03 0.07000000000000001 0  0.04 0.07000000000000001 0  0.05 0.07000000000000001 0  0.06 0.07000000000000001 0  0.07000000000000001 0.07000000000000001 0  0.08 0.07000000000000001 0  0.09 0.07000000000000001 0  0.1 0.07000000000000001 0  0.11 0.07000000000000001 0  0.12 0.07000000000000001 0  0.13 0.07000000000000001 0  0.14 0.07000000000000001 0  0.15 0.07000000000000001 0  0.16 0.07000000000000001 0  0.17 0.07000
[...]
<PointData  Scalars="rho_bar"> 
<DataArray  type="Float64"  Name="rho_bar"  format="ascii">9.9151525670538621e-01  9.9591743698043844e-01  9.9482731546909875e-01  9.9654421368217216e-01  9.9839629570907340e-01  1.0004995112183181e+00  1.0022120880022403e+00  1.0032370248485656e+00  1.0034141069784417e+00  1.0026850200259221e+00  1.0010781656404089e+00  9.9877298407330239e-01  9.9640070423903793e-01  9.9492385552896501e-01  9.9479851500710326e-01  9.9566357885875501e-01  9.9688496421091310e-01  9.9800917427097258e-01  9.9889569463690997e-01  9.9962939320440625e-01  1.0002906011512507e+00  1.0008535888999381e+00  1.0012582149902336e+00  1.0014796701080551e+00  1.0015282959298570e+00  1.0014225935307874e+00  1.0011774911680698e+00  1.0008349846645483e+00  1.0004520713886189e+00  1.0000461967203815e+00  9.9971765058519990e-01  9.9968047166070984e-01  9.9989792496181962e-01  1.0000365389567285e+00  1.0000433881386812e+00  1.0001113771334975e+00  9.9830411048438106e-01  1.0118765948560291e+00  9.4122018325735679e-01  1.2081900984321874e+00  1.5581039885571971e-01  -4.5940830039367733e-03  -1.1990039935536757e-03  2.4245778257087080e-04  3.2638335408058845e-05  -1.0264923622142137e-04  4.4081754078968220e-05  1.2522127637304156e-05  -2.7142637345853370e-06  -4.0665571162149346e-06  1.0076961674063026e-07  8.3166413161587408e-07  -1.0037825395545056e-07  -1.3409411740829006e-07  5.0610715122260697e-08  7.1596278495852564e-09  -1.0822687541746343e-08  3.1753398276447391e-09  2.9603521223826022e-10  -6.1936950371791469e-10  2.6272595471175961e-10  -4.6754899992408412e-11  -1.1839878547331934e-11  1.2995752076207309e-11  -5.8179453436368449e-12  1.6918834774188115e-12  -2.6567388517161440e-13  -4.6996157958266556e-14  5.8804194488207853e-14  -2.9664745020533217e-14  1.1236313469794376e-14  -3.5463096620688720e-15  9.5350246331689363e-16  -2.1184182421053515e-16  3.3001260238947510e-17  3.8363598303391422e-19  -3.1606181699489101e-18  1.7622610745339006e-18  -7.2562964838430945e-19  2.5984665726744010e-19  -8.5274532513519559e-20  2.6219276731243757e-20  -7.6194319764030797e-21  2.0925309683690293e-21  -5.3804009369284089e-22  1.2641664112439941e-22  -2.5530362155855930e-23  3.5659939348033591e-24  2.0211151519036777e-25  -4.3291043596020967e-25  2.3198896155907737e-25  -9.5503774954836245e-26  3.4569632824125448e-26  -1.1484219551444753e-26  3.5722241943940765e-27  -1.0474459920011942e-27  2.8148743583733189e-28  -7.7420205435166364e-29  1.3109021755960630e-29  -4.5412096326268883e-30  6.7441838254080484e-31  1.0214000286949201e+00  1.0083100000993304e+00  1.0107651374579296e+00  1.0085205022341026e+00  1.0052329525752530e+00  1.0010534070142905e+00  9.9713982049561944e-01  9.9435008294499705e-01  9.9311850301335192e-01  9.9366953219371013e-01  9.9602012381866567e-01  1.0000078505495122e+00  1.0049267950554031e+00  1.0090176370125683e+00  1.0106079096218414e+00  1.0097008606981881e+00  1.0074655440935005e+00  1.0050425682314374e+00  1.0030392402213884e+00  1.0014542044502490e+00  1.0000643623654057e+00  9.9882228227636682e-01  9.9784250708538824e-01  9.9721619683359197e-01  9.9695152412302701e-01  9.9701244801391931e-01  9.9736687265552681e-01  9.9797186145979710e-01  9.9870840118148296e-01  9.9949479262395180e-01  1.0002817553579391e+00  1.0007019581082217e+00  1.0004488387088846e+00  9.9999888074105114e-01  9.9992084546256266e-01  9.9987503148472390e-01  1.0006170860181776e+00  9.9847658115329729e-01  9.9613077950436724e-01  1.0697876846474190e+00  3.9948525835719140e-01  -5.5852952590646140e-02  5.4969774532202757e-03  3.2900517149175911e-04  -4.7259964685488572e-04  3.0479534754779334e-04  -3.5206984664593617e-05  -5.1974670664015304e-05  -6.2754516687964175e-06  1.0190458454254281e-05  3.3159601085465042e-06  -2.0008224322320494e-06  -4.9436563528796319e-07  4.4671539253257470e-07  -1.9549270143778696e-08  -6.8815630158513382e-08  2.7442732830897006e-08  -1.4215404427303917e-10  -4.1205392739071688e-09  1.9544484752289743e-09  -3.7572054755023931e-10  -7.9395114729878261e-11  9.4216776624889676e-11  -4.1817567024793287e-11  1.1659222741655732e-11  -1.5492044875582541e-12  -4.8463633029395445e-13  4.5921432607852527e-13  -2.1479100686202208e-13  7.6708874886799106e-14  -2.2734893804200079e-14  5.6314807361179804e-15  -1.0874597164669947e-15  1.0602806965601674e-16  3.6245541197668372e-17  -2.9520227800760288e-17  1.3448998817159237e-17  -5.0400928360964086e-18  1.6964335216613140e-18  -5.3059844240905521e-19  1.5651056105564895e-19  -4.3719930514432143e-20  1.1509082565662595e-20  -2.8066904862596146e-21  6.0783361620048457e-22  -1.0318713986867574e-22  5.7224444198258457e-24  5.8773245181405647e-24  -3.9111810022178595e-24  1.7383047072251797e-24  -6.5662363771927210e-25  2.2486385849956258e-25  -7.1631830826655157e-26  2.1416929607419268e-26  -6.0351994623449386e-27  1.5843596508856173e-27  -3.6887748999773855e-28  8.6848281203922867e-29  -1.8858936950699379e-30  3.5395359610846711e-30  3.1923728675452795e-30  9.2546247924929070e-01  9.6899443402042695e-01  9.6153706639074832e-01  9.6628347317862628e-01  9.7520563958581874e-01  9.8885584277227023e-01  1.0035160726770840e+00  1.0154730885079646e+00  1.0226413664039957e+00  1.0238814521228214e+00  1.0187611796944371e+00  1.0075829356874426e+00  9.9149674695953471e-01  9.7469125510858701e-01  9.6431150048360192e-01  9.6358192406656773e-01  9.6966754673507505e-01  9.7824206419923276e-01  9.8610090412641782e-01  9.9226057840972637e-01  9.9738472422479374e-01  1.0020321846532170e+00  1.0059828121489616e+00  1.0088117153602891e+00  1.0103590991485232e+00  1.0106950915025719e+00  1.0099609011215231e+00  1.0082534483392589e+00  1.0058276205787422e+00  1.0031682543430813e+00  1.0003745603504490e+00  9.9797430631228434e-01  9.9768522658802861e-01  9.9934250406657743e-01  1.0003600618927770e+00  1.0001610240311705e+00  9.9989608567010224e-01  9.9963427033953367e-01  1.0025769448170732e+00  9.9909458892456038e-01  8.5122608225093543e-01  -1.3480875635757070e-01  3.7802972475430928e-02  -9.0294797269581412e-03  2.9918130118247563e-03  -1.0650193925875197e-03  -1.8593130776160561e-04  2.0292028455020663e-04  9.3806320588553130e-05  -2.4177258648372921e-05  -2.7225179039003879e-05  3.1055699962221166e-06  5.1453364072908662e-06  -1.3563214248625538e-06  -5.7558365096000335e-07  3.9846291261092327e-07  -5.1232937083525300e-08  -4.0802616006909150e-08  2.5980694429659121e-08  -6.5411282570550400e-09  -3.6596848138174507e-10  1.1018819551902408e-09  -5.5997855060497241e-10  1.7448535115004624e-10  -3.0611821896707214e-11  -3.1545497734461210e-12  5.4012521536519090e-12  -2.8296536026556494e-12  1.0864650264703536e-12  -3.4545022279349035e-13  9.3583424671241939e-14  -2.1085985918219650e-14  3.4294512144533209e-15  -4.9394522673367769e-17  -2.7722035909976567e-16  1.6207983403008659e-16  -6.8037903462333810e-17  2.4681213383150037e-17  -8.1877316099771133e-18  2.5431903323650983e-18  -7.4676076951085974e-19  2.0744365134653214e-19  -5.4088456098975568e-20  1.2960736950850921e-20  -2.7106092071222539e-21  4.1899426137144554e-22  -1.8040302112595895e-24  -3.6107099925703863e-23  2.0996257620305052e-23  -8.9129062823573593e-24  3.2816815997132450e-24  -1.1041868647212214e-24  3.4677399566553127e-25  -1.0232965668187124e-25  2.8409696053675284e-26  -7.2877931808597694e-27  1.6609340254958559e-27  -3.5291846143510151e-28  -1.4750724977930451e-30  -1.3286198817589072e-29  -1.7825308244728038e-29  1.2322425903417742e+00  1.1272971788906290e+00  1.1413194212750275e+00  1.1341572294293576e+00  1.1106714411428309e+00  1.0668053163649618e+00  1.0109077271184530e+00  9.5845373271316803e-01  9.2018414724970654e-01  9.0267447563177605e-01  9.0997303374355487e-01  9.4215289201402519e-01  9.9574353011510308e-01  1.0617798072620290e+00  1.1170050310731028e+00  1.1376431564923370e+00  1.1258573913057333e+00  1.0968227862082949e+00  1.0652996296427630e+00  1.0394399110055608e+00  1.0189826358113736e+00  1.0008797288971238e+00  9.8466340597931024e-01  9.7192576332182323e-01  9.6380035606510739e-01  9.6036881364704729e-01  9.6117567583330454e-01  9.6573048398441497e-01  9.7362124068403499e-01  9.8331088332855865e-01  9.9327411082676420e-01  1.0035593597595096e+00  1.0095512686555932e+00  1.0058697445320401e+00  9.9958220918375096e-01  9.9883415242425466e-01  1.0001476602046389e+00  1.0001883544206807e+00  1.0004386838402521e+00  9.9071952582303402e-01  1.0720664579155053e+00  3.1829866981360405e-01  -4.6201711629554935e-02  1.6922272531253849e-02  -9.3354544258335247e-03  1.6233012339879685e-03  2.1287618468938284e-03  -4.2066175641940722e-04  -6.1755317175882891e-04  -6.5777638467443158e-05  1.4034504467053469e-04  3.0571300154058098e-05  -2.8440015066114208e-05  -1.6860638544510753e-06  5.3018898973617018e-06  -1.3176955996240455e-06  -3.5790038693234522e-07  3.4901061029417959e-07  -1.0624325038548193e-07  1.9655213896715897e-09  1.3832613003059471e-08  -7.7762837405829341e-09  2.5460547037083216e-09  -4.7737236831378517e-10  -3.1348575684909087e-11  7.3847049971689833e-11  -3.9819199842055298e-11  1.5429731114097815e-11  -4.9141046740707515e-12  1.3259950214812801e-12  -2.9526000388670339e-13  4.6321683488362574e-14  2.8476920334218582e-16  -4.2701170688200824e-15  2.3956849963177135e-15  -9.8732176392952316e-16  3.5337570891419476e-16  -1.1583810656982753e-16  3.5567555362175324e-17  -1.0321910103392677e-17  2.8314254094377975e-18  -7.2740689473086242e-19  1.7080358172029138e-19  -3.4466385475050326e-20  4.7986369966396319e-21  2.8414390393065568e-22  -5.9034271115762444e-22  3.1574442642829024e-22  -1.2989382322107886e-22  4.6970140191387024e-23  -1.5597765422268478e-23  4.8430879015616756e-24  -1.4146625293934128e-24  3.8730304913040992e-25  -9.8293899539154528e-26  2.2071442934758925e-26  -3.9644741173121204e-27  4.2409944574397487e-28  3.1598157866238685e-28  -2.5888870931790993e-29  1.2325280231383173e-28  1.9124518932091511e-01  2.9878225226931132e-01  2.5154004479154063e-01  1.7816158812735633e-01  1.0145063582248093e-01  2.8357317703945298e-02  -3.7192396677451806e-02  -8.7494034674987689e-02  -1.1653426782400307e-01  -1.2823476687049443e-01  -1.2870381289297544e-01  -1.1882318674964922e-01  -9.2474706535979501e-02  -3.9036347138653567e-02  4.5721905211535754e-02  1.6258396818288207e-01  3.1962736956770982e-01  4.9898351984986500e-01  6.6408647129091603e-01  7.9251580983139991e-01  8.8559839419742237e-01  9.6015952701530638e-01  1.0265402623159274e+00  1.0821966450679243e+00  1.1217264967506111e+00  1.1433430432884599e+00  1.1480638039668032e+00  1.1379432681417025e+00  1.1145682448294070e+00  1.0805350495602863e+00  1.0436862066308892e+00  1.0062460784787355e+00  9.7121925921437235e-01  9.6638273439574141e-01  9.9223684217172914e-01  1.0058630710025855e+00  1.0008808065384498e+00  9.9915330376983924e-01  9.9959886891397265e-01  1.0046365367534942e+00  9.7568049443470251e-01  1.0921321937601298e+00  3.1163389403371394e-01  -1.1030004379533637e-01  3.6955156327592047e-02  6.5738327881724188e-03  -1.1032996071945286e-02  -1.6912264783353716e-03  2.6870021279852591e-03  1.2080299723603413e-03  -4.0578504006624912e-04  -3.4967644624785723e-04  7.8463225799665299e-05  5.5040722105232863e-05  -2.5575228745017500e-05  -1.3004460978304327e-06  4.4397509265797961e-06  -1.6708935902476538e-06  1.3300911906109506e-07  1.6829617314519548e-07  -1.0711823027340665e-07  3.6840411344397958e-08  -7.2972900814766416e-09  -2.6728543646184140e-10  1.0023067177760653e-09  -5.5456347457785444e-10  2.1641532194483306e-10  -6.9023606358494816e-11  1.8606925639037697e-11  -4.1348351540070703e-12  6.4721489939995612e-13  3.8952170728700597e-15  -5.9347522072706582e-14  3.3243875136877277e-14  -1.3683683615396622e-14  4.8936273520130889e-15  -1.6036169485981776e-15  4.9248063504460718e-16  -1.4303856982282817e-16  3.9299772549823496e-17  -1.0122751423468529e-17  2.3870864021110474e-18  -4.8555690671964528e-19  6.9253501356250087e-20  3.0703119252455358e-21  -7.9300200776923129e-21  4.3084773143771778e-21  -1.7834996089505626e-21  6.4718071489648778e-22  -2.1542149988429322e-22  6.7008896041370672e-23  -1.9604306918064360e-23  5.3807127253641706e-24  -1.3657156306400903e-24  3.1040942580654433e-25  -5.6100560008588047e-26  4.8083731836855848e-27  2.1097882950481512e-27  -2.3139079949230218e-27  3.7420148206941188e-28  -6.4334136613950205e-28  -1.1913878174714614e-02  -6.5563571336424195e-02  -7.1833502930847878e-02  -5.4615748147524935e-02  -3.5805945822403040e-02  -1.6452244912989786e-02  1.8917066128465530e-03  1.7496985117584709e-02  2.8092369441877919e-02  3.3321961249390866e-02  3.4811821610548285e-02  3.3649527843039491e-02  2.9141832148301173e-02  1.8820510762971490e-02  6.3919126715088908e-04  -2.5279569238753179e-02  -5.9400737105854681e-02  -9.8430614489727758e-02  -1.3143244397033624e-01  -1.4952966359685926e-01  -1.4872511204333028e-01  -1.2594132617726320e-01  -8.1726936722156585e-02  -2.3780344323913991e-02  3.9524029501469653e-02  1.0801428763833880e-01  1.9001174316694810e-01  2.9621664091355071e-01  4.3099086936922248e-01  5.8883000792836027e-01  7.5298533916797961e-01  8.9955367274397846e-01  1.0445810904219401e+00  1.1407013973032905e+00  1.0817662040555396e+00  9.8704016473054845e-01  9.8622945848558619e-01  1.0044811933981812e+00  9.9977868995631292e-01  9.9820080863465177e-01  1.0074345455640765e+00  9.7285420230370867e-01  1.0894654389932328e+00  7.5093345501447362e-01  -2.6785349848594580e-02  -9.2004113016388153e-02  3.4496025805751326e-02  2.3072369232132964e-02  -6.2868454693618923e-03  -8.3137356055697862e-03  -5.3232853440786897e-04  2.0341180762107037e-03  2.2034610269643727e-04  -3.9862101357442375e-04  4.5614763615664537e-05  5.0480506949135094e-05  -2.5526546813065448e-05  3.5349769344006635e-06  1.9265143396227985e-06  -1.4647389964743507e-06  5.3334879782604964e-07  -1.1157413506793414e-07  -1.1091419060468612e-09  1.3549985523845198e-08  -7.7199718767681080e-09  3.0367014251501053e-09  -9.7054109169065722e-10  2.6160839082837305e-10  -5.8099531533317487e-11  9.1007927715664113e-12  4.2187266627913630e-14  -8.2527174368802777e-13  4.6297138432189826e-13  -1.9063179678711084e-13  6.8185099519428255e-14  -2.2346068243436485e-14  6.8632414629645562e-15  -1.9937017034178564e-15  5.4793580922685128e-16  -1.4121424667666041e-16  3.3331287365233431e-17  -6.7911530824019052e-18  9.7292448521690054e-19  4.0680364644254216e-20  -1.1005197423259607e-19  5.9974369880975753e-20  -2.4855819555014865e-20  9.0246741626216366e-21  -3.0047362534625881e-21  9.3472246971130449e-22  -2.7345939831371170e-22  7.5059454098726614e-23  -1.9068543836368384e-23  4.3258646607195386e-24  -7.9533354778673379e-25  6.5684034004884354e-26  3.1923983660809593e-26  -2.4890419866830026e-26  1.3277599579346691e-26  -2.6182224113324832e-27  3.0401701722479389e-27  -1.3435169317741337e-03  1.0740807929842597e-02  1.9835725678210542e-02  1.7282981144004925e-02  1.2108659198097704e-02  7.0003091517665530e-03  1.8893910465196107e-03  -2.7298089962920209e-03  -6.2902635275671496e-03  -8.3834895770373841e-03  -9.2301852203554805e-03  -9.2649017455749931e-03  -8.5627426843125111e-03  -6.6609895901790618e-03  -2.8707197732450659e-03  3.0301030406499427e-03  1.1100361389629571e-02  2.1152627828001029e-02  3.1165549848032655e-02  3.8224968351378688e-02  4.0664435866149103e-02  3.7582485264577754e-02  2.8508369263569006e-02  1.4616219842198684e-02  -1.5864096514229026e-03  -1.8671236793660576e-02  -3.7590869837974786e-02  -6.0611068143036947e-02  -8.8697862463609389e-02  -1.1896921100083382e-01  -1.4399869188342654e-01  -1.4987776334255651e-01  -9.6452254129148346e-02  5.2736727548118888e-02  3.8730737972145213e-01  9.0509549264894262e-01  1.0949898092585886e+00  9.8851572106827768e-01  9.9845169377863452e-01  1.0014091294798579e+00  9.9789702633361554e-01  1.0058898434573333e+00  9.8630438223310191e-01  1.0068099782672855e+00  1.1084718890242702e+00  6.6114229061563290e-01  1.0023590780529964e-02  -1.3846019349737082e-01  -1.5284191582782190e-02  3.7259457638051253e-02  1.5547665352906567e-02  -6.8762757143931257e-03  -4.2609845961732789e-03  1.5746245630572915e-03  4.1763674992445444e-04  -3.7265031305568427e-04  7.6554730076392610e-05  1.9449762186647139e-05  -1.9828448639899828e-05  7.7370091384449859e-06  -1.7097435885768100e-06  2.4785990353686384e-08  1.8269698306292449e-07  -1.0756110334547561e-07  4.2654879503157812e-08  -1.3656756472858647e-08  3.6793176472185640e-09  -8.1623276042007465e-10  1.2783132308747149e-10  4.7336323195027297e-13  -1.1492866079689965e-11  6.4518417066512077e-12  -2.6564800119456755e-12  9.5000755148925883e-13  -3.1126960767209040e-13  9.5576684064587298e-14  -2.7758559322977559e-14  7.6288700886296141e-15  -1.9667008267603065e-15  4.6455985627193430e-16  -9.4802675531051405e-17  1.3643329972358030e-17  5.3504169296045889e-19  -1.5236453818956309e-18  8.3299408840919555e-19  -3.4566079082034480e-19  1.2558207347454779e-19  -4.1824657424740756e-20  1.3012190552061735e-20  -3.8068507695650598e-21  1.0449523880613337e-21  -2.6556531814617148e-22  6.0331946580585283e-23  -1.1082408129120785e-23  9.7610045423465882e-25  4.5965834259488059e-25  -3.4466184829621865e-25  1.6361651901820899e-25  -6.6393744536118726e-26  1.4440909038075890e-26  -1.3109637808821995e-26  6.0027151028182210e-04  -1.0530836381157413e-03  -4.4032572694627774e-03  -5.2349848513874257e-03  -3.9561115195176372e-03  -2.5563287110946637e-03  -1.1847943483313807e-03  1.3880079094566046e-04  1.2524131368436653e-03  2.0132280268514600e-03  2.3939169763854094e-03  2.5018873588009576e-03  2.4192000541831118e-03  2.0919279347218220e-03  1.3453710999468931e-03  5.0622437302428533e-05  -1.8193734690934572e-03  -4.2823708611487770e-03  -7.0604827071596623e-03  -9.4278880651565075e-03  -1.0740856687255522e-02  -1.0679872689642491e-02  -9.0421281972446234e-03  -5.8976816063855235e-03  -1.7916172350368308e-03  2.6765569859362741e-03  7.4388282932130742e-03  1.2993055375274185e-02  1.9865877252990927e-02  2.7860679833970364e-02  3.5567846979919077e-02  4.0688739260767534e-02  3.5505148391268393e-02  1.1009501844487539e-02  -4.7782178830036388e-02  -1.4657284065295192e-01  1.4948351081927835e-01  9.5052207223986052e-01  1.0178023865685248e+00  9.9672039437077820e-01  1.0004205311068346e+00  9.9921446684793280e-01  1.0008125321032297e+00  1.0047926504467419e+00  9.7553832094148263e-01  1.0166832071398220e+00  1.1262990624242777e+00  8.6531565016142498e-01  2.9682899488890668e-01  -9.3894710582996976e-02  -1.1405966058722034e-01  -6.9926207776112770e-04  2.9171998443936777e-02  -5.5870021446941323e-04  -4.8674124687835075e-03  1.5126247031379684e-03  1.3299047506615228e-04  -2.6407226073339176e-04  1.1263897644993607e-04  -2.6316547162657648e-05  9.7090922423503311e-07  2.4571473783008291e-06  -1.5005913774949000e-06  5.9986786908312377e-07  -1.9229395519415105e-07  5.1752524346461464e-08  -1.1462912208067997e-08  1.7938352245758948e-09  5.3450685008008549e-12  -1.6008246913255862e-10  8.9902571494826640e-11  -3.7013559993482686e-11  1.3234940322271214e-11  -4.3356091493715033e-12  1.3309738725189315e-12  -3.8649376477255323e-13  1.0622279610410586e-13  -2.7394167538985539e-14  6.4766673973990444e-15  -1.3241264875477522e-15  1.9154928965731397e-16  6.9465365961289188e-18  -2.1079016875017469e-17  1.1567310723977311e-17  -4.8070790638343401e-18  1.7477923156834848e-18  -5.8232612829353937e-19  1.8120058536537748e-19  -5.3015759451149364e-20  1.4554186423925740e-20  -3.7002109629071803e-21  8.4164965085281830e-22  -1.5514213240272390e-22  1.3807268932146363e-23  6.1218119834070674e-24  -4.8861960352219328e-24  2.2264568874960599e-24  -8.7936867699753228e-25  3.0169159192663666e-25  -6.9773732478725966e-26  5.1972283427197144e-26  -1.0547924413747624e-04  -2.3232621755710120e-05  7.4743039805079783e-04  1.3836491339360975e-03  1.2669227397562178e-03  8.6942015922121898e-04  5.0049000117650727e-04  1.3610406233072249e-04  -1.9610947029253923e-04  -4.50325509