<?xml version="1.0"?>
<VTKFile type="UnstructuredGrid"  version="0.1"  >
<UnstructuredGrid>
<Piece  NumberOfPoints="5151" NumberOfCells="10000">
<Points>
<DataArray  type="Float64"  NumberOfComponents="3"  format="ascii">0 0 0  0.01 0 0  0.02 0 0  0.03 0 0  0.04 0 0  0.05 0 0  0.06 0 0  0.07000000000000001 0 0  0.08 0 0  0.09 0 0  0.1 0 0  0.11 0 0  0.12 0 0  0.13 0 0  0.14 0 0  0.15 0 0  0.16 0 0  0.17 0 0  0.18 0 0  0.19 0 0  0.2 0 0  0.21 0 0  0.22 0 0  0.23 0 0  0.24 0 0  0.25 0 0  0.26 0 0  0.27 0 0  0.28 0 0  0.29 0 0  0.3 0 0  0.31 0 0  0.32 0 0  0.33 0 0  0.34 0 0  0.35 0 0  0.36 0 0  0.37 0 0  0.38 0 0  0.39 0 0  0.4 0 0  0.41 0 0  0.42 0 0  0.43 0 0  0.44 0 0  0.45 0 0  0.46 0 0  0.47 0 0  0.48 0 0  0.49 0 0  0.5 0 0  0.51 0 0  0.52 0 0  0.53 0 0  0.54 0 0  0.55 0 0  0.5600000000000001 0 0  0.57 0 0  0.58 0 0  0.59 0 0  0.6 0 0  0.61 0 0  0.62 0 0  0.63 0 0  0.64 0 0  0.65 0 0  0.66 0 0  0.67 0 0  0.68 0 0  0.6899999999999999 0 0  0.7 0 0  0.71 0 0  0.72 0 0  0.73 0 0  0.74 0 0  0.75 0 0  0.76 0 0  0.77 0 0  0.78 0 0  0.79 0 0  0.8 0 0  0.8100000000000001 0 0  0.82 0 0  0.83 0 0  0.84 0 0  0.85 0 0  0.86 0 0  0.87 0 0  0.88 0 0  0.89 0 0  0.9 0 0  0.91 0 0  0.92 0 0  0.93 0 0  0.9399999999999999 0 0  0.95 0 0  0.96 0 0  0.97 0 0  0.98 0 0  0.99 0 0  1 0 0  0 0.01 0  0.01 0.01 0  0.02 0.01 0  0.03 0.01 0  0.04 0.01 0  0.05 0.01 0  0.06 0.01 0  0.07000000000000001 0.01 0  0.08 0.01 0  0.09 0.01 0  0.1 0.01 0  0.11 0.01 0  0.12 0.01 0  0.13 0.01 0  0.14 0.01 0  0.15 0.01 0  0.16 0.01 0  0.17 0.01 0  0.18 0.01 0  0.19 0.01 0  0.2 0.01 0  0.21 0.01 0  0.22 0.01 0  0.23 0.01 0  0.24 0.01 0  0.25 0.01 0  0.26 0.01 0  0.27 0.01 0  0.28 0.01 0  0.29 0.01 0  0.3 0.01 0  0.31 0.01 0  0.32 0.01 0  0.33 0.01 0  0.34 0.01 0  0.35 0.01 0  0.36 0.01 0  0.37 0.01 0  0.38 0.01 0  0.39 0.01 0  0.4 0.01 0  0.41 0.01 0  0.42 0.01 0  0.43 0.01 0  0.44 0.01 0  0.45 0.01 0  0.46 0.01 0  0.47 0.01 0  0.48 0.01 0  0.49 0.01 0  0.5 0.01 0  0.51 0.01 0  0.52 0.01 0  0.53 0.01 0  0.54 0.01 0  0.55 0.01 0  0.5600000000000001 0.01 0  0.57 0.01 0  0.58 0.01 0  0.59 0.01 0  0.6 0.01 0  0.61 0.01 0  0.62 0.01 0  0.63 0.01 0  0.64 0.01 0  0.65 0.01 0  0.66 0.01 0  0.67 0.01 0  0.68 0.01 0  0.6899999999999999 0.01 0  0.7 0.01 0  0.71 0.01 0  0.72 0.01 0  0.73 0.01 0  0.74 0.01 0  0.75 0.01 0  0.76 0.01 0  0.77 0.01 0  0.78 0.01 0  0.79 0.01 0  0.8 0.01 0  0.8100000000000001 0.01 0  0.82 0.01 0  0.83 0.01 0  0.84 0.01 0  0.85 0.01 0  0.86 0.01 0  0.87 0.01 0  0.88 0.01 0  0.89 0.01 0  0.9 0.01 0  0.91 0.01 0  0.92 0.01 0  0.93 0.01 0  0.9399999999999999 0.01 0  0.95 0.01 0  0.96 0.01 0  0.97 0.01 0  0.98 0.01 0  0.99 0.01 0  1 0.01 0  0 0.02 0  0.01 0.02 0  0.02 0.02 0  0.03 0.02 0  0.04 0.02 0  0.05 0.02 0  0.06 0.02 0  0.07000000000000001 0.02 0  0.08 0.02 0  0.09 0.02 0  0.1 0.02 0  0.11 0.02 0  0.12 0.02 0  0.13 0.02 0  0.14 0.02 0  0.15 0.02 0  0.16 0.02 0  0.17 0.02 0  0.18 0.02 0  0.19 0.02 0  0.2 0.02 0  0.21 0.02 0  0.22 0.02 0  0.23 0.02 0  0.24 0.02 0  0.25 0.02 0  0.26 0.02 0  0.27 0.02 0  0.28 0.02 0  0.29 0.02 0  0.3 0.02 0  0.31 0.02 0  0.32 0.02 0  0.33 0.02 0  0.34 0.02 0  0.35 0.02 0  0.36 0.02 0  0.37 0.02 0  0.38 0.02 0  0.39 0.02 0  0.4 0.02 0  0.41 0.02 0  0.42 0.02 0  0.43 0.02 0  0.44 0.02 0  0.45 0.02 0  0.46 0.02 0  0.47 0.02 0  0.48 0.02 0  0.49 0.02 0  0.5 0.02 0  0.51 0.02 0  0.52 0.02 0  0.53 0.02 0  0.54 0.02 0  0.55 0.02 0  0.5600000000000001 0.02 0  0.57 0.02 0  0.58 0.02 0  0.59 0.02 0  0.6 0.02 0  0.61 0.02 0  0.62 0.02 0  0.63 0.02 0  0.64 0.02 0  0.65 0.02 0  0.66 0.02 0  0.67 0.02 0  0.68 0.02 0  0.6899999999999999 0.02 0  0.7 0.02 0  0.71 0.02 0  0.72 0.02 0  0.73 0.02 0  0.74 0.02 0  0.75 0.02 0  0.76 0.02 0  0.77 0.02 0  0.78 0.02 0  0.79 0.02 0  0.8 0.02 0  0.8100000000000001 0.02 0  0.82 0.02 0  0.83 0.02 0  0.84 0.02 0  0.85 0.02 0  0.86 0.02 0  0.87 0.02 0  0.88 0.02 0  0.89 0.02 0  0.9 0.02 0  0.91 0.02 0  0.92 0.02 0  0.93 0.02 0  0.9399999999999999 0.02 0  0.95 0.02 0  0.96 0.02 0  0.97 0.02 0  0.98 0.02 0  0.99 0.02 0  1 0.02 0  0 0.03 0  0.01 0.03 0  0.02 0.03 0  0.03 0.03 0  0.04 0.03 0  0.05 0.03 0  0.06 0.03 0  0.07000000000000001 0.03 0  0.08 0.03 0  0.09 0.03 0  0.1 0.03 0  0.11 0.03 0  0.12 0.03 0  0.13 0.03 0  0.14 0.03 0  0.15 0.03 0  0.16 0.03 0  0.17 0.03 0  0.18 0.03 0  0.19 0.03 0  0.2 0.03 0  0.21 0.03 0  0.22 0.03 0  0.23 0.03 0  0.24 0.03 0  0.25 0.03 0  0.26 0.03 0  0.27 0.03 0  0.28 0.03 0  0.29 0.03 0  0.3 0.03 0  0.31 0.03 0  0.32 0.03 0  0.33 0.03 0  0.34 0.03 0  0.35 0.03 0  0.36 0.03 0  0.37 0.03 0  0.38 0.03 0  0.39 0.03 0  0.4 0.03 0  0.41 0.03 0  0.42 0.03 0  0.43 0.03 0  0.44 0.03 0  0.45 0.03 0  0.46 0.03 0  0.47 0.03 0  0.48 0.03 0  0.49 0.03 0  0.5 0.03 0  0.51 0.03 0  0.52 0.03 0  0.53 0.03 0  0.54 0.03 0  0.55 0.03 0  0.5600000000000001 0.03 0  0.57 0.03 0  0.58 0.03 0  0.59 0.03 0  0.6 0.03 0  0.61 0.03 0  0.62 0.03 0  0.63 0.03 0  0.64 0.03 0  0.65 0.03 0  0.66 0.03 0  0.67 0.03 0  0.68 0.03 0  0.6899999999999999 0.03 0  0.7 0.03 0  0.71 0.03 0  0.72 0.03 0  0.73 0.03 0  0.74 0.03 0  0.75 0.03 0  0.76 0.03 0  0.77 0.03 0  0.78 0.03 0  0.79 0.03 0  0.8 0.03 0  0.8100000000000001 0.03 0  0.82 0.03 0  0.83 0.03 0  0.84 0.03 0  0.85 0.03 0  0.86 0.03 0  0.87 0.03 0  0.88 0.03 0  0.89 0.03 0  0.9 0.03 0  0.91 0.03 0  0.92 0.03 0  0.93 0.03 0  0.9399999999999999 0.03 0  0.95 0.03 0  0.96 0.03 0  0.97 0.03 0  0.98 0.03 0  0.99 0.03 0  1 0.03 0  0 0.04 0  0.01 0.04 0  0.02 0.04 0  0.03 0.04 0  0.04 0.04 0  0.05 0.04 0  0.06 0.04 0  0.07000000000000001 0.04 0  0.08 0.04 0  0.09 0.04 0  0.1 0.04 0  0.11 0.04 0  0.12 0.04 0  0.13 0.04 0  0.14 0.04 0  0.15 0.04 0  0.16 0.04 0  0.17 0.04 0  0.18 0.04 0  0.19 0.04 0  0.2 0.04 0  0.21 0.04 0  0.22 0.04 0  0.23 0.04 0  0.24 0.04 0  0.25 0.04 0  0.26 0.04 0  0.27 0.04 0  0.28 0.04 0  0.29 0.04 0  0.3 0.04 0  0.31 0.04 0  0.32 0.04 0  0.33 0.04 0  0.34 0.04 0  0.35 0.04 0  0.36 0.04 0  0.37 0.04 0  0.38 0.04 0  0.39 0.04 0  0.4 0.04 0  0.41 0.04 0  0.42 0.04 0  0.43 0.04 0  0.44 0.04 0  0.45 0.04 0  0.46 0.04 0  0.47 0.04 0  0.48 0.04 0  0.49 0.04 0  0.5 0.04 0  0.51 0.04 0  0.52 0.04 0  0.53 0.04 0  0.54 0.04 0  0.55 0.04 0  0.5600000000000001 0.04 0  0.57 0.04 0  0.58 0.04 0  0.59 0.04 0  0.6 0.04 0  0.61 0.04 0  0.62 0.04 0  0.63 0.04 0  0.64 0.04 0  0.65 0.04 0  0.66 0.04 0  0.67 0.04 0  0.68 0.04 0  0.6899999999999999 0.04 0  0.7 0.04 0  0.71 0.04 0  0.72 0.04 0  0.73 0.04 0  0.74 0.04 0  0.75 0.04 0  0.76 0.04 0  0.77 0.04 0  0.78 0.04 0  0.79 0.04 0  0.8 0.04 0  0.8100000000000001 0.04 0  0.82 0.04 0  0.83 0.04 0  0.84 0.04 0  0.85 0.04 0  0.86 0.04 0  0.87 0.04 0  0.88 0.04 0  0.89 0.04 0  0.9 0.04 0  0.91 0.04 0  0.92 0.04 0  0.93 0.04 0  0.9399999999999999 0.04 0  0.95 0.04 0  0.96 0.04 0  0.97 0.04 0  0.98 0.04 0  0.99 0.04 0  1 0.04 0  0 0.05 0  0.01 0.05 0  0.02 0.05 0  0.03 0.05 0  0.04 0.05 0  0.05 0.05 0  0.06 0.05 0  0.07000000000000001 0.05 0  0.08 0.05 0  0.09 0.05 0  0.1 0.05 0  0.11 0.05 0  0.12 0.05 0  0.13 0.05 0  0.14 0.05 0  0.15 0.05 0  0.16 0.05 0  0.17 0.05 0  0.18 0.05 0  0.19 0.05 0  0.2 0.05 0  0.21 0.05 0  0.22 0.05 0  0.23 0.05 0  0.24 0.05 0  0.25 0.05 0  0.26 0.05 0  0.27 0.05 0  0.28 0.05 0  0.29 0.05 0  0.3 0.05 0  0.31 0.05 0  0.32 0.05 0  0.33 0.05 0  0.34 0.05 0  0.35 0.05 0  0.36 0.05 0  0.37 0.05 0  0.38 0.05 0  0.39 0.05 0  0.4 0.05 0  0.41 0.05 0  0.42 0.05 0  0.43 0.05 0  0.44 0.05 0  0.45 0.05 0  0.46 0.05 0  0.47 0.05 0  0.48 0.05 0  0.49 0.05 0  0.5 0.05 0  0.51 0.05 0  0.52 0.05 0  0.53 0.05 0  0.54 0.05 0  0.55 0.05 0  0.5600000000000001 0.05 0  0.57 0.05 0  0.58 0.05 0  0.59 0.05 0  0.6 0.05 0  0.61 0.05 0  0.62 0.05 0  0.63 0.05 0  0.64 0.05 0  0.65 0.05 0  0.66 0.05 0  0.67 0.05 0  0.68 0.05 0  0.6899999999999999 0.05 0  0.7 0.05 0  0.71 0.05 0  0.72 0.05 0  0.73 0.05 0  0.74 0.05 0  0.75 0.05 0  0.76 0.05 0  0.77 0.05 0  0.78 0.05 0  0.79 0.05 0  0.8 0.05 0  0.8100000000000001 0.05 0  0.82 0.05 0  0.83 0.05 0  0.84 0.05 0  0.85 0.05 0  0.86 0.05 0  0.87 0.05 0  0.88 0.05 0  0.89 0.05 0  0.9 0.05 0  0.91 0.05 0  0.92 0.05 0  0.93 0.05 0  0.9399999999999999 0.05 0  0.95 0.05 0  0.96 0.05 0  0.97 0.05 0  0.98 0.05 0  0.99 0.05 0  1 0.05 0  0 0.06 0  0.01 0.06 0  0.02 0.06 0  0.03 0.06 0  0.04 0.06 0  0.05 0.06 0  0.06 0.06 0  0.07000000000000001 0.06 0  0.08 0.06 0  0.09 0.06 0  0.1 0.06 0  0.11 0.06 0  0.12 0.06 0  0.13 0.06 0  0.14 0.06 0  0.15 0.06 0  0.16 0.06 0  0.17 0.06 0  0.18 0.06 0  0.19 0.06 0  0.2 0.06 0  0.21 0.06 0  0.22 0.06 0  0.23 0.06 0  0.24 0.06 0  0.25 0.06 0  0.26 0.06 0  0.27 0.06 0  0.28 0.06 0  0.29 0.06 0  0.3 0.06 0  0.31 0.06 0  0.32 0.06 0  0.33 0.06 0  0.34 0.06 0  0.35 0.06 0  0.36 0.06 0  0.37 0.06 0  0.38 0.06 0  0.39 0.06 0  0.4 0.06 0  0.41 0.06 0  0.42 0.06 0  0.43 0.06 0  0.44 0.06 0  0.45 0.06 0  0.46 0.06 0  0.47 0.06 0  0.48 0.06 0  0.49 0.06 0  0.5 0.06 0  0.51 0.06 0  0.52 0.06 0  0.53 0.06 0  0.54 0.06 0  0.55 0.06 0  0.5600000000000001 0.06 0  0.57 0.06 0  0.58 0.06 0  0.59 0.06 0  0.6 0.06 0  0.61 0.06 0  0.62 0.06 0  0.63 0.06 0  0.64 0.06 0  0.65 0.06 0  0.66 0.06 0  0.67 0.06 0  0.68 0.06 0  0.6899999999999999 0.06 0  0.7 0.06 0  0.71 0.06 0  0.72 0.06 0  0.73 0.06 0  0.74 0.06 0  0.75 0.06 0  0.76 0.06 0  0.77 0.06 0  0.78 0.06 0  0.79 0.06 0  0.8 0.06 0  0.8100000000000001 0.06 0  0.82 0.06 0  0.83 0.06 0  0.84 0.06 0  0.85 0.06 0  0.86 0.06 0  0.87 0.06 0  0.88 0.06 0  0.89 0.06 0  0.9 0.06 0  0.91 0.06 0  0.92 0.06 0  0.93 0.06 0  0.9399999999999999 0.06 0  0.95 0.06 0  0.96 0.06 0  0.97 0.06 0  0.98 0.06 0  0.99 0.06 0  1 0.06 0  0 0.07000000000000001 0  0.01 0.07000000000000001 0  0.02 0.07000000000000001 0  0.03 0.07000000000000001 0  0.04 0.07000000000000001 0  0.05 0.07000000000000001 0  0.06 0.07000000000000001 0  0.07000000000000001 0.07000000000000001 0  0.08 0.07000000000000001 0  0.09 0.07000000000000001 0  0.1 0.07000000000000001 0  0.11 0.07000000000000001 0  0.12 0.07000000000000001 0  0.13 0.07000000000000001 0  0.14 0.07000000000000001 0  0.15 0.07000000000000001 0  0.16 0.07000000000000001 0  0.17 0.07000
[...]
<PointData  Scalars="rho_bar"> 
<DataArray  type="Float64"  Name="rho_bar"  format="ascii">9.8915678572088250e-01  9.9467395776359047e-01  9.9408564117120379e-01  9.9799457975797434e-01  1.0013125465968098e+00  1.0032455634932012e+00  1.0040697368013025e+00  1.0043304287795054e+00  1.0039797710320058e+00  1.0028787376868462e+00  1.0001449990634348e+00  9.9593898151323224e-01  9.9318388048715311e-01  9.9332286068463316e-01  9.9491189243380662e-01  9.9684360887227752e-01  9.9836737339566439e-01  9.9907093860848906e-01  9.9957537528899743e-01  1.0004277746694603e+00  1.0013457053256574e+00  1.0018458525031286e+00  1.0019016858849046e+00  1.0017451929656362e+00  1.0014725450800319e+00  1.0010585809241306e+00  1.0006097484677610e+00  1.0002950367465508e+00  1.0000087764802781e+00  9.9965027758967318e-01  9.9950878648028596e-01  9.9973917943472068e-01  1.0000181818110683e+00  1.0000562171670304e+00  1.0000137184340907e+00  1.0003299304035156e+00  9.9665722803056400e-01  1.0202292683572065e+00  9.1182952896253366e-01  1.2657220307648887e+00  -8.3229142893258817e-03  2.0881420015157201e-03  7.6155656176346358e-04  -3.2905045487917534e-04  5.4329929070351157e-05  -8.6288960285638020e-05  5.2551155723326038e-05  1.1683675660761027e-05  -6.1274020078086668e-06  -4.6226113429145333e-06  9.2003339975622753e-07  9.3694940849537108e-07  -2.8814887407401172e-07  -1.2765277855126572e-07  8.3998087532855755e-08  -4.2760272982686259e-09  -1.2203101439787903e-08  5.5927777345013430e-09  -5.9750832697357748e-10  -5.4487278889541540e-10  3.5474726135648282e-10  -1.0627671736112937e-10  7.8684765912530986e-12  1.0126349894790057e-11  -6.8435607736647605e-12  2.6781522495930727e-12  -7.2263035249224997e-13  1.0557886371737539e-13  2.1099365069137219e-14  -2.4258628369644541e-14  1.2049790010690330e-14  -4.5689486163262224e-15  1.4669869895738531e-15  -4.1157628601404012e-16  1.0070248990245663e-16  -2.0508640038320734e-17  2.8145110191594187e-18  1.7694988628420924e-19  -3.4240688713552279e-19  1.7997253079803870e-19  -7.3431041211522069e-20  2.6533676407161897e-20  -8.8564912952583995e-21  2.7752865976342196e-21  -8.2078906940853251e-22  2.2884972822513720e-22  -5.9712144372614294e-23  1.4320844131359395e-23  -3.0212433838062895e-24  4.8834031958574338e-25  -1.7241253817990693e-26  -3.2845738864126590e-26  2.0477989032562797e-26  -8.9397157478507624e-27  3.3512430783088801e-27  -1.1574425351553416e-27  3.6081045900199203e-28  -1.1489814328601621e-28  3.0053375090298955e-29  -8.0532654798815955e-30  5.9637602296360270e-30  1.0270073248077192e+00  1.0108457872723149e+00  1.0135111259903580e+00  1.0078976817343654e+00  1.0004194851059856e+00  9.9502280347436067e-01  9.9254936433930452e-01  9.9145342910576872e-01  9.9153053061591057e-01  9.9292557302670970e-01  9.9637582883951992e-01  1.0037803143530715e+00  1.0117383013233157e+00  1.0140791361128503e+00  1.0119043953716189e+00  1.0082766925481577e+00  1.0045528479201717e+00  1.0023877581524183e+00  1.0014280516797687e+00  1.0000964658142539e+00  9.9815966987002924e-01  9.9666640056669575e-01  9.9617234631863050e-01  9.9632707329226855e-01  9.9675023232834647e-01  9.9743024548666614e-01  9.9835286496703923e-01  9.9914108079433184e-01  9.9966454649199066e-01  1.0003364668990566e+00  1.0009539188516365e+00  1.0008249931953033e+00  1.0001939843548526e+00  9.9985377191106140e-01  9.9996162646526232e-01  9.9980414444718579e-01  1.0008705911099336e+00  9.9887812541800725e-01  9.8619069101246337e-01  1.1353423879092583e+00  1.1678991784645094e-01  1.5378850447234586e-03  -3.9658126592945174e-03  8.0159793785555085e-04  -2.2238981855492052e-04  2.6706973892629839e-04  -6.1643400466222852e-05  -5.8707424391316725e-05  4.4452055127497559e-07  1.4407153313227776e-05  2.0643650195420523e-06  -2.9816342516011531e-06  -1.4515623672606917e-07  6.0495454397605162e-07  -1.1992081505167607e-07  -6.6109044622124075e-08  4.3039633470395994e-08  -7.0887043691487058e-09  -3.2893239509746355e-09  2.5578964590924029e-09  -8.0189755959760835e-10  6.3230528656431992e-11  7.4291754453088194e-11  -4.9822000493677817e-11  1.8930492900513453e-11  -4.8020616517107258e-12  5.5070046601000919e-13  2.2532503481151700e-13  -1.9129613225208674e-13  8.7337919370809836e-14  -3.1136611801789583e-14  9.4010302627039537e-15  -2.4525729138573738e-15  5.4187439630594401e-16  -9.0990278001977844e-17  4.9252713207882793e-18  4.8421483333658989e-18  -3.1198363148258911e-18  1.3529345899613154e-18  -5.0417513709587042e-19  1.7217650887527644e-19  -5.5136488843310417e-20  1.6679225875215352e-20  -4.7642334918380496e-21  1.2770138812688551e-21  -3.1671483597293508e-22  7.0416258188096727e-23  -1.2865111248502065e-23  1.2692727326341669e-24  3.8986519331213442e-25  -3.3564383325722473e-25  1.5962030435038830e-25  -6.2701455365294533e-26  2.2160215573594776e-26  -7.2556843854784544e-27  2.2505342920548063e-27  -6.3423345524421677e-28  1.8797241745891897e-28  -3.8709904647015756e-29  1.0025483759067763e-29  -3.8742549793904564e-30  9.0649684989364032e-01  9.6030542047061462e-01  9.5027066156851159e-01  9.6115951446493952e-01  9.8544356291406654e-01  1.0098119144028928e+00  1.0225243039765008e+00  1.0283879743271160e+00  1.0304113856509733e+00  1.0277162226817869e+00  1.0199654658189059e+00  1.0020499339496580e+00  9.7107006788573913e-01  9.5151781127997215e-01  9.5385793405921482e-01  9.6412511190277661e-01  9.7800198820355932e-01  9.8880549130525042e-01  9.9344874817572715e-01  9.9685240388138407e-01  1.0029779297247958e+00  1.0095277046789428e+00  1.0129503179034260e+00  1.0132745919377937e+00  1.0121935108110698e+00  1.0103300383942431e+00  1.0074542653862026e+00  1.0041888891386621e+00  1.0020424294219974e+00  1.0001889307058316e+00  9.9751474848624289e-01  9.9644121423960930e-01  9.9821295746706729e-01  1.0001870100516552e+00  1.0004603486837547e+00  1.0000420405652948e+00  9.9995722633877993e-01  9.9914979870233844e-01  1.0036336702788067e+00  1.0129425456917496e+00  6.7283043137004939e-01  -1.3555968529762627e-01  2.1417735432151919e-02  -2.8120236932533682e-03  1.7581324386164044e-03  -1.2177406782592163e-03  -6.8685505062144231e-05  2.6392139788681179e-04  8.5287196991949105e-05  -4.9210322874462353e-05  -2.8991469224998104e-05  8.8823379892774644e-06  5.2312759292618759e-06  -2.6324593357017174e-06  -3.1638922375156892e-07  5.4072330572610778e-07  -1.4690991664667024e-07  -2.1651006446376194e-08  3.1043246847133646e-08  -1.1771764638757288e-08  1.6579885106441025e-09  7.2239538673164567e-10  -6.2264329752107097e-10  2.6189248340966361e-10  -7.4177554287241446e-11  1.1935869908423961e-11  1.5607151593886521e-12  -2.2437032356503224e-12  1.1494001817981718e-12  -4.4096457125449462e-13  1.4252906238401757e-13  -4.0239502847839594e-14  9.9416645928986961e-15  -2.0671701420119736e-15  3.0407625247584664e-16  5.9395440208718066e-18  -2.9536892141125493e-17  1.6372696154129016e-17  -6.8402220939445023e-18  2.5120830069496833e-18  -8.4970892687356738e-19  2.6942000997457236e-19  -8.0559446860842364e-20  2.2707628832794929e-20  -5.9972629406266365e-21  1.4616304525988001e-21  -3.1683223503474542e-22  5.4777049275079134e-23  -3.8806124635426641e-24  -2.5593786246255184e-24  1.8194616295963150e-24  -8.2618319348324172e-25  3.1689364868554808e-25  -1.1009768658620003e-25  3.5555259610692631e-26  -1.0843430493929473e-26  3.0363420391697606e-27  -8.7281594106483507e-28  1.7201248048657731e-28  -5.2906185626752144e-29  1.3337333088334381e-29  1.2901820467177918e+00  1.1616090083966000e+00  1.1819372684469049e+00  1.1706155470452138e+00  1.1052999995107409e+00  1.0027336178384574e+00  9.3492039007377847e-01  9.0395172178892313e-01  8.8831616323429285e-01  8.8949530693977208e-01  9.0886258251723129e-01  9.5202595400323797e-01  1.0444039331645287e+00  1.1600716644577942e+00  1.1800728077062739e+00  1.1551525922881589e+00  1.1080556363156564e+00  1.0581722751653266e+00  1.0306034315153632e+00  1.0192303737428590e+00  1.0017040074124186e+00  9.7579216995257279e-01  9.5628728389763851e-01  9.5036976517661176e-01  9.5233943487031780e-01  9.5781756431033627e-01  9.6637395131182979e-01  9.7859841838431294e-01  9.8927760621412408e-01  9.9528437012306270e-01  1.0040238543426501e+00  1.0129671240437470e+00  1.0108789725183331e+00  1.0021960808378318e+00  9.9796079643548963e-01  9.9923266246870213e-01  1.0003317482045353e+00  1.0000583189380214e+00  1.0017032757021904e+00  9.7933353534684719e-01  1.1383753346494268e+00  7.2267909023518165e-02  4.6987701153354232e-03  7.5954520833148940e-03  -1.0734962986978271e-02  3.6367246075293129e-03  1.9355926081003740e-03  -7.7508663581517690e-04  -7.0469261857795755e-04  3.6521265453955324e-05  1.8759327016136502e-04  1.0212011741038703e-05  -3.8828577148908155e-05  4.3178334080883773e-06  6.1022375933616383e-06  -2.5971999498009904e-06  2.1891155163831882e-09  3.8326749623563428e-07  -1.7344571685908732e-07  3.0987035181542248e-08  7.6737447851059624e-09  -8.3283054964397302e-09  3.6972549938679986e-09  -1.0832053619924023e-09  1.8420155938332232e-10  1.7926920615203207e-11  -3.1053732186696901e-11  1.6248635743292067e-11  -6.2725571713984799e-12  2.0267949849548506e-12  -5.6897858872878655e-13  1.3880698095799488e-13  -2.8105109308787932e-14  3.8133373924007390e-15  2.5464113184799510e-16  -4.6875216701593974e-16  2.4464054923717719e-16  -9.9498856219579242e-17  3.5917481511335108e-17  -1.1994026383882203e-17  3.7626999101367259e-18  -1.1139507375989821e-18  3.1065903145399578e-19  -8.0972726128212277e-20  1.9368670549534364e-20  -4.0671325805990710e-21  6.5114599537172970e-22  -2.0261509252297901e-23  -4.5239085839483524e-23  2.7900928486153790e-23  -1.2142643830400630e-23  4.5572145108765859e-24  -1.5604470993521612e-24  4.9844723832322045e-25  -1.4976878731056284e-25  4.2473815538419503e-26  -1.0999684131281396e-26  2.8815774944465477e-27  -4.0677532992857657e-28  1.5116006088879629e-28  9.6116601847529262e-30  1.1963102547512237e-01  2.2767413942992601e-01  1.5832906306010547e-01  9.1517890556293169e-02  3.5280089641947510e-02  -5.9940361872114566e-02  -1.5215061259933313e-01  -1.7980966733304349e-01  -1.8344256982907042e-01  -1.8365613674000916e-01  -1.8222403329563425e-01  -1.7518031292489925e-01  -1.2276715472925516e-01  -4.9075184332175801e-04  8.8473250435625025e-02  2.3628646642079010e-01  4.7540572579324419e-01  6.9261427057777769e-01  8.4874542787743457e-01  9.0726697364245967e-01  9.5460430751049352e-01  1.0402906358842070e+00  1.1344534921125400e+00  1.1791815365434277e+00  1.1837479395307009e+00  1.1685599465063257e+00  1.1432977149519621e+00  1.1042582866328239e+00  1.0568564900776432e+00  1.0273637653657921e+00  1.0053971931698975e+00  9.6450450740763394e-01  9.4883395874171250e-01  9.7607482955979685e-01  1.0035089489406117e+00  1.0066501704044823e+00  9.9915892089421454e-01  9.9956034156775597e-01  9.9894769585606358e-01  1.0086573265407957e+00  9.5868146280029587e-01  1.1521909822808072e+00  1.2328067351371995e-01  -1.1313287265886661e-01  5.4990944965400419e-02  -7.5945238277962384e-04  -1.2801916643779618e-02  -3.8685079321517833e-04  3.6112347257591525e-03  1.0062777611910536e-03  -7.4438287961567937e-04  -3.4970822644804440e-04  1.5978059422507585e-04  4.4547409600706629e-05  -4.0326887087250526e-05  4.9416766282465882e-06  4.3127622797067919e-06  -2.5057779083191736e-06  5.4599045534111556e-07  7.1037073995474429e-08  -1.1045879521912292e-07  5.1871372951497787e-08  -1.5652923649209114e-08  2.7811524552226770e-09  1.9737397759182281e-10  -4.2501982163697913e-10  2.2655215512795193e-10  -8.7901903434078311e-11  2.8419366408682963e-11  -7.9651510546869589e-12  1.9374812945414051e-12  -3.9077621921105410e-13  5.2728471964481510e-14  3.5797037927913507e-15  -6.4837544211425645e-15  3.3744162942059271e-15  -1.3712007696921795e-15  4.9520584562488894e-16  -1.6560654306892927e-16  5.2062062544195532e-17  -1.5449946575379314e-17  4.3193501559640318e-18  -1.1287157550618855e-18  2.7082446695136948e-19  -5.7163994157578544e-20  9.2814636770154302e-21  -3.6285225029925618e-22  -6.0142784964380733e-22  3.7914518138501490e-22  -1.6624652239350598e-22  6.2662672234635558e-23  -2.1525035254232972e-23  6.8915606826131778e-24  -2.0752502909023206e-24  5.8798678552638218e-25  -1.5575268854913454e-25  3.6966437643698497e-26  -8.5166374341164530e-27  4.7010583054221267e-28  -3.6138794572783904e-28  -2.6751504472094020e-28  -5.1254021231466763e-03  -5.1203219015377568e-02  -5.4610765516836315e-02  -3.2596312594999767e-02  -1.7572085388712713e-02  2.4228254389254086e-03  2.9756025843806076e-02  4.6144081775853142e-02  4.9015375186404961e-02  4.9230670310959825e-02  4.9053199899687462e-02  4.8655450642774621e-02  4.2220037278765270e-02  1.6961657351172353e-02  -1.1717610231025554e-02  -4.0357930007561348e-02  -9.3144422795943885e-02  -1.4640797923945603e-01  -1.7398195169573272e-01  -1.8650393386166472e-01  -1.7805695594143892e-01  -1.2184315149522890e-01  -2.3838963448910205e-02  5.4509960951803105e-02  1.0094470318734780e-01  1.8199946708467901e-01  3.4552434755869865e-01  5.1451236325679905e-01  6.9670020011444078e-01  8.5972763523685147e-01  9.2888665195265663e-01  1.0475131487082892e+00  1.1942344052365392e+00  1.1483361989082226e+00  1.0297968509917317e+00  9.6626757750840608e-01  9.9397007128745440e-01  1.0053014806972853e+00  9.9883978600108558e-01  9.9749477609629345e-01  1.0118952889078277e+00  9.5739297276805391e-01  1.1447721586834301e+00  6.9582394100814837e-01  -1.3192568969051457e-01  -8.0969532761023588e-02  5.0435465282060776e-02  2.1950020550709753e-02  -1.1598739845657693e-02  -9.2083162224798551e-03  9.7196916231406295e-04  2.6136440450216830e-03  -1.2859768284521669e-04  -4.9630850025003106e-04  1.4408107924878560e-04  3.7971086044314461e-05  -3.5112058649810837e-05  9.3945970859272962e-06  3.9586101718784717e-07  -1.4468846942873877e-06  7.2758927187009328e-07  -2.2640572746897606e-07  4.1943769339655101e-08  1.9522976514508657e-09  -5.7977123430452409e-09  3.1563396465176856e-09  -1.2322753294141105e-09  3.9901093528894962e-10  -1.1176593977770962e-10  2.7140717242483967e-11  -5.4608964311427832e-12  7.3411954156629887e-13  5.0499614964930557e-14  -9.0375802982763901e-14  4.6944634599064025e-14  -1.9064206683454639e-14  6.8867751442217678e-15  -2.3050810481207434e-15  7.2551159411491940e-16  -2.1555886916218404e-16  6.0319528413866416e-17  -1.5769935188004598e-17  3.7837474101239331e-18  -7.9833579652301227e-19  1.2958243870847520e-19  -5.1003488127108820e-21  -8.3631248104391998e-21  5.2761890700904561e-21  -2.3147993894328002e-21  8.7310326825180535e-22  -3.0009383015708977e-22  9.6131069741262080e-23  -2.8949661813588915e-23  8.2038158515207101e-24  -2.1698617132174427e-24  5.2426552849793443e-25  -1.0740764860106456e-25  1.8404217314986396e-26  3.3771704523064759e-27  2.0541777976656794e-28  2.0159343778189733e-27  -1.5981375182307527e-03  7.7264712667254078e-03  1.5585727082739670e-02  1.1900284420463153e-02  6.6041563069694541e-03  2.3173585822574535e-03  -4.3606337985024057e-03  -1.0649124521321380e-02  -1.3026104541156932e-02  -1.3188547431891082e-02  -1.3165269011093272e-02  -1.3159779098144767e-02  -1.2641521716405764e-02  -8.3466943751271221e-03  -6.5307175925156892e-04  6.5268738657014201e-03  1.7347075828129607e-02  3.2607794383227987e-02  4.3656242067600930e-02  4.8800702016756903e-02  5.0008380096165685e-02  4.1886917835586721e-02  1.9914498400524443e-02  -5.2647016358348397e-03  -2.0920493780551955e-02  -3.5523627479698207e-02  -6.8736277967971049e-02  -1.1292894013064907e-01  -1.4961133604678339e-01  -1.7418872264741789e-01  -1.9090351950120088e-01  -1.4118584441693061e-01  2.4338155839510257e-02  1.6438485328046309e-01  6.4256745300204443e-01  1.0799775815483448e+00  1.0884666794127449e+00  9.7033462828454908e-01  1.0063273665073356e+00  9.9932962317754459e-01  9.9736162274974538e-01  1.0090400862232032e+00  9.7901790955202084e-01  1.0056833236931313e+00  1.1686124390945967e+00  6.1758329148801294e-01  -6.8225578901960196e-02  -1.6178346225349272e-01  4.4354035343796899e-03  4.9190947328997071e-02  1.2068208202473452e-02  -1.1567245880473909e-02  -3.8638987630613083e-03  2.7080769475839230e-03  4.9962653686914135e-05  -4.6033223748736727e-04  1.5892191108150944e-04  -4.8696812208395818e-06  -1.8588688033488888e-05  1.0225596991699945e-05  -3.2847666443701403e-06  6.3194315612959127e-07  1.5545589742142449e-08  -7.8973225264836535e-08  4.3985153553507879e-08  -1.7286043226019470e-08  5.6056388634178511e-09  -1.5688698022307933e-09  3.8019520799504014e-10  -7.6268684834822005e-11  1.0197002234774042e-11  7.2120932817796069e-13  -1.2622348367282542e-12  6.5354115560170832e-13  -2.6503876302639206e-13  9.5715015726577399e-14  -3.2051847242198645e-14  1.0097268583929634e-14  -3.0030741094745636e-15  8.4104515951201154e-16  -2.1997858654295827e-16  5.2778104441131923e-17  -1.1131172717679629e-17  1.8063248405614184e-18  -7.1748622145233148e-20  -1.1597033756368642e-19  7.3235647022478790e-20  -3.2151349843939288e-20  1.2136419723211594e-20  -4.1746330566982493e-21  1.3380080077857951e-21  -4.0309551467745225e-22  1.1421495122015547e-22  -3.0218391359784859e-23  7.2987093857562363e-24  -1.5203569810942450e-24  2.1979907494789654e-25  7.6332175100636248e-28  -3.5607947701748736e-26  4.7818214967311371e-27  -1.1516150890270361e-26  5.0488029943012943e-04  -6.2179779951955050e-04  -3.3959982141955080e-03  -3.9311354289567725e-03  -2.4533763688612750e-03  -1.2208064913097579e-03  2.2239243922195348e-04  2.0943250081563625e-03  3.2870528397813503e-03  3.5477893981187749e-03  3.5288232481163148e-03  3.5272471378358945e-03  3.5295676360782026e-03  2.9505482141170131e-03  1.2425168825045034e-03  -7.4831293684719834e-04  -3.0313940811959538e-03  -6.6833762776356415e-03  -1.0414305419095224e-02  -1.2541709207389758e-02  -1.3441220013324137e-02  -1.2735677264453397e-02  -8.6079114437773666e-03  -1.8149474863833662e-03  3.7628164068681763e-03  7.2306169368136983e-03  1.3383815752729743e-02  2.4290715466270520e-02  3.5570401066935806e-02  4.3597335693229294e-02  4.9971410491495671e-02  4.8166083119196949e-02  1.6210057399609644e-02  -1.9400600876888073e-02  -1.0040908108132117e-01  -2.0759371691003708e-01  2.6816319734282112e-01  1.1005039979562261e+00  9.8336180296963915e-01  1.0048684426304098e+00  9.9913026653360293e-01  9.9894022232318791e-01  1.0011514601203908e+00  1.0078504198238989e+00  9.6529979255810328e-01  1.0138572837327167e+00  1.1839988252634488e+00  8.8773417250665532e-01  2.4475496666515556e-01  -1.6796937653895963e-01  -1.2287082395350861e-01  2.1074224873934736e-02  3.6539327773973458e-02  -6.9818126248599264e-03  -4.8278067681738861e-03  2.6325135569570928e-03  -2.6145686209441460e-04  -2.2973171308093756e-04  1.4433403892183790e-04  -4.7948284594880142e-05  9.5191809996390691e-06  5.1174141169527544e-08  -1.0747955677201925e-06  6.1301405653190435e-07  -2.4260151522964165e-07  7.8795277091044816e-08  -2.2028437455326251e-08  5.3254529859658413e-09  -1.0648038498688144e-09  1.4152609345295613e-10  1.0319027861388877e-11  -1.7633386574730264e-11  9.0981400971931988e-12  -3.6841007171345747e-12  1.3300035712968051e-12  -4.4559599608303939e-13  1.4051608407655648e-13  -4.1839853394638898e-14  1.1729469146633300e-14  -3.0697687792217442e-15  7.3659779321446332e-16  -1.5531019716154003e-16  2.5201736549525555e-17  -1.0129417472602726e-18  -1.6074975698842920e-18  1.0163881575724963e-18  -4.4653524696338820e-19  1.6870652585929149e-19  -5.8083557800997435e-20  1.8629632681707789e-20  -5.6145659513346971e-21  1.5912370379009143e-21  -4.2092414842632454e-22  1.0176693921495580e-22  -2.1224405700090728e-23  3.1369435881290374e-24  1.1228602245180801e-25  -3.2834469269281820e-25  2.2857706622671046e-25  -4.2255911031248514e-26  5.7106492410807724e-26  -7.7025778469123530e-05  -5.5261450420899456e-05  5.4883241380892568e-04  1.0678917503753479e-03  8.8228390321923268e-04  4.8547550278232589e-04  1.4883248548862543e-04  -3.1343042142199898e-04  -7.5220658669568037e-04  -9.3699579578924