<?xml version="1.0"?>
<VTKFile type="UnstructuredGrid"  version="0.1"  >
<UnstructuredGrid>
<Piece  NumberOfPoints="5151" NumberOfCells="10000">
<Points>
<DataArray  type="Float64"  NumberOfComponents="3"  format="ascii">0 0 0  0.01 0 0  0.02 0 0  0.03 0 0  0.04 0 0  0.05 0 0  0.06 0 0  0.07000000000000001 0 0  0.08 0 0  0.09 0 0  0.1 0 0  0.11 0 0  0.12 0 0  0.13 0 0  0.14 0 0  0.15 0 0  0.16 0 0  0.17 0 0  0.18 0 0  0.19 0 0  0.2 0 0  0.21 0 0  0.22 0 0  0.23 0 0  0.24 0 0  0.25 0 0  0.26 0 0  0.27 0 0  0.28 0 0  0.29 0 0  0.3 0 0  0.31 0 0  0.32 0 0  0.33 0 0  0.34 0 0  0.35 0 0  0.36 0 0  0.37 0 0  0.38 0 0  0.39 0 0  0.4 0 0  0.41 0 0  0.42 0 0  0.43 0 0  0.44 0 0  0.45 0 0  0.46 0 0  0.47 0 0  0.48 0 0  0.49 0 0  0.5 0 0  0.51 0 0  0.52 0 0  0.53 0 0  0.54 0 0  0.55 0 0  0.5600000000000001 0 0  0.57 0 0  0.58 0 0  0.59 0 0  0.6 0 0  0.61 0 0  0.62 0 0  0.63 0 0  0.64 0 0  0.65 0 0  0.66 0 0  0.67 0 0  0.68 0 0  0.6899999999999999 0 0  0.7 0 0  0.71 0 0  0.72 0 0  0.73 0 0  0.74 0 0  0.75 0 0  0.76 0 0  0.77 0 0  0.78 0 0  0.79 0 0  0.8 0 0  0.8100000000000001 0 0  0.82 0 0  0.83 0 0  0.84 0 0  0.85 0 0  0.86 0 0  0.87 0 0  0.88 0 0  0.89 0 0  0.9 0 0  0.91 0 0  0.92 0 0  0.93 0 0  0.9399999999999999 0 0  0.95 0 0  0.96 0 0  0.97 0 0  0.98 0 0  0.99 0 0  1 0 0  0 0.01 0  0.01 0.01 0  0.02 0.01 0  0.03 0.01 0  0.04 0.01 0  0.05 0.01 0  0.06 0.01 0  0.07000000000000001 0.01 0  0.08 0.01 0  0.09 0.01 0  0.1 0.01 0  0.11 0.01 0  0.12 0.01 0  0.13 0.01 0  0.14 0.01 0  0.15 0.01 0  0.16 0.01 0  0.17 0.01 0  0.18 0.01 0  0.19 0.01 0  0.2 0.01 0  0.21 0.01 0  0.22 0.01 0  0.23 0.01 0  0.24 0.01 0  0.25 0.01 0  0.26 0.01 0  0.27 0.01 0  0.28 0.01 0  0.29 0.01 0  0.3 0.01 0  0.31 0.01 0  0.32 0.01 0  0.33 0.01 0  0.34 0.01 0  0.35 0.01 0  0.36 0.01 0  0.37 0.01 0  0.38 0.01 0  0.39 0.01 0  0.4 0.01 0  0.41 0.01 0  0.42 0.01 0  0.43 0.01 0  0.44 0.01 0  0.45 0.01 0  0.46 0.01 0  0.47 0.01 0  0.48 0.01 0  0.49 0.01 0  0.5 0.01 0  0.51 0.01 0  0.52 0.01 0  0.53 0.01 0  0.54 0.01 0  0.55 0.01 0  0.5600000000000001 0.01 0  0.57 0.01 0  0.58 0.01 0  0.59 0.01 0  0.6 0.01 0  0.61 0.01 0  0.62 0.01 0  0.63 0.01 0  0.64 0.01 0  0.65 0.01 0  0.66 0.01 0  0.67 0.01 0  0.68 0.01 0  0.6899999999999999 0.01 0  0.7 0.01 0  0.71 0.01 0  0.72 0.01 0  0.73 0.01 0  0.74 0.01 0  0.75 0.01 0  0.76 0.01 0  0.77 0.01 0  0.78 0.01 0  0.79 0.01 0  0.8 0.01 0  0.8100000000000001 0.01 0  0.82 0.01 0  0.83 0.01 0  0.84 0.01 0  0.85 0.01 0  0.86 0.01 0  0.87 0.01 0  0.88 0.01 0  0.89 0.01 0  0.9 0.01 0  0.91 0.01 0  0.92 0.01 0  0.93 0.01 0  0.9399999999999999 0.01 0  0.95 0.01 0  0.96 0.01 0  0.97 0.01 0  0.98 0.01 0  0.99 0.01 0  1 0.01 0  0 0.02 0  0.01 0.02 0  0.02 0.02 0  0.03 0.02 0  0.04 0.02 0  0.05 0.02 0  0.06 0.02 0  0.07000000000000001 0.02 0  0.08 0.02 0  0.09 0.02 0  0.1 0.02 0  0.11 0.02 0  0.12 0.02 0  0.13 0.02 0  0.14 0.02 0  0.15 0.02 0  0.16 0.02 0  0.17 0.02 0  0.18 0.02 0  0.19 0.02 0  0.2 0.02 0  0.21 0.02 0  0.22 0.02 0  0.23 0.02 0  0.24 0.02 0  0.25 0.02 0  0.26 0.02 0  0.27 0.02 0  0.28 0.02 0  0.29 0.02 0  0.3 0.02 0  0.31 0.02 0  0.32 0.02 0  0.33 0.02 0  0.34 0.02 0  0.35 0.02 0  0.36 0.02 0  0.37 0.02 0  0.38 0.02 0  0.39 0.02 0  0.4 0.02 0  0.41 0.02 0  0.42 0.02 0  0.43 0.02 0  0.44 0.02 0  0.45 0.02 0  0.46 0.02 0  0.47 0.02 0  0.48 0.02 0  0.49 0.02 0  0.5 0.02 0  0.51 0.02 0  0.52 0.02 0  0.53 0.02 0  0.54 0.02 0  0.55 0.02 0  0.5600000000000001 0.02 0  0.57 0.02 0  0.58 0.02 0  0.59 0.02 0  0.6 0.02 0  0.61 0.02 0  0.62 0.02 0  0.63 0.02 0  0.64 0.02 0  0.65 0.02 0  0.66 0.02 0  0.67 0.02 0  0.68 0.02 0  0.6899999999999999 0.02 0  0.7 0.02 0  0.71 0.02 0  0.72 0.02 0  0.73 0.02 0  0.74 0.02 0  0.75 0.02 0  0.76 0.02 0  0.77 0.02 0  0.78 0.02 0  0.79 0.02 0  0.8 0.02 0  0.8100000000000001 0.02 0  0.82 0.02 0  0.83 0.02 0  0.84 0.02 0  0.85 0.02 0  0.86 0.02 0  0.87 0.02 0  0.88 0.02 0  0.89 0.02 0  0.9 0.02 0  0.91 0.02 0  0.92 0.02 0  0.93 0.02 0  0.9399999999999999 0.02 0  0.95 0.02 0  0.96 0.02 0  0.97 0.02 0  0.98 0.02 0  0.99 0.02 0  1 0.02 0  0 0.03 0  0.01 0.03 0  0.02 0.03 0  0.03 0.03 0  0.04 0.03 0  0.05 0.03 0  0.06 0.03 0  0.07000000000000001 0.03 0  0.08 0.03 0  0.09 0.03 0  0.1 0.03 0  0.11 0.03 0  0.12 0.03 0  0.13 0.03 0  0.14 0.03 0  0.15 0.03 0  0.16 0.03 0  0.17 0.03 0  0.18 0.03 0  0.19 0.03 0  0.2 0.03 0  0.21 0.03 0  0.22 0.03 0  0.23 0.03 0  0.24 0.03 0  0.25 0.03 0  0.26 0.03 0  0.27 0.03 0  0.28 0.03 0  0.29 0.03 0  0.3 0.03 0  0.31 0.03 0  0.32 0.03 0  0.33 0.03 0  0.34 0.03 0  0.35 0.03 0  0.36 0.03 0  0.37 0.03 0  0.38 0.03 0  0.39 0.03 0  0.4 0.03 0  0.41 0.03 0  0.42 0.03 0  0.43 0.03 0  0.44 0.03 0  0.45 0.03 0  0.46 0.03 0  0.47 0.03 0  0.48 0.03 0  0.49 0.03 0  0.5 0.03 0  0.51 0.03 0  0.52 0.03 0  0.53 0.03 0  0.54 0.03 0  0.55 0.03 0  0.5600000000000001 0.03 0  0.57 0.03 0  0.58 0.03 0  0.59 0.03 0  0.6 0.03 0  0.61 0.03 0  0.62 0.03 0  0.63 0.03 0  0.64 0.03 0  0.65 0.03 0  0.66 0.03 0  0.67 0.03 0  0.68 0.03 0  0.6899999999999999 0.03 0  0.7 0.03 0  0.71 0.03 0  0.72 0.03 0  0.73 0.03 0  0.74 0.03 0  0.75 0.03 0  0.76 0.03 0  0.77 0.03 0  0.78 0.03 0  0.79 0.03 0  0.8 0.03 0  0.8100000000000001 0.03 0  0.82 0.03 0  0.83 0.03 0  0.84 0.03 0  0.85 0.03 0  0.86 0.03 0  0.87 0.03 0  0.88 0.03 0  0.89 0.03 0  0.9 0.03 0  0.91 0.03 0  0.92 0.03 0  0.93 0.03 0  0.9399999999999999 0.03 0  0.95 0.03 0  0.96 0.03 0  0.97 0.03 0  0.98 0.03 0  0.99 0.03 0  1 0.03 0  0 0.04 0  0.01 0.04 0  0.02 0.04 0  0.03 0.04 0  0.04 0.04 0  0.05 0.04 0  0.06 0.04 0  0.07000000000000001 0.04 0  0.08 0.04 0  0.09 0.04 0  0.1 0.04 0  0.11 0.04 0  0.12 0.04 0  0.13 0.04 0  0.14 0.04 0  0.15 0.04 0  0.16 0.04 0  0.17 0.04 0  0.18 0.04 0  0.19 0.04 0  0.2 0.04 0  0.21 0.04 0  0.22 0.04 0  0.23 0.04 0  0.24 0.04 0  0.25 0.04 0  0.26 0.04 0  0.27 0.04 0  0.28 0.04 0  0.29 0.04 0  0.3 0.04 0  0.31 0.04 0  0.32 0.04 0  0.33 0.04 0  0.34 0.04 0  0.35 0.04 0  0.36 0.04 0  0.37 0.04 0  0.38 0.04 0  0.39 0.04 0  0.4 0.04 0  0.41 0.04 0  0.42 0.04 0  0.43 0.04 0  0.44 0.04 0  0.45 0.04 0  0.46 0.04 0  0.47 0.04 0  0.48 0.04 0  0.49 0.04 0  0.5 0.04 0  0.51 0.04 0  0.52 0.04 0  0.53 0.04 0  0.54 0.04 0  0.55 0.04 0  0.5600000000000001 0.04 0  0.57 0.04 0  0.58 0.04 0  0.59 0.04 0  0.6 0.04 0  0.61 0.04 0  0.62 0.04 0  0.63 0.04 0  0.64 0.04 0  0.65 0.04 0  0.66 0.04 0  0.67 0.04 0  0.68 0.04 0  0.6899999999999999 0.04 0  0.7 0.04 0  0.71 0.04 0  0.72 0.04 0  0.73 0.04 0  0.74 0.04 0  0.75 0.04 0  0.76 0.04 0  0.77 0.04 0  0.78 0.04 0  0.79 0.04 0  0.8 0.04 0  0.8100000000000001 0.04 0  0.82 0.04 0  0.83 0.04 0  0.84 0.04 0  0.85 0.04 0  0.86 0.04 0  0.87 0.04 0  0.88 0.04 0  0.89 0.04 0  0.9 0.04 0  0.91 0.04 0  0.92 0.04 0  0.93 0.04 0  0.9399999999999999 0.04 0  0.95 0.04 0  0.96 0.04 0  0.97 0.04 0  0.98 0.04 0  0.99 0.04 0  1 0.04 0  0 0.05 0  0.01 0.05 0  0.02 0.05 0  0.03 0.05 0  0.04 0.05 0  0.05 0.05 0  0.06 0.05 0  0.07000000000000001 0.05 0  0.08 0.05 0  0.09 0.05 0  0.1 0.05 0  0.11 0.05 0  0.12 0.05 0  0.13 0.05 0  0.14 0.05 0  0.15 0.05 0  0.16 0.05 0  0.17 0.05 0  0.18 0.05 0  0.19 0.05 0  0.2 0.05 0  0.21 0.05 0  0.22 0.05 0  0.23 0.05 0  0.24 0.05 0  0.25 0.05 0  0.26 0.05 0  0.27 0.05 0  0.28 0.05 0  0.29 0.05 0  0.3 0.05 0  0.31 0.05 0  0.32 0.05 0  0.33 0.05 0  0.34 0.05 0  0.35 0.05 0  0.36 0.05 0  0.37 0.05 0  0.38 0.05 0  0.39 0.05 0  0.4 0.05 0  0.41 0.05 0  0.42 0.05 0  0.43 0.05 0  0.44 0.05 0  0.45 0.05 0  0.46 0.05 0  0.47 0.05 0  0.48 0.05 0  0.49 0.05 0  0.5 0.05 0  0.51 0.05 0  0.52 0.05 0  0.53 0.05 0  0.54 0.05 0  0.55 0.05 0  0.5600000000000001 0.05 0  0.57 0.05 0  0.58 0.05 0  0.59 0.05 0  0.6 0.05 0  0.61 0.05 0  0.62 0.05 0  0.63 0.05 0  0.64 0.05 0  0.65 0.05 0  0.66 0.05 0  0.67 0.05 0  0.68 0.05 0  0.6899999999999999 0.05 0  0.7 0.05 0  0.71 0.05 0  0.72 0.05 0  0.73 0.05 0  0.74 0.05 0  0.75 0.05 0  0.76 0.05 0  0.77 0.05 0  0.78 0.05 0  0.79 0.05 0  0.8 0.05 0  0.8100000000000001 0.05 0  0.82 0.05 0  0.83 0.05 0  0.84 0.05 0  0.85 0.05 0  0.86 0.05 0  0.87 0.05 0  0.88 0.05 0  0.89 0.05 0  0.9 0.05 0  0.91 0.05 0  0.92 0.05 0  0.93 0.05 0  0.9399999999999999 0.05 0  0.95 0.05 0  0.96 0.05 0  0.97 0.05 0  0.98 0.05 0  0.99 0.05 0  1 0.05 0  0 0.06 0  0.01 0.06 0  0.02 0.06 0  0.03 0.06 0  0.04 0.06 0  0.05 0.06 0  0.06 0.06 0  0.07000000000000001 0.06 0  0.08 0.06 0  0.09 0.06 0  0.1 0.06 0  0.11 0.06 0  0.12 0.06 0  0.13 0.06 0  0.14 0.06 0  0.15 0.06 0  0.16 0.06 0  0.17 0.06 0  0.18 0.06 0  0.19 0.06 0  0.2 0.06 0  0.21 0.06 0  0.22 0.06 0  0.23 0.06 0  0.24 0.06 0  0.25 0.06 0  0.26 0.06 0  0.27 0.06 0  0.28 0.06 0  0.29 0.06 0  0.3 0.06 0  0.31 0.06 0  0.32 0.06 0  0.33 0.06 0  0.34 0.06 0  0.35 0.06 0  0.36 0.06 0  0.37 0.06 0  0.38 0.06 0  0.39 0.06 0  0.4 0.06 0  0.41 0.06 0  0.42 0.06 0  0.43 0.06 0  0.44 0.06 0  0.45 0.06 0  0.46 0.06 0  0.47 0.06 0  0.48 0.06 0  0.49 0.06 0  0.5 0.06 0  0.51 0.06 0  0.52 0.06 0  0.53 0.06 0  0.54 0.06 0  0.55 0.06 0  0.5600000000000001 0.06 0  0.57 0.06 0  0.58 0.06 0  0.59 0.06 0  0.6 0.06 0  0.61 0.06 0  0.62 0.06 0  0.63 0.06 0  0.64 0.06 0  0.65 0.06 0  0.66 0.06 0  0.67 0.06 0  0.68 0.06 0  0.6899999999999999 0.06 0  0.7 0.06 0  0.71 0.06 0  0.72 0.06 0  0.73 0.06 0  0.74 0.06 0  0.75 0.06 0  0.76 0.06 0  0.77 0.06 0  0.78 0.06 0  0.79 0.06 0  0.8 0.06 0  0.8100000000000001 0.06 0  0.82 0.06 0  0.83 0.06 0  0.84 0.06 0  0.85 0.06 0  0.86 0.06 0  0.87 0.06 0  0.88 0.06 0  0.89 0.06 0  0.9 0.06 0  0.91 0.06 0  0.92 0.06 0  0.93 0.06 0  0.9399999999999999 0.06 0  0.95 0.06 0  0.96 0.06 0  0.97 0.06 0  0.98 0.06 0  0.99 0.06 0  1 0.06 0  0 0.07000000000000001 0  0.01 0.07000000000000001 0  0.02 0.07000000000000001 0  0.03 0.07000000000000001 0  0.04 0.07000000000000001 0  0.05 0.07000000000000001 0  0.06 0.07000000000000001 0  0.07000000000000001 0.07000000000000001 0  0.08 0.07000000000000001 0  0.09 0.07000000000000001 0  0.1 0.07000000000000001 0  0.11 0.07000000000000001 0  0.12 0.07000000000000001 0  0.13 0.07000000000000001 0  0.14 0.07000000000000001 0  0.15 0.07000000000000001 0  0.16 0.07000000000000001 0  0.17 0.07000
[...]
<PointData  Vectors="Displacement"> 
<DataArray  type="Float64"  Name="Displacement"  NumberOfComponents="3" format="ascii">0.0000000000000000e+00 0.0000000000000000e+00 0.0000000000000000e+00  2.0389733195026486e-06 1.3532964470265993e-06 0.0000000000000000e+00  3.8951891254180233e-06 3.6537726715373689e-06 0.0000000000000000e+00  5.6580179784268814e-06 7.1368670951465536e-06 0.0000000000000000e+00  7.3162247516561075e-06 1.1764886375350218e-05 0.0000000000000000e+00  8.8575478908531377e-06 1.7472707650223994e-05 0.0000000000000000e+00  1.0264128369330330e-05 2.4155115987244628e-05 0.0000000000000000e+00  1.1514162273841867e-05 3.1640073778663926e-05 0.0000000000000000e+00  1.2586090733655176e-05 3.9691854480149360e-05 0.0000000000000000e+00  1.3466028173828680e-05 4.8039981060613971e-05 0.0000000000000000e+00  1.4156860252366621e-05 5.6420447774297396e-05 0.0000000000000000e+00  1.4680194527319012e-05 6.4616710277593583e-05 0.0000000000000000e+00  1.5066882645974634e-05 7.2489918913715563e-05 0.0000000000000000e+00  1.5343260969833236e-05 7.9980707224653559e-05 0.0000000000000000e+00  1.5526354543539475e-05 8.7077782939426121e-05 0.0000000000000000e+00  1.5629491770944969e-05 9.3786514882587615e-05 0.0000000000000000e+00  1.5661328041601012e-05 1.0011930343118219e-04 0.0000000000000000e+00  1.5626610558831198e-05 1.0607116533544481e-04 0.0000000000000000e+00  1.5533661573612314e-05 1.1161935835197933e-04 0.0000000000000000e+00  1.5394383064687689e-05 1.1675163251691370e-04 0.0000000000000000e+00  1.5217101171872746e-05 1.2147291029802708e-04 0.0000000000000000e+00  1.5003997958774769e-05 1.2579288501153905e-04 0.0000000000000000e+00  1.4755932125107881e-05 1.2971518237785343e-04 0.0000000000000000e+00  1.4475069329846723e-05 1.3324311034329078e-04 0.0000000000000000e+00  1.4161523140081947e-05 1.3638420269731130e-04 0.0000000000000000e+00  1.3812190752987214e-05 1.3914074047752923e-04 0.0000000000000000e+00  1.3425579964920985e-05 1.4150220374734392e-04 0.0000000000000000e+00  1.3006106975383508e-05 1.4345319081256750e-04 0.0000000000000000e+00  1.2563312938018502e-05 1.4498599271061538e-04 0.0000000000000000e+00  1.2107579424842907e-05 1.4610591105885786e-04 0.0000000000000000e+00  1.1646313113156637e-05 1.4682858589681628e-04 0.0000000000000000e+00  1.1184518052745337e-05 1.4717208211393793e-04 0.0000000000000000e+00  1.0726721753644693e-05 1.4715409227342358e-04 0.0000000000000000e+00  1.0277509540939625e-05 1.4679278783082469e-04 0.0000000000000000e+00  9.8475032155481570e-06 1.4610238962419955e-04 0.0000000000000000e+00  9.4556665237601584e-06 1.4510110991786725e-04 0.0000000000000000e+00  9.1415975727704899e-06 1.4383228185884644e-04 0.0000000000000000e+00  8.9406683174863290e-06 1.4238124972467206e-04 0.0000000000000000e+00  8.8770034244917776e-06 1.4088779700113110e-04 0.0000000000000000e+00  8.8459206960200247e-06 1.3932038581118897e-04 0.0000000000000000e+00  8.6465744825449038e-06 1.3738381295069592e-04 0.0000000000000000e+00  1.1594788126865566e-05 1.3726427394968147e-04 0.0000000000000000e+00  1.4814157920941111e-05 1.3722863381250563e-04 0.0000000000000000e+00  1.8133681760340806e-05 1.3711345774378684e-04 0.0000000000000000e+00  2.1503155753750738e-05 1.3715310998908801e-04 0.0000000000000000e+00  2.4906177403281123e-05 1.3739148551754010e-04 0.0000000000000000e+00  2.8331699306356935e-05 1.3790291638407487e-04 0.0000000000000000e+00  3.1748897672522105e-05 1.3875665101274054e-04 0.0000000000000000e+00  3.5117630080642171e-05 1.3998072874793851e-04 0.0000000000000000e+00  3.8408247183160729e-05 1.4156269257107050e-04 0.0000000000000000e+00  4.1597924598475130e-05 1.4349601748826036e-04 0.0000000000000000e+00  4.4666222620571814e-05 1.4577151910722912e-04 0.0000000000000000e+00  4.7593077606150818e-05 1.4837856829485649e-04 0.0000000000000000e+00  5.0357661968436696e-05 1.5130346359372294e-04 0.0000000000000000e+00  5.2939562778790925e-05 1.5452552152563049e-04 0.0000000000000000e+00  5.5320175194710822e-05 1.5801768437086335e-04 0.0000000000000000e+00  5.7484526949999369e-05 1.6174589077830274e-04 0.0000000000000000e+00  5.9422579497872961e-05 1.6567123548910632e-04 0.0000000000000000e+00  6.1129396215390728e-05 1.6975274173997360e-04 0.0000000000000000e+00  6.2604797407482004e-05 1.7394897536091949e-04 0.0000000000000000e+00  6.3853193858429716e-05 1.7821872325077400e-04 0.0000000000000000e+00  6.4883564117054144e-05 1.8252191825619788e-04 0.0000000000000000e+00  6.5709314307351891e-05 1.8682087759071893e-04 0.0000000000000000e+00  6.6347915986129320e-05 1.9108156076022952e-04 0.0000000000000000e+00  6.6820318905991201e-05 1.9527470739635574e-04 0.0000000000000000e+00  6.7150130838510605e-05 1.9937683555668929e-04 0.0000000000000000e+00  6.7362555402427333e-05 2.0337103610157972e-04 0.0000000000000000e+00  6.7483083429577893e-05 2.0724749638737275e-04 0.0000000000000000e+00  6.7536003756043990e-05 2.1100356859956917e-04 0.0000000000000000e+00  6.7542970340195711e-05 2.1464309250835052e-04 0.0000000000000000e+00  6.7521936351684400e-05 2.1817496855922275e-04 0.0000000000000000e+00  6.7486652954505390e-05 2.2161131253009195e-04 0.0000000000000000e+00  6.7446738221058587e-05 2.2496562134476396e-04 0.0000000000000000e+00  6.7408175776790952e-05 2.2825126829723673e-04 0.0000000000000000e+00  6.7374048702195931e-05 2.3148046692244377e-04 0.0000000000000000e+00  6.7345332922327645e-05 2.3466369645135400e-04 0.0000000000000000e+00  6.7321627462101077e-05 2.3780950014125086e-04 0.0000000000000000e+00  6.7301756005295460e-05 2.4092454197776884e-04 0.0000000000000000e+00  6.7284219310801075e-05 2.4401381582382542e-04 0.0000000000000000e+00  6.7267506926645956e-05 2.4708092474688318e-04 0.0000000000000000e+00  6.7250291299663436e-05 2.5012837447574123e-04 0.0000000000000000e+00  6.7231531983026011e-05 2.5315784747986932e-04 0.0000000000000000e+00  6.7210516270544980e-05 2.5617044097830591e-04 0.0000000000000000e+00  6.7186858323726726e-05 2.5916686344858392e-04 0.0000000000000000e+00  6.7160473699857051e-05 2.6214759099108068e-04 0.0000000000000000e+00  6.7131541252960289e-05 2.6511298844677773e-04 0.0000000000000000e+00  6.7100460181638771e-05 2.6806340154483034e-04 0.0000000000000000e+00  6.7067806694029949e-05 2.7099922639511599e-04 0.0000000000000000e+00  6.7034292311419897e-05 2.7392096191922367e-04 0.0000000000000000e+00  6.7000724110060503e-05 2.7682924970915779e-04 0.0000000000000000e+00  6.6967966047512179e-05 2.7972490454024958e-04 0.0000000000000000e+00  6.6936899778454920e-05 2.8260893744934683e-04 0.0000000000000000e+00  6.6908382893261317e-05 2.8548257192734195e-04 0.0000000000000000e+00  6.6883202190455828e-05 2.8834725226508197e-04 0.0000000000000000e+00  6.6862019334496892e-05 2.9120464117458992e-04 0.0000000000000000e+00  6.6845306033902634e-05 2.9405660093227378e-04 0.0000000000000000e+00  6.6833265849726255e-05 2.9690514729134782e-04 0.0000000000000000e+00  6.6825740491858164e-05 2.9975235572469398e-04 0.0000000000000000e+00  6.6822101729936695e-05 3.0260017935526933e-04 0.0000000000000000e+00  6.6821142195904590e-05 3.0545009591513719e-04 0.0000000000000000e+00  6.6821063911925492e-05 3.0830249141942603e-04 0.0000000000000000e+00  0.0000000000000000e+00 0.0000000000000000e+00 0.0000000000000000e+00  4.7309609449952629e-07 8.2862369628151254e-07 0.0000000000000000e+00  1.1053014723912283e-06 3.1382400139072486e-06 0.0000000000000000e+00  1.6980561345898873e-06 6.6488235443611491e-06 0.0000000000000000e+00  2.2597998277507069e-06 1.1300862111902920e-05 0.0000000000000000e+00  2.8083771511365552e-06 1.7026355184871697e-05 0.0000000000000000e+00  3.3690941482445575e-06 2.3723016297148946e-05 0.0000000000000000e+00  3.9699309401435068e-06 3.1224334163777783e-05 0.0000000000000000e+00  4.6286210599731099e-06 3.9300534273336509e-05 0.0000000000000000e+00  5.3416639296976002e-06 4.7683959876982779e-05 0.0000000000000000e+00  6.0852214052766835e-06 5.6108542968296137e-05 0.0000000000000000e+00  6.8257006155597625e-06 6.4352906045349976e-05 0.0000000000000000e+00  7.5276229975198767e-06 7.2271863566424627e-05 0.0000000000000000e+00  8.1637836709656514e-06 7.9803577108456707e-05 0.0000000000000000e+00  8.7230069690095515e-06 8.6940053565236954e-05 0.0000000000000000e+00  9.1984374105415021e-06 9.3680478565256390e-05 0.0000000000000000e+00  9.6016587254904939e-06 1.0003971909602563e-04 0.0000000000000000e+00  9.9494320362152977e-06 1.0601680697659429e-04 0.0000000000000000e+00  1.0251640828439910e-05 1.1158627464300014e-04 0.0000000000000000e+00  1.0514056572458562e-05 1.1673528012695616e-04 0.0000000000000000e+00  1.0738866829868609e-05 1.2147149199086832e-04 0.0000000000000000e+00  1.0925252465106871e-05 1.2580721367909484e-04 0.0000000000000000e+00  1.1072446245264699e-05 1.2974485169942729e-04 0.0000000000000000e+00  1.1182278896917749e-05 1.3328621720565668e-04 0.0000000000000000e+00  1.1257574457417913e-05 1.3644060972603210e-04 0.0000000000000000e+00  1.1299894860827934e-05 1.3921227411749205e-04 0.0000000000000000e+00  1.1310762901650151e-05 1.4158947933108574e-04 0.0000000000000000e+00  1.1293313562806080e-05 1.4355403545138684e-04 0.0000000000000000e+00  1.1251822205242349e-05 1.4509669157588477e-04 0.0000000000000000e+00  1.1189880780232890e-05 1.4622325381377139e-04 0.0000000000000000e+00  1.1109116611412451e-05 1.4695078923972262e-04 0.0000000000000000e+00  1.1011023617824617e-05 1.4729790495036503e-04 0.0000000000000000e+00  1.0897732941255203e-05 1.4728263591512583e-04 0.0000000000000000e+00  1.0770437887313688e-05 1.4692405073766983e-04 0.0000000000000000e+00  1.0632097465258594e-05 1.4623375618127345e-04 0.0000000000000000e+00  1.0490067694896634e-05 1.4522535414018156e-04 0.0000000000000000e+00  1.0358225557866907e-05 1.4393532902374291e-04 0.0000000000000000e+00  1.0251513116461529e-05 1.4243032214027981e-04 0.0000000000000000e+00  1.0221468815214949e-05 1.4087535117227875e-04 0.0000000000000000e+00  1.0248910630292890e-05 1.3928648546002978e-04 0.0000000000000000e+00  1.0283238383600863e-05 1.3745450918506728e-04 0.0000000000000000e+00  1.1063535247264204e-05 1.3577455319406878e-04 0.0000000000000000e+00  1.4720637684951064e-05 1.3582591414556091e-04 0.0000000000000000e+00  1.8076251365031215e-05 1.3570629482159534e-04 0.0000000000000000e+00  2.1310451732886362e-05 1.3575216144431126e-04 0.0000000000000000e+00  2.4493142608249558e-05 1.3598652235804955e-04 0.0000000000000000e+00  2.7646213091023745e-05 1.3649695815201384e-04 0.0000000000000000e+00  3.0757540840571903e-05 1.3736466850631807e-04 0.0000000000000000e+00  3.3804128559490585e-05 1.3861855910278650e-04 0.0000000000000000e+00  3.6770056526878029e-05 1.4023826894735012e-04 0.0000000000000000e+00  3.9639398940286524e-05 1.4221734645552327e-04 0.0000000000000000e+00  4.2396319910888882e-05 1.4454606913708425e-04 0.0000000000000000e+00  4.5024723980804656e-05 1.4721404042094435e-04 0.0000000000000000e+00  4.7507984336830034e-05 1.5020801969810064e-04 0.0000000000000000e+00  4.9830371898126128e-05 1.5350679541568829e-04 0.0000000000000000e+00  5.1977867520789526e-05 1.5708242640680490e-04 0.0000000000000000e+00  5.3939545647833990e-05 1.6089909617719630e-04 0.0000000000000000e+00  5.5708325175562606e-05 1.6491582437281598e-04 0.0000000000000000e+00  5.7280906843432832e-05 1.6908972385936127e-04 0.0000000000000000e+00  5.8657536407441710e-05 1.7337763476474533e-04 0.0000000000000000e+00  5.9842002234290282e-05 1.7773660548791296e-04 0.0000000000000000e+00  6.0841663356954696e-05 1.8212481330378980e-04 0.0000000000000000e+00  6.1667329413002848e-05 1.8650289960606977e-04 0.0000000000000000e+00  6.2332968793356869e-05 1.9083532160557546e-04 0.0000000000000000e+00  6.2855253200420341e-05 1.9509157233614668e-04 0.0000000000000000e+00  6.3252921780413335e-05 1.9924727052463248e-04 0.0000000000000000e+00  6.3545957582404540e-05 2.0328504914995474e-04 0.0000000000000000e+00  6.3754573623103471e-05 2.0719517851096537e-04 0.0000000000000000e+00  6.3898070220779011e-05 2.1097569635010328e-04 0.0000000000000000e+00  6.3993766278430515e-05 2.1463166387794552e-04 0.0000000000000000e+00  6.4056232040832225e-05 2.1817354399609670e-04 0.0000000000000000e+00  6.4096940683821383e-05 2.2161511257908590e-04 0.0000000000000000e+00  6.4124318754046051e-05 2.2497141396686361e-04 0.0000000000000000e+00  6.4144088019407763e-05 2.2825712098123766e-04 0.0000000000000000e+00  6.4159766471833993e-05 2.3148544206373772e-04 0.0000000000000000e+00  6.4173213647539314e-05 2.3466755030267318e-04 0.0000000000000000e+00  6.4185140483281227e-05 2.3781242167737952e-04 0.0000000000000000e+00  6.4195539616886186e-05 2.4092694728159806e-04 0.0000000000000000e+00  6.4204020158634714e-05 2.4401619929811659e-04 0.0000000000000000e+00  6.4210049462853759e-05 2.4708376040078671e-04 0.0000000000000000e+00  6.4213114489303661e-05 2.5013205717987056e-04 0.0000000000000000e+00  6.4212819257168047e-05 2.5316266370460893e-04 0.0000000000000000e+00  6.4208934935163840e-05 2.5617655973688721e-04 0.0000000000000000e+00  6.4201417071160883e-05 2.5917434001605636e-04 0.0000000000000000e+00  6.4190401571893340e-05 2.6215637790336788e-04 0.0000000000000000e+00  6.4176188047772385e-05 2.6512295001439637e-04 0.0000000000000000e+00  6.4159216441107394e-05 2.6807432952929402e-04 0.0000000000000000e+00  6.4140040631465185e-05 2.7101085557547160e-04 0.0000000000000000e+00  6.4119300996461670e-05 2.7393298505287554e-04 0.0000000000000000e+00  6.4097696664927969e-05 2.7684133191540868e-04 0.0000000000000000e+00  6.4075957366758866e-05 2.7973669745986064e-04 0.0000000000000000e+00  6.4054814290551675e-05 2.8262009370659763e-04 0.0000000000000000e+00  6.4034969150046894e-05 2.8549276048266933e-04 0.0000000000000000e+00  6.4017060701225995e-05 2.8835617523334333e-04 0.0000000000000000e+00  6.4001628240686578e-05 2.9121205264975094e-04 0.0000000000000000e+00  6.3989072164302935e-05 2.9406232843809561e-04 0.0000000000000000e+00  6.3979612414131470e-05 2.9690911708316119e-04 0.0000000000000000e+00  6.3973246134703458e-05 2.9975462559118346e-04 0.0000000000000000e+00  6.3969704139593472e-05 3.0260099064758879e-04 0.0000000000000000e+00  6.3968394792922239e-05 3.0544997828450886e-04 0.0000000000000000e+00  6.3968276987740844e-05 3.0830241313544685e-04 0.0000000000000000e+00  0.0000000000000000e+00 0.0000000000000000e+00 0.0000000000000000e+00  -7.2738633304425376e-07 8.6982261824181669e-07 0.0000000000000000e+00  -1.3721140859322871e-06 3.0768215162874915e-06 0.0000000000000000e+00  -1.9141784634138355e-06 6.5580676746331497e-06 0.0000000000000000e+00  -2.4035550746950088e-06 1.1179486197326702e-05 0.0000000000000000e+00  -2.8476071623128474e-06 1.6869151763489221e-05 0.0000000000000000e+00  -3.2013614651724756e-06 2.3528455581301653e-05 0.0000000000000000e+00  -3.3618413477023651e-06 3.0988026370782567e-05 0.0000000000000000e+00  -3.2222985609830223e-06 3.9017403996876943e-05 0.0000000000000000e+00  -2.7282833515552166e-06 4.7356931984253706e-05 0.0000000000000000e+00  -1.9025960505784736e-06 5.5753473512233139e-05 0.0000000000000000e+00  -8.5676452142339635e-07 6.3996954404172015e-05 0.0000000000000000e+00  2.2764711232654312e-07 7.1935743011876656e-05 0.0000000000000000e+00  1.2231610495730818e-06 7.9489769404436210e-05 0.0000000000000000e+00  2.1254469688261194e-06 8.6654502952846770e-05 0.0000000000000000e+00  2.9344185220168757e-06 9.3424080595649246e-05 0.0000000000000000e+00  3.6651648452556620e-06 9.9802139763476309e-05 0.0000000000000000e+00  4.3675492642625566e-06 1.0579627889653697e-04 0.0000000000000000e+00  5.0585296641788552e-06 1.1138354765464944e-04 0.0000000000000000e+00  5.7240345438080620e-06 1.1654771006563245e-04 0.0000000000000000e+00  6.3502050050286772e-06 1.2129753069122596e-04 0.0000000000000000e+00  6.9357122810734067e-06 1.2565181147974598e-04 0.0000000000000000e+00  7.4793138326499139e-06 1.2961017880544143e-04 0.0000000000000000e+00  7.9774929641331389e-06 1.3316710236384598e-04 0.0000000000000000e+00  8.4339889729018735e-06 1.3633369472194646e-04 0.0000000000000000e+00  8.8587568768190898e-06 1.3912041830028911e-04 0.0000000000000000e+00  9.2584347838052486e-06 1.4151411007792998e-04 0.0000000000000000e+00  9.6353073077976901e-06 1.4349222812971453e-04 0.0000000000000000e+00  9.9887516739669985e-06 1.4504455874682465e-04 0.0000000000000000e+00  1.0316283446147893e-05 1.4617947595951358e-04 0.0000000000000000e+00  1.0612227334839424e-05 1.4691790493499108e-04 0.0000000000000000e+00  1.0870510725105793e-05 1.4727753573722657e-04 0.0000000000000000e+00  1.1090601974008085e-05 1.4727603388430826e-04 0.0000000000000000e+00  1.1270607490002274e-05 1.4693698114204528e-04 0.0000000000000000e+00  1.1406734364170218e-05 1.4626913655777876e-04 0.0000000000000000e+00  1.1496360243361513e-05 1.4527856419901478e-04 0.0000000000000000e+00  1.1540491309270068e-05 1.4399142387479765e-04 0.0000000000000000e+00  1.1547150702582459e-05 1.4245484214412779e-04 0.0000000000000000e+00  1.1554801801145316e-05 1.4078512447913123e-04 0.0000000000000000e+00  1.1621184160838193e-05 1.3897421994984888e-04 0.0000000000000000e+00  1.1809354314840393e-05 1.3704177184869826e-04 0.0000000000000000e+00  1.2268575489887951e-05 1.3508634312591066e-04 0.0000000000000000e+00  1.5507785617646074e-05 1.3448397719890550e-04 0.0000000000000000e+00  1.8394001882670090e-05 1.3435735519789637e-04 0.0000000000000000e+00  2.1296697441179920e-05 1.3444744551714165e-04 0.0000000000000000e+00  2.4194415115162828e-05 1.3467666474666014e-04 0.0000000000000000e+00  2.7080660934741590e-05 1.3518260624575550e-04 0.0000000000000000e+00  2.9922122743733562e-05 1.3607224407285844e-04 0.0000000000000000e+00  3.2686874281260993e-05 1.3736868004149582e-04 0.0000000000000000e+00  3.5367877904565466e-05 1.3902742653480569e-04 0.0000000000000000e+00  3.7956387930924953e-05 1.4105038794550980e-04 0.0000000000000000e+00  4.0441132701096979e-05 1.4342772635688293e-04 0.0000000000000000e+00  4.2809614808825821e-05 1.4615055150016040e-04 0.0000000000000000e+00  4.5047610617118240e-05 1.4920741551728342e-04 0.0000000000000000e+00  4.7141933830875347e-05 1.5257610795230711e-04 0.0000000000000000e+00  4.9080950273403068e-05 1.5622811633518401e-04 0.0000000000000000e+00  5.0856260071459305e-05 1.6012529460619684e-04 0.0000000000000000e+00  5.2463286002950105e-05 1.6422431893631627e-04 0.0000000000000000e+00  5.3900467754810792e-05 1.6848081682589071e-04 0.0000000000000000e+00  5.5168612861399336e-05 1.7285056015973986e-04 0.0000000000000000e+00  5.6271057686831241e-05 1.7728924209931999e-04 0.0000000000000000e+00  5.7213947511477165e-05 1.8175348259225486e-04 0.0000000000000000e+00  5.8006252039918131e-05 1.8620239433890973e-04 0.0000000000000000e+00  5.8659583387772154e-05 1.9059903804558850e-04 0.0000000000000000e+00  5.9187891443338954e-05 1.9491169444162799e-04 0.0000000000000000e+00  5.9607000505866088e-05 1.9911504969267433e-04 0.0000000000000000e+00  5.9933951550638824e-05 2.0319119984140943e-04 0.0000000000000000e+00  6.0186090364090094e-05 2.0713045302300074e-04 0.0000000000000000e+00  6.0379929478076841e-05 2.1093161498941777e-04 0.0000000000000000e+00  6.0530075024970447e-05 2.1460114416833558e-04 0.0000000000000000e+00  6.0648536263399171e-05 2.1815121524748125e-04 0.0000000000000000e+00  6.0744526102975373e-05 2.2159729287081140e-04 0.0000000000000000e+00  6.0824661209552814e-05 2.2495585709833937e-04 0.0000000000000000e+00  6.0893391743713065e-05 2.2824266665520863e-04 0.0000000000000000e+00  6.0953506860093357e-05 2.3147166876667590e-04 0.0000000000000000e+00  6.1006614411025521e-05 2.3465448402823982e-04 0.0000000000000000e+00  6.1053544134684277e-05 2.3780031761419859e-04 0.0000000000000000e+00  6.1094659266778086e-05 2.4091614059541287e-04 0.0000000000000000e+00  6.1130081660316332e-05 2.4400701207078797e-04 0.0000000000000000e+00  6.1159844423906506e-05 2.4707644994500019e-04 0.0000000000000000e+00  6.1183988327983879e-05 2.5012679258234924e-04 0.0000000000000000e+00  6.1202617090514160e-05 2.5315952026166945e-04 0.0000000