<?xml version="1.0"?>
<VTKFile type="UnstructuredGrid"  version="0.1"  >
<UnstructuredGrid>
<Piece  NumberOfPoints="5151" NumberOfCells="10000">
<Points>
<DataArray  type="Float64"  NumberOfComponents="3"  format="ascii">0 0 0  0.01 0 0  0.02 0 0  0.03 0 0  0.04 0 0  0.05 0 0  0.06 0 0  0.07000000000000001 0 0  0.08 0 0  0.09 0 0  0.1 0 0  0.11 0 0  0.12 0 0  0.13 0 0  0.14 0 0  0.15 0 0  0.16 0 0  0.17 0 0  0.18 0 0  0.19 0 0  0.2 0 0  0.21 0 0  0.22 0 0  0.23 0 0  0.24 0 0  0.25 0 0  0.26 0 0  0.27 0 0  0.28 0 0  0.29 0 0  0.3 0 0  0.31 0 0  0.32 0 0  0.33 0 0  0.34 0 0  0.35 0 0  0.36 0 0  0.37 0 0  0.38 0 0  0.39 0 0  0.4 0 0  0.41 0 0  0.42 0 0  0.43 0 0  0.44 0 0  0.45 0 0  0.46 0 0  0.47 0 0  0.48 0 0  0.49 0 0  0.5 0 0  0.51 0 0  0.52 0 0  0.53 0 0  0.54 0 0  0.55 0 0  0.5600000000000001 0 0  0.57 0 0  0.58 0 0  0.59 0 0  0.6 0 0  0.61 0 0  0.62 0 0  0.63 0 0  0.64 0 0  0.65 0 0  0.66 0 0  0.67 0 0  0.68 0 0  0.6899999999999999 0 0  0.7 0 0  0.71 0 0  0.72 0 0  0.73 0 0  0.74 0 0  0.75 0 0  0.76 0 0  0.77 0 0  0.78 0 0  0.79 0 0  0.8 0 0  0.8100000000000001 0 0  0.82 0 0  0.83 0 0  0.84 0 0  0.85 0 0  0.86 0 0  0.87 0 0  0.88 0 0  0.89 0 0  0.9 0 0  0.91 0 0  0.92 0 0  0.93 0 0  0.9399999999999999 0 0  0.95 0 0  0.96 0 0  0.97 0 0  0.98 0 0  0.99 0 0  1 0 0  0 0.01 0  0.01 0.01 0  0.02 0.01 0  0.03 0.01 0  0.04 0.01 0  0.05 0.01 0  0.06 0.01 0  0.07000000000000001 0.01 0  0.08 0.01 0  0.09 0.01 0  0.1 0.01 0  0.11 0.01 0  0.12 0.01 0  0.13 0.01 0  0.14 0.01 0  0.15 0.01 0  0.16 0.01 0  0.17 0.01 0  0.18 0.01 0  0.19 0.01 0  0.2 0.01 0  0.21 0.01 0  0.22 0.01 0  0.23 0.01 0  0.24 0.01 0  0.25 0.01 0  0.26 0.01 0  0.27 0.01 0  0.28 0.01 0  0.29 0.01 0  0.3 0.01 0  0.31 0.01 0  0.32 0.01 0  0.33 0.01 0  0.34 0.01 0  0.35 0.01 0  0.36 0.01 0  0.37 0.01 0  0.38 0.01 0  0.39 0.01 0  0.4 0.01 0  0.41 0.01 0  0.42 0.01 0  0.43 0.01 0  0.44 0.01 0  0.45 0.01 0  0.46 0.01 0  0.47 0.01 0  0.48 0.01 0  0.49 0.01 0  0.5 0.01 0  0.51 0.01 0  0.52 0.01 0  0.53 0.01 0  0.54 0.01 0  0.55 0.01 0  0.5600000000000001 0.01 0  0.57 0.01 0  0.58 0.01 0  0.59 0.01 0  0.6 0.01 0  0.61 0.01 0  0.62 0.01 0  0.63 0.01 0  0.64 0.01 0  0.65 0.01 0  0.66 0.01 0  0.67 0.01 0  0.68 0.01 0  0.6899999999999999 0.01 0  0.7 0.01 0  0.71 0.01 0  0.72 0.01 0  0.73 0.01 0  0.74 0.01 0  0.75 0.01 0  0.76 0.01 0  0.77 0.01 0  0.78 0.01 0  0.79 0.01 0  0.8 0.01 0  0.8100000000000001 0.01 0  0.82 0.01 0  0.83 0.01 0  0.84 0.01 0  0.85 0.01 0  0.86 0.01 0  0.87 0.01 0  0.88 0.01 0  0.89 0.01 0  0.9 0.01 0  0.91 0.01 0  0.92 0.01 0  0.93 0.01 0  0.9399999999999999 0.01 0  0.95 0.01 0  0.96 0.01 0  0.97 0.01 0  0.98 0.01 0  0.99 0.01 0  1 0.01 0  0 0.02 0  0.01 0.02 0  0.02 0.02 0  0.03 0.02 0  0.04 0.02 0  0.05 0.02 0  0.06 0.02 0  0.07000000000000001 0.02 0  0.08 0.02 0  0.09 0.02 0  0.1 0.02 0  0.11 0.02 0  0.12 0.02 0  0.13 0.02 0  0.14 0.02 0  0.15 0.02 0  0.16 0.02 0  0.17 0.02 0  0.18 0.02 0  0.19 0.02 0  0.2 0.02 0  0.21 0.02 0  0.22 0.02 0  0.23 0.02 0  0.24 0.02 0  0.25 0.02 0  0.26 0.02 0  0.27 0.02 0  0.28 0.02 0  0.29 0.02 0  0.3 0.02 0  0.31 0.02 0  0.32 0.02 0  0.33 0.02 0  0.34 0.02 0  0.35 0.02 0  0.36 0.02 0  0.37 0.02 0  0.38 0.02 0  0.39 0.02 0  0.4 0.02 0  0.41 0.02 0  0.42 0.02 0  0.43 0.02 0  0.44 0.02 0  0.45 0.02 0  0.46 0.02 0  0.47 0.02 0  0.48 0.02 0  0.49 0.02 0  0.5 0.02 0  0.51 0.02 0  0.52 0.02 0  0.53 0.02 0  0.54 0.02 0  0.55 0.02 0  0.5600000000000001 0.02 0  0.57 0.02 0  0.58 0.02 0  0.59 0.02 0  0.6 0.02 0  0.61 0.02 0  0.62 0.02 0  0.63 0.02 0  0.64 0.02 0  0.65 0.02 0  0.66 0.02 0  0.67 0.02 0  0.68 0.02 0  0.6899999999999999 0.02 0  0.7 0.02 0  0.71 0.02 0  0.72 0.02 0  0.73 0.02 0  0.74 0.02 0  0.75 0.02 0  0.76 0.02 0  0.77 0.02 0  0.78 0.02 0  0.79 0.02 0  0.8 0.02 0  0.8100000000000001 0.02 0  0.82 0.02 0  0.83 0.02 0  0.84 0.02 0  0.85 0.02 0  0.86 0.02 0  0.87 0.02 0  0.88 0.02 0  0.89 0.02 0  0.9 0.02 0  0.91 0.02 0  0.92 0.02 0  0.93 0.02 0  0.9399999999999999 0.02 0  0.95 0.02 0  0.96 0.02 0  0.97 0.02 0  0.98 0.02 0  0.99 0.02 0  1 0.02 0  0 0.03 0  0.01 0.03 0  0.02 0.03 0  0.03 0.03 0  0.04 0.03 0  0.05 0.03 0  0.06 0.03 0  0.07000000000000001 0.03 0  0.08 0.03 0  0.09 0.03 0  0.1 0.03 0  0.11 0.03 0  0.12 0.03 0  0.13 0.03 0  0.14 0.03 0  0.15 0.03 0  0.16 0.03 0  0.17 0.03 0  0.18 0.03 0  0.19 0.03 0  0.2 0.03 0  0.21 0.03 0  0.22 0.03 0  0.23 0.03 0  0.24 0.03 0  0.25 0.03 0  0.26 0.03 0  0.27 0.03 0  0.28 0.03 0  0.29 0.03 0  0.3 0.03 0  0.31 0.03 0  0.32 0.03 0  0.33 0.03 0  0.34 0.03 0  0.35 0.03 0  0.36 0.03 0  0.37 0.03 0  0.38 0.03 0  0.39 0.03 0  0.4 0.03 0  0.41 0.03 0  0.42 0.03 0  0.43 0.03 0  0.44 0.03 0  0.45 0.03 0  0.46 0.03 0  0.47 0.03 0  0.48 0.03 0  0.49 0.03 0  0.5 0.03 0  0.51 0.03 0  0.52 0.03 0  0.53 0.03 0  0.54 0.03 0  0.55 0.03 0  0.5600000000000001 0.03 0  0.57 0.03 0  0.58 0.03 0  0.59 0.03 0  0.6 0.03 0  0.61 0.03 0  0.62 0.03 0  0.63 0.03 0  0.64 0.03 0  0.65 0.03 0  0.66 0.03 0  0.67 0.03 0  0.68 0.03 0  0.6899999999999999 0.03 0  0.7 0.03 0  0.71 0.03 0  0.72 0.03 0  0.73 0.03 0  0.74 0.03 0  0.75 0.03 0  0.76 0.03 0  0.77 0.03 0  0.78 0.03 0  0.79 0.03 0  0.8 0.03 0  0.8100000000000001 0.03 0  0.82 0.03 0  0.83 0.03 0  0.84 0.03 0  0.85 0.03 0  0.86 0.03 0  0.87 0.03 0  0.88 0.03 0  0.89 0.03 0  0.9 0.03 0  0.91 0.03 0  0.92 0.03 0  0.93 0.03 0  0.9399999999999999 0.03 0  0.95 0.03 0  0.96 0.03 0  0.97 0.03 0  0.98 0.03 0  0.99 0.03 0  1 0.03 0  0 0.04 0  0.01 0.04 0  0.02 0.04 0  0.03 0.04 0  0.04 0.04 0  0.05 0.04 0  0.06 0.04 0  0.07000000000000001 0.04 0  0.08 0.04 0  0.09 0.04 0  0.1 0.04 0  0.11 0.04 0  0.12 0.04 0  0.13 0.04 0  0.14 0.04 0  0.15 0.04 0  0.16 0.04 0  0.17 0.04 0  0.18 0.04 0  0.19 0.04 0  0.2 0.04 0  0.21 0.04 0  0.22 0.04 0  0.23 0.04 0  0.24 0.04 0  0.25 0.04 0  0.26 0.04 0  0.27 0.04 0  0.28 0.04 0  0.29 0.04 0  0.3 0.04 0  0.31 0.04 0  0.32 0.04 0  0.33 0.04 0  0.34 0.04 0  0.35 0.04 0  0.36 0.04 0  0.37 0.04 0  0.38 0.04 0  0.39 0.04 0  0.4 0.04 0  0.41 0.04 0  0.42 0.04 0  0.43 0.04 0  0.44 0.04 0  0.45 0.04 0  0.46 0.04 0  0.47 0.04 0  0.48 0.04 0  0.49 0.04 0  0.5 0.04 0  0.51 0.04 0  0.52 0.04 0  0.53 0.04 0  0.54 0.04 0  0.55 0.04 0  0.5600000000000001 0.04 0  0.57 0.04 0  0.58 0.04 0  0.59 0.04 0  0.6 0.04 0  0.61 0.04 0  0.62 0.04 0  0.63 0.04 0  0.64 0.04 0  0.65 0.04 0  0.66 0.04 0  0.67 0.04 0  0.68 0.04 0  0.6899999999999999 0.04 0  0.7 0.04 0  0.71 0.04 0  0.72 0.04 0  0.73 0.04 0  0.74 0.04 0  0.75 0.04 0  0.76 0.04 0  0.77 0.04 0  0.78 0.04 0  0.79 0.04 0  0.8 0.04 0  0.8100000000000001 0.04 0  0.82 0.04 0  0.83 0.04 0  0.84 0.04 0  0.85 0.04 0  0.86 0.04 0  0.87 0.04 0  0.88 0.04 0  0.89 0.04 0  0.9 0.04 0  0.91 0.04 0  0.92 0.04 0  0.93 0.04 0  0.9399999999999999 0.04 0  0.95 0.04 0  0.96 0.04 0  0.97 0.04 0  0.98 0.04 0  0.99 0.04 0  1 0.04 0  0 0.05 0  0.01 0.05 0  0.02 0.05 0  0.03 0.05 0  0.04 0.05 0  0.05 0.05 0  0.06 0.05 0  0.07000000000000001 0.05 0  0.08 0.05 0  0.09 0.05 0  0.1 0.05 0  0.11 0.05 0  0.12 0.05 0  0.13 0.05 0  0.14 0.05 0  0.15 0.05 0  0.16 0.05 0  0.17 0.05 0  0.18 0.05 0  0.19 0.05 0  0.2 0.05 0  0.21 0.05 0  0.22 0.05 0  0.23 0.05 0  0.24 0.05 0  0.25 0.05 0  0.26 0.05 0  0.27 0.05 0  0.28 0.05 0  0.29 0.05 0  0.3 0.05 0  0.31 0.05 0  0.32 0.05 0  0.33 0.05 0  0.34 0.05 0  0.35 0.05 0  0.36 0.05 0  0.37 0.05 0  0.38 0.05 0  0.39 0.05 0  0.4 0.05 0  0.41 0.05 0  0.42 0.05 0  0.43 0.05 0  0.44 0.05 0  0.45 0.05 0  0.46 0.05 0  0.47 0.05 0  0.48 0.05 0  0.49 0.05 0  0.5 0.05 0  0.51 0.05 0  0.52 0.05 0  0.53 0.05 0  0.54 0.05 0  0.55 0.05 0  0.5600000000000001 0.05 0  0.57 0.05 0  0.58 0.05 0  0.59 0.05 0  0.6 0.05 0  0.61 0.05 0  0.62 0.05 0  0.63 0.05 0  0.64 0.05 0  0.65 0.05 0  0.66 0.05 0  0.67 0.05 0  0.68 0.05 0  0.6899999999999999 0.05 0  0.7 0.05 0  0.71 0.05 0  0.72 0.05 0  0.73 0.05 0  0.74 0.05 0  0.75 0.05 0  0.76 0.05 0  0.77 0.05 0  0.78 0.05 0  0.79 0.05 0  0.8 0.05 0  0.8100000000000001 0.05 0  0.82 0.05 0  0.83 0.05 0  0.84 0.05 0  0.85 0.05 0  0.86 0.05 0  0.87 0.05 0  0.88 0.05 0  0.89 0.05 0  0.9 0.05 0  0.91 0.05 0  0.92 0.05 0  0.93 0.05 0  0.9399999999999999 0.05 0  0.95 0.05 0  0.96 0.05 0  0.97 0.05 0  0.98 0.05 0  0.99 0.05 0  1 0.05 0  0 0.06 0  0.01 0.06 0  0.02 0.06 0  0.03 0.06 0  0.04 0.06 0  0.05 0.06 0  0.06 0.06 0  0.07000000000000001 0.06 0  0.08 0.06 0  0.09 0.06 0  0.1 0.06 0  0.11 0.06 0  0.12 0.06 0  0.13 0.06 0  0.14 0.06 0  0.15 0.06 0  0.16 0.06 0  0.17 0.06 0  0.18 0.06 0  0.19 0.06 0  0.2 0.06 0  0.21 0.06 0  0.22 0.06 0  0.23 0.06 0  0.24 0.06 0  0.25 0.06 0  0.26 0.06 0  0.27 0.06 0  0.28 0.06 0  0.29 0.06 0  0.3 0.06 0  0.31 0.06 0  0.32 0.06 0  0.33 0.06 0  0.34 0.06 0  0.35 0.06 0  0.36 0.06 0  0.37 0.06 0  0.38 0.06 0  0.39 0.06 0  0.4 0.06 0  0.41 0.06 0  0.42 0.06 0  0.43 0.06 0  0.44 0.06 0  0.45 0.06 0  0.46 0.06 0  0.47 0.06 0  0.48 0.06 0  0.49 0.06 0  0.5 0.06 0  0.51 0.06 0  0.52 0.06 0  0.53 0.06 0  0.54 0.06 0  0.55 0.06 0  0.5600000000000001 0.06 0  0.57 0.06 0  0.58 0.06 0  0.59 0.06 0  0.6 0.06 0  0.61 0.06 0  0.62 0.06 0  0.63 0.06 0  0.64 0.06 0  0.65 0.06 0  0.66 0.06 0  0.67 0.06 0  0.68 0.06 0  0.6899999999999999 0.06 0  0.7 0.06 0  0.71 0.06 0  0.72 0.06 0  0.73 0.06 0  0.74 0.06 0  0.75 0.06 0  0.76 0.06 0  0.77 0.06 0  0.78 0.06 0  0.79 0.06 0  0.8 0.06 0  0.8100000000000001 0.06 0  0.82 0.06 0  0.83 0.06 0  0.84 0.06 0  0.85 0.06 0  0.86 0.06 0  0.87 0.06 0  0.88 0.06 0  0.89 0.06 0  0.9 0.06 0  0.91 0.06 0  0.92 0.06 0  0.93 0.06 0  0.9399999999999999 0.06 0  0.95 0.06 0  0.96 0.06 0  0.97 0.06 0  0.98 0.06 0  0.99 0.06 0  1 0.06 0  0 0.07000000000000001 0  0.01 0.07000000000000001 0  0.02 0.07000000000000001 0  0.03 0.07000000000000001 0  0.04 0.07000000000000001 0  0.05 0.07000000000000001 0  0.06 0.07000000000000001 0  0.07000000000000001 0.07000000000000001 0  0.08 0.07000000000000001 0  0.09 0.07000000000000001 0  0.1 0.07000000000000001 0  0.11 0.07000000000000001 0  0.12 0.07000000000000001 0  0.13 0.07000000000000001 0  0.14 0.07000000000000001 0  0.15 0.07000000000000001 0  0.16 0.07000000000000001 0  0.17 0.07000
[...]
<PointData  Scalars="rho_bar"> 
<DataArray  type="Float64"  Name="rho_bar"  format="ascii">7.2928574819332337e-01  7.2771800125371067e-01  7.2589735885447659e-01  7.2345086540409009e-01  7.2031984411868299e-01  7.1654404610513889e-01  7.1220522338817938e-01  7.0740759632320227e-01  7.0227212257015936e-01  6.9693279660996199e-01  6.9153530313318090e-01  6.8623343343201970e-01  6.8118398594475071e-01  6.7653755265015580e-01  6.7242850215073935e-01  6.6896375933145624e-01  6.6621208693467437e-01  6.6418626240829759e-01  6.6282093562811240e-01  6.6195370923756114e-01  6.6132782232958942e-01  6.6061564161019359e-01  6.5945670950778268e-01  6.5749718500862875e-01  6.5442909763216872e-01  6.5003109237575740e-01  6.4422366263404196e-01  6.3712259940070326e-01  6.2901160639399145e-01  6.2025788927213388e-01  6.1125329391568584e-01  6.0234651703854747e-01  5.9372595866192868e-01  5.8536464893370710e-01  5.7702156796645154e-01  5.6827337612363005e-01  5.5858654606161440e-01  5.4743614790060657e-01  5.3444401172383038e-01  5.1943372145572608e-01  5.0244527008182660e-01  4.8366064962525379e-01  4.6320691298679428e-01  4.4115744492341291e-01  4.1762107519656022e-01  3.9278743740953531e-01  3.6695525697626064e-01  3.4058249029239662e-01  3.1426730709240036e-01  2.8858499793150871e-01  2.6393510865572201e-01  2.4055746926300253e-01  2.1858312149815640e-01  1.9807197987384720e-01  1.7903833280504136e-01  1.6146629981645075e-01  1.4531884717083271e-01  1.3054322350156072e-01  1.1707479677571071e-01  1.0484015054522418e-01  9.3760050959527289e-02  8.3752110302506844e-02  7.4733323077329453e-02  6.6621962975734347e-02  5.9339216676639377e-02  5.2810084347550003e-02  4.6964180668712385e-02  4.1735963307644675e-02  3.7064991404493437e-02  3.2895739298515719e-02  2.9177553789755308e-02  2.5864323404721161e-02  2.2914274833224606e-02  2.0289587149140160e-02  1.7956136684812829e-02  1.5883139895514244e-02  1.4042908925266951e-02  1.2410519435582724e-02  1.0963600221569071e-02  9.6820698931929811e-03  8.5479407560666437e-03  7.5451098136893107e-03  6.6591865774300318e-03  5.8773319259886299e-03  5.1881108776134768e-03  4.5813580313719742e-03  4.0480577015247470e-03  3.5802401998632299e-03  3.1708743429028690e-03  2.8137904342993834e-03  2.5035874346663409e-03  2.2355729716886457e-03  2.0056877525150177e-03  1.8104588936887164e-03  1.6469411189459356e-03  1.5126935393613996e-03  1.4057332131138271e-03  1.3245394648814732e-03  1.2680797103785091e-03  1.2360707320916283e-03  1.2299123292069585e-03  7.2181118356307350e-01  7.2104878250992221e-01  7.1939492227995361e-01  7.1694861852502068e-01  7.1375956767227533e-01  7.0989826535961886e-01  7.0545743663512828e-01  7.0054740909209989e-01  6.9529237836449309e-01  6.8982981793550024e-01  6.8430835279253721e-01  6.7888587299146730e-01  6.7372389086273510e-01  6.6897878456467907e-01  6.6478964884271874e-01  6.6126844968580911e-01  6.5848965060158360e-01  6.5647482768159138e-01  6.5516535470368209e-01  6.5440013209498360e-01  6.5391591373049496e-01  6.5337539514113596e-01  6.5240896723784014e-01  6.5065845110681231e-01  6.4781657737574649e-01  6.4366904364051469e-01  6.3814220082829387e-01  6.3134765763648515e-01  6.2356582636821922e-01  6.1516085704957912e-01  6.0651320266628339e-01  5.9796636006196480e-01  5.8971604992835058e-01  5.8174082707522101e-01  5.7379995268126116e-01  5.6546855811570029e-01  5.5621832504661783e-01  5.4553945197079012e-01  5.3306726392882930e-01  5.1863717864529280e-01  5.0227258586086754e-01  4.8412107084040046e-01  4.6429523789411875e-01  4.4285230075928261e-01  4.1988448683986213e-01  3.9556739242341971e-01  3.7017836943081844e-01  3.4414135140364877e-01  3.1802454093920757e-01  2.9240838498183108e-01  2.6771959985857186e-01  2.4422408511427901e-01  2.2207465340366250e-01  2.0134942651126428e-01  1.8207813165197298e-01  1.6425758190215473e-01  1.4786074126595605e-01  1.3284235425842827e-01  1.1914296621421333e-01  1.0669242282717838e-01  9.5413158989654495e-02  8.5223405360254426e-02  7.6039906976932817e-02  6.7780286639231330e-02  6.0364676949997566e-02  5.3716990218803912e-02  4.7765553243777126e-02  4.2443659220301043e-02  3.7689629069198760e-02  3.3446883356498876e-02  2.9663694652859861e-02  2.6293045841525718e-02  2.3292285874868552e-02  2.0622858798824171e-02  1.8249931345027844e-02  1.6142132727622636e-02  1.4271210195928457e-02  1.2611778853840247e-02  1.1141025876656102e-02  9.8384998767883196e-03  8.6858751506253759e-03  7.6667560549658013e-03  6.7664916293822151e-03  5.9720138368660964e-03  5.2716869513334827e-03  4.6551690856462798e-03  4.1132931410986697e-03  3.6379510755738110e-03  3.2220009341287414e-03  2.8591657411223726e-03  2.5439632729597665e-03  2.2716216662257006e-03  2.0380223207818416e-03  1.8396320131720198e-03  1.6734668528399319e-03  1.5370381141536996e-03  1.4283273471806933e-03  1.3457520392644729e-03  1.2881545851751081e-03  1.2547299419476590e-03  1.2447000325515754e-03  7.0196158836804934e-01  7.0137710581702506e-01  6.9976138425992374e-01  6.9721400480791096e-01  6.9382955708131089e-01  6.8970962760702792e-01  6.8496842174763295e-01  6.7972972605383253e-01  6.7412780693104046e-01  6.6830819342874970e-01  6.6242844585790361e-01  6.5665719788943355e-01  6.5117097244183786e-01  6.4614271450277194e-01  6.4172681301426904e-01  6.3804722279192527e-01  6.3519551426094001e-01  6.3321868278702664e-01  6.3208232148013699e-01  6.3162814853903870e-01  6.3157317597424356e-01  6.3154836549395077e-01  6.3115681177150529e-01  6.3002513249835768e-01  6.2784686339109452e-01  6.2442219857091830e-01  6.1970068000705825e-01  6.1380389028127369e-01  6.0700477612631065e-01  5.9965180748286406e-01  5.9210090895538237e-01  5.8467028762820439e-01  5.7756233532663126e-01  5.7076564246379580e-01  5.6403964604787638e-01  5.5695258792447144e-01  5.4898332169029673e-01  5.3966735061162452e-01  5.2868994735301988e-01  5.1591748045217767e-01  5.0135855912242910e-01  4.8507595665525810e-01  4.6711083359313477e-01  4.4746742885620577e-01  4.2619433459343498e-01  4.0342348693380226e-01  3.7937586363593662e-01  3.5439960436416479e-01  3.2898631791143518e-01  3.0369030269292657e-01  2.7898592280339235e-01  2.5521346573147602e-01  2.3259456444724425e-01  2.1126528312357518e-01  1.9130527280019602e-01  1.7275271908172565e-01  1.5561339578855055e-01  1.3986675505165630e-01  1.2547076446422126e-01  1.1236633754966972e-01  1.0048203083799095e-01  8.9738453044820435e-02  8.0052288400221702e-02  7.1339391315086001e-02  6.3517161073503234e-02  5.6506139640883281e-02  5.0231110467251046e-02  4.4621683215267799e-02  3.9612676097699202e-02  3.5144107680656400e-02  3.1161169194546298e-02  2.7613968367381746e-02  2.4457279264608035e-02  2.1650193668909828e-02  1.9155806716276782e-02  1.6940865048754607e-02  1.4975471189752150e-02  1.3232745866747895e-02  1.1688579268388731e-02  1.0321354840647274e-02  9.1117248974503275e-03  8.0423864222490191e-03  7.0978899008684307e-03  6.2644661447391614e-03  5.5298620788574874e-03  4.8831952937152820e-03  4.3148237583542810e-03  3.8162301477442850e-03  3.3799096333305455e-03  2.9992793837429897e-03  2.6685837861414410e-03  2.3828242566116395e-03  2.1376823403392161e-03  1.9294611458650403e-03  1.7550298664897833e-03  1.6117795265825810e-03  1.4975824226777052e-03  1.4107456980285904e-03  1.3499743569636612e-03  1.3142940218218463e-03  1.3028869102768850e-03  6.6864140735254152e-01  6.6809394420761192e-01  6.6639743580388844e-01  6.6363065338952820e-01  6.5991195606085029e-01  6.5537572265110566e-01  6.5016469763036711e-01  6.4442244322944298e-01  6.3829591095256555e-01  6.3194147222849317e-01  6.2552684041928275e-01  6.1923564664329345e-01  6.1326711071704687e-01  6.0782394651380145e-01  6.0308453701561360e-01  5.9918756013435859e-01  5.9624325506173459e-01  5.9434255486159893e-01  5.9349962797337774e-01  5.9356728096953137e-01  5.9423049032607778e-01  5.9506823365078387e-01  5.9564012172075331e-01  5.9555211431476596e-01  5.9450121639438769e-01  5.9230906840999653e-01  5.8895674911630713e-01  5.8458082392091260e-01  5.7943900841515938e-01  5.7385007084415418e-01  5.6813390455665480e-01  5.6257301327746667e-01  5.5736115540698505e-01  5.5250243803094201e-01  5.4775846867113953e-01  5.4269388746960612e-01  5.3680927032142089e-01  5.2970946385533257e-01  5.2114822898940627e-01  5.1102670726382848e-01  4.9931553090898784e-01  4.8599126019035516e-01  4.7099944066859178e-01  4.5426493529828743e-01  4.3576446863051321e-01  4.1555786989246069e-01  3.9377780027107717e-01  3.7066605557938476e-01  3.4660176828016598e-01  3.2206525602626623e-01  2.9754827282358837e-01  2.7348779312064575e-01  2.5021797490294967e-01  2.2797440908239588e-01  2.0692581964820744e-01  1.8718589579302899e-01  1.6882136835439226e-01  1.5185874530532095e-01  1.3628984887542758e-01  1.2207785267571454e-01  1.0916409655851346e-01  9.7475181558524027e-02  8.6928931887905514e-02  7.7439208325551290e-02  6.8919354671415287e-02  6.1284649711264134e-02  5.4453973556581874e-02  4.8350870947563900e-02  4.2904116417920232e-02  3.8048025380419036e-02  3.3722419979273104e-02  2.9872507872031998e-02  2.6448584230400970e-02  2.3405717659611806e-02  2.0703384862290196e-02  1.8305117457926005e-02  1.6178130416821510e-02  1.4293010335622155e-02  1.2623377662133015e-02  1.1145624282345489e-02  9.8386314579665089e-03  8.6835407009083626e-03  7.6635318465812794e-03  6.7636275217814136e-03  5.9705158425947006e-03  5.2723883763895214e-03  4.6587930901100675e-03  4.1205052412838852e-03  3.6494091596958158e-03  3.2383885262589314e-03  2.8812329922055496e-03  2.5725482182677359e-03  2.3076814490345719e-03  2.0826518573900054e-03  1.8940862869981407e-03  1.7391771584310458e-03  1.6156181517656802e-03  1.5215825037218915e-03  1.4556509613050598e-03  1.4167835457537159e-03  1.4042750714974048e-03  6.2113341610840034e-01  6.2060806007414904e-01  6.1876832841792673e-01  6.1569855102597326e-01  6.1155056465047208e-01  6.0650393291590565e-01  6.0074108720294284e-01  5.9443017323080327e-01  5.8773032467223607e-01  5.8080394623071163e-01  5.7382351476895233e-01  5.6698213931944241e-01  5.6050569871232037e-01  5.5463792625434061e-01  5.4959243596417362e-01  5.4551713900019483e-01  5.4252662058137557e-01  5.4075788063389285e-01  5.4030609184111755e-01  5.4105355684594669e-01  5.4265864322853086e-01  5.4464140050833876e-01  5.4651398032066412e-01  5.4786045434372144e-01  5.4839480966700060e-01  5.4795892166676807e-01  5.4655862091345486e-01  5.4432982314521250e-01  5.4150134066216471e-01  5.3834845821007837e-01  5.3514829398887787e-01  5.3214440255169537e-01  5.2950876267297220e-01  5.2725874917463156e-01  5.2516926599697267e-01  5.2281075578083103e-01  5.1972659763778195e-01  5.1560035745661026e-01  5.1025633465624354e-01  5.0360265252693615e-01  4.9557244204880746e-01  4.8606931242878859e-01  4.7495505810769689e-01  4.6207534952224938e-01  4.4731450265078160e-01  4.3063091225870292e-01  4.1204473695492316e-01  3.9166682439475564e-01  3.6974351860028765e-01  3.4664600065759393e-01  3.2282144403662377e-01  2.9874834190909005e-01  2.7488094972235599e-01  2.5159019935120447e-01  2.2917831916199066e-01  2.0787575639622927e-01  1.8784686481241059e-01  1.6919631969528137e-01  1.5197461709213192e-01  1.3618469327722371e-01  1.2179246155878817e-01  1.0873763504448414e-01  9.6943235025626448e-02  8.6322743751973963e-02  7.6785396753735177e-02  6.8239996854442875e-02  6.0597556016176196e-02  5.3773133798663872e-02  4.7686977554292534e-02  4.2265103229612071e-02  3.7439557103036973e-02  3.3148330947947995e-02  2.9335155227301572e-02  2.5949154364933859e-02  2.2944473878560755e-02  2.0279872328863451e-02  1.7918336164954359e-02  1.5826677150262349e-02  1.3975199197741619e-02  1.2337343205028353e-02  1.0889401886346486e-02  9.6102293429458554e-03  8.4809972171545032e-03  7.4849644540348793e-03  6.6072733472357413e-03  5.8347629993778984e-03  5.1558044695764992e-03  4.5601467250382804e-03  4.0387846462071608e-03  3.5838336079009720e-03  3.1884206452900926e-03  2.8465850586447397e-03  2.5531904486496898e-03  2.3038452578904196e-03  2.0948357640376888e-03  1.9230618899929706e-03  1.7859935522962255e-03  1.6816052908351930e-03  1.6083562306753478e-03  1.5651344234858969e-03  1.5512642766777837e-03  5.5986669615366946e-01  5.5939320583829644e-01  5.5741462238132222e-01  5.5404706591536479e-01  5.4949129173164613e-01  5.4399000345592086e-01  5.3777574961923091e-01  5.3104285595059997e-01  5.2395725946766747e-01  5.1667643442696265e-01  5.0936185580523585e-01  5.0220045515221556e-01  4.9543164669823631e-01  4.8934371493277468e-01  4.8419402141397194e-01  4.8013716534951445e-01  4.7727408485539718e-01  4.7574187214584562e-01  4.7570923194696896e-01  4.7711652307315461e-01  4.7965291415627170e-01  4.8283298929499452e-01  4.8615056088365149e-01  4.8915985556129560e-01  4.9159526798299952e-01  4.9331983141331326e-01  4.9433167344370593e-01  4.9474241285809795e-01  4.9473579150421232e-01  4.9453471193333048e-01  4.9436680425700713e-01  4.9443832437582796e-01  4.9489702605084246e-01  4.9576209972747443e-01  4.9682950677735987e-01  4.9770175365249908e-01  4.9797844934035385e-01  4.9741467963993702e-01  4.9586400075240938e-01  4.9323457698356182e-01  4.8943599823589129e-01  4.8433047676613861e-01  4.7771842714336404e-01  4.6938150799910738e-01  4.5912058981438397e-01  4.4677342831652234e-01  4.3222880976090605e-01  4.1545464734161802e-01  3.9655198016557314e-01  3.7576376328837829e-01  3.5344091331382604e-01  3.3002372886846182e-01  3.0600406491996829e-01  2.8187125302023913e-01  2.5808558274938698e-01  2.3503650945057747e-01  2.1303039865397588e-01  1.9229376522257785e-01  1.7297343687081909e-01  1.5514077155468645e-01  1.3880664707728585e-01  1.2393834292424662e-01  1.1047357784893838e-01  9.8331237573438673e-02  8.7419237564823657e-02  7.7640416986129321e-02  6.8896973675631246e-02  6.1093584641503093e-02  5.4139534515453336e-02  4.7949967518043049e-02  4.2446488606920581e-02  3.7557357128070318e-02  3.3217339963398256e-02  2.9367430602122907e-02  2.5954441782911730e-02  2.2930581727843437e-02  2.0252993133377126e-02  1.7883325329530263e-02  1.5787297391966666e-02  1.3934325675378820e-02  1.2297144090236486e-02  1.0851489450577227e-02  9.5757914041850710e-03  8.4509101401811487e-03  7.4598884308880176e-03  6.5877351003176387e-03  5.8212256262559553e-03  5.1487280652981558e-03  4.5600372278361669e-03  4.0462375053123079e-03  3.5995672432851495e-03  3.2133074776462857e-03  2.8816754477921556e-03  2.5997350868339256e-03  2.3633152047308108e-03  2.1689411516208771e-03  2.0137717834147239e-03  1.8955515482092608e-03  1.8125613493896729e-03  1.7635936340880140e-03  1.7479390482638033e-03  4.8770937370001005e-01  4.8731285108070665e-01  4.8528583279177306e-01  4.8177567789965969e-01  4.7703138661627265e-01  4.7136408840173138e-01  4.6505419019548228e-01  4.5831040379555449e-01  4.5129405608153339e-01  4.4414744043005083e-01  4.3701288068607286e-01  4.3005561788217483e-01  4.2350163596000046e-01  4.1764508657404437e-01  4.1277538468217734e-01  4.0905804155056313e-01  4.0658788911956462e-01  4.0547335806172824e-01  4.0584844308639562e-01  4.0770616782826846e-01  4.1083215045641586e-01  4.1486216557011352e-01  4.1937193668371192e-01  4.2391713778105383e-01  4.2821662498367385e-01  4.3214025426314095e-01  4.3566643339748673e-01  4.3886211048751550e-01  4.4185490422908003e-01  4.4480796178188542e-01  4.4789547708078126e-01  4.5128143663311110e-01  4.5508884524821508e-01  4.5932930319887716e-01  4.6382568735096974e-01  4.6822445487486092e-01  4.7218850021160491e-01  4.7549696773826128e-01  4.7801313047422389e-01  4.7963703206179892e-01  4.8027411819242466e-01  4.7978273093745177e-01  4.7793352076900641e-01  4.7446511738282360e-01  4.6912766434124836e-01  4.6165623255115285e-01  4.5179513557008044e-01  4.3937157513930403e-01  4.2434119114461022e-01  4.0681244003481748e-01  3.8700581149523988e-01  3.6525666271998442e-01  3.4200229397459903e-01  3.1775293600992849e-01  2.9306107714238810e-01  2.6846998600980515e-01  2.4446146736313437e-01  2.2143730254982227e-01  1.9969635898545013e-01  1.7942291224008944e-01  1.6070798236024608e-01  1.4357336710989910e-01  1.2799165187679204e-01  1.1390101107165962e-01  1.0121662013745918e-01  8.9839817580289208e-02  7.9665419362900974e-02  7.0587265852550707e-02  6.2502004694549695e-02  5.5311571899966577e-02  4.8924531517184761e-02  4.3256676321786890e-02  3.8231176489836378e-02  3.3778362948993099e-02  2.9835404798709685e-02  2.6345841321611763e-02  2.3259093299722540e-02  2.0529951737806494e-02  1.8118091002102092e-02  1.5987586245896048e-02  1.4106495213275127e-02  1.2446437460388248e-02  1.0982249477163860e-02  9.6916438205765284e-03  8.5549223167222035e-03  7.5547051075570242e-03  6.6756963445768628e-03  5.9044667096670722e-03  5.2292653242182229e-03  4.6398400154303429e-03  4.1272902224910903e-03  3.6839196539690533e-03  3.3031197089301435e-03  2.9792567332138065e-03  2.7075782869188897e-03  2.4841298100394503e-03  2.3056855381922902e-03  2.1696856645670093e-03  2.0741960185209096e-03  2.0178618640904768e-03  1.9999095714806421e-03  4.1058083004714041e-01  4.1024010612122969e-01  4.0832982486025476e-01  4.0498753472933441e-01  4.0046924332100914e-01  3.9511454514204608e-01  3.8922598571229994e-01  3.8301062842941669e-01  3.7661506683144236e-01  3.7016504950335555e-01  3.6378705412332552e-01  3.5762928076216555e-01  3.5188676085175452e-01  3.4680691011202441e-01  3.4264137850982340e-01  3.3956151279831132e-01  3.3766848175142633e-01  3.3705157949595216e-01  3.3779522443198157e-01  3.3990316354311106e-01  3.4325169025095059e-01  3.4761362651564809e-01  3.5270519146693452e-01  3.5820606255595583e-01  3.6385959553824132e-01  3.6953367698073397e-01  3.7518408213032506e-01  3.8083369987142296e-01  3.8655212268874195e-01  3.9244232754467462e-01  3.9862237316984944e-01  4.0520980524483208e-01  4.1229144445454985e-01  4.1986206252819724e-01  4.2776913638417646e-01  4.3570720640069321e-01  4.4337286990517571e-01  4.5054373300670120e-01  4.5706508111191213e-01  4.6282535125170865e-01  4.6773057065762946e-01  4.7165771137895657e-01  4.7439622547887905e-01  4.7567106459383124e-01  4.7521931651155203e-01  4.7272419076207056e-01  4.6781130428056911e-01  4.6018630938703886e-01  4.4967642859902679e-01  4.3625948331384851e-01  4.2001967061185164e-01  4.0114888234558416e-01  3.7995615516385911e-01  3.5685924399631119e-01  3.3237303203177526e-01  3.0708181184513428e-01  2.8158771028771878e-01  2.5648845077824195e-01  2.3229862711778423e-01  2.0937945593934471e-01  1.8795785240214091e-01  1.6815739913316585e-01  1.5002358733299220e-01  1.3354247828177634e-01  1.1865599737891869e-01  1.0527611350055195e-01  9.3296959407039831e-02  8.2604348550713705e-02  7.3082730866947734e-02  6.4619662274678524e-02  5.7108582542973831e-02  5.0450274933263629e-02  4.4553500923776232e-02  3.9335177077827160e-02  3.4720145729089734e-02  3.0640812174030942e-02  2.7036623278502953e-02  2.3853509591491958e-02  2.1043308496420120e-02  1.8563210215870145e-02  1.6375212221945514e-02  1.4445649576447115e-02  1.2744724470997263e-02  1.1246122521707879e-02  9.9266339025025629e-03  8.7658366908598406e-03  7.7457970896097064e-03  6.8508121763063545e-03  6.0671692987824908e-03  5.3829408228121267e-03  4.7877857936800315e-03  4.2727904835961998e-03  3.8303099110254687e-03  3.4538419522638511e-03  3.1379103555104594e-03  2.8779660363558715e-03  2.6703021864289936e-03  2.5119896109243116e-03  2.4008110079351652e-03  2.3352329399897393e-03  2.3143750872854133e-03  3.3593092608958147e-01  3.3558131529934393e-01  3.3392378306215259e-01  3.3105786313149993e-01  3.2718921616895741e-01  3.2260524246715666e-01  3.1757441524983110e-01  3.1229247220075118e-01  3.0689666215112460e-01  3.0150154318976369e-01  2.9622169976856372e-01  2.9118794223925931e-01  2.8656128590674346e-01  2.8253170914937992e-01  2.7929024037149885e-01  2.7698585186906144e-01  2.7572104623013871e-01  2.7557515975674773e-01  2.7660783209985906e-01  2.7882877583078053e-01  2.8217551790356876e-01  2.86521327073