<?xml version="1.0"?>
<VTKFile type="UnstructuredGrid"  version="0.1"  >
<UnstructuredGrid>
<Piece  NumberOfPoints="5151" NumberOfCells="10000">
<Points>
<DataArray  type="Float64"  NumberOfComponents="3"  format="ascii">0 0 0  0.01 0 0  0.02 0 0  0.03 0 0  0.04 0 0  0.05 0 0  0.06 0 0  0.07000000000000001 0 0  0.08 0 0  0.09 0 0  0.1 0 0  0.11 0 0  0.12 0 0  0.13 0 0  0.14 0 0  0.15 0 0  0.16 0 0  0.17 0 0  0.18 0 0  0.19 0 0  0.2 0 0  0.21 0 0  0.22 0 0  0.23 0 0  0.24 0 0  0.25 0 0  0.26 0 0  0.27 0 0  0.28 0 0  0.29 0 0  0.3 0 0  0.31 0 0  0.32 0 0  0.33 0 0  0.34 0 0  0.35 0 0  0.36 0 0  0.37 0 0  0.38 0 0  0.39 0 0  0.4 0 0  0.41 0 0  0.42 0 0  0.43 0 0  0.44 0 0  0.45 0 0  0.46 0 0  0.47 0 0  0.48 0 0  0.49 0 0  0.5 0 0  0.51 0 0  0.52 0 0  0.53 0 0  0.54 0 0  0.55 0 0  0.5600000000000001 0 0  0.57 0 0  0.58 0 0  0.59 0 0  0.6 0 0  0.61 0 0  0.62 0 0  0.63 0 0  0.64 0 0  0.65 0 0  0.66 0 0  0.67 0 0  0.68 0 0  0.6899999999999999 0 0  0.7 0 0  0.71 0 0  0.72 0 0  0.73 0 0  0.74 0 0  0.75 0 0  0.76 0 0  0.77 0 0  0.78 0 0  0.79 0 0  0.8 0 0  0.8100000000000001 0 0  0.82 0 0  0.83 0 0  0.84 0 0  0.85 0 0  0.86 0 0  0.87 0 0  0.88 0 0  0.89 0 0  0.9 0 0  0.91 0 0  0.92 0 0  0.93 0 0  0.9399999999999999 0 0  0.95 0 0  0.96 0 0  0.97 0 0  0.98 0 0  0.99 0 0  1 0 0  0 0.01 0  0.01 0.01 0  0.02 0.01 0  0.03 0.01 0  0.04 0.01 0  0.05 0.01 0  0.06 0.01 0  0.07000000000000001 0.01 0  0.08 0.01 0  0.09 0.01 0  0.1 0.01 0  0.11 0.01 0  0.12 0.01 0  0.13 0.01 0  0.14 0.01 0  0.15 0.01 0  0.16 0.01 0  0.17 0.01 0  0.18 0.01 0  0.19 0.01 0  0.2 0.01 0  0.21 0.01 0  0.22 0.01 0  0.23 0.01 0  0.24 0.01 0  0.25 0.01 0  0.26 0.01 0  0.27 0.01 0  0.28 0.01 0  0.29 0.01 0  0.3 0.01 0  0.31 0.01 0  0.32 0.01 0  0.33 0.01 0  0.34 0.01 0  0.35 0.01 0  0.36 0.01 0  0.37 0.01 0  0.38 0.01 0  0.39 0.01 0  0.4 0.01 0  0.41 0.01 0  0.42 0.01 0  0.43 0.01 0  0.44 0.01 0  0.45 0.01 0  0.46 0.01 0  0.47 0.01 0  0.48 0.01 0  0.49 0.01 0  0.5 0.01 0  0.51 0.01 0  0.52 0.01 0  0.53 0.01 0  0.54 0.01 0  0.55 0.01 0  0.5600000000000001 0.01 0  0.57 0.01 0  0.58 0.01 0  0.59 0.01 0  0.6 0.01 0  0.61 0.01 0  0.62 0.01 0  0.63 0.01 0  0.64 0.01 0  0.65 0.01 0  0.66 0.01 0  0.67 0.01 0  0.68 0.01 0  0.6899999999999999 0.01 0  0.7 0.01 0  0.71 0.01 0  0.72 0.01 0  0.73 0.01 0  0.74 0.01 0  0.75 0.01 0  0.76 0.01 0  0.77 0.01 0  0.78 0.01 0  0.79 0.01 0  0.8 0.01 0  0.8100000000000001 0.01 0  0.82 0.01 0  0.83 0.01 0  0.84 0.01 0  0.85 0.01 0  0.86 0.01 0  0.87 0.01 0  0.88 0.01 0  0.89 0.01 0  0.9 0.01 0  0.91 0.01 0  0.92 0.01 0  0.93 0.01 0  0.9399999999999999 0.01 0  0.95 0.01 0  0.96 0.01 0  0.97 0.01 0  0.98 0.01 0  0.99 0.01 0  1 0.01 0  0 0.02 0  0.01 0.02 0  0.02 0.02 0  0.03 0.02 0  0.04 0.02 0  0.05 0.02 0  0.06 0.02 0  0.07000000000000001 0.02 0  0.08 0.02 0  0.09 0.02 0  0.1 0.02 0  0.11 0.02 0  0.12 0.02 0  0.13 0.02 0  0.14 0.02 0  0.15 0.02 0  0.16 0.02 0  0.17 0.02 0  0.18 0.02 0  0.19 0.02 0  0.2 0.02 0  0.21 0.02 0  0.22 0.02 0  0.23 0.02 0  0.24 0.02 0  0.25 0.02 0  0.26 0.02 0  0.27 0.02 0  0.28 0.02 0  0.29 0.02 0  0.3 0.02 0  0.31 0.02 0  0.32 0.02 0  0.33 0.02 0  0.34 0.02 0  0.35 0.02 0  0.36 0.02 0  0.37 0.02 0  0.38 0.02 0  0.39 0.02 0  0.4 0.02 0  0.41 0.02 0  0.42 0.02 0  0.43 0.02 0  0.44 0.02 0  0.45 0.02 0  0.46 0.02 0  0.47 0.02 0  0.48 0.02 0  0.49 0.02 0  0.5 0.02 0  0.51 0.02 0  0.52 0.02 0  0.53 0.02 0  0.54 0.02 0  0.55 0.02 0  0.5600000000000001 0.02 0  0.57 0.02 0  0.58 0.02 0  0.59 0.02 0  0.6 0.02 0  0.61 0.02 0  0.62 0.02 0  0.63 0.02 0  0.64 0.02 0  0.65 0.02 0  0.66 0.02 0  0.67 0.02 0  0.68 0.02 0  0.6899999999999999 0.02 0  0.7 0.02 0  0.71 0.02 0  0.72 0.02 0  0.73 0.02 0  0.74 0.02 0  0.75 0.02 0  0.76 0.02 0  0.77 0.02 0  0.78 0.02 0  0.79 0.02 0  0.8 0.02 0  0.8100000000000001 0.02 0  0.82 0.02 0  0.83 0.02 0  0.84 0.02 0  0.85 0.02 0  0.86 0.02 0  0.87 0.02 0  0.88 0.02 0  0.89 0.02 0  0.9 0.02 0  0.91 0.02 0  0.92 0.02 0  0.93 0.02 0  0.9399999999999999 0.02 0  0.95 0.02 0  0.96 0.02 0  0.97 0.02 0  0.98 0.02 0  0.99 0.02 0  1 0.02 0  0 0.03 0  0.01 0.03 0  0.02 0.03 0  0.03 0.03 0  0.04 0.03 0  0.05 0.03 0  0.06 0.03 0  0.07000000000000001 0.03 0  0.08 0.03 0  0.09 0.03 0  0.1 0.03 0  0.11 0.03 0  0.12 0.03 0  0.13 0.03 0  0.14 0.03 0  0.15 0.03 0  0.16 0.03 0  0.17 0.03 0  0.18 0.03 0  0.19 0.03 0  0.2 0.03 0  0.21 0.03 0  0.22 0.03 0  0.23 0.03 0  0.24 0.03 0  0.25 0.03 0  0.26 0.03 0  0.27 0.03 0  0.28 0.03 0  0.29 0.03 0  0.3 0.03 0  0.31 0.03 0  0.32 0.03 0  0.33 0.03 0  0.34 0.03 0  0.35 0.03 0  0.36 0.03 0  0.37 0.03 0  0.38 0.03 0  0.39 0.03 0  0.4 0.03 0  0.41 0.03 0  0.42 0.03 0  0.43 0.03 0  0.44 0.03 0  0.45 0.03 0  0.46 0.03 0  0.47 0.03 0  0.48 0.03 0  0.49 0.03 0  0.5 0.03 0  0.51 0.03 0  0.52 0.03 0  0.53 0.03 0  0.54 0.03 0  0.55 0.03 0  0.5600000000000001 0.03 0  0.57 0.03 0  0.58 0.03 0  0.59 0.03 0  0.6 0.03 0  0.61 0.03 0  0.62 0.03 0  0.63 0.03 0  0.64 0.03 0  0.65 0.03 0  0.66 0.03 0  0.67 0.03 0  0.68 0.03 0  0.6899999999999999 0.03 0  0.7 0.03 0  0.71 0.03 0  0.72 0.03 0  0.73 0.03 0  0.74 0.03 0  0.75 0.03 0  0.76 0.03 0  0.77 0.03 0  0.78 0.03 0  0.79 0.03 0  0.8 0.03 0  0.8100000000000001 0.03 0  0.82 0.03 0  0.83 0.03 0  0.84 0.03 0  0.85 0.03 0  0.86 0.03 0  0.87 0.03 0  0.88 0.03 0  0.89 0.03 0  0.9 0.03 0  0.91 0.03 0  0.92 0.03 0  0.93 0.03 0  0.9399999999999999 0.03 0  0.95 0.03 0  0.96 0.03 0  0.97 0.03 0  0.98 0.03 0  0.99 0.03 0  1 0.03 0  0 0.04 0  0.01 0.04 0  0.02 0.04 0  0.03 0.04 0  0.04 0.04 0  0.05 0.04 0  0.06 0.04 0  0.07000000000000001 0.04 0  0.08 0.04 0  0.09 0.04 0  0.1 0.04 0  0.11 0.04 0  0.12 0.04 0  0.13 0.04 0  0.14 0.04 0  0.15 0.04 0  0.16 0.04 0  0.17 0.04 0  0.18 0.04 0  0.19 0.04 0  0.2 0.04 0  0.21 0.04 0  0.22 0.04 0  0.23 0.04 0  0.24 0.04 0  0.25 0.04 0  0.26 0.04 0  0.27 0.04 0  0.28 0.04 0  0.29 0.04 0  0.3 0.04 0  0.31 0.04 0  0.32 0.04 0  0.33 0.04 0  0.34 0.04 0  0.35 0.04 0  0.36 0.04 0  0.37 0.04 0  0.38 0.04 0  0.39 0.04 0  0.4 0.04 0  0.41 0.04 0  0.42 0.04 0  0.43 0.04 0  0.44 0.04 0  0.45 0.04 0  0.46 0.04 0  0.47 0.04 0  0.48 0.04 0  0.49 0.04 0  0.5 0.04 0  0.51 0.04 0  0.52 0.04 0  0.53 0.04 0  0.54 0.04 0  0.55 0.04 0  0.5600000000000001 0.04 0  0.57 0.04 0  0.58 0.04 0  0.59 0.04 0  0.6 0.04 0  0.61 0.04 0  0.62 0.04 0  0.63 0.04 0  0.64 0.04 0  0.65 0.04 0  0.66 0.04 0  0.67 0.04 0  0.68 0.04 0  0.6899999999999999 0.04 0  0.7 0.04 0  0.71 0.04 0  0.72 0.04 0  0.73 0.04 0  0.74 0.04 0  0.75 0.04 0  0.76 0.04 0  0.77 0.04 0  0.78 0.04 0  0.79 0.04 0  0.8 0.04 0  0.8100000000000001 0.04 0  0.82 0.04 0  0.83 0.04 0  0.84 0.04 0  0.85 0.04 0  0.86 0.04 0  0.87 0.04 0  0.88 0.04 0  0.89 0.04 0  0.9 0.04 0  0.91 0.04 0  0.92 0.04 0  0.93 0.04 0  0.9399999999999999 0.04 0  0.95 0.04 0  0.96 0.04 0  0.97 0.04 0  0.98 0.04 0  0.99 0.04 0  1 0.04 0  0 0.05 0  0.01 0.05 0  0.02 0.05 0  0.03 0.05 0  0.04 0.05 0  0.05 0.05 0  0.06 0.05 0  0.07000000000000001 0.05 0  0.08 0.05 0  0.09 0.05 0  0.1 0.05 0  0.11 0.05 0  0.12 0.05 0  0.13 0.05 0  0.14 0.05 0  0.15 0.05 0  0.16 0.05 0  0.17 0.05 0  0.18 0.05 0  0.19 0.05 0  0.2 0.05 0  0.21 0.05 0  0.22 0.05 0  0.23 0.05 0  0.24 0.05 0  0.25 0.05 0  0.26 0.05 0  0.27 0.05 0  0.28 0.05 0  0.29 0.05 0  0.3 0.05 0  0.31 0.05 0  0.32 0.05 0  0.33 0.05 0  0.34 0.05 0  0.35 0.05 0  0.36 0.05 0  0.37 0.05 0  0.38 0.05 0  0.39 0.05 0  0.4 0.05 0  0.41 0.05 0  0.42 0.05 0  0.43 0.05 0  0.44 0.05 0  0.45 0.05 0  0.46 0.05 0  0.47 0.05 0  0.48 0.05 0  0.49 0.05 0  0.5 0.05 0  0.51 0.05 0  0.52 0.05 0  0.53 0.05 0  0.54 0.05 0  0.55 0.05 0  0.5600000000000001 0.05 0  0.57 0.05 0  0.58 0.05 0  0.59 0.05 0  0.6 0.05 0  0.61 0.05 0  0.62 0.05 0  0.63 0.05 0  0.64 0.05 0  0.65 0.05 0  0.66 0.05 0  0.67 0.05 0  0.68 0.05 0  0.6899999999999999 0.05 0  0.7 0.05 0  0.71 0.05 0  0.72 0.05 0  0.73 0.05 0  0.74 0.05 0  0.75 0.05 0  0.76 0.05 0  0.77 0.05 0  0.78 0.05 0  0.79 0.05 0  0.8 0.05 0  0.8100000000000001 0.05 0  0.82 0.05 0  0.83 0.05 0  0.84 0.05 0  0.85 0.05 0  0.86 0.05 0  0.87 0.05 0  0.88 0.05 0  0.89 0.05 0  0.9 0.05 0  0.91 0.05 0  0.92 0.05 0  0.93 0.05 0  0.9399999999999999 0.05 0  0.95 0.05 0  0.96 0.05 0  0.97 0.05 0  0.98 0.05 0  0.99 0.05 0  1 0.05 0  0 0.06 0  0.01 0.06 0  0.02 0.06 0  0.03 0.06 0  0.04 0.06 0  0.05 0.06 0  0.06 0.06 0  0.07000000000000001 0.06 0  0.08 0.06 0  0.09 0.06 0  0.1 0.06 0  0.11 0.06 0  0.12 0.06 0  0.13 0.06 0  0.14 0.06 0  0.15 0.06 0  0.16 0.06 0  0.17 0.06 0  0.18 0.06 0  0.19 0.06 0  0.2 0.06 0  0.21 0.06 0  0.22 0.06 0  0.23 0.06 0  0.24 0.06 0  0.25 0.06 0  0.26 0.06 0  0.27 0.06 0  0.28 0.06 0  0.29 0.06 0  0.3 0.06 0  0.31 0.06 0  0.32 0.06 0  0.33 0.06 0  0.34 0.06 0  0.35 0.06 0  0.36 0.06 0  0.37 0.06 0  0.38 0.06 0  0.39 0.06 0  0.4 0.06 0  0.41 0.06 0  0.42 0.06 0  0.43 0.06 0  0.44 0.06 0  0.45 0.06 0  0.46 0.06 0  0.47 0.06 0  0.48 0.06 0  0.49 0.06 0  0.5 0.06 0  0.51 0.06 0  0.52 0.06 0  0.53 0.06 0  0.54 0.06 0  0.55 0.06 0  0.5600000000000001 0.06 0  0.57 0.06 0  0.58 0.06 0  0.59 0.06 0  0.6 0.06 0  0.61 0.06 0  0.62 0.06 0  0.63 0.06 0  0.64 0.06 0  0.65 0.06 0  0.66 0.06 0  0.67 0.06 0  0.68 0.06 0  0.6899999999999999 0.06 0  0.7 0.06 0  0.71 0.06 0  0.72 0.06 0  0.73 0.06 0  0.74 0.06 0  0.75 0.06 0  0.76 0.06 0  0.77 0.06 0  0.78 0.06 0  0.79 0.06 0  0.8 0.06 0  0.8100000000000001 0.06 0  0.82 0.06 0  0.83 0.06 0  0.84 0.06 0  0.85 0.06 0  0.86 0.06 0  0.87 0.06 0  0.88 0.06 0  0.89 0.06 0  0.9 0.06 0  0.91 0.06 0  0.92 0.06 0  0.93 0.06 0  0.9399999999999999 0.06 0  0.95 0.06 0  0.96 0.06 0  0.97 0.06 0  0.98 0.06 0  0.99 0.06 0  1 0.06 0  0 0.07000000000000001 0  0.01 0.07000000000000001 0  0.02 0.07000000000000001 0  0.03 0.07000000000000001 0  0.04 0.07000000000000001 0  0.05 0.07000000000000001 0  0.06 0.07000000000000001 0  0.07000000000000001 0.07000000000000001 0  0.08 0.07000000000000001 0  0.09 0.07000000000000001 0  0.1 0.07000000000000001 0  0.11 0.07000000000000001 0  0.12 0.07000000000000001 0  0.13 0.07000000000000001 0  0.14 0.07000000000000001 0  0.15 0.07000000000000001 0  0.16 0.07000000000000001 0  0.17 0.07000
[...]
<PointData  Scalars="rho_bar"> 
<DataArray  type="Float64"  Name="rho_bar"  format="ascii">9.9024367611364883e-01  9.9532131385399780e-01  9.9419841919883922e-01  9.9648995121259309e-01  9.9892312125784166e-01  1.0013073925223237e+00  1.0029585929639635e+00  1.0038274899581083e+00  1.0038815667552980e+00  1.0030687865572621e+00  1.0012852237931589e+00  9.9846240567175759e-01  9.9546891233240675e-01  9.9389506911677505e-01  9.9420604440342841e-01  9.9560368368514007e-01  9.9720383403388513e-01  9.9842554219484714e-01  9.9922251838453557e-01  9.9993509150128779e-01  1.0006918039055488e+00  1.0013151249978418e+00  1.0016540237870488e+00  1.0017291987227872e+00  1.0016242277049068e+00  1.0013811537924286e+00  1.0010215020415894e+00  1.0006328821799466e+00  1.0002768686541794e+00  9.9990197365608113e-01  9.9961467727239961e-01  9.9966220219567548e-01  9.9993443440549812e-01  1.0000534261608449e+00  1.0000454910385006e+00  1.0001320776520237e+00  9.9790273232016757e-01  1.0147226067020805e+00  9.2774020912142463e-01  1.2504676009984748e+00  7.3130424993478271e-02  7.4145899260095311e-04  -7.5481344548626855e-04  -2.4924823729852243e-05  7.6870170170420968e-05  -1.1261113120275711e-04  5.2346603252463699e-05  1.2436350524341130e-05  -4.2954989771580841e-06  -4.4809611909859167e-06  4.5678806801040753e-07  9.1886327361416747e-07  -1.8781416922867081e-07  -1.3747216009025914e-07  6.7976619945278375e-08  2.3306579592060848e-09  -1.1959130509508767e-08  4.4218588610796049e-09  -8.7949796863518556e-11  -6.2333790754005857e-10  3.2111139564148937e-10  -7.6721374612650389e-11  -3.8532898276975837e-12  1.2688567762599173e-11  -6.7257828478222242e-12  2.2644820137997592e-12  -4.9009258825640857e-13  1.7159108884321524e-14  4.6635246701859823e-14  -2.9549924133494386e-14  1.2454788269397295e-14  -4.2703514302678800e-15  1.2552000671118770e-15  -3.1773141476004003e-16  6.6149683308819143e-17  -9.0737625545699916e-18  -6.9804333400040658e-19  1.1896801736633624e-18  -6.1526893635816116e-19  2.4720256034802113e-19  -8.7784032598535856e-20  2.8777441484962580e-20  -8.8667186718900814e-21  2.5839850429768624e-21  -7.1123002946488951e-22  1.8312219178059154e-22  -4.3079025512621787e-23  8.7314024967054981e-24  -1.2410738788996572e-24  -5.4338913195747200e-26  1.4101931437527450e-25  -7.6594376355095691e-26  3.1746317440818513e-26  -1.1543272985480650e-26  3.8543936644398393e-27  -1.2095795864332982e-27  3.4744629206080555e-28  -1.0274947965077634e-28  2.1916148172186585e-29  -6.6456773304888893e-30  3.0371841240136627e-30  1.0245924624010041e+00  1.0095557542857225e+00  1.0122592471106935e+00  1.0092398499309922e+00  1.0047295073801883e+00  9.9960242778908326e-01  9.9553449142815087e-01  9.9302221775956112e-01  9.9207513266171932e-01  9.9283190482661765e-01  9.9537820944981981e-01  1.0000004079488511e+00  1.0062352224958226e+00  1.0111792506793931e+00  1.0122980353462929e+00  1.0103344413630282e+00  1.0071495621906419e+00  1.0042243200809449e+00  1.0022858759637037e+00  1.0008662515249940e+00  9.9937131259626788e-01  9.9792816733040779e-01  9.9695354377816592e-01  9.9656222297474029e-01  9.9661105509784298e-01  9.9696108552300844e-01  9.9757258822284200e-01  9.9835588766425731e-01  9.9909628044695775e-01  9.9980568567189987e-01  1.0005426203962311e+00  1.0008312598604867e+00  1.0004075777133983e+00  9.9993130489173288e-01  9.9991845390360612e-01  9.9985232107420874e-01  1.0007773342892006e+00  9.9808712654741671e-01  9.9492357658346897e-01  1.0892153527271533e+00  3.0962616178122299e-01  -3.6998206870267891e-02  1.0096094353183596e-03  8.9795155020368981e-04  -4.8420219357047544e-04  3.2235968323037753e-04  -4.9134675965822759e-05  -5.7817743441022698e-05  -3.5168602691151947e-06  1.2425662533915192e-05  2.9365764936163958e-06  -2.5258917389617429e-06  -3.6518503127162910e-07  5.3793198219568721e-07  -6.5596727283213318e-08  -7.0762381487095297e-08  3.5761662891592198e-08  -3.2605297732088128e-09  -3.9815066568439034e-09  2.3460955706646842e-09  -5.9266264743349329e-10  -2.0641898414620698e-11  9.2176969345676025e-11  -4.8600696437557625e-11  1.5824529487519988e-11  -3.1237058322527724e-12  -6.1802491107194281e-14  3.9125969453437984e-13  -2.2100835041006983e-13  8.7298017929077310e-14  -2.8193263014222225e-14  7.7390359879114580e-15  -1.7829758653624011e-15  3.1141708654072850e-16  -1.8897717470956068e-17  -1.6148743798196424e-17  1.0644211474497023e-17  -4.6080402820424842e-18  1.6956558962316797e-18  -5.6829045416288726e-19  1.7820925759717206e-19  -5.2847160718056210e-20  1.4840211898381880e-20  -3.9207691466811952e-21  9.5778836842809194e-22  -2.0765189741214955e-22  3.5439849559130512e-23  -2.1295701599136430e-24  -1.9045876344421363e-24  1.2892774793862319e-24  -5.7623345753679839e-25  2.1864215918639595e-25  -7.5241846029155256e-26  2.4071718376987832e-26  -7.2422549731752326e-27  2.0555002658126180e-27  -5.2768148476304491e-28  1.4150714162266523e-28  -1.7939922786832142e-29  6.8890567609049812e-30  5.7130908246156553e-31  9.1449004720637461e-01  9.6429989488061563e-01  9.5594872029801825e-01  9.6218023836756117e-01  9.7470319283044526e-01  9.9266383419409321e-01  1.0092260864396154e+00  1.0206746600186434e+00  1.0267937887230771e+00  1.0271889533210763e+00  1.0214124412265975e+00  1.0091290027309909e+00  9.8950542781361561e-01  9.6797108038906998e-01  9.5705559674978202e-01  9.5954113085285331e-01  9.6919479054716229e-01  9.8054151521281330e-01  9.8904773307457206e-01  9.9449837201301405e-01  9.9948931741890912e-01  1.0048614914175535e+00  1.0092377187100745e+00  1.0115814792381097e+00  1.0120973613834450e+00  1.0113595730314289e+00  1.0096848889753030e+00  1.0071599526470980e+00  1.0043814684659675e+00  1.0019695246767029e+00  9.9937861813560436e-01  9.9721206302454912e-01  9.9757330023386126e-01  9.9962203213166823e-01  1.0004762463339392e+00  1.0001304870781460e+00  9.9988222958986472e-01  9.9947950703666211e-01  1.0036714789468109e+00  9.9700880503072553e-01  8.3547853194317412e-01  -1.6491698506682106e-01  3.8054335202583875e-02  -7.9814190363601545e-03  2.8480737965383136e-03  -1.2151170178758815e-03  -1.4996324815537432e-04  2.4049389218780469e-04  9.4281150919998545e-05  -3.5928759945207273e-05  -2.9268471314641088e-05  5.7734146809647692e-06  5.4348929488363473e-06  -1.9868721088260122e-06  -4.8465169647433813e-07  4.8055799961000677e-07  -9.6455924200298267e-08  -3.4462669338648000e-08  2.9782963391581714e-08  -9.3133983121902451e-09  5.2228189688310825e-10  1.0104668273663577e-09  -6.3051977981965484e-10  2.2727522303812478e-10  -5.2507821180876564e-11  3.3222616107900700e-12  4.1185472203362564e-12  -2.7896755615180503e-12  1.1978617152011216e-12  -4.1416368079034484e-13  1.2249186407180599e-13  -3.1274204039364206e-14  6.6317901523506442e-15  -9.6923667147241653e-16  -3.4860917290435393e-17  1.0456061082486065e-16  -5.6490562793472223e-17  2.3153883915299351e-17  -8.3371464334361015e-18  2.7651305549461879e-18  -8.6118660778757464e-19  2.5365014933599982e-19  -7.0610063409643827e-20  1.8425999071017237e-20  -4.4166508288268046e-21  9.2558664883962164e-22  -1.4479564466964775e-22  1.8948486189579587e-24  1.1694933431751826e-23  -6.9174435623774394e-24  2.9580125701343827e-24  -1.0952118646657474e-24  3.7040927509314575e-25  -1.1682401756732064e-25  3.4674763852386618e-26  -9.6595733350947552e-27  2.4516941201507788e-27  -6.2047932463529828e-28  7.2361070039154260e-29  -3.2284400223141796e-29  -6.9517974796152327e-30  1.2658744347581510e+00  1.1469536419946718e+00  1.1625985371393770e+00  1.1533194576303274e+00  1.1212751004064638e+00  1.0613365638898344e+00  9.9364887298344062e-01  9.4090922236591346e-01  9.0754347017397063e-01  8.9452621232005092e-01  9.0466852951563126e-01  9.3865995608954100e-01  9.9804861069319073e-01  1.0805366613262066e+00  1.1472556465007535e+00  1.1592825162110727e+00  1.1345430930398499e+00  1.0927072024095119e+00  1.0544225717012261e+00  1.0297392882659901e+00  1.0115806809294892e+00  9.9188574095070103e-01  9.7291869216672011e-01  9.6033026945672073e-01  9.5532998835671079e-01  9.5597150382535834e-01  9.6051666271335878e-01  9.6832080199138237e-01  9.7872464785141788e-01  9.8840489547842780e-01  9.9711590353896085e-01  1.0070824937853042e+00  1.0113193293975604e+00  1.0051679364468096e+00  9.9871144157634817e-01  9.9882880240228733e-01  1.0002590242052740e+00  1.0002079486634157e+00  1.0004968363684481e+00  9.8797386347991478e-01  1.0976290304131104e+00  2.4414501536440278e-01  -3.5124519067184522e-02  1.5940961348440155e-02  -1.0861939559333096e-02  2.5562861186192685e-03  2.1981479841196500e-03  -5.9697037594900581e-04  -6.8335846050250040e-04  -2.5558973547983096e-05  1.6721005134920496e-04  2.3193882775352454e-05  -3.4411477249990971e-05  9.0665375506749952e-07  5.8915906946025055e-06  -1.9497016614529451e-06  -2.1617960676215068e-07  3.8382054028808422e-07  -1.4287269656586271e-07  1.5193020297263396e-08  1.2017535373592479e-08  -8.6017281932984301e-09  3.2604696578849419e-09  -7.8662810030255042e-10  6.2428090166214390e-11  5.4797519220167830e-11  -3.9042638579635181e-11  1.6984277531705581e-11  -5.8920903015618430e-12  1.7385079085392147e-12  -4.4016907058907277e-13  9.1551016073090783e-14  -1.2575219034751372e-14  -9.2814129106493471e-16  1.6181908636609003e-15  -8.3686866834050425e-16  3.3590294474440035e-16  -1.1916953040002760e-16  3.9037764942685222e-17  -1.2021516426503357e-17  3.5017006959811075e-18  -9.6328055697213122e-19  2.4781423527423836e-19  -5.8223054403716624e-20  1.1774331464383148e-20  -1.6630314330260713e-21  -7.9178457531149343e-23  1.9268287594347527e-22  -1.0426153581854397e-22  4.3148687965808248e-23  -1.5681662438373909e-23  5.2331984227613606e-24  -1.6327577816440007e-24  4.7893770016095271e-25  -1.3190750605039571e-25  3.3513050434678035e-26  -7.4953136892842846e-27  1.5373828470600908e-27  4.7612253702145757e-29  4.7417832085535427e-29  9.1930162719703457e-29  1.3995417569376398e-01  2.4945928136576145e-01  2.0058310664488627e-01  1.2950665092401020e-01  6.3608937296176712e-02  -5.2319107124971613e-03  -7.6832605194343165e-02  -1.2932818630914317e-01  -1.5324635977969930e-01  -1.6043912298386420e-01  -1.5987835629488201e-01  -1.5158366237667534e-01  -1.2519895636883172e-01  -6.0903891258267645e-02  3.4413074065757270e-02  1.4834305927336594e-01  3.2440408067910098e-01  5.3559679401682547e-01  7.2114131885478050e-01  8.4587090862800951e-01  9.2159926923929458e-01  9.9177678482891063e-01  1.0675174734120516e+00  1.1284535195845853e+00  1.1604182715826994e+00  1.1675894276399594e+00  1.1572649655094656e+00  1.1342929829260795e+00  1.0996939263098744e+00  1.0596902457955810e+00  1.0276885348444960e+00  9.9278040803493084e-01  9.5969868195110164e-01  9.6534953803436108e-01  9.9641673673235365e-01  1.0072195952584653e+00  1.0002303903987366e+00  9.9916599566040354e-01  9.9946871019070127e-01  1.0062172746100786e+00  9.6701723035172549e-01  1.1306871361857169e+00  2.5983040665903601e-01  -1.2720315673461949e-01  4.7563195570877188e-02  4.2449378796450372e-03  -1.2551816006113544e-02  -1.2313073066167824e-03  3.2078093967531965e-03  1.1800956727479035e-03  -5.6894581327527759e-04  -3.6675217278706306e-04  1.1828535866941716e-04  5.2874660670307540e-05  -3.3242717485334401e-05  1.4077450294051681e-06  4.6191475483364792e-06  -2.1402908620084248e-06  3.2733851714687529e-07  1.3556380761001963e-07  -1.1633633328072123e-07  4.6430945350508533e-08  -1.1631329946444844e-08  1.0769212451894677e-09  7.2319416535620848e-10  -5.4069952712835976e-10  2.3771451979086012e-10  -8.2681293896048758e-11  2.4381485928194085e-11  -6.1599157127509942e-12  1.2774295992558108e-12  -1.7480228361514040e-13  -1.2977183232021891e-14  2.2448036545517803e-14  -1.1584714108915950e-14  4.6446764751188390e-15  -1.6472579670155385e-15  5.3980844925827992e-16  -1.6639529766702698e-16  4.8543017355583266e-17  -1.3381368556739523e-17  3.4520174171697611e-18  -8.1431254814075909e-19  1.6589066194481584e-19  -2.3956837922511015e-20  -8.1241326923560680e-22  2.5865130405272181e-21  -1.4218847424277004e-21  5.9212827616723184e-22  -2.1598040721596123e-22  7.2253987808655214e-23  -2.2586468574738320e-23  6.6388975527194242e-24  -1.8296843962051284e-24  4.6713822540799085e-25  -1.0599468598631092e-25  1.9304012600630777e-26  -2.1746845317192119e-27  -1.4331259105746749e-27  1.1076996381231860e-28  -5.7489604256339259e-28  -7.1859821598334369e-03  -5.5098722733598705e-02  -6.1902233036522675e-02  -4.3333162020453196e-02  -2.5488412068817752e-02  -7.8842833547914642e-03  1.1279598612166632e-02  2.8509842694529115e-02  3.8660079201170719e-02  4.2410481681520722e-02  4.3139019440236771e-02  4.2116634332219016e-02  3.8064674633505012e-02  2.6197070753737523e-02  4.3235497120057949e-03  -2.2766790157830168e-02  -5.9898286920551429e-02  -1.0801982451347872e-01  -1.4767491662536578e-01  -1.6822173465595766e-01  -1.6745185322689440e-01  -1.3710291102506256e-01  -7.4457987126005459e-02  -1.4885918212498758e-04  6.7147839095409945e-02  1.3550140901451171e-01  2.3192668704649647e-01  3.6663116658496053e-01  5.2332424816950596e-01  6.9205787639532856e-01  8.4139274116285823e-01  9.5100840574732404e-01  1.1000300195973249e+00  1.1651379585360173e+00  1.0701482547901722e+00  9.7490112101450122e-01  9.8759369500438021e-01  1.0055504893920948e+00  9.9928742902832368e-01  9.9781214917240035e-01  1.0099245951814659e+00  9.6459232768225400e-01  1.1121666498879870e+00  7.6332444966790791e-01  -7.0786610038490516e-02  -9.5750395158169993e-02  4.3580455165180873e-02  2.3962436374859012e-02  -8.8317623715743355e-03  -9.0835535032797367e-03  7.3033318894757501e-05  2.3856469830808142e-03  7.5122574128700612e-05  -4.5973961955341917e-04  9.0953837842421128e-05  4.7421816920202653e-05  -3.1186606192785282e-05  6.3701480035847746e-06  1.3574701694565059e-06  -1.5577220616615736e-06  6.6101670840390114e-07  -1.7220401735095763e-07  1.8170201294778432e-08  9.4511703236061112e-09  -7.4784035712366757e-09  3.3272168711746522e-09  -1.1611540029379436e-09  3.4249282457665852e-10  -8.6442705871490499e-11  1.7902812680982374e-11  -2.4486515389035496e-12  -1.7954689821532274e-13  3.1252623839835816e-13  -1.6128468897494361e-13  6.4661727368590901e-14  -2.2936205308327793e-14  7.5187963382258499e-15  -2.3187677369136302e-15  6.7683689170214296e-16  -1.8668480685650198e-16  4.8187120430586950e-17  -1.1374128132380581e-17  2.3192845952333769e-18  -3.3585106380549050e-19  -1.0814702670656652e-20  3.5926204469475989e-20  -1.9792700003435621e-20  8.2501296624928354e-21  -3.0109669430334070e-21  1.0076410955487460e-21  -3.1502806837612955e-22  9.2603991787463398e-23  -2.5529601684795517e-23  6.5119286983050575e-24  -1.4860380177186850e-24  2.7185755335161206e-25  -2.3937219826650514e-26  -9.7352220044978144e-27  1.0870373346981178e-26  -1.7926984163884707e-27  3.0410705008649439e-27  -1.4856958950346575e-03  8.5275952167986422e-03  1.7031044527467447e-02  1.4451727661537178e-02  9.1414287965598043e-03  4.5085167752254209e-03  -4.4485327033292813e-04  -5.4914574352048218e-03  -9.2441390210786529e-03  -1.1019487115741869e-02  -1.1531671715191032e-02  -1.1489068736850912e-02  -1.0920469049557789e-02  -8.9321872573596556e-03  -4.3368644660296907e-03  2.2352144204700409e-03  1.0665236194954049e-02  2.2428198651234937e-02  3.4762944323594717e-02  4.3000856412151831e-02  4.5815732494205563e-02  4.1906539849402166e-02  2.9142131154582238e-02  1.0044156019235893e-02  -9.0761961636523329e-03  -2.6372208272261780e-02  -4.7167504207134996e-02  -7.6712655540996849e-02  -1.1165363558907522e-01  -1.4404685623845076e-01  -1.6662729330481049e-01  -1.6799658172343507e-01  -8.1749288318141364e-02  7.5457993164585027e-02  4.4601941306964210e-01  9.7985463317860766e-01  1.1076654697948283e+00  9.7882580081066839e-01  1.0015914478546672e+00  1.0006861941980429e+00  9.9754231099585911e-01  1.0072634630868034e+00  9.8460388173210944e-01  1.0007664353071855e+00  1.1429882995705023e+00  6.6671031879236131e-01  -2.3679310440634833e-02  -1.5689764605264908e-01  -7.8342664874328921e-03  4.3969598060126971e-02  1.4902550576466488e-02  -9.2539937080973866e-03  -4.2723460925654360e-03  2.1441700985945717e-03  2.7703118742524797e-04  -4.3006835503108144e-04  1.1760519431616533e-04  9.6955853390172103e-06  -2.0566194023525178e-05  9.4218994097244760e-06  -2.5569562423723300e-06  3.0155459663215323e-07  1.2238798570512605e-07  -1.0345596185050876e-07  4.6611550886585663e-08  -1.6319632064492005e-08  4.8133937733908500e-09  -1.2131944441769965e-09  2.5080097963166663e-10  -3.4240573692511251e-11  -2.5065151984323843e-12  4.3576447625818193e-12  -2.2468653884253617e-12  9.0031901207263952e-13  -3.1926969730342224e-13  1.0465690493854618e-13  -3.2280159161598944e-14  9.4249356693819279e-15  -2.6005129600708716e-15  6.7153100203688994e-16  -1.5859389271916362e-16  3.2368456325680601e-17  -4.7007414176478562e-18  -1.4269182659538495e-19  4.9775020306155210e-19  -2.7487095172390241e-19  1.1469037877288512e-19  -4.1884612655531727e-20  1.4022873328944186e-20  -4.3850859625248402e-21  1.2890865316906275e-21  -3.5543678936275255e-22  9.0702989464979917e-23  -2.0693728819956254e-23  3.8285831761259184e-24  -3.3359515067331364e-25  -1.4871847131270376e-25  1.1691013231117274e-25  -6.2561281873428008e-26  1.2474772654721048e-26  -1.4307670057473972e-26  5.2297184313118933e-04  -7.3899910289472199e-04  -3.6871764532790644e-03  -4.4774255673367368e-03  -3.1700000005915607e-03  -1.8172345251741210e-03  -5.5774264450015275e-04  8.1448917612220834e-04  2.0338071157049360e-03  2.7720500510218116e-03  3.0501227717588324e-03  3.0989625125990988e-03  3.0319372382258758e-03  2.7308246659883185e-03  1.8578882962604073e-03  3.3965446431514557e-04  -1.6360604039193840e-03  -4.3536483878447510e-03  -7.7254352754995530e-03  -1.0585849858149178e-02  -1.2098782549392645e-02  -1.2020740936002625e-02  -9.7926626515251348e-03  -5.3555853836056329e-03  -7.3486055023057854e-05  4.7374480055040078e-03  9.6279365334364011e-03  1.6331182669476852e-02  2.5181905804470404e-02  3.4475836257423176e-02  4.1982099161350581e-02  4.6784251833770621e-02  3.5865264770160742e-02  5.7082984343248726e-03  -6.0117217629527438e-02  -1.7998486125408664e-01  1.6663558494659900e-01  1.0158228727719196e+00  1.0063030026516775e+00  9.9977591616796213e-01  9.9987229234890340e-01  9.9918670418406241e-01  1.0005654882829911e+00  1.0069002416799329e+00  9.7131266964536911e-01  1.0110670628327618e+00  1.1558859128269727e+00  8.9040756460244974e-01  2.8261745673394778e-01  -1.2895661187682750e-01  -1.2387616159304857e-01  8.7581972958020171e-03  3.3676928053467309e-02  -3.3937964604559196e-03  -5.0912921597830729e-03  2.0837890738380975e-03  -3.6390980143860641e-05  -2.6510262678814263e-04  1.3470657265059991e-04  -3.8154511431231885e-05  4.9465171309876320e-06  1.5684716701473855e-06  -1.4320436843260444e-06  6.5365095136982341e-07  -2.2953608847686729e-07  6.7669610319984773e-08  -1.7025575892947255e-08  3.5119768930344539e-09  -4.7834380263370791e-10  -3.5077175991947553e-11  6.0766046904289490e-11  -3.1298187925844588e-11  1.2533898374330302e-11  -4.4436491586156316e-12  1.4566286224851666e-12  -4.4936339406946691e-13  1.3124629884294813e-13  -3.6229775511180728e-14  9.3608050152467826e-15  -2.2122630810288876e-15  4.5203183675194345e-16  -6.5870252373617595e-17  -1.8588437418603786e-18  6.8923712858095837e-18  -3.8166626430788575e-18  1.5943899695049809e-18  -5.8271634279482412e-19  1.9519613007090743e-19  -6.1059135898603655e-20  1.7952431823535717e-20  -4.9505500615368364e-21  1.2639405961080486e-21  -2.8868530449847569e-22  5.3523495788637164e-23  -4.8750225235154376e-24  -2.0950432431969398e-24  1.6309299067906781e-24  -7.6985439407727734e-25  3.1334579522752141e-25  -6.8498160295330667e-26  6.1440801367313655e-26  -8.3740483291284753e-05  -4.5198237232836223e-05  6.0149814388126672e-04  1.1793455024986827e-03  1.0596121669019898e-03  6.6189147137428006e-04  3.1931275315563360e-04  -3.3775041892814759e-05  -3.9291378044472447e-04  