<?xml version="1.0"?>
<VTKFile type="UnstructuredGrid"  version="0.1"  >
<UnstructuredGrid>
<Piece  NumberOfPoints="5151" NumberOfCells="10000">
<Points>
<DataArray  type="Float64"  NumberOfComponents="3"  format="ascii">0 0 0  0.01 0 0  0.02 0 0  0.03 0 0  0.04 0 0  0.05 0 0  0.06 0 0  0.07000000000000001 0 0  0.08 0 0  0.09 0 0  0.1 0 0  0.11 0 0  0.12 0 0  0.13 0 0  0.14 0 0  0.15 0 0  0.16 0 0  0.17 0 0  0.18 0 0  0.19 0 0  0.2 0 0  0.21 0 0  0.22 0 0  0.23 0 0  0.24 0 0  0.25 0 0  0.26 0 0  0.27 0 0  0.28 0 0  0.29 0 0  0.3 0 0  0.31 0 0  0.32 0 0  0.33 0 0  0.34 0 0  0.35 0 0  0.36 0 0  0.37 0 0  0.38 0 0  0.39 0 0  0.4 0 0  0.41 0 0  0.42 0 0  0.43 0 0  0.44 0 0  0.45 0 0  0.46 0 0  0.47 0 0  0.48 0 0  0.49 0 0  0.5 0 0  0.51 0 0  0.52 0 0  0.53 0 0  0.54 0 0  0.55 0 0  0.5600000000000001 0 0  0.57 0 0  0.58 0 0  0.59 0 0  0.6 0 0  0.61 0 0  0.62 0 0  0.63 0 0  0.64 0 0  0.65 0 0  0.66 0 0  0.67 0 0  0.68 0 0  0.6899999999999999 0 0  0.7 0 0  0.71 0 0  0.72 0 0  0.73 0 0  0.74 0 0  0.75 0 0  0.76 0 0  0.77 0 0  0.78 0 0  0.79 0 0  0.8 0 0  0.8100000000000001 0 0  0.82 0 0  0.83 0 0  0.84 0 0  0.85 0 0  0.86 0 0  0.87 0 0  0.88 0 0  0.89 0 0  0.9 0 0  0.91 0 0  0.92 0 0  0.93 0 0  0.9399999999999999 0 0  0.95 0 0  0.96 0 0  0.97 0 0  0.98 0 0  0.99 0 0  1 0 0  0 0.01 0  0.01 0.01 0  0.02 0.01 0  0.03 0.01 0  0.04 0.01 0  0.05 0.01 0  0.06 0.01 0  0.07000000000000001 0.01 0  0.08 0.01 0  0.09 0.01 0  0.1 0.01 0  0.11 0.01 0  0.12 0.01 0  0.13 0.01 0  0.14 0.01 0  0.15 0.01 0  0.16 0.01 0  0.17 0.01 0  0.18 0.01 0  0.19 0.01 0  0.2 0.01 0  0.21 0.01 0  0.22 0.01 0  0.23 0.01 0  0.24 0.01 0  0.25 0.01 0  0.26 0.01 0  0.27 0.01 0  0.28 0.01 0  0.29 0.01 0  0.3 0.01 0  0.31 0.01 0  0.32 0.01 0  0.33 0.01 0  0.34 0.01 0  0.35 0.01 0  0.36 0.01 0  0.37 0.01 0  0.38 0.01 0  0.39 0.01 0  0.4 0.01 0  0.41 0.01 0  0.42 0.01 0  0.43 0.01 0  0.44 0.01 0  0.45 0.01 0  0.46 0.01 0  0.47 0.01 0  0.48 0.01 0  0.49 0.01 0  0.5 0.01 0  0.51 0.01 0  0.52 0.01 0  0.53 0.01 0  0.54 0.01 0  0.55 0.01 0  0.5600000000000001 0.01 0  0.57 0.01 0  0.58 0.01 0  0.59 0.01 0  0.6 0.01 0  0.61 0.01 0  0.62 0.01 0  0.63 0.01 0  0.64 0.01 0  0.65 0.01 0  0.66 0.01 0  0.67 0.01 0  0.68 0.01 0  0.6899999999999999 0.01 0  0.7 0.01 0  0.71 0.01 0  0.72 0.01 0  0.73 0.01 0  0.74 0.01 0  0.75 0.01 0  0.76 0.01 0  0.77 0.01 0  0.78 0.01 0  0.79 0.01 0  0.8 0.01 0  0.8100000000000001 0.01 0  0.82 0.01 0  0.83 0.01 0  0.84 0.01 0  0.85 0.01 0  0.86 0.01 0  0.87 0.01 0  0.88 0.01 0  0.89 0.01 0  0.9 0.01 0  0.91 0.01 0  0.92 0.01 0  0.93 0.01 0  0.9399999999999999 0.01 0  0.95 0.01 0  0.96 0.01 0  0.97 0.01 0  0.98 0.01 0  0.99 0.01 0  1 0.01 0  0 0.02 0  0.01 0.02 0  0.02 0.02 0  0.03 0.02 0  0.04 0.02 0  0.05 0.02 0  0.06 0.02 0  0.07000000000000001 0.02 0  0.08 0.02 0  0.09 0.02 0  0.1 0.02 0  0.11 0.02 0  0.12 0.02 0  0.13 0.02 0  0.14 0.02 0  0.15 0.02 0  0.16 0.02 0  0.17 0.02 0  0.18 0.02 0  0.19 0.02 0  0.2 0.02 0  0.21 0.02 0  0.22 0.02 0  0.23 0.02 0  0.24 0.02 0  0.25 0.02 0  0.26 0.02 0  0.27 0.02 0  0.28 0.02 0  0.29 0.02 0  0.3 0.02 0  0.31 0.02 0  0.32 0.02 0  0.33 0.02 0  0.34 0.02 0  0.35 0.02 0  0.36 0.02 0  0.37 0.02 0  0.38 0.02 0  0.39 0.02 0  0.4 0.02 0  0.41 0.02 0  0.42 0.02 0  0.43 0.02 0  0.44 0.02 0  0.45 0.02 0  0.46 0.02 0  0.47 0.02 0  0.48 0.02 0  0.49 0.02 0  0.5 0.02 0  0.51 0.02 0  0.52 0.02 0  0.53 0.02 0  0.54 0.02 0  0.55 0.02 0  0.5600000000000001 0.02 0  0.57 0.02 0  0.58 0.02 0  0.59 0.02 0  0.6 0.02 0  0.61 0.02 0  0.62 0.02 0  0.63 0.02 0  0.64 0.02 0  0.65 0.02 0  0.66 0.02 0  0.67 0.02 0  0.68 0.02 0  0.6899999999999999 0.02 0  0.7 0.02 0  0.71 0.02 0  0.72 0.02 0  0.73 0.02 0  0.74 0.02 0  0.75 0.02 0  0.76 0.02 0  0.77 0.02 0  0.78 0.02 0  0.79 0.02 0  0.8 0.02 0  0.8100000000000001 0.02 0  0.82 0.02 0  0.83 0.02 0  0.84 0.02 0  0.85 0.02 0  0.86 0.02 0  0.87 0.02 0  0.88 0.02 0  0.89 0.02 0  0.9 0.02 0  0.91 0.02 0  0.92 0.02 0  0.93 0.02 0  0.9399999999999999 0.02 0  0.95 0.02 0  0.96 0.02 0  0.97 0.02 0  0.98 0.02 0  0.99 0.02 0  1 0.02 0  0 0.03 0  0.01 0.03 0  0.02 0.03 0  0.03 0.03 0  0.04 0.03 0  0.05 0.03 0  0.06 0.03 0  0.07000000000000001 0.03 0  0.08 0.03 0  0.09 0.03 0  0.1 0.03 0  0.11 0.03 0  0.12 0.03 0  0.13 0.03 0  0.14 0.03 0  0.15 0.03 0  0.16 0.03 0  0.17 0.03 0  0.18 0.03 0  0.19 0.03 0  0.2 0.03 0  0.21 0.03 0  0.22 0.03 0  0.23 0.03 0  0.24 0.03 0  0.25 0.03 0  0.26 0.03 0  0.27 0.03 0  0.28 0.03 0  0.29 0.03 0  0.3 0.03 0  0.31 0.03 0  0.32 0.03 0  0.33 0.03 0  0.34 0.03 0  0.35 0.03 0  0.36 0.03 0  0.37 0.03 0  0.38 0.03 0  0.39 0.03 0  0.4 0.03 0  0.41 0.03 0  0.42 0.03 0  0.43 0.03 0  0.44 0.03 0  0.45 0.03 0  0.46 0.03 0  0.47 0.03 0  0.48 0.03 0  0.49 0.03 0  0.5 0.03 0  0.51 0.03 0  0.52 0.03 0  0.53 0.03 0  0.54 0.03 0  0.55 0.03 0  0.5600000000000001 0.03 0  0.57 0.03 0  0.58 0.03 0  0.59 0.03 0  0.6 0.03 0  0.61 0.03 0  0.62 0.03 0  0.63 0.03 0  0.64 0.03 0  0.65 0.03 0  0.66 0.03 0  0.67 0.03 0  0.68 0.03 0  0.6899999999999999 0.03 0  0.7 0.03 0  0.71 0.03 0  0.72 0.03 0  0.73 0.03 0  0.74 0.03 0  0.75 0.03 0  0.76 0.03 0  0.77 0.03 0  0.78 0.03 0  0.79 0.03 0  0.8 0.03 0  0.8100000000000001 0.03 0  0.82 0.03 0  0.83 0.03 0  0.84 0.03 0  0.85 0.03 0  0.86 0.03 0  0.87 0.03 0  0.88 0.03 0  0.89 0.03 0  0.9 0.03 0  0.91 0.03 0  0.92 0.03 0  0.93 0.03 0  0.9399999999999999 0.03 0  0.95 0.03 0  0.96 0.03 0  0.97 0.03 0  0.98 0.03 0  0.99 0.03 0  1 0.03 0  0 0.04 0  0.01 0.04 0  0.02 0.04 0  0.03 0.04 0  0.04 0.04 0  0.05 0.04 0  0.06 0.04 0  0.07000000000000001 0.04 0  0.08 0.04 0  0.09 0.04 0  0.1 0.04 0  0.11 0.04 0  0.12 0.04 0  0.13 0.04 0  0.14 0.04 0  0.15 0.04 0  0.16 0.04 0  0.17 0.04 0  0.18 0.04 0  0.19 0.04 0  0.2 0.04 0  0.21 0.04 0  0.22 0.04 0  0.23 0.04 0  0.24 0.04 0  0.25 0.04 0  0.26 0.04 0  0.27 0.04 0  0.28 0.04 0  0.29 0.04 0  0.3 0.04 0  0.31 0.04 0  0.32 0.04 0  0.33 0.04 0  0.34 0.04 0  0.35 0.04 0  0.36 0.04 0  0.37 0.04 0  0.38 0.04 0  0.39 0.04 0  0.4 0.04 0  0.41 0.04 0  0.42 0.04 0  0.43 0.04 0  0.44 0.04 0  0.45 0.04 0  0.46 0.04 0  0.47 0.04 0  0.48 0.04 0  0.49 0.04 0  0.5 0.04 0  0.51 0.04 0  0.52 0.04 0  0.53 0.04 0  0.54 0.04 0  0.55 0.04 0  0.5600000000000001 0.04 0  0.57 0.04 0  0.58 0.04 0  0.59 0.04 0  0.6 0.04 0  0.61 0.04 0  0.62 0.04 0  0.63 0.04 0  0.64 0.04 0  0.65 0.04 0  0.66 0.04 0  0.67 0.04 0  0.68 0.04 0  0.6899999999999999 0.04 0  0.7 0.04 0  0.71 0.04 0  0.72 0.04 0  0.73 0.04 0  0.74 0.04 0  0.75 0.04 0  0.76 0.04 0  0.77 0.04 0  0.78 0.04 0  0.79 0.04 0  0.8 0.04 0  0.8100000000000001 0.04 0  0.82 0.04 0  0.83 0.04 0  0.84 0.04 0  0.85 0.04 0  0.86 0.04 0  0.87 0.04 0  0.88 0.04 0  0.89 0.04 0  0.9 0.04 0  0.91 0.04 0  0.92 0.04 0  0.93 0.04 0  0.9399999999999999 0.04 0  0.95 0.04 0  0.96 0.04 0  0.97 0.04 0  0.98 0.04 0  0.99 0.04 0  1 0.04 0  0 0.05 0  0.01 0.05 0  0.02 0.05 0  0.03 0.05 0  0.04 0.05 0  0.05 0.05 0  0.06 0.05 0  0.07000000000000001 0.05 0  0.08 0.05 0  0.09 0.05 0  0.1 0.05 0  0.11 0.05 0  0.12 0.05 0  0.13 0.05 0  0.14 0.05 0  0.15 0.05 0  0.16 0.05 0  0.17 0.05 0  0.18 0.05 0  0.19 0.05 0  0.2 0.05 0  0.21 0.05 0  0.22 0.05 0  0.23 0.05 0  0.24 0.05 0  0.25 0.05 0  0.26 0.05 0  0.27 0.05 0  0.28 0.05 0  0.29 0.05 0  0.3 0.05 0  0.31 0.05 0  0.32 0.05 0  0.33 0.05 0  0.34 0.05 0  0.35 0.05 0  0.36 0.05 0  0.37 0.05 0  0.38 0.05 0  0.39 0.05 0  0.4 0.05 0  0.41 0.05 0  0.42 0.05 0  0.43 0.05 0  0.44 0.05 0  0.45 0.05 0  0.46 0.05 0  0.47 0.05 0  0.48 0.05 0  0.49 0.05 0  0.5 0.05 0  0.51 0.05 0  0.52 0.05 0  0.53 0.05 0  0.54 0.05 0  0.55 0.05 0  0.5600000000000001 0.05 0  0.57 0.05 0  0.58 0.05 0  0.59 0.05 0  0.6 0.05 0  0.61 0.05 0  0.62 0.05 0  0.63 0.05 0  0.64 0.05 0  0.65 0.05 0  0.66 0.05 0  0.67 0.05 0  0.68 0.05 0  0.6899999999999999 0.05 0  0.7 0.05 0  0.71 0.05 0  0.72 0.05 0  0.73 0.05 0  0.74 0.05 0  0.75 0.05 0  0.76 0.05 0  0.77 0.05 0  0.78 0.05 0  0.79 0.05 0  0.8 0.05 0  0.8100000000000001 0.05 0  0.82 0.05 0  0.83 0.05 0  0.84 0.05 0  0.85 0.05 0  0.86 0.05 0  0.87 0.05 0  0.88 0.05 0  0.89 0.05 0  0.9 0.05 0  0.91 0.05 0  0.92 0.05 0  0.93 0.05 0  0.9399999999999999 0.05 0  0.95 0.05 0  0.96 0.05 0  0.97 0.05 0  0.98 0.05 0  0.99 0.05 0  1 0.05 0  0 0.06 0  0.01 0.06 0  0.02 0.06 0  0.03 0.06 0  0.04 0.06 0  0.05 0.06 0  0.06 0.06 0  0.07000000000000001 0.06 0  0.08 0.06 0  0.09 0.06 0  0.1 0.06 0  0.11 0.06 0  0.12 0.06 0  0.13 0.06 0  0.14 0.06 0  0.15 0.06 0  0.16 0.06 0  0.17 0.06 0  0.18 0.06 0  0.19 0.06 0  0.2 0.06 0  0.21 0.06 0  0.22 0.06 0  0.23 0.06 0  0.24 0.06 0  0.25 0.06 0  0.26 0.06 0  0.27 0.06 0  0.28 0.06 0  0.29 0.06 0  0.3 0.06 0  0.31 0.06 0  0.32 0.06 0  0.33 0.06 0  0.34 0.06 0  0.35 0.06 0  0.36 0.06 0  0.37 0.06 0  0.38 0.06 0  0.39 0.06 0  0.4 0.06 0  0.41 0.06 0  0.42 0.06 0  0.43 0.06 0  0.44 0.06 0  0.45 0.06 0  0.46 0.06 0  0.47 0.06 0  0.48 0.06 0  0.49 0.06 0  0.5 0.06 0  0.51 0.06 0  0.52 0.06 0  0.53 0.06 0  0.54 0.06 0  0.55 0.06 0  0.5600000000000001 0.06 0  0.57 0.06 0  0.58 0.06 0  0.59 0.06 0  0.6 0.06 0  0.61 0.06 0  0.62 0.06 0  0.63 0.06 0  0.64 0.06 0  0.65 0.06 0  0.66 0.06 0  0.67 0.06 0  0.68 0.06 0  0.6899999999999999 0.06 0  0.7 0.06 0  0.71 0.06 0  0.72 0.06 0  0.73 0.06 0  0.74 0.06 0  0.75 0.06 0  0.76 0.06 0  0.77 0.06 0  0.78 0.06 0  0.79 0.06 0  0.8 0.06 0  0.8100000000000001 0.06 0  0.82 0.06 0  0.83 0.06 0  0.84 0.06 0  0.85 0.06 0  0.86 0.06 0  0.87 0.06 0  0.88 0.06 0  0.89 0.06 0  0.9 0.06 0  0.91 0.06 0  0.92 0.06 0  0.93 0.06 0  0.9399999999999999 0.06 0  0.95 0.06 0  0.96 0.06 0  0.97 0.06 0  0.98 0.06 0  0.99 0.06 0  1 0.06 0  0 0.07000000000000001 0  0.01 0.07000000000000001 0  0.02 0.07000000000000001 0  0.03 0.07000000000000001 0  0.04 0.07000000000000001 0  0.05 0.07000000000000001 0  0.06 0.07000000000000001 0  0.07000000000000001 0.07000000000000001 0  0.08 0.07000000000000001 0  0.09 0.07000000000000001 0  0.1 0.07000000000000001 0  0.11 0.07000000000000001 0  0.12 0.07000000000000001 0  0.13 0.07000000000000001 0  0.14 0.07000000000000001 0  0.15 0.07000000000000001 0  0.16 0.07000000000000001 0  0.17 0.07000
[...]
<PointData  Scalars="rho_bar"> 
<DataArray  type="Float64"  Name="rho_bar"  format="ascii">9.8913847193359850e-01  9.9469725108513574e-01  9.9410839306781851e-01  9.9797567946189913e-01  1.0012504714883592e+00  1.0031621862663886e+00  1.0039352446152732e+00  1.0041179821534909e+00  1.0037125150765063e+00  1.0023874525784136e+00  9.9922550001899635e-01  9.9507863391061346e-01  9.9299145190188842e-01  9.9363290689344252e-01  9.9539696161849933e-01  9.9731591481168524e-01  9.9862653896483233e-01  9.9919302426673329e-01  9.9977597712218935e-01  1.0007021641432461e+00  1.0015398116211620e+00  1.0018977243623344e+00  1.0018709013002682e+00  1.0016835835764748e+00  1.0013818056328601e+00  1.0009493428491616e+00  1.0005263124949966e+00  1.0002420284759574e+00  9.9995044946835998e-01  9.9960711013217018e-01  9.9951190168768211e-01  9.9975804785220190e-01  1.0000249713039626e+00  1.0000568125857339e+00  1.0000030502527981e+00  1.0003975308868505e+00  9.9636740075094965e-01  1.0209100064654608e+00  9.1293217229019696e-01  1.2468196438763379e+00  -1.7308092162892492e-02  2.2899700725723974e-03  8.4665365177536865e-04  -3.2170802477333310e-04  3.3857828726274119e-05  -7.5738141730336030e-05  5.0989180509909221e-05  1.1437555501823886e-05  -6.1718204754418850e-06  -4.5896400827300607e-06  9.4001226765445781e-07  9.2926864420435539e-07  -2.8999142632514181e-07  -1.2618713843835198e-07  8.3879192982540009e-08  -4.4183846321652593e-09  -1.2149483767099080e-08  5.5950373325026288e-09  -6.0618693498142871e-10  -5.4138105782693554e-10  3.5427636196691158e-10  -1.0647984471849761e-10  8.0190068903708087e-12  1.0074212146208762e-11  -6.8316827956253764e-12  2.6760617288862100e-12  -7.2204428617529839e-13  1.0523224679679887e-13  2.1288187607155995e-14  -2.4336065038653044e-14  1.2073341969036143e-14  -4.5735860929093334e-15  1.4669253427974942e-15  -4.1097997931453290e-16  1.0034084169983238e-16  -2.0352751729129284e-17  2.7582735299209977e-18  1.9477623322794048e-19  -3.4744614184918372e-19  1.8123897247894306e-19  -7.3708392108828861e-20  2.6584139213175042e-20  -8.8632599322037696e-21  2.7757128855512052e-21  -8.2077668426210658e-22  2.2890437564819364e-22  -5.9770875323727630e-23  1.4356478115149861e-23  -3.0383159911692609e-24  4.9549926046923002e-25  -1.9981427584809695e-26  -3.1872656838756674e-26  2.0154234957115079e-26  -8.8397177531052139e-27  3.3218417829179856e-27  -1.1495793917782610e-27  3.5894583255837754e-28  -1.1435451471493380e-28  3.0089925959570011e-29  -8.0150702831271182e-30  6.0021517588467242e-30  1.0270912642724248e+00  1.0108287984537516e+00  1.0134560157896102e+00  1.0078823397325263e+00  1.0005111896019736e+00  9.9516846306524120e-01  9.9275212007642621e-01  9.9180206185414710e-01  9.9202011181859573e-01  9.9358962556137820e-01  9.9777900913422801e-01  1.0058114475504831e+00  1.0128441747505097e+00  1.0138256991391914e+00  1.0110813734194362e+00  1.0072533308722480e+00  1.0037871744009532e+00  1.0020787391653139e+00  1.0011409299909606e+00  9.9958354443747033e-01  9.9765206876110823e-01  9.9642855212260639e-01  9.9617291832966637e-01  9.9642372380011823e-01  9.9689917200388412e-01  9.9763894788471041e-01  9.9855896450387316e-01  9.9926641234857216e-01  9.9976912124187178e-01  1.0004549610489770e+00  1.0009925329764879e+00  1.0007891829682747e+00  1.0001682369792919e+00  9.9984941888984635e-01  9.9996613257456601e-01  9.9979754493074058e-01  1.0008246369068263e+00  9.9941939216416198e-01  9.8320080191709658e-01  1.1441339429483506e+00  9.0995270459547486e-02  5.6009000720616655e-03  -4.2000012445349098e-03  6.7590981828508361e-04  -1.5104148415332315e-04  2.4819108122635673e-04  -6.3400160653440241e-05  -5.7417087762031288e-05  6.9574123932598397e-07  1.4395762477452758e-05  1.9890618746311328e-06  -2.9789129583316530e-06  -1.3390339494607244e-07  6.0233692103849609e-07  -1.2071938905213911e-07  -6.5615428360222360e-08  4.3005727648997641e-08  -7.1456026978691445e-09  -3.2616739485985447e-09  2.5534066162049835e-09  -8.0330815621691683e-10  6.4409521588898366e-11  7.3882328137953390e-11  -4.9736532522921362e-11  1.8920234036922335e-11  -4.8003225875936828e-12  5.4900094183538397e-13  2.2648492884900705e-13  -1.9180361995533240e-13  8.7490966254791689e-14  -3.1163535926928235e-14  9.3983355856009799e-15  -2.4477109627897935e-15  5.3921797050924332e-16  -8.9911124814307268e-17  4.5549652366411818e-18  4.9537323358699910e-18  -3.1495651776823115e-18  1.3598227839625826e-18  -5.0549196126847269e-19  1.7235231081064953e-19  -5.5138690330221905e-20  1.6672098711213449e-20  -4.7622449639651084e-21  1.2771246155444271e-21  -3.1710319335780577e-22  7.0663846206141784e-23  -1.2981647116630575e-23  1.3168084286294286e-24  3.7215085706881134e-25  -3.2949992909946606e-25  1.5763091003865839e-25  -6.2099343208540973e-26  2.1992825633126644e-26  -7.2117107438276630e-27  2.2408339675153850e-27  -6.3248959991878225e-28  1.8761905549024665e-28  -3.9073390604418935e-29  9.9884052247393220e-30  -3.9892332345663274e-30  9.0616219159266786e-01  9.6024707693836220e-01  9.5039712921275532e-01  9.6134999362606688e-01  9.8530468986793596e-01  1.0093512182974820e+00  1.0219620346920750e+00  1.0274572864638585e+00  1.0289048794081208e+00  1.0257522598600308e+00  1.0168108939227283e+00  9.9550102315710365e-01  9.6470297274131367e-01  9.5052474594155556e-01  9.5597115217480599e-01  9.6743170876497886e-01  9.8146688174619412e-01  9.9053554803285471e-01  9.9424434935148431e-01  9.9827878571095974e-01  1.0049488076466808e+00  1.0108847074621690e+00  1.0132814567279129e+00  1.0130601317087504e+00  1.0117709502802383e+00  1.0097059568022873e+00  1.0066710708996638e+00  1.0035941264996495e+00  1.0017109726922111e+00  9.9976044851468171e-01  9.9719057137255973e-01  9.9649107493139943e-01  9.9834310776328028e-01  1.0002258493466740e+00  1.0004614838706847e+00  1.0000348940227952e+00  9.9998848577171018e-01  9.9908182405461876e-01  1.0030989769192453e+00  1.0203002189870249e+00  6.1942046748057311e-01  -1.2166288512072307e-01  1.7471569880240765e-02  -1.6849831498056511e-03  1.4556213429694281e-03  -1.1856231415132935e-03  -4.7201388034021992e-05  2.6157731971076489e-04  8.3202890263803683e-05  -4.9621747441563047e-05  -2.8676169978938729e-05  8.9745770271064223e-06  5.1744613313396227e-06  -2.6337421422492437e-06  -3.0947803522002719e-07  5.3938082231039996e-07  -1.4743539909629900e-07  -2.1270067340330813e-08  3.0954076261743052e-08  -1.1780686886008820e-08  1.6727972864027431e-09  7.1634020896490158e-10  -6.2116802766774229e-10  2.6166190760217172e-10  -7.4138493676098754e-11  1.1911415214496353e-11  1.5769063990472298e-12  -2.2510918340257729e-12  1.1517969784301779e-12  -4.4147158820594059e-13  1.4254082399094652e-13  -4.0186187200152738e-14  9.9076647001380504e-15  -2.0522917293976682e-15  2.9866063046334504e-16  7.6723202913149199e-18  -3.0032809203427860e-17  1.6499493328457324e-17  -6.8687071453449601e-18  2.5174974891414887e-18  -8.5051364693364298e-19  2.6949985329832562e-19  -8.0567867943204113e-20  2.2715331689138897e-20  -6.0035381854535418e-21  1.4652024482207929e-21  -3.1849944121061281e-22  5.5467704123732282e-23  -4.1440788501422276e-24  -2.4654375860531903e-24  1.7880406748103910e-24  -8.1634070020548440e-25  3.1400859670510712e-25  -1.0931785124400445e-25  3.5357434193603674e-26  -1.0802953361092376e-26  3.0298875086067814e-27  -8.7276937287983485e-28  1.7402671261811196e-28  -5.2929240951220455e-29  1.3986577765326839e-29  1.2910865868343564e+00  1.1621770709620876e+00  1.1818604828335648e+00  1.1698734494958201e+00  1.1049820288021621e+00  1.0040788594453975e+00  9.3680563429818553e-01  9.0649863525989460e-01  8.9292387315120103e-01  8.9608292931505984e-01  9.1767128298246015e-01  9.6865382862624461e-01  1.0731800547442181e+00  1.1739087884461819e+00  1.1755966177206552e+00  1.1457125917485675e+00  1.0939243597247523e+00  1.0482665775713291e+00  1.0269429875466922e+00  1.0155569129897546e+00  9.9485274120634681e-01  9.6905530651291893e-01  9.5332556344791008e-01  9.5043938655920002e-01  9.5355077404970168e-01  9.5973453995362557e-01  9.6904957816408788e-01  9.8142600074738173e-01  9.9080181981038395e-01  9.9654223543156417e-01  1.0057694471247165e+00  1.0133881071683681e+00  1.0103500481626202e+00  1.0019169610320475e+00  9.9790569538479479e-01  9.9924910655720656e-01  1.0003278821583137e+00  1.0000023032964325e+00  1.0021752606136287e+00  9.7722863150556560e-01  1.1415284341417566e+00  4.0574323246263207e-02  1.2226865195331475e-02  4.8914094776975701e-03  -1.0184610310131431e-02  3.7966202095320077e-03  1.8115490875393353e-03  -7.8908585810559008e-04  -6.9556231397330801e-04  4.1110746643989411e-05  1.8700151400374512e-04  9.3178519322599238e-06  -3.8673754363598823e-05  4.3989678439816282e-06  6.0700681873018152e-06  -2.6004561880291644e-06  7.4195058954524357e-09  3.8169183442349658e-07  -1.7345023249808391e-07  3.1183805800432904e-08  7.5817092998677897e-09  -8.3042448012283960e-09  3.6934729233320004e-09  -1.0827587236194712e-09  1.8394800373524976e-10  1.8125933990673653e-11  -3.1152749449928914e-11  1.6282309320933246e-11  -6.2799475649404089e-12  2.0270478076973957e-12  -5.6824342718232699e-13  1.3832882831487789e-13  -2.7894993463718692e-14  3.7368595696295965e-15  2.7905846843556963e-16  -4.7570968780422307e-16  2.4640410437408243e-16  -9.9887760345798623e-17  3.5988149565639794e-17  -1.2003155117449109e-17  3.7630601521846676e-18  -1.1138359625648000e-18  3.1070473717126899e-19  -8.1046122880498685e-20  1.9415685127074601e-20  -4.0898698032923489e-21  6.6067131844512365e-22  -2.3905476374307746e-23  -4.3939427396842160e-23  2.7466472648017573e-23  -1.2006768242064837e-23  4.5176515514918173e-24  -1.5497876027136003e-24  4.9586300710232898e-25  -1.4921541296160022e-25  4.2410497515775271e-26  -1.1009222275119178e-26  2.8972755898540932e-27  -4.1970302937144055e-28  1.5269570260799599e-28  5.9514380955675691e-30  1.1432321921339099e-01  2.2121517870422039e-01  1.5476135754226500e-01  9.0262425376280098e-02  3.4455539902243176e-02  -5.9702429398526394e-02  -1.5052064524995284e-01  -1.7879826734983723e-01  -1.8289972063301971e-01  -1.8314277815044866e-01  -1.8090311411056706e-01  -1.6921176935625035e-01  -9.7794790674948603e-02  2.4148734773296515e-02  1.0993360471868865e-01  2.9303364174384938e-01  5.3319226145017973e-01  7.4325459616387513e-01  8.7172082754506197e-01  9.1756538336779181e-01  9.7468533004594560e-01  1.0683401787533788e+00  1.1533122881042288e+00  1.1830726070013171e+00  1.1810729443011170e+00  1.1626173540022255e+00  1.1348981352032728e+00  1.0932668246068404e+00  1.0480605748867573e+00  1.0238551707380279e+00  9.9884872850177819e-01  9.5965322625735183e-01  9.5021698914017572e-01  9.7754347098882277e-01  1.0041300621614764e+00  1.0065823647231191e+00  9.9919304049703694e-01  9.9956487690491580e-01  9.9884785071797189e-01  1.0086888496589368e+00  9.6082875748108187e-01  1.1373087505660557e+00  9.0243230601658703e-02  -1.0205343952076866e-01  5.4876365278700788e-02  -2.2273712227048013e-03  -1.2449287013272853e-02  -1.9471733384206390e-04  3.5988697772328299e-03  9.7769900809404958e-04  -7.4938383081066360e-04  -3.4475593436755460e-04  1.6022265608568102e-04  4.3954011961224267e-05  -4.0284852037907408e-05  5.0091514356133242e-06  4.2861952122740200e-06  -2.5038933172551696e-06  5.4847850375344816e-07  6.9663242089713492e-08  -1.1007094306982898e-07  5.1809015871023818e-08  -1.5647866782220864e-08  2.7788605857795690e-09  1.9977694893557726e-10  -4.2635559564435099e-10  2.2703181587659065e-10  -8.8011884102167666e-11  2.8424910626416030e-11  -7.9552875098087330e-12  1.9308662655228161e-12  -3.8785157422613291e-13  5.1662388192117699e-14  3.9204072057016648e-15  -6.5810025989364946e-15  3.3991330054320291e-15  -1.3766704021710021e-15  4.9620371298864251e-16  -1.6573608897860232e-16  5.2067320864898872e-17  -1.5448390221825203e-17  4.3200365465232684e-18  -1.1297718668551055e-18  2.7149354391766308e-19  -5.7484692678949345e-20  9.4147810966074130e-21  -4.1358298514029705e-22  -5.8337265287396909e-22  3.7310535715841458e-22  -1.6435341432466129e-22  6.2110290511658181e-23  -2.1376408347535771e-23  6.8553549087583942e-24  -2.0678117475705592e-24  5.8694597517069177e-25  -1.5596658496879078e-25  3.7173754278347176e-26  -8.6531278807758766e-27  5.4128151041498885e-28  -3.7429196638671106e-28  -2.4922812965228324e-28  -4.7298270630482279e-03  -4.9452171395693141e-02  -5.3230912974703011e-02  -3.2010816029563224e-02  -1.7316385308819210e-02  2.5302079763844087e-03  2.9470969718901795e-02  4.5752809822710044e-02  4.8822615540729836e-02  4.9107003979443016e-02  4.8851083767338085e-02  4.8076738644556069e-02  3.7989359569190320e-02  9.7364570294557369e-03  -1.7050157210520660e-02  -5.0697417964478089e-02  -1.0833041645380143e-01  -1.5550095242683618e-01  -1.7894497035815127e-01  -1.8661085973070374e-01  -1.6918743826288629e-01  -9.5734445085229616e-02  1.7929256862963597e-03  6.9675930669522379e-02  1.1620113519562675e-01  2.2064258465729666e-01  3.9213017823180429e-01  5.5512112605095298e-01  7.3991034551491686e-01  8.8048723909795834e-01  9.4188506647709114e-01  1.0791774307365976e+00  1.1946778708237318e+00  1.1430851987769488e+00  1.0250399059895692e+00  9.6623122839899922e-01  9.9379667862649079e-01  1.0053208480431213e+00  9.9891881385507830e-01  9.9756279134139547e-01  1.0112236021105159e+00  9.5895164358448104e-01  1.1511077984779330e+00  6.5539799040833313e-01  -1.4627541226040264e-01  -7.3394742694117901e-02  5.0719888390833266e-02  2.0789752956415265e-02  -1.1793494946734285e-02  -9.0980572188356836e-03  1.0368287911785372e-03  2.5984188593112141e-03  -1.3704144431690842e-04  -4.9413666735950853e-04  1.4474957806400626e-04  3.7527334735317211e-05  -3.5053198522636343e-05  9.4238058127677928e-06  3.7576903441683299e-07  -1.4406515836974783e-06  7.2653099717322888e-07  -2.2634311181529273e-07  4.1930361942560282e-08  1.9797341718579216e-09  -5.8155220529625817e-09  3.1631660890981201e-09  -1.2339152177701049e-09  3.9911861771633462e-10  -1.1163359947733954e-10  2.7048945574827361e-11  -5.4200976506706332e-12  7.1923476105353240e-13  5.5260629455781077e-14  -9.1737626439215254e-14  4.7291931505913146e-14  -1.9141374161493023e-14  6.9009003493769929e-15  -2.3069090713415081e-15  7.2557694053097331e-16  -2.1553182973274185e-16  6.0327389295585385e-17  -1.5784310410791854e-17  3.7930290307127565e-18  -8.0279669462949929e-19  1.3143337636680534e-19  -5.8031075539556198e-21  -8.1131186853814799e-21  5.1924066373370444e-21  -2.2884589341821613e-21  8.6539776220145368e-22  -2.9801996917473394e-22  9.5628344371028993e-23  -2.8846423015657924e-23  8.1906497094356636e-24  -2.1721555123301587e-24  5.2761039970461714e-25  -1.0912570389508618e-25  1.9301615833913634e-26  3.0140623472445576e-27  2.8809587694544254e-28  1.9326098673755622e-27  -1.5692396872160552e-03  7.4162520844321790e-03  1.5122413133799584e-02  1.1642070618997418e-02  6.5052029434134583e-03  2.2654737016003807e-03  -4.3372303908222436e-03  -1.0546151901288636e-02  -1.2944971481040827e-02  -1.3152418963993913e-02  -1.3120716319133427e-02  -1.3123502738719645e-02  -1.2062063567049157e-02  -6.6781181890557930e-03  9.9091385030763176e-04  8.4538462231752778e-03  2.1005489324893736e-02  3.6029221634494776e-02  4.5477793772947278e-02  4.9553924459674208e-02  4.9114040938406989e-02  3.7038389691416283e-02  1.2408886386992939e-02  -1.0735457618710805e-02  -2.4280237826943680e-02  -4.2539921667723295e-02  -8.0589034180405611e-02  -1.2331853734600821e-01  -1.5622939218947202e-01  -1.7852690785208869e-01  -1.9150941906165847e-01  -1.1291092634427906e-01  3.9337063268498049e-02  1.9187121247041772e-01  6.7117158687066070e-01  1.0841133435045833e+00  1.0889291311637257e+00  9.7096320056621221e-01  1.0056382998826072e+00  9.9955244987087177e-01  9.9739168549637958e-01  1.0092346333132951e+00  9.7652242893324048e-01  1.0127946196861011e+00  1.1625367557085164e+00  5.9264510205611987e-01  -7.9462043207301131e-02  -1.5755690227362157e-01  6.5360147483949351e-03  4.9129106795611138e-02  1.1639333887812601e-02  -1.1588983452641683e-02  -3.8071772849090132e-03  2.7096770371406302e-03  4.3258165222419152e-05  -4.5881546090558231e-04  1.5923077355460292e-04  -5.1580696147573693e-06  -1.8489637668648802e-05  1.0207284046579203e-05  -3.2838163218275487e-06  6.3203273528106025e-07  1.5826503693712821e-08  -7.9206446794442754e-08  4.4082208070138792e-08  -1.7310613548034450e-08  5.6076329308871756e-09  -1.5671025513132345e-09  3.7891973048824641e-10  -7.5698723439620879e-11  9.9891240020590376e-12  7.8770281036979230e-13  -1.2812890467728208e-12  6.5841732145783218e-13  -2.6612691918205383e-13  9.5914926140517876e-14  -3.2077643433345310e-14  1.0098061966656821e-14  -3.0026181393333697e-15  8.4112977321173749e-16  -2.2017435652814061e-16  5.2907230255088083e-17  -1.1193432441333386e-17  1.8321006828099650e-18  -8.1504599175085212e-20  -1.1250470808100604e-19  7.2073007305657814e-20  -3.1784792388217424e-20  1.2028885821773042e-20  -4.1456693205030085e-21  1.3310097078174255e-21  -4.0167287552850025e-22  1.1403531932859519e-22  -3.0254721876334823e-23  7.3418589865212195e-24  -1.5463202492806388e-24  2.3095967707627867e-25  -4.3246385538484587e-27  -3.3894041299363054e-26  4.3318018753975074e-27  -1.1174038895718556e-26  4.8824275269903803e-04  -5.8774086699643320e-04  -3.2809466156495065e-03  -3.8287705124367454e-03  -2.4095402718080448e-03  -1.2020203702549663e-03  2.2738294063233584e-04  2.0754999087354438e-03  3.2598338292574658e-03  3.5331405588348280e-03  3.5174415051337829e-03  3.5246903656042119e-03  3.4712835410134076e-03  2.6366205753511275e-03  7.7742167728787372e-04  -1.1849326308187133e-03  -3.7869726976704826e-03  -7.7011965956151575e-03  -1.1126046645494807e-02  -1.2877934004955616e-02  -1.3481585894191553e-02  -1.1996490074711120e-02  -6.8337491944165524e-03  2.5992863623976872e-05  4.8294718739073372e-03  8.4722932119853760e-03  1.6018786529045221e-02  2.7441231771290254e-02  3.7851887334189670e-02  4.4978217029576363e-02  5.1271814085353820e-02  4.4053214638673191e-02  1.0069345317462721e-02  -2.4715280596075095e-02  -1.0801221673600174e-01  -2.0494669185160411e-01  2.6765560458968718e-01  1.0929526278897694e+00  9.8751384850328272e-01  1.0039009950165081e+00  9.9927271466562917e-01  9.9880369541044278e-01  1.0016991362211460e+00  1.0070746736926683e+00  9.6439182143340585e-01  1.0193399246147390e+00  1.1834505768507979e+00  8.7437215390236966e-01  2.3224349765996935e-01  -1.7100429789509000e-01  -1.2105228638295638e-01  2.1737392349182906e-02  3.6329104124451062e-02  -7.0681114144594106e-03  -4.7948535770212771e-03  2.6338300987472181e-03  -2.6570318489007124e-04  -2.2818206212988598e-04  1.4401873664234463e-04  -4.7929699909458327e-05  9.5243321697401430e-06  5.3369565889130535e-08  -1.0777640447995905e-06  6.1439148402342874e-07  -2.4297161113504228e-07  7.8831210937791555e-08  -2.2005014686746416e-08  5.3076823294430521e-09  -1.0568230828852986e-09  1.3862095646968728e-10  1.1247183580246191e-11  -1.7899754887506033e-11  9.1665659596181709e-12  -3.6994472013181858e-12  1.3328362355095040e-12  -4.4596127308222969e-13  1.4052572151010166e-13  -4.1832375205088568e-14  1.1730273699790866e-14  -3.0724244728486768e-15  7.3839321864153248e-16  -1.5617964250235817e-16  2.5560971056511113e-17  -1.1484259663295555e-18  -1.5594734261050179e-18  1.0002683646892642e-18  -4.4143879314665060e-19  1.6720647602126447e-19  -5.7678902771346426e-20  1.8532101846273747e-20  -5.5949202808654585e-21  1.5888264369656982e-21  -4.2144258613701338e-22  1.0237634621490638e-22  -2.1569419965792202e-23  3.3008139751747247e-24  4.8833969537151069e-26  -3.0243183996986650e-25  2.2113812357721430e-25  -4.0096717283743272e-26  5.5871828002249806e-26  -7.3832662868851531e-05  -5.5451216058227551e-05  5.2758788377116827e-04  1.0359379713272717e-03  8.6268823795372575e-04  4.7807071317536429e-04  1.4553219451629310e-04  -3.1155268756892312e-04  -7.4528124262264808e-04  -9.3123881816294920