<?xml version="1.0"?>
<VTKFile type="UnstructuredGrid"  version="0.1"  >
<UnstructuredGrid>
<Piece  NumberOfPoints="5151" NumberOfCells="10000">
<Points>
<DataArray  type="Float64"  NumberOfComponents="3"  format="ascii">0 0 0  0.01 0 0  0.02 0 0  0.03 0 0  0.04 0 0  0.05 0 0  0.06 0 0  0.07000000000000001 0 0  0.08 0 0  0.09 0 0  0.1 0 0  0.11 0 0  0.12 0 0  0.13 0 0  0.14 0 0  0.15 0 0  0.16 0 0  0.17 0 0  0.18 0 0  0.19 0 0  0.2 0 0  0.21 0 0  0.22 0 0  0.23 0 0  0.24 0 0  0.25 0 0  0.26 0 0  0.27 0 0  0.28 0 0  0.29 0 0  0.3 0 0  0.31 0 0  0.32 0 0  0.33 0 0  0.34 0 0  0.35 0 0  0.36 0 0  0.37 0 0  0.38 0 0  0.39 0 0  0.4 0 0  0.41 0 0  0.42 0 0  0.43 0 0  0.44 0 0  0.45 0 0  0.46 0 0  0.47 0 0  0.48 0 0  0.49 0 0  0.5 0 0  0.51 0 0  0.52 0 0  0.53 0 0  0.54 0 0  0.55 0 0  0.5600000000000001 0 0  0.57 0 0  0.58 0 0  0.59 0 0  0.6 0 0  0.61 0 0  0.62 0 0  0.63 0 0  0.64 0 0  0.65 0 0  0.66 0 0  0.67 0 0  0.68 0 0  0.6899999999999999 0 0  0.7 0 0  0.71 0 0  0.72 0 0  0.73 0 0  0.74 0 0  0.75 0 0  0.76 0 0  0.77 0 0  0.78 0 0  0.79 0 0  0.8 0 0  0.8100000000000001 0 0  0.82 0 0  0.83 0 0  0.84 0 0  0.85 0 0  0.86 0 0  0.87 0 0  0.88 0 0  0.89 0 0  0.9 0 0  0.91 0 0  0.92 0 0  0.93 0 0  0.9399999999999999 0 0  0.95 0 0  0.96 0 0  0.97 0 0  0.98 0 0  0.99 0 0  1 0 0  0 0.01 0  0.01 0.01 0  0.02 0.01 0  0.03 0.01 0  0.04 0.01 0  0.05 0.01 0  0.06 0.01 0  0.07000000000000001 0.01 0  0.08 0.01 0  0.09 0.01 0  0.1 0.01 0  0.11 0.01 0  0.12 0.01 0  0.13 0.01 0  0.14 0.01 0  0.15 0.01 0  0.16 0.01 0  0.17 0.01 0  0.18 0.01 0  0.19 0.01 0  0.2 0.01 0  0.21 0.01 0  0.22 0.01 0  0.23 0.01 0  0.24 0.01 0  0.25 0.01 0  0.26 0.01 0  0.27 0.01 0  0.28 0.01 0  0.29 0.01 0  0.3 0.01 0  0.31 0.01 0  0.32 0.01 0  0.33 0.01 0  0.34 0.01 0  0.35 0.01 0  0.36 0.01 0  0.37 0.01 0  0.38 0.01 0  0.39 0.01 0  0.4 0.01 0  0.41 0.01 0  0.42 0.01 0  0.43 0.01 0  0.44 0.01 0  0.45 0.01 0  0.46 0.01 0  0.47 0.01 0  0.48 0.01 0  0.49 0.01 0  0.5 0.01 0  0.51 0.01 0  0.52 0.01 0  0.53 0.01 0  0.54 0.01 0  0.55 0.01 0  0.5600000000000001 0.01 0  0.57 0.01 0  0.58 0.01 0  0.59 0.01 0  0.6 0.01 0  0.61 0.01 0  0.62 0.01 0  0.63 0.01 0  0.64 0.01 0  0.65 0.01 0  0.66 0.01 0  0.67 0.01 0  0.68 0.01 0  0.6899999999999999 0.01 0  0.7 0.01 0  0.71 0.01 0  0.72 0.01 0  0.73 0.01 0  0.74 0.01 0  0.75 0.01 0  0.76 0.01 0  0.77 0.01 0  0.78 0.01 0  0.79 0.01 0  0.8 0.01 0  0.8100000000000001 0.01 0  0.82 0.01 0  0.83 0.01 0  0.84 0.01 0  0.85 0.01 0  0.86 0.01 0  0.87 0.01 0  0.88 0.01 0  0.89 0.01 0  0.9 0.01 0  0.91 0.01 0  0.92 0.01 0  0.93 0.01 0  0.9399999999999999 0.01 0  0.95 0.01 0  0.96 0.01 0  0.97 0.01 0  0.98 0.01 0  0.99 0.01 0  1 0.01 0  0 0.02 0  0.01 0.02 0  0.02 0.02 0  0.03 0.02 0  0.04 0.02 0  0.05 0.02 0  0.06 0.02 0  0.07000000000000001 0.02 0  0.08 0.02 0  0.09 0.02 0  0.1 0.02 0  0.11 0.02 0  0.12 0.02 0  0.13 0.02 0  0.14 0.02 0  0.15 0.02 0  0.16 0.02 0  0.17 0.02 0  0.18 0.02 0  0.19 0.02 0  0.2 0.02 0  0.21 0.02 0  0.22 0.02 0  0.23 0.02 0  0.24 0.02 0  0.25 0.02 0  0.26 0.02 0  0.27 0.02 0  0.28 0.02 0  0.29 0.02 0  0.3 0.02 0  0.31 0.02 0  0.32 0.02 0  0.33 0.02 0  0.34 0.02 0  0.35 0.02 0  0.36 0.02 0  0.37 0.02 0  0.38 0.02 0  0.39 0.02 0  0.4 0.02 0  0.41 0.02 0  0.42 0.02 0  0.43 0.02 0  0.44 0.02 0  0.45 0.02 0  0.46 0.02 0  0.47 0.02 0  0.48 0.02 0  0.49 0.02 0  0.5 0.02 0  0.51 0.02 0  0.52 0.02 0  0.53 0.02 0  0.54 0.02 0  0.55 0.02 0  0.5600000000000001 0.02 0  0.57 0.02 0  0.58 0.02 0  0.59 0.02 0  0.6 0.02 0  0.61 0.02 0  0.62 0.02 0  0.63 0.02 0  0.64 0.02 0  0.65 0.02 0  0.66 0.02 0  0.67 0.02 0  0.68 0.02 0  0.6899999999999999 0.02 0  0.7 0.02 0  0.71 0.02 0  0.72 0.02 0  0.73 0.02 0  0.74 0.02 0  0.75 0.02 0  0.76 0.02 0  0.77 0.02 0  0.78 0.02 0  0.79 0.02 0  0.8 0.02 0  0.8100000000000001 0.02 0  0.82 0.02 0  0.83 0.02 0  0.84 0.02 0  0.85 0.02 0  0.86 0.02 0  0.87 0.02 0  0.88 0.02 0  0.89 0.02 0  0.9 0.02 0  0.91 0.02 0  0.92 0.02 0  0.93 0.02 0  0.9399999999999999 0.02 0  0.95 0.02 0  0.96 0.02 0  0.97 0.02 0  0.98 0.02 0  0.99 0.02 0  1 0.02 0  0 0.03 0  0.01 0.03 0  0.02 0.03 0  0.03 0.03 0  0.04 0.03 0  0.05 0.03 0  0.06 0.03 0  0.07000000000000001 0.03 0  0.08 0.03 0  0.09 0.03 0  0.1 0.03 0  0.11 0.03 0  0.12 0.03 0  0.13 0.03 0  0.14 0.03 0  0.15 0.03 0  0.16 0.03 0  0.17 0.03 0  0.18 0.03 0  0.19 0.03 0  0.2 0.03 0  0.21 0.03 0  0.22 0.03 0  0.23 0.03 0  0.24 0.03 0  0.25 0.03 0  0.26 0.03 0  0.27 0.03 0  0.28 0.03 0  0.29 0.03 0  0.3 0.03 0  0.31 0.03 0  0.32 0.03 0  0.33 0.03 0  0.34 0.03 0  0.35 0.03 0  0.36 0.03 0  0.37 0.03 0  0.38 0.03 0  0.39 0.03 0  0.4 0.03 0  0.41 0.03 0  0.42 0.03 0  0.43 0.03 0  0.44 0.03 0  0.45 0.03 0  0.46 0.03 0  0.47 0.03 0  0.48 0.03 0  0.49 0.03 0  0.5 0.03 0  0.51 0.03 0  0.52 0.03 0  0.53 0.03 0  0.54 0.03 0  0.55 0.03 0  0.5600000000000001 0.03 0  0.57 0.03 0  0.58 0.03 0  0.59 0.03 0  0.6 0.03 0  0.61 0.03 0  0.62 0.03 0  0.63 0.03 0  0.64 0.03 0  0.65 0.03 0  0.66 0.03 0  0.67 0.03 0  0.68 0.03 0  0.6899999999999999 0.03 0  0.7 0.03 0  0.71 0.03 0  0.72 0.03 0  0.73 0.03 0  0.74 0.03 0  0.75 0.03 0  0.76 0.03 0  0.77 0.03 0  0.78 0.03 0  0.79 0.03 0  0.8 0.03 0  0.8100000000000001 0.03 0  0.82 0.03 0  0.83 0.03 0  0.84 0.03 0  0.85 0.03 0  0.86 0.03 0  0.87 0.03 0  0.88 0.03 0  0.89 0.03 0  0.9 0.03 0  0.91 0.03 0  0.92 0.03 0  0.93 0.03 0  0.9399999999999999 0.03 0  0.95 0.03 0  0.96 0.03 0  0.97 0.03 0  0.98 0.03 0  0.99 0.03 0  1 0.03 0  0 0.04 0  0.01 0.04 0  0.02 0.04 0  0.03 0.04 0  0.04 0.04 0  0.05 0.04 0  0.06 0.04 0  0.07000000000000001 0.04 0  0.08 0.04 0  0.09 0.04 0  0.1 0.04 0  0.11 0.04 0  0.12 0.04 0  0.13 0.04 0  0.14 0.04 0  0.15 0.04 0  0.16 0.04 0  0.17 0.04 0  0.18 0.04 0  0.19 0.04 0  0.2 0.04 0  0.21 0.04 0  0.22 0.04 0  0.23 0.04 0  0.24 0.04 0  0.25 0.04 0  0.26 0.04 0  0.27 0.04 0  0.28 0.04 0  0.29 0.04 0  0.3 0.04 0  0.31 0.04 0  0.32 0.04 0  0.33 0.04 0  0.34 0.04 0  0.35 0.04 0  0.36 0.04 0  0.37 0.04 0  0.38 0.04 0  0.39 0.04 0  0.4 0.04 0  0.41 0.04 0  0.42 0.04 0  0.43 0.04 0  0.44 0.04 0  0.45 0.04 0  0.46 0.04 0  0.47 0.04 0  0.48 0.04 0  0.49 0.04 0  0.5 0.04 0  0.51 0.04 0  0.52 0.04 0  0.53 0.04 0  0.54 0.04 0  0.55 0.04 0  0.5600000000000001 0.04 0  0.57 0.04 0  0.58 0.04 0  0.59 0.04 0  0.6 0.04 0  0.61 0.04 0  0.62 0.04 0  0.63 0.04 0  0.64 0.04 0  0.65 0.04 0  0.66 0.04 0  0.67 0.04 0  0.68 0.04 0  0.6899999999999999 0.04 0  0.7 0.04 0  0.71 0.04 0  0.72 0.04 0  0.73 0.04 0  0.74 0.04 0  0.75 0.04 0  0.76 0.04 0  0.77 0.04 0  0.78 0.04 0  0.79 0.04 0  0.8 0.04 0  0.8100000000000001 0.04 0  0.82 0.04 0  0.83 0.04 0  0.84 0.04 0  0.85 0.04 0  0.86 0.04 0  0.87 0.04 0  0.88 0.04 0  0.89 0.04 0  0.9 0.04 0  0.91 0.04 0  0.92 0.04 0  0.93 0.04 0  0.9399999999999999 0.04 0  0.95 0.04 0  0.96 0.04 0  0.97 0.04 0  0.98 0.04 0  0.99 0.04 0  1 0.04 0  0 0.05 0  0.01 0.05 0  0.02 0.05 0  0.03 0.05 0  0.04 0.05 0  0.05 0.05 0  0.06 0.05 0  0.07000000000000001 0.05 0  0.08 0.05 0  0.09 0.05 0  0.1 0.05 0  0.11 0.05 0  0.12 0.05 0  0.13 0.05 0  0.14 0.05 0  0.15 0.05 0  0.16 0.05 0  0.17 0.05 0  0.18 0.05 0  0.19 0.05 0  0.2 0.05 0  0.21 0.05 0  0.22 0.05 0  0.23 0.05 0  0.24 0.05 0  0.25 0.05 0  0.26 0.05 0  0.27 0.05 0  0.28 0.05 0  0.29 0.05 0  0.3 0.05 0  0.31 0.05 0  0.32 0.05 0  0.33 0.05 0  0.34 0.05 0  0.35 0.05 0  0.36 0.05 0  0.37 0.05 0  0.38 0.05 0  0.39 0.05 0  0.4 0.05 0  0.41 0.05 0  0.42 0.05 0  0.43 0.05 0  0.44 0.05 0  0.45 0.05 0  0.46 0.05 0  0.47 0.05 0  0.48 0.05 0  0.49 0.05 0  0.5 0.05 0  0.51 0.05 0  0.52 0.05 0  0.53 0.05 0  0.54 0.05 0  0.55 0.05 0  0.5600000000000001 0.05 0  0.57 0.05 0  0.58 0.05 0  0.59 0.05 0  0.6 0.05 0  0.61 0.05 0  0.62 0.05 0  0.63 0.05 0  0.64 0.05 0  0.65 0.05 0  0.66 0.05 0  0.67 0.05 0  0.68 0.05 0  0.6899999999999999 0.05 0  0.7 0.05 0  0.71 0.05 0  0.72 0.05 0  0.73 0.05 0  0.74 0.05 0  0.75 0.05 0  0.76 0.05 0  0.77 0.05 0  0.78 0.05 0  0.79 0.05 0  0.8 0.05 0  0.8100000000000001 0.05 0  0.82 0.05 0  0.83 0.05 0  0.84 0.05 0  0.85 0.05 0  0.86 0.05 0  0.87 0.05 0  0.88 0.05 0  0.89 0.05 0  0.9 0.05 0  0.91 0.05 0  0.92 0.05 0  0.93 0.05 0  0.9399999999999999 0.05 0  0.95 0.05 0  0.96 0.05 0  0.97 0.05 0  0.98 0.05 0  0.99 0.05 0  1 0.05 0  0 0.06 0  0.01 0.06 0  0.02 0.06 0  0.03 0.06 0  0.04 0.06 0  0.05 0.06 0  0.06 0.06 0  0.07000000000000001 0.06 0  0.08 0.06 0  0.09 0.06 0  0.1 0.06 0  0.11 0.06 0  0.12 0.06 0  0.13 0.06 0  0.14 0.06 0  0.15 0.06 0  0.16 0.06 0  0.17 0.06 0  0.18 0.06 0  0.19 0.06 0  0.2 0.06 0  0.21 0.06 0  0.22 0.06 0  0.23 0.06 0  0.24 0.06 0  0.25 0.06 0  0.26 0.06 0  0.27 0.06 0  0.28 0.06 0  0.29 0.06 0  0.3 0.06 0  0.31 0.06 0  0.32 0.06 0  0.33 0.06 0  0.34 0.06 0  0.35 0.06 0  0.36 0.06 0  0.37 0.06 0  0.38 0.06 0  0.39 0.06 0  0.4 0.06 0  0.41 0.06 0  0.42 0.06 0  0.43 0.06 0  0.44 0.06 0  0.45 0.06 0  0.46 0.06 0  0.47 0.06 0  0.48 0.06 0  0.49 0.06 0  0.5 0.06 0  0.51 0.06 0  0.52 0.06 0  0.53 0.06 0  0.54 0.06 0  0.55 0.06 0  0.5600000000000001 0.06 0  0.57 0.06 0  0.58 0.06 0  0.59 0.06 0  0.6 0.06 0  0.61 0.06 0  0.62 0.06 0  0.63 0.06 0  0.64 0.06 0  0.65 0.06 0  0.66 0.06 0  0.67 0.06 0  0.68 0.06 0  0.6899999999999999 0.06 0  0.7 0.06 0  0.71 0.06 0  0.72 0.06 0  0.73 0.06 0  0.74 0.06 0  0.75 0.06 0  0.76 0.06 0  0.77 0.06 0  0.78 0.06 0  0.79 0.06 0  0.8 0.06 0  0.8100000000000001 0.06 0  0.82 0.06 0  0.83 0.06 0  0.84 0.06 0  0.85 0.06 0  0.86 0.06 0  0.87 0.06 0  0.88 0.06 0  0.89 0.06 0  0.9 0.06 0  0.91 0.06 0  0.92 0.06 0  0.93 0.06 0  0.9399999999999999 0.06 0  0.95 0.06 0  0.96 0.06 0  0.97 0.06 0  0.98 0.06 0  0.99 0.06 0  1 0.06 0  0 0.07000000000000001 0  0.01 0.07000000000000001 0  0.02 0.07000000000000001 0  0.03 0.07000000000000001 0  0.04 0.07000000000000001 0  0.05 0.07000000000000001 0  0.06 0.07000000000000001 0  0.07000000000000001 0.07000000000000001 0  0.08 0.07000000000000001 0  0.09 0.07000000000000001 0  0.1 0.07000000000000001 0  0.11 0.07000000000000001 0  0.12 0.07000000000000001 0  0.13 0.07000000000000001 0  0.14 0.07000000000000001 0  0.15 0.07000000000000001 0  0.16 0.07000000000000001 0  0.17 0.07000
[...]
<PointData  Vectors="Displacement"> 
<DataArray  type="Float64"  Name="Displacement"  NumberOfComponents="3" format="ascii">0.0000000000000000e+00 0.0000000000000000e+00 0.0000000000000000e+00  9.3310982348079312e-07 6.1648686754256605e-07 0.0000000000000000e+00  1.7577628731382835e-06 1.1987318651473582e-06 0.0000000000000000e+00  2.5432791238046746e-06 1.9589720078766651e-06 0.0000000000000000e+00  3.2942807007128102e-06 2.9224719303867078e-06 0.0000000000000000e+00  4.0059669156311334e-06 4.0840419747180207e-06 0.0000000000000000e+00  4.6726166669150404e-06 5.4282351964034962e-06 0.0000000000000000e+00  5.2891694137085312e-06 6.9330063014225113e-06 0.0000000000000000e+00  5.8523326443311383e-06 8.5718042356090997e-06 0.0000000000000000e+00  6.3610996251111339e-06 1.0316267578803418e-05 0.0000000000000000e+00  6.8168709852324165e-06 1.2138817722276307e-05 0.0000000000000000e+00  7.2229029856450682e-06 1.4014902245984369e-05 0.0000000000000000e+00  7.5828949164436543e-06 1.5924547848231904e-05 0.0000000000000000e+00  7.8995903725375508e-06 1.7851553395235414e-05 0.0000000000000000e+00  8.1748618296389853e-06 1.9780275086090127e-05 0.0000000000000000e+00  8.4110677969687561e-06 2.1694309273044365e-05 0.0000000000000000e+00  8.6116557627300529e-06 2.3578698989931755e-05 0.0000000000000000e+00  8.7804232682687898e-06 2.5421841311458595e-05 0.0000000000000000e+00  8.9204915717186037e-06 2.7215438230828351e-05 0.0000000000000000e+00  9.0340361224975749e-06 2.8952984552634153e-05 0.0000000000000000e+00  9.1228006878452616e-06 3.0628380648849916e-05 0.0000000000000000e+00  9.1881795822082289e-06 3.2236425713737978e-05 0.0000000000000000e+00  9.2305726017040413e-06 3.3773114920652770e-05 0.0000000000000000e+00  9.2491917002562252e-06 3.5234003450047216e-05 0.0000000000000000e+00  9.2430044220575563e-06 3.6612359671741285e-05 0.0000000000000000e+00  9.2120560547666202e-06 3.7899342456768026e-05 0.0000000000000000e+00  9.1581626425627031e-06 3.9085889332755397e-05 0.0000000000000000e+00  9.0847521171429153e-06 4.0164698372918540e-05 0.0000000000000000e+00  8.9962084693406382e-06 4.1131370848911126e-05 0.0000000000000000e+00  8.8970875225046345e-06 4.1984730168124947e-05 0.0000000000000000e+00  8.7916696337415870e-06 4.2726145662154434e-05 0.0000000000000000e+00  8.6839389214525816e-06 4.3358779950011748e-05 0.0000000000000000e+00  8.5777896816878869e-06 4.3887211978189310e-05 0.0000000000000000e+00  8.4775295072494861e-06 4.4316909785901909e-05 0.0000000000000000e+00  8.3878546343704068e-06 4.4655204672053210e-05 0.0000000000000000e+00  8.3128420372799624e-06 4.4912392527765493e-05 0.0000000000000000e+00  8.2547845338017428e-06 4.5100948254815671e-05 0.0000000000000000e+00  8.2135134254519227e-06 4.5233905763390647e-05 0.0000000000000000e+00  8.1861253866786460e-06 4.5322947417559326e-05 0.0000000000000000e+00  8.1681383426887066e-06 4.5376560956625328e-05 0.0000000000000000e+00  8.1558707048074102e-06 4.5400087588957320e-05 0.0000000000000000e+00  8.1506182019554453e-06 4.5401206429313592e-05 0.0000000000000000e+00  8.1470497364088951e-06 4.5383733106748094e-05 0.0000000000000000e+00  7.9941928067263477e-06 4.5613687978900681e-05 0.0000000000000000e+00  8.8335805544112582e-06 4.5844286403322374e-05 0.0000000000000000e+00  9.6222032821466669e-06 4.6441543873825043e-05 0.0000000000000000e+00  1.0347469855363671e-05 4.6955666659070030e-05 0.0000000000000000e+00  1.1033915408089057e-05 4.7449383994704929e-05 0.0000000000000000e+00  1.1694399029517851e-05 4.7927967571323081e-05 0.0000000000000000e+00  1.2347833523901649e-05 4.8390849930130564e-05 0.0000000000000000e+00  1.2997611015424388e-05 4.8881245526238977e-05 0.0000000000000000e+00  1.3638190833094822e-05 4.9415639826631476e-05 0.0000000000000000e+00  1.4266038398795664e-05 4.9995458861785806e-05 0.0000000000000000e+00  1.4879163437593843e-05 5.0622394468979173e-05 0.0000000000000000e+00  1.5476061240331998e-05 5.1295972066796261e-05 0.0000000000000000e+00  1.6056225295849268e-05 5.2013071907576124e-05 0.0000000000000000e+00  1.6619694727712317e-05 5.2770803035541368e-05 0.0000000000000000e+00  1.7166499540367284e-05 5.3566481511689491e-05 0.0000000000000000e+00  1.7696709901637882e-05 5.4397031116802407e-05 0.0000000000000000e+00  1.8210666191281329e-05 5.5259132790268399e-05 0.0000000000000000e+00  1.8708898753854872e-05 5.6149923839077321e-05 0.0000000000000000e+00  1.9191916043942604e-05 5.7067132326058769e-05 0.0000000000000000e+00  1.9660179282465045e-05 5.8008750499850692e-05 0.0000000000000000e+00  2.0114128327366634e-05 5.8973037327991222e-05 0.0000000000000000e+00  2.0554151552276835e-05 5.9958582782974342e-05 0.0000000000000000e+00  2.0980534742187083e-05 6.0964281182104301e-05 0.0000000000000000e+00  2.1393428315476721e-05 6.1989249708617925e-05 0.0000000000000000e+00  2.1792840933737356e-05 6.3032739636963034e-05 0.0000000000000000e+00  2.2178653969636585e-05 6.4094059614291964e-05 0.0000000000000000e+00  2.2550645893054860e-05 6.5172522934883281e-05 0.0000000000000000e+00  2.2908517229341003e-05 6.6267415851169425e-05 0.0000000000000000e+00  2.3251912086554695e-05 6.7377978161979788e-05 0.0000000000000000e+00  2.3580436296617322e-05 6.8503389485096022e-05 0.0000000000000000e+00  2.3893673580759339e-05 6.9642758517567870e-05 0.0000000000000000e+00  2.4191200860813113e-05 7.0795114960250089e-05 0.0000000000000000e+00  2.4472603174441633e-05 7.1959404402036509e-05 0.0000000000000000e+00  2.4737488193983269e-05 7.3134486319466788e-05 0.0000000000000000e+00  2.4985500195350033e-05 7.4319135013942400e-05 0.0000000000000000e+00  2.5216333388907827e-05 7.5512043073776416e-05 0.0000000000000000e+00  2.5429744666826419e-05 7.6711826927015393e-05 0.0000000000000000e+00  2.5625565926649458e-05 7.7917034205846522e-05 0.0000000000000000e+00  2.5803716150969683e-05 7.9126152865562440e-05 0.0000000000000000e+00  2.5964213367452820e-05 8.0337622197145531e-05 0.0000000000000000e+00  2.6107186516082583e-05 8.1549846002052499e-05 0.0000000000000000e+00  2.6232887143822453e-05 8.2761208262738072e-05 0.0000000000000000e+00  2.6341700751106350e-05 8.3970091664123907e-05 0.0000000000000000e+00  2.6434157536386430e-05 8.5174899326493804e-05 0.0000000000000000e+00  2.6510942219238970e-05 8.6374080125158499e-05 0.0000000000000000e+00  2.6572902554482959e-05 8.7566158018095823e-05 0.0000000000000000e+00  2.6621056056199648e-05 8.8749765895713604e-05 0.0000000000000000e+00  2.6656594297994273e-05 8.9923684619176196e-05 0.0000000000000000e+00  2.6680883893619171e-05 9.1086888135298772e-05 0.0000000000000000e+00  2.6695462807416391e-05 9.2238595851611521e-05 0.0000000000000000e+00  2.6702029854534737e-05 9.3378333809768536e-05 0.0000000000000000e+00  2.6702423874782129e-05 9.4506006527821543e-05 0.0000000000000000e+00  2.6698586649550235e-05 9.5621981410565443e-05 0.0000000000000000e+00  2.6692499354919307e-05 9.6727186472108585e-05 0.0000000000000000e+00  2.6686074641619059e-05 9.7823217023081623e-05 0.0000000000000000e+00  2.6680971896922397e-05 9.8912428683822887e-05 0.0000000000000000e+00  2.6678271092940933e-05 9.9997926135169678e-05 0.0000000000000000e+00  2.6677830049471402e-05 1.0108305321897647e-04 0.0000000000000000e+00  0.0000000000000000e+00 0.0000000000000000e+00 0.0000000000000000e+00  5.3070954069098146e-07 3.2078802091569261e-07 0.0000000000000000e+00  1.1420073735403016e-06 8.9989066059764808e-07 0.0000000000000000e+00  1.7267180452662697e-06 1.6701668295738057e-06 0.0000000000000000e+00  2.2829758552743791e-06 2.6459110528093686e-06 0.0000000000000000e+00  2.8121847897826709e-06 3.8214623811521207e-06 0.0000000000000000e+00  3.3141041813771393e-06 5.1813675079498467e-06 0.0000000000000000e+00  3.7878688758001103e-06 6.7033718569234849e-06 0.0000000000000000e+00  4.2326830872952150e-06 8.3603676852869985e-06 0.0000000000000000e+00  4.6480971693407027e-06 1.0123313437212004e-05 0.0000000000000000e+00  5.0341405150679120e-06 1.1963791524931982e-05 0.0000000000000000e+00  5.3916410007631452e-06 1.3856484078943249e-05 0.0000000000000000e+00  5.7220416052211049e-06 1.5781469038103797e-05 0.0000000000000000e+00  6.0263045445541753e-06 1.7723254885646582e-05 0.0000000000000000e+00  6.3048886748375426e-06 1.9666433903264360e-05 0.0000000000000000e+00  6.5588145860754198e-06 2.1594093292022467e-05 0.0000000000000000e+00  6.7897846509706462e-06 2.3490808248034673e-05 0.0000000000000000e+00  6.9995362152596540e-06 2.5345007392868038e-05 0.0000000000000000e+00  7.1892594526584620e-06 2.7148805815635503e-05 0.0000000000000000e+00  7.3596240462578343e-06 2.8896007690881609e-05 0.0000000000000000e+00  7.5113874279652525e-06 3.0580442054652488e-05 0.0000000000000000e+00  7.6454311549427695e-06 3.2196979301097640e-05 0.0000000000000000e+00  7.7621315622670277e-06 3.3742152977334010e-05 0.0000000000000000e+00  7.8611336726591858e-06 3.5212045889853374e-05 0.0000000000000000e+00  7.9419583005908693e-06 3.6599879747178067e-05 0.0000000000000000e+00  8.0047642249722708e-06 3.7896230881151706e-05 0.0000000000000000e+00  8.0506473427003053e-06 3.9091325080719812e-05 0.0000000000000000e+00  8.0814855529078369e-06 4.0177331341899025e-05 0.0000000000000000e+00  8.0995973963735617e-06 4.1149609421830276e-05 0.0000000000000000e+00  8.1073406684550041e-06 4.2007046583880504e-05 0.0000000000000000e+00  8.1069458674879053e-06 4.2751162666798987e-05 0.0000000000000000e+00  8.1005729083233230e-06 4.3385195071388600e-05 0.0000000000000000e+00  8.0904706580130824e-06 4.3913678428368623e-05 0.0000000000000000e+00  8.0794433634297845e-06 4.4341733307930310e-05 0.0000000000000000e+00  8.0707845586567317e-06 4.4676480990745175e-05 0.0000000000000000e+00  8.0674537312727999e-06 4.4928605475130781e-05 0.0000000000000000e+00  8.0712945773628395e-06 4.5111431109495781e-05 0.0000000000000000e+00  8.0825068404248560e-06 4.5239105505747712e-05 0.0000000000000000e+00  8.0993378583949304e-06 4.5324617675694888e-05 0.0000000000000000e+00  8.1179865955275904e-06 4.5377604878481507e-05 0.0000000000000000e+00  8.1332041668329963e-06 4.5402595512461436e-05 0.0000000000000000e+00  8.1395097577177616e-06 4.5400423240017942e-05 0.0000000000000000e+00  8.1444743533850698e-06 4.5379484017849448e-05 0.0000000000000000e+00  8.1483508819503487e-06 4.5337057866009825e-05 0.0000000000000000e+00  8.3518631442923311e-06 4.5435961852987098e-05 0.0000000000000000e+00  9.1605452691340934e-06 4.6126812372110877e-05 0.0000000000000000e+00  9.8920102878114500e-06 4.6655596622529009e-05 0.0000000000000000e+00  1.0579786371470497e-05 4.7164861623359701e-05 0.0000000000000000e+00  1.1234828654048280e-05 4.7654177498203718e-05 0.0000000000000000e+00  1.1872804971692900e-05 4.8117998459379785e-05 0.0000000000000000e+00  1.2493634094759881e-05 4.8612225520482478e-05 0.0000000000000000e+00  1.3095656061279415e-05 4.9152762139596096e-05 0.0000000000000000e+00  1.3680334826750924e-05 4.9738748810786513e-05 0.0000000000000000e+00  1.4248817816832468e-05 5.0372156956371380e-05 0.0000000000000000e+00  1.4801710153701147e-05 5.1052523899276553e-05 0.0000000000000000e+00  1.5339883066135213e-05 5.1776260880031492e-05 0.0000000000000000e+00  1.5863990767820952e-05 5.2540505877385861e-05 0.0000000000000000e+00  1.6374284137327388e-05 5.3342714146693040e-05 0.0000000000000000e+00  1.6870885564646783e-05 5.4179777073671575e-05 0.0000000000000000e+00  1.7354032357166869e-05 5.5048233405576874e-05 0.0000000000000000e+00  1.7823994135409304e-05 5.5945187650665264e-05 0.0000000000000000e+00  1.8280955866185104e-05 5.6868421399567196e-05 0.0000000000000000e+00  1.8725077506993643e-05 5.7815932723447165e-05 0.0000000000000000e+00  1.9156521494031227e-05 5.8785978842261044e-05 0.0000000000000000e+00  1.9575421666361799e-05 5.9777172998650982e-05 0.0000000000000000e+00  1.9981847225826466e-05 6.0788453813867671e-05 0.0000000000000000e+00  2.0375783321305251e-05 6.1818991046481164e-05 0.0000000000000000e+00  2.0757127917885985e-05 6.2868086925260591e-05 0.0000000000000000e+00  2.1125701134462556e-05 6.3935092768306983e-05 0.0000000000000000e+00  2.1481259913743245e-05 6.5019354595342803e-05 0.0000000000000000e+00  2.1823512806642139e-05 6.6120182622312221e-05 0.0000000000000000e+00  2.2152133230746335e-05 6.7236833451144530e-05 0.0000000000000000e+00  2.2466771585859669e-05 6.8368497311348291e-05 0.0000000000000000e+00  2.2767066976230227e-05 6.9514287666479896e-05 0.0000000000000000e+00  2.3052658936728721e-05 7.0673233208447310e-05 0.0000000000000000e+00  2.3323199199553899e-05 7.1844272788709195e-05 0.0000000000000000e+00  2.3578363346252368e-05 7.3026253554084631e-05 0.0000000000000000e+00  2.3817862167326003e-05 7.4217932107427414e-05 0.0000000000000000e+00  2.4041452636027674e-05 7.5417978218889382e-05 0.0000000000000000e+00  2.4248948507382187e-05 7.6624980591098138e-05 0.0000000000000000e+00  2.4440230614891681e-05 7.7837454369990424e-05 0.0000000000000000e+00  2.4615256936769167e-05 7.9053850353397672e-05 0.0000000000000000e+00  2.4774072454084799e-05 8.0272566070793518e-05 0.0000000000000000e+00  2.4916818748102827e-05 8.1491959046793569e-05 0.0000000000000000e+00  2.5043743202434362e-05 8.2710362624871766e-05 0.0000000000000000e+00  2.5155207598449633e-05 8.3926104743177886e-05 0.0000000000000000e+00  2.5251695822446495e-05 8.5137530052976224e-05 0.0000000000000000e+00  2.5333820335750771e-05 8.6343025781777548e-05 0.0000000000000000e+00  2.5402326983894481e-05 8.7541051791516585e-05 0.0000000000000000e+00  2.5458097623984396e-05 8.8730175384321350e-05 0.0000000000000000e+00  2.5502149913232657e-05 8.9909111577014903e-05 0.0000000000000000e+00  2.5535633407393585e-05 9.1076769809750376e-05 0.0000000000000000e+00  2.5559820846996881e-05 9.2232308376628195e-05 0.0000000000000000e+00  2.5576093150781427e-05 9.3375198246683317e-05 0.0000000000000000e+00  2.5585916203289519e-05 9.4505298294874347e-05 0.0000000000000000e+00  2.5590807087424027e-05 9.5622944018164502e-05 0.0000000000000000e+00  2.5592287131913621e-05 9.6729050848852420e-05 0.0000000000000000e+00  2.5591819172717421e-05 9.7825229319360639e-05 0.0000000000000000e+00  2.5590726029330376e-05 9.8913897714492498e-05 0.0000000000000000e+00  2.5590079752438669e-05 9.9998345498076411e-05 0.0000000000000000e+00  2.5590497748316875e-05 1.0108261217550691e-04 0.0000000000000000e+00  0.0000000000000000e+00 0.0000000000000000e+00 0.0000000000000000e+00  2.8597242419526636e-07 1.9030062227659211e-07 0.0000000000000000e+00  6.2964690228173508e-07 7.0334607560361766e-07 0.0000000000000000e+00  9.8929051683455986e-07 1.4671351577889740e-06 0.0000000000000000e+00  1.3426586976628463e-06 2.4477542219151555e-06 0.0000000000000000e+00  1.6873377890788015e-06 3.6299967498396658e-06 0.0000000000000000e+00  2.0247458417808890e-06 4.9976771658481160e-06 0.0000000000000000e+00  2.3561279230334705e-06 6.5283924448771189e-06 0.0000000000000000e+00  2.6822569174619993e-06 8.1946408053612527e-06 0.0000000000000000e+00  3.0030649573370195e-06 9.9672241661531163e-06 0.0000000000000000e+00  3.3172865688438100e-06 1.1817062364911748e-05 0.0000000000000000e+00  3.6237433100752253e-06 1.3717685918776455e-05 0.0000000000000000e+00  3.9221797996428349e-06 1.5649483112359246e-05 0.0000000000000000e+00  4.2117882414629248e-06 1.7598707323018478e-05 0.0000000000000000e+00  4.4913300067462745e-06 1.9550496879985806e-05 0.0000000000000000e+00  4.7602661631007429e-06 2.1486578914309625e-05 0.0000000000000000e+00  5.0187049805253508e-06 2.3390447689065318e-05 0.0000000000000000e+00  5.2669790393058742e-06 2.5250790109127857e-05 0.0000000000000000e+00  5.5046940246228432e-06 2.7060764359167470e-05 0.0000000000000000e+00  5.7306539700787967e-06 2.8814604536838638e-05 0.0000000000000000e+00  5.9442846845106820e-06 3.0505206235553805e-05 0.0000000000000000e+00  6.1461817349687073e-06 3.2127020520831121e-05 0.0000000000000000e+00  6.3368424979097104e-06 3.3677642009172383e-05 0.0000000000000000e+00  6.5157927071218502e-06 3.5154279766093846e-05 0.0000000000000000e+00  6.6822379505995934e-06 3.6550022065527798e-05 0.0000000000000000e+00  6.8359613321388408e-06 3.7854441652299781e-05 0.0000000000000000e+00  6.9774561567082528e-06 3.9056859759129294e-05 0.0000000000000000e+00  7.1075455915216868e-06 4.0149036011775509e-05 0.0000000000000000e+00  7.2269861592072248e-06 4.1126311278693907e-05 0.0000000000000000e+00  7.3362050852293451e-06 4.1987987006396254e-05 0.0000000000000000e+00  7.4354103056908193e-06 4.2735929621610034e-05 0.0000000000000000e+00  7.5247659260571118e-06 4.3373448696281762e-05 0.0000000000000000e+00  7.6046004552812603e-06 4.3904925250973879e-05 0.0000000000000000e+00  7.6764872278991912e-06 4.4334358171742231e-05 0.0000000000000000e+00  7.7433978680475632e-06 4.4668012630861641e-05 0.0000000000000000e+00  7.8084338464128564e-06 4.4917019833441669e-05 0.0000000000000000e+00  7.8738695001575100e-06 4.5095732461129104e-05 0.0000000000000000e+00  7.9406123291127113e-06 4.5219646342644894e-05 0.0000000000000000e+00  8.0077097605460324e-06 4.5303447721251210e-05 0.0000000000000000e+00  8.0722348247644071e-06 4.5358474414114115e-05 0.0000000000000000e+00  8.1295577010265204e-06 4.5391350068026643e-05 0.0000000000000000e+00  8.1676314075152837e-06 4.5395826141264144e-05 0.0000000000000000e+00  8.1868735809204425e-06 4.5362401393343562e-05 0.0000000000000000e+00  8.2162194516040926e-06 4.5328894952219290e-05 0.0000000000000000e+00  8.4599313015490536e-06 4.5423249414388870e-05 0.0000000000000000e+00  8.8165266057285483e-06 4.5845145568612291e-05 0.0000000000000000e+00  9.5628879105972022e-06 4.6375660605387344e-05 0.0000000000000000e+00  1.0203903743744796e-05 4.6895106903258338e-05 0.0000000000000000e+00  1.0832225714790134e-05 4.7397926704038668e-05 0.0000000000000000e+00  1.1446929983978054e-05 4.7853201187077303e-05 0.0000000000000000e+00  1.2036340643167417e-05 4.8355178808441178e-05 0.0000000000000000e+00  1.2596738128832415e-05 4.8907197492513443e-05 0.0000000000000000e+00  1.3135138192270660e-05 4.9500709345574552e-05 0.0000000000000000e+00  1.3656575162727100e-05 5.0140892473031205e-05 0.0000000000000000e+00  1.4163418028506606e-05 5.0827958333219570e-05 0.0000000000000000e+00  1.4658029092435498e-05 5.1557273188181923e-05 0.0000000000000000e+00  1.5141816183978833e-05 5.2326673030844767e-05 0.0000000000000000e+00  1.5615000593579892e-05 5.3134224060025345e-05 0.0000000000000000e+00  1.6077453358590376e-05 5.3976749144534587e-05 0.0000000000000000e+00  1.6529261241937426e-05 5.4850451427264546e-05 0.0000000000000000e+00  1.6970505448894980e-05 5.5752478878783081e-05 0.0000000000000000e+00  1.7401037594667479e-05 5.6680816818767117e-05 0.0000000000000000e+00  1.7820694966869353e-05 5.7633421607642917e-05 0.0000000000000000e+00  1.8229394065995822e-05 5.8608496618649706e-05 0.0000000000000000e+00  1.8627067332196730e-05 5.9604670641305944e-05 0.0000000000000000e+00  1.9013605821640472e-05 6.0620931229740352e-05 0.0000000000000000e+00  1.9388841018141411e-05 6.1656499655687885e-05 0.0000000000000000e+00  1.9752547815838739e-05 6.2710720872475876e-05 0.0000000000000000e+00  2.0104458437711996e-05 6.3782974298056276e-05 0.0000000000000000e+00  2.0444276797067993e-05 6.4872622573064294e-05 0.0000000000000000e+00  2.0771688185823931e-05 6.5978986285349206e-05 0.0000000000000000e+00  2.1086365514521405e-05 6.7101329074618853e-05 0.0000000000000000e+00  2.1387974941580260e-05 6.8238845298308393e-05 0.0000000000000000e+00  2.1676182540976113e-05 6.9390648964449600e-05 0.0000000000000000e+00  2.1950662228415881e-05 7.0555765051979075e-05 0.0000000000000000e+00  2.2211104513224167e-05 7.1733124113823778e-05 0.0000000000000000e+00  2.2457225534997869e-05 7.2921560435032070e-05 0.0000000000000000e+00  2.2688775988817942e-05 7.4119813422998080e-05 0.0000000000000000e+00  2.2905549769477560e-05 7.5326531582621607e-05 0.0000000000000000e+00  2.3107392344956902e-05 7.6540278466710352e-05 0.0000000000000000e+00  2.3294208941401277e-05 7.7759540267783770e-05 0.0000000000000000e+00  2.3465972597761785e-05 7.8982735040285674e-05 0.0000000000000000e+