<?xml version="1.0"?>
<VTKFile type="UnstructuredGrid"  version="0.1"  >
<UnstructuredGrid>
<Piece  NumberOfPoints="5151" NumberOfCells="10000">
<Points>
<DataArray  type="Float64"  NumberOfComponents="3"  format="ascii">0 0 0  0.01 0 0  0.02 0 0  0.03 0 0  0.04 0 0  0.05 0 0  0.06 0 0  0.07000000000000001 0 0  0.08 0 0  0.09 0 0  0.1 0 0  0.11 0 0  0.12 0 0  0.13 0 0  0.14 0 0  0.15 0 0  0.16 0 0  0.17 0 0  0.18 0 0  0.19 0 0  0.2 0 0  0.21 0 0  0.22 0 0  0.23 0 0  0.24 0 0  0.25 0 0  0.26 0 0  0.27 0 0  0.28 0 0  0.29 0 0  0.3 0 0  0.31 0 0  0.32 0 0  0.33 0 0  0.34 0 0  0.35 0 0  0.36 0 0  0.37 0 0  0.38 0 0  0.39 0 0  0.4 0 0  0.41 0 0  0.42 0 0  0.43 0 0  0.44 0 0  0.45 0 0  0.46 0 0  0.47 0 0  0.48 0 0  0.49 0 0  0.5 0 0  0.51 0 0  0.52 0 0  0.53 0 0  0.54 0 0  0.55 0 0  0.5600000000000001 0 0  0.57 0 0  0.58 0 0  0.59 0 0  0.6 0 0  0.61 0 0  0.62 0 0  0.63 0 0  0.64 0 0  0.65 0 0  0.66 0 0  0.67 0 0  0.68 0 0  0.6899999999999999 0 0  0.7 0 0  0.71 0 0  0.72 0 0  0.73 0 0  0.74 0 0  0.75 0 0  0.76 0 0  0.77 0 0  0.78 0 0  0.79 0 0  0.8 0 0  0.8100000000000001 0 0  0.82 0 0  0.83 0 0  0.84 0 0  0.85 0 0  0.86 0 0  0.87 0 0  0.88 0 0  0.89 0 0  0.9 0 0  0.91 0 0  0.92 0 0  0.93 0 0  0.9399999999999999 0 0  0.95 0 0  0.96 0 0  0.97 0 0  0.98 0 0  0.99 0 0  1 0 0  0 0.01 0  0.01 0.01 0  0.02 0.01 0  0.03 0.01 0  0.04 0.01 0  0.05 0.01 0  0.06 0.01 0  0.07000000000000001 0.01 0  0.08 0.01 0  0.09 0.01 0  0.1 0.01 0  0.11 0.01 0  0.12 0.01 0  0.13 0.01 0  0.14 0.01 0  0.15 0.01 0  0.16 0.01 0  0.17 0.01 0  0.18 0.01 0  0.19 0.01 0  0.2 0.01 0  0.21 0.01 0  0.22 0.01 0  0.23 0.01 0  0.24 0.01 0  0.25 0.01 0  0.26 0.01 0  0.27 0.01 0  0.28 0.01 0  0.29 0.01 0  0.3 0.01 0  0.31 0.01 0  0.32 0.01 0  0.33 0.01 0  0.34 0.01 0  0.35 0.01 0  0.36 0.01 0  0.37 0.01 0  0.38 0.01 0  0.39 0.01 0  0.4 0.01 0  0.41 0.01 0  0.42 0.01 0  0.43 0.01 0  0.44 0.01 0  0.45 0.01 0  0.46 0.01 0  0.47 0.01 0  0.48 0.01 0  0.49 0.01 0  0.5 0.01 0  0.51 0.01 0  0.52 0.01 0  0.53 0.01 0  0.54 0.01 0  0.55 0.01 0  0.5600000000000001 0.01 0  0.57 0.01 0  0.58 0.01 0  0.59 0.01 0  0.6 0.01 0  0.61 0.01 0  0.62 0.01 0  0.63 0.01 0  0.64 0.01 0  0.65 0.01 0  0.66 0.01 0  0.67 0.01 0  0.68 0.01 0  0.6899999999999999 0.01 0  0.7 0.01 0  0.71 0.01 0  0.72 0.01 0  0.73 0.01 0  0.74 0.01 0  0.75 0.01 0  0.76 0.01 0  0.77 0.01 0  0.78 0.01 0  0.79 0.01 0  0.8 0.01 0  0.8100000000000001 0.01 0  0.82 0.01 0  0.83 0.01 0  0.84 0.01 0  0.85 0.01 0  0.86 0.01 0  0.87 0.01 0  0.88 0.01 0  0.89 0.01 0  0.9 0.01 0  0.91 0.01 0  0.92 0.01 0  0.93 0.01 0  0.9399999999999999 0.01 0  0.95 0.01 0  0.96 0.01 0  0.97 0.01 0  0.98 0.01 0  0.99 0.01 0  1 0.01 0  0 0.02 0  0.01 0.02 0  0.02 0.02 0  0.03 0.02 0  0.04 0.02 0  0.05 0.02 0  0.06 0.02 0  0.07000000000000001 0.02 0  0.08 0.02 0  0.09 0.02 0  0.1 0.02 0  0.11 0.02 0  0.12 0.02 0  0.13 0.02 0  0.14 0.02 0  0.15 0.02 0  0.16 0.02 0  0.17 0.02 0  0.18 0.02 0  0.19 0.02 0  0.2 0.02 0  0.21 0.02 0  0.22 0.02 0  0.23 0.02 0  0.24 0.02 0  0.25 0.02 0  0.26 0.02 0  0.27 0.02 0  0.28 0.02 0  0.29 0.02 0  0.3 0.02 0  0.31 0.02 0  0.32 0.02 0  0.33 0.02 0  0.34 0.02 0  0.35 0.02 0  0.36 0.02 0  0.37 0.02 0  0.38 0.02 0  0.39 0.02 0  0.4 0.02 0  0.41 0.02 0  0.42 0.02 0  0.43 0.02 0  0.44 0.02 0  0.45 0.02 0  0.46 0.02 0  0.47 0.02 0  0.48 0.02 0  0.49 0.02 0  0.5 0.02 0  0.51 0.02 0  0.52 0.02 0  0.53 0.02 0  0.54 0.02 0  0.55 0.02 0  0.5600000000000001 0.02 0  0.57 0.02 0  0.58 0.02 0  0.59 0.02 0  0.6 0.02 0  0.61 0.02 0  0.62 0.02 0  0.63 0.02 0  0.64 0.02 0  0.65 0.02 0  0.66 0.02 0  0.67 0.02 0  0.68 0.02 0  0.6899999999999999 0.02 0  0.7 0.02 0  0.71 0.02 0  0.72 0.02 0  0.73 0.02 0  0.74 0.02 0  0.75 0.02 0  0.76 0.02 0  0.77 0.02 0  0.78 0.02 0  0.79 0.02 0  0.8 0.02 0  0.8100000000000001 0.02 0  0.82 0.02 0  0.83 0.02 0  0.84 0.02 0  0.85 0.02 0  0.86 0.02 0  0.87 0.02 0  0.88 0.02 0  0.89 0.02 0  0.9 0.02 0  0.91 0.02 0  0.92 0.02 0  0.93 0.02 0  0.9399999999999999 0.02 0  0.95 0.02 0  0.96 0.02 0  0.97 0.02 0  0.98 0.02 0  0.99 0.02 0  1 0.02 0  0 0.03 0  0.01 0.03 0  0.02 0.03 0  0.03 0.03 0  0.04 0.03 0  0.05 0.03 0  0.06 0.03 0  0.07000000000000001 0.03 0  0.08 0.03 0  0.09 0.03 0  0.1 0.03 0  0.11 0.03 0  0.12 0.03 0  0.13 0.03 0  0.14 0.03 0  0.15 0.03 0  0.16 0.03 0  0.17 0.03 0  0.18 0.03 0  0.19 0.03 0  0.2 0.03 0  0.21 0.03 0  0.22 0.03 0  0.23 0.03 0  0.24 0.03 0  0.25 0.03 0  0.26 0.03 0  0.27 0.03 0  0.28 0.03 0  0.29 0.03 0  0.3 0.03 0  0.31 0.03 0  0.32 0.03 0  0.33 0.03 0  0.34 0.03 0  0.35 0.03 0  0.36 0.03 0  0.37 0.03 0  0.38 0.03 0  0.39 0.03 0  0.4 0.03 0  0.41 0.03 0  0.42 0.03 0  0.43 0.03 0  0.44 0.03 0  0.45 0.03 0  0.46 0.03 0  0.47 0.03 0  0.48 0.03 0  0.49 0.03 0  0.5 0.03 0  0.51 0.03 0  0.52 0.03 0  0.53 0.03 0  0.54 0.03 0  0.55 0.03 0  0.5600000000000001 0.03 0  0.57 0.03 0  0.58 0.03 0  0.59 0.03 0  0.6 0.03 0  0.61 0.03 0  0.62 0.03 0  0.63 0.03 0  0.64 0.03 0  0.65 0.03 0  0.66 0.03 0  0.67 0.03 0  0.68 0.03 0  0.6899999999999999 0.03 0  0.7 0.03 0  0.71 0.03 0  0.72 0.03 0  0.73 0.03 0  0.74 0.03 0  0.75 0.03 0  0.76 0.03 0  0.77 0.03 0  0.78 0.03 0  0.79 0.03 0  0.8 0.03 0  0.8100000000000001 0.03 0  0.82 0.03 0  0.83 0.03 0  0.84 0.03 0  0.85 0.03 0  0.86 0.03 0  0.87 0.03 0  0.88 0.03 0  0.89 0.03 0  0.9 0.03 0  0.91 0.03 0  0.92 0.03 0  0.93 0.03 0  0.9399999999999999 0.03 0  0.95 0.03 0  0.96 0.03 0  0.97 0.03 0  0.98 0.03 0  0.99 0.03 0  1 0.03 0  0 0.04 0  0.01 0.04 0  0.02 0.04 0  0.03 0.04 0  0.04 0.04 0  0.05 0.04 0  0.06 0.04 0  0.07000000000000001 0.04 0  0.08 0.04 0  0.09 0.04 0  0.1 0.04 0  0.11 0.04 0  0.12 0.04 0  0.13 0.04 0  0.14 0.04 0  0.15 0.04 0  0.16 0.04 0  0.17 0.04 0  0.18 0.04 0  0.19 0.04 0  0.2 0.04 0  0.21 0.04 0  0.22 0.04 0  0.23 0.04 0  0.24 0.04 0  0.25 0.04 0  0.26 0.04 0  0.27 0.04 0  0.28 0.04 0  0.29 0.04 0  0.3 0.04 0  0.31 0.04 0  0.32 0.04 0  0.33 0.04 0  0.34 0.04 0  0.35 0.04 0  0.36 0.04 0  0.37 0.04 0  0.38 0.04 0  0.39 0.04 0  0.4 0.04 0  0.41 0.04 0  0.42 0.04 0  0.43 0.04 0  0.44 0.04 0  0.45 0.04 0  0.46 0.04 0  0.47 0.04 0  0.48 0.04 0  0.49 0.04 0  0.5 0.04 0  0.51 0.04 0  0.52 0.04 0  0.53 0.04 0  0.54 0.04 0  0.55 0.04 0  0.5600000000000001 0.04 0  0.57 0.04 0  0.58 0.04 0  0.59 0.04 0  0.6 0.04 0  0.61 0.04 0  0.62 0.04 0  0.63 0.04 0  0.64 0.04 0  0.65 0.04 0  0.66 0.04 0  0.67 0.04 0  0.68 0.04 0  0.6899999999999999 0.04 0  0.7 0.04 0  0.71 0.04 0  0.72 0.04 0  0.73 0.04 0  0.74 0.04 0  0.75 0.04 0  0.76 0.04 0  0.77 0.04 0  0.78 0.04 0  0.79 0.04 0  0.8 0.04 0  0.8100000000000001 0.04 0  0.82 0.04 0  0.83 0.04 0  0.84 0.04 0  0.85 0.04 0  0.86 0.04 0  0.87 0.04 0  0.88 0.04 0  0.89 0.04 0  0.9 0.04 0  0.91 0.04 0  0.92 0.04 0  0.93 0.04 0  0.9399999999999999 0.04 0  0.95 0.04 0  0.96 0.04 0  0.97 0.04 0  0.98 0.04 0  0.99 0.04 0  1 0.04 0  0 0.05 0  0.01 0.05 0  0.02 0.05 0  0.03 0.05 0  0.04 0.05 0  0.05 0.05 0  0.06 0.05 0  0.07000000000000001 0.05 0  0.08 0.05 0  0.09 0.05 0  0.1 0.05 0  0.11 0.05 0  0.12 0.05 0  0.13 0.05 0  0.14 0.05 0  0.15 0.05 0  0.16 0.05 0  0.17 0.05 0  0.18 0.05 0  0.19 0.05 0  0.2 0.05 0  0.21 0.05 0  0.22 0.05 0  0.23 0.05 0  0.24 0.05 0  0.25 0.05 0  0.26 0.05 0  0.27 0.05 0  0.28 0.05 0  0.29 0.05 0  0.3 0.05 0  0.31 0.05 0  0.32 0.05 0  0.33 0.05 0  0.34 0.05 0  0.35 0.05 0  0.36 0.05 0  0.37 0.05 0  0.38 0.05 0  0.39 0.05 0  0.4 0.05 0  0.41 0.05 0  0.42 0.05 0  0.43 0.05 0  0.44 0.05 0  0.45 0.05 0  0.46 0.05 0  0.47 0.05 0  0.48 0.05 0  0.49 0.05 0  0.5 0.05 0  0.51 0.05 0  0.52 0.05 0  0.53 0.05 0  0.54 0.05 0  0.55 0.05 0  0.5600000000000001 0.05 0  0.57 0.05 0  0.58 0.05 0  0.59 0.05 0  0.6 0.05 0  0.61 0.05 0  0.62 0.05 0  0.63 0.05 0  0.64 0.05 0  0.65 0.05 0  0.66 0.05 0  0.67 0.05 0  0.68 0.05 0  0.6899999999999999 0.05 0  0.7 0.05 0  0.71 0.05 0  0.72 0.05 0  0.73 0.05 0  0.74 0.05 0  0.75 0.05 0  0.76 0.05 0  0.77 0.05 0  0.78 0.05 0  0.79 0.05 0  0.8 0.05 0  0.8100000000000001 0.05 0  0.82 0.05 0  0.83 0.05 0  0.84 0.05 0  0.85 0.05 0  0.86 0.05 0  0.87 0.05 0  0.88 0.05 0  0.89 0.05 0  0.9 0.05 0  0.91 0.05 0  0.92 0.05 0  0.93 0.05 0  0.9399999999999999 0.05 0  0.95 0.05 0  0.96 0.05 0  0.97 0.05 0  0.98 0.05 0  0.99 0.05 0  1 0.05 0  0 0.06 0  0.01 0.06 0  0.02 0.06 0  0.03 0.06 0  0.04 0.06 0  0.05 0.06 0  0.06 0.06 0  0.07000000000000001 0.06 0  0.08 0.06 0  0.09 0.06 0  0.1 0.06 0  0.11 0.06 0  0.12 0.06 0  0.13 0.06 0  0.14 0.06 0  0.15 0.06 0  0.16 0.06 0  0.17 0.06 0  0.18 0.06 0  0.19 0.06 0  0.2 0.06 0  0.21 0.06 0  0.22 0.06 0  0.23 0.06 0  0.24 0.06 0  0.25 0.06 0  0.26 0.06 0  0.27 0.06 0  0.28 0.06 0  0.29 0.06 0  0.3 0.06 0  0.31 0.06 0  0.32 0.06 0  0.33 0.06 0  0.34 0.06 0  0.35 0.06 0  0.36 0.06 0  0.37 0.06 0  0.38 0.06 0  0.39 0.06 0  0.4 0.06 0  0.41 0.06 0  0.42 0.06 0  0.43 0.06 0  0.44 0.06 0  0.45 0.06 0  0.46 0.06 0  0.47 0.06 0  0.48 0.06 0  0.49 0.06 0  0.5 0.06 0  0.51 0.06 0  0.52 0.06 0  0.53 0.06 0  0.54 0.06 0  0.55 0.06 0  0.5600000000000001 0.06 0  0.57 0.06 0  0.58 0.06 0  0.59 0.06 0  0.6 0.06 0  0.61 0.06 0  0.62 0.06 0  0.63 0.06 0  0.64 0.06 0  0.65 0.06 0  0.66 0.06 0  0.67 0.06 0  0.68 0.06 0  0.6899999999999999 0.06 0  0.7 0.06 0  0.71 0.06 0  0.72 0.06 0  0.73 0.06 0  0.74 0.06 0  0.75 0.06 0  0.76 0.06 0  0.77 0.06 0  0.78 0.06 0  0.79 0.06 0  0.8 0.06 0  0.8100000000000001 0.06 0  0.82 0.06 0  0.83 0.06 0  0.84 0.06 0  0.85 0.06 0  0.86 0.06 0  0.87 0.06 0  0.88 0.06 0  0.89 0.06 0  0.9 0.06 0  0.91 0.06 0  0.92 0.06 0  0.93 0.06 0  0.9399999999999999 0.06 0  0.95 0.06 0  0.96 0.06 0  0.97 0.06 0  0.98 0.06 0  0.99 0.06 0  1 0.06 0  0 0.07000000000000001 0  0.01 0.07000000000000001 0  0.02 0.07000000000000001 0  0.03 0.07000000000000001 0  0.04 0.07000000000000001 0  0.05 0.07000000000000001 0  0.06 0.07000000000000001 0  0.07000000000000001 0.07000000000000001 0  0.08 0.07000000000000001 0  0.09 0.07000000000000001 0  0.1 0.07000000000000001 0  0.11 0.07000000000000001 0  0.12 0.07000000000000001 0  0.13 0.07000000000000001 0  0.14 0.07000000000000001 0  0.15 0.07000000000000001 0  0.16 0.07000000000000001 0  0.17 0.07000
[...]
<PointData  Scalars="rho_bar"> 
<DataArray  type="Float64"  Name="rho_bar"  format="ascii">9.9350565126487655e-01  9.9658312208367272e-01  9.9533070368103915e-01  9.9611858589727986e-01  9.9711343753793036e-01  9.9864011292946198e-01  1.0002110769765771e+00  1.0014201140869663e+00  1.0019942426938482e+00  1.0018285900873625e+00  1.0009471786820063e+00  9.9950108941256577e-01  9.9783664064016220e-01  9.9647665383356931e-01  9.9583667543441712e-01  9.9595178676130081e-01  9.9656035888298522e-01  9.9736330076212421e-01  9.9816603925705594e-01  9.9888825686605287e-01  9.9951672447106821e-01  1.0000567341698061e+00  1.0005100420436821e+00  1.0008693207899615e+00  1.0011191981574628e+00  1.0012424355823835e+00  1.0012218841595639e+00  1.0010485997632204e+00  1.0007347519398557e+00  1.0003145901752997e+00  9.9991156873158360e-01  9.9975044977571959e-01  9.9987176998328231e-01  1.0000106737418539e+00  1.0000446638126694e+00  9.9997806786491983e-01  9.9950828078644716e-01  1.0049895572567002e+00  9.6968747836681690e-01  1.1284295144130205e+00  4.4892250287528324e-01  -1.6193650075603909e-02  -1.5248482619315792e-03  8.1393904722193108e-04  -8.1826669839903555e-05  -7.7473197845108103e-05  2.4581289118160006e-05  1.4357872829909331e-05  -1.9990175072755027e-07  -3.3996972857597225e-06  -4.3060257772289856e-07  6.8042106448026921e-07  1.8858067485396099e-08  -1.2395511004459592e-07  2.6651653347590715e-08  1.2624378241883352e-08  -8.7872355526258693e-09  1.4874122822684297e-09  7.1573488423653320e-10  -5.6048183163907420e-10  1.7217358473164602e-10  -8.6175908660256973e-12  -1.9512475377111508e-11  1.2016538494608451e-11  -4.2356136842306943e-12  9.0710516763624008e-13  -1.0742868503620752e-15  -1.0713729160093541e-13  6.5177634909319893e-14  -2.5765463998696783e-14  9.0432886637439352e-15  -2.0332771273450988e-15  7.8172560910836579e-16  1.5412071611880205e-16  1.5099184830833243e-16  1.6719449811726193e-16  1.0263808107403655e-16  1.1238552593657324e-16  9.9916494446811827e-17  5.1841829443579431e-17  5.5386416702918224e-17  5.5641790023332128e-17  5.5507033452017123e-17  5.5294875972367693e-17  5.6847087908596776e-17  4.9587409540994657e-17  7.4719430106091180e-17  1.9249510243327438e-18  -4.5206101429408118e-19  1.2463880681739364e-19  -2.6060259463236060e-20  2.5906957873085879e-21  6.7131285227836629e-22  -4.5898464294171824e-22  1.7451539494525705e-22  -4.5241592772503272e-23  1.1072644879390597e-23  -3.5128313480696690e-24  9.9282320255063111e-25  -2.5670280797138259e-25  1.3323620544468411e-25  1.0161227329097862e+00  1.0066138644740235e+00  1.0091828449374625e+00  1.0084317746018350e+00  1.0069379531621594e+00  1.0042751111861707e+00  1.0010542643662081e+00  9.9816761582866620e-01  9.9632411634576179e-01  9.9589478104078633e-01  9.9695544776279499e-01  9.9934176010899278e-01  1.0025813650196822e+00  1.0057663672938959e+00  1.0078474661681469e+00  1.0083411063412362e+00  1.0075444071502264e+00  1.0060760638758659e+00  1.0044435969514576e+00  1.0029143970672596e+00  1.0015673284960531e+00  1.0004017949058477e+00  9.9940898713789761e-01  9.9859394344795105e-01  9.9798072140152638e-01  9.9760385602753732e-01  9.9749690971494476e-01  9.9769093448962809e-01  9.9818424909720371e-01  9.9892940531570618e-01  9.9980331253592913e-01  1.0004292078792272e+00  1.0004275829537130e+00  1.0000763894947160e+00  9.9993322338984636e-01  9.9993822838563462e-01  1.0003507362319222e+00  9.9863920921902172e-01  1.0017776666485649e+00  1.0213957237651041e+00  6.9030697918718131e-01  -8.0065472357813527e-02  1.5227732955749243e-02  -1.2038076514643437e-03  -3.7931178683300024e-04  2.5978410643962230e-04  1.5605234399322281e-06  -4.3705719658746857e-05  -1.1551165484534440e-05  6.6734715510496967e-06  3.8413317369812444e-06  -1.1897420135954477e-06  -6.4559851315224095e-07  3.1081065128796663e-07  3.8307784502862700e-08  -6.2593882624327928e-08  1.5790160526653693e-08  3.5164425863554774e-09  -3.9425231013389369e-09  1.3320716382380883e-09  -9.4457216987710299e-11  -1.3744119179623319e-10  8.7008163272252796e-11  -3.0141518179006644e-11  5.9850654350448620e-12  2.7306631696222082e-13  -8.6667501475856279e-13  4.7673941848374671e-13  -1.8225040938979387e-13  5.7087842068308636e-14  -1.3866352708373483e-14  3.0635976824004532e-15  4.1019714657472282e-17  9.6385912919945624e-17  2.5923156715848884e-16  1.3773261608104911e-16  1.1542869487504842e-16  1.0635450346858401e-16  1.2134544573636527e-16  4.5284255844644025e-17  5.7959346454865726e-17  5.5206501090470455e-17  5.5488311149612093e-17  5.5589162884033226e-17  5.5416055906103352e-17  5.4668444998971811e-17  6.3852974758246894e-17  1.1955712733029766e-18  4.7152469723145268e-19  -1.4013656992427733e-19  5.2807863507546942e-21  9.2852407366023999e-21  -4.3628547930493121e-21  1.2830606640307764e-21  -3.2902085881743870e-22  5.7587791838775576e-23  -1.4657033433589568e-23  5.8163108557042414e-24  -1.3105508524658445e-24  2.1684832283447586e-25  -9.7696029179855918e-27  9.4380331121125527e-01  9.7625275933628219e-01  9.6848337815518315e-01  9.6923983143490877e-01  9.7232252080963022e-01  9.7974553418362764e-01  9.9036306391666507e-01  1.0013474834533496e+00  1.0097590099522638e+00  1.0137375530553123e+00  1.0125686165939585e+00  1.0064374739050321e+00  9.9637916924615566e-01  9.8473346203850953e-01  9.7520175229392059e-01  9.7077983653100064e-01  9.7164781429725111e-01  9.7593043404777746e-01  9.8155531287745756e-01  9.8716858231657689e-01  9.9221785644076488e-01  9.9661590243433107e-01  1.0003958641552946e+00  1.0035687577997339e+00  1.0060853890206041e+00  1.0078347954401077e+00  1.0086963719684177e+00  1.0085585516323774e+00  1.0073410532088156e+00  1.0051475785216657e+00  1.0022375764294789e+00  9.9935672499831318e-01  9.9817436081623179e-01  9.9913174805426719e-01  1.0001661622780944e+00  1.0001639891010128e+00  9.9989905384898525e-01  9.9993003848491702e-01  1.0015866181552109e+00  9.9224167426572740e-01  9.7085833812887157e-01  -5.0868857981625683e-03  2.8225010199051815e-02  -9.8329594415003680e-03  3.2149617328591945e-03  -7.1170433847462817e-04  -3.0862600746770381e-04  1.3624248673205620e-04  9.7071482879421960e-05  -4.8841575981656605e-06  -2.3845670246006681e-05  -8.5527912096937442e-07  4.5483381217199194e-06  -4.9503617997062170e-07  -6.5741658884689295e-07  2.7666649636914283e-07  5.5272851305480591e-09  -4.5025836497710634e-08  1.9380420749115284e-08  -2.7763914738555239e-09  -1.3340075151088113e-09  1.0946037353832730e-09  -4.2595785895279030e-10  9.9688194339719586e-11  -4.2926930786068081e-12  -9.5005410600656749e-12  6.0930861183601966e-12  -2.5338523718271116e-12  8.4169456656292965e-13  -2.3162578624198646e-13  5.2363613153484984e-14  -7.4180237259679985e-15  -7.3683368408057511e-17  1.1502650158465156e-15  -2.9343556367381206e-16  3.6278673619060072e-16  5.3692878844763737e-17  1.3476240705869236e-16  1.0758045405796715e-16  6.9994197032924851e-17  5.6050490937173342e-17  5.4608242027113772e-17  5.5810701874429282e-17  5.5448758553138900e-17  5.5443802437655097e-17  5.5794105136848832e-17  5.6625511530472286e-17  3.1469346838286121e-17  -5.9984561910756059e-18  6.4098329426952767e-19  5.0452849170617673e-20  -4.9864785441628495e-20  1.6704973140236185e-20  -4.3581544221604356e-21  1.1393378805059023e-21  -2.2139193547435514e-22  9.0269274519976004e-23  -3.1562228719805685e-23  5.0721343403147084e-24  -7.2198025853931780e-25  5.0903823370431023e-27  1.1767278994915733e+00  1.0936264406197171e+00  1.1104946580717403e+00  1.1132231379377930e+00  1.1074040510135532e+00  1.0863269343274231e+00  1.0492871710919449e+00  1.0040196295696657e+00  9.6249858733444571e-01  9.3503215305087872e-01  9.2790292376451866e-01  9.4286307310908923e-01  9.7714917769895848e-01  1.0234127083365843e+00  1.0687625076924097e+00  1.0984678840087974e+00  1.1062945786686538e+00  1.0967736653083147e+00  1.0781880680091300e+00  1.0572831595918788e+00  1.0376086322737490e+00  1.0202138252777857e+00  1.0051211263551769e+00  9.9225533240839237e-01  9.8167969954227685e-01  9.7371663227263894e-01  9.6883196112388914e-01  9.6744444921408534e-01  9.6994492791016063e-01  9.7640519015788885e-01  9.8600278187724177e-01  9.9732571952170002e-01  1.0058837821373414e+00  1.0057210895770725e+00  1.0006413014584792e+00  9.9905414124810521e-01  1.0000226311582978e+00  1.0001948224029866e+00  9.9972561892866318e-01  9.9779821352123499e-01  1.0270702231929962e+00  5.9514750914255055e-01  -6.0886268241499619e-02  2.1240844858642343e-02  -6.3773869483097828e-03  -7.1935613772773643e-04  2.2079677855925258e-03  -4.1490048962735956e-05  -5.2217012894432903e-04  -1.3634125881806767e-04  9.7302647679371938e-05  4.0997279641662773e-05  -1.9219464187943908e-05  -4.8847720915386341e-06  4.2989059844165227e-06  -4.8513531903259989e-07  -4.9867995669691956e-07  2.8068297142515096e-07  -5.4740553219372156e-08  -1.3312821197029531e-08  1.4535646194007022e-08  -6.0871872928018945e-09  1.5115677817846209e-09  -9.9595004576531660e-11  -1.2509659784895372e-10  8.4857097533728044e-11  -3.5887980195137259e-11  1.1974757706467163e-11  -3.3038290815389673e-12  7.3408731334014834e-13  -1.0608992678286100e-13  -6.6888159030288319e-15  1.4100403505899280e-14  -6.9359182818198946e-15  3.0975006137337621e-15  -8.3613112820523744e-16  4.9388337934129201e-16  7.9842726206726902e-19  1.3983822868960251e-16  1.0778284558108288e-16  4.3407044747457097e-17  5.8577783045048133e-17  5.4879539210424030e-17  5.5638251497758762e-17  5.5471033612771745e-17  5.5751884056267000e-17  5.3463485024531034e-17  6.7132388835375144e-17  -6.0017996011717367e-19  2.8134910034807369e-18  -1.0427755545000878e-18  2.8379573422200525e-19  -6.6330870970445180e-20  1.5401586049263895e-20  -4.0171764080248990e-21  8.0665567741091825e-22  -4.3647815261200186e-22  1.0488591128112052e-22  -2.0132252446917630e-24  -6.4113182208988584e-25  9.8949118030541054e-25  3.5974008361964860e-01  4.6602482255478850e-01  4.1642347028215171e-01  3.4004604173693548e-01  2.4762466891064580e-01  1.5354749470225018e-01  7.1076733070620735e-02  6.1676807315791974e-03  -3.8313246981723170e-02  -6.2895463421320380e-02  -7.1307328052298086e-02  -6.6295196745716850e-02  -4.6729926638760508e-02  -7.5030632126467925e-03  5.7977691792464328e-02  1.5333643633569810e-01  2.7613527931005571e-01  4.1575799767774096e-01  5.5524535516852569e-01  6.8033189192373533e-01  7.8495972481594112e-01  8.7009164846620457e-01  9.3973030739678420e-01  9.9717808839203104e-01  1.0441853741554497e+00  1.0810116676587607e+00  1.1064781300927040e+00  1.1192034970860687e+00  1.1178602369429997e+00  1.1013885334472877e+00  1.0709851170783253e+00  1.0314722873647164e+00  9.9088302431346775e-01  9.7313334883025093e-01  9.8865782537184388e-01  1.0033933271768958e+00  1.0012685720090937e+00  9.9926370623600380e-01  9.9994998030247984e-01  1.0019747086347333e+00  9.8650957259692063e-01  1.0510970745347756e+00  5.3975778331032276e-01  -6.6921482575516875e-02  1.0860539038480055e-02  1.4456588884143003e-02  -8.4095729280736879e-03  -3.0506421396798767e-03  1.7870336160952754e-03  1.2906538077844395e-03  -1.3989481793687765e-04  -3.1983964400015522e-04  2.0475814043351203e-05  5.5036027051452298e-05  -1.4859938026226700e-05  -4.4110690470689816e-06  3.9024300511466358e-06  -9.8808204335584203e-07  -1.0309271651192384e-07  1.8981306822208366e-07  -8.6334431044180470e-08  2.2631379892375370e-08  -1.9158420599308208e-09  -1.6353006703884819e-09  1.1727458510481030e-09  -5.0277543052933139e-10  1.6844262375164704e-10  -4.6517169746917079e-11  1.0316811045270313e-11  -1.4990410462872932e-12  -9.7032694179822369e-14  1.9199957230099526e-13  -9.9649359079162765e-14  4.0229893891398986e-14  -1.3657737955084149e-14  4.6558431284519533e-15  -1.1689988763860245e-15  5.2709458575736368e-16  4.3524513434898480e-18  1.3796167210927278e-16  9.0930414612470655e-17  4.8502680139071781e-17  5.7219119443564999e-17  5.5002481624634540e-17  5.5691790913142610e-17  5.5333125640500934e-17  5.6116958585184196e-17  5.3932056483759992e-17  5.3699009908417349e-17  -1.3123496532714919e-17  3.2429789232538374e-18  -7.7504847739619593e-19  1.8079243380570746e-19  -4.8844715952913200e-20  1.4436428317724463e-20  -3.3227950545952584e-21  2.0185696057351009e-21  -1.8011961780074945e-22  -6.9411517829450426e-23  3.7361842180613754e-24  -3.2158133029110968e-24  -2.5183619784938230e-02  -9.4721226992760602e-02  -9.9722264918490011e-02  -8.5997095533164841e-02  -6.8859640332624997e-02  -4.7661082448589326e-02  -2.6357181488515732e-02  -7.9119504326887330e-03  6.0760113585581876e-03  1.4924171820518920e-02  1.9100763410015355e-02  1.9535993327412886e-02  1.6501458967924671e-02  9.2044823047801091e-03  -3.8126679546847354e-03  -2.3509222512997183e-02  -4.9107460933613151e-02  -7.7359142786915969e-02  -1.0276084451962364e-01  -1.1969336731068540e-01  -1.2431954599986354e-01  -1.1455611500704398e-01  -9.0282991730732925e-02  -5.3689980648973526e-02  -7.5178687431232787e-03  4.7634636117779093e-02  1.1329150754914290e-01  1.9351694261893551e-01  2.9593303446202263e-01  4.2786976574248148e-01  5.8970360566642166e-01  7.6966855023379854e-01  9.4662024518369814e-01  1.0830978102997244e+00  1.0818061072701419e+00  1.0018774835235627e+00  9.8766792634364919e-01  1.0027848267082911e+00  1.0000513175462944e+00  9.9885938862647239e-01  1.0042714205750918e+00  9.8322987521373528e-01  1.0443931004510447e+00  8.4495714719948500e-01  1.2306473220690618e-01  -9.2795023541917779e-02  1.3778185738583320e-02  2.4020032472002028e-02  -1.2351697404840306e-03  -7.1599390523994413e-03  -1.5720266477751213e-03  1.4797359146981723e-03  4.2044679944399830e-04  -3.0026964235255714e-04  -1.1456541953300630e-05  5.0577525029277745e-05  -1.6967241628761357e-05  -6.4330542034376781e-08  2.4114967572294177e-06  -1.2206085839049947e-06  3.3921284671062790e-07  -3.4872588072611435e-08  -2.1113426107998863e-08  1.6188250935139279e-08  -7.0451951787462374e-09  2.3715633376874140e-09  -6.5581262691294351e-10  1.4551118347331656e-10  -2.1233337010346389e-11  -1.3073491490732556e-12  2.6624352624021667e-12  -1.3929945232696437e-12  5.5670128121150467e-13  -1.9358775959421047e-13  6.2240230908923709e-14  -1.8229055794481518e-14  5.3982157023458857e-15  -1.2050534354772028e-15  4.7414575476902774e-16  2.9667891719480819e-17  1.3192576494842403e-16  8.0398905421606363e-17  4.7938105488082008e-17  5.7918508606443102e-17  5.4771715355952862e-17  5.5766461564619312e-17  5.5336932200103348e-17  5.5614579858826285e-17  5.6515053660199817e-17  5.1046367554587319e-17  -1.0003158660706570e-17  2.6731146823140104e-18  -6.8761535471829321e-19  2.0928908198159715e-19  -6.0520363466369405e-20  1.4684894926291814e-20  -7.9926017915658374e-21  -9.8607869524767715e-22  4.4923055547740509e-22  4.0749299045556710e-23  1.2115283845218193e-23  -9.3212324108516939e-04  1.6941962498807441e-02  2.7715168378196913e-02  2.5129002251858497e-02  2.0869193086563480e-02  1.5698733959724934e-02  9.8677743772738798e-03  4.4668166654873200e-03  8.2894366047285347e-05  -2.9799631526637397e-03  -4.6977834883926732e-03  -5.2922906438401564e-03  -4.9525625187279076e-03  -3.6087995955511377e-03  -9.3168409063947586e-04  3.4459207471114156e-03  9.5840089930438258e-03  1.6957091240192457e-02  2.4354099774635114e-02  3.0213299693426184e-02  3.3246946481993903e-02  3.2679477420906093e-02  2.8224925505860480e-02  2.0217332403266584e-02  9.4591990255675617e-03  -3.4534568317653768e-03  -1.8444568585366528e-02  -3.5835821977313269e-02  -5.6415439225590357e-02  -8.0547239454272404e-02  -1.0550668370513547e-01  -1.2102227594224810e-01  -9.8518034182945899e-02  1.8681272238609565e-02  3.2012393808487660e-01  8.1204408280870266e-01  1.0602027574028592e+00  9.9662355457955010e-01  9.9682845025976607e-01  1.0013635943664934e+00  9.9857006506321011e-01  1.0032227400451073e+00  9.9349846634925609e-01  9.9693209079685530e-01  1.0713743836152179e+00  7.4399699432070077e-01  1.2527358565477187e-01  -1.0878823278394106e-01  -3.3549863655125689e-02  2.5656089812088882e-02  1.7070173792658065e-02  -3.1030201851760227e-03  -4.1631560912321081e-03  7.6053848407081365e-04  5.5660864185886325e-04  -2.7834705990065331e-04  2.2578062075147888e-05  2.9221153542904591e-05  -1.7193689587726957e-05  5.1008473092984477e-06  -6.1461783256205623e-07  -2.6865383038225690e-07  2.2349415606340538e-07  -9.8844277920343510e-08  3.3424792681649331e-08  -9.2507442716643912e-09  2.0524801510600998e-09  -3.0029806283465183e-10  -1.7617505073242963e-11  3.7034992265378023e-11  -1.9423053189996973e-11  7.7554821525795874e-12  -2.7035622380228540e-12  8.6369620067010058e-13  -2.5699925283020118e-13  7.2554167008744559e-14  -1.8815428221187263e-14  4.8676746840497315e-15  -8.4795226377485670e-16  3.1570441757285759e-16  9.0170218490231041e-17  1.1158393750658148e-16  8.9280025755938906e-17  4.5185942479976643e-17  5.8505398744224013e-17  5.4618881186313088e-17  5.5782600091365110e-17  5.5498495833977822e-17  5.5046838858910806e-17  5.7704640149392946e-17  4.4804000867616775e-17  -1.0520122775757893e-17  2.7042782514410487e-18  -8.6673384383640143e-19  2.2718735227868989e-19  -5.3630860753172643e-20  2.2920823190227749e-20  1.2640196776983325e-20  -1.0188033573431713e-21  -4.8171944368894020e-22  -1.5844685629563423e-22  8.1493578632601518e-04  -1.9341686682934126e-03  -6.4156231591497572e-03  -7.3414349430787349e-03  -6.1764131028898194e-03  -4.9295779264489801e-03  -3.4297931713989514e-03  -1.8943452263673565e-03  -5.6937829610215185e-04  4.3387414842768632e-04  1.0704263176856395e-03  1.3722567930140660e-03  1.4039230627663048e-03  1.1855134416988366e-03  6.5964122650968491e-04  -2.7708917912881823e-04  -1.6928974379251372e-03  -3.5325295244437636e-03  -5.5597913027147271e-03  -7.3852461713101942e-03  -8.6114031906445489e-03  -8.9596583822370880e-03  -8.2859499835986929e-03  -6.5952198398794041e-03  -4.0549870380725455e-03  -8.7138997375771062e-04  2.8643827056257427e-03  7.1857613371313737e-03  1.2251595946864735e-02  1.8280955197574264e-02  2.5067670426799624e-02  3.1189697131581748e-02  3.1833303890136451e-02  1.6912271333252085e-02  -3.0236253309522135e-02  -1.0280071358757710e-01  1.6712160719594216e-01  8.9055867984985504e-01  1.0166812279334432e+00  9.9579499003938576e-01  1.0004869552602043e+00  9.9958274654311752e-01  9.9999884502025893e-01  1.0038000919517311e+00  9.8437529066352603e-01  1.0063792080620051e+00  1.0862077652512510e+00  8.8497544608350465e-01  3.8043164742710056e-01  -1.9886732705985358e-02  -9.8782816827741426e-02  -1.6338512389325762e-02  2.2270693701067205e-02  3.1658221543880028e-03  -4.2408278118578318e-03  7.3094617155609117e-04  3.2086101291323063e-04  -2.4080872126471708e-04  7.7129896295192836e-05  -1.0636740651260537e-05  -3.3508793468956808e-06  3.0878011072542719e-06  -1.3890906552416514e-06  4.7161134278616899e-07  -1.3053882025253283e-07  2.8942324129596891e-08  -4.2413485947490368e-09  -2.3815650601666978e-10  5.1543412715267087e-10  -2.7071180715280570e-10  1.0810458571576016e-10  -3.7696887852516304e-11  1.2032001468789312e-11  -3.5854156445473229e-12  1.0067959900367388e-12  -2.6501891781609229e-13  6.5185968850224569e-14  -1.3883445318454186e-14  2.6418911312942555e-15  1.3210004338375962e-17  1.1866425958330191e-17  1.9049788090312674e-16  8.0491208991370736e-17  9.7922467739389575e-17  4.3453653561156157e-17  5.9152721119907704e-17  5.4441630781146147e-17  5.5775812660743333e-17  5.5586076101277741e-17  5.4933936017954161e-17  5.7559776919467025e-17  5.1348736741032188e-17  -1.0302344472090485e-17  3.4780322554427731e-18  -7.3076852340742433e-19  1.3924039580962702e-19  -2.1727938219431330e-20  -8.1498630080471707e-20  -7.2658899274992110e-21  1.7570808780341294e-21  1.8205061432153525e-21  -1.6613781456738567e-04  3.8581802030400415e-05  1.1577322298249790e-03  1.9548877754477102e-03  1.8419228368537113e-03  1.4896290770131208e-03  1.1263044268924138e-03  7.1000451955066581e-04  3.2074752890331364e-04  6.3609105219186935e-06  -2.1351840907596635e-04