<?xml version="1.0"?>
<VTKFile type="UnstructuredGrid"  version="0.1"  >
<UnstructuredGrid>
<Piece  NumberOfPoints="5151" NumberOfCells="10000">
<Points>
<DataArray  type="Float64"  NumberOfComponents="3"  format="ascii">0 0 0  0.01 0 0  0.02 0 0  0.03 0 0  0.04 0 0  0.05 0 0  0.06 0 0  0.07000000000000001 0 0  0.08 0 0  0.09 0 0  0.1 0 0  0.11 0 0  0.12 0 0  0.13 0 0  0.14 0 0  0.15 0 0  0.16 0 0  0.17 0 0  0.18 0 0  0.19 0 0  0.2 0 0  0.21 0 0  0.22 0 0  0.23 0 0  0.24 0 0  0.25 0 0  0.26 0 0  0.27 0 0  0.28 0 0  0.29 0 0  0.3 0 0  0.31 0 0  0.32 0 0  0.33 0 0  0.34 0 0  0.35 0 0  0.36 0 0  0.37 0 0  0.38 0 0  0.39 0 0  0.4 0 0  0.41 0 0  0.42 0 0  0.43 0 0  0.44 0 0  0.45 0 0  0.46 0 0  0.47 0 0  0.48 0 0  0.49 0 0  0.5 0 0  0.51 0 0  0.52 0 0  0.53 0 0  0.54 0 0  0.55 0 0  0.5600000000000001 0 0  0.57 0 0  0.58 0 0  0.59 0 0  0.6 0 0  0.61 0 0  0.62 0 0  0.63 0 0  0.64 0 0  0.65 0 0  0.66 0 0  0.67 0 0  0.68 0 0  0.6899999999999999 0 0  0.7 0 0  0.71 0 0  0.72 0 0  0.73 0 0  0.74 0 0  0.75 0 0  0.76 0 0  0.77 0 0  0.78 0 0  0.79 0 0  0.8 0 0  0.8100000000000001 0 0  0.82 0 0  0.83 0 0  0.84 0 0  0.85 0 0  0.86 0 0  0.87 0 0  0.88 0 0  0.89 0 0  0.9 0 0  0.91 0 0  0.92 0 0  0.93 0 0  0.9399999999999999 0 0  0.95 0 0  0.96 0 0  0.97 0 0  0.98 0 0  0.99 0 0  1 0 0  0 0.01 0  0.01 0.01 0  0.02 0.01 0  0.03 0.01 0  0.04 0.01 0  0.05 0.01 0  0.06 0.01 0  0.07000000000000001 0.01 0  0.08 0.01 0  0.09 0.01 0  0.1 0.01 0  0.11 0.01 0  0.12 0.01 0  0.13 0.01 0  0.14 0.01 0  0.15 0.01 0  0.16 0.01 0  0.17 0.01 0  0.18 0.01 0  0.19 0.01 0  0.2 0.01 0  0.21 0.01 0  0.22 0.01 0  0.23 0.01 0  0.24 0.01 0  0.25 0.01 0  0.26 0.01 0  0.27 0.01 0  0.28 0.01 0  0.29 0.01 0  0.3 0.01 0  0.31 0.01 0  0.32 0.01 0  0.33 0.01 0  0.34 0.01 0  0.35 0.01 0  0.36 0.01 0  0.37 0.01 0  0.38 0.01 0  0.39 0.01 0  0.4 0.01 0  0.41 0.01 0  0.42 0.01 0  0.43 0.01 0  0.44 0.01 0  0.45 0.01 0  0.46 0.01 0  0.47 0.01 0  0.48 0.01 0  0.49 0.01 0  0.5 0.01 0  0.51 0.01 0  0.52 0.01 0  0.53 0.01 0  0.54 0.01 0  0.55 0.01 0  0.5600000000000001 0.01 0  0.57 0.01 0  0.58 0.01 0  0.59 0.01 0  0.6 0.01 0  0.61 0.01 0  0.62 0.01 0  0.63 0.01 0  0.64 0.01 0  0.65 0.01 0  0.66 0.01 0  0.67 0.01 0  0.68 0.01 0  0.6899999999999999 0.01 0  0.7 0.01 0  0.71 0.01 0  0.72 0.01 0  0.73 0.01 0  0.74 0.01 0  0.75 0.01 0  0.76 0.01 0  0.77 0.01 0  0.78 0.01 0  0.79 0.01 0  0.8 0.01 0  0.8100000000000001 0.01 0  0.82 0.01 0  0.83 0.01 0  0.84 0.01 0  0.85 0.01 0  0.86 0.01 0  0.87 0.01 0  0.88 0.01 0  0.89 0.01 0  0.9 0.01 0  0.91 0.01 0  0.92 0.01 0  0.93 0.01 0  0.9399999999999999 0.01 0  0.95 0.01 0  0.96 0.01 0  0.97 0.01 0  0.98 0.01 0  0.99 0.01 0  1 0.01 0  0 0.02 0  0.01 0.02 0  0.02 0.02 0  0.03 0.02 0  0.04 0.02 0  0.05 0.02 0  0.06 0.02 0  0.07000000000000001 0.02 0  0.08 0.02 0  0.09 0.02 0  0.1 0.02 0  0.11 0.02 0  0.12 0.02 0  0.13 0.02 0  0.14 0.02 0  0.15 0.02 0  0.16 0.02 0  0.17 0.02 0  0.18 0.02 0  0.19 0.02 0  0.2 0.02 0  0.21 0.02 0  0.22 0.02 0  0.23 0.02 0  0.24 0.02 0  0.25 0.02 0  0.26 0.02 0  0.27 0.02 0  0.28 0.02 0  0.29 0.02 0  0.3 0.02 0  0.31 0.02 0  0.32 0.02 0  0.33 0.02 0  0.34 0.02 0  0.35 0.02 0  0.36 0.02 0  0.37 0.02 0  0.38 0.02 0  0.39 0.02 0  0.4 0.02 0  0.41 0.02 0  0.42 0.02 0  0.43 0.02 0  0.44 0.02 0  0.45 0.02 0  0.46 0.02 0  0.47 0.02 0  0.48 0.02 0  0.49 0.02 0  0.5 0.02 0  0.51 0.02 0  0.52 0.02 0  0.53 0.02 0  0.54 0.02 0  0.55 0.02 0  0.5600000000000001 0.02 0  0.57 0.02 0  0.58 0.02 0  0.59 0.02 0  0.6 0.02 0  0.61 0.02 0  0.62 0.02 0  0.63 0.02 0  0.64 0.02 0  0.65 0.02 0  0.66 0.02 0  0.67 0.02 0  0.68 0.02 0  0.6899999999999999 0.02 0  0.7 0.02 0  0.71 0.02 0  0.72 0.02 0  0.73 0.02 0  0.74 0.02 0  0.75 0.02 0  0.76 0.02 0  0.77 0.02 0  0.78 0.02 0  0.79 0.02 0  0.8 0.02 0  0.8100000000000001 0.02 0  0.82 0.02 0  0.83 0.02 0  0.84 0.02 0  0.85 0.02 0  0.86 0.02 0  0.87 0.02 0  0.88 0.02 0  0.89 0.02 0  0.9 0.02 0  0.91 0.02 0  0.92 0.02 0  0.93 0.02 0  0.9399999999999999 0.02 0  0.95 0.02 0  0.96 0.02 0  0.97 0.02 0  0.98 0.02 0  0.99 0.02 0  1 0.02 0  0 0.03 0  0.01 0.03 0  0.02 0.03 0  0.03 0.03 0  0.04 0.03 0  0.05 0.03 0  0.06 0.03 0  0.07000000000000001 0.03 0  0.08 0.03 0  0.09 0.03 0  0.1 0.03 0  0.11 0.03 0  0.12 0.03 0  0.13 0.03 0  0.14 0.03 0  0.15 0.03 0  0.16 0.03 0  0.17 0.03 0  0.18 0.03 0  0.19 0.03 0  0.2 0.03 0  0.21 0.03 0  0.22 0.03 0  0.23 0.03 0  0.24 0.03 0  0.25 0.03 0  0.26 0.03 0  0.27 0.03 0  0.28 0.03 0  0.29 0.03 0  0.3 0.03 0  0.31 0.03 0  0.32 0.03 0  0.33 0.03 0  0.34 0.03 0  0.35 0.03 0  0.36 0.03 0  0.37 0.03 0  0.38 0.03 0  0.39 0.03 0  0.4 0.03 0  0.41 0.03 0  0.42 0.03 0  0.43 0.03 0  0.44 0.03 0  0.45 0.03 0  0.46 0.03 0  0.47 0.03 0  0.48 0.03 0  0.49 0.03 0  0.5 0.03 0  0.51 0.03 0  0.52 0.03 0  0.53 0.03 0  0.54 0.03 0  0.55 0.03 0  0.5600000000000001 0.03 0  0.57 0.03 0  0.58 0.03 0  0.59 0.03 0  0.6 0.03 0  0.61 0.03 0  0.62 0.03 0  0.63 0.03 0  0.64 0.03 0  0.65 0.03 0  0.66 0.03 0  0.67 0.03 0  0.68 0.03 0  0.6899999999999999 0.03 0  0.7 0.03 0  0.71 0.03 0  0.72 0.03 0  0.73 0.03 0  0.74 0.03 0  0.75 0.03 0  0.76 0.03 0  0.77 0.03 0  0.78 0.03 0  0.79 0.03 0  0.8 0.03 0  0.8100000000000001 0.03 0  0.82 0.03 0  0.83 0.03 0  0.84 0.03 0  0.85 0.03 0  0.86 0.03 0  0.87 0.03 0  0.88 0.03 0  0.89 0.03 0  0.9 0.03 0  0.91 0.03 0  0.92 0.03 0  0.93 0.03 0  0.9399999999999999 0.03 0  0.95 0.03 0  0.96 0.03 0  0.97 0.03 0  0.98 0.03 0  0.99 0.03 0  1 0.03 0  0 0.04 0  0.01 0.04 0  0.02 0.04 0  0.03 0.04 0  0.04 0.04 0  0.05 0.04 0  0.06 0.04 0  0.07000000000000001 0.04 0  0.08 0.04 0  0.09 0.04 0  0.1 0.04 0  0.11 0.04 0  0.12 0.04 0  0.13 0.04 0  0.14 0.04 0  0.15 0.04 0  0.16 0.04 0  0.17 0.04 0  0.18 0.04 0  0.19 0.04 0  0.2 0.04 0  0.21 0.04 0  0.22 0.04 0  0.23 0.04 0  0.24 0.04 0  0.25 0.04 0  0.26 0.04 0  0.27 0.04 0  0.28 0.04 0  0.29 0.04 0  0.3 0.04 0  0.31 0.04 0  0.32 0.04 0  0.33 0.04 0  0.34 0.04 0  0.35 0.04 0  0.36 0.04 0  0.37 0.04 0  0.38 0.04 0  0.39 0.04 0  0.4 0.04 0  0.41 0.04 0  0.42 0.04 0  0.43 0.04 0  0.44 0.04 0  0.45 0.04 0  0.46 0.04 0  0.47 0.04 0  0.48 0.04 0  0.49 0.04 0  0.5 0.04 0  0.51 0.04 0  0.52 0.04 0  0.53 0.04 0  0.54 0.04 0  0.55 0.04 0  0.5600000000000001 0.04 0  0.57 0.04 0  0.58 0.04 0  0.59 0.04 0  0.6 0.04 0  0.61 0.04 0  0.62 0.04 0  0.63 0.04 0  0.64 0.04 0  0.65 0.04 0  0.66 0.04 0  0.67 0.04 0  0.68 0.04 0  0.6899999999999999 0.04 0  0.7 0.04 0  0.71 0.04 0  0.72 0.04 0  0.73 0.04 0  0.74 0.04 0  0.75 0.04 0  0.76 0.04 0  0.77 0.04 0  0.78 0.04 0  0.79 0.04 0  0.8 0.04 0  0.8100000000000001 0.04 0  0.82 0.04 0  0.83 0.04 0  0.84 0.04 0  0.85 0.04 0  0.86 0.04 0  0.87 0.04 0  0.88 0.04 0  0.89 0.04 0  0.9 0.04 0  0.91 0.04 0  0.92 0.04 0  0.93 0.04 0  0.9399999999999999 0.04 0  0.95 0.04 0  0.96 0.04 0  0.97 0.04 0  0.98 0.04 0  0.99 0.04 0  1 0.04 0  0 0.05 0  0.01 0.05 0  0.02 0.05 0  0.03 0.05 0  0.04 0.05 0  0.05 0.05 0  0.06 0.05 0  0.07000000000000001 0.05 0  0.08 0.05 0  0.09 0.05 0  0.1 0.05 0  0.11 0.05 0  0.12 0.05 0  0.13 0.05 0  0.14 0.05 0  0.15 0.05 0  0.16 0.05 0  0.17 0.05 0  0.18 0.05 0  0.19 0.05 0  0.2 0.05 0  0.21 0.05 0  0.22 0.05 0  0.23 0.05 0  0.24 0.05 0  0.25 0.05 0  0.26 0.05 0  0.27 0.05 0  0.28 0.05 0  0.29 0.05 0  0.3 0.05 0  0.31 0.05 0  0.32 0.05 0  0.33 0.05 0  0.34 0.05 0  0.35 0.05 0  0.36 0.05 0  0.37 0.05 0  0.38 0.05 0  0.39 0.05 0  0.4 0.05 0  0.41 0.05 0  0.42 0.05 0  0.43 0.05 0  0.44 0.05 0  0.45 0.05 0  0.46 0.05 0  0.47 0.05 0  0.48 0.05 0  0.49 0.05 0  0.5 0.05 0  0.51 0.05 0  0.52 0.05 0  0.53 0.05 0  0.54 0.05 0  0.55 0.05 0  0.5600000000000001 0.05 0  0.57 0.05 0  0.58 0.05 0  0.59 0.05 0  0.6 0.05 0  0.61 0.05 0  0.62 0.05 0  0.63 0.05 0  0.64 0.05 0  0.65 0.05 0  0.66 0.05 0  0.67 0.05 0  0.68 0.05 0  0.6899999999999999 0.05 0  0.7 0.05 0  0.71 0.05 0  0.72 0.05 0  0.73 0.05 0  0.74 0.05 0  0.75 0.05 0  0.76 0.05 0  0.77 0.05 0  0.78 0.05 0  0.79 0.05 0  0.8 0.05 0  0.8100000000000001 0.05 0  0.82 0.05 0  0.83 0.05 0  0.84 0.05 0  0.85 0.05 0  0.86 0.05 0  0.87 0.05 0  0.88 0.05 0  0.89 0.05 0  0.9 0.05 0  0.91 0.05 0  0.92 0.05 0  0.93 0.05 0  0.9399999999999999 0.05 0  0.95 0.05 0  0.96 0.05 0  0.97 0.05 0  0.98 0.05 0  0.99 0.05 0  1 0.05 0  0 0.06 0  0.01 0.06 0  0.02 0.06 0  0.03 0.06 0  0.04 0.06 0  0.05 0.06 0  0.06 0.06 0  0.07000000000000001 0.06 0  0.08 0.06 0  0.09 0.06 0  0.1 0.06 0  0.11 0.06 0  0.12 0.06 0  0.13 0.06 0  0.14 0.06 0  0.15 0.06 0  0.16 0.06 0  0.17 0.06 0  0.18 0.06 0  0.19 0.06 0  0.2 0.06 0  0.21 0.06 0  0.22 0.06 0  0.23 0.06 0  0.24 0.06 0  0.25 0.06 0  0.26 0.06 0  0.27 0.06 0  0.28 0.06 0  0.29 0.06 0  0.3 0.06 0  0.31 0.06 0  0.32 0.06 0  0.33 0.06 0  0.34 0.06 0  0.35 0.06 0  0.36 0.06 0  0.37 0.06 0  0.38 0.06 0  0.39 0.06 0  0.4 0.06 0  0.41 0.06 0  0.42 0.06 0  0.43 0.06 0  0.44 0.06 0  0.45 0.06 0  0.46 0.06 0  0.47 0.06 0  0.48 0.06 0  0.49 0.06 0  0.5 0.06 0  0.51 0.06 0  0.52 0.06 0  0.53 0.06 0  0.54 0.06 0  0.55 0.06 0  0.5600000000000001 0.06 0  0.57 0.06 0  0.58 0.06 0  0.59 0.06 0  0.6 0.06 0  0.61 0.06 0  0.62 0.06 0  0.63 0.06 0  0.64 0.06 0  0.65 0.06 0  0.66 0.06 0  0.67 0.06 0  0.68 0.06 0  0.6899999999999999 0.06 0  0.7 0.06 0  0.71 0.06 0  0.72 0.06 0  0.73 0.06 0  0.74 0.06 0  0.75 0.06 0  0.76 0.06 0  0.77 0.06 0  0.78 0.06 0  0.79 0.06 0  0.8 0.06 0  0.8100000000000001 0.06 0  0.82 0.06 0  0.83 0.06 0  0.84 0.06 0  0.85 0.06 0  0.86 0.06 0  0.87 0.06 0  0.88 0.06 0  0.89 0.06 0  0.9 0.06 0  0.91 0.06 0  0.92 0.06 0  0.93 0.06 0  0.9399999999999999 0.06 0  0.95 0.06 0  0.96 0.06 0  0.97 0.06 0  0.98 0.06 0  0.99 0.06 0  1 0.06 0  0 0.07000000000000001 0  0.01 0.07000000000000001 0  0.02 0.07000000000000001 0  0.03 0.07000000000000001 0  0.04 0.07000000000000001 0  0.05 0.07000000000000001 0  0.06 0.07000000000000001 0  0.07000000000000001 0.07000000000000001 0  0.08 0.07000000000000001 0  0.09 0.07000000000000001 0  0.1 0.07000000000000001 0  0.11 0.07000000000000001 0  0.12 0.07000000000000001 0  0.13 0.07000000000000001 0  0.14 0.07000000000000001 0  0.15 0.07000000000000001 0  0.16 0.07000000000000001 0  0.17 0.07000
[...]
<PointData  Scalars="rho_bar"> 
<DataArray  type="Float64"  Name="rho_bar"  format="ascii">9.5492376208762597e-01  9.5345554266088062e-01  9.5174870906368714e-01  9.4946023400585655e-01  9.4644312760440408e-01  9.4267217681729931e-01  9.3816524643270549e-01  9.3298231590311531e-01  9.2723151701188078e-01  9.2108084137120816e-01  9.1477672019631018e-01  9.0865900847516357e-01  9.0315612844594251e-01  8.9873319327677903e-01  8.9579884432444923e-01  8.9460513484634063e-01  8.9518808572531416e-01  8.9737360920452680e-01  9.0084515806661980e-01  9.0522570668448754e-01  9.1015310924107529e-01  9.1532932623843599e-01  9.2054680311669157e-01  9.2568517590827326e-01  9.3068542996249337e-01  9.3551061077184161e-01  9.4012032208093188e-01  9.4446512012523698e-01  9.4849080553813359e-01  9.5213612332776676e-01  9.5532599168272803e-01  9.5795190230521077e-01  9.5983425465056182e-01  9.6066266450026516e-01  9.5990453448610380e-01  9.5661481230361733e-01  9.4901519426364112e-01  9.3352017239557028e-01  9.0265016412458987e-01  8.4165420075809627e-01  7.2889549833242573e-01  5.6057966932415515e-01  3.7950318005146716e-01  2.3593158840017478e-01  1.4241614877893280e-01  8.6640858730228504e-02  5.4038133379089026e-02  3.4738492027951949e-02  2.3014405020789042e-02  1.5677923891726578e-02  1.0950788870020529e-02  7.8207951914340355e-03  5.6965927057401984e-03  4.2228426336792741e-03  3.1800384760871550e-03  2.4289944406548163e-03  1.8793454937437956e-03  1.4711356544212166e-03  1.1638302983119886e-03  9.2955149238138873e-04  7.4884008098480043e-04  6.0791699979899859e-04  4.9690529681572105e-04  4.0863498300038753e-04  3.3784510863650911e-04  2.8062904375380392e-04  2.3405760854642595e-04  1.9590949576884053e-04  1.6448527442984926e-04  1.3847001329767456e-04  1.1683812551286939e-04  9.8781662827272996e-05  8.3659175766084663e-05  7.0956975327758406e-05  6.0260702168433853e-05  5.1233923682819883e-05  4.3601729965292576e-05  3.7138133939491506e-05  3.1656500888925880e-05  2.7002132497697394e-05  2.3046139467742401e-05  1.9680962106975050e-05  1.6816378651197843e-05  1.4376822105073789e-05  1.2298587338289103e-05  1.0528109684576498e-05  9.0201160520655523e-06  7.7365025122765564e-06  6.6450190025724909e-06  5.7185119483171674e-06  4.9340329902422685e-06  4.2723534207957891e-06  3.7172837950102188e-06  3.2553770526841040e-06  2.8754565247274422e-06  2.5684625393720984e-06  2.3271023652348845e-06  2.1457940094884530e-06  2.0205393731995503e-06  1.9494785191294108e-06  1.9343960631808003e-06  9.4767238154231970e-01  9.4673055841502207e-01  9.4502144603448379e-01  9.4240339034356813e-01  9.3886789092879974e-01  9.3440450999540825e-01  9.2904672932170951e-01  9.2287487548495872e-01  9.1602356739133806e-01  9.0869691895560811e-01  9.0118822642821439e-01  8.9390193797386708e-01  8.8734942601917444e-01  8.8209101094629727e-01  8.7861840519137657e-01  8.7723493487854487e-01  8.7797769702698991e-01  8.8062855489924075e-01  8.8479817926369297e-01  8.9003024209976744e-01  8.9588741978115061e-01  9.0201242777953705e-01  9.0816012236498322e-01  9.1419789980324284e-01  9.2006821416759532e-01  9.2573664238762021e-01  9.3115597597558253e-01  9.3626881906784720e-01  9.4101446057755322e-01  9.4532893534622786e-01  9.4913865681299070e-01  9.5234350858317496e-01  9.5476786551186221e-01  9.5609297098634016e-01  9.5577137810619361e-01  9.5285885252142355e-01  9.4562651724998315e-01  9.3068299607722516e-01  9.0113025123377188e-01  8.4366097034198650e-01  7.3906543156589188e-01  5.8103521904314814e-01  4.0358516319909687e-01  2.5616824789093362e-01  1.5668942789761017e-01  9.5926932947561591e-02  5.9908989497011171e-02  3.8440895835895078e-02  2.5371373544878895e-02  1.7199756106945917e-02  1.1948180942582261e-02  8.4841774538847187e-03  6.1441171247071241e-03  4.5288184665889693e-03  3.3919120158943253e-03  2.5775478311781770e-03  1.9847912273007647e-03  1.5469049864180371e-03  1.2189377642550093e-03  9.7011544646882417e-04  7.7904911895069345e-04  6.3067329347297812e-04  5.1423532385940656e-04  4.2197182184740127e-04  3.4820986761350159e-04  2.8875957771188026e-04  2.4049020530982556e-04  2.0103993696241892e-04  1.6860697984646240e-04  1.4180409978777379e-04  1.1955174476496607e-04  1.0100290345074738e-04  8.5486785200717584e-05  7.2467804357350510e-05  6.1515016925885738e-05  5.2279286508278513e-05  4.4475948917067668e-05  3.7871485158098792e-05  3.2273412507944342e-05  2.7522322370575575e-05  2.3485767620001122e-05  2.0053146961628613e-05  1.7132068727893366e-05  1.4644938398978112e-05  1.2526659771190696e-05  1.0722322476997145e-05  9.1857532160434061e-06  7.8779359988949944e-06  6.7660087052663010e-06  5.8221918555092715e-06  5.0231457348979400e-06  4.3491958791660657e-06  3.7838922562644955e-06  3.3134651099516340e-06  2.9265861877522462e-06  2.6139645398168660e-06  2.3681848941461768e-06  2.1834599325490868e-06  2.0555533596744616e-06  1.9815003776541805e-06  1.9590689781255438e-06  9.2109821166268568e-01  9.2041680496939560e-01  9.1782563169670628e-01  9.1375394221627904e-01  9.0814801159446334e-01  9.0106993225817611e-01  8.9260561589247833e-01  8.8288979176358950e-01  8.7212430810881691e-01  8.6060103896429352e-01  8.4873974975229094e-01  8.3714282504392545e-01  8.2662886869671737e-01  8.1815159592470221e-01  8.1256365042952827e-01  8.1038440154431035e-01  8.1165796004617807e-01  8.1597594136048157e-01  8.2267012714513665e-01  8.3098489148561128e-01  8.4021758264518154e-01  8.4979645337710796e-01  8.5934284256348670e-01  8.6868451396905000e-01  8.7779846529834160e-01  8.8668932439259751e-01  8.9529515885999156e-01  9.0351245434123706e-01  9.1123872001345807e-01  9.1837627582401182e-01  9.2483732890381731e-01  9.3053463170018613e-01  9.3530640494595552e-01  9.3879836326833044e-01  9.4040578082895465e-01  9.3916469763230870e-01  9.3348272209884198e-01  9.2050024844463396e-01  8.9483840196290054e-01  8.4678966534112676e-01  7.6231803684606037e-01  6.3235260840114860e-01  4.7243384905170882e-01  3.2104780584764475e-01  2.0579973719562569e-01  1.2912389488223044e-01  8.1285394906728842e-02  5.2008655992647278e-02  3.3998816551319325e-02  2.2734896715234178e-02  1.5543378374887782e-02  1.0851126572036018e-02  7.7232202094130314e-03  5.5959391017656674e-03  4.1223566337163040e-03  3.0839889925889908e-03  2.3404666530274405e-03  1.7999520367304467e-03  1.4013183931960559e-03  1.1032610815995211e-03  8.7748474523430123e-04  7.0434276532046266e-04  5.7002283785977049e-04  4.6469343922291744e-04  3.8127337258400581e-04  3.1460179919239734e-04  2.6087464969619162e-04  2.1725574541115424e-04  1.8160775225062206e-04  1.5230165596163733e-04  1.2808358063375690e-04  1.0797841367229203e-04  9.1220762040390585e-05  7.7204348919682401e-05  6.5444908295954907e-05  5.5552896658292042e-05  4.7212591999528895e-05  4.0166511854248251e-05  3.4203489642531257e-05  2.9149549762589570e-05  2.4860640498083315e-05  2.1217095658642459e-05  1.8119069397527506e-05  1.5483200192731259e-05  1.3239526691942917e-05  1.1329370788606476e-05  9.7033137496583120e-06  8.3198196649517581e-06  7.1438405058129458e-06  6.1459037132763734e-06  5.3011670250612620e-06  4.5887945768816247e-06  3.9913085016553219e-06  3.4941624777000195e-06  3.0853063113199371e-06  2.7549228319426858e-06  2.4951124112655320e-06  2.2997006587869015e-06  2.1640032872199839e-06  2.0846988384131352e-06  2.0593323996714564e-06  8.5260950003787506e-01  8.4974427936320507e-01  8.4532953799509658e-01  8.3729303022602586e-01  8.2587549462742527e-01  8.1123313859060986e-01  7.9364135983281459e-01  7.7353609430129777e-01  7.5151343853418007e-01  7.2831703864607611e-01  7.0486787980193566e-01  6.8238858276306247e-01  6.6245871929817468e-01  6.4686624627081646e-01  6.3704931666443676e-01  6.3374599118179764e-01  6.3683883882727021e-01  6.4544087755387480e-01  6.5830634320755932e-01  6.7409482941939014e-01  6.9158375838291253e-01  7.0972406638057262e-01  7.2777482810478811e-01  7.4546207461166381e-01  7.6292028022726155e-01  7.8033119448359067e-01  7.9751618634386434e-01  8.1416594672265385e-01  8.3004177054064521e-01  8.4496104555521834e-01  8.5881361041936555e-01  8.7164180085769316e-01  8.8345947829809446e-01  8.9384724648447866e-01  9.0190647030157678e-01  9.0643557135953956e-01  9.0597076371076357e-01  8.9852414794218960e-01  8.8083123811463515e-01  8.4742858849515135e-01  7.9028051695748358e-01  7.0113831136049964e-01  5.7911306290681364e-01  4.3939056509327801e-01  3.0834719126927496e-01  2.0495535815509380e-01  1.3262463321752249e-01  8.5283484598503420e-02  5.5191266426083338e-02  3.6205849066960366e-02  2.4155479333238746e-02  1.6404622648670368e-02  1.1341764120309298e-02  7.9817432276739087e-03  5.7151299753576525e-03  4.1613518928239604e-03  3.0793929837223308e-03  2.3140868319109858e-03  1.7642965629104928e-03  1.3632975561219433e-03  1.0664793422291063e-03  8.4364575381322459e-04  6.7409441014281953e-04  5.4344732142405270e-04  4.4159125790514361e-04  3.6132103915544284e-04  2.9743881035052737e-04  2.4614700488279306e-04  2.0463661437225943e-04  1.7080483952577731e-04  1.4305876062495359e-04  1.2017841246647581e-04  1.0121925660093030e-04  8.5442707172613816e-05  7.2265902653933180e-05  6.1224795195297327e-05  5.1947168212819476e-05  4.4132188399375809e-05  3.7535191801829721e-05  3.1956055911941699e-05  2.7230259906678023e-05  2.3221893145777182e-05  1.9818290187388776e-05  1.6925653671083788e-05  1.4465782676488100e-05  1.2373180320931487e-05  1.0593002684768389e-05  9.0791480692802686e-06  7.7929410602580628e-06  6.7018242567285439e-06  5.7784816438252382e-06  4.9999753351848772e-06  4.3471341182540503e-06  3.8039794713133248e-06  3.3573190094340593e-06  2.9963677817351616e-06  2.7124570260116239e-06  2.4987871339318497e-06  2.3502259829916007e-06  2.2630860721086085e-06  2.2351118461845685e-06  6.5731044701038610e-01  6.5588156147650523e-01  6.4612764839595016e-01  6.2833358718981036e-01  6.0402533874542130e-01  5.7467358987100270e-01  5.4200883775093900e-01  5.0772911550256350e-01  4.7337150863421745e-01  4.4024930498569348e-01  4.0947299473289689e-01  3.8220411701707574e-01  3.5966949871557602e-01  3.4307085686342087e-01  3.3319853317220605e-01  3.3026019641041171e-01  3.3393098076545535e-01  3.4343467651848553e-01  3.5782084957991528e-01  3.7603439663399713e-01  3.9710541574345204e-01  4.2013104924776040e-01  4.4430016872309325e-01  4.6929069112158250e-01  4.9551417552252375e-01  5.2380623828730311e-01  5.5411786381047057e-01  5.8586216202793784e-01  6.1848742522704991e-01  6.5134683566264051e-01  6.8390248791584429e-01  7.1625626547066934e-01  7.4858446074534568e-01  7.8002703793894013e-01  8.0852565105240048e-01  8.3170356451524552e-01  8.4774862070346968e-01  8.5553206989785491e-01  8.5396262730396766e-01  8.4111609946833088e-01  8.1371690483842596e-01  7.6702849742756973e-01  6.9582197925421707e-01  5.9769749793043092e-01  4.7882056195703288e-01  3.5575043961725089e-01  2.4753554998984989e-01  1.6479992549282566e-01  1.0731491449361781e-01  6.9419970018035279e-02  4.5051323562582922e-02  2.9529648655433265e-02  1.9625984489680476e-02  1.3250638752493405e-02  9.1011419467364636e-03  6.3665244506737077e-03  4.5372625580439594e-03  3.2936011729315057e-03  2.4337263378151220e-03  1.8287884334341033e-03  1.3957769198622678e-03  1.0805535684291140e-03  8.4731570771350712e-04  6.7206329702110029e-04  5.3847260095390265e-04  4.3527981571740649e-04  3.5459750754051754e-04  2.9082230228650311e-04  2.3991530341878076e-04  1.9892418366111061e-04  1.6566167410698198e-04  1.3848594106189750e-04  1.1614964654040979e-04  9.7693963833699865e-05  8.2374064327899149e-05  6.9605604961291343e-05  5.8925904501645555e-05  4.9965621236598039e-05  4.2427646087825105e-05  3.6071364529056633e-05  3.0700717012056872e-05  2.6155067684603256e-05  2.2302152147253612e-05  1.9032638706772784e-05  1.6255755294657800e-05  1.3895985565589255e-05  1.1890236094374961e-05  1.0185802534590894e-05  8.7384887632203567e-06  7.5112913610936699e-06  6.4731667289241906e-06  5.5981443901212554e-06  4.8645210531518304e-06  4.2542631657182308e-06  3.7524575179494143e-06  3.3469524677666960e-06  3.0279572440511578e-06  2.7878176878257378e-06  2.6207431513989467e-06  2.5227101951441678e-06  2.4913305824465697e-06  3.1575729423004389e-01  3.1823470874535387e-01  3.0766367420577534e-01  2.9064186035018258e-01  2.6873590567464184e-01  2.4459833636205766e-01  2.2041805736051906e-01  1.9769088961756048e-01  1.7724166835244945e-01  1.5944085807150216e-01  1.4440606095921485e-01  1.3219114950103053e-01  1.2283785980025368e-01  1.1636585224935338e-01  1.1272311236008141e-01  1.1178480682300206e-01  1.1338016677821619e-01  1.1730759502503860e-01  1.2336974566294159e-01  1.3136637441461022e-01  1.4111888166721687e-01  1.5248351170459173e-01  1.6535224192741124e-01  1.7979735063368990e-01  1.9625373432162455e-01  2.1555086710967120e-01  2.3839492934445350e-01  2.6524311940535544e-01  2.9658997812158455e-01  3.3284449067728522e-01  3.7421569055676940e-01  4.2186182884317325e-01  4.7728637650527639e-01  5.4057842080139795e-01  6.0849405243326637e-01  6.7437617065549960e-01  7.3130699156329126e-01  7.7545526810393206e-01  8.0582884876271910e-01  8.2261760138236062e-01  8.2597007656700372e-01  8.1519938445737028e-01  7.8812696542734051e-01  7.4105602595953379e-01  6.6984638159445520e-01  5.7310561015432393e-01  4.5724170006483106e-01  3.3823420714015695e-01  2.3392012106955892e-01  1.5430801684640796e-01  9.9248024606193919e-02  6.3214190955131894e-02  4.0248010809166679e-02  2.5825188587487235e-02  1.6810833293850556e-02  1.1144500281224339e-02  7.5424079622557092e-03  5.2186551531449845e-03  3.6916514679686692e-03  2.6679842041064496e-03  1.9675337273273321e-03  1.4782313285465125e-03  1.1294885661657435e-03  8.7610201519853451e-04  6.8864319502527529e-04  5.4762471428778433e-04  4.3991356486715457e-04  3.5650315632794759e-04  2.9111033608157210e-04  2.3927757793650728e-04  1.9779162166910498e-04  1.6430088490777134e-04  1.3705922446201647e-04  1.1475290918242584e-04  9.6380856816604343e-05  8.1171590761729262e-05  6.8524119689747327e-05  5.7965679257529528e-05  4.9121106153396775e-05  4.1690206712281016e-05  3.5431022365711754e-05  3.0147241843486278e-05  2.5678629379188459e-05  2.1893713030757381e-05  1.8684132527183949e-05  1.5960172475585364e-05  1.3647395687845567e-05  1.1683769364707256e-05  1.0017589492338540e-05  8.6056245065789572e-06  7.4117703156647124e-06  6.4058503593696257e-06  5.5627327047413802e-06  4.8615319763872312e-06  4.2850526153138219e-06  3.8192203950334817e-06  3.4527891548025168e-06  3.1768964483015063e-06  2.9849518051562430e-06  2.8723386252468456e-06  2.8364319958624017e-06  9.8934645652642636e-02  9.5760536156124912e-02  9.2068100070190104e-02  8.6651283359429704e-02  7.9909480595426630e-02  7.2930433847764028e-02  6.6261316507842782e-02  6.0222007731683687e-02  5.4922277244740296e-02  5.0369028303865200e-02  4.6540807373249046e-02  4.3421827058614373e-02  4.1009175877629520e-02  3.9308900645125835e-02  3.8326146390286552e-02  3.8055866633193540e-02  3.8478036816560708e-02  3.9558944538109701e-02  4.1258794042362407e-02  4.3538896049634943e-02  4.6372417746323759e-02  4.9754110395217689e-02  5.3714814967392964e-02  5.8353492740898773e-02  6.3874315804176268e-02  7.0599791243955906e-02  7.8939694222611378e-02  8.9414921641737088e-02  1.0274441528486190e-01  1.1992108662409927e-01  1.4231971429840196e-01  1.7217065333808362e-01  2.1288917129347676e-01  2.6880889537268943e-01  3.4372237945701822e-01  4.3739108011559880e-01  5.4180530068973431e-01  6.4260434466226046e-01  7.2626469971514740e-01  7.8643105837532501e-01  8.2387895931722044e-01  8.4226846655407550e-01  8.4464630361811288e-01  8.3202524872650863e-01  8.0319300534991700e-01  7.5493141516067963e-01  6.8300724750616260e-01  5.8557361932690311e-01  4.6822569987921381e-01  3.4608977567456212e-01  2.3731872408719859e-01  1.5354916126254878e-01  9.5912727332491093e-02  5.9009798237609698e-02  3.6274577688606209e-02  2.2551421686718580e-02  1.4305403890095604e-02  9.2998414805115521e-03  6.2090867365271396e-03  4.2597431445274159e-03  2.9999024616427284e-03  2.1651314031533872e-03  1.5980209155417771e-03  1.2032969572287832e-03  9.2221773293029048e-04  7.1777924361142898e-04  5.6618437428730684e-04  4.5179736738801485e-04  3.6412787917815937e-04  2.9599603096309822e-04  2.4239234229532990e-04  1.9975827238110082e-04  1.6552322128859164e-04  1.3780034131223668e-04  1.1518479904041956e-04  9.6615988735658257e-05  8.1283422857013755e-05  6.8560423199437470e-05  5.7957343842428577e-05  4.9087942504004536e-05  4.1644801012134554e-05  3.5381288594631617e-05  3.0098140975134902e-05  2.5633282333776953e-05  2.1854170567300729e-05  1.8651873261630513e-05  1.5936446359744276e-05  1.3633444495518183e-05  1.1680985890383930e-05  1.0027617800680960e-05  8.6304479850415769e-06  7.4537765417585960e-06  6.4678903326793065e-06  5.6482043099304816e-06  4.9744400253750611e-06  4.4301086084706082e-06  4.0019425029021680e-06  3.6796214201012315e-06  3.4553603882068246e-06  3.3238665836223491e-06  3.2820669281310680e-06  3.1174293503987264e-02  3.0876867652757975e-02  3.0458107310267931e-02  2.9030447166522502e-02  2.7312343419860746e-02  2.5440286614160659e-02  2.3528261079173499e-02  2.1700702121539555e-02  2.0028139182321998e-02  1.8553690136025130e-02  1.7299603912710855e-02  1.6276964352198157e-02  1.5491662765166055e-02  1.4946220772079780e-02  1.4638995411111549e-02  1.4563932116417393e-02  1.4712109649437503e-02  1.5073844000560886e-02  1.5640872388755750e-02  1.6408078125779799e-02  1.7375688430828193e-02  1.8552545829645554e-02  1.9961016788114759e-02  2.1644900854318586e-02  2.3679873715584124e-02  2.6183522477687880e-02  2.9322069562296816e-02  3.3325331526276522e-02  3.8526553972252388e-02  4.5433803148286253e-02  5.4857376786740270e-02  6.8168643247168786e-02  8.7717553134592216e-02  1.1744139789336666e-01  1.6358779191317654e-01  2.3473184767810165e-01  3.3846621485500966e-01  4.7186689875210069e-01  6.1225889454125626e-01  7.2838529081440950e-01  8.0633698632489437e-01  8.5131185351152272e-01  8.7317170005673694e-01  8.7899768109660159e-01  8.7216682949464253e-01  8.5307176308781940e-01  8.1983261594298995e-01  7.6891030903867230e-01  6.9604278058603386e-01  5.9880211453410381e-01  4.8080190550632174e-01  3.5473144254185363e-01  2.3930140909323344e-01  1.4969956981949226e-01  8.9500656857327721e-02  5.2723281158508259e-02  3.1216583634525542e-02  1.8853935130410639e-02  1.1720118803344979e-02  7.5223034199971674e-03  4.9900163833142596e-03  3.4174804120952647e-03  2.4105749630232804e-03  1.7462233389739475e-03  1.2950487890865390e-03  9.8034664332734473e-04  7.5540233501921437e-04  5.9102727983177845e-04  4.6851752013382230e-04  3.7559166048197027e-04  3.0400099512285116e-04  2.4808495054511097e-04  2.0388085490881253e-04  1.6856327781131222e-04  1.4008218364350991e-04  1.1692699011132065e-04  9.7967678688229713e-05  8.2347745797867503e-05  6.9409679911967912e-05  5.8643006371194609e-05  4.9647265563148560e-05  4.2105277019543661e-05  3.5763619685922317e-05  3.0418303019003701e-05  2.5903936225650990e-05  2.2085654130940789e-05  1.8852896289033672e-05  1.6114605747339318e-05  1.3795583801606402e-05  1.1833484546817492e-05  1.0176613837909293e-05  8.7820141172013078e-06  7.6141001627981236e-06  6.6434144128839890e-06  5.8457904971555065e-06  5.2015213584732583e-06  4.6948633949392949e-06  4.3134698389404771e-06  4.0481927972186536e-06  3.8926774623416022e-06  3.8433633389794963e-06  1.1809505632601743e-02  1.1686296529283857e-02  1.1343326382753347e-02  1.0863186196137884e-02  1.0368843569331772e-02  9.8012645869218189e-03  9.2331407479079620e-03  8.6957673586563113e-03  8.2052661106459344e-03  7.7718805989288381e-03  7.4005593823762584e-03  7.0950548364097513e-03  6.8586965132164737e-03  6.6944350627250069e-03  6.6046386559936669e-03  6.5909169480870130e-03  6.6539673971736640e-03  6.7936931272912287e-03  7.0097440854472431e-03  7.3025456379018994e-03  7.6747133671731882e-03  8.13282179769