<?xml version="1.0"?>
<VTKFile type="UnstructuredGrid"  version="0.1"  >
<UnstructuredGrid>
<Piece  NumberOfPoints="5151" NumberOfCells="10000">
<Points>
<DataArray  type="Float64"  NumberOfComponents="3"  format="ascii">0 0 0  0.01 0 0  0.02 0 0  0.03 0 0  0.04 0 0  0.05 0 0  0.06 0 0  0.07000000000000001 0 0  0.08 0 0  0.09 0 0  0.1 0 0  0.11 0 0  0.12 0 0  0.13 0 0  0.14 0 0  0.15 0 0  0.16 0 0  0.17 0 0  0.18 0 0  0.19 0 0  0.2 0 0  0.21 0 0  0.22 0 0  0.23 0 0  0.24 0 0  0.25 0 0  0.26 0 0  0.27 0 0  0.28 0 0  0.29 0 0  0.3 0 0  0.31 0 0  0.32 0 0  0.33 0 0  0.34 0 0  0.35 0 0  0.36 0 0  0.37 0 0  0.38 0 0  0.39 0 0  0.4 0 0  0.41 0 0  0.42 0 0  0.43 0 0  0.44 0 0  0.45 0 0  0.46 0 0  0.47 0 0  0.48 0 0  0.49 0 0  0.5 0 0  0.51 0 0  0.52 0 0  0.53 0 0  0.54 0 0  0.55 0 0  0.5600000000000001 0 0  0.57 0 0  0.58 0 0  0.59 0 0  0.6 0 0  0.61 0 0  0.62 0 0  0.63 0 0  0.64 0 0  0.65 0 0  0.66 0 0  0.67 0 0  0.68 0 0  0.6899999999999999 0 0  0.7 0 0  0.71 0 0  0.72 0 0  0.73 0 0  0.74 0 0  0.75 0 0  0.76 0 0  0.77 0 0  0.78 0 0  0.79 0 0  0.8 0 0  0.8100000000000001 0 0  0.82 0 0  0.83 0 0  0.84 0 0  0.85 0 0  0.86 0 0  0.87 0 0  0.88 0 0  0.89 0 0  0.9 0 0  0.91 0 0  0.92 0 0  0.93 0 0  0.9399999999999999 0 0  0.95 0 0  0.96 0 0  0.97 0 0  0.98 0 0  0.99 0 0  1 0 0  0 0.01 0  0.01 0.01 0  0.02 0.01 0  0.03 0.01 0  0.04 0.01 0  0.05 0.01 0  0.06 0.01 0  0.07000000000000001 0.01 0  0.08 0.01 0  0.09 0.01 0  0.1 0.01 0  0.11 0.01 0  0.12 0.01 0  0.13 0.01 0  0.14 0.01 0  0.15 0.01 0  0.16 0.01 0  0.17 0.01 0  0.18 0.01 0  0.19 0.01 0  0.2 0.01 0  0.21 0.01 0  0.22 0.01 0  0.23 0.01 0  0.24 0.01 0  0.25 0.01 0  0.26 0.01 0  0.27 0.01 0  0.28 0.01 0  0.29 0.01 0  0.3 0.01 0  0.31 0.01 0  0.32 0.01 0  0.33 0.01 0  0.34 0.01 0  0.35 0.01 0  0.36 0.01 0  0.37 0.01 0  0.38 0.01 0  0.39 0.01 0  0.4 0.01 0  0.41 0.01 0  0.42 0.01 0  0.43 0.01 0  0.44 0.01 0  0.45 0.01 0  0.46 0.01 0  0.47 0.01 0  0.48 0.01 0  0.49 0.01 0  0.5 0.01 0  0.51 0.01 0  0.52 0.01 0  0.53 0.01 0  0.54 0.01 0  0.55 0.01 0  0.5600000000000001 0.01 0  0.57 0.01 0  0.58 0.01 0  0.59 0.01 0  0.6 0.01 0  0.61 0.01 0  0.62 0.01 0  0.63 0.01 0  0.64 0.01 0  0.65 0.01 0  0.66 0.01 0  0.67 0.01 0  0.68 0.01 0  0.6899999999999999 0.01 0  0.7 0.01 0  0.71 0.01 0  0.72 0.01 0  0.73 0.01 0  0.74 0.01 0  0.75 0.01 0  0.76 0.01 0  0.77 0.01 0  0.78 0.01 0  0.79 0.01 0  0.8 0.01 0  0.8100000000000001 0.01 0  0.82 0.01 0  0.83 0.01 0  0.84 0.01 0  0.85 0.01 0  0.86 0.01 0  0.87 0.01 0  0.88 0.01 0  0.89 0.01 0  0.9 0.01 0  0.91 0.01 0  0.92 0.01 0  0.93 0.01 0  0.9399999999999999 0.01 0  0.95 0.01 0  0.96 0.01 0  0.97 0.01 0  0.98 0.01 0  0.99 0.01 0  1 0.01 0  0 0.02 0  0.01 0.02 0  0.02 0.02 0  0.03 0.02 0  0.04 0.02 0  0.05 0.02 0  0.06 0.02 0  0.07000000000000001 0.02 0  0.08 0.02 0  0.09 0.02 0  0.1 0.02 0  0.11 0.02 0  0.12 0.02 0  0.13 0.02 0  0.14 0.02 0  0.15 0.02 0  0.16 0.02 0  0.17 0.02 0  0.18 0.02 0  0.19 0.02 0  0.2 0.02 0  0.21 0.02 0  0.22 0.02 0  0.23 0.02 0  0.24 0.02 0  0.25 0.02 0  0.26 0.02 0  0.27 0.02 0  0.28 0.02 0  0.29 0.02 0  0.3 0.02 0  0.31 0.02 0  0.32 0.02 0  0.33 0.02 0  0.34 0.02 0  0.35 0.02 0  0.36 0.02 0  0.37 0.02 0  0.38 0.02 0  0.39 0.02 0  0.4 0.02 0  0.41 0.02 0  0.42 0.02 0  0.43 0.02 0  0.44 0.02 0  0.45 0.02 0  0.46 0.02 0  0.47 0.02 0  0.48 0.02 0  0.49 0.02 0  0.5 0.02 0  0.51 0.02 0  0.52 0.02 0  0.53 0.02 0  0.54 0.02 0  0.55 0.02 0  0.5600000000000001 0.02 0  0.57 0.02 0  0.58 0.02 0  0.59 0.02 0  0.6 0.02 0  0.61 0.02 0  0.62 0.02 0  0.63 0.02 0  0.64 0.02 0  0.65 0.02 0  0.66 0.02 0  0.67 0.02 0  0.68 0.02 0  0.6899999999999999 0.02 0  0.7 0.02 0  0.71 0.02 0  0.72 0.02 0  0.73 0.02 0  0.74 0.02 0  0.75 0.02 0  0.76 0.02 0  0.77 0.02 0  0.78 0.02 0  0.79 0.02 0  0.8 0.02 0  0.8100000000000001 0.02 0  0.82 0.02 0  0.83 0.02 0  0.84 0.02 0  0.85 0.02 0  0.86 0.02 0  0.87 0.02 0  0.88 0.02 0  0.89 0.02 0  0.9 0.02 0  0.91 0.02 0  0.92 0.02 0  0.93 0.02 0  0.9399999999999999 0.02 0  0.95 0.02 0  0.96 0.02 0  0.97 0.02 0  0.98 0.02 0  0.99 0.02 0  1 0.02 0  0 0.03 0  0.01 0.03 0  0.02 0.03 0  0.03 0.03 0  0.04 0.03 0  0.05 0.03 0  0.06 0.03 0  0.07000000000000001 0.03 0  0.08 0.03 0  0.09 0.03 0  0.1 0.03 0  0.11 0.03 0  0.12 0.03 0  0.13 0.03 0  0.14 0.03 0  0.15 0.03 0  0.16 0.03 0  0.17 0.03 0  0.18 0.03 0  0.19 0.03 0  0.2 0.03 0  0.21 0.03 0  0.22 0.03 0  0.23 0.03 0  0.24 0.03 0  0.25 0.03 0  0.26 0.03 0  0.27 0.03 0  0.28 0.03 0  0.29 0.03 0  0.3 0.03 0  0.31 0.03 0  0.32 0.03 0  0.33 0.03 0  0.34 0.03 0  0.35 0.03 0  0.36 0.03 0  0.37 0.03 0  0.38 0.03 0  0.39 0.03 0  0.4 0.03 0  0.41 0.03 0  0.42 0.03 0  0.43 0.03 0  0.44 0.03 0  0.45 0.03 0  0.46 0.03 0  0.47 0.03 0  0.48 0.03 0  0.49 0.03 0  0.5 0.03 0  0.51 0.03 0  0.52 0.03 0  0.53 0.03 0  0.54 0.03 0  0.55 0.03 0  0.5600000000000001 0.03 0  0.57 0.03 0  0.58 0.03 0  0.59 0.03 0  0.6 0.03 0  0.61 0.03 0  0.62 0.03 0  0.63 0.03 0  0.64 0.03 0  0.65 0.03 0  0.66 0.03 0  0.67 0.03 0  0.68 0.03 0  0.6899999999999999 0.03 0  0.7 0.03 0  0.71 0.03 0  0.72 0.03 0  0.73 0.03 0  0.74 0.03 0  0.75 0.03 0  0.76 0.03 0  0.77 0.03 0  0.78 0.03 0  0.79 0.03 0  0.8 0.03 0  0.8100000000000001 0.03 0  0.82 0.03 0  0.83 0.03 0  0.84 0.03 0  0.85 0.03 0  0.86 0.03 0  0.87 0.03 0  0.88 0.03 0  0.89 0.03 0  0.9 0.03 0  0.91 0.03 0  0.92 0.03 0  0.93 0.03 0  0.9399999999999999 0.03 0  0.95 0.03 0  0.96 0.03 0  0.97 0.03 0  0.98 0.03 0  0.99 0.03 0  1 0.03 0  0 0.04 0  0.01 0.04 0  0.02 0.04 0  0.03 0.04 0  0.04 0.04 0  0.05 0.04 0  0.06 0.04 0  0.07000000000000001 0.04 0  0.08 0.04 0  0.09 0.04 0  0.1 0.04 0  0.11 0.04 0  0.12 0.04 0  0.13 0.04 0  0.14 0.04 0  0.15 0.04 0  0.16 0.04 0  0.17 0.04 0  0.18 0.04 0  0.19 0.04 0  0.2 0.04 0  0.21 0.04 0  0.22 0.04 0  0.23 0.04 0  0.24 0.04 0  0.25 0.04 0  0.26 0.04 0  0.27 0.04 0  0.28 0.04 0  0.29 0.04 0  0.3 0.04 0  0.31 0.04 0  0.32 0.04 0  0.33 0.04 0  0.34 0.04 0  0.35 0.04 0  0.36 0.04 0  0.37 0.04 0  0.38 0.04 0  0.39 0.04 0  0.4 0.04 0  0.41 0.04 0  0.42 0.04 0  0.43 0.04 0  0.44 0.04 0  0.45 0.04 0  0.46 0.04 0  0.47 0.04 0  0.48 0.04 0  0.49 0.04 0  0.5 0.04 0  0.51 0.04 0  0.52 0.04 0  0.53 0.04 0  0.54 0.04 0  0.55 0.04 0  0.5600000000000001 0.04 0  0.57 0.04 0  0.58 0.04 0  0.59 0.04 0  0.6 0.04 0  0.61 0.04 0  0.62 0.04 0  0.63 0.04 0  0.64 0.04 0  0.65 0.04 0  0.66 0.04 0  0.67 0.04 0  0.68 0.04 0  0.6899999999999999 0.04 0  0.7 0.04 0  0.71 0.04 0  0.72 0.04 0  0.73 0.04 0  0.74 0.04 0  0.75 0.04 0  0.76 0.04 0  0.77 0.04 0  0.78 0.04 0  0.79 0.04 0  0.8 0.04 0  0.8100000000000001 0.04 0  0.82 0.04 0  0.83 0.04 0  0.84 0.04 0  0.85 0.04 0  0.86 0.04 0  0.87 0.04 0  0.88 0.04 0  0.89 0.04 0  0.9 0.04 0  0.91 0.04 0  0.92 0.04 0  0.93 0.04 0  0.9399999999999999 0.04 0  0.95 0.04 0  0.96 0.04 0  0.97 0.04 0  0.98 0.04 0  0.99 0.04 0  1 0.04 0  0 0.05 0  0.01 0.05 0  0.02 0.05 0  0.03 0.05 0  0.04 0.05 0  0.05 0.05 0  0.06 0.05 0  0.07000000000000001 0.05 0  0.08 0.05 0  0.09 0.05 0  0.1 0.05 0  0.11 0.05 0  0.12 0.05 0  0.13 0.05 0  0.14 0.05 0  0.15 0.05 0  0.16 0.05 0  0.17 0.05 0  0.18 0.05 0  0.19 0.05 0  0.2 0.05 0  0.21 0.05 0  0.22 0.05 0  0.23 0.05 0  0.24 0.05 0  0.25 0.05 0  0.26 0.05 0  0.27 0.05 0  0.28 0.05 0  0.29 0.05 0  0.3 0.05 0  0.31 0.05 0  0.32 0.05 0  0.33 0.05 0  0.34 0.05 0  0.35 0.05 0  0.36 0.05 0  0.37 0.05 0  0.38 0.05 0  0.39 0.05 0  0.4 0.05 0  0.41 0.05 0  0.42 0.05 0  0.43 0.05 0  0.44 0.05 0  0.45 0.05 0  0.46 0.05 0  0.47 0.05 0  0.48 0.05 0  0.49 0.05 0  0.5 0.05 0  0.51 0.05 0  0.52 0.05 0  0.53 0.05 0  0.54 0.05 0  0.55 0.05 0  0.5600000000000001 0.05 0  0.57 0.05 0  0.58 0.05 0  0.59 0.05 0  0.6 0.05 0  0.61 0.05 0  0.62 0.05 0  0.63 0.05 0  0.64 0.05 0  0.65 0.05 0  0.66 0.05 0  0.67 0.05 0  0.68 0.05 0  0.6899999999999999 0.05 0  0.7 0.05 0  0.71 0.05 0  0.72 0.05 0  0.73 0.05 0  0.74 0.05 0  0.75 0.05 0  0.76 0.05 0  0.77 0.05 0  0.78 0.05 0  0.79 0.05 0  0.8 0.05 0  0.8100000000000001 0.05 0  0.82 0.05 0  0.83 0.05 0  0.84 0.05 0  0.85 0.05 0  0.86 0.05 0  0.87 0.05 0  0.88 0.05 0  0.89 0.05 0  0.9 0.05 0  0.91 0.05 0  0.92 0.05 0  0.93 0.05 0  0.9399999999999999 0.05 0  0.95 0.05 0  0.96 0.05 0  0.97 0.05 0  0.98 0.05 0  0.99 0.05 0  1 0.05 0  0 0.06 0  0.01 0.06 0  0.02 0.06 0  0.03 0.06 0  0.04 0.06 0  0.05 0.06 0  0.06 0.06 0  0.07000000000000001 0.06 0  0.08 0.06 0  0.09 0.06 0  0.1 0.06 0  0.11 0.06 0  0.12 0.06 0  0.13 0.06 0  0.14 0.06 0  0.15 0.06 0  0.16 0.06 0  0.17 0.06 0  0.18 0.06 0  0.19 0.06 0  0.2 0.06 0  0.21 0.06 0  0.22 0.06 0  0.23 0.06 0  0.24 0.06 0  0.25 0.06 0  0.26 0.06 0  0.27 0.06 0  0.28 0.06 0  0.29 0.06 0  0.3 0.06 0  0.31 0.06 0  0.32 0.06 0  0.33 0.06 0  0.34 0.06 0  0.35 0.06 0  0.36 0.06 0  0.37 0.06 0  0.38 0.06 0  0.39 0.06 0  0.4 0.06 0  0.41 0.06 0  0.42 0.06 0  0.43 0.06 0  0.44 0.06 0  0.45 0.06 0  0.46 0.06 0  0.47 0.06 0  0.48 0.06 0  0.49 0.06 0  0.5 0.06 0  0.51 0.06 0  0.52 0.06 0  0.53 0.06 0  0.54 0.06 0  0.55 0.06 0  0.5600000000000001 0.06 0  0.57 0.06 0  0.58 0.06 0  0.59 0.06 0  0.6 0.06 0  0.61 0.06 0  0.62 0.06 0  0.63 0.06 0  0.64 0.06 0  0.65 0.06 0  0.66 0.06 0  0.67 0.06 0  0.68 0.06 0  0.6899999999999999 0.06 0  0.7 0.06 0  0.71 0.06 0  0.72 0.06 0  0.73 0.06 0  0.74 0.06 0  0.75 0.06 0  0.76 0.06 0  0.77 0.06 0  0.78 0.06 0  0.79 0.06 0  0.8 0.06 0  0.8100000000000001 0.06 0  0.82 0.06 0  0.83 0.06 0  0.84 0.06 0  0.85 0.06 0  0.86 0.06 0  0.87 0.06 0  0.88 0.06 0  0.89 0.06 0  0.9 0.06 0  0.91 0.06 0  0.92 0.06 0  0.93 0.06 0  0.9399999999999999 0.06 0  0.95 0.06 0  0.96 0.06 0  0.97 0.06 0  0.98 0.06 0  0.99 0.06 0  1 0.06 0  0 0.07000000000000001 0  0.01 0.07000000000000001 0  0.02 0.07000000000000001 0  0.03 0.07000000000000001 0  0.04 0.07000000000000001 0  0.05 0.07000000000000001 0  0.06 0.07000000000000001 0  0.07000000000000001 0.07000000000000001 0  0.08 0.07000000000000001 0  0.09 0.07000000000000001 0  0.1 0.07000000000000001 0  0.11 0.07000000000000001 0  0.12 0.07000000000000001 0  0.13 0.07000000000000001 0  0.14 0.07000000000000001 0  0.15 0.07000000000000001 0  0.16 0.07000000000000001 0  0.17 0.07000
[...]
<PointData  Scalars="rho_bar"> 
<DataArray  type="Float64"  Name="rho_bar"  format="ascii">9.9338580357691597e-01  9.9658530911176890e-01  9.9539981209196693e-01  9.9631800670288362e-01  9.9744061505858161e-01  9.9906520186874948e-01  1.0006873019287170e+00  1.0019099268158693e+00  1.0024733317135874e+00  1.0022791834337503e+00  1.0013525762624440e+00  9.9983947133419659e-01  9.9808025006169621e-01  9.9660837936707614e-01  9.9586876672251956e-01  9.9591918582132399e-01  9.9649870333731849e-01  9.9729644919580418e-01  9.9810480355359477e-01  9.9883430885360291e-01  9.9946846515604759e-01  1.0000132987476342e+00  1.0004722340686787e+00  1.0008391629136759e+00  1.0010993387558342e+00  1.0012357000432126e+00  1.0012305471911180e+00  1.0010721894311663e+00  1.0007692977786322e+00  1.0003527059085078e+00  9.9993838820760972e-01  9.9975296813153303e-01  9.9986027090762686e-01  1.0000045790010925e+00  1.0000448711521448e+00  1.0000065909741018e+00  9.9929839474850435e-01  1.0060972698283330e+00  9.6536815243196195e-01  1.1395575925815411e+00  3.9259741322587510e-01  -1.4093123460099248e-02  -1.4960197006534145e-03  7.1566584450975931e-04  -6.2674224541908562e-05  -7.9053138310942198e-05  2.7174999222513865e-05  1.3331336675174584e-05  -4.9560997314891309e-07  -3.3488436604411631e-06  -3.5060972724457754e-07  6.7028679210407262e-07  5.2172206230358027e-09  -1.1997877927434813e-07  2.8009158874971492e-08  1.1569607778289303e-08  -8.6353529607638714e-09  1.5929883932641055e-09  6.4622916999370823e-10  -5.4360519697363986e-10  1.7388758700442249e-10  -1.1879210107095899e-11  -1.8005766426649788e-11  1.1624477153958200e-11  -4.2112516467732843e-12  9.4281691357334545e-13  -2.4860711405390513e-14  -9.7427047284957842e-14  6.2167040691708802e-14  -2.5072389197104495e-14  8.9360737065012483e-15  -2.0625904433004960e-15  8.0345077201106591e-16  1.4361515211975890e-16  1.5639829741185751e-16  1.6634679624369374e-16  1.0464200024105965e-16  1.1176548628328849e-16  1.0000526068123511e-16  5.1806380440849028e-17  5.5390536341084130e-17  5.5643093208458945e-17  5.5506404763761059e-17  5.5295312767129503e-17  5.6845914285377584e-17  4.9588108704521562e-17  7.4724772050828098e-17  1.9290945347945171e-18  -4.5214315992051014e-19  1.2419373998473218e-19  -2.5893262039008888e-20  2.5866638967338594e-21  6.5850562865217179e-22  -4.5488858684128262e-22  1.7364311200212133e-22  -4.4808863734991028e-23  1.0803835528318471e-23  -3.4028578899095723e-24  9.8008960109414390e-25  -2.4799599414831701e-25  1.4526519168374189e-25  1.0164786171878957e+00  1.0066725057384260e+00  1.0091397070507826e+00  1.0081628349316520e+00  1.0064055688708400e+00  1.0035073560471957e+00  1.0001367091868718e+00  9.9718819235185474e-01  9.9534285982622128e-01  9.9495265362498209e-01  9.9608648582215709e-01  9.9858351523756805e-01  1.0019855748194304e+00  1.0053849752359170e+00  1.0076877303136627e+00  1.0083496140523394e+00  1.0076450817020279e+00  1.0062080017613659e+00  1.0045724025955667e+00  1.0030289360355285e+00  1.0016689110360824e+00  1.0004933846269290e+00  9.9949054299025875e-01  9.9866247655431695e-01  9.9803140320431150e-01  9.9763113207693077e-01  9.9749538844572583e-01  9.9765800150682260e-01  9.9812477920979925e-01  9.9885436199414501e-01  9.9973330779938718e-01  1.0003984223791487e+00  1.0004431406063909e+00  1.0000971054845234e+00  9.9993642444174669e-01  9.9992317190195923e-01  1.0003850176613800e+00  9.9866624702664308e-01  1.0006886352928881e+00  1.0290320498804322e+00  6.3402613510867456e-01  -7.6635865957665902e-02  1.3568720696768219e-02  -9.3200237921284431e-04  -3.8827868375639242e-04  2.6082683575744933e-04  -5.6466200018805360e-06  -4.2980041946191758e-05  -1.0346783935166862e-05  6.8439501081897666e-06  3.6261254929098223e-06  -1.2348805458071113e-06  -6.0323512808913344e-07  3.1244813298842273e-07  3.0882752822911249e-08  -6.0702233810796912e-08  1.6308094705147973e-08  3.0174434218226534e-09  -3.8014470720709297e-09  1.3382834110912166e-09  -1.1740451440969771e-10  -1.2644415288185402e-10  8.4185226955888888e-11  -3.0012098599374837e-11  6.2661169144329064e-12  9.7084082971099915e-14  -7.9814900405041853e-13  4.5685364333984403e-13  -1.7813807980227599e-13  5.6772456554369559e-14  -1.4107819671071458e-14  3.2317357439525334e-15  -2.9612522327925103e-17  1.2175210117446257e-16  2.5181626489798909e-16  1.3460520396727929e-16  1.0935105417188807e-16  1.0715425743410155e-16  1.2135946802997876e-16  4.5331679175768187e-17  5.7971827195638135e-17  5.5198734344002101e-17  5.5490422865745221e-17  5.5588067242723934e-17  5.5416742318864850e-17  5.4670711476723515e-17  6.3846526629155642e-17  1.1835722311891871e-18  4.6846330840468894e-19  -1.3867796603278270e-19  5.1149570583453330e-21  9.1746271179483242e-21  -4.3172406029715409e-21  1.2758360620687351e-21  -3.2724467187203931e-22  5.6164061153809410e-23  -1.3960943714056202e-23  5.6552979415510760e-24  -1.3386868365286628e-24  2.2384497527517510e-25  -4.2534389219166688e-26  9.4250776420871241e-01  9.7582331479192874e-01  9.6834773939422114e-01  9.6975168775741238e-01  9.7370386597955283e-01  9.8203206092693740e-01  9.9333090613262409e-01  1.0046633262847255e+00  1.0131647651546298e+00  1.0170662358516083e+00  1.0156979366421253e+00  1.0092542828434274e+00  9.9873616633619233e-01  9.8643442281647153e-01  9.7611745381517312e-01  9.7099821730608227e-01  9.7141760762902418e-01  9.7549837780801918e-01  9.8108772848327064e-01  9.8674079315813423e-01  9.9184071340237001e-01  9.9627808719606303e-01  1.0000917107853784e+00  1.0033040406809548e+00  1.0058741826517636e+00  1.0076957951934506e+00  1.0086489121120747e+00  1.0086186897824763e+00  1.0075071155830970e+00  1.0053880723318753e+00  1.0025040755405652e+00  9.9955108536062609e-01  9.9818977209850446e-01  9.9904199699962615e-01  1.0001304082833773e+00  1.0001807078615232e+00  9.9990635100704806e-01  9.9988602325536469e-01  1.0016210341660092e+00  9.9408180556953119e-01  9.4234371168910092e-01  -3.0722879986670372e-02  3.0285921998018928e-02  -9.6726789870842569e-03  3.1167454590097861e-03  -7.5537807956012868e-04  -2.7274903746440872e-04  1.4081113140980585e-04  9.2582194483005928e-05  -7.1954656138691156e-06  -2.3301641443680580e-05  -3.6427928463897177e-07  4.4311473222068913e-06  -5.6475156152632279e-07  -6.2280063339440994e-07  2.7773750886606526e-07  -2.8935665231246802e-10  -4.2806601806001470e-08  1.9238694932421312e-08  -3.0244126647292659e-09  -1.1887602784607523e-09  1.0512389243890521e-09  -4.2125849496126589e-10  1.0255438992060312e-10  -6.5085936483671620e-12  -8.5568416713208144e-12  5.7955226157323167e-12  -2.4635022456951492e-12  8.3206039857848509e-13  -2.3319726424364310e-13  5.4232839035203164e-14  -8.3467719032175043e-15  2.8682093810806490e-16  1.0276380344888775e-15  -2.5617777150103394e-16  3.5288109633559148e-16  5.8118166646590865e-17  1.3479538386112031e-16  1.0742869235824262e-16  6.9745921093188066e-17  5.5934406624086284e-17  5.4641114675475019e-17  5.5804414424679596e-17  5.5450563596996702e-17  5.5445965006252739e-17  5.5787390083697123e-17  5.6624863893135713e-17  3.1512374706268545e-17  -5.9694657436559627e-18  6.3684025319741604e-19  4.9598697472024557e-20  -4.9085578852985496e-20  1.6546697832196775e-20  -4.3388869197706138e-21  1.1247387803909172e-21  -2.1202539754205901e-22  8.7412397938167576e-23  -3.1461066542518250e-23  5.4279318053877484e-24  -8.5218541422659130e-25  1.5824318137754224e-25  1.1802262927405520e+00  1.0957592797061506e+00  1.1115830810124316e+00  1.1123901044886937e+00  1.1036035569619600e+00  1.0789195851528688e+00  1.0385211711205045e+00  9.9093743644656873e-01  9.4817962055550453e-01  9.2034360914436808e-01  9.1365531272568490e-01  9.2981135997306819e-01  9.6597360971766810e-01  1.0147936501572703e+00  1.0633035886366686e+00  1.0961468991652059e+00  1.1062783951931390e+00  1.0980142277264804e+00  1.0798659318322865e+00  1.0589344033977326e+00  1.0390832539290440e+00  1.0215269828249713e+00  1.0063080707671550e+00  9.9331321170373077e-01  9.8256908889831929e-01  9.7437462873299419e-01  9.6918557964349372e-01  9.6742645988290499e-01  9.6951631437153230e-01  9.7562802508452573e-01  9.8503809565682832e-01  9.9640101059709008e-01  1.0054607874608383e+00  1.0059619265023039e+00  1.0009227920143844e+00  9.9903604894372733e-01  9.9998039439483521e-01  1.0002005674455370e+00  9.9987656557080073e-01  9.9661955771166344e-01  1.0318657061928806e+00  5.3530500528091174e-01  -5.7130320965690526e-02  1.9736578557363320e-02  -6.6178169632715410e-03  -2.7768664406643481e-04  2.0980244346493807e-03  -1.0159614010757663e-04  -5.1438974254774397e-04  -1.2137460397974334e-04  9.8773974878276383e-05  3.8126752140894387e-05  -1.9461445937233123e-05  -4.3581598640412202e-06  4.2291584302400986e-06  -5.4865211903881062e-07  -4.6485535694482400e-07  2.7605831827418010e-07  -5.7491905340989632e-08  -1.1324417220196442e-08  1.3884554515976914e-08  -5.9994601950496689e-09  1.5460318130072202e-09  -1.2993146088234069e-10  -1.1174757970525559e-10  8.0582901265360622e-11  -3.4867633450148059e-11  1.1833128885343706e-11  -3.3257848927819101e-12  7.6080497293194961e-13  -1.1941072033557463e-13  -1.5343419593835127e-15  1.2362017338662576e-14  -6.4066886196394640e-15  2.9515367897411416e-15  -7.9913232203065597e-16  4.8517804669643008e-16  2.0297489654780467e-18  1.3941340680716404e-16  1.0851976054004630e-16  4.4366185814988253e-17  5.8470647075518259e-17  5.4907097058319146e-17  5.5619395686477930e-17  5.5482167967233928e-17  5.5733093528060609e-17  5.3518098049873395e-17  6.7049530470561173e-17  -7.8538444207577224e-19  2.8009284049517186e-18  -1.0318882203241796e-18  2.8010437012203896e-19  -6.6025876484640949e-20  1.5312768749239610e-20  -3.9094793023008853e-21  7.6336754707133534e-22  -4.3228572942983585e-22  1.0909468844565441e-22  -4.8629731615950706e-24  2.9202318099099925e-25  3.4975617885674532e-25  3.3458236013551890e-01  4.3955411266498040e-01  3.9073675561266574e-01  3.1523072797630181e-01  2.2505147785475096e-01  1.3413045952826586e-01  5.4778447262070880e-02  -7.2836557403139430e-03  -4.9086566239609088e-02  -7.1565349068104994e-02  -7.8852009356989952e-02  -7.3745029626010622e-02  -5.4925378841665165e-02  -1.6923718114866728e-02  4.7262949218096088e-02  1.4141230930960924e-01  2.6331780855477294e-01  4.0303510570078410e-01  5.4380301142214427e-01  6.7083479910435284e-01  7.7737244713822762e-01  8.6392624287618780e-01  9.3449078620515058e-01  9.9261668942687387e-01  1.0402923838173066e+00  1.0779344432666218e+00  1.1044487444655890e+00  1.1184761259520799e+00  1.1186346978154036e+00  1.1036731442147913e+00  1.0742983338995393e+00  1.0351107002246549e+00  9.9370175650257742e-01  9.7331684971690813e-01  9.8723972586643804e-01  1.0030219579441435e+00  1.0015257565109321e+00  9.9924530660003641e-01  9.9985499027193514e-01  1.0023023955110468e+00  9.8538847305312971e-01  1.0507932695316593e+00  4.8481122794893661e-01  -7.1788106235007587e-02  1.5258383070477147e-02  1.2366001042244373e-02  -8.4845198759588829e-03  -2.6904556528719748e-03  1.8491260156461113e-03  1.2269281291605828e-03  -1.6842216452212801e-04  -3.1046952216023493e-04  2.6064385954132135e-05  5.2869426850722633e-05  -1.5354382644567228e-05  -3.9261371573370636e-06  3.7988343026304264e-06  -1.0145470266545609e-06  -7.6355731722801221e-08  1.8014290724694066e-07  -8.4802515007446951e-08  2.3032651561607762e-08  -2.3287335948264807e-09  -1.4479197451361123e-09  1.1120044482974589e-09  -4.8816813066212647e-10  1.6638324661776557e-10  -4.6810288283249773e-11  1.0688451885774835e-11  -1.6848342599395612e-12  -2.5129545337543259e-14  1.6783655310755216e-13  -9.2327660552579445e-14  3.8189873612674025e-14  -1.3146622983370943e-14  4.5396518215243104e-15  -1.1474834021861559e-15  5.2506133160185765e-16  3.6696652015766379e-18  1.3934393778073934e-16  8.4992377641591379e-17  4.8420451968154056e-17  5.7040676180961642e-17  5.5114984382066086e-17  5.5658213226930692e-17  5.5333575926971432e-17  5.6168056572701599e-17  5.3662291927696993e-17  5.4554135879334729e-17  -1.2843992963939774e-17  3.1883206870879608e-18  -7.6446309088608114e-19  1.8123784834362845e-19  -4.7960847286272421e-20  1.3811779665350734e-20  -3.2168920084765909e-21  2.0657383749304393e-21  -2.1987323426452229e-22  -5.3497525213622440e-23  -6.7821270632199885e-25  -1.1364557880468295e-24  -2.3248201334623120e-02  -8.9913163763031823e-02  -9.4977917489495287e-02  -8.0948084732843123e-02  -6.3652089732382733e-02  -4.2734256781842658e-02  -2.1978077192407065e-02  -4.1542631083969243e-03  9.1793354706382353e-03  1.7413940182288312e-02  2.1167559713264658e-02  2.1444560727863909e-02  1.8496010588634162e-02  1.1448322276563330e-02  -1.2826297524770930e-03  -2.0760408547487993e-02  -4.6282028792944088e-02  -7.4757124917264231e-02  -1.0079845158408332e-01  -1.1868886475063453e-01  -1.2443004598777573e-01  -1.1583664661276223e-01  -9.2706910691266159e-02  -5.7167702068935122e-02  -1.1990093066059221e-02  4.2070723306105118e-02  1.0628593496546115e-01  1.8443711548526648e-01  2.8404266771628767e-01  4.1289566332129779e-01  5.7260812266424599e-01  7.5304853875630007e-01  9.3234044243038217e-01  1.0760690102885018e+00  1.0858737656876416e+00  1.0057836403896712e+00  9.8681882819016609e-01  1.0025094472009304e+00  1.0002867902610315e+00  9.9868451141773451e-01  1.0045000516599236e+00  9.8225874901333121e-01  1.0486353983832850e+00  8.0856566858681245e-01  9.2005275071312814e-02  -8.8245477330800945e-02  1.6839528218778411e-02  2.2780457625882090e-02  -1.9762160349156279e-03  -7.0358667294090696e-03  -1.3700984634385520e-03  1.4868823022596391e-03  3.8141629689502276e-04  -2.9886186787475826e-04  -5.2435366795826007e-06  4.8555975907887344e-05  -1.7123982993528771e-05  2.8520955065071618e-07  2.2684050697230991e-06  -1.1944277553080438e-06  3.4354699653534662e-07  -4.0466670205964593e-08  -1.8482639286023632e-08  1.5323967228137278e-08  -6.8356927755299308e-09  2.3415079662596778e-09  -6.5967548337188014e-10  1.5066978541610225e-10  -2.3824295163253166e-11  -3.0380274987229662e-13  2.3252725957394032e-12  -1.2907326934766378e-12  5.2829259215049114e-13  -1.8638866803787637e-13  6.0613028398109678e-14  -1.7928865014885526e-14  5.3681536974031460e-15  -1.2141531881802431e-15  4.8208635528860001e-16  2.5668496714454975e-17  1.3394029596091781e-16  8.1102493121330758e-17  4.9638723131778959e-17  5.7337854073487109e-17  5.4880672256520658e-17  5.5753739194239560e-17  5.5337088724098871e-17  5.5541327182182862e-17  5.7328915054258122e-17  4.5360074169085121e-17  -9.9502261596854577e-18  2.6597179073560038e-18  -6.9071404726896271e-19  2.0163240174214738e-19  -5.8203838298091460e-20  1.5107610153797049e-20  -8.5376643879891242e-21  -7.5108243649390241e-22  3.8127203334840045e-22  5.6032849620119091e-23  7.2413576000862303e-24  -9.6796829121752854e-04  1.5965133329946212e-02  2.6385286501690277e-02  2.3828313368994762e-02  1.9481431887088594e-02  1.4327485869177896e-02  8.6153086658021499e-03  3.3749316342581688e-03  -8.3663391324004049e-04  -3.7255529170781565e-03  -5.3003483259721693e-03  -5.8161591276075578e-03  -5.4685520165418892e-03  -4.1733715979489147e-03  -1.5721097601641804e-03  2.7350107966268777e-03  8.8294478245985308e-03  1.6216516205957890e-02  2.3728122488141188e-02  2.9805163687138599e-02  3.3119080768965838e-02  3.2857272988312869e-02  2.8709344544123466e-02  2.0986767045654997e-02  1.0482449166415947e-02  -2.1890090167175501e-03  -1.6909021135353690e-02  -3.3951400149650451e-02  -5.4101373960445225e-02  -7.7888925461978731e-02  -1.0306667931699925e-01  -1.2031868318673247e-01  -1.0289754355643622e-01  4.9795341736036964e-03  2.9120024879899020e-01  7.8132840544742321e-01  1.0573073264840180e+00  9.9973795008309152e-01  9.9546062139364977e-01  1.0017658649130377e+00  9.9839363915197954e-01  1.0035518041630709e+00  9.9201049200722557e-01  1.0009504106131495e+00  1.0681203158165875e+00  7.1082534106388451e-01  1.0114366679911650e-01  -1.0867813322451841e-01  -2.9141474685712185e-02  2.6359662304672297e-02  1.6159891543067025e-02  -3.4436645069770631e-03  -4.0091871468582712e-03  8.1723091257951950e-04  5.2086364981898290e-04  -2.7660553074581646e-04  2.6919029704142809e-05  2.7111297482892471e-05  -1.6751182433228856e-05  5.1408968241265396e-06  -6.9006175395140957e-07  -2.3166335596226785e-07  2.1117003394376537e-07  -9.5834897136067182e-08  3.2986332924143758e-08  -9.3016005522718652e-09  2.1241626190157327e-09  -3.3645493758920278e-10  -3.6061583386612359e-12  3.2328634650811269e-11  -1.7995767224587574e-11  7.3592141366646914e-12  -2.6031733981505635e-12  8.4106875847705411e-13  -2.5282018962549247e-13  7.2138027830415767e-14  -1.8941446508280772e-14  4.9776498066344977e-15  -9.0068968576257478e-16  3.3661342444862783e-16  8.2602970582996530e-17  1.1491557794356752e-16  7.7324697971080009e-17  4.7075302669406573e-17  5.8356331713437215e-17  5.4628658645809397e-17  5.5773170829325464e-17  5.5541412725079646e-17  5.4848086678161263e-17  5.8194408613083881e-17  4.6516559696153230e-17  -1.0429070600136474e-17  2.6878457667529775e-18  -8.2168654969489628e-19  2.2753302375171334e-19  -6.0900938238186161e-20  2.6401892344610256e-20  1.1618719899567510e-20  -8.0169806662928354e-22  -5.1751378710919216e-22  -1.5302096364006468e-22  7.7790751782266354e-04  -1.8020471149183502e-03  -6.0856450625835666e-03  -6.9859875536011839e-03  -5.8175840813280109e-03  -4.5556825699809324e-03  -3.0758774643253593e-03  -1.5794914820929692e-03  -2.9966290220487230e-04  6.5652730246737413e-04  1.2493915765643033e-03  1.5208067153169038e-03  1.5410362593540215e-03  1.3288403066947889e-03  8.2073509263933713e-04  -9.5497724830847955e-05  -1.4952079816619290e-03  -3.3295191008764461e-03  -5.3731119402496454e-03  -7.2438537306368615e-03  -8.5381763403915827e-03  -8.9659462445700420e-03  -8.3750583899756363e-03  -6.7642047887270457e-03  -4.2960564197922265e-03  -1.1777486462138398e-03  2.4909477488720372e-03  6.7303276368948757e-03  1.1689331756095074e-02  1.7604067431465503e-02  2.4349493004967682e-02  3.0677101097571338e-02  3.2172883290234766e-02  1.8952295562320108e-02  -2.5110303827706567e-02  -1.0127356633915570e-01  1.3479432433969785e-01  8.5992305904055144e-01  1.0217336625824149e+00  9.9438922651275719e-01  1.0007378171414252e+00  9.9946047502997160e-01  1.0002710775832060e+00  1.0034106502007953e+00  9.8334078203146180e-01  1.0108758525733081e+00  1.0855015189709696e+00  8.6409979209192223e-01  3.5561676693508465e-01  -2.9968051159155604e-02  -9.6771982460886183e-02  -1.3669329810244511e-02  2.2183289512289744e-02  2.6442847329686222e-03  -4.1401479783806311e-03  7.7867035015175500e-04  2.8989889305739173e-04  -2.3334596781889678e-04  7.7349978520296022e-05  -1.1648512475015103e-05  -2.8295579794701623e-06  2.9115880620149716e-06  -1.3457925469583178e-06  4.6522138622199175e-07  -1.3120907722891257e-07  2.9939593311397609e-08  -4.7461512770977670e-09  -4.2517881107833511e-11  4.4974688275484343e-10  -2.5079719878455258e-10  1.0257673936990289e-10  -3.6296585201479645e-11  1.1716401980806557e-11  -3.5271628506690713e-12  1.0009461901056285e-12  -2.6677180478737899e-13  6.6709657705086962e-14  -1.4614989169664743e-14  2.9315017137232220e-15  -8.9701023441350537e-17  4.5686876863841647e-17  1.7982513412079832e-16  8.4624931314091529e-17  9.8067486983957535e-17  4.2956904884913368e-17  5.9116431964333297e-17  5.4481516942381242e-17  5.5752373567532156e-17  5.5633291443315175e-17  5.4805939688206284e-17  5.8107787810726234e-17  4.5577913123722963e-17  -1.0167134795987588e-17  3.3218134852140564e-18  -8.1799133202256714e-19  1.9195211400131005e-19  -3.7385172524222390e-20  -7.8313908970628294e-20  -7.7098578802746418e-21  1.7886505707375323e-21  1.8338462992184463e-21  -1.5657756833259263e-04  3.0679684138018754e-05  1.0925883598357780e-03  1.8592683273802567e-03  1.7465916352805541e-03  1.3910710418584982e-03  1.0277389229918471e-03  6.2002932236833431e-04  2.4231195387504543e-04  -5.9595412301436205e-05  -2.670484051926581