<?xml version="1.0"?>
<VTKFile type="UnstructuredGrid"  version="0.1"  >
<UnstructuredGrid>
<Piece  NumberOfPoints="5151" NumberOfCells="10000">
<Points>
<DataArray  type="Float64"  NumberOfComponents="3"  format="ascii">0 0 0  0.01 0 0  0.02 0 0  0.03 0 0  0.04 0 0  0.05 0 0  0.06 0 0  0.07000000000000001 0 0  0.08 0 0  0.09 0 0  0.1 0 0  0.11 0 0  0.12 0 0  0.13 0 0  0.14 0 0  0.15 0 0  0.16 0 0  0.17 0 0  0.18 0 0  0.19 0 0  0.2 0 0  0.21 0 0  0.22 0 0  0.23 0 0  0.24 0 0  0.25 0 0  0.26 0 0  0.27 0 0  0.28 0 0  0.29 0 0  0.3 0 0  0.31 0 0  0.32 0 0  0.33 0 0  0.34 0 0  0.35 0 0  0.36 0 0  0.37 0 0  0.38 0 0  0.39 0 0  0.4 0 0  0.41 0 0  0.42 0 0  0.43 0 0  0.44 0 0  0.45 0 0  0.46 0 0  0.47 0 0  0.48 0 0  0.49 0 0  0.5 0 0  0.51 0 0  0.52 0 0  0.53 0 0  0.54 0 0  0.55 0 0  0.5600000000000001 0 0  0.57 0 0  0.58 0 0  0.59 0 0  0.6 0 0  0.61 0 0  0.62 0 0  0.63 0 0  0.64 0 0  0.65 0 0  0.66 0 0  0.67 0 0  0.68 0 0  0.6899999999999999 0 0  0.7 0 0  0.71 0 0  0.72 0 0  0.73 0 0  0.74 0 0  0.75 0 0  0.76 0 0  0.77 0 0  0.78 0 0  0.79 0 0  0.8 0 0  0.8100000000000001 0 0  0.82 0 0  0.83 0 0  0.84 0 0  0.85 0 0  0.86 0 0  0.87 0 0  0.88 0 0  0.89 0 0  0.9 0 0  0.91 0 0  0.92 0 0  0.93 0 0  0.9399999999999999 0 0  0.95 0 0  0.96 0 0  0.97 0 0  0.98 0 0  0.99 0 0  1 0 0  0 0.01 0  0.01 0.01 0  0.02 0.01 0  0.03 0.01 0  0.04 0.01 0  0.05 0.01 0  0.06 0.01 0  0.07000000000000001 0.01 0  0.08 0.01 0  0.09 0.01 0  0.1 0.01 0  0.11 0.01 0  0.12 0.01 0  0.13 0.01 0  0.14 0.01 0  0.15 0.01 0  0.16 0.01 0  0.17 0.01 0  0.18 0.01 0  0.19 0.01 0  0.2 0.01 0  0.21 0.01 0  0.22 0.01 0  0.23 0.01 0  0.24 0.01 0  0.25 0.01 0  0.26 0.01 0  0.27 0.01 0  0.28 0.01 0  0.29 0.01 0  0.3 0.01 0  0.31 0.01 0  0.32 0.01 0  0.33 0.01 0  0.34 0.01 0  0.35 0.01 0  0.36 0.01 0  0.37 0.01 0  0.38 0.01 0  0.39 0.01 0  0.4 0.01 0  0.41 0.01 0  0.42 0.01 0  0.43 0.01 0  0.44 0.01 0  0.45 0.01 0  0.46 0.01 0  0.47 0.01 0  0.48 0.01 0  0.49 0.01 0  0.5 0.01 0  0.51 0.01 0  0.52 0.01 0  0.53 0.01 0  0.54 0.01 0  0.55 0.01 0  0.5600000000000001 0.01 0  0.57 0.01 0  0.58 0.01 0  0.59 0.01 0  0.6 0.01 0  0.61 0.01 0  0.62 0.01 0  0.63 0.01 0  0.64 0.01 0  0.65 0.01 0  0.66 0.01 0  0.67 0.01 0  0.68 0.01 0  0.6899999999999999 0.01 0  0.7 0.01 0  0.71 0.01 0  0.72 0.01 0  0.73 0.01 0  0.74 0.01 0  0.75 0.01 0  0.76 0.01 0  0.77 0.01 0  0.78 0.01 0  0.79 0.01 0  0.8 0.01 0  0.8100000000000001 0.01 0  0.82 0.01 0  0.83 0.01 0  0.84 0.01 0  0.85 0.01 0  0.86 0.01 0  0.87 0.01 0  0.88 0.01 0  0.89 0.01 0  0.9 0.01 0  0.91 0.01 0  0.92 0.01 0  0.93 0.01 0  0.9399999999999999 0.01 0  0.95 0.01 0  0.96 0.01 0  0.97 0.01 0  0.98 0.01 0  0.99 0.01 0  1 0.01 0  0 0.02 0  0.01 0.02 0  0.02 0.02 0  0.03 0.02 0  0.04 0.02 0  0.05 0.02 0  0.06 0.02 0  0.07000000000000001 0.02 0  0.08 0.02 0  0.09 0.02 0  0.1 0.02 0  0.11 0.02 0  0.12 0.02 0  0.13 0.02 0  0.14 0.02 0  0.15 0.02 0  0.16 0.02 0  0.17 0.02 0  0.18 0.02 0  0.19 0.02 0  0.2 0.02 0  0.21 0.02 0  0.22 0.02 0  0.23 0.02 0  0.24 0.02 0  0.25 0.02 0  0.26 0.02 0  0.27 0.02 0  0.28 0.02 0  0.29 0.02 0  0.3 0.02 0  0.31 0.02 0  0.32 0.02 0  0.33 0.02 0  0.34 0.02 0  0.35 0.02 0  0.36 0.02 0  0.37 0.02 0  0.38 0.02 0  0.39 0.02 0  0.4 0.02 0  0.41 0.02 0  0.42 0.02 0  0.43 0.02 0  0.44 0.02 0  0.45 0.02 0  0.46 0.02 0  0.47 0.02 0  0.48 0.02 0  0.49 0.02 0  0.5 0.02 0  0.51 0.02 0  0.52 0.02 0  0.53 0.02 0  0.54 0.02 0  0.55 0.02 0  0.5600000000000001 0.02 0  0.57 0.02 0  0.58 0.02 0  0.59 0.02 0  0.6 0.02 0  0.61 0.02 0  0.62 0.02 0  0.63 0.02 0  0.64 0.02 0  0.65 0.02 0  0.66 0.02 0  0.67 0.02 0  0.68 0.02 0  0.6899999999999999 0.02 0  0.7 0.02 0  0.71 0.02 0  0.72 0.02 0  0.73 0.02 0  0.74 0.02 0  0.75 0.02 0  0.76 0.02 0  0.77 0.02 0  0.78 0.02 0  0.79 0.02 0  0.8 0.02 0  0.8100000000000001 0.02 0  0.82 0.02 0  0.83 0.02 0  0.84 0.02 0  0.85 0.02 0  0.86 0.02 0  0.87 0.02 0  0.88 0.02 0  0.89 0.02 0  0.9 0.02 0  0.91 0.02 0  0.92 0.02 0  0.93 0.02 0  0.9399999999999999 0.02 0  0.95 0.02 0  0.96 0.02 0  0.97 0.02 0  0.98 0.02 0  0.99 0.02 0  1 0.02 0  0 0.03 0  0.01 0.03 0  0.02 0.03 0  0.03 0.03 0  0.04 0.03 0  0.05 0.03 0  0.06 0.03 0  0.07000000000000001 0.03 0  0.08 0.03 0  0.09 0.03 0  0.1 0.03 0  0.11 0.03 0  0.12 0.03 0  0.13 0.03 0  0.14 0.03 0  0.15 0.03 0  0.16 0.03 0  0.17 0.03 0  0.18 0.03 0  0.19 0.03 0  0.2 0.03 0  0.21 0.03 0  0.22 0.03 0  0.23 0.03 0  0.24 0.03 0  0.25 0.03 0  0.26 0.03 0  0.27 0.03 0  0.28 0.03 0  0.29 0.03 0  0.3 0.03 0  0.31 0.03 0  0.32 0.03 0  0.33 0.03 0  0.34 0.03 0  0.35 0.03 0  0.36 0.03 0  0.37 0.03 0  0.38 0.03 0  0.39 0.03 0  0.4 0.03 0  0.41 0.03 0  0.42 0.03 0  0.43 0.03 0  0.44 0.03 0  0.45 0.03 0  0.46 0.03 0  0.47 0.03 0  0.48 0.03 0  0.49 0.03 0  0.5 0.03 0  0.51 0.03 0  0.52 0.03 0  0.53 0.03 0  0.54 0.03 0  0.55 0.03 0  0.5600000000000001 0.03 0  0.57 0.03 0  0.58 0.03 0  0.59 0.03 0  0.6 0.03 0  0.61 0.03 0  0.62 0.03 0  0.63 0.03 0  0.64 0.03 0  0.65 0.03 0  0.66 0.03 0  0.67 0.03 0  0.68 0.03 0  0.6899999999999999 0.03 0  0.7 0.03 0  0.71 0.03 0  0.72 0.03 0  0.73 0.03 0  0.74 0.03 0  0.75 0.03 0  0.76 0.03 0  0.77 0.03 0  0.78 0.03 0  0.79 0.03 0  0.8 0.03 0  0.8100000000000001 0.03 0  0.82 0.03 0  0.83 0.03 0  0.84 0.03 0  0.85 0.03 0  0.86 0.03 0  0.87 0.03 0  0.88 0.03 0  0.89 0.03 0  0.9 0.03 0  0.91 0.03 0  0.92 0.03 0  0.93 0.03 0  0.9399999999999999 0.03 0  0.95 0.03 0  0.96 0.03 0  0.97 0.03 0  0.98 0.03 0  0.99 0.03 0  1 0.03 0  0 0.04 0  0.01 0.04 0  0.02 0.04 0  0.03 0.04 0  0.04 0.04 0  0.05 0.04 0  0.06 0.04 0  0.07000000000000001 0.04 0  0.08 0.04 0  0.09 0.04 0  0.1 0.04 0  0.11 0.04 0  0.12 0.04 0  0.13 0.04 0  0.14 0.04 0  0.15 0.04 0  0.16 0.04 0  0.17 0.04 0  0.18 0.04 0  0.19 0.04 0  0.2 0.04 0  0.21 0.04 0  0.22 0.04 0  0.23 0.04 0  0.24 0.04 0  0.25 0.04 0  0.26 0.04 0  0.27 0.04 0  0.28 0.04 0  0.29 0.04 0  0.3 0.04 0  0.31 0.04 0  0.32 0.04 0  0.33 0.04 0  0.34 0.04 0  0.35 0.04 0  0.36 0.04 0  0.37 0.04 0  0.38 0.04 0  0.39 0.04 0  0.4 0.04 0  0.41 0.04 0  0.42 0.04 0  0.43 0.04 0  0.44 0.04 0  0.45 0.04 0  0.46 0.04 0  0.47 0.04 0  0.48 0.04 0  0.49 0.04 0  0.5 0.04 0  0.51 0.04 0  0.52 0.04 0  0.53 0.04 0  0.54 0.04 0  0.55 0.04 0  0.5600000000000001 0.04 0  0.57 0.04 0  0.58 0.04 0  0.59 0.04 0  0.6 0.04 0  0.61 0.04 0  0.62 0.04 0  0.63 0.04 0  0.64 0.04 0  0.65 0.04 0  0.66 0.04 0  0.67 0.04 0  0.68 0.04 0  0.6899999999999999 0.04 0  0.7 0.04 0  0.71 0.04 0  0.72 0.04 0  0.73 0.04 0  0.74 0.04 0  0.75 0.04 0  0.76 0.04 0  0.77 0.04 0  0.78 0.04 0  0.79 0.04 0  0.8 0.04 0  0.8100000000000001 0.04 0  0.82 0.04 0  0.83 0.04 0  0.84 0.04 0  0.85 0.04 0  0.86 0.04 0  0.87 0.04 0  0.88 0.04 0  0.89 0.04 0  0.9 0.04 0  0.91 0.04 0  0.92 0.04 0  0.93 0.04 0  0.9399999999999999 0.04 0  0.95 0.04 0  0.96 0.04 0  0.97 0.04 0  0.98 0.04 0  0.99 0.04 0  1 0.04 0  0 0.05 0  0.01 0.05 0  0.02 0.05 0  0.03 0.05 0  0.04 0.05 0  0.05 0.05 0  0.06 0.05 0  0.07000000000000001 0.05 0  0.08 0.05 0  0.09 0.05 0  0.1 0.05 0  0.11 0.05 0  0.12 0.05 0  0.13 0.05 0  0.14 0.05 0  0.15 0.05 0  0.16 0.05 0  0.17 0.05 0  0.18 0.05 0  0.19 0.05 0  0.2 0.05 0  0.21 0.05 0  0.22 0.05 0  0.23 0.05 0  0.24 0.05 0  0.25 0.05 0  0.26 0.05 0  0.27 0.05 0  0.28 0.05 0  0.29 0.05 0  0.3 0.05 0  0.31 0.05 0  0.32 0.05 0  0.33 0.05 0  0.34 0.05 0  0.35 0.05 0  0.36 0.05 0  0.37 0.05 0  0.38 0.05 0  0.39 0.05 0  0.4 0.05 0  0.41 0.05 0  0.42 0.05 0  0.43 0.05 0  0.44 0.05 0  0.45 0.05 0  0.46 0.05 0  0.47 0.05 0  0.48 0.05 0  0.49 0.05 0  0.5 0.05 0  0.51 0.05 0  0.52 0.05 0  0.53 0.05 0  0.54 0.05 0  0.55 0.05 0  0.5600000000000001 0.05 0  0.57 0.05 0  0.58 0.05 0  0.59 0.05 0  0.6 0.05 0  0.61 0.05 0  0.62 0.05 0  0.63 0.05 0  0.64 0.05 0  0.65 0.05 0  0.66 0.05 0  0.67 0.05 0  0.68 0.05 0  0.6899999999999999 0.05 0  0.7 0.05 0  0.71 0.05 0  0.72 0.05 0  0.73 0.05 0  0.74 0.05 0  0.75 0.05 0  0.76 0.05 0  0.77 0.05 0  0.78 0.05 0  0.79 0.05 0  0.8 0.05 0  0.8100000000000001 0.05 0  0.82 0.05 0  0.83 0.05 0  0.84 0.05 0  0.85 0.05 0  0.86 0.05 0  0.87 0.05 0  0.88 0.05 0  0.89 0.05 0  0.9 0.05 0  0.91 0.05 0  0.92 0.05 0  0.93 0.05 0  0.9399999999999999 0.05 0  0.95 0.05 0  0.96 0.05 0  0.97 0.05 0  0.98 0.05 0  0.99 0.05 0  1 0.05 0  0 0.06 0  0.01 0.06 0  0.02 0.06 0  0.03 0.06 0  0.04 0.06 0  0.05 0.06 0  0.06 0.06 0  0.07000000000000001 0.06 0  0.08 0.06 0  0.09 0.06 0  0.1 0.06 0  0.11 0.06 0  0.12 0.06 0  0.13 0.06 0  0.14 0.06 0  0.15 0.06 0  0.16 0.06 0  0.17 0.06 0  0.18 0.06 0  0.19 0.06 0  0.2 0.06 0  0.21 0.06 0  0.22 0.06 0  0.23 0.06 0  0.24 0.06 0  0.25 0.06 0  0.26 0.06 0  0.27 0.06 0  0.28 0.06 0  0.29 0.06 0  0.3 0.06 0  0.31 0.06 0  0.32 0.06 0  0.33 0.06 0  0.34 0.06 0  0.35 0.06 0  0.36 0.06 0  0.37 0.06 0  0.38 0.06 0  0.39 0.06 0  0.4 0.06 0  0.41 0.06 0  0.42 0.06 0  0.43 0.06 0  0.44 0.06 0  0.45 0.06 0  0.46 0.06 0  0.47 0.06 0  0.48 0.06 0  0.49 0.06 0  0.5 0.06 0  0.51 0.06 0  0.52 0.06 0  0.53 0.06 0  0.54 0.06 0  0.55 0.06 0  0.5600000000000001 0.06 0  0.57 0.06 0  0.58 0.06 0  0.59 0.06 0  0.6 0.06 0  0.61 0.06 0  0.62 0.06 0  0.63 0.06 0  0.64 0.06 0  0.65 0.06 0  0.66 0.06 0  0.67 0.06 0  0.68 0.06 0  0.6899999999999999 0.06 0  0.7 0.06 0  0.71 0.06 0  0.72 0.06 0  0.73 0.06 0  0.74 0.06 0  0.75 0.06 0  0.76 0.06 0  0.77 0.06 0  0.78 0.06 0  0.79 0.06 0  0.8 0.06 0  0.8100000000000001 0.06 0  0.82 0.06 0  0.83 0.06 0  0.84 0.06 0  0.85 0.06 0  0.86 0.06 0  0.87 0.06 0  0.88 0.06 0  0.89 0.06 0  0.9 0.06 0  0.91 0.06 0  0.92 0.06 0  0.93 0.06 0  0.9399999999999999 0.06 0  0.95 0.06 0  0.96 0.06 0  0.97 0.06 0  0.98 0.06 0  0.99 0.06 0  1 0.06 0  0 0.07000000000000001 0  0.01 0.07000000000000001 0  0.02 0.07000000000000001 0  0.03 0.07000000000000001 0  0.04 0.07000000000000001 0  0.05 0.07000000000000001 0  0.06 0.07000000000000001 0  0.07000000000000001 0.07000000000000001 0  0.08 0.07000000000000001 0  0.09 0.07000000000000001 0  0.1 0.07000000000000001 0  0.11 0.07000000000000001 0  0.12 0.07000000000000001 0  0.13 0.07000000000000001 0  0.14 0.07000000000000001 0  0.15 0.07000000000000001 0  0.16 0.07000000000000001 0  0.17 0.07000
[...]
<PointData  Scalars="rho_bar"> 
<DataArray  type="Float64"  Name="rho_bar"  format="ascii">9.8880776722614183e-01  9.8848011917729139e-01  9.8772365705093423e-01  9.8690896213627022e-01  9.8581564474388628e-01  9.8446184314749374e-01  9.8282494784930463e-01  9.8090565482126268e-01  9.7873432460498588e-01  9.7639334669110978e-01  9.7403636457481402e-01  9.7189063360238648e-01  9.7022688213615726e-01  9.6929091626578834e-01  9.6922029005871690e-01  9.6999137781298916e-01  9.7143907980831412e-01  9.7332964551754542e-01  9.7543558079884762e-01  9.7757637416315024e-01  9.7963122108739931e-01  9.8153299635251257e-01  9.8325737928279178e-01  9.8481059179779229e-01  9.8621728381937113e-01  9.8750741148083521e-01  9.8870718202224039e-01  9.8983530738808634e-01  9.9090266574112096e-01  9.9190718772359332e-01  9.9282571866495950e-01  9.9361891739918162e-01  9.9425184489991703e-01  9.9469093766709604e-01  9.9486277325167971e-01  9.9459992166008615e-01  9.9351716063881257e-01  9.9059874490999622e-01  9.8212372473351905e-01  9.5519176265866290e-01  8.5321423892247805e-01  5.5137617925715066e-01  2.3018449209335531e-01  8.1762410177669193e-02  3.1074989960168439e-02  1.3199838280180896e-02  6.2228055655055769e-03  3.2079226450357299e-03  1.7820921336180618e-03  1.0534148146033814e-03  6.5390894742281915e-04  4.2222237691760811e-04  2.8188279713710742e-04  1.9355399562130627e-04  1.3608009460572742e-04  9.7684815845501069e-05  7.1448126083533179e-05  5.3144879545376891e-05  4.0141485383180583e-05  3.0748074999260015e-05  2.3855510412824156e-05  1.8723780977404058e-05  1.4850586380598698e-05  1.1889607454803412e-05  9.5989507508459515e-06  7.8072058712652071e-06  6.3914603137444887e-06  5.2624099525743251e-06  4.3544505422555303e-06  3.6187629726104663e-06  3.0186484315535604e-06  2.5261954205656532e-06  2.1199632082563841e-06  1.7833093564170252e-06  1.5031917968068981e-06  1.2693035723456497e-06  1.0734266291527710e-06  9.0895699480773566e-07  7.7054997115373910e-07  6.5385662179485252e-07  5.5531174001826555e-07  4.7198355072777524e-07  4.0144384136640298e-07  3.4168254649631609e-07  2.9102149349622232e-07  2.4806275581809216e-07  2.1163381274669407e-07  1.8075512002752382e-07  1.5460274889414218e-07  1.3248702430235804e-07  1.1382814297445790e-07  9.8142582365124060e-08  8.5024995494803432e-08  7.4139987555075560e-08  6.5209819306582045e-08  5.8009895439123920e-08  5.2359922688053785e-08  4.8121949705329284e-08  4.5196966456599715e-08  4.3537388185069664e-08  4.3180440545668506e-08  9.8776500013488733e-01  9.8664599396766905e-01  9.8621065320221035e-01  9.8513821026725501e-01  9.8362169550268008e-01  9.8156916156277496e-01  9.7896979307177967e-01  9.7586982636065800e-01  9.7238685682190995e-01  9.6872252650971358e-01  9.6516481842336876e-01  9.6207285948051136e-01  9.5982863258452189e-01  9.5875007563263803e-01  9.5898368967857750e-01  9.6044259311999913e-01  9.6284241396266124e-01  9.6581196373341893e-01  9.6900123808374239e-01  9.7214387613593078e-01  9.7507183211565718e-01  9.7770309620957319e-01  9.8001841462910533e-01  9.8203983525339400e-01  9.8381075367724558e-01  9.8537806060740996e-01  9.8678000613165529e-01  9.8804580828196342e-01  9.8919630175143891e-01  9.9024643922608502e-01  9.9121591604615200e-01  9.9212957435062965e-01  9.9297188148581339e-01  9.9364288293709002e-01  9.9398988954689282e-01  9.9383136513775372e-01  9.9281214173594623e-01  9.8991522901868156e-01  9.8185374289310745e-01  9.5636746070407819e-01  8.6351673308824695e-01  5.9656297157618365e-01  2.6389425727177501e-01  9.5808542964851695e-02  3.6922363452919459e-02  1.5575791710708990e-02  7.2761496784568428e-03  3.7257143521288111e-03  2.0574923894124443e-03  1.2035199531498868e-03  7.3877347233078090e-04  4.7307845692409089e-04  3.1331177982836847e-04  2.1317070686873899e-04  1.4859226646523447e-04  1.0584753365077136e-04  7.6843330406595946e-05  5.6766480925581068e-05  4.2613758826933249e-05  3.2460807296397948e-05  2.5060331253167041e-05  1.9584449200808068e-05  1.5474468775154492e-05  1.2348459554277715e-05  9.9411028734937916e-06  8.0657391781984337e-06  6.5892315810545223e-06  5.4154698453409154e-06  4.4741664540395970e-06  3.7133281071443430e-06  3.0940117047077583e-06  2.5867428792896090e-06  2.1689617520553139e-06  1.8232196313575745e-06  1.5358898441510965e-06  1.2962304508937188e-06  1.0957023478049632e-06  9.2745886082529624e-07  7.8597334849697484e-07  6.6675280330019707e-07  5.6612609964142691e-07  4.8107213730699553e-07  4.0910059588478067e-07  3.4814359103422262e-07  2.9648442654004833e-07  2.5268772778584184e-07  2.1555665475663771e-07  1.8408697479610523e-07  1.5743840967264934e-07  1.3490480820393496e-07  1.1589605201386280e-07  9.9917122155547052e-08  8.6555873082201398e-08  7.5468757757521752e-08  6.6374053672203404e-08  5.9041479428627314e-08  5.3287579877802473e-08  4.8969502995259519e-08  4.5982675533994519e-08  4.4254000649908932e-08  4.3729613905047710e-08  9.6953439345476744e-01  9.7179871122775396e-01  9.6968312155612069e-01  9.6747290142322517e-01  9.6449274209160851e-01  9.6089330458397859e-01  9.5667730696518072e-01  9.5182450909628546e-01  9.4632663757076696e-01  9.4027407840808719e-01  9.3395145584954231e-01  9.2791893861413732e-01  9.2299211556202887e-01  9.2003643990244155e-01  9.1962354645276845e-01  9.2173436371126394e-01  9.2580269855220654e-01  9.3104076075690578e-01  9.3675858538301848e-01  9.4246669468867028e-01  9.4787041662299620e-01  9.5282099360541062e-01  9.5727088457947951e-01  9.6125445479016136e-01  9.6486829144232178e-01  9.6822336635705042e-01  9.7140285053704911e-01  9.7446070281413055e-01  9.7743023475777446e-01  9.8032422130551955e-01  9.8311207486141061e-01  9.8565989822991773e-01  9.8775676784080602e-01  9.8928995793972030e-01  9.9028830819334568e-01  9.9066844218757621e-01  9.9002730471330436e-01  9.8741178502906013e-01  9.8009192288334046e-01  9.5880584432909077e-01  8.9105371256113453e-01  6.9499753978647660e-01  3.7753677452303253e-01  1.5415592642805134e-01  6.0962626228311480e-02  2.5480082728402013e-02  1.1790703335039015e-02  5.9059351677911735e-03  3.1464012807268901e-03  1.7877954187487202e-03  1.0754823803363366e-03  6.7115384464019423e-04  4.3108923584441345e-04  2.8562842678734013e-04  1.9434253618565001e-04  1.3504194541342726e-04  9.5811992681504591e-05  6.9332287622726152e-05  5.1063615205769000e-05  3.8240325637278921e-05  2.9081456367894679e-05  2.2427521841755670e-05  1.7517587423164431e-05  1.3839763749801557e-05  1.1045989893823326e-05  8.8960025553052352e-06  7.2214587373911343e-06  5.9028537754048144e-06  4.8541792262442477e-06  4.0126972579483790e-06  3.3320753505142883e-06  2.7776629243224763e-06  2.3232396782983959e-06  1.9487359987789082e-06  1.6386214185689603e-06  1.3807642218108963e-06  1.1655901939305892e-06  9.8547947001901525e-07  8.3431740742444052e-07  7.0716450799749298e-07  6.0000116885443853e-07  5.0953982086391694e-07  4.3307446483870782e-07  3.6837329998444457e-07  3.1358296318900416e-07  2.6716402905212818e-07  2.2783075647875090e-07  1.9451084901241170e-07  1.6630555122685334e-07  1.4246386557493691e-07  1.2235635561318002e-07  1.0545768890319721e-07  9.1329292354995264e-08  7.9607638133915344e-08  6.9992735729753786e-08  6.2240935482171835e-08  5.6156707067879388e-08  5.1587610100612717e-08  4.8418202605998977e-08  4.6567071592349750e-08  4.5974721323190993e-08  9.4119719185311845e-01  9.3180997402994681e-01  9.2999452391761139e-01  9.2390615174018065e-01  9.1410087342372259e-01  8.9986836872441900e-01  8.8077447848916568e-01  8.5687194416817969e-01  8.2892810459726485e-01  7.9854776287744000e-01  7.6816935682267784e-01  7.4105866467235371e-01  7.2088091204367322e-01  7.1089102686405736e-01  7.1278008989816977e-01  7.2561830988913001e-01  7.4632616956351217e-01  7.7125052118054838e-01  7.9737199900747036e-01  8.2250566691865956e-01  8.4533411709971196e-01  8.6524048807413256e-01  8.8209118470364678e-01  8.9616217608885040e-01  9.0802870469238639e-01  9.1830320944042954e-01  9.2731920720874694e-01  9.3526955603531081e-01  9.4232451087433033e-01  9.4864626870344060e-01  9.5441987547467777e-01  9.5998873525152884e-01  9.6581404524347558e-01  9.7187480381400948e-01  9.7723087785887808e-01  9.8078642761303014e-01  9.8215505339457154e-01  9.8098074200094731e-01  9.7551287481409177e-01  9.6032406842425133e-01  9.1914130069900291e-01  8.1038469044932959e-01  5.8150201955122904e-01  3.0794925007759699e-01  1.3440784691583263e-01  5.8229763788359770e-02  2.6253533273394011e-02  1.2483007278271651e-02  6.4950611249773643e-03  3.5984302976881837e-03  2.0439178581223411e-03  1.2020308364112939e-03  7.4248737635025566e-04  4.7239072067743173e-04  3.0601402614110909e-04  2.0370965492650129e-04  1.3911856605782887e-04  9.6965973657283668e-05  6.9076444139598879e-05  5.0228117448777416e-05  3.7203261781148858e-05  2.8041372283156188e-05  2.1471171307141176e-05  1.6674676827219629e-05  1.3114467776567518e-05  1.0429894007685886e-05  8.3763180691301949e-06  6.7845792290055228e-06  5.5360200261781798e-06  4.5461210488491290e-06  3.7537731992733153e-06  3.1141776234785347e-06  2.5940343983244934e-06  2.1682702811722930e-06  1.8177767836193570e-06  1.5278181201307689e-06  1.2869140549063080e-06  1.0860256239520629e-06  9.1797372685222867e-07  7.7700789253038151e-07  6.5848873949548722e-07  5.5864633820811927e-07  4.7440116751359060e-07  4.0322231740340131e-07  3.4302396194253134e-07  2.9207673625814872e-07  2.4894591740032384e-07  2.1243515036765780e-07  1.8154840425465327e-07  1.5545269485803658e-07  1.3345347147031802e-07  1.1497071309469567e-07  9.9522012621748785e-08  8.6707108266427257e-08  7.6196918282762029e-08  6.7723263316623885e-08  6.1071346511396264e-08  5.6072983112982191e-08  5.2601743894822947e-08  5.0566952794895882e-08  4.9913654492073046e-08  6.5516004582042464e-01  6.6206882251723298e-01  6.4451189575744794e-01  6.1368200514639726e-01  5.7212871505074492e-01  5.2270014532620868e-01  4.6877611236555256e-01  4.1374297357960732e-01  3.6096457890417238e-01  3.1335332420399603e-01  2.7307881237899001e-01  2.4189536231699849e-01  2.2111242719872817e-01  2.1152231856513171e-01  2.1348612061347752e-01  2.2655297685770867e-01  2.4923291437687090e-01  2.7962346140822775e-01  3.1593640604166362e-01  3.5622634317832014e-01  3.9855395194860321e-01  4.4112450342971693e-01  4.8214746075702047e-01  5.2049879901722951e-01  5.5673446797515391e-01  5.9278637139480694e-01  6.2931757961516344e-01  6.6634336437460562e-01  7.0412880622716389e-01  7.4286704920000979e-01  7.8281801764064107e-01  8.2409431957894674e-01  8.6476765802345512e-01  9.0009117874680378e-01  9.2656076707714419e-01  9.4508394281316876e-01  9.5750581794619705e-01  9.6406052088497762e-01  9.6470273553318064e-01  9.5815727851015842e-01  9.3904799600425204e-01  8.9341566699332908e-01  7.9213162970073581e-01  6.0007839245433403e-01  3.5785714148207382e-01  1.7346883319171580e-01  7.9655542376642283e-02  3.8541874520833450e-02  1.9046386518873446e-02  9.4928190657022245e-03  5.0576323942463008e-03  2.8923253814578708e-03  1.6707070710814751e-03  9.7192964022077880e-04  5.9163406560920411e-04  3.7174670506503349e-04  2.3765746057271390e-04  1.5672073291764680e-04  1.0628725594219133e-04  7.3800264168042562e-05  5.2556508096495829e-05  3.8273581159615167e-05  2.8445336879190169e-05  2.1538291293898964e-05  1.6576709226683115e-05  1.2943795793634727e-05  1.0234995280907942e-05  8.1818033622488730e-06  6.6023247765273250e-06  5.3709983658412721e-06  4.3997003189313264e-06  3.6254849889423174e-06  3.0026891363073036e-06  2.4976685875206931e-06  2.0852837483942393e-06  1.7464974137269867e-06  1.4667101091897494e-06  1.2345994056553842e-06  1.0412880118947555e-06  8.7975056569167796e-07  7.4437745048306497e-07  6.3065499267899808e-07  5.3492538305311926e-07  4.5420753085656586e-07  3.8605723395617094e-07  3.2846379006816122e-07  2.7976390454562182e-07  2.3858090771406478e-07  2.0376956141063337e-07  1.7437829125403791e-07  1.4961403484308296e-07  1.2881742490437502e-07  1.1144044811846118e-07  9.7030007903516057e-08  8.5212994381995383e-08  7.5686670068254129e-08  6.8207751869059875e-08  6.2586790354799638e-08  5.8680638430848243e-08  5.6390241373864697e-08  5.5656906971305462e-08  1.4439960697684825e-01  1.4291705408080174e-01  1.3057656261068568e-01  1.1331948672238519e-01  9.2805004797001392e-02  7.2960388356692857e-02  5.5893341926590484e-02  4.2474334632238049e-02  3.2785578370917876e-02  2.6363478955988683e-02  2.2492180248013277e-02  2.0475299703886722e-02  1.9738034804019176e-02  1.9876924299846725e-02  2.0679270968626005e-02  2.2099629585213186e-02  2.4239928820251080e-02  2.7318741552405955e-02  3.1612442154796222e-02  3.7378028556940709e-02  4.4802472861295461e-02  5.3961016208512361e-02  6.4745263825485011e-02  7.6958302990458791e-02  9.0707998192861725e-02  1.0681365508134041e-01  1.2622575533015054e-01  1.4985797730050998e-01  1.7915605032572993e-01  2.1631665163089972e-01  2.6472462194260421e-01  3.3051973086227993e-01  4.2135015157268974e-01  5.3983794522179485e-01  6.7259550750577479e-01  7.8958405069474569e-01  8.6879893860349489e-01  9.1421808355935774e-01  9.3852790503597960e-01  9.4884914696822231e-01  9.4850967757636695e-01  9.3674230469631470e-01  9.0706530866284385e-01  8.4458034091219614e-01  7.2046490795187024e-01  5.2263739383179175e-01  3.0790144523641755e-01  1.5242114941963361e-01  7.1881489073256935e-02  3.6183309019440821e-02  1.8795958234908584e-02  9.4298608288419256e-03  4.7928787583240073e-03  2.6328928488321191e-03  1.4761309341078666e-03  8.2790004844260736e-04  4.8879393873097182e-04  2.9921846672167202e-04  1.8772321700911637e-04  1.2253266061702507e-04  8.2495437759465357e-05  5.7181775900539538e-05  4.0785687124218428e-05  2.9801544097587407e-05  2.2262556467261818e-05  1.6951999019844901e-05  1.3124246421753010e-05  1.0307402183726465e-05  8.1948572299302639e-06  6.5838610740015109e-06  5.3369221694003450e-06  4.3590962654878865e-06  3.5834726026626428e-06  2.9620695741039389e-06  2.4598817497903831e-06  2.0509736542484558e-06  1.7158454464574580e-06  1.4396367863624843e-06  1.2108858477434094e-06  1.0206488416732030e-06  8.6187718068723031e-07  7.2896391818304319e-07  6.1741244920425073e-07  5.2359045082420682e-07  4.4454552472715011e-07  3.7786350596357714e-07  3.2156378470649826e-07  2.7401224568453211e-07  2.3385952540630095e-07  1.9998652135732401e-07  1.7146583818289387e-07  1.4752749264074057e-07  1.2753425727565228e-07  1.1095941874477357e-07  9.7371483713596509e-08  8.6418641716000215e-08  7.7820970203250707e-08  7.1358351337874930e-08  6.6867686550048319e-08  6.4234800228910622e-08  6.3395017170374366e-08  1.5403865804873025e-02  1.1533000982671108e-02  1.1687989185739604e-02  1.1408195604816790e-02  1.1248025150781110e-02  1.1340075681648359e-02  1.1336807890236620e-02  1.1109558673796413e-02  1.0610747009682793e-02  9.8836343195331695e-03  9.0373995155332287e-03  8.2029118012581451e-03  7.5021099438682291e-03  7.0329475426610171e-03  6.8587688141043702e-03  7.0039528101676681e-03  7.4500597876718377e-03  8.1401015707233213e-03  8.9987708114447913e-03  9.9505506763550057e-03  1.0928630191329326e-02  1.1883825801917880e-02  1.2798678054002980e-02  1.3705044674669748e-02  1.4689406033287600e-02  1.5859486749637244e-02  1.7345255438430580e-02  1.9386181529105959e-02  2.2410055614837845e-02  2.7173314816090619e-02  3.5120858411491193e-02  4.9159741130467199e-02  7.5287762958205190e-02  1.2562683799742949e-01  2.2095284344653948e-01  3.8061602255415056e-01  5.8607496232725431e-01  7.6635618609101264e-01  8.7399946936667749e-01  9.2609712209025763e-01  9.4865854913684633e-01  9.5571415795801928e-01  9.5263691164551967e-01  9.3871886519044445e-01  9.0853011751117807e-01  8.4858952756362904e-01  7.3333576642434839e-01  5.5200915974496112e-01  3.4625261665329699e-01  1.8188653792360135e-01  8.5791101680376930e-02  4.0888429509643297e-02  2.0444517166787708e-02  9.8489029010542257e-03  4.6528718361126872e-03  2.3880528120600346e-03  1.2663146466855592e-03  6.8095110919293308e-04  3.9166663263559689e-04  2.3392670519273398e-04  1.4529924412103935e-04  9.4526280668311098e-05  6.3608072282755754e-05  4.4326044746012236e-05  3.1811107567434083e-05  2.3423073650154337e-05  1.7637085419533714e-05  1.3533609306629554e-05  1.0554362484733311e-05  8.3442015243608721e-06  6.6737129518455373e-06  5.3901300071301750e-06  4.3895935536482734e-06  3.5998829195605728e-06  2.9697923110726302e-06  2.4623246192927907e-06  2.0502976106488345e-06  1.7134200681586608e-06  1.4363258029171890e-06  1.2072274000336816e-06  1.0169714362548300e-06  8.5837471094855426e-07  7.2574559361207892e-07  6.1453480463386339e-07  5.2107960308449915e-07  4.4241164239321644e-07  3.7611076559543353e-07  3.2019673706411371e-07  2.7304036644392152e-07  2.3329994615292732e-07  1.9986628664636055e-07  1.7182352084468616e-07  1.4841441653819732e-07  1.2901647186855985e-07  1.1311885418128946e-07  1.0030823133334304e-07  9.0253181642997880e-08  8.2696916693535214e-08  7.7445970728135026e-08  7.4369368938277329e-08  7.3390908633126723e-08  3.0037820676971929e-03  3.9957882750875735e-03  4.2101070539140176e-03  3.6257152168830266e-03  3.0755850636564656e-03  2.4084452009854843e-03  1.7507286925831796e-03  1.2100728379201137e-03  8.2109550226850401e-04  5.8892697661509471e-04  4.9013166867506387e-04  4.8755484269544838e-04  5.4316397461820834e-04  6.2458333158303323e-04  7.0833577058315711e-04  7.8129547062695569e-04  8.4113113822828923e-04  8.9661251269252317e-04  9.6486898105964695e-04  1.0660054723007004e-03  1.2194366838129058e-03  1.4421426697166322e-03  1.7466919853761926e-03  2.1398956574801981e-03  2.6261557832791519e-03  3.2219328163987206e-03  3.9683970395279272e-03  4.9267604953445853e-03  6.1849468361093269e-03  7.8945656205310494e-03  1.0334044227594574e-02  1.4055992257522337e-02  2.0242121172166717e-02  3.1578147163535054e-02  5.4807389839994829e-02  1.0832659698997835e-01  2.3520219161489353e-01  4.7080669287314253e-01  7.2914538619608360e-01  8.7903843369460510e-01  9.3983419710391991e-01  9.6246634653300123e-01  9.6985843892529489e-01  9.6963214587196844e-01  9.6310193213896567e-01  9.4812454090742015e-01  9.2018616058427849e-01  8.6913756027723099e-01  7.7426930627867330e-01  6.1971618871894318e-01  4.2335147852373767e-01  2.3698138285156858e-01  1.0941441312382680e-01  4.6843839484008012e-02  2.1043538951027056e-02  9.3034152411618238e-03  4.0758204499040784e-03  1.9774883771408714e-03  9.9147214145249183e-04  5.2083311469341704e-04  2.9580182106459906e-04  1.7469524645978912e-04  1.0928694177466693e-04  7.1465376576070248e-05  4.8610445229265115e-05  3.4273031873319002e-05  2.4878894042689776e-05  1.8529132698100018e-05  1.4095974464355075e-05  1.0918443828911065e-05  8.5856460584776169e-06  6.8373397358073677e-06  5.5032662304178007e-06  4.4692823716617439e-06  3.6569992662771005e-06  3.0114121500428293e-06  2.4931357148370677e-06  2.0734563062151991e-06  1.7310829297718139e-06  1.4499872756817664e-06  1.2179369277964022e-06  1.0254769758986759e-06  8.6521725351564264e-07  7.3132423527095570e-07  6.1915104921165662e-07  5.2496823166395949e-07  4.4576214017887972e-07  3.7908291927583467e-07  3.2293126490828886e-07  2.7566710717054116e-07  2.3594400300639880e-07  2.0265249411507639e-07  1.7488099358950300e-07  1.5187981088738582e-07  1.3303784117690504e-07  1.1785913854626012e-07  1.0594932999418882e-07  9.6999933672445881e-08  9.0783404506926623e-08  8.7141566014683741e-08  8.5986292157541167e-08  8.2946984462970591e-04  6.5033795941251999e-04  4.0262008227324553e-04  3.9406257300389047e-04  4.5924293499763493e-04  5.1159389256635835e-04  5.8737246678607915e-04  6.5090965800971440e-04  6.8809993733592910e-04  6.9659112119615553e-04  6.7998173596051147e-04  6.4733250198986236e-04  6.0920153151691216e-04  5.7523880026482191e-04  5.5299936689449231e-04  5.4731605833537565e-04  5.6005352571649836e-04  5.9002710028578447e-04  6.3340209776209587e-04  6.8501589079594219e-04  7.3981183283705566e-04  7.93738577466