<?xml version="1.0"?>
<VTKFile type="UnstructuredGrid"  version="0.1"  >
<UnstructuredGrid>
<Piece  NumberOfPoints="5151" NumberOfCells="10000">
<Points>
<DataArray  type="Float64"  NumberOfComponents="3"  format="ascii">0 0 0  0.01 0 0  0.02 0 0  0.03 0 0  0.04 0 0  0.05 0 0  0.06 0 0  0.07000000000000001 0 0  0.08 0 0  0.09 0 0  0.1 0 0  0.11 0 0  0.12 0 0  0.13 0 0  0.14 0 0  0.15 0 0  0.16 0 0  0.17 0 0  0.18 0 0  0.19 0 0  0.2 0 0  0.21 0 0  0.22 0 0  0.23 0 0  0.24 0 0  0.25 0 0  0.26 0 0  0.27 0 0  0.28 0 0  0.29 0 0  0.3 0 0  0.31 0 0  0.32 0 0  0.33 0 0  0.34 0 0  0.35 0 0  0.36 0 0  0.37 0 0  0.38 0 0  0.39 0 0  0.4 0 0  0.41 0 0  0.42 0 0  0.43 0 0  0.44 0 0  0.45 0 0  0.46 0 0  0.47 0 0  0.48 0 0  0.49 0 0  0.5 0 0  0.51 0 0  0.52 0 0  0.53 0 0  0.54 0 0  0.55 0 0  0.5600000000000001 0 0  0.57 0 0  0.58 0 0  0.59 0 0  0.6 0 0  0.61 0 0  0.62 0 0  0.63 0 0  0.64 0 0  0.65 0 0  0.66 0 0  0.67 0 0  0.68 0 0  0.6899999999999999 0 0  0.7 0 0  0.71 0 0  0.72 0 0  0.73 0 0  0.74 0 0  0.75 0 0  0.76 0 0  0.77 0 0  0.78 0 0  0.79 0 0  0.8 0 0  0.8100000000000001 0 0  0.82 0 0  0.83 0 0  0.84 0 0  0.85 0 0  0.86 0 0  0.87 0 0  0.88 0 0  0.89 0 0  0.9 0 0  0.91 0 0  0.92 0 0  0.93 0 0  0.9399999999999999 0 0  0.95 0 0  0.96 0 0  0.97 0 0  0.98 0 0  0.99 0 0  1 0 0  0 0.01 0  0.01 0.01 0  0.02 0.01 0  0.03 0.01 0  0.04 0.01 0  0.05 0.01 0  0.06 0.01 0  0.07000000000000001 0.01 0  0.08 0.01 0  0.09 0.01 0  0.1 0.01 0  0.11 0.01 0  0.12 0.01 0  0.13 0.01 0  0.14 0.01 0  0.15 0.01 0  0.16 0.01 0  0.17 0.01 0  0.18 0.01 0  0.19 0.01 0  0.2 0.01 0  0.21 0.01 0  0.22 0.01 0  0.23 0.01 0  0.24 0.01 0  0.25 0.01 0  0.26 0.01 0  0.27 0.01 0  0.28 0.01 0  0.29 0.01 0  0.3 0.01 0  0.31 0.01 0  0.32 0.01 0  0.33 0.01 0  0.34 0.01 0  0.35 0.01 0  0.36 0.01 0  0.37 0.01 0  0.38 0.01 0  0.39 0.01 0  0.4 0.01 0  0.41 0.01 0  0.42 0.01 0  0.43 0.01 0  0.44 0.01 0  0.45 0.01 0  0.46 0.01 0  0.47 0.01 0  0.48 0.01 0  0.49 0.01 0  0.5 0.01 0  0.51 0.01 0  0.52 0.01 0  0.53 0.01 0  0.54 0.01 0  0.55 0.01 0  0.5600000000000001 0.01 0  0.57 0.01 0  0.58 0.01 0  0.59 0.01 0  0.6 0.01 0  0.61 0.01 0  0.62 0.01 0  0.63 0.01 0  0.64 0.01 0  0.65 0.01 0  0.66 0.01 0  0.67 0.01 0  0.68 0.01 0  0.6899999999999999 0.01 0  0.7 0.01 0  0.71 0.01 0  0.72 0.01 0  0.73 0.01 0  0.74 0.01 0  0.75 0.01 0  0.76 0.01 0  0.77 0.01 0  0.78 0.01 0  0.79 0.01 0  0.8 0.01 0  0.8100000000000001 0.01 0  0.82 0.01 0  0.83 0.01 0  0.84 0.01 0  0.85 0.01 0  0.86 0.01 0  0.87 0.01 0  0.88 0.01 0  0.89 0.01 0  0.9 0.01 0  0.91 0.01 0  0.92 0.01 0  0.93 0.01 0  0.9399999999999999 0.01 0  0.95 0.01 0  0.96 0.01 0  0.97 0.01 0  0.98 0.01 0  0.99 0.01 0  1 0.01 0  0 0.02 0  0.01 0.02 0  0.02 0.02 0  0.03 0.02 0  0.04 0.02 0  0.05 0.02 0  0.06 0.02 0  0.07000000000000001 0.02 0  0.08 0.02 0  0.09 0.02 0  0.1 0.02 0  0.11 0.02 0  0.12 0.02 0  0.13 0.02 0  0.14 0.02 0  0.15 0.02 0  0.16 0.02 0  0.17 0.02 0  0.18 0.02 0  0.19 0.02 0  0.2 0.02 0  0.21 0.02 0  0.22 0.02 0  0.23 0.02 0  0.24 0.02 0  0.25 0.02 0  0.26 0.02 0  0.27 0.02 0  0.28 0.02 0  0.29 0.02 0  0.3 0.02 0  0.31 0.02 0  0.32 0.02 0  0.33 0.02 0  0.34 0.02 0  0.35 0.02 0  0.36 0.02 0  0.37 0.02 0  0.38 0.02 0  0.39 0.02 0  0.4 0.02 0  0.41 0.02 0  0.42 0.02 0  0.43 0.02 0  0.44 0.02 0  0.45 0.02 0  0.46 0.02 0  0.47 0.02 0  0.48 0.02 0  0.49 0.02 0  0.5 0.02 0  0.51 0.02 0  0.52 0.02 0  0.53 0.02 0  0.54 0.02 0  0.55 0.02 0  0.5600000000000001 0.02 0  0.57 0.02 0  0.58 0.02 0  0.59 0.02 0  0.6 0.02 0  0.61 0.02 0  0.62 0.02 0  0.63 0.02 0  0.64 0.02 0  0.65 0.02 0  0.66 0.02 0  0.67 0.02 0  0.68 0.02 0  0.6899999999999999 0.02 0  0.7 0.02 0  0.71 0.02 0  0.72 0.02 0  0.73 0.02 0  0.74 0.02 0  0.75 0.02 0  0.76 0.02 0  0.77 0.02 0  0.78 0.02 0  0.79 0.02 0  0.8 0.02 0  0.8100000000000001 0.02 0  0.82 0.02 0  0.83 0.02 0  0.84 0.02 0  0.85 0.02 0  0.86 0.02 0  0.87 0.02 0  0.88 0.02 0  0.89 0.02 0  0.9 0.02 0  0.91 0.02 0  0.92 0.02 0  0.93 0.02 0  0.9399999999999999 0.02 0  0.95 0.02 0  0.96 0.02 0  0.97 0.02 0  0.98 0.02 0  0.99 0.02 0  1 0.02 0  0 0.03 0  0.01 0.03 0  0.02 0.03 0  0.03 0.03 0  0.04 0.03 0  0.05 0.03 0  0.06 0.03 0  0.07000000000000001 0.03 0  0.08 0.03 0  0.09 0.03 0  0.1 0.03 0  0.11 0.03 0  0.12 0.03 0  0.13 0.03 0  0.14 0.03 0  0.15 0.03 0  0.16 0.03 0  0.17 0.03 0  0.18 0.03 0  0.19 0.03 0  0.2 0.03 0  0.21 0.03 0  0.22 0.03 0  0.23 0.03 0  0.24 0.03 0  0.25 0.03 0  0.26 0.03 0  0.27 0.03 0  0.28 0.03 0  0.29 0.03 0  0.3 0.03 0  0.31 0.03 0  0.32 0.03 0  0.33 0.03 0  0.34 0.03 0  0.35 0.03 0  0.36 0.03 0  0.37 0.03 0  0.38 0.03 0  0.39 0.03 0  0.4 0.03 0  0.41 0.03 0  0.42 0.03 0  0.43 0.03 0  0.44 0.03 0  0.45 0.03 0  0.46 0.03 0  0.47 0.03 0  0.48 0.03 0  0.49 0.03 0  0.5 0.03 0  0.51 0.03 0  0.52 0.03 0  0.53 0.03 0  0.54 0.03 0  0.55 0.03 0  0.5600000000000001 0.03 0  0.57 0.03 0  0.58 0.03 0  0.59 0.03 0  0.6 0.03 0  0.61 0.03 0  0.62 0.03 0  0.63 0.03 0  0.64 0.03 0  0.65 0.03 0  0.66 0.03 0  0.67 0.03 0  0.68 0.03 0  0.6899999999999999 0.03 0  0.7 0.03 0  0.71 0.03 0  0.72 0.03 0  0.73 0.03 0  0.74 0.03 0  0.75 0.03 0  0.76 0.03 0  0.77 0.03 0  0.78 0.03 0  0.79 0.03 0  0.8 0.03 0  0.8100000000000001 0.03 0  0.82 0.03 0  0.83 0.03 0  0.84 0.03 0  0.85 0.03 0  0.86 0.03 0  0.87 0.03 0  0.88 0.03 0  0.89 0.03 0  0.9 0.03 0  0.91 0.03 0  0.92 0.03 0  0.93 0.03 0  0.9399999999999999 0.03 0  0.95 0.03 0  0.96 0.03 0  0.97 0.03 0  0.98 0.03 0  0.99 0.03 0  1 0.03 0  0 0.04 0  0.01 0.04 0  0.02 0.04 0  0.03 0.04 0  0.04 0.04 0  0.05 0.04 0  0.06 0.04 0  0.07000000000000001 0.04 0  0.08 0.04 0  0.09 0.04 0  0.1 0.04 0  0.11 0.04 0  0.12 0.04 0  0.13 0.04 0  0.14 0.04 0  0.15 0.04 0  0.16 0.04 0  0.17 0.04 0  0.18 0.04 0  0.19 0.04 0  0.2 0.04 0  0.21 0.04 0  0.22 0.04 0  0.23 0.04 0  0.24 0.04 0  0.25 0.04 0  0.26 0.04 0  0.27 0.04 0  0.28 0.04 0  0.29 0.04 0  0.3 0.04 0  0.31 0.04 0  0.32 0.04 0  0.33 0.04 0  0.34 0.04 0  0.35 0.04 0  0.36 0.04 0  0.37 0.04 0  0.38 0.04 0  0.39 0.04 0  0.4 0.04 0  0.41 0.04 0  0.42 0.04 0  0.43 0.04 0  0.44 0.04 0  0.45 0.04 0  0.46 0.04 0  0.47 0.04 0  0.48 0.04 0  0.49 0.04 0  0.5 0.04 0  0.51 0.04 0  0.52 0.04 0  0.53 0.04 0  0.54 0.04 0  0.55 0.04 0  0.5600000000000001 0.04 0  0.57 0.04 0  0.58 0.04 0  0.59 0.04 0  0.6 0.04 0  0.61 0.04 0  0.62 0.04 0  0.63 0.04 0  0.64 0.04 0  0.65 0.04 0  0.66 0.04 0  0.67 0.04 0  0.68 0.04 0  0.6899999999999999 0.04 0  0.7 0.04 0  0.71 0.04 0  0.72 0.04 0  0.73 0.04 0  0.74 0.04 0  0.75 0.04 0  0.76 0.04 0  0.77 0.04 0  0.78 0.04 0  0.79 0.04 0  0.8 0.04 0  0.8100000000000001 0.04 0  0.82 0.04 0  0.83 0.04 0  0.84 0.04 0  0.85 0.04 0  0.86 0.04 0  0.87 0.04 0  0.88 0.04 0  0.89 0.04 0  0.9 0.04 0  0.91 0.04 0  0.92 0.04 0  0.93 0.04 0  0.9399999999999999 0.04 0  0.95 0.04 0  0.96 0.04 0  0.97 0.04 0  0.98 0.04 0  0.99 0.04 0  1 0.04 0  0 0.05 0  0.01 0.05 0  0.02 0.05 0  0.03 0.05 0  0.04 0.05 0  0.05 0.05 0  0.06 0.05 0  0.07000000000000001 0.05 0  0.08 0.05 0  0.09 0.05 0  0.1 0.05 0  0.11 0.05 0  0.12 0.05 0  0.13 0.05 0  0.14 0.05 0  0.15 0.05 0  0.16 0.05 0  0.17 0.05 0  0.18 0.05 0  0.19 0.05 0  0.2 0.05 0  0.21 0.05 0  0.22 0.05 0  0.23 0.05 0  0.24 0.05 0  0.25 0.05 0  0.26 0.05 0  0.27 0.05 0  0.28 0.05 0  0.29 0.05 0  0.3 0.05 0  0.31 0.05 0  0.32 0.05 0  0.33 0.05 0  0.34 0.05 0  0.35 0.05 0  0.36 0.05 0  0.37 0.05 0  0.38 0.05 0  0.39 0.05 0  0.4 0.05 0  0.41 0.05 0  0.42 0.05 0  0.43 0.05 0  0.44 0.05 0  0.45 0.05 0  0.46 0.05 0  0.47 0.05 0  0.48 0.05 0  0.49 0.05 0  0.5 0.05 0  0.51 0.05 0  0.52 0.05 0  0.53 0.05 0  0.54 0.05 0  0.55 0.05 0  0.5600000000000001 0.05 0  0.57 0.05 0  0.58 0.05 0  0.59 0.05 0  0.6 0.05 0  0.61 0.05 0  0.62 0.05 0  0.63 0.05 0  0.64 0.05 0  0.65 0.05 0  0.66 0.05 0  0.67 0.05 0  0.68 0.05 0  0.6899999999999999 0.05 0  0.7 0.05 0  0.71 0.05 0  0.72 0.05 0  0.73 0.05 0  0.74 0.05 0  0.75 0.05 0  0.76 0.05 0  0.77 0.05 0  0.78 0.05 0  0.79 0.05 0  0.8 0.05 0  0.8100000000000001 0.05 0  0.82 0.05 0  0.83 0.05 0  0.84 0.05 0  0.85 0.05 0  0.86 0.05 0  0.87 0.05 0  0.88 0.05 0  0.89 0.05 0  0.9 0.05 0  0.91 0.05 0  0.92 0.05 0  0.93 0.05 0  0.9399999999999999 0.05 0  0.95 0.05 0  0.96 0.05 0  0.97 0.05 0  0.98 0.05 0  0.99 0.05 0  1 0.05 0  0 0.06 0  0.01 0.06 0  0.02 0.06 0  0.03 0.06 0  0.04 0.06 0  0.05 0.06 0  0.06 0.06 0  0.07000000000000001 0.06 0  0.08 0.06 0  0.09 0.06 0  0.1 0.06 0  0.11 0.06 0  0.12 0.06 0  0.13 0.06 0  0.14 0.06 0  0.15 0.06 0  0.16 0.06 0  0.17 0.06 0  0.18 0.06 0  0.19 0.06 0  0.2 0.06 0  0.21 0.06 0  0.22 0.06 0  0.23 0.06 0  0.24 0.06 0  0.25 0.06 0  0.26 0.06 0  0.27 0.06 0  0.28 0.06 0  0.29 0.06 0  0.3 0.06 0  0.31 0.06 0  0.32 0.06 0  0.33 0.06 0  0.34 0.06 0  0.35 0.06 0  0.36 0.06 0  0.37 0.06 0  0.38 0.06 0  0.39 0.06 0  0.4 0.06 0  0.41 0.06 0  0.42 0.06 0  0.43 0.06 0  0.44 0.06 0  0.45 0.06 0  0.46 0.06 0  0.47 0.06 0  0.48 0.06 0  0.49 0.06 0  0.5 0.06 0  0.51 0.06 0  0.52 0.06 0  0.53 0.06 0  0.54 0.06 0  0.55 0.06 0  0.5600000000000001 0.06 0  0.57 0.06 0  0.58 0.06 0  0.59 0.06 0  0.6 0.06 0  0.61 0.06 0  0.62 0.06 0  0.63 0.06 0  0.64 0.06 0  0.65 0.06 0  0.66 0.06 0  0.67 0.06 0  0.68 0.06 0  0.6899999999999999 0.06 0  0.7 0.06 0  0.71 0.06 0  0.72 0.06 0  0.73 0.06 0  0.74 0.06 0  0.75 0.06 0  0.76 0.06 0  0.77 0.06 0  0.78 0.06 0  0.79 0.06 0  0.8 0.06 0  0.8100000000000001 0.06 0  0.82 0.06 0  0.83 0.06 0  0.84 0.06 0  0.85 0.06 0  0.86 0.06 0  0.87 0.06 0  0.88 0.06 0  0.89 0.06 0  0.9 0.06 0  0.91 0.06 0  0.92 0.06 0  0.93 0.06 0  0.9399999999999999 0.06 0  0.95 0.06 0  0.96 0.06 0  0.97 0.06 0  0.98 0.06 0  0.99 0.06 0  1 0.06 0  0 0.07000000000000001 0  0.01 0.07000000000000001 0  0.02 0.07000000000000001 0  0.03 0.07000000000000001 0  0.04 0.07000000000000001 0  0.05 0.07000000000000001 0  0.06 0.07000000000000001 0  0.07000000000000001 0.07000000000000001 0  0.08 0.07000000000000001 0  0.09 0.07000000000000001 0  0.1 0.07000000000000001 0  0.11 0.07000000000000001 0  0.12 0.07000000000000001 0  0.13 0.07000000000000001 0  0.14 0.07000000000000001 0  0.15 0.07000000000000001 0  0.16 0.07000000000000001 0  0.17 0.07000
[...]
<PointData  Scalars="rho_bar"> 
<DataArray  type="Float64"  Name="rho_bar"  format="ascii">9.9549294208138406e-01  9.9744766586901223e-01  9.9638538627250894e-01  9.9668180656473282e-01  9.9716844409546923e-01  9.9818857695148022e-01  9.9946937841059269e-01  1.0006792149735626e+00  1.0015136836124952e+00  1.0018067629887839e+00  1.0015218734985227e+00  1.0007127065598909e+00  9.9953728635852179e-01  9.9829208565530025e-01  9.9732657131232427e-01  9.9685466364992392e-01  9.9687064036881079e-01  9.9723060632833238e-01  9.9776688690955717e-01  9.9834960372942161e-01  9.9890126951118219e-01  9.9938937599629618e-01  9.9981109690044367e-01  1.0001726492952356e+00  1.0004746816515162e+00  1.0007120214144265e+00  1.0008736071369397e+00  1.0009367465199444e+00  1.0008655970226916e+00  1.0006211470924902e+00  1.0002391233264236e+00  9.9992279212510360e-01  9.9986477714061428e-01  9.9996465864672446e-01  1.0000275440385362e+00  9.9997562261634676e-01  9.9987496280061305e-01  1.0018432921246743e+00  9.8687670118440707e-01  1.0591451216510430e+00  6.6794596432495235e-01  1.3115941920757787e-02  4.0111301411107759e-05  7.4938898104751246e-04  -7.0638799893063783e-05  -3.3211921954690195e-05  -1.1284074421339797e-05  1.5103383120288215e-05  5.0106268634617817e-06  -1.7179727606871320e-06  -1.4118302738165779e-06  2.8704028458863330e-07  2.4734383028809127e-07  -8.5302186245961154e-08  -2.2293144501071806e-08  2.0977359098535239e-08  -3.3232491503662394e-09  -1.8831451475495628e-09  1.4104403139637431e-09  -3.1215419365715523e-10  -1.9180564244205435e-11  7.8563161803096312e-11  -2.3081543054207974e-11  1.3397188350131120e-11  3.6984551303063467e-12  2.1680347298532685e-12  2.7898448678582112e-12  1.5351110076718866e-12  1.4265895689368796e-12  1.0647122560411202e-12  8.6432529321077419e-13  6.9717766886015874e-13  5.6635666421442382e-13  4.6459000141870799e-13  3.8252815416992443e-13  3.1681353730431333e-13  2.6335116172882180e-13  2.1974868473266880e-13  1.8387833787634668e-13  1.5424355324087904e-13  1.2968176623995501e-13  1.0926022040663546e-13  9.2170703864597490e-14  7.7870217048308345e-14  6.5887410035841557e-14  5.5817943917688966e-14  4.7349044042494413e-14  4.0229576117107540e-14  3.4210314360517026e-14  2.9186693246444547e-14  2.4934636797422674e-14  2.1415817071281100e-14  1.8469767667457979e-14  1.6030610636850021e-14  1.4037158673655242e-14  1.2434412473999988e-14  1.1218540478482865e-14  1.0266247756539496e-14  9.6246882741192985e-15  9.2410959099484592e-15  9.1495201834528083e-15  1.0108653365279128e+00  1.0046325751766738e+00  1.0067239379250026e+00  1.0066396575996328e+00  1.0060421052262352e+00  1.0044046475412611e+00  1.0019363061946860e+00  9.9923752288864409e-01  9.9700030756529778e-01  9.9572282697419123e-01  9.9562306105062282e-01  9.9670319574836441e-01  9.9877727561389040e-01  1.0013850206629196e+00  1.0038101246443678e+00  1.0054125438329888e+00  1.0059693318556608e+00  1.0056542172950236e+00  1.0048000978199045e+00  1.0037155534137197e+00  1.0026118257966801e+00  1.0016001525502156e+00  1.0007147619434338e+00  9.9994914745095698e-01  9.9929673604353886e-01  9.9876480447106442e-01  9.9836897793559620e-01  9.9814221090976862e-01  9.9814404298753912e-01  9.9845394101840734e-01  9.9910993092118594e-01  9.9988493395594602e-01  1.0002822137358021e+00  1.0001692869576977e+00  9.9998094803428361e-01  9.9995563757891437e-01  1.0001502980381847e+00  9.9927634948141186e-01  1.0016106131992133e+00  1.0037138858683929e+00  8.2571588048541578e-01  2.5511442045048440e-03  1.1017318287500100e-02  -9.9230158363841875e-04  -1.1884583205962105e-04  9.1506011950544600e-05  6.7411625887194132e-05  -2.0722758464717382e-05  -2.0469199232640914e-05  -9.5060090281383661e-07  4.4141246256196669e-06  5.8039274795161942e-07  -8.4027188331199897e-07  6.2546523519187972e-09  1.4152227420788934e-07  -4.0198847873675180e-08  -8.6897841118607701e-09  9.8077018797663716e-09  -2.7957507203726377e-09  -9.2046271287277055e-11  4.8701672647317241e-10  -2.1275395981498407e-10  6.5073277779142938e-11  4.3027854884223636e-12  -2.1284442038675837e-12  6.9824837427009669e-12  8.9017977135265222e-13  2.2287177391836063e-12  1.3295090601981320e-12  1.1171321026266503e-12  8.9482156014631806e-13  7.1226757262002545e-13  5.8342597251528754e-13  4.7544997646595746e-13  3.9194891972575984e-13  3.2401650306964485e-13  2.6922441719562642e-13  2.2444825864718754e-13  1.8772186133466390e-13  1.5742608446350235e-13  1.3228854007243671e-13  1.1140050069400442e-13  9.3957872854710889e-14  7.9380872170792986e-14  6.7114088283809397e-14  5.6860529902027467e-14  4.8219377293548333e-14  4.0958232857038303e-14  3.4849413074160602e-14  2.9703298036350472e-14  2.5404022147993050e-14  2.1797683382473587e-14  1.8801215197493611e-14  1.6316296184068876e-14  1.4284161712252053e-14  1.2659848424493582e-14  1.1374040388882042e-14  1.0423082133878899e-14  9.7603499620709138e-15  9.3879976685705422e-15  9.2822333478198641e-15  9.6176034364607288e-01  9.8333066720515816e-01  9.7691738852215970e-01  9.7600128628188887e-01  9.7636042272886914e-01  9.8001761060431358e-01  9.8701614854338438e-01  9.9588413652680563e-01  1.0042207352775350e+00  1.0099415784503019e+00  1.0119471805131786e+00  1.0100250889572675e+00  1.0045371621302361e+00  9.9650330131363307e-01  9.8793346962229622e-01  9.8128746858473070e-01  9.7806507475531057e-01  9.7821017223026852e-01  9.8073014000368230e-01  9.8446869570697848e-01  9.8852838059038706e-01  9.9237267451549815e-01  9.9577337932060250e-01  9.9871265328810988e-01  1.0012368612125977e+00  1.0033456299339754e+00  1.0050006879977473e+00  1.0061288427095170e+00  1.0065682486513861e+00  1.0060722713580619e+00  1.0043897169696812e+00  1.0016955966242631e+00  9.9939779905285242e-01  9.9903298568623888e-01  9.9982925879070672e-01  1.0001383039180893e+00  9.9995451715739470e-01  9.9998199007771760e-01  1.0005610675849919e+00  9.9439924114031797e-01  9.7888805232690834e-01  1.9583828457884953e-01  4.5624966407829884e-03  -2.1311965635101978e-03  1.3367172753891486e-03  7.6729119682446181e-05  -4.0202259530154068e-04  -1.5451808610587032e-05  9.2297638603286856e-05  3.3048465909635361e-05  -1.4248076503515614e-05  -8.6074940297130573e-06  2.7307111682623255e-06  1.2147217162045076e-06  -7.0357804333066779e-07  2.0366983711582396e-09  1.1083714254010034e-07  -4.4203453391437553e-08  3.0533882963554230e-09  5.0736255128115721e-09  -2.9447061911781327e-09  8.9203504993007018e-10  -7.3264724221112435e-11  -5.9669397749470464e-11  5.3778770685558937e-11  -1.6782953795728703e-11  8.9722811222048001e-12  6.0259359387593624e-13  1.7315122931739798e-12  1.2757202901999358e-12  9.2649987362064631e-13  7.9981287766555615e-13  6.2152542121664851e-13  5.1564571111679072e-13  4.1998571302925545e-13  3.4730031419813518e-13  2.8759288287998230e-13  2.3937364243456841e-13  1.9984148069061753e-13  1.6732183840563957e-13  1.4043030402965737e-13  1.1813742616399367e-13  9.9554596066302606e-14  8.4035143395983686e-14  7.1017559226374719e-14  6.0130444765589963e-14  5.0964579451819768e-14  4.3265075338010967e-14  3.6784013235117064e-14  3.1360729358215634e-14  2.6793888999054732e-14  2.2986934273864872e-14  1.9815907567329773e-14  1.7211372243370811e-14  1.5044557303131382e-14  1.3348924953198625e-14  1.1976289015720197e-14  1.0988941575269634e-14  1.0267587772150022e-14  9.8821843040373373e-15  9.7353038690960675e-15  1.1172318735553168e+00  1.0599183148445313e+00  1.0745274891405820e+00  1.0799296844088477e+00  1.0805446907022735e+00  1.0699226650350984e+00  1.0444836270450126e+00  1.0064157376177474e+00  9.6380494311411824e-01  9.2706313279446362e-01  9.0487287023602248e-01  9.0208093506161835e-01  9.1923769437639502e-01  9.5283365524170927e-01  9.9481816385787214e-01  1.0337025049843132e+00  1.0599780292968430e+00  1.0708773047264293e+00  1.0691479305765743e+00  1.0595497240040332e+00  1.0464089391735634e+00  1.0326702335977962e+00  1.0199131557329091e+00  1.0086722490477187e+00  9.9889448123682634e-01  9.9052807389912623e-01  9.8370735510824880e-01  9.7863331349022997e-01  9.7573016470366802e-01  9.7579383373157769e-01  9.7979569574464287e-01  9.8823416599802094e-01  9.9859886827301092e-01  1.0039695218263509e+00  1.0020437862650193e+00  9.9956771663255339e-01  9.9978751386770870e-01  1.0001171543875800e+00  9.9966665115859066e-01  9.9924923471539473e-01  1.0020733081251678e+00  7.3644525380259074e-01  2.2714827897285177e-02  1.3593367733301328e-02  -6.0636385036428480e-04  -2.7579692871460624e-03  1.5919616507220878e-03  6.3688770974528104e-04  -2.7256853353469331e-04  -2.5521790554617360e-04  1.0792988942832601e-06  5.6790198173055701e-05  1.4917071529888457e-06  -1.0174388456595354e-05  1.7151675778499924e-06  1.1523641988941872e-06  -6.6788445881796049e-07  9.6663119521605236e-08  5.5037438404979104e-08  -4.0399063396788945e-08  1.3231485854597026e-08  -1.6203885713408629e-09  -7.9471868517300106e-10  6.7742009567654454e-10  -2.8197264655636049e-10  9.5071572894275795e-11  -1.7494723544356347e-11  4.9166845401726224e-12  2.5540839826624667e-12  7.8801106005618899e-13  1.4281026619130098e-12  7.7740987535434465e-13  7.5276932857613599e-13  5.6775268953630997e-13  4.7530952303125173e-13  3.8691367203819476e-13  3.2021989911490308e-13  2.6537964762603923e-13  2.2096886656045766e-13  1.8456574469348808e-13  1.5460984161758363e-13  1.2982873271755304e-13  1.0924131085372474e-13  9.2071783457609092e-14  7.7766997597613554e-14  6.5746785646610013e-14  5.5672473690678470e-14  4.7237350627265791e-14  4.0151434251025289e-14  3.4184362644214192e-14  2.9205078538072007e-14  2.5028726959160428e-14  2.1578991742244028e-14  1.8690484396717712e-14  1.6369828211023836e-14  1.4481447148616040e-14  1.3005324263873885e-14  1.1912242143234469e-14  1.1137365067720424e-14  1.0691503562971333e-14  1.0554334405480785e-14  5.1775915255630267e-01  5.9969500706414314e-01  5.5259903054230319e-01  4.8086078164284118e-01  3.8768572887150315e-01  2.8406773150339876e-01  1.8510285608502197e-01  1.0221180976794457e-01  4.1058156188869530e-02  2.1011859182645848e-03  -1.7837257580648056e-02  -2.2574350603775065e-02  -1.3797722962786720e-02  1.0440064072910238e-02  5.5195325650710635e-02  1.2497146067567372e-01  2.1878329532156215e-01  3.3027475334603429e-01  4.5004339479024708e-01  5.6761787665057839e-01  6.7481667064401052e-01  7.6721924022755539e-01  8.4381098204850469e-01  9.0605466839290949e-01  9.5685578548786987e-01  9.9891940631670351e-01  1.0332072336861613e+00  1.0598414805672502e+00  1.0782826385144173e+00  1.0865318186895183e+00  1.0812778864614052e+00  1.0594844262374679e+00  1.0229945742544062e+00  9.9001680519846380e-01  9.8590777750658043e-01  9.9872951861342996e-01  1.0015835398701940e+00  9.9946934534097553e-01  9.9977767855334054e-01  1.0003442786999006e+00  9.9252302519218583e-01  1.0091722671863768e+00  6.8481651053609693e-01  4.8038935562830329e-02  -1.2216383763291292e-02  1.7888164644797016e-02  -2.2889937929047436e-03  -4.5811740464455535e-03  -9.3382799389632757e-05  1.2825205966298986e-03  3.9851514976148040e-04  -2.2418289414796323e-04  -9.5848447638665767e-05  4.6323297925356772e-05  7.6376762034864662e-06  -9.3891367371732396e-06  2.1420584425609734e-06  5.0937970864143499e-07  -5.4017355480010449e-07  1.9637300299068139e-07  -2.9537434907158259e-08  -9.4820994134458196e-09  9.1076888187328810e-09  -4.0347961805644086e-09  1.2979142129554208e-09  -2.9254295991069076e-10  4.0823847209299299e-11  1.2586169862590496e-11  -6.6446796739234052e-12  6.0299160418190003e-12  -2.2614029492520310e-13  1.5943101617769799e-12  6.9374335093713621e-13  7.2383657157924488e-13  5.4028526301518277e-13  4.5194852326132165e-13  3.6844334133019692e-13  3.0459925580073471e-13  2.5253067159474629e-13  2.1021638526368664e-13  1.7559414387708350e-13  1.4709414105951698e-13  1.2351250594214134e-13  1.0392541306724739e-13  8.7628548680060449e-14  7.3990720806031761e-14  6.2593380379846155e-14  5.3031758140979271e-14  4.5021229225439010e-14  3.8317725276473798e-14  3.2705538334882014e-14  2.7998118475715105e-14  2.4116245455614186e-14  2.0899539368309715e-14  1.8269822661829467e-14  1.6149759236492663e-14  1.4519705113104842e-14  1.3254614009554437e-14  1.2411582646840797e-14  1.1906844845543864e-14  1.1744552709627724e-14  -2.9077821842792902e-02  -9.2842781962108364e-02  -9.8474621270198723e-02  -9.3061167170484224e-02  -8.4052729963844025e-02  -6.8454850160128713e-02  -4.8998598319004626e-02  -2.9508617817817391e-02  -1.3083157486017332e-02  -1.3130767736052149e-03  5.6814033191519260e-03  8.6326905601623594e-03  8.2408706116535637e-03  4.5420120114317815e-03  -3.2268039755328601e-03  -1.5985278560740238e-02  -3.3454256867061223e-02  -5.3501586082744954e-02  -7.2683388774033769e-02  -8.7030448271159980e-02  -9.3019157658451368e-02  -8.8445309265070438e-02  -7.2957491403854713e-02  -4.7992241585810280e-02  -1.5390010074969186e-02  2.4534102336235396e-02  7.2415869712509018e-02  1.2961089601657902e-01  2.0013534525651058e-01  2.9061592048511142e-01  4.0948249126313641e-01  5.6652385351880286e-01  7.5881286194062825e-01  9.5078240161491301e-01  1.0512676314376050e+00  1.0216078288362136e+00  9.9046934368999684e-01  9.9946799019582200e-01  1.0003879008904444e+00  9.9882115554089190e-01  1.0012265948691750e+00  9.9030371046043275e-01  1.0090695805143657e+00  8.9219626750303382e-01  3.1123365310360451e-01  -4.5228390837220599e-02  -1.5141331331392864e-02  2.0655747976619666e-02  7.6637030654412332e-03  -4.0245752065983971e-03  -3.4117811221977862e-03  2.2666870386052842e-04  7.6102372038032906e-04  -6.5327675343143001e-05  -1.1536364284853212e-04  4.1191156482895170e-05  2.5452266342079098e-06  -6.9827325823169308e-06  2.9041037822280219e-06  -5.1675644281970823e-07  -1.0459560751870186e-07  1.2302982446369618e-07  -5.6807737646396862e-08  1.8390193467508407e-08  -4.2880410475177765e-09  5.4921938258751424e-10  1.3249867620642772e-10  -1.2059926978929718e-10  6.2576460914002993e-11  -1.9969016550187055e-11  9.0597806823273444e-12  -8.2918555747192538e-13  1.6471482344869646e-12  6.8024282455428703e-13  7.0071498236433174e-13  5.3116121793827957e-13  4.3952792631982287e-13  3.5974908498154748e-13  2.9664240110695533e-13  2.4604350036979000e-13  2.0468095859479192e-13  1.7093597133434119e-13  1.4314218326695934e-13  1.2018360958705764e-13  1.0110557722795050e-13  8.5247071907534849e-14  7.1998057153342152e-14  6.0944626570625543e-14  5.1663684339086095e-14  4.3924107697734227e-14  3.7442394901805511e-14  3.2042954421042473e-14  2.7561475341852426e-14  2.3851662349302306e-14  2.0840412365432668e-14  1.8420665622549455e-14  1.6516342464293042e-14  1.5088042492325463e-14  1.4099500039163853e-14  1.3540555067101638e-14  1.3333559918752964e-14  -2.8924749102905847e-04  1.7717863434531814e-02  2.7312544320368465e-02  2.6028800208675318e-02  2.4087237002377890e-02  2.0746190852784906e-02  1.5879614432932308e-02  1.0515224953970056e-02  5.6078736084764101e-03  1.7943404107181964e-03  -7.1073903606249896e-04  -2.0176315953063417e-03  -2.3456542166843679e-03  -1.8070235770058023e-03  -2.9555890646426337e-04  2.4530220830819836e-03  6.5664978444999692e-03  1.1728581413708547e-02  1.7177362046242900e-02  2.1904266748960542e-02  2.4894365970807093e-02  2.5384748412921206e-02  2.3059051241003263e-02  1.8126159233619894e-02  1.1137989318800169e-02  2.4955029980585786e-03  -7.7048666090231265e-03  -1.9422723395964188e-02  -3.2813594955606686e-02  -4.8203667816554059e-02  -6.5196334503004535e-02  -8.0647978636457576e-02  -8.1045967887410156e-02  -2.4322732981435426e-02  1.8344115504584660e-01  6.1202028732251945e-01  9.7613236527973146e-01  1.0038522808851447e+00  9.9269323864450343e-01  1.0009894931810326e+00  9.9865876669040066e-01  1.0008246764831215e+00  9.9683559542795130e-01  9.9156238685309028e-01  1.0301839443262850e+00  8.3290592046882528e-01  3.1279325905727035e-01  -2.7476539076508683e-02  -5.4735482693368996e-02  1.5053090272582532e-03  1.8151803309386035e-02  4.6521079029819340e-03  -3.4823073569712976e-03  -9.1124393032585103e-04  7.1084569354951230e-04  -4.7421545237551938e-05  -8.4837616506328506e-05  4.2705955036816813e-05  -8.8757043496565505e-06  -1.0057495756551973e-06  1.6558084835820633e-06  -7.9903154487954733e-07  2.6238707461568150e-07  -6.2008460867166453e-08  8.0127026535772111e-09  1.7048614859109665e-09  -1.7293443830371891e-09  8.3707990957281310e-10  -3.0722111646614512e-10  1.0535766983836032e-10  -2.8009920265428349e-11  1.0085044789632750e-11  -7.5844346475590281e-13  1.5368885283213441e-12  7.3226313279441491e-13  6.7708641538517866e-13  5.3553981308239771e-13  4.3418999808224036e-13  3.5780224460842267e-13  2.9393828857312485e-13  2.4390902185178887e-13  2.0272558882355256e-13  1.6925361989032144e-13  1.4169322134411599e-13  1.1891543193885061e-13  1.0004487378407948e-13  8.4353267363068410e-14  7.1261257808090076e-14  6.0334204431392720e-14  5.1227378181379435e-14  4.3614729031526539e-14  3.7273977059879249e-14  3.2025457624343011e-14  2.7686694936057761e-14  2.4160216228421460e-14  2.1337058073798891e-14  1.9120550499459731e-14  1.7458723655800636e-14  1.6306436947194897e-14  1.5639138442028089e-14  1.5414967146261491e-14  7.7494933643862439e-04  -2.1697185508682548e-03  -6.4406907011219537e-03  -7.3339931310749396e-03  -6.7210238967964310e-03  -6.0609972773787608e-03  -4.9416517419162767e-03  -3.5349881772633184e-03  -2.1319312686638382e-03  -9.4937524280038518e-04  -1.0180569176728853e-04  4.0248127508841369e-04  6.1531872754153917e-04  5.8693323858791677e-04  3.1930666997032720e-04  -2.4338984547814732e-04  -1.1649476973944225e-03  -2.4256870285783126e-03  -3.8771353350511460e-03  -5.2743048617321193e-03  -6.3374455681183550e-03  -6.8203744068245373e-03  -6.5733339394237703e-03  -5.5827997203878425e-03  -3.9629253533596870e-03  -1.8533071756489782e-03  6.8426276362829096e-04  3.6363947786675955e-03  7.0184427797777595e-03  1.0922046372919205e-02  1.5400915662697403e-02  2.0215918826554682e-02  2.3760538895736469e-02  2.0558557105456822e-02  -2.5852683308991041e-03  -5.1378490375381197e-02  1.1794445683687053e-01  7.4929751148008539e-01  1.0081460974319632e+00  9.9294218946735935e-01  1.0002303733296753e+00  9.9955821661130451e-01  9.9951750812928819e-01  1.0020434020735580e+00  9.9152942156813140e-01  9.9559764397217365e-01  1.0432809280868471e+00  9.3526922185422645e-01  5.5842324521929920e-01  1.4866425448292658e-01  -5.0124608105855506e-02  -4.3573297729366404e-02  6.8063373781251527e-03  9.8610065615565949e-03  -2.2208830754154138e-03  -8.8559616816110266e-04  6.2233231102642019e-04  -1.5140402909076550e-04  -6.4472279667059756e-06  2.2146138125730713e-05  -1.1257927665157218e-05  3.7568181528656329e-06  -8.9619601850703408e-07  1.1806109364838441e-07  2.2681273541255387e-08  -2.4195162820075678e-08  1.1629589000333336e-08  -4.3492550080815339e-09  1.4344367236425084e-09  -4.1917909421513039e-10  1.1938683098049849e-10  -2.6951305409977949e-11  8.5700487826465924e-12  1.7600761921713962e-14  1.2600627081765728e-12  8.4336272828916830e-13  6.4927242588803756e-13  5.5030478687114818e-13  4.3357473542368013e-13  3.6057788529972578e-13  2.9493651390905614e-13  2.4481676517953150e-13  2.0328832663439616e-13  1.6966674677996810e-13  1.4196574175211761e-13  1.1915081300632810e-13  1.0021189388934241e-13  8.4519777442688783e-14  7.1430159408681516e-14  6.0545173303846283e-14  5.1468124411101075e-14  4.3936813872512220e-14  3.7703103651072038e-14  3.2562366618317822e-14  2.8397139608442735e-14  2.5027122099262616e-14  2.2404767159294494e-14  2.0435321931570070e-14  1.9085088216835177e-14  1.8283668818199073e-14  1.8033880524123438e-14  -1.7273532621692747e-04  8.1946669463250831e-05  1.1989475012490931e-03  1.9417164737730139e-03  1.9021991277377167e-03  1.7184266950267420e-03  1.4886555635947839e-03  1.1403697080051808e-03  7.5512907220195926e-04  4.0312934884370925e-04  1.2916461277344293e-04  -5.0998211140255584e-05  -1.4514485753402750e-04  -1.6886191699094625e-04  -1.3017664289632