<?xml version="1.0"?>
<VTKFile type="UnstructuredGrid"  version="0.1"  >
<UnstructuredGrid>
<Piece  NumberOfPoints="5151" NumberOfCells="10000">
<Points>
<DataArray  type="Float64"  NumberOfComponents="3"  format="ascii">0 0 0  0.01 0 0  0.02 0 0  0.03 0 0  0.04 0 0  0.05 0 0  0.06 0 0  0.07000000000000001 0 0  0.08 0 0  0.09 0 0  0.1 0 0  0.11 0 0  0.12 0 0  0.13 0 0  0.14 0 0  0.15 0 0  0.16 0 0  0.17 0 0  0.18 0 0  0.19 0 0  0.2 0 0  0.21 0 0  0.22 0 0  0.23 0 0  0.24 0 0  0.25 0 0  0.26 0 0  0.27 0 0  0.28 0 0  0.29 0 0  0.3 0 0  0.31 0 0  0.32 0 0  0.33 0 0  0.34 0 0  0.35 0 0  0.36 0 0  0.37 0 0  0.38 0 0  0.39 0 0  0.4 0 0  0.41 0 0  0.42 0 0  0.43 0 0  0.44 0 0  0.45 0 0  0.46 0 0  0.47 0 0  0.48 0 0  0.49 0 0  0.5 0 0  0.51 0 0  0.52 0 0  0.53 0 0  0.54 0 0  0.55 0 0  0.5600000000000001 0 0  0.57 0 0  0.58 0 0  0.59 0 0  0.6 0 0  0.61 0 0  0.62 0 0  0.63 0 0  0.64 0 0  0.65 0 0  0.66 0 0  0.67 0 0  0.68 0 0  0.6899999999999999 0 0  0.7 0 0  0.71 0 0  0.72 0 0  0.73 0 0  0.74 0 0  0.75 0 0  0.76 0 0  0.77 0 0  0.78 0 0  0.79 0 0  0.8 0 0  0.8100000000000001 0 0  0.82 0 0  0.83 0 0  0.84 0 0  0.85 0 0  0.86 0 0  0.87 0 0  0.88 0 0  0.89 0 0  0.9 0 0  0.91 0 0  0.92 0 0  0.93 0 0  0.9399999999999999 0 0  0.95 0 0  0.96 0 0  0.97 0 0  0.98 0 0  0.99 0 0  1 0 0  0 0.01 0  0.01 0.01 0  0.02 0.01 0  0.03 0.01 0  0.04 0.01 0  0.05 0.01 0  0.06 0.01 0  0.07000000000000001 0.01 0  0.08 0.01 0  0.09 0.01 0  0.1 0.01 0  0.11 0.01 0  0.12 0.01 0  0.13 0.01 0  0.14 0.01 0  0.15 0.01 0  0.16 0.01 0  0.17 0.01 0  0.18 0.01 0  0.19 0.01 0  0.2 0.01 0  0.21 0.01 0  0.22 0.01 0  0.23 0.01 0  0.24 0.01 0  0.25 0.01 0  0.26 0.01 0  0.27 0.01 0  0.28 0.01 0  0.29 0.01 0  0.3 0.01 0  0.31 0.01 0  0.32 0.01 0  0.33 0.01 0  0.34 0.01 0  0.35 0.01 0  0.36 0.01 0  0.37 0.01 0  0.38 0.01 0  0.39 0.01 0  0.4 0.01 0  0.41 0.01 0  0.42 0.01 0  0.43 0.01 0  0.44 0.01 0  0.45 0.01 0  0.46 0.01 0  0.47 0.01 0  0.48 0.01 0  0.49 0.01 0  0.5 0.01 0  0.51 0.01 0  0.52 0.01 0  0.53 0.01 0  0.54 0.01 0  0.55 0.01 0  0.5600000000000001 0.01 0  0.57 0.01 0  0.58 0.01 0  0.59 0.01 0  0.6 0.01 0  0.61 0.01 0  0.62 0.01 0  0.63 0.01 0  0.64 0.01 0  0.65 0.01 0  0.66 0.01 0  0.67 0.01 0  0.68 0.01 0  0.6899999999999999 0.01 0  0.7 0.01 0  0.71 0.01 0  0.72 0.01 0  0.73 0.01 0  0.74 0.01 0  0.75 0.01 0  0.76 0.01 0  0.77 0.01 0  0.78 0.01 0  0.79 0.01 0  0.8 0.01 0  0.8100000000000001 0.01 0  0.82 0.01 0  0.83 0.01 0  0.84 0.01 0  0.85 0.01 0  0.86 0.01 0  0.87 0.01 0  0.88 0.01 0  0.89 0.01 0  0.9 0.01 0  0.91 0.01 0  0.92 0.01 0  0.93 0.01 0  0.9399999999999999 0.01 0  0.95 0.01 0  0.96 0.01 0  0.97 0.01 0  0.98 0.01 0  0.99 0.01 0  1 0.01 0  0 0.02 0  0.01 0.02 0  0.02 0.02 0  0.03 0.02 0  0.04 0.02 0  0.05 0.02 0  0.06 0.02 0  0.07000000000000001 0.02 0  0.08 0.02 0  0.09 0.02 0  0.1 0.02 0  0.11 0.02 0  0.12 0.02 0  0.13 0.02 0  0.14 0.02 0  0.15 0.02 0  0.16 0.02 0  0.17 0.02 0  0.18 0.02 0  0.19 0.02 0  0.2 0.02 0  0.21 0.02 0  0.22 0.02 0  0.23 0.02 0  0.24 0.02 0  0.25 0.02 0  0.26 0.02 0  0.27 0.02 0  0.28 0.02 0  0.29 0.02 0  0.3 0.02 0  0.31 0.02 0  0.32 0.02 0  0.33 0.02 0  0.34 0.02 0  0.35 0.02 0  0.36 0.02 0  0.37 0.02 0  0.38 0.02 0  0.39 0.02 0  0.4 0.02 0  0.41 0.02 0  0.42 0.02 0  0.43 0.02 0  0.44 0.02 0  0.45 0.02 0  0.46 0.02 0  0.47 0.02 0  0.48 0.02 0  0.49 0.02 0  0.5 0.02 0  0.51 0.02 0  0.52 0.02 0  0.53 0.02 0  0.54 0.02 0  0.55 0.02 0  0.5600000000000001 0.02 0  0.57 0.02 0  0.58 0.02 0  0.59 0.02 0  0.6 0.02 0  0.61 0.02 0  0.62 0.02 0  0.63 0.02 0  0.64 0.02 0  0.65 0.02 0  0.66 0.02 0  0.67 0.02 0  0.68 0.02 0  0.6899999999999999 0.02 0  0.7 0.02 0  0.71 0.02 0  0.72 0.02 0  0.73 0.02 0  0.74 0.02 0  0.75 0.02 0  0.76 0.02 0  0.77 0.02 0  0.78 0.02 0  0.79 0.02 0  0.8 0.02 0  0.8100000000000001 0.02 0  0.82 0.02 0  0.83 0.02 0  0.84 0.02 0  0.85 0.02 0  0.86 0.02 0  0.87 0.02 0  0.88 0.02 0  0.89 0.02 0  0.9 0.02 0  0.91 0.02 0  0.92 0.02 0  0.93 0.02 0  0.9399999999999999 0.02 0  0.95 0.02 0  0.96 0.02 0  0.97 0.02 0  0.98 0.02 0  0.99 0.02 0  1 0.02 0  0 0.03 0  0.01 0.03 0  0.02 0.03 0  0.03 0.03 0  0.04 0.03 0  0.05 0.03 0  0.06 0.03 0  0.07000000000000001 0.03 0  0.08 0.03 0  0.09 0.03 0  0.1 0.03 0  0.11 0.03 0  0.12 0.03 0  0.13 0.03 0  0.14 0.03 0  0.15 0.03 0  0.16 0.03 0  0.17 0.03 0  0.18 0.03 0  0.19 0.03 0  0.2 0.03 0  0.21 0.03 0  0.22 0.03 0  0.23 0.03 0  0.24 0.03 0  0.25 0.03 0  0.26 0.03 0  0.27 0.03 0  0.28 0.03 0  0.29 0.03 0  0.3 0.03 0  0.31 0.03 0  0.32 0.03 0  0.33 0.03 0  0.34 0.03 0  0.35 0.03 0  0.36 0.03 0  0.37 0.03 0  0.38 0.03 0  0.39 0.03 0  0.4 0.03 0  0.41 0.03 0  0.42 0.03 0  0.43 0.03 0  0.44 0.03 0  0.45 0.03 0  0.46 0.03 0  0.47 0.03 0  0.48 0.03 0  0.49 0.03 0  0.5 0.03 0  0.51 0.03 0  0.52 0.03 0  0.53 0.03 0  0.54 0.03 0  0.55 0.03 0  0.5600000000000001 0.03 0  0.57 0.03 0  0.58 0.03 0  0.59 0.03 0  0.6 0.03 0  0.61 0.03 0  0.62 0.03 0  0.63 0.03 0  0.64 0.03 0  0.65 0.03 0  0.66 0.03 0  0.67 0.03 0  0.68 0.03 0  0.6899999999999999 0.03 0  0.7 0.03 0  0.71 0.03 0  0.72 0.03 0  0.73 0.03 0  0.74 0.03 0  0.75 0.03 0  0.76 0.03 0  0.77 0.03 0  0.78 0.03 0  0.79 0.03 0  0.8 0.03 0  0.8100000000000001 0.03 0  0.82 0.03 0  0.83 0.03 0  0.84 0.03 0  0.85 0.03 0  0.86 0.03 0  0.87 0.03 0  0.88 0.03 0  0.89 0.03 0  0.9 0.03 0  0.91 0.03 0  0.92 0.03 0  0.93 0.03 0  0.9399999999999999 0.03 0  0.95 0.03 0  0.96 0.03 0  0.97 0.03 0  0.98 0.03 0  0.99 0.03 0  1 0.03 0  0 0.04 0  0.01 0.04 0  0.02 0.04 0  0.03 0.04 0  0.04 0.04 0  0.05 0.04 0  0.06 0.04 0  0.07000000000000001 0.04 0  0.08 0.04 0  0.09 0.04 0  0.1 0.04 0  0.11 0.04 0  0.12 0.04 0  0.13 0.04 0  0.14 0.04 0  0.15 0.04 0  0.16 0.04 0  0.17 0.04 0  0.18 0.04 0  0.19 0.04 0  0.2 0.04 0  0.21 0.04 0  0.22 0.04 0  0.23 0.04 0  0.24 0.04 0  0.25 0.04 0  0.26 0.04 0  0.27 0.04 0  0.28 0.04 0  0.29 0.04 0  0.3 0.04 0  0.31 0.04 0  0.32 0.04 0  0.33 0.04 0  0.34 0.04 0  0.35 0.04 0  0.36 0.04 0  0.37 0.04 0  0.38 0.04 0  0.39 0.04 0  0.4 0.04 0  0.41 0.04 0  0.42 0.04 0  0.43 0.04 0  0.44 0.04 0  0.45 0.04 0  0.46 0.04 0  0.47 0.04 0  0.48 0.04 0  0.49 0.04 0  0.5 0.04 0  0.51 0.04 0  0.52 0.04 0  0.53 0.04 0  0.54 0.04 0  0.55 0.04 0  0.5600000000000001 0.04 0  0.57 0.04 0  0.58 0.04 0  0.59 0.04 0  0.6 0.04 0  0.61 0.04 0  0.62 0.04 0  0.63 0.04 0  0.64 0.04 0  0.65 0.04 0  0.66 0.04 0  0.67 0.04 0  0.68 0.04 0  0.6899999999999999 0.04 0  0.7 0.04 0  0.71 0.04 0  0.72 0.04 0  0.73 0.04 0  0.74 0.04 0  0.75 0.04 0  0.76 0.04 0  0.77 0.04 0  0.78 0.04 0  0.79 0.04 0  0.8 0.04 0  0.8100000000000001 0.04 0  0.82 0.04 0  0.83 0.04 0  0.84 0.04 0  0.85 0.04 0  0.86 0.04 0  0.87 0.04 0  0.88 0.04 0  0.89 0.04 0  0.9 0.04 0  0.91 0.04 0  0.92 0.04 0  0.93 0.04 0  0.9399999999999999 0.04 0  0.95 0.04 0  0.96 0.04 0  0.97 0.04 0  0.98 0.04 0  0.99 0.04 0  1 0.04 0  0 0.05 0  0.01 0.05 0  0.02 0.05 0  0.03 0.05 0  0.04 0.05 0  0.05 0.05 0  0.06 0.05 0  0.07000000000000001 0.05 0  0.08 0.05 0  0.09 0.05 0  0.1 0.05 0  0.11 0.05 0  0.12 0.05 0  0.13 0.05 0  0.14 0.05 0  0.15 0.05 0  0.16 0.05 0  0.17 0.05 0  0.18 0.05 0  0.19 0.05 0  0.2 0.05 0  0.21 0.05 0  0.22 0.05 0  0.23 0.05 0  0.24 0.05 0  0.25 0.05 0  0.26 0.05 0  0.27 0.05 0  0.28 0.05 0  0.29 0.05 0  0.3 0.05 0  0.31 0.05 0  0.32 0.05 0  0.33 0.05 0  0.34 0.05 0  0.35 0.05 0  0.36 0.05 0  0.37 0.05 0  0.38 0.05 0  0.39 0.05 0  0.4 0.05 0  0.41 0.05 0  0.42 0.05 0  0.43 0.05 0  0.44 0.05 0  0.45 0.05 0  0.46 0.05 0  0.47 0.05 0  0.48 0.05 0  0.49 0.05 0  0.5 0.05 0  0.51 0.05 0  0.52 0.05 0  0.53 0.05 0  0.54 0.05 0  0.55 0.05 0  0.5600000000000001 0.05 0  0.57 0.05 0  0.58 0.05 0  0.59 0.05 0  0.6 0.05 0  0.61 0.05 0  0.62 0.05 0  0.63 0.05 0  0.64 0.05 0  0.65 0.05 0  0.66 0.05 0  0.67 0.05 0  0.68 0.05 0  0.6899999999999999 0.05 0  0.7 0.05 0  0.71 0.05 0  0.72 0.05 0  0.73 0.05 0  0.74 0.05 0  0.75 0.05 0  0.76 0.05 0  0.77 0.05 0  0.78 0.05 0  0.79 0.05 0  0.8 0.05 0  0.8100000000000001 0.05 0  0.82 0.05 0  0.83 0.05 0  0.84 0.05 0  0.85 0.05 0  0.86 0.05 0  0.87 0.05 0  0.88 0.05 0  0.89 0.05 0  0.9 0.05 0  0.91 0.05 0  0.92 0.05 0  0.93 0.05 0  0.9399999999999999 0.05 0  0.95 0.05 0  0.96 0.05 0  0.97 0.05 0  0.98 0.05 0  0.99 0.05 0  1 0.05 0  0 0.06 0  0.01 0.06 0  0.02 0.06 0  0.03 0.06 0  0.04 0.06 0  0.05 0.06 0  0.06 0.06 0  0.07000000000000001 0.06 0  0.08 0.06 0  0.09 0.06 0  0.1 0.06 0  0.11 0.06 0  0.12 0.06 0  0.13 0.06 0  0.14 0.06 0  0.15 0.06 0  0.16 0.06 0  0.17 0.06 0  0.18 0.06 0  0.19 0.06 0  0.2 0.06 0  0.21 0.06 0  0.22 0.06 0  0.23 0.06 0  0.24 0.06 0  0.25 0.06 0  0.26 0.06 0  0.27 0.06 0  0.28 0.06 0  0.29 0.06 0  0.3 0.06 0  0.31 0.06 0  0.32 0.06 0  0.33 0.06 0  0.34 0.06 0  0.35 0.06 0  0.36 0.06 0  0.37 0.06 0  0.38 0.06 0  0.39 0.06 0  0.4 0.06 0  0.41 0.06 0  0.42 0.06 0  0.43 0.06 0  0.44 0.06 0  0.45 0.06 0  0.46 0.06 0  0.47 0.06 0  0.48 0.06 0  0.49 0.06 0  0.5 0.06 0  0.51 0.06 0  0.52 0.06 0  0.53 0.06 0  0.54 0.06 0  0.55 0.06 0  0.5600000000000001 0.06 0  0.57 0.06 0  0.58 0.06 0  0.59 0.06 0  0.6 0.06 0  0.61 0.06 0  0.62 0.06 0  0.63 0.06 0  0.64 0.06 0  0.65 0.06 0  0.66 0.06 0  0.67 0.06 0  0.68 0.06 0  0.6899999999999999 0.06 0  0.7 0.06 0  0.71 0.06 0  0.72 0.06 0  0.73 0.06 0  0.74 0.06 0  0.75 0.06 0  0.76 0.06 0  0.77 0.06 0  0.78 0.06 0  0.79 0.06 0  0.8 0.06 0  0.8100000000000001 0.06 0  0.82 0.06 0  0.83 0.06 0  0.84 0.06 0  0.85 0.06 0  0.86 0.06 0  0.87 0.06 0  0.88 0.06 0  0.89 0.06 0  0.9 0.06 0  0.91 0.06 0  0.92 0.06 0  0.93 0.06 0  0.9399999999999999 0.06 0  0.95 0.06 0  0.96 0.06 0  0.97 0.06 0  0.98 0.06 0  0.99 0.06 0  1 0.06 0  0 0.07000000000000001 0  0.01 0.07000000000000001 0  0.02 0.07000000000000001 0  0.03 0.07000000000000001 0  0.04 0.07000000000000001 0  0.05 0.07000000000000001 0  0.06 0.07000000000000001 0  0.07000000000000001 0.07000000000000001 0  0.08 0.07000000000000001 0  0.09 0.07000000000000001 0  0.1 0.07000000000000001 0  0.11 0.07000000000000001 0  0.12 0.07000000000000001 0  0.13 0.07000000000000001 0  0.14 0.07000000000000001 0  0.15 0.07000000000000001 0  0.16 0.07000000000000001 0  0.17 0.07000
[...]
<PointData  Scalars="rho_bar"> 
<DataArray  type="Float64"  Name="rho_bar"  format="ascii">1.0029217039894485e+00  1.0014839258729717e+00  1.0017887093173430e+00  1.0008455046180251e+00  9.9998698397300856e-01  9.9940619844822332e-01  9.9920472110659886e-01  9.9923620809521141e-01  9.9954100863640727e-01  1.0002974627648238e+00  1.0012979122763495e+00  1.0018964262657022e+00  1.0018793645112392e+00  1.0015479159238843e+00  1.0010773220307307e+00  1.0005997549902366e+00  1.0003027962302797e+00  1.0001377673291256e+00  9.9992782983542072e-01  9.9967913149309551e-01  9.9951968687243009e-01  9.9948140163457755e-01  9.9950609353200959e-01  9.9956039606076175e-01  9.9965262322493620e-01  9.9977522497329618e-01  9.9989471652947004e-01  1.0000066808683234e+00  1.0001015090913479e+00  1.0001167316402024e+00  1.0000481867539333e+00  9.9998902591597416e-01  9.9998685512388574e-01  1.0000005824191178e+00  1.0000014404901176e+00  1.0000144976010477e+00  9.9988420994636829e-01  1.0005480229427748e+00  9.9863741666694839e-01  9.9682682063286165e-01  1.0543931221091876e+00  7.1477630142054061e-01  -4.8778244788074555e-02  -4.3591154089218194e-03  2.3792122962408044e-03  -2.9823646366459550e-04  2.0850140018302156e-04  -1.7428442638994180e-04  -2.0604570814428583e-05  2.4126243657913648e-05  1.1531038941009983e-05  -4.7124888816795601e-06  -2.3465382910910048e-06  1.1593534789964088e-06  1.5712734454591144e-07  -2.4292146509205557e-07  5.5627472118102039e-08  1.9719533492936813e-08  -1.8038153565599297e-08  5.4853752585136651e-09  -2.8548243479490242e-11  -7.7281966066533286e-10  4.1472117764190471e-10  -1.2290693504299570e-10  1.4854511383569882e-11  7.0062717697952988e-12  -5.8858725668794028e-12  2.6400431516554299e-12  -8.9862081669807613e-13  2.4655010564437712e-13  -5.2044431270131043e-14  5.7308681061791431e-15  1.7818091804118365e-15  -1.6034645254326159e-15  7.6663372922779453e-16  -2.9460200702681167e-16  9.9212364811167895e-17  -3.0190281669258138e-17  8.4024222964965846e-18  -2.1446802889851399e-18  4.9858733544975728e-19  -1.0265068119368359e-19  1.6891313720854647e-20  -1.0833891134600050e-21  -8.2246855593130188e-22  5.8165484373857963e-22  -2.7091163388034113e-22  1.0732659637762947e-22  -3.8378067814743022e-23  1.2643480601985866e-23  -3.8713504719884969e-24  1.1057763041671213e-24  -2.9480765552299084e-25  7.2639505232822187e-26  -1.6282620713815764e-26  3.0056313065570869e-27  -3.2576949184251992e-28  -5.4434521937996441e-29  1.0595572470758815e-28  -1.5612837262706123e-29  4.5680341636693850e-29  9.9260395502598830e-01  9.9711265157161544e-01  9.9608036415606671e-01  9.9738879264639713e-01  9.9918684685434378e-01  1.0007263496934984e+00  1.0014592024220204e+00  1.0016054309864584e+00  1.0013130798563972e+00  1.0002970588043558e+00  9.9839109244478630e-01  9.9661822621089446e-01  9.9610385659819711e-01  9.9653587877328442e-01  9.9734203018407241e-01  9.9835216826666640e-01  9.9915850763211167e-01  9.9956434251736270e-01  9.9990704246240125e-01  1.0004010186202181e+00  1.0008378285465653e+00  1.0010228442722988e+00  1.0010200606217399e+00  1.0009407599345566e+00  1.0007986935046767e+00  1.0005756263034769e+00  1.0003250288994257e+00  1.0000998685913485e+00  9.9988197599326512e-01  9.9975179047842078e-01  9.9982316667832449e-01  9.9997939428178262e-01  1.0000360070313805e+00  1.0000086234294112e+00  9.9999548150623008e-01  9.9999265701332640e-01  1.0000210249652806e+00  1.0000450849236988e+00  9.9905003294131534e-01  1.0063502952699961e+00  9.7665393309981574e-01  9.9712860626234523e-01  -1.8054768812027602e-01  4.1357864114707585e-02  -5.0673507249518884e-03  2.5839775029812311e-04  -6.5754519096111210e-04  2.6830143553081614e-04  1.6060342895580156e-04  -2.3710625146498324e-05  -4.4131339890533370e-05  -1.6865432061364127e-07  9.7138706406928328e-06  -8.9768806607823981e-07  -1.4856668976384406e-06  5.5606885704852912e-07  6.6318129895631095e-08  -1.2159958045037749e-07  4.3646320695315531e-08  -2.1343143742428535e-09  -5.2884604967587493e-09  3.0178274282730516e-09  -8.9245491335825941e-10  9.6154678286709135e-11  5.7778282329540720e-11  -4.4391484843650158e-11  1.8888350125918977e-11  -6.0538898860061204e-12  1.5260071228285677e-12  -2.7344130138425488e-13  9.1236084352227643e-15  2.0869198499892247e-14  -1.2930491773570070e-14  5.5213624419612918e-15  -1.9851903204832544e-15  6.3432239902958363e-16  -1.8343942496862943e-16  4.8198474883160501e-17  -1.1435023429218304e-17  2.3952375188501834e-18  -4.1170146786793299e-19  3.9604946608072516e-20  1.0607772387670573e-20  -9.4146783966630642e-21  4.6304231545814045e-21  -1.9121503519267846e-21  7.1387591561686608e-22  -2.4563173403394676e-22  7.8296795748600282e-23  -2.3147630794178836e-23  6.3418981315869732e-24  -1.6024751686979722e-24  3.6822531995235084e-25  -7.3010258083349667e-26  1.0636880503287577e-26  3.8841336847039554e-28  -1.1011121853125133e-27  6.0282226853052781e-28  -3.2961181914907229e-28  4.6768324626658997e-29  -7.5747846010681568e-29  1.0270718078789887e+00  1.0100787274161942e+00  1.0141554141096307e+00  1.0115883215456318e+00  1.0061774976301978e+00  9.9975379031280054e-01  9.9584887982860626e-01  9.9445320540448556e-01  9.9470099719652461e-01  9.9674081714265028e-01  1.0019341863287941e+00  1.0092085989460535e+00  1.0133927562035350e+00  1.0130542084461553e+00  1.0108573516967363e+00  1.0075771822042565e+00  1.0041321933585887e+00  1.0020976988441865e+00  1.0010101323977096e+00  9.9951665452575145e-01  9.9772540141544763e-01  9.9662494604711027e-01  9.9637901064377687e-01  9.9654952625234017e-01  9.9692067042112364e-01  9.9755776302707921e-01  9.9843690854971534e-01  9.9926748165612878e-01  1.0000249045052885e+00  1.0007233905056701e+00  1.0008424832206548e+00  1.0003224135550493e+00  9.9990483437463440e-01  9.9991522468602168e-01  1.0000141086568906e+00  1.0000096989537477e+00  1.0000019144036090e+00  9.9993548632025853e-01  1.0002907133418011e+00  9.9982826920687051e-01  9.9090175069235853e-01  1.0933555547065132e+00  1.9517852716312120e-01  -1.6144008019701782e-03  -7.5214747009167493e-03  -1.7106537130283034e-03  3.8041875160963524e-03  -2.9588049162218734e-04  -8.5120333333950121e-04  -1.6211905357505724e-04  1.8438904254529392e-04  6.8620993666094614e-05  -4.0010148551902643e-05  -1.0147705732791906e-05  8.4928151983015502e-06  -5.5367542698351409e-07  -1.2775948270187074e-06  6.3251076402072346e-07  -8.8224737520443284e-08  -5.1600671754167078e-08  3.8601476108153040e-08  -1.3211053196664912e-08  2.0863719412884302e-09  5.1247391532479449e-10  -5.4653959661523994e-10  2.5615913285436204e-10  -8.8337639401285597e-11  2.4332514172512089e-11  -5.1777026899989207e-12  6.0756880546055417e-13  1.5001898263488671e-13  -1.4669420473610689e-13  7.1599460239052599e-14  -2.7919747826076656e-14  9.5289106133830035e-15  -2.9366227352695241e-15  8.2728636434292170e-16  -2.1378104622824480e-16  5.0442562185219582e-17  -1.0638274639158870e-17  1.8558324156325523e-18  -1.7437312034782583e-19  -5.8099518076421770e-20  5.0021983011817285e-20  -2.4580032781485501e-20  1.0030180271978228e-20  -3.6607635184230615e-21  1.2245469008243567e-21  -3.7934417048343016e-22  1.0939423225706737e-22  -2.9412554159424346e-23  7.3391412027819334e-24  -1.6688394743120440e-24  3.2400433273512900e-25  -4.2636834400500947e-26  -4.9194884233516375e-27  6.3302293018128849e-27  -3.3946536416532948e-27  1.5886480487122281e-27  -3.1208892974457227e-28  3.4649575969948972e-28  9.0500487925581430e-01  9.5990143180592757e-01  9.4868237511067055e-01  9.5152507554201693e-01  9.6514292664186807e-01  9.8987433621768917e-01  1.0096633478985686e+00  1.0188508252960897e+00  1.0208154318414782e+00  1.0168660515869279e+00  1.0044437233692218e+00  9.7931359131929629e-01  9.5509855381610820e-01  9.4956001876131735e-01  9.5522488728997967e-01  9.6512170292182065e-01  9.7873146034657066e-01  9.8928982255466458e-01  9.9425880847443271e-01  9.9859465878959974e-01  1.0052618191601042e+00  1.0110053246075537e+00  1.0132799142316877e+00  1.0132286447121490e+00  1.0122136961525996e+00  1.0104155386019968e+00  1.0075059844565246e+00  1.0041466643590593e+00  1.0013617351583799e+00  9.9851612106346854e-01  9.9664238170487085e-01  9.9768195775372215e-01  9.9983368236057146e-01  1.0004842718373770e+00  1.0000608065541672e+00  9.9992551292907328e-01  1.0000121317683719e+00  1.0000175145573504e+00  1.0000108298866972e+00  9.9938601667034055e-01  1.0050515757961311e+00  9.7333743084723734e-01  1.0942954152397464e+00  -1.7419269049799711e-03  -2.2988344236315291e-02  3.5158270392888019e-02  -1.6368097755015170e-02  -4.0513456548855508e-03  3.2628881776479023e-03  1.8734265031052542e-03  -3.7079069466992246e-04  -5.7420353565584630e-04  6.2398673877034355e-05  1.0964371318099960e-04  -2.6056328005261633e-05  -1.1815827061055563e-05  8.8522572922637148e-06  -1.8879106541328426e-06  -4.8605291489760544e-07  5.1244450750877060e-07  -1.9472922189255046e-07  3.5354865065465748e-08  5.4942391335679550e-09  -7.4392640148732098e-09  3.6208884133228007e-09  -1.2642168424267682e-09  3.4875248383122974e-10  -7.3715159732658977e-11  8.4009565489580976e-12  2.2530593762402698e-12  -2.1233543230838813e-12  1.0266835194991454e-12  -3.9812954089155827e-13  1.3520802529310404e-13  -4.1408779857470867e-14  1.1555514617040992e-14  -2.9411072616960966e-15  6.7690988307538056e-16  -1.3671158214858376e-16  2.1712078450727648e-17  -1.1410393062584406e-18  -1.1648434790124291e-18  7.8544582480311026e-19  -3.6271029800431285e-19  1.4406485680030879e-19  -5.1852568153109607e-20  1.7194010018494172e-20  -5.2858816444484677e-21  1.5104637468258980e-21  -4.0100491872139460e-22  9.8247084867423217e-23  -2.1699400708134533e-23  4.0065241622903074e-24  -4.2238300318948434e-25  -1.0538174637774116e-25  1.0449128604903237e-25  -4.9693044281992446e-26  2.0738509352962167e-26  -7.7911749367855182e-27  1.6928187665285598e-27  -1.4725855019504302e-27  1.2956238266766162e+00  1.1637361097795511e+00  1.1860175032270472e+00  1.1862275744512998e+00  1.1650528179449726e+00  1.0849236122316595e+00  9.9508726097760980e-01  9.4257552297054481e-01  9.2345315851178855e-01  9.2665830627421364e-01  9.5535253113813889e-01  1.0230958810232944e+00  1.1303305654868869e+00  1.1876022905033692e+00  1.1782671082935035e+00  1.1517902782622274e+00  1.1050886219029148e+00  1.0564017148945699e+00  1.0286391887418298e+00  1.0148156478233239e+00  9.9356898488065959e-01  9.6801806082026898e-01  9.5305791068003209e-01  9.5002467791923761e-01  9.5218130652745137e-01  9.5742213656933151e-01  9.6588651776135348e-01  9.7852070096164023e-01  9.9002720306324909e-01  9.9984721440251811e-01  1.0103036473424507e+00  1.0120781098848011e+00  1.0041891827517151e+00  9.9841524556406702e-01  9.9896457543626838e-01  1.0003314671293553e+00  1.0000187093630168e+00  9.9995385918296342e-01  9.9998069109399013e-01  1.0003245986960632e+00  9.9817791305034942e-01  1.0080591568225081e+00  9.6790341914697831e-01  1.1418292813017432e+00  3.1795486817870744e-01  -1.8836780574069581e-01  2.6023858755779724e-02  3.8984313979533412e-02  -5.0793372494643517e-03  -1.1172988837159739e-02  -1.9463452774938226e-03  2.8495964890946292e-03  6.5100670942195335e-04  -5.8944977532350454e-04  -5.4596995349571126e-05  1.1476196779568724e-04  -3.4602074487673982e-05  -2.9764612967176512e-06  6.5828049071465943e-06  -2.8353072976371656e-06  5.8124779864930867e-07  5.2327355777771414e-08  -1.0061198632307151e-07  5.0855631726447742e-08  -1.7934021040712467e-08  4.9462370993660864e-09  -1.0401964781986316e-09  1.1779208391760436e-10  3.1350559326935259e-11  -2.9449009746778200e-11  1.4223185148000687e-11  -5.5203898933322518e-12  1.8784478624140394e-12  -5.7646741735988500e-13  1.6107787393731393e-13  -4.0997897489940104e-14  9.4224090287476243e-15  -1.8988535877608201e-15  3.0170781503853963e-16  -1.6721799630119860e-17  -1.5502337165464552e-17  1.0583780254826294e-17  -4.9205851945811383e-18  1.9679366612034525e-18  -7.1310801971638986e-19  2.3783979484162772e-19  -7.3433400232265688e-20  2.1038373165303572e-20  -5.5913404463341333e-21  1.3702417982076824e-21  -3.0297317934627289e-22  5.6213311473619539e-23  -6.1971032978834406e-24  -1.3905596930042877e-24  1.3685504378055367e-24  -6.9973574073326330e-25  2.7541913792265516e-25  -1.0390140851115629e-25  3.4018995952001631e-26  -7.8972688578381849e-27  5.7275575784351129e-27  9.8145201041376001e-02  2.2487418442696377e-01  1.6886060792198226e-01  1.0801955262059601e-01  7.5209345981497422e-02  1.4859596636487418e-02  -7.9693527598183919e-02  -1.4971533827877920e-01  -1.6960151236001791e-01  -1.7216775934459519e-01  -1.6531784115899989e-01  -1.3132858333674044e-01  -3.5928624306259677e-02  5.8764730305771340e-02  1.1631412874273751e-01  2.7135529816176790e-01  4.9565322475468426e-01  7.0152361549587583e-01  8.5550184308895760e-01  9.1745045167674477e-01  9.7851919630659612e-01  1.0733645607091189e+00  1.1556310889953407e+00  1.1836931411926890e+00  1.1844109562351883e+00  1.1696120384589646e+00  1.1451580811407567e+00  1.1056584513610341e+00  1.0556509731715922e+00  1.0203094935585773e+00  9.8039851339763961e-01  9.5069577549187578e-01  9.6801839564653880e-01  9.9883751228000095e-01  1.0071993019496535e+00  9.9972145434776150e-01  9.9932013859357294e-01  1.0003446342185518e+00  9.9990316390092759e-01  9.9990588721204932e-01  1.0005910699101832e+00  9.9752010380222045e-01  1.0096545904208425e+00  9.6487218089179316e-01  1.0918590716050061e+00  9.8065260641009144e-01  1.7139590221910500e-01  -1.9518467331554232e-01  -3.9241418648725296e-02  4.2694600493519530e-02  2.6232700607230888e-02  -7.7338723996443707e-03  -7.1233737364752988e-03  1.4689916279522627e-03  1.2992549228583571e-03  -5.8057252840885130e-04  1.9071946538289762e-05  7.9718563657576259e-05  -4.0804872934873763e-05  9.4937756553794580e-06  3.2762383203647006e-07  -1.3498459676891477e-06  7.1462037752336633e-07  -2.5498055128819000e-07  7.0337793174592715e-08  -1.4717160154581328e-08  1.6572835063998722e-09  4.3533053810376756e-10  -4.0827444683626799e-10  1.9714221988753176e-10  -7.6675921806996195e-11  2.6176505505946116e-11  -8.0591283527825807e-12  2.2567445103828903e-12  -5.7454422697647952e-13  1.3174305276678768e-13  -2.6402685552778763e-14  4.1505751026490263e-15  -2.1737304124955083e-16  -2.1749676251754382e-16  1.4662158612304397e-16  -6.8040582899432273e-17  2.7266706515791261e-17  -9.9155146101247428e-18  3.3188523304027533e-18  -1.0273352269454898e-18  2.9462558919717983e-19  -7.8244797675901276e-20  1.9131170988633955e-20  -4.2163253765178353e-21  7.7972938484764320e-22  -8.5587584597336006e-23  -1.9069685759513680e-23  1.9122430312043300e-23  -9.5346604530405212e-24  3.9414180095120424e-24  -1.3860826805119457e-24  4.8240676045339385e-25  -1.3948190833208240e-25  3.4219275572890326e-26  -2.0483859786041004e-26  -2.4757208511279965e-03  -4.7292926490837675e-02  -5.6094767027970005e-02  -3.6033419541934127e-02  -2.4468599070706882e-02  -1.3373911614658937e-02  8.4537610989608020e-03  3.2206587350274485e-02  4.3979178053415627e-02  4.6118324665176944e-02  4.5717023012729764e-02  4.1408989338722231e-02  2.3631764255187426e-02  -4.1846902945472837e-03  -2.2446490090716777e-02  -4.8425728912935916e-02  -1.0066782915393539e-01  -1.4885114060322319e-01  -1.7413867818032963e-01  -1.8430725124941294e-01  -1.6522939872831752e-01  -9.0280939078991304e-02  5.0796064928353068e-03  7.0088310044303812e-02  1.0894131275237449e-01  1.8430994192877606e-01  3.3448282312622879e-01  5.0426447551423204e-01  6.9513003994244482e-01  8.7308738741694780e-01  9.7874850904597310e-01  1.1576731541199852e+00  1.1673517846473693e+00  1.0587371965953389e+00  9.7041560236845448e-01  9.9044979828916879e-01  1.0054059925153107e+00  9.9825691086454926e-01  1.0004794127836449e+00  9.9991653210322540e-01  9.9984862102329841e-01  1.0006764567549111e+00  9.9772019022758029e-01  1.0059974023156377e+00  9.9348462491597500e-01  9.6868685225483286e-01  1.1246463218881722e+00  1.0481787024084299e+00  4.2382015295850106e-01  -6.0529792537601677e-02  -1.6633737170866783e-01  -1.2899993824462696e-02  3.9290651863873302e-02  6.2138681429152499e-03  -9.2652560309694643e-03  1.2253541649504536e-03  8.7958916365989907e-04  -5.7332677144637551e-04  1.5432685168189242e-04  -2.3162969960344809e-06  -1.7916605442914440e-05  1.0060992261993161e-05  -3.6377358198451851e-06  1.0031247042276211e-06  -2.0844321259981549e-07  2.3192554309294929e-08  6.1031138785468599e-09  -5.6710259216359908e-09  2.7324380277308039e-09  -1.0644067479490431e-09  3.6460224768695512e-10  -1.1263961763967815e-10  3.1612839509111636e-11  -8.0493773778269179e-12  1.8406024502344728e-12  -3.6643510810270070e-13  5.6843727583858604e-14  -2.7457536754301503e-15  -3.0611937874225114e-15  2.0294994675106142e-15  -9.3875345268726285e-16  3.7678541816155891e-16  -1.3751165649316328e-16  4.6204319847726965e-17  -1.4344142499794794e-17  4.1190497129614315e-18  -1.0932480460136599e-18  2.6666814084260926e-19  -5.8561087906052879e-20  1.0788152307698730e-20  -1.1800017739468535e-21  -2.6373019288524637e-22  2.6335586925378623e-22  -1.3248880858714749e-22  5.3946235918329945e-23  -1.9780112266443216e-23  6.3835326458511422e-24  -2.0665447299342907e-24  5.2615102664645408e-25  -1.3600320012108878e-25  6.4531587707706656e-26  -1.7357300041624458e-03  6.6487032388884669e-03  1.5209655277896634e-02  1.2629517745288537e-02  7.8386563255619830e-03  5.2893264449675025e-03  9.2970100169282373e-04  -5.6439885123273732e-03  -1.0617472536216975e-02  -1.2264652505050821e-02  -1.2371427122422701e-02  -1.1971342816728217e-02  -9.1825004349587666e-03  -2.5663515400355229e-03  3.6986293471015152e-03  8.8101028469113208e-03  1.9514633237144609e-02  3.3981772472090610e-02  4.3919848910554629e-02  4.8668162103191220e-02  4.8363440140677172e-02  3.5693815558931280e-02  1.1162830662959398e-02  -1.1264729022447201e-02  -2.3872555706593149e-02  -3.7029940444504854e-02  -6.7341469625114794e-02  -1.0943719175151806e-01  -1.4739196662843301e-01  -1.7337595971576666e-01  -1.7858620610033463e-01  -3.7056790388750982e-02  1.0630023269890604e-01  5.0187496352018401e-01  1.0207116250009962e+00  1.1013526440675199e+00  9.7320543350049149e-01  1.0066103084484141e+00  9.9829804825288271e-01  1.0004042339579851e+00  9.9995948850273109e-01  9.9985883937709996e-01  1.0004024351301426e+00  9.9942787021074331e-01  9.9885612940975832e-01  1.0088204889206032e+00  9.8809977664995752e-01  9.6080941372284201e-01  1.0643087095991182e+00  1.1958989042377441e+00  9.0612954075806151e-01  3.0365176778448189e-01  -1.1530166868269034e-01  -9.8892140644067733e-02  3.7237936777001379e-02  8.1461306032917704e-03  -7.8312711199485709e-03  2.4632093263565408e-03  -1.5595522321594363e-04  -2.3327650915570307e-04  1.4207514217242639e-04  -5.2141604268314376e-05  1.4352214094767731e-05  -2.9546905517516265e-06  3.2248153259572665e-07  8.6503242579847543e-08  -7.8939102734359859e-08  3.7858767723601238e-08  -1.4760778144566616e-08  5.0745265564993793e-09  -1.5739941172741266e-09  4.4296069866058232e-10  -1.1283866371753043e-10  2.5733244527202161e-11  -5.0880383771870886e-12  7.7803587830346071e-13  -3.4070233295896938e-14  -4.3151637643132661e-14  2.8095736349407172e-14  -1.2945521478352052e-14  5.2033417171652421e-15  -1.9062307103193397e-15  6.4320230730680822e-16  -2.0034822997347124e-16  5.7626917974401091e-17  -1.5288770256598775e-17  3.7203454211813797e-18  -8.1386536115515101e-19  1.4928485849793044e-19  -1.6260997524653917e-20  -3.6416722536548545e-21  3.6338567741926825e-21  -1.8289715124384453e-21  7.4971256874497184e-22  -2.7213456694673551e-22  9.1138302431342810e-23  -2.7194154953336156e-23  8.1842807456067193e-24  -1.7910201184400213e-24  4.9373703649536569e-25  -1.6313781736380168e-25  4.7073184073131481e-04  -4.3901870568537022e-04  -3.1584784553513657e-03  -3.9899805348882740e-03  -2.7072508983781618e-03  -1.7415126034591650e-03  -9.2029269726752645e-04  6.1689927454467266e-04  2.2744548867888953e-03  3.1532559455094557e-03  3