<?xml version="1.0"?>
<VTKFile type="UnstructuredGrid"  version="0.1"  >
<UnstructuredGrid>
<Piece  NumberOfPoints="5151" NumberOfCells="10000">
<Points>
<DataArray  type="Float64"  NumberOfComponents="3"  format="ascii">0 0 0  0.01 0 0  0.02 0 0  0.03 0 0  0.04 0 0  0.05 0 0  0.06 0 0  0.07000000000000001 0 0  0.08 0 0  0.09 0 0  0.1 0 0  0.11 0 0  0.12 0 0  0.13 0 0  0.14 0 0  0.15 0 0  0.16 0 0  0.17 0 0  0.18 0 0  0.19 0 0  0.2 0 0  0.21 0 0  0.22 0 0  0.23 0 0  0.24 0 0  0.25 0 0  0.26 0 0  0.27 0 0  0.28 0 0  0.29 0 0  0.3 0 0  0.31 0 0  0.32 0 0  0.33 0 0  0.34 0 0  0.35 0 0  0.36 0 0  0.37 0 0  0.38 0 0  0.39 0 0  0.4 0 0  0.41 0 0  0.42 0 0  0.43 0 0  0.44 0 0  0.45 0 0  0.46 0 0  0.47 0 0  0.48 0 0  0.49 0 0  0.5 0 0  0.51 0 0  0.52 0 0  0.53 0 0  0.54 0 0  0.55 0 0  0.5600000000000001 0 0  0.57 0 0  0.58 0 0  0.59 0 0  0.6 0 0  0.61 0 0  0.62 0 0  0.63 0 0  0.64 0 0  0.65 0 0  0.66 0 0  0.67 0 0  0.68 0 0  0.6899999999999999 0 0  0.7 0 0  0.71 0 0  0.72 0 0  0.73 0 0  0.74 0 0  0.75 0 0  0.76 0 0  0.77 0 0  0.78 0 0  0.79 0 0  0.8 0 0  0.8100000000000001 0 0  0.82 0 0  0.83 0 0  0.84 0 0  0.85 0 0  0.86 0 0  0.87 0 0  0.88 0 0  0.89 0 0  0.9 0 0  0.91 0 0  0.92 0 0  0.93 0 0  0.9399999999999999 0 0  0.95 0 0  0.96 0 0  0.97 0 0  0.98 0 0  0.99 0 0  1 0 0  0 0.01 0  0.01 0.01 0  0.02 0.01 0  0.03 0.01 0  0.04 0.01 0  0.05 0.01 0  0.06 0.01 0  0.07000000000000001 0.01 0  0.08 0.01 0  0.09 0.01 0  0.1 0.01 0  0.11 0.01 0  0.12 0.01 0  0.13 0.01 0  0.14 0.01 0  0.15 0.01 0  0.16 0.01 0  0.17 0.01 0  0.18 0.01 0  0.19 0.01 0  0.2 0.01 0  0.21 0.01 0  0.22 0.01 0  0.23 0.01 0  0.24 0.01 0  0.25 0.01 0  0.26 0.01 0  0.27 0.01 0  0.28 0.01 0  0.29 0.01 0  0.3 0.01 0  0.31 0.01 0  0.32 0.01 0  0.33 0.01 0  0.34 0.01 0  0.35 0.01 0  0.36 0.01 0  0.37 0.01 0  0.38 0.01 0  0.39 0.01 0  0.4 0.01 0  0.41 0.01 0  0.42 0.01 0  0.43 0.01 0  0.44 0.01 0  0.45 0.01 0  0.46 0.01 0  0.47 0.01 0  0.48 0.01 0  0.49 0.01 0  0.5 0.01 0  0.51 0.01 0  0.52 0.01 0  0.53 0.01 0  0.54 0.01 0  0.55 0.01 0  0.5600000000000001 0.01 0  0.57 0.01 0  0.58 0.01 0  0.59 0.01 0  0.6 0.01 0  0.61 0.01 0  0.62 0.01 0  0.63 0.01 0  0.64 0.01 0  0.65 0.01 0  0.66 0.01 0  0.67 0.01 0  0.68 0.01 0  0.6899999999999999 0.01 0  0.7 0.01 0  0.71 0.01 0  0.72 0.01 0  0.73 0.01 0  0.74 0.01 0  0.75 0.01 0  0.76 0.01 0  0.77 0.01 0  0.78 0.01 0  0.79 0.01 0  0.8 0.01 0  0.8100000000000001 0.01 0  0.82 0.01 0  0.83 0.01 0  0.84 0.01 0  0.85 0.01 0  0.86 0.01 0  0.87 0.01 0  0.88 0.01 0  0.89 0.01 0  0.9 0.01 0  0.91 0.01 0  0.92 0.01 0  0.93 0.01 0  0.9399999999999999 0.01 0  0.95 0.01 0  0.96 0.01 0  0.97 0.01 0  0.98 0.01 0  0.99 0.01 0  1 0.01 0  0 0.02 0  0.01 0.02 0  0.02 0.02 0  0.03 0.02 0  0.04 0.02 0  0.05 0.02 0  0.06 0.02 0  0.07000000000000001 0.02 0  0.08 0.02 0  0.09 0.02 0  0.1 0.02 0  0.11 0.02 0  0.12 0.02 0  0.13 0.02 0  0.14 0.02 0  0.15 0.02 0  0.16 0.02 0  0.17 0.02 0  0.18 0.02 0  0.19 0.02 0  0.2 0.02 0  0.21 0.02 0  0.22 0.02 0  0.23 0.02 0  0.24 0.02 0  0.25 0.02 0  0.26 0.02 0  0.27 0.02 0  0.28 0.02 0  0.29 0.02 0  0.3 0.02 0  0.31 0.02 0  0.32 0.02 0  0.33 0.02 0  0.34 0.02 0  0.35 0.02 0  0.36 0.02 0  0.37 0.02 0  0.38 0.02 0  0.39 0.02 0  0.4 0.02 0  0.41 0.02 0  0.42 0.02 0  0.43 0.02 0  0.44 0.02 0  0.45 0.02 0  0.46 0.02 0  0.47 0.02 0  0.48 0.02 0  0.49 0.02 0  0.5 0.02 0  0.51 0.02 0  0.52 0.02 0  0.53 0.02 0  0.54 0.02 0  0.55 0.02 0  0.5600000000000001 0.02 0  0.57 0.02 0  0.58 0.02 0  0.59 0.02 0  0.6 0.02 0  0.61 0.02 0  0.62 0.02 0  0.63 0.02 0  0.64 0.02 0  0.65 0.02 0  0.66 0.02 0  0.67 0.02 0  0.68 0.02 0  0.6899999999999999 0.02 0  0.7 0.02 0  0.71 0.02 0  0.72 0.02 0  0.73 0.02 0  0.74 0.02 0  0.75 0.02 0  0.76 0.02 0  0.77 0.02 0  0.78 0.02 0  0.79 0.02 0  0.8 0.02 0  0.8100000000000001 0.02 0  0.82 0.02 0  0.83 0.02 0  0.84 0.02 0  0.85 0.02 0  0.86 0.02 0  0.87 0.02 0  0.88 0.02 0  0.89 0.02 0  0.9 0.02 0  0.91 0.02 0  0.92 0.02 0  0.93 0.02 0  0.9399999999999999 0.02 0  0.95 0.02 0  0.96 0.02 0  0.97 0.02 0  0.98 0.02 0  0.99 0.02 0  1 0.02 0  0 0.03 0  0.01 0.03 0  0.02 0.03 0  0.03 0.03 0  0.04 0.03 0  0.05 0.03 0  0.06 0.03 0  0.07000000000000001 0.03 0  0.08 0.03 0  0.09 0.03 0  0.1 0.03 0  0.11 0.03 0  0.12 0.03 0  0.13 0.03 0  0.14 0.03 0  0.15 0.03 0  0.16 0.03 0  0.17 0.03 0  0.18 0.03 0  0.19 0.03 0  0.2 0.03 0  0.21 0.03 0  0.22 0.03 0  0.23 0.03 0  0.24 0.03 0  0.25 0.03 0  0.26 0.03 0  0.27 0.03 0  0.28 0.03 0  0.29 0.03 0  0.3 0.03 0  0.31 0.03 0  0.32 0.03 0  0.33 0.03 0  0.34 0.03 0  0.35 0.03 0  0.36 0.03 0  0.37 0.03 0  0.38 0.03 0  0.39 0.03 0  0.4 0.03 0  0.41 0.03 0  0.42 0.03 0  0.43 0.03 0  0.44 0.03 0  0.45 0.03 0  0.46 0.03 0  0.47 0.03 0  0.48 0.03 0  0.49 0.03 0  0.5 0.03 0  0.51 0.03 0  0.52 0.03 0  0.53 0.03 0  0.54 0.03 0  0.55 0.03 0  0.5600000000000001 0.03 0  0.57 0.03 0  0.58 0.03 0  0.59 0.03 0  0.6 0.03 0  0.61 0.03 0  0.62 0.03 0  0.63 0.03 0  0.64 0.03 0  0.65 0.03 0  0.66 0.03 0  0.67 0.03 0  0.68 0.03 0  0.6899999999999999 0.03 0  0.7 0.03 0  0.71 0.03 0  0.72 0.03 0  0.73 0.03 0  0.74 0.03 0  0.75 0.03 0  0.76 0.03 0  0.77 0.03 0  0.78 0.03 0  0.79 0.03 0  0.8 0.03 0  0.8100000000000001 0.03 0  0.82 0.03 0  0.83 0.03 0  0.84 0.03 0  0.85 0.03 0  0.86 0.03 0  0.87 0.03 0  0.88 0.03 0  0.89 0.03 0  0.9 0.03 0  0.91 0.03 0  0.92 0.03 0  0.93 0.03 0  0.9399999999999999 0.03 0  0.95 0.03 0  0.96 0.03 0  0.97 0.03 0  0.98 0.03 0  0.99 0.03 0  1 0.03 0  0 0.04 0  0.01 0.04 0  0.02 0.04 0  0.03 0.04 0  0.04 0.04 0  0.05 0.04 0  0.06 0.04 0  0.07000000000000001 0.04 0  0.08 0.04 0  0.09 0.04 0  0.1 0.04 0  0.11 0.04 0  0.12 0.04 0  0.13 0.04 0  0.14 0.04 0  0.15 0.04 0  0.16 0.04 0  0.17 0.04 0  0.18 0.04 0  0.19 0.04 0  0.2 0.04 0  0.21 0.04 0  0.22 0.04 0  0.23 0.04 0  0.24 0.04 0  0.25 0.04 0  0.26 0.04 0  0.27 0.04 0  0.28 0.04 0  0.29 0.04 0  0.3 0.04 0  0.31 0.04 0  0.32 0.04 0  0.33 0.04 0  0.34 0.04 0  0.35 0.04 0  0.36 0.04 0  0.37 0.04 0  0.38 0.04 0  0.39 0.04 0  0.4 0.04 0  0.41 0.04 0  0.42 0.04 0  0.43 0.04 0  0.44 0.04 0  0.45 0.04 0  0.46 0.04 0  0.47 0.04 0  0.48 0.04 0  0.49 0.04 0  0.5 0.04 0  0.51 0.04 0  0.52 0.04 0  0.53 0.04 0  0.54 0.04 0  0.55 0.04 0  0.5600000000000001 0.04 0  0.57 0.04 0  0.58 0.04 0  0.59 0.04 0  0.6 0.04 0  0.61 0.04 0  0.62 0.04 0  0.63 0.04 0  0.64 0.04 0  0.65 0.04 0  0.66 0.04 0  0.67 0.04 0  0.68 0.04 0  0.6899999999999999 0.04 0  0.7 0.04 0  0.71 0.04 0  0.72 0.04 0  0.73 0.04 0  0.74 0.04 0  0.75 0.04 0  0.76 0.04 0  0.77 0.04 0  0.78 0.04 0  0.79 0.04 0  0.8 0.04 0  0.8100000000000001 0.04 0  0.82 0.04 0  0.83 0.04 0  0.84 0.04 0  0.85 0.04 0  0.86 0.04 0  0.87 0.04 0  0.88 0.04 0  0.89 0.04 0  0.9 0.04 0  0.91 0.04 0  0.92 0.04 0  0.93 0.04 0  0.9399999999999999 0.04 0  0.95 0.04 0  0.96 0.04 0  0.97 0.04 0  0.98 0.04 0  0.99 0.04 0  1 0.04 0  0 0.05 0  0.01 0.05 0  0.02 0.05 0  0.03 0.05 0  0.04 0.05 0  0.05 0.05 0  0.06 0.05 0  0.07000000000000001 0.05 0  0.08 0.05 0  0.09 0.05 0  0.1 0.05 0  0.11 0.05 0  0.12 0.05 0  0.13 0.05 0  0.14 0.05 0  0.15 0.05 0  0.16 0.05 0  0.17 0.05 0  0.18 0.05 0  0.19 0.05 0  0.2 0.05 0  0.21 0.05 0  0.22 0.05 0  0.23 0.05 0  0.24 0.05 0  0.25 0.05 0  0.26 0.05 0  0.27 0.05 0  0.28 0.05 0  0.29 0.05 0  0.3 0.05 0  0.31 0.05 0  0.32 0.05 0  0.33 0.05 0  0.34 0.05 0  0.35 0.05 0  0.36 0.05 0  0.37 0.05 0  0.38 0.05 0  0.39 0.05 0  0.4 0.05 0  0.41 0.05 0  0.42 0.05 0  0.43 0.05 0  0.44 0.05 0  0.45 0.05 0  0.46 0.05 0  0.47 0.05 0  0.48 0.05 0  0.49 0.05 0  0.5 0.05 0  0.51 0.05 0  0.52 0.05 0  0.53 0.05 0  0.54 0.05 0  0.55 0.05 0  0.5600000000000001 0.05 0  0.57 0.05 0  0.58 0.05 0  0.59 0.05 0  0.6 0.05 0  0.61 0.05 0  0.62 0.05 0  0.63 0.05 0  0.64 0.05 0  0.65 0.05 0  0.66 0.05 0  0.67 0.05 0  0.68 0.05 0  0.6899999999999999 0.05 0  0.7 0.05 0  0.71 0.05 0  0.72 0.05 0  0.73 0.05 0  0.74 0.05 0  0.75 0.05 0  0.76 0.05 0  0.77 0.05 0  0.78 0.05 0  0.79 0.05 0  0.8 0.05 0  0.8100000000000001 0.05 0  0.82 0.05 0  0.83 0.05 0  0.84 0.05 0  0.85 0.05 0  0.86 0.05 0  0.87 0.05 0  0.88 0.05 0  0.89 0.05 0  0.9 0.05 0  0.91 0.05 0  0.92 0.05 0  0.93 0.05 0  0.9399999999999999 0.05 0  0.95 0.05 0  0.96 0.05 0  0.97 0.05 0  0.98 0.05 0  0.99 0.05 0  1 0.05 0  0 0.06 0  0.01 0.06 0  0.02 0.06 0  0.03 0.06 0  0.04 0.06 0  0.05 0.06 0  0.06 0.06 0  0.07000000000000001 0.06 0  0.08 0.06 0  0.09 0.06 0  0.1 0.06 0  0.11 0.06 0  0.12 0.06 0  0.13 0.06 0  0.14 0.06 0  0.15 0.06 0  0.16 0.06 0  0.17 0.06 0  0.18 0.06 0  0.19 0.06 0  0.2 0.06 0  0.21 0.06 0  0.22 0.06 0  0.23 0.06 0  0.24 0.06 0  0.25 0.06 0  0.26 0.06 0  0.27 0.06 0  0.28 0.06 0  0.29 0.06 0  0.3 0.06 0  0.31 0.06 0  0.32 0.06 0  0.33 0.06 0  0.34 0.06 0  0.35 0.06 0  0.36 0.06 0  0.37 0.06 0  0.38 0.06 0  0.39 0.06 0  0.4 0.06 0  0.41 0.06 0  0.42 0.06 0  0.43 0.06 0  0.44 0.06 0  0.45 0.06 0  0.46 0.06 0  0.47 0.06 0  0.48 0.06 0  0.49 0.06 0  0.5 0.06 0  0.51 0.06 0  0.52 0.06 0  0.53 0.06 0  0.54 0.06 0  0.55 0.06 0  0.5600000000000001 0.06 0  0.57 0.06 0  0.58 0.06 0  0.59 0.06 0  0.6 0.06 0  0.61 0.06 0  0.62 0.06 0  0.63 0.06 0  0.64 0.06 0  0.65 0.06 0  0.66 0.06 0  0.67 0.06 0  0.68 0.06 0  0.6899999999999999 0.06 0  0.7 0.06 0  0.71 0.06 0  0.72 0.06 0  0.73 0.06 0  0.74 0.06 0  0.75 0.06 0  0.76 0.06 0  0.77 0.06 0  0.78 0.06 0  0.79 0.06 0  0.8 0.06 0  0.8100000000000001 0.06 0  0.82 0.06 0  0.83 0.06 0  0.84 0.06 0  0.85 0.06 0  0.86 0.06 0  0.87 0.06 0  0.88 0.06 0  0.89 0.06 0  0.9 0.06 0  0.91 0.06 0  0.92 0.06 0  0.93 0.06 0  0.9399999999999999 0.06 0  0.95 0.06 0  0.96 0.06 0  0.97 0.06 0  0.98 0.06 0  0.99 0.06 0  1 0.06 0  0 0.07000000000000001 0  0.01 0.07000000000000001 0  0.02 0.07000000000000001 0  0.03 0.07000000000000001 0  0.04 0.07000000000000001 0  0.05 0.07000000000000001 0  0.06 0.07000000000000001 0  0.07000000000000001 0.07000000000000001 0  0.08 0.07000000000000001 0  0.09 0.07000000000000001 0  0.1 0.07000000000000001 0  0.11 0.07000000000000001 0  0.12 0.07000000000000001 0  0.13 0.07000000000000001 0  0.14 0.07000000000000001 0  0.15 0.07000000000000001 0  0.16 0.07000000000000001 0  0.17 0.07000
[...]
<PointData  Scalars="rho_bar"> 
<DataArray  type="Float64"  Name="rho_bar"  format="ascii">9.1302740366192991e-01  9.1106733269716178e-01  9.0881640796263707e-01  9.0573451127595983e-01  9.0162750261238556e-01  8.9641382757742039e-01  8.9006836981316406e-01  8.8262277672290868e-01  8.7417861498424898e-01  8.6491160624323971e-01  8.5506978569679692e-01  8.4497292530479473e-01  8.3502227841696619e-01  8.2569348746164739e-01  8.1750180149884355e-01  8.1094726720069432e-01  8.0645408679685260e-01  8.0431122458413007e-01  8.0463533968525958e-01  8.0735614698016822e-01  8.1222945183574169e-01  8.1886034925680440e-01  8.2674882134926542e-01  8.3535809426243479e-01  8.4416758520092083e-01  8.5266974160340603e-01  8.6036609791511331e-01  8.6678566648813471e-01  8.7151115812461444e-01  8.7419624870965862e-01  8.7459976809028583e-01  8.7261340791663466e-01  8.6816228923007499e-01  8.6101402789357484e-01  8.5051715276213502e-01  8.3533835853093363e-01  8.1316062474029338e-01  7.8051496076662308e-01  7.3304948222337696e-01  6.6678062683227390e-01  5.8140106597202501e-01  4.8391138072786116e-01  3.8631165426225578e-01  2.9887472868942305e-01  2.2664190079343177e-01  1.7007144740373381e-01  1.2715673998735935e-01  9.5158541577948397e-02  7.1492977967384935e-02  5.4031870448267530e-02  4.1131627143637078e-02  3.1564459989882422e-02  2.4429911712361752e-02  1.9073611690144175e-02  1.5021973385813212e-02  1.1932351627011846e-02  9.5564238014354663e-03  7.7135645702950091e-03  6.2718274263344857e-03  5.1342778743734691e-03  4.2292987970049337e-03  3.5035992908855115e-03  2.9172685688632640e-03  2.4401758595154008e-03  2.0494166976010907e-03  1.7274250384697477e-03  1.4606351195950709e-03  1.2384750687030707e-03  1.0526515103425383e-03  8.9659639168246147e-04  7.6507634384737815e-04  6.5388559186945871e-04  5.5962399085536291e-04  4.7952165514173573e-04  4.1130942180821992e-04  3.5311712076992164e-04  3.0339587232959965e-04  2.6085546659040937e-04  2.2441736681731698e-04  1.9317664155888139e-04  1.6637090073629056e-04  1.4335663448748255e-04  1.2358840267277178e-04  1.0660427352972400e-04  9.2011041291627327e-05  7.9474584171028125e-05  6.8709896990366189e-05  5.9474717460832017e-05  5.1562225566751887e-05  4.4796769810817992e-05  3.9028715666815089e-05  3.4131688006627759e-05  2.9998576202519129e-05  2.6539832145687821e-05  2.3680606188948102e-05  2.1359972417348799e-05  1.9528704027577735e-05  1.8149153357568982e-05  1.7194602735431195e-05  1.6653790301210566e-05  1.6543965475358079e-05  9.0339584219010605e-01  9.0233139894825598e-01  9.0013746806888684e-01  8.9681168454821836e-01  8.9228596987119013e-01  8.8650449480673699e-01  8.7944593111632752e-01  8.7115028355324997e-01  8.6173861626016546e-01  8.5141951909997082e-01  8.4047733631171972e-01  8.2926850920153361e-01  8.1823594534952160e-01  8.0790798253781759e-01  7.9885375226387034e-01  7.9162528347789429e-01  7.8668816439620770e-01  7.8435907139566907e-01  7.8476108612505624e-01  7.8781463174862398e-01  7.9325201833738546e-01  8.0064408374651830e-01  8.0944041344948781e-01  8.1905417479403719e-01  8.2892831243461174e-01  8.3851919125654706e-01  8.4727762108602012e-01  8.5468355129545959e-01  8.6028447651785211e-01  8.6372239353239355e-01  8.6476403143635105e-01  8.6333892678980062e-01  8.5944941534722186e-01  8.5294360707993333e-01  8.4323122130685224e-01  8.2904142644868661e-01  8.0817150597996534e-01  7.7737465430100905e-01  7.3263855036154724e-01  6.7030600697250042e-01  5.8975175291625992e-01  4.9649867014728083e-01  4.0114699204518828e-01  3.1375121641931886e-01  2.3999967975639319e-01  1.8119446627678326e-01  1.3595443229859355e-01  1.0187977826145495e-01  7.6513137358654421e-02  5.7730406624494288e-02  4.3836363446617205e-02  3.3536942364059616e-02  2.5869186776377302e-02  2.0127107435420063e-02  1.5796980466216529e-02  1.2506214481193659e-02  9.9845756891473701e-03  8.0356921654275056e-03  6.5163319941178559e-03  5.3215627159321497e-03  4.3740619669654455e-03  3.6165100602785602e-03  3.0061021420752405e-03  2.5106552305123580e-03  2.1057740102832199e-03  1.7728287346269859e-03  1.4974648362206149e-03  1.2685434601359315e-03  1.0773421260590007e-03  9.1698207167523963e-04  7.8198940914028401e-04  6.6798070375707484e-04  5.7141775726105666e-04  4.8942608869007780e-04  4.1965440217280140e-04  3.6016907902387124e-04  3.0937066798774379e-04  2.6592969959664378e-04  2.2873597277304152e-04  1.9685895151936602e-04  1.6951620510387744e-04  1.4604706627874262e-04  1.2589329630260102e-04  1.0858118562097033e-04  9.3708992916607066e-05  8.0934547445659532e-05  6.9967131456726529e-05  6.0558841813084835e-05  5.2498937317350910e-05  4.5607759262730940e-05  3.9733101731036925e-05  3.4745696342537939e-05  3.0536701295641290e-05  2.7014425832129286e-05  2.4103022950594800e-05  2.1739975575505687e-05  1.9875244732962996e-05  1.8469674537796444e-05  1.7494644042307484e-05  1.6930103832947678e-05  1.6760052565190209e-05  8.7312811072443508e-01  8.7211232858988075e-01  8.6945475087641511e-01  8.6511480373480942e-01  8.5907163211527415e-01  8.5127973897983378e-01  8.4172476033858334e-01  8.3047911976506483e-01  8.1774351846062709e-01  8.0384944683337900e-01  7.8921838216007589e-01  7.7432611687914921e-01  7.5974936210770561e-01  7.4618761618470431e-01  7.3438317443066947e-01  7.2504047252369741e-01  7.1874702171062610e-01  7.1588890680265094e-01  7.1660001495108439e-01  7.2075755131866759e-01  7.2802663609083984e-01  7.3788558041455388e-01  7.4964187469888388e-01  7.6255357840389748e-01  7.7597901904006228e-01  7.8927611004003473e-01  8.0172041600582244e-01  8.1259908117232782e-01  8.2132010104009801e-01  8.2746731340749113e-01  8.3084620594262126e-01  8.3153821362848468e-01  8.2981355832052661e-01  8.2576588488417368e-01  8.1896092454901193e-01  8.0823777502300143e-01  7.9161146438556995e-01  7.6635290325234728e-01  7.2927873385162634e-01  6.7751183963959016e-01  6.1007801359239500e-01  5.2971217751699018e-01  4.4309553013427877e-01  3.5829519306221036e-01  2.8182363068727073e-01  2.1718587885019314e-01  1.6507478925666078e-01  1.2444616200190975e-01  9.3499430339702747e-02  7.0280877085821522e-02  5.3008894450849407e-02  4.0205549508610543e-02  3.0712221377637468e-02  2.3651663940099276e-02  1.8373564844039746e-02  1.4401742966020975e-02  1.1389815559285794e-02  9.0864786596777727e-03  7.3093648759439177e-03  5.9258051024463814e-03  4.8389086587877338e-03  3.9775223929185378e-03  3.2890685371967025e-03  2.7344091769335071e-03  2.2841882353802959e-03  1.9162028515010779e-03  1.6135210481949356e-03  1.3631166266814053e-03  1.1548857210594834e-03  9.8091921624302741e-04  8.3497825694504207e-04  7.1209970908863850e-04  6.0830601726419547e-04  5.2038507740420192e-04  4.4572529829387664e-04  3.8219039608203606e-04  3.2802213956308415e-04  2.8176526819277182e-04  2.4220982077743583e-04  2.0834554097614945e-04  1.7932541510552949e-04  1.5443710324292557e-04  1.3307933814456883e-04  1.1474427553887607e-04  9.9001146951256457e-05  8.5484694185768083e-05  7.3884258320407477e-05  6.3936083053967586e-05  5.5415610103605593e-05  4.8132287732470777e-05  4.1924184713217920e-05  3.6654449569443235e-05  3.2207475768574472e-05  2.8486433246225260e-05  2.5410657276671667e-05  2.2914107377251094e-05  2.0943452633163277e-05  1.9456834486764921e-05  1.8422423698399795e-05  1.7817347160011671e-05  1.7624188425983925e-05  8.0532250352437706e-01  8.0386019689423027e-01  8.0008265283227797e-01  7.9351809343670787e-01  7.8422301524563132e-01  7.7215943107695628e-01  7.5732204150935145e-01  7.3988564704159809e-01  7.2030122673672003e-01  6.9928382354408358e-01  6.7765098396453827e-01  6.5615138382791416e-01  6.3557036169555747e-01  6.1685981404121693e-01  6.0095833524074882e-01  5.8868777726355714e-01  5.8069566365585712e-01  5.7737900009179632e-01  5.7882519949854083e-01  5.8483169815461955e-01  5.9500770198927178e-01  6.0880002739781947e-01  6.2543036451387912e-01  6.4399265408062245e-01  6.6382044641856297e-01  6.8421245522413521e-01  7.0408284593265780e-01  7.2226997805323312e-01  7.3783641975715986e-01  7.5019968315972407e-01  7.5921511558458632e-01  7.6526567451574068e-01  7.6911323440681101e-01  7.7123776363288810e-01  7.7134020349654386e-01  7.6825985917076822e-01  7.6016269853393859e-01  7.4492063197843683e-01  7.2037301253973185e-01  6.8463649958034867e-01  6.3660779832021852e-01  5.7665397433467958e-01  5.0707035635686493e-01  4.3191471752160343e-01  3.5636187070467751e-01  2.8548784058545201e-01  2.2300819734178087e-01  1.7079284197698183e-01  1.2904004751538975e-01  9.6752354663517587e-02  7.2356150931644173e-02  5.4189839668484736e-02  4.0767955807104690e-02  3.0878422112165606e-02  2.3582758340244526e-02  1.8178022838221761e-02  1.4148412249699137e-02  1.1120038696617481e-02  8.8235084267727880e-03  7.0650999173482087e-03  5.7053379103107656e-03  4.6434371813022825e-03  3.8061565374401200e-03  3.1398998960932480e-03  2.6051349937326364e-03  2.1724496258095686e-03  1.8197658983393173e-03  1.5303541655926130e-03  1.2914172074558505e-03  1.0930754430875727e-03  9.2762983092419579e-04  7.8902877969589617e-04  6.7247357656926513e-04  5.7412851724032634e-04  4.9090441202267673e-04  4.2029513530194364e-04  3.6025458412712087e-04  3.0910177061840567e-04  2.6544798626413913e-04  2.2814061845781371e-04  1.9621862922720743e-04  1.6887751040602547e-04  1.4544171594541312e-04  1.2534198613197212e-04  1.0809803846768964e-04  9.3303196184984678e-05  8.0613154328326318e-05  6.9735650437834868e-05  6.0423030406910863e-05  5.2465006518395388e-05  4.5683609389574720e-05  3.9928250569671004e-05  3.5072183582282255e-05  3.1009117031476640e-05  2.7650755067969440e-05  2.4924625690258499e-05  2.2772159301773099e-05  2.1147337516447526e-05  2.0015167668308854e-05  1.9350411095222272e-05  1.9137285916404576e-05  6.6562775641311611e-01  6.6424248276444109e-01  6.5864275645262860e-01  6.4837890861512870e-01  6.3390534679403576e-01  6.1537130649521832e-01  5.9301635872172775e-01  5.6747405803119000e-01  5.3988244287422060e-01  5.1171290226800570e-01  4.8434756896855602e-01  4.5869648107743305e-01  4.3542343911502807e-01  4.1525131588793301e-01  3.9884687678898467e-01  3.8670519499568939e-01  3.7917157412701924e-01  3.7643173927352824e-01  3.7848781272895365e-01  3.8515196015501307e-01  3.9617416145813406e-01  4.1127718433641880e-01  4.3004431183264291e-01  4.5194653714349187e-01  4.7665384762986729e-01  5.0383608244372202e-01  5.3227970418717718e-01  5.6029928557595787e-01  5.8638168134869417e-01  6.0946640214325276e-01  6.2922638704579814e-01  6.4628533951226663e-01  6.6186637513172664e-01  6.7676641073213539e-01  6.9061237928485597e-01  7.0191033276144732e-01  7.0870782146544342e-01  7.0926848806672149e-01  7.0229238792689941e-01  6.8674509525021288e-01  6.6177284255157687e-01  6.2670924593036548e-01  5.8120939386539006e-01  5.2557565726327682e-01  4.6133837063049110e-01  3.9166140184672643e-01  3.2105946663057694e-01  2.5454245053269403e-01  1.9622433903754191e-01  1.4814814998213463e-01  1.1035080055288167e-01  8.1636777792350568e-02  6.0320851433898426e-02  4.4716915781900929e-02  3.3369254382579684e-02  2.5124333422313717e-02  1.9113197130527240e-02  1.4701720233830899e-02  1.1435602040885465e-02  8.9926003571043599e-03  7.1450460270205008e-03  5.7319483749309020e-03  4.6389754285013707e-03  3.7843923232277026e-03  3.1092877334058847e-03  2.5708124885469095e-03  2.1374833780417914e-03  1.7859310405428104e-03  1.4986217229781581e-03  1.2622604861353870e-03  1.0666628932302520e-03  9.0394710640305997e-04  7.6795547881713271e-04  6.5383185076656615e-04  5.5771386336086960e-04  4.7650451085564326e-04  4.0770155073327306e-04  3.4926922692163370e-04  2.9954085546213884e-04  2.5714383254774265e-04  2.2094213640756887e-04  1.8999099318440266e-04  1.6350154421439204e-04  1.4081291257406797e-04  1.2136950057053628e-04  1.0470345764569078e-04  9.0419573069394404e-05  7.8184047803528899e-05  6.7714287302140096e-05  5.8771395058442906e-05  5.1153290238729124e-05  4.4689558589401003e-05  3.9236795838793000e-05  3.4675081421012750e-05  3.0904736138127310e-05  2.7844080757310141e-05  2.5427139975437148e-05  2.3602027763209926e-05  2.2329470020739359e-05  2.1581949974466816e-05  2.1343098942271313e-05  4.3777882466753965e-01  4.3864683532141130e-01  4.3212136610424445e-01  4.2063647201498999e-01  4.0476105504756255e-01  3.8519720263917356e-01  3.6270075735333956e-01  3.3837210030309117e-01  3.1365216632598936e-01  2.9000131495622322e-01  2.6853777935995810e-01  2.4971357812976891e-01  2.3364067809476596e-01  2.2041071868560372e-01  2.1011370778044056e-01  2.0279829031745328e-01  1.9848392008015675e-01  1.9717222828484751e-01  1.9884342661102616e-01  2.0345484448899034e-01  2.1098525336145932e-01  2.2146750197102458e-01  2.3495696195626375e-01  2.5154611736852639e-01  2.7146665183992519e-01  2.9498544402683541e-01  3.2179714673254062e-01  3.5099208017322725e-01  3.8145493044158535e-01  4.1209245763872832e-01  4.4222502046759105e-01  4.7228043985883633e-01  5.0337943420829845e-01  5.3625190877225792e-01  5.7017959695034759e-01  6.0293677225568698e-01  6.3186240790817161e-01  6.5491663931299060e-01  6.7081236676323985e-01  6.7881891868921695e-01  6.7839712947139441e-01  6.6890447608575410e-01  6.4942370082238254e-01  6.1888184693378978e-01  5.7639900893443274e-01  5.2180132571495319e-01  4.5637125125434175e-01  3.8379317615746084e-01  3.1006470035713346e-01  2.4146816587633646e-01  1.8244545199621218e-01  1.3487057963794322e-01  9.8397633229234199e-02  7.1419974813099210e-02  5.1914223054123083e-02  3.7980040624606116e-02  2.8060937723012894e-02  2.0981511127335418e-02  1.5892603408678506e-02  1.2197069223380229e-02  9.4810707669111850e-03  7.4591132743231500e-03  5.9339254517277538e-03  4.7684500040444831e-03  3.8666968425733837e-03  3.1607680518707512e-03  2.6021071172776032e-03  2.1555718663007124e-03  1.7954235621026598e-03  1.5025788860314486e-03  1.2627206824221777e-03  1.0649844927588254e-03  9.0103273345289896e-04  7.6440085943265215e-04  6.5002515530466153e-04  5.5390301259438789e-04  4.7284235515265046e-04  4.0427708712204323e-04  3.4612904129184080e-04  2.9670383237196730e-04  2.5461128121900508e-04  2.1870478910277481e-04  1.8803378114439547e-04  1.6180695591264558e-04  1.3936313265293295e-04  1.2014793667683271e-04  1.0369578421244727e-04  8.9614456896514871e-05  7.7573529377160283e-05  6.7294190912324411e-05  5.8541487811791518e-05  5.1117551685411979e-05  4.4856386000166440e-05  3.9619224825871653e-05  3.5291160337407547e-05  3.1777793339036735e-05  2.9003297626748862e-05  2.6907844907833840e-05  2.5446711332679402e-05  2.4588575374479939e-05  2.4315535380359180e-05  2.2171867317404897e-01  2.2108591692535892e-01  2.1677801037466710e-01  2.0965392681393671e-01  1.9996426745501325e-01  1.8845584846244695e-01  1.7577504570426702e-01  1.6266582725092860e-01  1.4989977577777464e-01  1.3812036951092443e-01  1.2773455320813570e-01  1.1886347276879536e-01  1.1147766508912819e-01  1.0553110194370185e-01  1.0099240112001724e-01  9.7840647496959476e-02  9.6064459525735640e-02  9.5661665660404710e-02  9.6638932798077642e-02  9.9014697548564026e-02  1.0283326544284555e-01  1.0817994258200422e-01  1.1518934069533250e-01  1.2406333210822251e-01  1.3509945013286276e-01  1.4865955741495618e-01  1.6501394713493384e-01  1.8428600210903201e-01  2.0653878861380134e-01  2.3181989959545765e-01  2.6023552541819689e-01  2.9247497242220449e-01  3.2979445418802122e-01  3.7332002375805273e-01  4.2288660798218108e-01  4.7622033092448857e-01  5.2968645830453309e-01  5.7948919889409201e-01  6.2254558729166909e-01  6.5686692403179225e-01  6.8144563282087756e-01  6.9579163014650836e-01  6.9944829280285503e-01  6.9185693606959831e-01  6.7232318618257514e-01  6.3993465727932375e-01  5.9374279889554860e-01  5.3373335430179447e-01  4.6204080341414155e-01  3.8353608178317217e-01  3.0473021992733057e-01  2.3233316343020544e-01  1.7127519414336745e-01  1.2343747817350080e-01  8.7942641498652885e-02  6.2541630436700954e-02  4.4727030663779428e-02  3.2332909403771579e-02  2.3697688050465203e-02  1.7634265914800284e-02  1.3326527436302534e-02  1.0223058215473585e-02  7.9532351885393798e-03  6.2674608562118088e-03  4.9965298064943795e-03  4.0245857692314960e-03  3.2713299787711361e-03  2.6803674303520096e-03  2.2115330471279828e-03  1.8358268770654457e-03  1.5320206731780856e-03  1.2843688991774176e-03  1.0810447914968355e-03  9.1305442043740337e-04  7.7348174892372026e-04  6.5694903571487798e-04  5.5923367448921612e-04  4.7698810839268352e-04  4.0753583856701584e-04  3.4871981028579489e-04  2.9878910583710215e-04  2.5631283918913411e-04  2.2011520962887006e-04  1.8922457663788522e-04  1.6283467575092784e-04  1.4027375126722790e-04  1.2098019763656548e-04  1.0448367552028745e-04  9.0389141874969568e-05  7.8364819042607605e-05  6.8131798312503521e-05  5.9456008222584880e-05  5.2141365287942907e-05  4.6024558125141933e-05  4.0970261634436110e-05  3.6867901506807144e-05  3.3628285479068001e-05  3.1181732697773315e-05  2.9475723215179094e-05  2.8474300299542163e-05  2.8156763052104195e-05  1.0094803777536762e-01  1.0002787486687867e-01  9.8310578921033981e-02  9.5267508913805990e-02  9.1209703815964688e-02  8.6450510728928162e-02  8.1251803834909000e-02  7.5912238820424346e-02  7.0710058647457372e-02  6.5874766955541508e-02  6.1560866930958622e-02  5.7840860574900219e-02  5.4732775093113778e-02  5.2234706374066991e-02  5.0342369965876772e-02  4.9053772228031804e-02  4.8370456446272470e-02  4.8298590782460717e-02  4.8850651557572351e-02  5.0048188659203081e-02  5.1927616799642189e-02  5.4547624910599911e-02  5.7996779282646675e-02  6.2403560981077348e-02  6.7947285003425464e-02  7.4857787496335065e-02  8.3397419250001575e-02  9.3866022263069726e-02  1.0664804547033821e-01  1.2227489731914880e-01  1.4150536512870418e-01  1.6553130911530417e-01  1.9608859404836157e-01  2.3531317087264775e-01  2.8504171567041259e-01  3.4550402738284625e-01  4.1451622169424623e-01  4.8726803560068632e-01  5.5737397865008431e-01  6.1901396539200826e-01  6.6853327474731905e-01  7.0457784506301813e-01  7.2720986626580519e-01  7.3709259829012685e-01  7.3495195215140918e-01  7.2105786659557924e-01  6.9503282738616434e-01  6.5612853454726294e-01  6.0376037856372522e-01  5.3826204104041409e-01  4.6154385008430204e-01  3.7793711995818946e-01  2.9447077695070473e-01  2.1904063500200896e-01  1.5714551644317942e-01  1.1032543717086890e-01  7.6844031510276675e-02  5.3703179054914001e-02  3.7945029657006690e-02  2.7225436995203273e-02  1.9878085234378239e-02  1.4776651502704991e-02  1.1177272019753067e-02  8.5929523061581969e-03  6.7043570668884056e-03  5.3003438756423658e-03  4.2395680084074822e-03  3.4260158149397738e-03  2.7934559228602108e-03  2.2954718947374906e-03  1.8990301661437931e-03  1.5802610569902573e-03  1.3216626657236057e-03  1.1102244776845379e-03  9.3614326044231351e-04  7.9194309821559465e-04  6.7185387770638189e-04  5.7137511529406200e-04  4.8696025837724396e-04  4.1578907034835503e-04  3.5559958861305577e-04  3.0456385450797457e-04  2.6119377936297959e-04  2.2427103138091629e-04  1.9279213487301825e-04  1.6592700719559754e-04  1.4298609075789320e-04  1.2339464348598466e-04  1.0667272592065625e-04  9.2418590177528750e-05  8.0296038506801417e-05  7.0023640138943999e-05  6.1366530650663407e-05  5.4129267761556555e-05  4.8150628282491196e-05  4.3298702046562897e-05  3.9467702712322942e-05  3.6574630063531885e-05  3.4557675892633082e-05  3.3374059641151016e-05  3.2999671233578919e-05  4.8009530642599441e-02  4.7666631186102315e-02  4.6968754938132032e-02  4.5693718846057725e-02  4.4060791420911759e-02  4.2127026469494420e-02  4.0005364429277053e-02  3.7813725308380099e-02  3.5660431406556191e-02  3.3638905997779772e-02  3.1816198335132884e-02  3.0231215071188353e-02  2.8901997910345249e-02  2.7836432120775020e-02  2.7039301377102157e-02  2.6515226847255643e-02  2.6270112702533294e-02  2.6312270446387308e-02  2.6653465410001992e-02  2.7310722464139989e-02  2.8309148124229806e-02  2.96856313762