<?xml version="1.0"?>
<VTKFile type="UnstructuredGrid"  version="0.1"  >
<UnstructuredGrid>
<Piece  NumberOfPoints="5151" NumberOfCells="10000">
<Points>
<DataArray  type="Float64"  NumberOfComponents="3"  format="ascii">0 0 0  0.01 0 0  0.02 0 0  0.03 0 0  0.04 0 0  0.05 0 0  0.06 0 0  0.07000000000000001 0 0  0.08 0 0  0.09 0 0  0.1 0 0  0.11 0 0  0.12 0 0  0.13 0 0  0.14 0 0  0.15 0 0  0.16 0 0  0.17 0 0  0.18 0 0  0.19 0 0  0.2 0 0  0.21 0 0  0.22 0 0  0.23 0 0  0.24 0 0  0.25 0 0  0.26 0 0  0.27 0 0  0.28 0 0  0.29 0 0  0.3 0 0  0.31 0 0  0.32 0 0  0.33 0 0  0.34 0 0  0.35 0 0  0.36 0 0  0.37 0 0  0.38 0 0  0.39 0 0  0.4 0 0  0.41 0 0  0.42 0 0  0.43 0 0  0.44 0 0  0.45 0 0  0.46 0 0  0.47 0 0  0.48 0 0  0.49 0 0  0.5 0 0  0.51 0 0  0.52 0 0  0.53 0 0  0.54 0 0  0.55 0 0  0.5600000000000001 0 0  0.57 0 0  0.58 0 0  0.59 0 0  0.6 0 0  0.61 0 0  0.62 0 0  0.63 0 0  0.64 0 0  0.65 0 0  0.66 0 0  0.67 0 0  0.68 0 0  0.6899999999999999 0 0  0.7 0 0  0.71 0 0  0.72 0 0  0.73 0 0  0.74 0 0  0.75 0 0  0.76 0 0  0.77 0 0  0.78 0 0  0.79 0 0  0.8 0 0  0.8100000000000001 0 0  0.82 0 0  0.83 0 0  0.84 0 0  0.85 0 0  0.86 0 0  0.87 0 0  0.88 0 0  0.89 0 0  0.9 0 0  0.91 0 0  0.92 0 0  0.93 0 0  0.9399999999999999 0 0  0.95 0 0  0.96 0 0  0.97 0 0  0.98 0 0  0.99 0 0  1 0 0  0 0.01 0  0.01 0.01 0  0.02 0.01 0  0.03 0.01 0  0.04 0.01 0  0.05 0.01 0  0.06 0.01 0  0.07000000000000001 0.01 0  0.08 0.01 0  0.09 0.01 0  0.1 0.01 0  0.11 0.01 0  0.12 0.01 0  0.13 0.01 0  0.14 0.01 0  0.15 0.01 0  0.16 0.01 0  0.17 0.01 0  0.18 0.01 0  0.19 0.01 0  0.2 0.01 0  0.21 0.01 0  0.22 0.01 0  0.23 0.01 0  0.24 0.01 0  0.25 0.01 0  0.26 0.01 0  0.27 0.01 0  0.28 0.01 0  0.29 0.01 0  0.3 0.01 0  0.31 0.01 0  0.32 0.01 0  0.33 0.01 0  0.34 0.01 0  0.35 0.01 0  0.36 0.01 0  0.37 0.01 0  0.38 0.01 0  0.39 0.01 0  0.4 0.01 0  0.41 0.01 0  0.42 0.01 0  0.43 0.01 0  0.44 0.01 0  0.45 0.01 0  0.46 0.01 0  0.47 0.01 0  0.48 0.01 0  0.49 0.01 0  0.5 0.01 0  0.51 0.01 0  0.52 0.01 0  0.53 0.01 0  0.54 0.01 0  0.55 0.01 0  0.5600000000000001 0.01 0  0.57 0.01 0  0.58 0.01 0  0.59 0.01 0  0.6 0.01 0  0.61 0.01 0  0.62 0.01 0  0.63 0.01 0  0.64 0.01 0  0.65 0.01 0  0.66 0.01 0  0.67 0.01 0  0.68 0.01 0  0.6899999999999999 0.01 0  0.7 0.01 0  0.71 0.01 0  0.72 0.01 0  0.73 0.01 0  0.74 0.01 0  0.75 0.01 0  0.76 0.01 0  0.77 0.01 0  0.78 0.01 0  0.79 0.01 0  0.8 0.01 0  0.8100000000000001 0.01 0  0.82 0.01 0  0.83 0.01 0  0.84 0.01 0  0.85 0.01 0  0.86 0.01 0  0.87 0.01 0  0.88 0.01 0  0.89 0.01 0  0.9 0.01 0  0.91 0.01 0  0.92 0.01 0  0.93 0.01 0  0.9399999999999999 0.01 0  0.95 0.01 0  0.96 0.01 0  0.97 0.01 0  0.98 0.01 0  0.99 0.01 0  1 0.01 0  0 0.02 0  0.01 0.02 0  0.02 0.02 0  0.03 0.02 0  0.04 0.02 0  0.05 0.02 0  0.06 0.02 0  0.07000000000000001 0.02 0  0.08 0.02 0  0.09 0.02 0  0.1 0.02 0  0.11 0.02 0  0.12 0.02 0  0.13 0.02 0  0.14 0.02 0  0.15 0.02 0  0.16 0.02 0  0.17 0.02 0  0.18 0.02 0  0.19 0.02 0  0.2 0.02 0  0.21 0.02 0  0.22 0.02 0  0.23 0.02 0  0.24 0.02 0  0.25 0.02 0  0.26 0.02 0  0.27 0.02 0  0.28 0.02 0  0.29 0.02 0  0.3 0.02 0  0.31 0.02 0  0.32 0.02 0  0.33 0.02 0  0.34 0.02 0  0.35 0.02 0  0.36 0.02 0  0.37 0.02 0  0.38 0.02 0  0.39 0.02 0  0.4 0.02 0  0.41 0.02 0  0.42 0.02 0  0.43 0.02 0  0.44 0.02 0  0.45 0.02 0  0.46 0.02 0  0.47 0.02 0  0.48 0.02 0  0.49 0.02 0  0.5 0.02 0  0.51 0.02 0  0.52 0.02 0  0.53 0.02 0  0.54 0.02 0  0.55 0.02 0  0.5600000000000001 0.02 0  0.57 0.02 0  0.58 0.02 0  0.59 0.02 0  0.6 0.02 0  0.61 0.02 0  0.62 0.02 0  0.63 0.02 0  0.64 0.02 0  0.65 0.02 0  0.66 0.02 0  0.67 0.02 0  0.68 0.02 0  0.6899999999999999 0.02 0  0.7 0.02 0  0.71 0.02 0  0.72 0.02 0  0.73 0.02 0  0.74 0.02 0  0.75 0.02 0  0.76 0.02 0  0.77 0.02 0  0.78 0.02 0  0.79 0.02 0  0.8 0.02 0  0.8100000000000001 0.02 0  0.82 0.02 0  0.83 0.02 0  0.84 0.02 0  0.85 0.02 0  0.86 0.02 0  0.87 0.02 0  0.88 0.02 0  0.89 0.02 0  0.9 0.02 0  0.91 0.02 0  0.92 0.02 0  0.93 0.02 0  0.9399999999999999 0.02 0  0.95 0.02 0  0.96 0.02 0  0.97 0.02 0  0.98 0.02 0  0.99 0.02 0  1 0.02 0  0 0.03 0  0.01 0.03 0  0.02 0.03 0  0.03 0.03 0  0.04 0.03 0  0.05 0.03 0  0.06 0.03 0  0.07000000000000001 0.03 0  0.08 0.03 0  0.09 0.03 0  0.1 0.03 0  0.11 0.03 0  0.12 0.03 0  0.13 0.03 0  0.14 0.03 0  0.15 0.03 0  0.16 0.03 0  0.17 0.03 0  0.18 0.03 0  0.19 0.03 0  0.2 0.03 0  0.21 0.03 0  0.22 0.03 0  0.23 0.03 0  0.24 0.03 0  0.25 0.03 0  0.26 0.03 0  0.27 0.03 0  0.28 0.03 0  0.29 0.03 0  0.3 0.03 0  0.31 0.03 0  0.32 0.03 0  0.33 0.03 0  0.34 0.03 0  0.35 0.03 0  0.36 0.03 0  0.37 0.03 0  0.38 0.03 0  0.39 0.03 0  0.4 0.03 0  0.41 0.03 0  0.42 0.03 0  0.43 0.03 0  0.44 0.03 0  0.45 0.03 0  0.46 0.03 0  0.47 0.03 0  0.48 0.03 0  0.49 0.03 0  0.5 0.03 0  0.51 0.03 0  0.52 0.03 0  0.53 0.03 0  0.54 0.03 0  0.55 0.03 0  0.5600000000000001 0.03 0  0.57 0.03 0  0.58 0.03 0  0.59 0.03 0  0.6 0.03 0  0.61 0.03 0  0.62 0.03 0  0.63 0.03 0  0.64 0.03 0  0.65 0.03 0  0.66 0.03 0  0.67 0.03 0  0.68 0.03 0  0.6899999999999999 0.03 0  0.7 0.03 0  0.71 0.03 0  0.72 0.03 0  0.73 0.03 0  0.74 0.03 0  0.75 0.03 0  0.76 0.03 0  0.77 0.03 0  0.78 0.03 0  0.79 0.03 0  0.8 0.03 0  0.8100000000000001 0.03 0  0.82 0.03 0  0.83 0.03 0  0.84 0.03 0  0.85 0.03 0  0.86 0.03 0  0.87 0.03 0  0.88 0.03 0  0.89 0.03 0  0.9 0.03 0  0.91 0.03 0  0.92 0.03 0  0.93 0.03 0  0.9399999999999999 0.03 0  0.95 0.03 0  0.96 0.03 0  0.97 0.03 0  0.98 0.03 0  0.99 0.03 0  1 0.03 0  0 0.04 0  0.01 0.04 0  0.02 0.04 0  0.03 0.04 0  0.04 0.04 0  0.05 0.04 0  0.06 0.04 0  0.07000000000000001 0.04 0  0.08 0.04 0  0.09 0.04 0  0.1 0.04 0  0.11 0.04 0  0.12 0.04 0  0.13 0.04 0  0.14 0.04 0  0.15 0.04 0  0.16 0.04 0  0.17 0.04 0  0.18 0.04 0  0.19 0.04 0  0.2 0.04 0  0.21 0.04 0  0.22 0.04 0  0.23 0.04 0  0.24 0.04 0  0.25 0.04 0  0.26 0.04 0  0.27 0.04 0  0.28 0.04 0  0.29 0.04 0  0.3 0.04 0  0.31 0.04 0  0.32 0.04 0  0.33 0.04 0  0.34 0.04 0  0.35 0.04 0  0.36 0.04 0  0.37 0.04 0  0.38 0.04 0  0.39 0.04 0  0.4 0.04 0  0.41 0.04 0  0.42 0.04 0  0.43 0.04 0  0.44 0.04 0  0.45 0.04 0  0.46 0.04 0  0.47 0.04 0  0.48 0.04 0  0.49 0.04 0  0.5 0.04 0  0.51 0.04 0  0.52 0.04 0  0.53 0.04 0  0.54 0.04 0  0.55 0.04 0  0.5600000000000001 0.04 0  0.57 0.04 0  0.58 0.04 0  0.59 0.04 0  0.6 0.04 0  0.61 0.04 0  0.62 0.04 0  0.63 0.04 0  0.64 0.04 0  0.65 0.04 0  0.66 0.04 0  0.67 0.04 0  0.68 0.04 0  0.6899999999999999 0.04 0  0.7 0.04 0  0.71 0.04 0  0.72 0.04 0  0.73 0.04 0  0.74 0.04 0  0.75 0.04 0  0.76 0.04 0  0.77 0.04 0  0.78 0.04 0  0.79 0.04 0  0.8 0.04 0  0.8100000000000001 0.04 0  0.82 0.04 0  0.83 0.04 0  0.84 0.04 0  0.85 0.04 0  0.86 0.04 0  0.87 0.04 0  0.88 0.04 0  0.89 0.04 0  0.9 0.04 0  0.91 0.04 0  0.92 0.04 0  0.93 0.04 0  0.9399999999999999 0.04 0  0.95 0.04 0  0.96 0.04 0  0.97 0.04 0  0.98 0.04 0  0.99 0.04 0  1 0.04 0  0 0.05 0  0.01 0.05 0  0.02 0.05 0  0.03 0.05 0  0.04 0.05 0  0.05 0.05 0  0.06 0.05 0  0.07000000000000001 0.05 0  0.08 0.05 0  0.09 0.05 0  0.1 0.05 0  0.11 0.05 0  0.12 0.05 0  0.13 0.05 0  0.14 0.05 0  0.15 0.05 0  0.16 0.05 0  0.17 0.05 0  0.18 0.05 0  0.19 0.05 0  0.2 0.05 0  0.21 0.05 0  0.22 0.05 0  0.23 0.05 0  0.24 0.05 0  0.25 0.05 0  0.26 0.05 0  0.27 0.05 0  0.28 0.05 0  0.29 0.05 0  0.3 0.05 0  0.31 0.05 0  0.32 0.05 0  0.33 0.05 0  0.34 0.05 0  0.35 0.05 0  0.36 0.05 0  0.37 0.05 0  0.38 0.05 0  0.39 0.05 0  0.4 0.05 0  0.41 0.05 0  0.42 0.05 0  0.43 0.05 0  0.44 0.05 0  0.45 0.05 0  0.46 0.05 0  0.47 0.05 0  0.48 0.05 0  0.49 0.05 0  0.5 0.05 0  0.51 0.05 0  0.52 0.05 0  0.53 0.05 0  0.54 0.05 0  0.55 0.05 0  0.5600000000000001 0.05 0  0.57 0.05 0  0.58 0.05 0  0.59 0.05 0  0.6 0.05 0  0.61 0.05 0  0.62 0.05 0  0.63 0.05 0  0.64 0.05 0  0.65 0.05 0  0.66 0.05 0  0.67 0.05 0  0.68 0.05 0  0.6899999999999999 0.05 0  0.7 0.05 0  0.71 0.05 0  0.72 0.05 0  0.73 0.05 0  0.74 0.05 0  0.75 0.05 0  0.76 0.05 0  0.77 0.05 0  0.78 0.05 0  0.79 0.05 0  0.8 0.05 0  0.8100000000000001 0.05 0  0.82 0.05 0  0.83 0.05 0  0.84 0.05 0  0.85 0.05 0  0.86 0.05 0  0.87 0.05 0  0.88 0.05 0  0.89 0.05 0  0.9 0.05 0  0.91 0.05 0  0.92 0.05 0  0.93 0.05 0  0.9399999999999999 0.05 0  0.95 0.05 0  0.96 0.05 0  0.97 0.05 0  0.98 0.05 0  0.99 0.05 0  1 0.05 0  0 0.06 0  0.01 0.06 0  0.02 0.06 0  0.03 0.06 0  0.04 0.06 0  0.05 0.06 0  0.06 0.06 0  0.07000000000000001 0.06 0  0.08 0.06 0  0.09 0.06 0  0.1 0.06 0  0.11 0.06 0  0.12 0.06 0  0.13 0.06 0  0.14 0.06 0  0.15 0.06 0  0.16 0.06 0  0.17 0.06 0  0.18 0.06 0  0.19 0.06 0  0.2 0.06 0  0.21 0.06 0  0.22 0.06 0  0.23 0.06 0  0.24 0.06 0  0.25 0.06 0  0.26 0.06 0  0.27 0.06 0  0.28 0.06 0  0.29 0.06 0  0.3 0.06 0  0.31 0.06 0  0.32 0.06 0  0.33 0.06 0  0.34 0.06 0  0.35 0.06 0  0.36 0.06 0  0.37 0.06 0  0.38 0.06 0  0.39 0.06 0  0.4 0.06 0  0.41 0.06 0  0.42 0.06 0  0.43 0.06 0  0.44 0.06 0  0.45 0.06 0  0.46 0.06 0  0.47 0.06 0  0.48 0.06 0  0.49 0.06 0  0.5 0.06 0  0.51 0.06 0  0.52 0.06 0  0.53 0.06 0  0.54 0.06 0  0.55 0.06 0  0.5600000000000001 0.06 0  0.57 0.06 0  0.58 0.06 0  0.59 0.06 0  0.6 0.06 0  0.61 0.06 0  0.62 0.06 0  0.63 0.06 0  0.64 0.06 0  0.65 0.06 0  0.66 0.06 0  0.67 0.06 0  0.68 0.06 0  0.6899999999999999 0.06 0  0.7 0.06 0  0.71 0.06 0  0.72 0.06 0  0.73 0.06 0  0.74 0.06 0  0.75 0.06 0  0.76 0.06 0  0.77 0.06 0  0.78 0.06 0  0.79 0.06 0  0.8 0.06 0  0.8100000000000001 0.06 0  0.82 0.06 0  0.83 0.06 0  0.84 0.06 0  0.85 0.06 0  0.86 0.06 0  0.87 0.06 0  0.88 0.06 0  0.89 0.06 0  0.9 0.06 0  0.91 0.06 0  0.92 0.06 0  0.93 0.06 0  0.9399999999999999 0.06 0  0.95 0.06 0  0.96 0.06 0  0.97 0.06 0  0.98 0.06 0  0.99 0.06 0  1 0.06 0  0 0.07000000000000001 0  0.01 0.07000000000000001 0  0.02 0.07000000000000001 0  0.03 0.07000000000000001 0  0.04 0.07000000000000001 0  0.05 0.07000000000000001 0  0.06 0.07000000000000001 0  0.07000000000000001 0.07000000000000001 0  0.08 0.07000000000000001 0  0.09 0.07000000000000001 0  0.1 0.07000000000000001 0  0.11 0.07000000000000001 0  0.12 0.07000000000000001 0  0.13 0.07000000000000001 0  0.14 0.07000000000000001 0  0.15 0.07000000000000001 0  0.16 0.07000000000000001 0  0.17 0.07000
[...]
<PointData  Scalars="rho_bar"> 
<DataArray  type="Float64"  Name="rho_bar"  format="ascii">9.9666762628785333e-01  9.9797276721918238e-01  9.9708597666784482e-01  9.9710258552593445e-01  9.9721592939898451e-01  9.9774585121670545e-01  9.9859036640980536e-01  9.9954882064774275e-01  1.0003558070341387e+00  1.0008108449255828e+00  1.0008320164807514e+00  1.0004331890080260e+00  9.9970124012734496e-01  9.9880888556737957e-01  9.9798819164257713e-01  9.9743058258996498e-01  9.9720914012712514e-01  9.9728822794196559e-01  9.9757701658017595e-01  9.9797611598308789e-01  9.9840507192814820e-01  9.9881554889585600e-01  9.9919211873979918e-01  9.9953658139192780e-01  9.9985023755389502e-01  1.0001315541652249e+00  1.0003768429130306e+00  1.0005719703032820e+00  1.0006809519962270e+00  1.0006362325017086e+00  1.0003936119411827e+00  1.0000723432448504e+00  9.9990592519590971e-01  9.9993698397971353e-01  9.9999877172184493e-01  9.9997224859820977e-01  1.0000254041133316e+00  1.0000870466092902e+00  9.9721996107194943e-01  1.0122195418468978e+00  8.5396140161789047e-01  1.0553735306327336e-01  4.6613256786523539e-03  8.1030710254494597e-04  1.3967057815869651e-04  2.5317578217739529e-05  -2.8289795910887205e-05  1.1125521599101658e-05  7.2413563702223789e-06  3.6109820556374053e-07  -1.2736551977257166e-06  -1.8721613802776570e-08  2.9529809154036818e-07  -6.5198113295720784e-09  -2.9462596381671482e-08  2.0566176143231075e-08  4.7383287487414436e-09  -7.2063817617140711e-10  2.3655373201785400e-09  8.8301843871583518e-10  4.7988038926961336e-10  5.0233333956881127e-10  2.8854346354101242e-10  2.2548584246067485e-10  1.7015330486091960e-10  1.2620568848990039e-10  9.8957684215594100e-11  7.6931140239409100e-11  6.1060576316608617e-11  4.8868635169404045e-11  3.9463717510542426e-11  3.2128043469980925e-11  2.6322028386041186e-11  2.1690236822099638e-11  1.7958627598043315e-11  1.4930364587761980e-11  1.2455950949182411e-11  1.0422548007500654e-11  8.7430907963342353e-12  7.3500622158629068e-12  6.1903601247713197e-12  5.2219768791350037e-12  4.4111344267820683e-12  3.7309026201469504e-12  3.1591832639910045e-12  2.6781229449995882e-12  2.2730141625007232e-12  1.9317504504062491e-12  1.6443920336872887e-12  1.4026134716848560e-12  1.1996058550172909e-12  1.0296859380508360e-12  8.8812034237865789e-13  7.7108708039236964e-13  6.7534432910266670e-13  5.9839017970726700e-13  5.3812564097932194e-13  4.9301648584186844e-13  4.6192133204945469e-13  4.4426232580519666e-13  4.4036795117173481e-13  1.0075157372861157e+00  1.0032156753345525e+00  1.0048694949053236e+00  1.0050746248398033e+00  1.0050015609726075e+00  1.0041685595185228e+00  1.0025321674906462e+00  1.0003706914170170e+00  9.9820080888396900e-01  9.9654854582801189e-01  9.9575408081153283e-01  9.9593997461679173e-01  9.9705680122298712e-01  9.9886221980340895e-01  1.0009000089988775e+00  1.0026554905352014e+00  1.0037944587858154e+00  1.0042479433150997e+00  1.0041346386739818e+00  1.0036493285535752e+00  1.0029811791328558e+00  1.0022696662463588e+00  1.0015857835107771e+00  1.0009449553768128e+00  1.0003477046306697e+00  9.9980071542115478e-01  9.9931145655211273e-01  9.9889729679521844e-01  9.9860714723935340e-01  9.9854350105161538e-01  9.9884814756131557e-01  9.9948680038201543e-01  1.0000415734252939e+00  1.0001487697729674e+00  1.0000100562004799e+00  9.9995945415088605e-01  1.0000091581960382e+00  9.9969193381911770e-01  1.0007632891344775e+00  9.9583837069596481e-01  9.2199179061430547e-01  1.6668183703010850e-01  3.5978389656571579e-03  1.6980063075564425e-03  1.3570048959562575e-04  -5.9693165635351733e-05  1.0167633594417299e-04  7.6930743101760298e-06  -1.7680416163576477e-05  -5.2450832650578224e-06  2.9955593721227192e-06  1.4572479228404934e-06  -5.2820929023975703e-07  -1.4986593756630075e-07  1.4103351047113181e-07  -1.2224771484818357e-09  -1.4168121990284546e-08  1.0441272060577362e-08  8.4726882881707059e-10  9.8712210906827621e-11  1.1917683862023439e-09  3.1679795054028853e-10  3.3065913150565961e-10  2.5408855892558740e-10  1.6623865776564461e-10  1.3666912434272139e-10  1.0152809939301983e-10  7.9928068219115309e-11  6.3120053215270803e-11  5.0334750556518991e-11  4.0618933848169321e-11  3.2989298613666578e-11  2.6998405451406827e-11  2.2218580168385735e-11  1.8378467914896766e-11  1.5266303387292097e-11  1.2727175922728518e-11  1.0642998847248402e-11  8.9234308627242897e-12  7.4983592015552590e-12  6.3129046520996132e-12  5.3235796711235595e-12  4.4957626124888356e-12  3.8015244471682266e-12  3.2183301344297731e-12  2.7277563178005846e-12  2.3147491036092074e-12  1.9669437149161427e-12  1.6741124644861316e-12  1.4277885373780099e-12  1.2209929098889263e-12  1.0479267612443826e-12  9.0377876345087986e-13  7.8459312637363083e-13  6.8714021274940289e-13  6.0878947820634085e-13  5.4745259969327436e-13  5.0147668385898289e-13  4.6974427201587498e-13  4.5137718667818660e-13  4.4577629329610743e-13  9.7251859449275568e-01  9.8746189587932753e-01  9.8232100971862502e-01  9.8075091732514830e-01  9.7964105579995508e-01  9.8059172602885747e-01  9.8416170695460070e-01  9.8996715197628193e-01  9.9655776397332319e-01  1.0021104022944456e+00  1.0052830029836868e+00  1.0055664586114514e+00  1.0030607395565367e+00  9.9828408772735600e-01  9.9233329382002888e-01  9.8677717759638295e-01  9.8294447260167672e-01  9.8136105563374731e-01  9.8181934642787272e-01  9.8372177882093537e-01  9.8639804986391277e-01  9.8929729002689692e-01  9.9208159759934600e-01  9.9464431962726507e-01  9.9700129664843518e-01  9.9915424486437354e-01  1.0010870554305056e+00  1.0027755057070289e+00  1.0041168272273466e+00  1.0048608096279890e+00  1.0045616572324292e+00  1.0028611450500131e+00  1.0005255285686543e+00  9.9934126631884801e-01  9.9964329488784898e-01  1.0000362888546399e+00  9.9996621354768134e-01  9.9992350914993755e-01  9.9992019418591616e-01  9.9577005110404126e-01  9.8554000782290374e-01  4.3363767679809834e-01  4.6288570918034243e-03  8.3031241555747200e-03  -8.5320325785732303e-04  8.4900818011589339e-04  -2.8827511469024488e-04  -1.2599220503343002e-04  5.3469499638331562e-05  4.5526057162175903e-05  -1.6657676434580517e-06  -9.3327025491135145e-06  4.7157951242855046e-07  1.6381717550483344e-06  -3.6633833494817967e-07  -1.4287087780225141e-07  1.1745887349473243e-07  -1.6766433369190419e-08  -5.9842916626810869e-09  7.9718530896805774e-09  -1.3478632291584875e-09  7.8390299884938916e-10  5.6669933810894484e-10  1.5345749186944935e-10  2.5285919274965414e-10  1.3842133309890874e-10  1.1709185427217947e-10  8.9265521436064182e-11  6.9214387936120718e-11  5.5410888302314210e-11  4.4156048852693802e-11  3.5788173836768416e-11  2.9130443044107103e-11  2.3897190839697638e-11  1.9704978485056493e-11  1.6327099928025396e-11  1.3582146260001096e-11  1.1337256285028587e-11  9.4907627216287069e-12  7.9645432871244004e-12  6.6978172038583050e-12  5.6427252775979439e-12  4.7612811192016056e-12  4.0231514317409746e-12  3.4038067722515870e-12  2.8833612128810155e-12  2.4455893226023818e-12  2.0771860970235563e-12  1.7672181091124837e-12  1.5066103208914623e-12  1.2879308075080939e-12  1.1049639396406045e-12  9.5264530568221089e-13  8.2672895171717409e-13  7.2380094213083398e-13  6.4101920706982856e-13  5.7623986985082533e-13  5.2766166770511281e-13  4.9401431203220907e-13  4.7439375275860110e-13  4.6808000424986381e-13  1.0787477482087888e+00  1.0383400248614736e+00  1.0499711168697814e+00  1.0555319667236698e+00  1.0586688205186976e+00  1.0545955595031122e+00  1.0393076754762698e+00  1.0116675476778174e+00  9.7526738832515214e-01  9.3783038404688623e-01  9.0822651259473453e-01  8.9331885279699674e-01  8.9617681941815774e-01  9.1604795026050523e-01  9.4812582468196493e-01  9.8397917753795072e-01  1.0148771243729315e+00  1.0357952162174120e+00  1.0459904117943311e+00  1.0474272439372427e+00  1.0430570924882172e+00  1.0356544184194023e+00  1.0272618121739265e+00  1.0189666198362159e+00  1.0110477408213734e+00  1.0035732259100438e+00  9.9669692412331157e-01  9.9052484116975870e-01  9.8529158857072974e-01  9.8165266014880548e-01  9.8088968304495872e-01  9.8478003793823499e-01  9.9327577651927668e-01  1.0008543881013245e+00  1.0020051739268436e+00  1.0000077268744492e+00  9.9963388494090377e-01  9.9992886050326268e-01  9.9952171645373711e-01  9.9922566266794632e-01  9.9085190665109013e-01  8.5509859153916368e-01  1.8308787879763061e-01  1.0580215001895911e-02  6.2047641593933455e-03  -2.8267073213454020e-03  3.6486128626055553e-04  9.4587788948983988e-04  2.9883453489686922e-05  -2.2984044087682426e-04  -6.1019301797722277e-05  4.1623991343485455e-05  1.3126174448339542e-05  -8.2416239370969157e-06  -5.4346595454283062e-07  1.4996982021410961e-06  -4.0112720828983374e-07  -5.4325023885593357e-08  9.0442386771486880e-08  -3.0899323179583602e-08  5.8044016349544367e-09  2.8218005190237529e-09  -1.1738295713222943e-09  1.0678616138255337e-09  6.4273216641475796e-11  2.1788640814931032e-10  1.4414165577457201e-10  1.0020252654446955e-10  8.4725770595189385e-11  6.2976490007322515e-11  5.1182420101156530e-11  4.0644148310125972e-11  3.2987638096993241e-11  2.6865204492283256e-11  2.2049515094677424e-11  1.8191429935355996e-11  1.5079401355862620e-11  1.2549223994921496e-11  1.0478518331245357e-11  8.7744275485494782e-12  7.3652340624352223e-12  6.1951824071151043e-12  5.2203491238899821e-12  4.4058603496367277e-12  3.7237896462004206e-12  3.1515781623359213e-12  2.6709454663672199e-12  2.2669673309243884e-12  1.9273784805763724e-12  1.6421428984337813e-12  1.4029337127400046e-12  1.2029694913577977e-12  1.0365143569818883e-12  8.9901762714996215e-13  7.8661974746006457e-13  6.9630020004652819e-13  6.2556266959363793e-13  5.7251063777796996e-13  5.3574804935715091e-13  5.1419582183560692e-13  5.0725641831865768e-13  6.1978951125588111e-01  6.7957027116995861e-01  6.3941685576982610e-01  5.7766653075605767e-01  4.9509587508961783e-01  3.9817865027324673e-01  2.9770132690990558e-01  2.0520393450761157e-01  1.2974169015980488e-01  7.5555869986749624e-02  4.2212226943820354e-02  2.6919150499438049e-02  2.6888812975009529e-02  4.1741087973519997e-02  7.3905757989047124e-02  1.2637168103328947e-01  1.9883381532625180e-01  2.8737551244382809e-01  3.8598682096292425e-01  4.8735017081990867e-01  5.8473323812350331e-01  6.7306844729620408e-01  7.4935856925612798e-01  8.1319808395111592e-01  8.6671013615038217e-01  9.1289842449242975e-01  9.5313463882856941e-01  9.8807172851392699e-01  1.0181210480139766e+00  1.0421934966689459e+00  1.0570610512697534e+00  1.0569033183806256e+00  1.0365333700770321e+00  1.0047334374728083e+00  9.8901091014309994e-01  9.9548493004362737e-01  1.0007021790723205e+00  9.9948596834597792e-01  9.9935323596280523e-01  9.9908680023152074e-01  9.9515674966205647e-01  9.8816101080387653e-01  8.1838174320833967e-01  2.2183690663384661e-01  -9.7234251503221115e-03  1.4560462960013624e-02  4.6492518274744397e-03  -3.7645413090565067e-03  -1.4591832504711551e-03  7.6269097797312837e-04  5.9076961284155148e-04  -6.4581954209876733e-05  -1.1993452815618683e-04  1.9377937202309328e-05  1.6610436941057305e-05  -7.2971087862478252e-06  4.0146967576346762e-08  1.0945493117222973e-06  -4.7920890047696287e-07  8.9030481432585875e-08  2.4169905655967328e-08  -2.1651491017032788e-08  1.0750476815083771e-08  -2.2875961580751880e-09  8.1677477275902465e-10  3.0700680485848262e-10  1.0249017173586996e-10  1.7567894682757446e-10  8.6495531420311056e-11  8.3468759142300034e-11  5.9920765421663363e-11  4.8934669794236393e-11  3.8820547595039341e-11  3.1457665045843303e-11  2.5616958459543759e-11  2.1010941925687727e-11  1.7330354368626481e-11  1.4361271228230231e-11  1.1949159334828991e-11  9.9756280116144838e-12  8.3520808783512324e-12  7.0098740213453297e-12  5.8957767396807412e-12  4.9678977774957362e-12  4.1928998492322019e-12  3.5442523607236810e-12  3.0004724020186549e-12  2.5441509939306935e-12  2.1610966724120373e-12  1.8397250985200090e-12  1.5705309648863413e-12  1.3455959075244308e-12  1.1585525384644526e-12  1.0041054452094156e-12  8.7792223473128183e-13  7.7652905982933530e-13  6.9715508945615101e-13  6.3763647213950017e-13  5.9632321122744661e-13  5.7211870062097025e-13  5.6437338851306682e-13  -1.8697623610611513e-02  -6.7629350546874842e-02  -7.5655772107866046e-02  -7.8677279641322775e-02  -7.9426140221916089e-02  -7.3477830184115023e-02  -6.1379996828280929e-02  -4.5711426053748359e-02  -2.9851278225855257e-02  -1.6561073519530133e-02  -7.1982865396839502e-03  -1.8727046820857178e-03  -9.2353144225810617e-05  -1.4651753937756965e-03  -6.1281554381078761e-03  -1.4488354414329923e-02  -2.6332143990590834e-02  -4.0282749316326312e-02  -5.4090654483515611e-02  -6.5080448377250646e-02  -7.0708949229961751e-02  -6.9178797508677822e-02  -5.9924489914912858e-02  -4.3698684235956305e-02  -2.1664130519225739e-02  6.1682057779716458e-03  4.0470308775195842e-02  8.2226344772364540e-02  1.3443612865225749e-01  2.0259260335519913e-01  2.9523877362730649e-01  4.2650424511789947e-01  6.0788545822547968e-01  8.2142024133341196e-01  9.8545710784925789e-01  1.0173535109459870e+00  9.9314393640079390e-01  9.9613894870620345e-01  9.9965254664312486e-01  9.9832085194470233e-01  9.9884787613053128e-01  9.9389462091635250e-01  9.8966669796839946e-01  9.3849927269373690e-01  5.1459143163379817e-01  5.8860994036339313e-02  -2.6339084864721248e-02  1.0544592182772632e-02  1.1861687596513754e-02  1.0028504594205684e-05  -3.2009173570321488e-03  -6.4842476143070222e-04  6.2042926967497336e-04  1.0303190356526015e-04  -1.1561375640211157e-04  1.4802865977835400e-05  1.2292501856977579e-05  -7.0162607131047790e-06  1.5389187498355316e-06  2.1424082388943342e-07  -3.0141410792807687e-07  1.4282654704595568e-07  -3.9594036628864969e-08  7.7915289198887653e-09  1.1895927302701506e-09  -7.3046021239462478e-10  8.2568416329546410e-10  -3.3801530514755193e-11  2.0456512361260756e-10  8.1251206379129072e-11  8.2474992761857358e-11  5.9250197563300116e-11  4.7874471298003837e-11  3.8091478372953147e-11  3.0752382075842099e-11  2.5036299147296734e-11  2.0508310876978461e-11  1.6905116649567439e-11  1.3999460479594498e-11  1.1642224136925624e-11  9.7150918731743908e-12  8.1310027861425429e-12  6.8223068580075090e-12  5.7367503711215730e-12  4.8331908969319779e-12  4.0791462174822444e-12  3.4485729394135085e-12  2.9204846240576801e-12  2.4780393536588350e-12  2.1073607315955182e-12  1.7972237246347398e-12  1.5383792366701378e-12  1.3233376540558717e-12  1.1458805888628460e-12  1.0010064779831533e-12  8.8462923742861973e-13  7.9356568272367593e-13  7.2526108542611846e-13  6.7790322138908593e-13  6.5014341591967537e-13  6.4129310923257091e-13  -2.2496566103383228e-04  1.3904402457052246e-02  2.1527739420174184e-02  2.1850199644043299e-02  2.2197801882962040e-02  2.1320949344124457e-02  1.8650695651834078e-02  1.4698598855660445e-02  1.0285445619438610e-02  6.2601467833148213e-03  3.1739860213510205e-03  1.2014657862041821e-03  2.6389768347283255e-04  2.2150533662663251e-04  1.0378720222313615e-03  2.8115260431651589e-03  5.6026915134090478e-03  9.2119142462267559e-03  1.3153482237765678e-02  1.6770034244367685e-02  1.9367099214481889e-02  2.0373724964419936e-02  1.9492941645229349e-02  1.6789026938795620e-02  1.2596453462980588e-02  7.1624918646382221e-03  5.1253922409281332e-04  -7.3332839653695364e-03  -1.6459568036996740e-02  -2.7137294938174711e-02  -3.9354536452156204e-02  -5.1811581122296065e-02  -5.7172119433959626e-02  -2.6730685160342448e-02  1.1983444242911505e-01  4.7810984115936905e-01  8.7985895532699410e-01  9.9427166539628831e-01  9.8916731412127012e-01  9.9928125327339434e-01  9.9821699058621038e-01  9.9889307627806667e-01  9.9807676096109221e-01  9.8862509866996640e-01  1.0050528136111332e+00  9.0740724654995697e-01  5.0107397886219729e-01  9.4775045261571836e-02  -3.9241869104250655e-02  -1.4724349536683412e-02  1.2143807242626639e-02  7.8039422559179530e-03  -1.4385149865409491e-03  -1.4261054867986645e-03  4.4432182965714107e-04  1.0900720037481873e-04  -9.9131322918118118e-05  2.6573620242316865e-05  1.2377316178418398e-06  -3.9971221936662098e-06  1.9951611305963999e-06  -5.9289089972475494e-07  1.0807459501905765e-07  8.6556590352791741e-09  -1.4213913164887779e-08  8.5551872706556996e-09  -2.6567883108749644e-09  1.2484841558538957e-09  -8.9890576936455885e-11  2.0691598881620135e-10  8.6854382986455906e-11  8.0676769266009151e-11  6.0279007192370674e-11  4.7582197976803588e-11  3.8092318064171536e-11  3.0599936445758648e-11  2.4906740915385285e-11  2.0370017013454435e-11  1.6777698885482449e-11  1.3882399909136587e-11  1.1537446860944894e-11  9.6223180480279128e-12  8.0496932751144664e-12  6.7516082879263986e-12  5.6758047827055332e-12  4.7812026853756211e-12  4.0353532006466218e-12  3.4123942169069362e-12  2.8915158031826915e-12  2.4559596195301722e-12  2.0921179153105935e-12  1.7888642294758381e-12  1.5371461966915942e-12  1.3296622727036375e-12  1.1603627482451988e-12  1.0244681443131465e-12  9.1816834928564691e-13  8.3849175398716645e-13  7.8322461048558196e-13  7.5087135648050186e-13  7.4055687591339252e-13  6.1651043346239089e-04  -1.6774181823950879e-03  -5.0207427033715597e-03  -5.9052994599014998e-03  -5.8847775355950500e-03  -5.8734303589726552e-03  -5.3986944823432867e-03  -4.4894003351822935e-03  -3.3413014127789196e-03  -2.1875796273369253e-03  -1.2234908516667142e-03  -5.4515675288821107e-04  -1.5972110999125087e-04  -3.1574488390366655e-05  -1.3340067231562978e-04  -4.7596870649516153e-04  -1.0879440855896259e-03  -1.9550784870062668e-03  -2.9834656552036962e-03  -4.0153197308072687e-03  -4.8642555461281267e-03  -5.3549897875151478e-03  -5.3665109064162421e-03  -4.8666279628595457e-03  -3.9163368917641914e-03  -2.6019247540922403e-03  -9.5444133718482508e-04  1.0276505433730440e-03  3.3571266159601603e-03  6.1087154770123340e-03  9.3796418216334412e-03  1.3202057248371408e-02  1.7048874818738704e-02  1.8247915573609792e-02  8.2725463734758305e-03  -1.9927388375270857e-02  9.8195671209547086e-02  6.3747109232689902e-01  9.8248909234754078e-01  9.9000834650795344e-01  9.9914468141428514e-01  9.9918646303623671e-01  9.9899369807295402e-01  1.0005051811191339e+00  9.9557895743808245e-01  9.8927147031048646e-01  1.0142427714449460e+00  9.6606227321193050e-01  6.9077183466755598e-01  2.9734838293157428e-01  2.6516752676706473e-02  -3.7360513280598508e-02  -4.2515814375255201e-03  9.3590843911701659e-03  1.3986513591674642e-04  -1.3115847202724833e-03  4.5568012608059803e-04  -1.1736033471757285e-05  -5.1490594914877774e-05  2.8170751334921704e-05  -8.7271419445124739e-06  1.6164457264847419e-06  7.8784119707690039e-08  -2.0556034265825066e-07  1.1329420821616916e-07  -4.1732527891195490e-08  1.4432996346455118e-08  -3.4775907711516423e-09  1.2578129938821804e-09  -1.8783919862865296e-11  1.7882722284575733e-10  1.0142688603784518e-10  7.8189724771793012e-11  6.2468607288078517e-11  4.7814760954202715e-11  3.8595954766810327e-11  3.0830063331551615e-11  2.5089751621627360e-11  2.0485839652367959e-11  1.6858167139320863e-11  1.3936719926086082e-11  1.1574469721413932e-11  9.6474837885170531e-12  8.0668313848010691e-12  6.7635015734793146e-12  5.6843924065567989e-12  4.7880786194687381e-12  4.0417543381211762e-12  3.4193996472605413e-12  2.9001571156699936e-12  2.4671899473247554e-12  2.1069087457574254e-12  1.8082926711691415e-12  1.5623506653188325e-12  1.3619035863378061e-12  1.2011319373973860e-12  1.0754396948982361e-12  9.8123576325214845e-13  9.1596244934189307e-13  8.7776005252966222e-13  8.6561536554485300e-13  -1.3513942965286187e-04  6.1347758065467069e-05  9.3093352241533950e-04  1.5315026587771890e-03  1.5895679918843794e-03  1.5819825643684344e-03  1.5276512055550410e-03  1.3368608821952793e-03  1.0536661716673901e-03  7.3777930675262779e-04  4.4902590902874787e-04  2.2736049332954024e-04  8.5516742984228177e-05  1.7946026261815480e-05  1.4752679238061889e-05  7.3509259272249656e-05  2.