<?xml version="1.0"?>
<VTKFile type="UnstructuredGrid"  version="0.1"  >
<UnstructuredGrid>
<Piece  NumberOfPoints="5151" NumberOfCells="10000">
<Points>
<DataArray  type="Float64"  NumberOfComponents="3"  format="ascii">0 0 0  0.01 0 0  0.02 0 0  0.03 0 0  0.04 0 0  0.05 0 0  0.06 0 0  0.07000000000000001 0 0  0.08 0 0  0.09 0 0  0.1 0 0  0.11 0 0  0.12 0 0  0.13 0 0  0.14 0 0  0.15 0 0  0.16 0 0  0.17 0 0  0.18 0 0  0.19 0 0  0.2 0 0  0.21 0 0  0.22 0 0  0.23 0 0  0.24 0 0  0.25 0 0  0.26 0 0  0.27 0 0  0.28 0 0  0.29 0 0  0.3 0 0  0.31 0 0  0.32 0 0  0.33 0 0  0.34 0 0  0.35 0 0  0.36 0 0  0.37 0 0  0.38 0 0  0.39 0 0  0.4 0 0  0.41 0 0  0.42 0 0  0.43 0 0  0.44 0 0  0.45 0 0  0.46 0 0  0.47 0 0  0.48 0 0  0.49 0 0  0.5 0 0  0.51 0 0  0.52 0 0  0.53 0 0  0.54 0 0  0.55 0 0  0.5600000000000001 0 0  0.57 0 0  0.58 0 0  0.59 0 0  0.6 0 0  0.61 0 0  0.62 0 0  0.63 0 0  0.64 0 0  0.65 0 0  0.66 0 0  0.67 0 0  0.68 0 0  0.6899999999999999 0 0  0.7 0 0  0.71 0 0  0.72 0 0  0.73 0 0  0.74 0 0  0.75 0 0  0.76 0 0  0.77 0 0  0.78 0 0  0.79 0 0  0.8 0 0  0.8100000000000001 0 0  0.82 0 0  0.83 0 0  0.84 0 0  0.85 0 0  0.86 0 0  0.87 0 0  0.88 0 0  0.89 0 0  0.9 0 0  0.91 0 0  0.92 0 0  0.93 0 0  0.9399999999999999 0 0  0.95 0 0  0.96 0 0  0.97 0 0  0.98 0 0  0.99 0 0  1 0 0  0 0.01 0  0.01 0.01 0  0.02 0.01 0  0.03 0.01 0  0.04 0.01 0  0.05 0.01 0  0.06 0.01 0  0.07000000000000001 0.01 0  0.08 0.01 0  0.09 0.01 0  0.1 0.01 0  0.11 0.01 0  0.12 0.01 0  0.13 0.01 0  0.14 0.01 0  0.15 0.01 0  0.16 0.01 0  0.17 0.01 0  0.18 0.01 0  0.19 0.01 0  0.2 0.01 0  0.21 0.01 0  0.22 0.01 0  0.23 0.01 0  0.24 0.01 0  0.25 0.01 0  0.26 0.01 0  0.27 0.01 0  0.28 0.01 0  0.29 0.01 0  0.3 0.01 0  0.31 0.01 0  0.32 0.01 0  0.33 0.01 0  0.34 0.01 0  0.35 0.01 0  0.36 0.01 0  0.37 0.01 0  0.38 0.01 0  0.39 0.01 0  0.4 0.01 0  0.41 0.01 0  0.42 0.01 0  0.43 0.01 0  0.44 0.01 0  0.45 0.01 0  0.46 0.01 0  0.47 0.01 0  0.48 0.01 0  0.49 0.01 0  0.5 0.01 0  0.51 0.01 0  0.52 0.01 0  0.53 0.01 0  0.54 0.01 0  0.55 0.01 0  0.5600000000000001 0.01 0  0.57 0.01 0  0.58 0.01 0  0.59 0.01 0  0.6 0.01 0  0.61 0.01 0  0.62 0.01 0  0.63 0.01 0  0.64 0.01 0  0.65 0.01 0  0.66 0.01 0  0.67 0.01 0  0.68 0.01 0  0.6899999999999999 0.01 0  0.7 0.01 0  0.71 0.01 0  0.72 0.01 0  0.73 0.01 0  0.74 0.01 0  0.75 0.01 0  0.76 0.01 0  0.77 0.01 0  0.78 0.01 0  0.79 0.01 0  0.8 0.01 0  0.8100000000000001 0.01 0  0.82 0.01 0  0.83 0.01 0  0.84 0.01 0  0.85 0.01 0  0.86 0.01 0  0.87 0.01 0  0.88 0.01 0  0.89 0.01 0  0.9 0.01 0  0.91 0.01 0  0.92 0.01 0  0.93 0.01 0  0.9399999999999999 0.01 0  0.95 0.01 0  0.96 0.01 0  0.97 0.01 0  0.98 0.01 0  0.99 0.01 0  1 0.01 0  0 0.02 0  0.01 0.02 0  0.02 0.02 0  0.03 0.02 0  0.04 0.02 0  0.05 0.02 0  0.06 0.02 0  0.07000000000000001 0.02 0  0.08 0.02 0  0.09 0.02 0  0.1 0.02 0  0.11 0.02 0  0.12 0.02 0  0.13 0.02 0  0.14 0.02 0  0.15 0.02 0  0.16 0.02 0  0.17 0.02 0  0.18 0.02 0  0.19 0.02 0  0.2 0.02 0  0.21 0.02 0  0.22 0.02 0  0.23 0.02 0  0.24 0.02 0  0.25 0.02 0  0.26 0.02 0  0.27 0.02 0  0.28 0.02 0  0.29 0.02 0  0.3 0.02 0  0.31 0.02 0  0.32 0.02 0  0.33 0.02 0  0.34 0.02 0  0.35 0.02 0  0.36 0.02 0  0.37 0.02 0  0.38 0.02 0  0.39 0.02 0  0.4 0.02 0  0.41 0.02 0  0.42 0.02 0  0.43 0.02 0  0.44 0.02 0  0.45 0.02 0  0.46 0.02 0  0.47 0.02 0  0.48 0.02 0  0.49 0.02 0  0.5 0.02 0  0.51 0.02 0  0.52 0.02 0  0.53 0.02 0  0.54 0.02 0  0.55 0.02 0  0.5600000000000001 0.02 0  0.57 0.02 0  0.58 0.02 0  0.59 0.02 0  0.6 0.02 0  0.61 0.02 0  0.62 0.02 0  0.63 0.02 0  0.64 0.02 0  0.65 0.02 0  0.66 0.02 0  0.67 0.02 0  0.68 0.02 0  0.6899999999999999 0.02 0  0.7 0.02 0  0.71 0.02 0  0.72 0.02 0  0.73 0.02 0  0.74 0.02 0  0.75 0.02 0  0.76 0.02 0  0.77 0.02 0  0.78 0.02 0  0.79 0.02 0  0.8 0.02 0  0.8100000000000001 0.02 0  0.82 0.02 0  0.83 0.02 0  0.84 0.02 0  0.85 0.02 0  0.86 0.02 0  0.87 0.02 0  0.88 0.02 0  0.89 0.02 0  0.9 0.02 0  0.91 0.02 0  0.92 0.02 0  0.93 0.02 0  0.9399999999999999 0.02 0  0.95 0.02 0  0.96 0.02 0  0.97 0.02 0  0.98 0.02 0  0.99 0.02 0  1 0.02 0  0 0.03 0  0.01 0.03 0  0.02 0.03 0  0.03 0.03 0  0.04 0.03 0  0.05 0.03 0  0.06 0.03 0  0.07000000000000001 0.03 0  0.08 0.03 0  0.09 0.03 0  0.1 0.03 0  0.11 0.03 0  0.12 0.03 0  0.13 0.03 0  0.14 0.03 0  0.15 0.03 0  0.16 0.03 0  0.17 0.03 0  0.18 0.03 0  0.19 0.03 0  0.2 0.03 0  0.21 0.03 0  0.22 0.03 0  0.23 0.03 0  0.24 0.03 0  0.25 0.03 0  0.26 0.03 0  0.27 0.03 0  0.28 0.03 0  0.29 0.03 0  0.3 0.03 0  0.31 0.03 0  0.32 0.03 0  0.33 0.03 0  0.34 0.03 0  0.35 0.03 0  0.36 0.03 0  0.37 0.03 0  0.38 0.03 0  0.39 0.03 0  0.4 0.03 0  0.41 0.03 0  0.42 0.03 0  0.43 0.03 0  0.44 0.03 0  0.45 0.03 0  0.46 0.03 0  0.47 0.03 0  0.48 0.03 0  0.49 0.03 0  0.5 0.03 0  0.51 0.03 0  0.52 0.03 0  0.53 0.03 0  0.54 0.03 0  0.55 0.03 0  0.5600000000000001 0.03 0  0.57 0.03 0  0.58 0.03 0  0.59 0.03 0  0.6 0.03 0  0.61 0.03 0  0.62 0.03 0  0.63 0.03 0  0.64 0.03 0  0.65 0.03 0  0.66 0.03 0  0.67 0.03 0  0.68 0.03 0  0.6899999999999999 0.03 0  0.7 0.03 0  0.71 0.03 0  0.72 0.03 0  0.73 0.03 0  0.74 0.03 0  0.75 0.03 0  0.76 0.03 0  0.77 0.03 0  0.78 0.03 0  0.79 0.03 0  0.8 0.03 0  0.8100000000000001 0.03 0  0.82 0.03 0  0.83 0.03 0  0.84 0.03 0  0.85 0.03 0  0.86 0.03 0  0.87 0.03 0  0.88 0.03 0  0.89 0.03 0  0.9 0.03 0  0.91 0.03 0  0.92 0.03 0  0.93 0.03 0  0.9399999999999999 0.03 0  0.95 0.03 0  0.96 0.03 0  0.97 0.03 0  0.98 0.03 0  0.99 0.03 0  1 0.03 0  0 0.04 0  0.01 0.04 0  0.02 0.04 0  0.03 0.04 0  0.04 0.04 0  0.05 0.04 0  0.06 0.04 0  0.07000000000000001 0.04 0  0.08 0.04 0  0.09 0.04 0  0.1 0.04 0  0.11 0.04 0  0.12 0.04 0  0.13 0.04 0  0.14 0.04 0  0.15 0.04 0  0.16 0.04 0  0.17 0.04 0  0.18 0.04 0  0.19 0.04 0  0.2 0.04 0  0.21 0.04 0  0.22 0.04 0  0.23 0.04 0  0.24 0.04 0  0.25 0.04 0  0.26 0.04 0  0.27 0.04 0  0.28 0.04 0  0.29 0.04 0  0.3 0.04 0  0.31 0.04 0  0.32 0.04 0  0.33 0.04 0  0.34 0.04 0  0.35 0.04 0  0.36 0.04 0  0.37 0.04 0  0.38 0.04 0  0.39 0.04 0  0.4 0.04 0  0.41 0.04 0  0.42 0.04 0  0.43 0.04 0  0.44 0.04 0  0.45 0.04 0  0.46 0.04 0  0.47 0.04 0  0.48 0.04 0  0.49 0.04 0  0.5 0.04 0  0.51 0.04 0  0.52 0.04 0  0.53 0.04 0  0.54 0.04 0  0.55 0.04 0  0.5600000000000001 0.04 0  0.57 0.04 0  0.58 0.04 0  0.59 0.04 0  0.6 0.04 0  0.61 0.04 0  0.62 0.04 0  0.63 0.04 0  0.64 0.04 0  0.65 0.04 0  0.66 0.04 0  0.67 0.04 0  0.68 0.04 0  0.6899999999999999 0.04 0  0.7 0.04 0  0.71 0.04 0  0.72 0.04 0  0.73 0.04 0  0.74 0.04 0  0.75 0.04 0  0.76 0.04 0  0.77 0.04 0  0.78 0.04 0  0.79 0.04 0  0.8 0.04 0  0.8100000000000001 0.04 0  0.82 0.04 0  0.83 0.04 0  0.84 0.04 0  0.85 0.04 0  0.86 0.04 0  0.87 0.04 0  0.88 0.04 0  0.89 0.04 0  0.9 0.04 0  0.91 0.04 0  0.92 0.04 0  0.93 0.04 0  0.9399999999999999 0.04 0  0.95 0.04 0  0.96 0.04 0  0.97 0.04 0  0.98 0.04 0  0.99 0.04 0  1 0.04 0  0 0.05 0  0.01 0.05 0  0.02 0.05 0  0.03 0.05 0  0.04 0.05 0  0.05 0.05 0  0.06 0.05 0  0.07000000000000001 0.05 0  0.08 0.05 0  0.09 0.05 0  0.1 0.05 0  0.11 0.05 0  0.12 0.05 0  0.13 0.05 0  0.14 0.05 0  0.15 0.05 0  0.16 0.05 0  0.17 0.05 0  0.18 0.05 0  0.19 0.05 0  0.2 0.05 0  0.21 0.05 0  0.22 0.05 0  0.23 0.05 0  0.24 0.05 0  0.25 0.05 0  0.26 0.05 0  0.27 0.05 0  0.28 0.05 0  0.29 0.05 0  0.3 0.05 0  0.31 0.05 0  0.32 0.05 0  0.33 0.05 0  0.34 0.05 0  0.35 0.05 0  0.36 0.05 0  0.37 0.05 0  0.38 0.05 0  0.39 0.05 0  0.4 0.05 0  0.41 0.05 0  0.42 0.05 0  0.43 0.05 0  0.44 0.05 0  0.45 0.05 0  0.46 0.05 0  0.47 0.05 0  0.48 0.05 0  0.49 0.05 0  0.5 0.05 0  0.51 0.05 0  0.52 0.05 0  0.53 0.05 0  0.54 0.05 0  0.55 0.05 0  0.5600000000000001 0.05 0  0.57 0.05 0  0.58 0.05 0  0.59 0.05 0  0.6 0.05 0  0.61 0.05 0  0.62 0.05 0  0.63 0.05 0  0.64 0.05 0  0.65 0.05 0  0.66 0.05 0  0.67 0.05 0  0.68 0.05 0  0.6899999999999999 0.05 0  0.7 0.05 0  0.71 0.05 0  0.72 0.05 0  0.73 0.05 0  0.74 0.05 0  0.75 0.05 0  0.76 0.05 0  0.77 0.05 0  0.78 0.05 0  0.79 0.05 0  0.8 0.05 0  0.8100000000000001 0.05 0  0.82 0.05 0  0.83 0.05 0  0.84 0.05 0  0.85 0.05 0  0.86 0.05 0  0.87 0.05 0  0.88 0.05 0  0.89 0.05 0  0.9 0.05 0  0.91 0.05 0  0.92 0.05 0  0.93 0.05 0  0.9399999999999999 0.05 0  0.95 0.05 0  0.96 0.05 0  0.97 0.05 0  0.98 0.05 0  0.99 0.05 0  1 0.05 0  0 0.06 0  0.01 0.06 0  0.02 0.06 0  0.03 0.06 0  0.04 0.06 0  0.05 0.06 0  0.06 0.06 0  0.07000000000000001 0.06 0  0.08 0.06 0  0.09 0.06 0  0.1 0.06 0  0.11 0.06 0  0.12 0.06 0  0.13 0.06 0  0.14 0.06 0  0.15 0.06 0  0.16 0.06 0  0.17 0.06 0  0.18 0.06 0  0.19 0.06 0  0.2 0.06 0  0.21 0.06 0  0.22 0.06 0  0.23 0.06 0  0.24 0.06 0  0.25 0.06 0  0.26 0.06 0  0.27 0.06 0  0.28 0.06 0  0.29 0.06 0  0.3 0.06 0  0.31 0.06 0  0.32 0.06 0  0.33 0.06 0  0.34 0.06 0  0.35 0.06 0  0.36 0.06 0  0.37 0.06 0  0.38 0.06 0  0.39 0.06 0  0.4 0.06 0  0.41 0.06 0  0.42 0.06 0  0.43 0.06 0  0.44 0.06 0  0.45 0.06 0  0.46 0.06 0  0.47 0.06 0  0.48 0.06 0  0.49 0.06 0  0.5 0.06 0  0.51 0.06 0  0.52 0.06 0  0.53 0.06 0  0.54 0.06 0  0.55 0.06 0  0.5600000000000001 0.06 0  0.57 0.06 0  0.58 0.06 0  0.59 0.06 0  0.6 0.06 0  0.61 0.06 0  0.62 0.06 0  0.63 0.06 0  0.64 0.06 0  0.65 0.06 0  0.66 0.06 0  0.67 0.06 0  0.68 0.06 0  0.6899999999999999 0.06 0  0.7 0.06 0  0.71 0.06 0  0.72 0.06 0  0.73 0.06 0  0.74 0.06 0  0.75 0.06 0  0.76 0.06 0  0.77 0.06 0  0.78 0.06 0  0.79 0.06 0  0.8 0.06 0  0.8100000000000001 0.06 0  0.82 0.06 0  0.83 0.06 0  0.84 0.06 0  0.85 0.06 0  0.86 0.06 0  0.87 0.06 0  0.88 0.06 0  0.89 0.06 0  0.9 0.06 0  0.91 0.06 0  0.92 0.06 0  0.93 0.06 0  0.9399999999999999 0.06 0  0.95 0.06 0  0.96 0.06 0  0.97 0.06 0  0.98 0.06 0  0.99 0.06 0  1 0.06 0  0 0.07000000000000001 0  0.01 0.07000000000000001 0  0.02 0.07000000000000001 0  0.03 0.07000000000000001 0  0.04 0.07000000000000001 0  0.05 0.07000000000000001 0  0.06 0.07000000000000001 0  0.07000000000000001 0.07000000000000001 0  0.08 0.07000000000000001 0  0.09 0.07000000000000001 0  0.1 0.07000000000000001 0  0.11 0.07000000000000001 0  0.12 0.07000000000000001 0  0.13 0.07000000000000001 0  0.14 0.07000000000000001 0  0.15 0.07000000000000001 0  0.16 0.07000000000000001 0  0.17 0.07000
[...]
<PointData  Vectors="Displacement"> 
<DataArray  type="Float64"  Name="Displacement"  NumberOfComponents="3" format="ascii">0.0000000000000000e+00 0.0000000000000000e+00 0.0000000000000000e+00  1.2287853699065372e-06 7.7004131697934795e-07 0.0000000000000000e+00  2.3311647368052651e-06 1.6677399171552707e-06 0.0000000000000000e+00  3.3867468975833074e-06 2.9357285938633747e-06 0.0000000000000000e+00  4.3919265011862487e-06 4.5890376418265780e-06 0.0000000000000000e+00  5.3377095555166975e-06 6.6085984099763192e-06 0.0000000000000000e+00  6.2137500035888079e-06 8.9600641524625583e-06 0.0000000000000000e+00  7.0119426077066210e-06 1.1595981564817690e-05 0.0000000000000000e+00  7.7271726447742099e-06 1.4461183826095335e-05 0.0000000000000000e+00  8.3574696392751414e-06 1.7497668806752285e-05 0.0000000000000000e+00  8.9039941112812540e-06 2.0647901022332432e-05 0.0000000000000000e+00  9.3715612220472597e-06 2.3858893088764571e-05 0.0000000000000000e+00  9.7686799889036029e-06 2.7088487696354881e-05 0.0000000000000000e+00  1.0103275452053398e-05 3.0308147904054386e-05 0.0000000000000000e+00  1.0379840648808609e-05 3.3494561642307160e-05 0.0000000000000000e+00  1.0602814348516053e-05 3.6621816318968457e-05 0.0000000000000000e+00  1.0778468720398192e-05 3.9666565636621942e-05 0.0000000000000000e+00  1.0912868890410740e-05 4.2613008780620545e-05 0.0000000000000000e+00  1.1009538837537106e-05 4.5451199605439947e-05 0.0000000000000000e+00  1.1069942390568846e-05 4.8171562772541225e-05 0.0000000000000000e+00  1.1096120155046801e-05 5.0762786017852293e-05 0.0000000000000000e+00  1.1091031388227093e-05 5.3216132510574419e-05 0.0000000000000000e+00  1.1056163661645578e-05 5.5527316561760372e-05 0.0000000000000000e+00  1.0990354777888021e-05 5.7691923998468911e-05 0.0000000000000000e+00  1.0891846964957107e-05 5.9700358443515525e-05 0.0000000000000000e+00  1.0761076295952348e-05 6.1538861060553282e-05 0.0000000000000000e+00  1.0601458630667338e-05 6.3194461172040665e-05 0.0000000000000000e+00  1.0418292579760210e-05 6.4658459925408783e-05 0.0000000000000000e+00  1.0217179577009162e-05 6.5927319498684542e-05 0.0000000000000000e+00  1.0002808435431768e-05 6.7002050936492186e-05 0.0000000000000000e+00  9.7790718400038409e-06 6.7885506932710942e-05 0.0000000000000000e+00  9.5499983680561050e-06 6.8581200771959712e-05 0.0000000000000000e+00  9.3198782558413145e-06 6.9094978463174510e-05 0.0000000000000000e+00  9.0939726794569008e-06 6.9433726780386576e-05 0.0000000000000000e+00  8.8798276825284066e-06 6.9605350370582789e-05 0.0000000000000000e+00  8.6866279125620754e-06 6.9622905402450257e-05 0.0000000000000000e+00  8.5223948617016556e-06 6.9505893030975455e-05 0.0000000000000000e+00  8.3968288951172007e-06 6.9280488569807021e-05 0.0000000000000000e+00  8.3055855456300571e-06 6.8971580883160489e-05 0.0000000000000000e+00  8.2773656104129626e-06 6.8639956997989106e-05 0.0000000000000000e+00  8.2662418913606151e-06 6.8280539170832794e-05 0.0000000000000000e+00  8.7394767754984764e-06 6.7905999813802422e-05 0.0000000000000000e+00  9.4976092812036339e-06 6.7942300758752980e-05 0.0000000000000000e+00  1.0476705293093952e-05 6.8134369386958828e-05 0.0000000000000000e+00  1.1553273655255033e-05 6.8405099309137661e-05 0.0000000000000000e+00  1.2653039689209830e-05 6.8769970855481083e-05 0.0000000000000000e+00  1.3745490751040104e-05 6.9162589350602242e-05 0.0000000000000000e+00  1.4821596326195383e-05 6.9557981403010316e-05 0.0000000000000000e+00  1.5882978184875952e-05 6.9931814715914258e-05 0.0000000000000000e+00  1.6931397028246228e-05 7.0285182953607107e-05 0.0000000000000000e+00  1.7969789189085247e-05 7.0624026583358907e-05 0.0000000000000000e+00  1.9106481868157667e-05 7.0800676475919145e-05 0.0000000000000000e+00  2.0333663927344448e-05 7.1130236150660081e-05 0.0000000000000000e+00  2.1573995600192524e-05 7.1695639611803080e-05 0.0000000000000000e+00  2.2760791695620027e-05 7.2489361230115227e-05 0.0000000000000000e+00  2.3857153180523484e-05 7.3464335799429821e-05 0.0000000000000000e+00  2.4852409821370614e-05 7.4569506865659603e-05 0.0000000000000000e+00  2.5751952167841627e-05 7.5763313888537869e-05 0.0000000000000000e+00  2.6568514383245220e-05 7.7015976836946029e-05 0.0000000000000000e+00  2.7317134036156204e-05 7.8306987993145784e-05 0.0000000000000000e+00  2.8012203921797494e-05 7.9623867989291316e-05 0.0000000000000000e+00  2.8665851653157841e-05 8.0960146000336099e-05 0.0000000000000000e+00  2.9287402781490763e-05 8.2313205403196320e-05 0.0000000000000000e+00  2.9883524313825919e-05 8.3682595038920510e-05 0.0000000000000000e+00  3.0458680163323489e-05 8.5068889920881702e-05 0.0000000000000000e+00  3.1015649585098324e-05 8.6473024900460895e-05 0.0000000000000000e+00  3.1555983927120428e-05 8.7895940536501774e-05 0.0000000000000000e+00  3.2080366701702435e-05 8.9338403820502852e-05 0.0000000000000000e+00  3.2588883745199681e-05 9.0800923034762879e-05 0.0000000000000000e+00  3.3081221196571541e-05 9.2283715419992871e-05 0.0000000000000000e+00  3.3556808325720644e-05 9.3786705037479664e-05 0.0000000000000000e+00  3.4014919323741837e-05 9.5309536613414584e-05 0.0000000000000000e+00  3.4454745261228970e-05 9.6851596579380282e-05 0.0000000000000000e+00  3.4875444917906629e-05 9.8412036027021040e-05 0.0000000000000000e+00  3.5276181206036910e-05 9.9989792558407813e-05 0.0000000000000000e+00  3.5656148309070989e-05 1.0158360971153702e-04 0.0000000000000000e+00  3.6014593266435826e-05 1.0319205391403513e-04 0.0000000000000000e+00  3.6350834526581021e-05 1.0481352968192435e-04 0.0000000000000000e+00  3.6664279020179743e-05 1.0644629406292221e-04 0.0000000000000000e+00  3.6954438606665417e-05 1.0808847129494257e-04 0.0000000000000000e+00  3.7220946296037114e-05 1.0973806848862876e-04 0.0000000000000000e+00  3.7463572383393277e-05 1.1139299297001114e-04 0.0000000000000000e+00  3.7682240486393138e-05 1.1305107179683885e-04 0.0000000000000000e+00  3.7877043386923045e-05 1.1471007390346206e-04 0.0000000000000000e+00  3.8048258508500676e-05 1.1636773532109861e-04 0.0000000000000000e+00  3.8196362790018951e-05 1.1802178794339800e-04 0.0000000000000000e+00  3.8322046635718348e-05 1.1966999234888078e-04 0.0000000000000000e+00  3.8426226525438687e-05 1.2131017525073843e-04 0.0000000000000000e+00  3.8510055748828468e-05 1.2294027222910505e-04 0.0000000000000000e+00  3.8574932562617739e-05 1.2455837652639354e-04 0.0000000000000000e+00  3.8622504824494745e-05 1.2616279487100406e-04 0.0000000000000000e+00  3.8654669765930996e-05 1.2775211155638335e-04 0.0000000000000000e+00  3.8673566917540141e-05 1.2932526234979414e-04 0.0000000000000000e+00  3.8681561098860162e-05 1.3088162021502271e-04 0.0000000000000000e+00  3.8681210484425683e-05 1.3242109518427517e-04 0.0000000000000000e+00  3.8675211441723246e-05 1.3394425059742073e-04 0.0000000000000000e+00  3.8666305981912244e-05 1.3545243608236658e-04 0.0000000000000000e+00  3.8657127149245931e-05 1.3694793018150482e-04 0.0000000000000000e+00  3.8649937894801247e-05 1.3843405943576043e-04 0.0000000000000000e+00  3.8646175384372792e-05 1.3991516534410237e-04 0.0000000000000000e+00  3.8645564456843022e-05 1.4139587206109347e-04 0.0000000000000000e+00  0.0000000000000000e+00 0.0000000000000000e+00 0.0000000000000000e+00  6.0245878600899999e-07 3.9206153732144529e-07 0.0000000000000000e+00  1.3162539236816119e-06 1.2880136053033324e-06 0.0000000000000000e+00  1.9937149634608721e-06 2.5686929161392842e-06 0.0000000000000000e+00  2.6368186481527164e-06 4.2380666218706720e-06 0.0000000000000000e+00  3.2478887796690810e-06 6.2762055626782309e-06 0.0000000000000000e+00  3.8277825510449062e-06 8.6494265823822175e-06 0.0000000000000000e+00  4.3762426111025319e-06 1.1309381129766144e-05 0.0000000000000000e+00  4.8931049411129991e-06 1.4200058626680809e-05 0.0000000000000000e+00  5.3779433462889476e-06 1.7263116148958802e-05 0.0000000000000000e+00  5.8292916212681632e-06 2.0440231109334907e-05 0.0000000000000000e+00  6.2456910297797757e-06 2.3676412790055001e-05 0.0000000000000000e+00  6.6278310599496726e-06 2.6928019389387797e-05 0.0000000000000000e+00  6.9769860145472152e-06 3.0167618290205449e-05 0.0000000000000000e+00  7.2937721745935545e-06 3.3373412147267060e-05 0.0000000000000000e+00  7.5798837541768022e-06 3.6518800793082437e-05 0.0000000000000000e+00  7.8377291977842486e-06 3.9579262421673979e-05 0.0000000000000000e+00  8.0697802190168015e-06 4.2539515156201545e-05 0.0000000000000000e+00  8.2768286079396139e-06 4.5391116182229466e-05 0.0000000000000000e+00  8.4583451421403716e-06 4.8125001454560462e-05 0.0000000000000000e+00  8.6146697410143048e-06 5.0728780095308405e-05 0.0000000000000000e+00  8.7474327030322449e-06 5.3193202580242244e-05 0.0000000000000000e+00  8.8577869443938621e-06 5.5515101687248011e-05 0.0000000000000000e+00  8.9454084294311075e-06 5.7691366521576612e-05 0.0000000000000000e+00  9.0097091572574595e-06 5.9712270113355016e-05 0.0000000000000000e+00  9.0512935946543883e-06 6.1562825796448073e-05 0.0000000000000000e+00  9.0720953263085996e-06 6.3228960346001139e-05 0.0000000000000000e+00  9.0747262913789993e-06 6.4701539619629026e-05 0.0000000000000000e+00  9.0616562981152461e-06 6.5977195604804119e-05 0.0000000000000000e+00  9.0345602191847697e-06 6.7057490670389172e-05 0.0000000000000000e+00  8.9949071283581074e-06 6.7945442914954713e-05 0.0000000000000000e+00  8.9447420789645254e-06 6.8644305707666771e-05 0.0000000000000000e+00  8.8861792934213327e-06 6.9159958034073547e-05 0.0000000000000000e+00  8.8219538260628774e-06 6.9498752671946177e-05 0.0000000000000000e+00  8.7566177817930212e-06 6.9667400227683076e-05 0.0000000000000000e+00  8.6957239081973319e-06 6.9678557617164377e-05 0.0000000000000000e+00  8.6439175200213990e-06 6.9553011322641897e-05 0.0000000000000000e+00  8.6038398556514572e-06 6.9316161016561099e-05 0.0000000000000000e+00  8.5751363016386414e-06 6.8996046341502211e-05 0.0000000000000000e+00  8.5638354979235458e-06 6.8640013995725294e-05 0.0000000000000000e+00  8.5704133961066627e-06 6.8269580489103149e-05 0.0000000000000000e+00  8.1891516797050533e-06 6.7578108084221636e-05 0.0000000000000000e+00  9.0270172451632409e-06 6.7514237276196837e-05 0.0000000000000000e+00  1.0100390278797510e-05 6.7678035396741051e-05 0.0000000000000000e+00  1.1189827238260146e-05 6.7928402000668015e-05 0.0000000000000000e+00  1.2280888550163591e-05 6.8297304824193542e-05 0.0000000000000000e+00  1.3370375469020825e-05 6.8694890969871032e-05 0.0000000000000000e+00  1.4453793104348768e-05 6.9098054606354264e-05 0.0000000000000000e+00  1.5529101029182636e-05 6.9479053553239619e-05 0.0000000000000000e+00  1.6587556736895530e-05 6.9842791116632449e-05 0.0000000000000000e+00  1.7618369281913804e-05 7.0193859588201031e-05 0.0000000000000000e+00  1.8719356138358080e-05 7.0307827272042485e-05 0.0000000000000000e+00  1.9847027212571723e-05 7.0617918571540383e-05 0.0000000000000000e+00  2.0947002353173244e-05 7.1196236691022251e-05 0.0000000000000000e+00  2.1984522702954150e-05 7.2022852683556584e-05 0.0000000000000000e+00  2.2944712389622305e-05 7.3037972426686834e-05 0.0000000000000000e+00  2.3826736999933357e-05 7.4182584653098696e-05 0.0000000000000000e+00  2.4637327766524576e-05 7.5411338709610096e-05 0.0000000000000000e+00  2.5386215375589214e-05 7.6693285374051666e-05 0.0000000000000000e+00  2.6083922720499052e-05 7.8007785682022697e-05 0.0000000000000000e+00  2.6740197818175308e-05 7.9343047943933453e-05 0.0000000000000000e+00  2.7363151900377058e-05 8.0693658650993224e-05 0.0000000000000000e+00  2.7959035734327838e-05 8.2058078134754491e-05 0.0000000000000000e+00  2.8532377928753692e-05 8.3436783227172143e-05 0.0000000000000000e+00  2.9086278323552243e-05 8.4831073366089599e-05 0.0000000000000000e+00  2.9622722896934345e-05 8.6242418871681473e-05 0.0000000000000000e+00  3.0142859598676064e-05 8.7672144723659282e-05 0.0000000000000000e+00  3.0647221320070452e-05 8.9121288096815206e-05 0.0000000000000000e+00  3.1135900126941841e-05 9.0590542640595095e-05 0.0000000000000000e+00  3.1608680716674021e-05 9.2080248709610889e-05 0.0000000000000000e+00  3.2065140993677283e-05 9.3590408361040841e-05 0.0000000000000000e+00  3.2504727026045654e-05 9.5120711908820845e-05 0.0000000000000000e+00  3.2926808619077909e-05 9.6670568180930928e-05 0.0000000000000000e+00  3.3330720642244793e-05 9.8239133969983238e-05 0.0000000000000000e+00  3.3715794289697814e-05 9.9825340246254810e-05 0.0000000000000000e+00  3.4081381583364605e-05 1.0142791431778360e-04 0.0000000000000000e+00  3.4426875587252027e-05 1.0304539836253283e-04 0.0000000000000000e+00  3.4751728034941117e-05 1.0467616546172165e-04 0.0000000000000000e+00  3.5055465447617652e-05 1.0631843444964169e-04 0.0000000000000000e+00  3.5337704362829175e-05 1.0797028476446269e-04 0.0000000000000000e+00  3.5598165987363679e-05 1.0962967223889488e-04 0.0000000000000000e+00  3.5836690392859513e-05 1.1129444654001030e-04 0.0000000000000000e+00  3.6053250247469958e-05 1.1296237081407987e-04 0.0000000000000000e+00  3.6247963985688840e-05 1.1463114402191917e-04 0.0000000000000000e+00  3.6421108237916577e-05 1.1629842644137236e-04 0.0000000000000000e+00  3.6573129258945775e-05 1.1796186884024779e-04 0.0000000000000000e+00  3.6704653003861771e-05 1.1961914586962266e-04 0.0000000000000000e+00  3.6816493395703059e-05 1.2126799429240009e-04 0.0000000000000000e+00  3.6909658203970618e-05 1.2290625675532825e-04 0.0000000000000000e+00  3.6985351794458696e-05 1.2453193195168170e-04 0.0000000000000000e+00  3.7044973801200321e-05 1.2614323222673708e-04 0.0000000000000000e+00  3.7090112488288689e-05 1.2773864996737310e-04 0.0000000000000000e+00  3.7122531190086513e-05 1.2931703449713965e-04 0.0000000000000000e+00  3.7144145730354327e-05 1.3087768163928012e-04 0.0000000000000000e+00  3.7156990146258192e-05 1.3242043848360119e-04 0.0000000000000000e+00  3.7163167482167637e-05 1.3394582581389657e-04 0.0000000000000000e+00  3.7164782089012176e-05 1.3545517909120233e-04 0.0000000000000000e+00  3.7163849961415293e-05 1.3695080319302443e-04 0.0000000000000000e+00  3.7162183064935167e-05 1.3843611944667678e-04 0.0000000000000000e+00  3.7161232921230330e-05 1.3991573771224988e-04 0.0000000000000000e+00  3.7161803102202842e-05 1.4139526113356361e-04 0.0000000000000000e+00  0.0000000000000000e+00 0.0000000000000000e+00 0.0000000000000000e+00  2.0596513991240598e-07 2.6165215165135360e-07 0.0000000000000000e+00  4.4656989741687844e-07 1.0835703382622743e-06 0.0000000000000000e+00  7.0655161742011074e-07 2.3611277354306401e-06 0.0000000000000000e+00  9.6642730211592822e-07 4.0347317117071989e-06 0.0000000000000000e+00  1.2325783678830618e-06 6.0768485942074196e-06 0.0000000000000000e+00  1.5106651927546627e-06 8.4544585066045665e-06 0.0000000000000000e+00  1.8065836034001067e-06 1.1118344389311789e-05 0.0000000000000000e+00  2.1248827008052388e-06 1.4012596792753976e-05 0.0000000000000000e+00  2.4665134271115112e-06 1.7080146836605858e-05 0.0000000000000000e+00  2.8286470900395728e-06 2.0264519026373747e-05 0.0000000000000000e+00  3.2033390627857204e-06 2.3511443353624574e-05 0.0000000000000000e+00  3.5753853064765661e-06 2.6772805506024556e-05 0.0000000000000000e+00  3.9345469836549988e-06 3.0019263742870627e-05 0.0000000000000000e+00  4.2857967081669231e-06 3.3235312257326701e-05 0.0000000000000000e+00  4.6280863401423818e-06 3.6390290482622747e-05 0.0000000000000000e+00  4.9626652626562120e-06 3.9457705312914842e-05 0.0000000000000000e+00  5.2889835493666577e-06 4.2423439401233257e-05 0.0000000000000000e+00  5.6048079183926432e-06 4.5282362752063201e-05 0.0000000000000000e+00  5.9064138333775865e-06 4.8026254596650949e-05 0.0000000000000000e+00  6.1914109754879971e-06 5.0639274738685518e-05 0.0000000000000000e+00  6.4601357348498303e-06 5.3110180282954233e-05 0.0000000000000000e+00  6.7140785109578384e-06 5.5438142093892120e-05 0.0000000000000000e+00  6.9535083294453026e-06 5.7622900332148961e-05 0.0000000000000000e+00  7.1780708926460555e-06 5.9654287239464068e-05 0.0000000000000000e+00  7.3881151287855446e-06 6.1515002083816216e-05 0.0000000000000000e+00  7.5845542985726182e-06 6.3189623123011856e-05 0.0000000000000000e+00  7.7680275657364985e-06 6.4668905507824238e-05 0.0000000000000000e+00  7.9385283542718472e-06 6.5950390988202390e-05 0.0000000000000000e+00  8.0944310309958559e-06 6.7037181335125032e-05 0.0000000000000000e+00  8.2337696212309999e-06 6.7932091527327573e-05 0.0000000000000000e+00  8.3563123430930359e-06 6.8637359307172462e-05 0.0000000000000000e+00  8.4616843256559385e-06 6.9159890678883518e-05 0.0000000000000000e+00  8.5495093942267313e-06 6.9505334211073712e-05 0.0000000000000000e+00  8.6222260797076296e-06 6.9677397941558629e-05 0.0000000000000000e+00  8.6842304569876948e-06 6.9688024573796693e-05 0.0000000000000000e+00  8.7389091118965217e-06 6.9559956009393708e-05 0.0000000000000000e+00  8.7876625012368778e-06 6.9319965031070183e-05 0.0000000000000000e+00  8.8289083268941866e-06 6.8997424788668518e-05 0.0000000000000000e+00  8.8569085912244233e-06 6.8620913655575679e-05 0.0000000000000000e+00  8.8744343774142599e-06 6.8188535039142106e-05 0.0000000000000000e+00  8.9046427691482162e-06 6.7670653914933968e-05 0.0000000000000000e+00  8.8799690404894114e-06 6.7108252192337226e-05 0.0000000000000000e+00  9.6533970870387305e-06 6.7142153236084495e-05 0.0000000000000000e+00  1.0802784434586953e-05 6.7411649129563506e-05 0.0000000000000000e+00  1.1898314297412983e-05 6.7816091661461301e-05 0.0000000000000000e+00  1.2997487043484979e-05 6.8222197266877907e-05 0.0000000000000000e+00  1.4093393744682501e-05 6.8635606719742164e-05 0.0000000000000000e+00  1.5186180411200910e-05 6.9025619499717865e-05 0.0000000000000000e+00  1.6246403254015341e-05 6.9420612430787083e-05 0.0000000000000000e+00  1.7220717385157729e-05 6.9836562976340297e-05 0.0000000000000000e+00  1.8314927414825357e-05 6.9778803336274247e-05 0.0000000000000000e+00  1.9422694668445164e-05 7.0090703429812786e-05 0.0000000000000000e+00  2.0449312513335983e-05 7.0716195202143192e-05 0.0000000000000000e+00  2.1374339087596190e-05 7.1601327224889147e-05 0.0000000000000000e+00  2.2207048873338864e-05 7.2667210148666563e-05 0.0000000000000000e+00  2.2965968230036255e-05 7.3850717595368482e-05 0.0000000000000000e+00  2.3668323129558082e-05 7.5108122012881135e-05 0.0000000000000000e+00  2.4327084482001604e-05 7.6411394673283595e-05 0.0000000000000000e+00  2.4952181384473387e-05 7.7741381513599981e-05 0.0000000000000000e+00  2.5550924427438062e-05 7.9087988932288283e-05 0.0000000000000000e+00  2.6128263647090092e-05 8.0447330046603448e-05 0.0000000000000000e+00  2.6687349622969719e-05 8.1818964329857295e-05 0.0000000000000000e+00  2.7230092926927673e-05 8.3204081183399858e-05 0.0000000000000000e+00  2.7757597272102712e-05 8.4604403797983310e-05 0.0000000000000000e+00  2.8270441444124170e-05 8.6021653715927576e-05 0.0000000000000000e+00  2.8768844272678356e-05 8.7457314894202767e-05 0.0000000000000000e+00  2.9252764863930093e-05 8.8912530794436919e-05 0.0000000000000000e+00  2.9721972207824034e-05 9.0388066269333041e-05 0.0000000000000000e+00  3.0176098549857386e-05 9.1884307457506723e-05 0.0000000000000000e+00  3.0614681539391033e-05 9.3401283650327235e-05 0.0000000000000000e+00  3.1037197802794673e-05 9.4938698746936117e-05 0.0000000000000000e+00  3.1443089862430604e-05 9.6495965017786076e-05 0.0000000000000000e+00  3.1831787957646235e-05 9.8072234987914021e-05 0.0000000000000000e+00  3.2202728238922603e-05 9.9666429101922280e-05 0.0000000000000000e+00  3.2555368667163545e-05 1.0127725852671659e-04 0.0000000000000000e+00  3.2889203614320103e-05 1.0290324381684410e-04 0.0000000000000000e+00  3.3203777755657173e-05 1.0454273086613560e-04 0.0000000000000000e+00  3.3498699520878122e-05 1.0619390565090647e-04 0.0000000000000000e+00  3.3773654174764323e-05 1.0785480903504920e-04 0.0000000000000000e+00  3.4028416499898345e-05 1.0952335259595929e-04 0.0000000000000000e+00  3.4262863009849603e-05 1.1119733617267059e-04 0.0000000000000000e+