<?xml version="1.0"?>
<VTKFile type="UnstructuredGrid"  version="0.1"  >
<UnstructuredGrid>
<Piece  NumberOfPoints="5151" NumberOfCells="10000">
<Points>
<DataArray  type="Float64"  NumberOfComponents="3"  format="ascii">0 0 0  0.01 0 0  0.02 0 0  0.03 0 0  0.04 0 0  0.05 0 0  0.06 0 0  0.07000000000000001 0 0  0.08 0 0  0.09 0 0  0.1 0 0  0.11 0 0  0.12 0 0  0.13 0 0  0.14 0 0  0.15 0 0  0.16 0 0  0.17 0 0  0.18 0 0  0.19 0 0  0.2 0 0  0.21 0 0  0.22 0 0  0.23 0 0  0.24 0 0  0.25 0 0  0.26 0 0  0.27 0 0  0.28 0 0  0.29 0 0  0.3 0 0  0.31 0 0  0.32 0 0  0.33 0 0  0.34 0 0  0.35 0 0  0.36 0 0  0.37 0 0  0.38 0 0  0.39 0 0  0.4 0 0  0.41 0 0  0.42 0 0  0.43 0 0  0.44 0 0  0.45 0 0  0.46 0 0  0.47 0 0  0.48 0 0  0.49 0 0  0.5 0 0  0.51 0 0  0.52 0 0  0.53 0 0  0.54 0 0  0.55 0 0  0.5600000000000001 0 0  0.57 0 0  0.58 0 0  0.59 0 0  0.6 0 0  0.61 0 0  0.62 0 0  0.63 0 0  0.64 0 0  0.65 0 0  0.66 0 0  0.67 0 0  0.68 0 0  0.6899999999999999 0 0  0.7 0 0  0.71 0 0  0.72 0 0  0.73 0 0  0.74 0 0  0.75 0 0  0.76 0 0  0.77 0 0  0.78 0 0  0.79 0 0  0.8 0 0  0.8100000000000001 0 0  0.82 0 0  0.83 0 0  0.84 0 0  0.85 0 0  0.86 0 0  0.87 0 0  0.88 0 0  0.89 0 0  0.9 0 0  0.91 0 0  0.92 0 0  0.93 0 0  0.9399999999999999 0 0  0.95 0 0  0.96 0 0  0.97 0 0  0.98 0 0  0.99 0 0  1 0 0  0 0.01 0  0.01 0.01 0  0.02 0.01 0  0.03 0.01 0  0.04 0.01 0  0.05 0.01 0  0.06 0.01 0  0.07000000000000001 0.01 0  0.08 0.01 0  0.09 0.01 0  0.1 0.01 0  0.11 0.01 0  0.12 0.01 0  0.13 0.01 0  0.14 0.01 0  0.15 0.01 0  0.16 0.01 0  0.17 0.01 0  0.18 0.01 0  0.19 0.01 0  0.2 0.01 0  0.21 0.01 0  0.22 0.01 0  0.23 0.01 0  0.24 0.01 0  0.25 0.01 0  0.26 0.01 0  0.27 0.01 0  0.28 0.01 0  0.29 0.01 0  0.3 0.01 0  0.31 0.01 0  0.32 0.01 0  0.33 0.01 0  0.34 0.01 0  0.35 0.01 0  0.36 0.01 0  0.37 0.01 0  0.38 0.01 0  0.39 0.01 0  0.4 0.01 0  0.41 0.01 0  0.42 0.01 0  0.43 0.01 0  0.44 0.01 0  0.45 0.01 0  0.46 0.01 0  0.47 0.01 0  0.48 0.01 0  0.49 0.01 0  0.5 0.01 0  0.51 0.01 0  0.52 0.01 0  0.53 0.01 0  0.54 0.01 0  0.55 0.01 0  0.5600000000000001 0.01 0  0.57 0.01 0  0.58 0.01 0  0.59 0.01 0  0.6 0.01 0  0.61 0.01 0  0.62 0.01 0  0.63 0.01 0  0.64 0.01 0  0.65 0.01 0  0.66 0.01 0  0.67 0.01 0  0.68 0.01 0  0.6899999999999999 0.01 0  0.7 0.01 0  0.71 0.01 0  0.72 0.01 0  0.73 0.01 0  0.74 0.01 0  0.75 0.01 0  0.76 0.01 0  0.77 0.01 0  0.78 0.01 0  0.79 0.01 0  0.8 0.01 0  0.8100000000000001 0.01 0  0.82 0.01 0  0.83 0.01 0  0.84 0.01 0  0.85 0.01 0  0.86 0.01 0  0.87 0.01 0  0.88 0.01 0  0.89 0.01 0  0.9 0.01 0  0.91 0.01 0  0.92 0.01 0  0.93 0.01 0  0.9399999999999999 0.01 0  0.95 0.01 0  0.96 0.01 0  0.97 0.01 0  0.98 0.01 0  0.99 0.01 0  1 0.01 0  0 0.02 0  0.01 0.02 0  0.02 0.02 0  0.03 0.02 0  0.04 0.02 0  0.05 0.02 0  0.06 0.02 0  0.07000000000000001 0.02 0  0.08 0.02 0  0.09 0.02 0  0.1 0.02 0  0.11 0.02 0  0.12 0.02 0  0.13 0.02 0  0.14 0.02 0  0.15 0.02 0  0.16 0.02 0  0.17 0.02 0  0.18 0.02 0  0.19 0.02 0  0.2 0.02 0  0.21 0.02 0  0.22 0.02 0  0.23 0.02 0  0.24 0.02 0  0.25 0.02 0  0.26 0.02 0  0.27 0.02 0  0.28 0.02 0  0.29 0.02 0  0.3 0.02 0  0.31 0.02 0  0.32 0.02 0  0.33 0.02 0  0.34 0.02 0  0.35 0.02 0  0.36 0.02 0  0.37 0.02 0  0.38 0.02 0  0.39 0.02 0  0.4 0.02 0  0.41 0.02 0  0.42 0.02 0  0.43 0.02 0  0.44 0.02 0  0.45 0.02 0  0.46 0.02 0  0.47 0.02 0  0.48 0.02 0  0.49 0.02 0  0.5 0.02 0  0.51 0.02 0  0.52 0.02 0  0.53 0.02 0  0.54 0.02 0  0.55 0.02 0  0.5600000000000001 0.02 0  0.57 0.02 0  0.58 0.02 0  0.59 0.02 0  0.6 0.02 0  0.61 0.02 0  0.62 0.02 0  0.63 0.02 0  0.64 0.02 0  0.65 0.02 0  0.66 0.02 0  0.67 0.02 0  0.68 0.02 0  0.6899999999999999 0.02 0  0.7 0.02 0  0.71 0.02 0  0.72 0.02 0  0.73 0.02 0  0.74 0.02 0  0.75 0.02 0  0.76 0.02 0  0.77 0.02 0  0.78 0.02 0  0.79 0.02 0  0.8 0.02 0  0.8100000000000001 0.02 0  0.82 0.02 0  0.83 0.02 0  0.84 0.02 0  0.85 0.02 0  0.86 0.02 0  0.87 0.02 0  0.88 0.02 0  0.89 0.02 0  0.9 0.02 0  0.91 0.02 0  0.92 0.02 0  0.93 0.02 0  0.9399999999999999 0.02 0  0.95 0.02 0  0.96 0.02 0  0.97 0.02 0  0.98 0.02 0  0.99 0.02 0  1 0.02 0  0 0.03 0  0.01 0.03 0  0.02 0.03 0  0.03 0.03 0  0.04 0.03 0  0.05 0.03 0  0.06 0.03 0  0.07000000000000001 0.03 0  0.08 0.03 0  0.09 0.03 0  0.1 0.03 0  0.11 0.03 0  0.12 0.03 0  0.13 0.03 0  0.14 0.03 0  0.15 0.03 0  0.16 0.03 0  0.17 0.03 0  0.18 0.03 0  0.19 0.03 0  0.2 0.03 0  0.21 0.03 0  0.22 0.03 0  0.23 0.03 0  0.24 0.03 0  0.25 0.03 0  0.26 0.03 0  0.27 0.03 0  0.28 0.03 0  0.29 0.03 0  0.3 0.03 0  0.31 0.03 0  0.32 0.03 0  0.33 0.03 0  0.34 0.03 0  0.35 0.03 0  0.36 0.03 0  0.37 0.03 0  0.38 0.03 0  0.39 0.03 0  0.4 0.03 0  0.41 0.03 0  0.42 0.03 0  0.43 0.03 0  0.44 0.03 0  0.45 0.03 0  0.46 0.03 0  0.47 0.03 0  0.48 0.03 0  0.49 0.03 0  0.5 0.03 0  0.51 0.03 0  0.52 0.03 0  0.53 0.03 0  0.54 0.03 0  0.55 0.03 0  0.5600000000000001 0.03 0  0.57 0.03 0  0.58 0.03 0  0.59 0.03 0  0.6 0.03 0  0.61 0.03 0  0.62 0.03 0  0.63 0.03 0  0.64 0.03 0  0.65 0.03 0  0.66 0.03 0  0.67 0.03 0  0.68 0.03 0  0.6899999999999999 0.03 0  0.7 0.03 0  0.71 0.03 0  0.72 0.03 0  0.73 0.03 0  0.74 0.03 0  0.75 0.03 0  0.76 0.03 0  0.77 0.03 0  0.78 0.03 0  0.79 0.03 0  0.8 0.03 0  0.8100000000000001 0.03 0  0.82 0.03 0  0.83 0.03 0  0.84 0.03 0  0.85 0.03 0  0.86 0.03 0  0.87 0.03 0  0.88 0.03 0  0.89 0.03 0  0.9 0.03 0  0.91 0.03 0  0.92 0.03 0  0.93 0.03 0  0.9399999999999999 0.03 0  0.95 0.03 0  0.96 0.03 0  0.97 0.03 0  0.98 0.03 0  0.99 0.03 0  1 0.03 0  0 0.04 0  0.01 0.04 0  0.02 0.04 0  0.03 0.04 0  0.04 0.04 0  0.05 0.04 0  0.06 0.04 0  0.07000000000000001 0.04 0  0.08 0.04 0  0.09 0.04 0  0.1 0.04 0  0.11 0.04 0  0.12 0.04 0  0.13 0.04 0  0.14 0.04 0  0.15 0.04 0  0.16 0.04 0  0.17 0.04 0  0.18 0.04 0  0.19 0.04 0  0.2 0.04 0  0.21 0.04 0  0.22 0.04 0  0.23 0.04 0  0.24 0.04 0  0.25 0.04 0  0.26 0.04 0  0.27 0.04 0  0.28 0.04 0  0.29 0.04 0  0.3 0.04 0  0.31 0.04 0  0.32 0.04 0  0.33 0.04 0  0.34 0.04 0  0.35 0.04 0  0.36 0.04 0  0.37 0.04 0  0.38 0.04 0  0.39 0.04 0  0.4 0.04 0  0.41 0.04 0  0.42 0.04 0  0.43 0.04 0  0.44 0.04 0  0.45 0.04 0  0.46 0.04 0  0.47 0.04 0  0.48 0.04 0  0.49 0.04 0  0.5 0.04 0  0.51 0.04 0  0.52 0.04 0  0.53 0.04 0  0.54 0.04 0  0.55 0.04 0  0.5600000000000001 0.04 0  0.57 0.04 0  0.58 0.04 0  0.59 0.04 0  0.6 0.04 0  0.61 0.04 0  0.62 0.04 0  0.63 0.04 0  0.64 0.04 0  0.65 0.04 0  0.66 0.04 0  0.67 0.04 0  0.68 0.04 0  0.6899999999999999 0.04 0  0.7 0.04 0  0.71 0.04 0  0.72 0.04 0  0.73 0.04 0  0.74 0.04 0  0.75 0.04 0  0.76 0.04 0  0.77 0.04 0  0.78 0.04 0  0.79 0.04 0  0.8 0.04 0  0.8100000000000001 0.04 0  0.82 0.04 0  0.83 0.04 0  0.84 0.04 0  0.85 0.04 0  0.86 0.04 0  0.87 0.04 0  0.88 0.04 0  0.89 0.04 0  0.9 0.04 0  0.91 0.04 0  0.92 0.04 0  0.93 0.04 0  0.9399999999999999 0.04 0  0.95 0.04 0  0.96 0.04 0  0.97 0.04 0  0.98 0.04 0  0.99 0.04 0  1 0.04 0  0 0.05 0  0.01 0.05 0  0.02 0.05 0  0.03 0.05 0  0.04 0.05 0  0.05 0.05 0  0.06 0.05 0  0.07000000000000001 0.05 0  0.08 0.05 0  0.09 0.05 0  0.1 0.05 0  0.11 0.05 0  0.12 0.05 0  0.13 0.05 0  0.14 0.05 0  0.15 0.05 0  0.16 0.05 0  0.17 0.05 0  0.18 0.05 0  0.19 0.05 0  0.2 0.05 0  0.21 0.05 0  0.22 0.05 0  0.23 0.05 0  0.24 0.05 0  0.25 0.05 0  0.26 0.05 0  0.27 0.05 0  0.28 0.05 0  0.29 0.05 0  0.3 0.05 0  0.31 0.05 0  0.32 0.05 0  0.33 0.05 0  0.34 0.05 0  0.35 0.05 0  0.36 0.05 0  0.37 0.05 0  0.38 0.05 0  0.39 0.05 0  0.4 0.05 0  0.41 0.05 0  0.42 0.05 0  0.43 0.05 0  0.44 0.05 0  0.45 0.05 0  0.46 0.05 0  0.47 0.05 0  0.48 0.05 0  0.49 0.05 0  0.5 0.05 0  0.51 0.05 0  0.52 0.05 0  0.53 0.05 0  0.54 0.05 0  0.55 0.05 0  0.5600000000000001 0.05 0  0.57 0.05 0  0.58 0.05 0  0.59 0.05 0  0.6 0.05 0  0.61 0.05 0  0.62 0.05 0  0.63 0.05 0  0.64 0.05 0  0.65 0.05 0  0.66 0.05 0  0.67 0.05 0  0.68 0.05 0  0.6899999999999999 0.05 0  0.7 0.05 0  0.71 0.05 0  0.72 0.05 0  0.73 0.05 0  0.74 0.05 0  0.75 0.05 0  0.76 0.05 0  0.77 0.05 0  0.78 0.05 0  0.79 0.05 0  0.8 0.05 0  0.8100000000000001 0.05 0  0.82 0.05 0  0.83 0.05 0  0.84 0.05 0  0.85 0.05 0  0.86 0.05 0  0.87 0.05 0  0.88 0.05 0  0.89 0.05 0  0.9 0.05 0  0.91 0.05 0  0.92 0.05 0  0.93 0.05 0  0.9399999999999999 0.05 0  0.95 0.05 0  0.96 0.05 0  0.97 0.05 0  0.98 0.05 0  0.99 0.05 0  1 0.05 0  0 0.06 0  0.01 0.06 0  0.02 0.06 0  0.03 0.06 0  0.04 0.06 0  0.05 0.06 0  0.06 0.06 0  0.07000000000000001 0.06 0  0.08 0.06 0  0.09 0.06 0  0.1 0.06 0  0.11 0.06 0  0.12 0.06 0  0.13 0.06 0  0.14 0.06 0  0.15 0.06 0  0.16 0.06 0  0.17 0.06 0  0.18 0.06 0  0.19 0.06 0  0.2 0.06 0  0.21 0.06 0  0.22 0.06 0  0.23 0.06 0  0.24 0.06 0  0.25 0.06 0  0.26 0.06 0  0.27 0.06 0  0.28 0.06 0  0.29 0.06 0  0.3 0.06 0  0.31 0.06 0  0.32 0.06 0  0.33 0.06 0  0.34 0.06 0  0.35 0.06 0  0.36 0.06 0  0.37 0.06 0  0.38 0.06 0  0.39 0.06 0  0.4 0.06 0  0.41 0.06 0  0.42 0.06 0  0.43 0.06 0  0.44 0.06 0  0.45 0.06 0  0.46 0.06 0  0.47 0.06 0  0.48 0.06 0  0.49 0.06 0  0.5 0.06 0  0.51 0.06 0  0.52 0.06 0  0.53 0.06 0  0.54 0.06 0  0.55 0.06 0  0.5600000000000001 0.06 0  0.57 0.06 0  0.58 0.06 0  0.59 0.06 0  0.6 0.06 0  0.61 0.06 0  0.62 0.06 0  0.63 0.06 0  0.64 0.06 0  0.65 0.06 0  0.66 0.06 0  0.67 0.06 0  0.68 0.06 0  0.6899999999999999 0.06 0  0.7 0.06 0  0.71 0.06 0  0.72 0.06 0  0.73 0.06 0  0.74 0.06 0  0.75 0.06 0  0.76 0.06 0  0.77 0.06 0  0.78 0.06 0  0.79 0.06 0  0.8 0.06 0  0.8100000000000001 0.06 0  0.82 0.06 0  0.83 0.06 0  0.84 0.06 0  0.85 0.06 0  0.86 0.06 0  0.87 0.06 0  0.88 0.06 0  0.89 0.06 0  0.9 0.06 0  0.91 0.06 0  0.92 0.06 0  0.93 0.06 0  0.9399999999999999 0.06 0  0.95 0.06 0  0.96 0.06 0  0.97 0.06 0  0.98 0.06 0  0.99 0.06 0  1 0.06 0  0 0.07000000000000001 0  0.01 0.07000000000000001 0  0.02 0.07000000000000001 0  0.03 0.07000000000000001 0  0.04 0.07000000000000001 0  0.05 0.07000000000000001 0  0.06 0.07000000000000001 0  0.07000000000000001 0.07000000000000001 0  0.08 0.07000000000000001 0  0.09 0.07000000000000001 0  0.1 0.07000000000000001 0  0.11 0.07000000000000001 0  0.12 0.07000000000000001 0  0.13 0.07000000000000001 0  0.14 0.07000000000000001 0  0.15 0.07000000000000001 0  0.16 0.07000000000000001 0  0.17 0.07000
[...]
<PointData  Scalars="rho_bar"> 
<DataArray  type="Float64"  Name="rho_bar"  format="ascii">9.9666846841732581e-01  9.9699096437596801e-01  9.9646412487120806e-01  9.9620307183415358e-01  9.9587805394752382e-01  9.9559975510995424e-01  9.9535511915594399e-01  9.9511857346356802e-01  9.9483434284373162e-01  9.9444325849005877e-01  9.9392176682221900e-01  9.9331169208109305e-01  9.9271553460083584e-01  9.9225686583707906e-01  9.9202874131408436e-01  9.9206079401977421e-01  9.9232626400493962e-01  9.9277031284574124e-01  9.9333126582112552e-01  9.9394967813761825e-01  9.9457469591451397e-01  9.9517011834603730e-01  9.9571955181192029e-01  9.9622321022409943e-01  9.9668902430705175e-01  9.9712784632950258e-01  9.9755111830456200e-01  9.9796653313486594e-01  9.9837399528737025e-01  9.9875077950201774e-01  9.9903583797338336e-01  9.9917890971537526e-01  9.9922541570352619e-01  9.9926896719941194e-01  9.9931730955083908e-01  9.9930015074060552e-01  9.9913906032730004e-01  9.9855045874725945e-01  9.9722569118963578e-01  9.8534204813026804e-01  9.4094194143076271e-01  5.2354432470409429e-01  1.2181631020666360e-01  2.5301933651550295e-02  6.8533322678085993e-03  2.1804326947477384e-03  8.1767723888523760e-04  3.3483834950385414e-04  1.6053422129920955e-04  8.5055552702260361e-05  4.6289997724801571e-05  2.6149626271416250e-05  1.5893295434857810e-05  1.0045197272213752e-05  6.4386435268663294e-06  4.2653157298288101e-06  2.9106125761072424e-06  2.0236936765232742e-06  1.4391192175844045e-06  1.0451050876427729e-06  7.7260462578069202e-07  5.8120515405450466e-07  4.4411171362399619e-07  3.4414208948531215e-07  2.7007522764711564e-07  2.1432836336239397e-07  1.7177273472010644e-07  1.3885842698944737e-07  1.1309621131873484e-07  9.2714111105016135e-08  7.6432525747012694e-08  6.3314591038420680e-08  5.2665291953580003e-08  4.3962363446536765e-08  3.6808532880936790e-08  3.0898305666167959e-08  2.5994100155710976e-08  2.1909295993831773e-08  1.8495926035321163e-08  1.5635794647458918e-08  1.3233596929853448e-08  1.1212106634520018e-08  9.5081926153448621e-09  8.0701914132149153e-09  6.8554029938889007e-09  5.8285717442282294e-09  4.9603527161041661e-09  4.2263930204537956e-09  3.6063266313988091e-09  3.0831896669365461e-09  2.6427824665638002e-09  2.2733048698080920e-09  1.9648960704359847e-09  1.7094174229723182e-09  1.5001450551544245e-09  1.3316493676195795e-09  1.1995777319250211e-09  1.1006005504736137e-09  1.0323243388537110e-09  9.9357409676901182e-10  9.8514752492423780e-10  9.9996896226687171e-01  9.9830020554758125e-01  9.9877717585859283e-01  9.9862862751579307e-01  9.9827889719624929e-01  9.9753782875862851e-01  9.9633254288975370e-01  9.9466427130318591e-01  9.9263811405235669e-01  9.9047079824716544e-01  9.8845491083560499e-01  9.8689192824641769e-01  9.8602166599656860e-01  9.8596510984392416e-01  9.8668877833482149e-01  9.8801927931732103e-01  9.8970454171507494e-01  9.9148366658876319e-01  9.9314472725727188e-01  9.9456126155624669e-01  9.9569300845019093e-01  9.9656044036849378e-01  9.9720783352010656e-01  9.9767637587051416e-01  9.9800092497486093e-01  9.9821139956065275e-01  9.9832752337757857e-01  9.9836289070157425e-01  9.9833262910063081e-01  9.9826626475329749e-01  9.9824836768283443e-01  9.9840802877860113e-01  9.9874842609730319e-01  9.9906435020566642e-01  9.9919269706247504e-01  9.9916869283827892e-01  9.9900350507089664e-01  9.9850616960624883e-01  9.9664570269108366e-01  9.8874587178122719e-01  9.3880644358902565e-01  6.0358180895267766e-01  1.4757660092092689e-01  3.2821019803618831e-02  8.7300479489365573e-03  2.6694612671851374e-03  9.5628683471852530e-04  4.3320918397434069e-04  2.0750782853594485e-04  9.7663933167714179e-05  5.1201558888116179e-05  3.0890244345206080e-05  1.8702021097843123e-05  1.1198639520291136e-05  7.1697718954971784e-06  4.7620692015864188e-06  3.1831553665936980e-06  2.1942284030338109e-06  1.5513425626023386e-06  1.1156754941082510e-06  8.1954999372607561e-07  6.1296113420591079e-07  4.6583057425560749e-07  3.5941102892657970e-07  2.8097100377877982e-07  2.2224955002992012e-07  1.7762964604133150e-07  1.4325505868723861e-07  1.1644458589170229e-07  9.5297452402542225e-08  7.8449226257096247e-08  6.4905710076340041e-08  5.3932597522665688e-08  4.4980279078844033e-08  3.7632308179502032e-08  3.1569359656083850e-08  2.6543931249177655e-08  2.2362085817563261e-08  1.8870503133322851e-08  1.5946847058560438e-08  1.3492819438046320e-08  1.1428727426666831e-08  9.6897411997953287e-09  8.2226521919433223e-09  6.9837377231715299e-09  5.9367660540782158e-09  5.0517612964100282e-09  4.3037409713377775e-09  3.6719224282887471e-09  3.1389292283164225e-09  2.6903017179939356e-09  2.3139559940821751e-09  1.9998616715756285e-09  1.7396811928581202e-09  1.5265913771631470e-09  1.3550254542471351e-09  1.2205535870023826e-09  1.1197298671809284e-09  1.0500313980959220e-09  1.0096958981692192e-09  9.9744089910079336e-10  9.8326789316333207e-01  9.8859187830967210e-01  9.8609681638373903e-01  9.8456885732341592e-01  9.8282470308470438e-01  9.8135279324169744e-01  9.8035703515818728e-01  9.7989869544512420e-01  9.7981032326707496e-01  9.7972459850937055e-01  9.7923180624517814e-01  9.7812808007067598e-01  9.7657947356398378e-01  9.7502222233896196e-01  9.7389538850670443e-01  9.7341692196234675e-01  9.7356890654008599e-01  9.7424251461269118e-01  9.7535683399056838e-01  9.7684256868546682e-01  9.7859913569206636e-01  9.8049207817187445e-01  9.8239232818525302e-01  9.8423806195020302e-01  9.8603904068711501e-01  9.8782154299108960e-01  9.8961577008587953e-01  9.9145939411449224e-01  9.9336852667332520e-01  9.9531234040038263e-01  9.9713138496012332e-01  9.9840433693162633e-01  9.9874197208591076e-01  9.9848044352662657e-01  9.9838181834755602e-01  9.9853464924856572e-01  9.9850144842264810e-01  9.9798991385491287e-01  9.9634986371083112e-01  9.8975661894325873e-01  9.5700570051262068e-01  7.5162600976523330e-01  2.8219456788956238e-01  6.5700662471285490e-02  1.7234002869031272e-02  5.0559360759739264e-03  2.1050336679551990e-03  7.6438981978510794e-04  2.7941729665993670e-04  1.5495381567622905e-04  9.8463024118501761e-05  5.0620296415551724e-05  2.5465880710705720e-05  1.6395851776691089e-05  1.0541114956692397e-05  6.3633044805014586e-06  4.1876707740953317e-06  2.8438414321965308e-06  1.9314996131507581e-06  1.3625949568680040e-06  9.8115056673091750e-07  7.1914680357232955e-07  5.3850202364301600e-07  4.0972158609384233e-07  3.1658954691378078e-07  2.4797097239698009e-07  1.9651632944730705e-07  1.5736416762634389e-07  1.2714175880298092e-07  1.0352077144203522e-07  8.4849557024876223e-08  6.9942868792813472e-08  5.7936434613202067e-08  4.8190916593991295e-08  4.0226935815792634e-08  3.3680605526467841e-08  2.8272196510992156e-08  2.3784329895400125e-08  2.0046288300201244e-08  1.6922814392299590e-08  1.4305737001480549e-08  1.2107946131565762e-08  1.0258721575184621e-08  8.7004371025077359e-09  7.3857462091354225e-09  6.2756879036086151e-09  5.3379850186785023e-09  4.5459080520980910e-09  3.8771896791109167e-09  3.3133213282854385e-09  2.8388609495910251e-09  2.4409690548867955e-09  2.1089628066425413e-09  1.8340113284547372e-09  1.6088449995192080e-09  1.4275697224750884e-09  1.2854630713429900e-09  1.1788475547221195e-09  1.1049422836589542e-09  1.0617896709120449e-09  1.0479723342170285e-09  1.0034229328788251e+00  9.8814071845308915e-01  9.9113155051746316e-01  9.9086336189124780e-01  9.8825503886639932e-01  9.8150180064742576e-01  9.6893331182300202e-01  9.4939648791858111e-01  9.2282486271246877e-01  8.9084089783031772e-01  8.5703710890836748e-01  8.2667346840920897e-01  8.0543947398978821e-01  7.9762457490051775e-01  8.0444232394971626e-01  8.2336564770495735e-01  8.4964244744813189e-01  8.7847989230868018e-01  9.0606705069929994e-01  9.2987949358588917e-01  9.4881533364173143e-01  9.6292333832724819e-01  9.7293624962392966e-01  9.7980884452909367e-01  9.8434861823957043e-01  9.8717774767326594e-01  9.8872030879475170e-01  9.8920632795827801e-01  9.8879179304060516e-01  9.8767023406414278e-01  9.8620304859964947e-01  9.8540539396005578e-01  9.8699382856560403e-01  9.9117425880018173e-01  9.9507679260925519e-01  9.9656371169938307e-01  9.9674451083681725e-01  9.9656468106745144e-01  9.9526404702298510e-01  9.9073106536885558e-01  9.7257343685879261e-01  8.9290463410666010e-01  5.8531138914560954e-01  1.9715084961964674e-01  5.2568491646807915e-02  1.7402676605970856e-02  4.6141844910382824e-03  1.6543226689543129e-03  1.0824985539702827e-03  5.3904858189819855e-04  1.7226419715573156e-04  7.4831117119864170e-05  6.1974359183722017e-05  3.5376972972686558e-05  1.6453361350950460e-05  1.0867557735056862e-05  7.0508593492655155e-06  4.2012632401058405e-06  2.8274468949523275e-06  1.9174146318778563e-06  1.3145878178171509e-06  9.4137260297702279e-07  6.8378566692756070e-07  5.0824904832063151e-07  3.8517765356657660e-07  2.9649445190584014e-07  2.3169008270899843e-07  1.8329158554228111e-07  1.4659470788892978e-07  1.1833988484964578e-07  9.6295370910548568e-08  7.8893058699914047e-08  6.5011855386601987e-08  5.3838562093242958e-08  4.4773454063676892e-08  3.7368057705045141e-08  3.1282506736365410e-08  2.6255884022256710e-08  2.2085634072385195e-08  1.8612806049643966e-08  1.5711503543645537e-08  1.3281091908163227e-08  1.1240557999169627e-08  9.5241759830344608e-09  8.0783895590069734e-09  6.8592356374959096e-09  5.8305576549243078e-09  4.9624326310416530e-09  4.2301114781091552e-09  3.6130126753563996e-09  3.0940587995814090e-09  2.6590479606022266e-09  2.2962095576837507e-09  1.9958075315249992e-09  1.7498569104926081e-09  1.5518643914781854e-09  1.3966379826190494e-09  1.2801184162617248e-09  1.1992582184217232e-09  1.1518761917189371e-09  1.1366546429009700e-09  7.1193552422328865e-01  7.2839949730553843e-01  7.0474292086966583e-01  6.6435185589799473e-01  6.0928595522177065e-01  5.4277892806780392e-01  4.6933742686192476e-01  3.9393805820033023e-01  3.2186512328926370e-01  2.5797167045362579e-01  2.0595736138750700e-01  1.6814795838447322e-01  1.4537517235248990e-01  1.3736788264927510e-01  1.4351334543267730e-01  1.6310677697825107e-01  1.9493520336480330e-01  2.3768466141840633e-01  2.8982748290636223e-01  3.4872926601112647e-01  4.1093718573464882e-01  4.7278087969870936e-01  5.3080941248847668e-01  5.8296091328172217e-01  6.2978748526373252e-01  6.7376663025987771e-01  7.1602135784524734e-01  7.5728452778135324e-01  7.9880384306248808e-01  8.4107514106066139e-01  8.8377241689150798e-01  9.2486289497765484e-01  9.5798743361334771e-01  9.7525671303848538e-01  9.7963862176463112e-01  9.8358554812242827e-01  9.8939344257815287e-01  9.9218284087918085e-01  9.9233809241265303e-01  9.9026467906115723e-01  9.8276677610997920e-01  9.5739997163035440e-01  8.7487974197794194e-01  6.1080440689847604e-01  2.5344663491810443e-01  6.8411995221023925e-02  2.5303333985853899e-02  1.1664151879128903e-02  3.3480686676145869e-03  6.6010858132443332e-04  5.6264491714012183e-04  4.8008086395591389e-04  1.7542865085591624e-04  5.2397816166286830e-05  4.6534518358453246e-05  2.6994868701520053e-05  1.1826455088682262e-05  8.1237315290141185e-06  4.9950725300847964e-06  2.9855316172190684e-06  2.0464028826491365e-06  1.3659016304694897e-06  9.5418115849383985e-07  6.8762497522102166e-07  5.0404563617138623e-07  3.7918870359528459e-07  2.8995965275739187e-07  2.2544976509872454e-07  1.7768076063719413e-07  1.4167590340726286e-07  1.1410028992778643e-07  9.2669759399154252e-08  7.5807102470944295e-08  6.2391007952740096e-08  5.1614916974211506e-08  4.2887261951898319e-08  3.5767889959378402e-08  2.9924533739632126e-08  2.5102998261333347e-08  2.1106516434988476e-08  1.7781058330061774e-08  1.5004868596614809e-08  1.2680824940776934e-08  1.0730873462183600e-08  9.0918043077127297e-09  7.7121788143306698e-09  6.5498481082436203e-09  5.5702146207744684e-09  4.7447018982407669e-09  4.0497139335467511e-09  3.4656895271434310e-09  2.9764401108873042e-09  2.5685640049290507e-09  2.2310170587182234e-09  1.9547310526025322e-09  1.7323648116891561e-09  1.5580306747445049e-09  1.4271509241563470e-09  1.3362718147833402e-09  1.2830053279568206e-09  1.2659387951943597e-09  7.1813497138750085e-02  6.2280047157409257e-02  4.9205111406410311e-02  3.2232694219851608e-02  1.3266500237091507e-02  -2.7636365478955925e-03  -1.3703902447261716e-02  -1.9161915665348302e-02  -1.9916968549871798e-02  -1.7443042794567414e-02  -1.3390302209517611e-02  -9.1802499725628494e-03  -5.7946611976590866e-03  -3.7187456434302920e-03  -3.0551084656649549e-03  -3.6772567222910064e-03  -5.2600580802428260e-03  -7.2918376534801630e-03  -9.1190353743515161e-03  -9.9296932553700357e-03  -8.8493810324779994e-03  -5.1860462169806294e-03  1.3188611279675981e-03  1.0449619766666288e-02  2.1952148137166047e-02  3.6270235740723029e-02  5.4176607630840035e-02  7.6680653840537474e-02  1.0592402700505037e-01  1.4540848368604314e-01  2.0067299871116506e-01  2.8202547559575225e-01  4.0368329778179907e-01  5.7249087938212206e-01  7.5922250557915127e-01  8.9477448686619010e-01  9.5169067350064773e-01  9.7259416732601944e-01  9.8384311243237477e-01  9.8737058283663226e-01  9.8679712897043514e-01  9.8134559274735811e-01  9.6400632636732397e-01  9.2153241956984000e-01  7.8034241905879798e-01  4.8170758857564788e-01  1.8774321723098852e-01  4.9269714085852942e-02  1.8161966412530858e-02  1.1775532033783660e-02  5.2295598965832815e-03  1.0150989400321004e-03  3.3316177965241820e-04  4.1395010036788117e-04  1.6706762930348540e-04  4.3360116665613366e-05  3.8971784367658867e-05  1.9608256186783260e-05  8.7983611179464888e-06  6.2482930768910810e-06  3.4864689433295929e-06  2.2187950607929288e-06  1.4970266963249334e-06  1.0020879485216450e-06  7.1513910695944335e-07  5.1670066836087770e-07  3.8458300161375144e-07  2.9191663994770077e-07  2.2550063419303918e-07  1.7688306318559731e-07  1.4049021653935093e-07  1.1279912688226410e-07  9.1384923477823203e-08  7.4604712301860215e-08  6.1299146886355259e-08  5.0641687331892378e-08  4.2030209283089757e-08  3.5019328475383778e-08  2.9274533048053009e-08  2.4541009392863477e-08  2.0622244757823622e-08  1.7364920318528554e-08  1.4648192262589599e-08  1.2375934992917200e-08  1.0471073294522101e-08  8.8713359566985823e-09  7.5261691095301067e-09  6.3942445146696373e-09  5.4417083633338220e-09  4.6406766831175377e-09  3.9681813154652750e-09  3.4052499069409544e-09  2.9362509527239760e-09  2.5483126126196265e-09  2.2309231140766558e-09  1.9755351759014648e-09  1.7753624513449482e-09  1.6250786176266511e-09  1.5207417010786774e-09  1.4595947461081340e-09  1.4400764050116958e-09  1.2198604337746500e-03  3.0532132097139334e-04  2.7218101477957646e-03  4.4762507361628739e-03  6.8060200337228972e-03  9.1036519929237770e-03  1.0590379733981558e-02  1.1037708691347056e-02  1.0490324827646832e-02  9.2121116442227275e-03  7.5762472468351855e-03  5.9507199253013452e-03  4.6208949608868340e-03  3.7543391231510729e-03  3.4095890573730167e-03  3.5769094123210155e-03  4.2012549025356180e-03  5.1830468176444593e-03  6.3885343634621280e-03  7.6491355122401058e-03  8.7597039018707020e-03  9.5193768065722131e-03  9.7963380262373109e-03  9.5765936598974817e-03  8.9518852534086601e-03  8.0000580673862606e-03  6.7419906930230710e-03  5.2378977336062817e-03  3.5847412212669950e-03  1.9696399024917389e-03  1.0077997030861377e-03  2.4151105539364079e-03  1.1255743717855048e-02  4.2773458305812195e-02  1.3692018924096303e-01  3.5242826004370847e-01  6.5921842038968181e-01  8.7802137134252278e-01  9.5309640062548207e-01  9.7894823804157660e-01  9.8712999009040003e-01  9.8895325782043841e-01  9.8726171177706878e-01  9.7961427680240387e-01  9.6305402959611386e-01  9.2356526370783476e-01  7.9120959722014750e-01  5.2888079814290989e-01  2.4982097161190295e-01  7.8565662877359221e-02  1.9915131241316802e-02  1.0919623267768580e-02  6.5769539295134705e-03  1.6194408215520497e-03  3.3344009922883495e-04  3.6948762433196877e-04  1.2781630962191263e-04  3.6591073246058594e-05  3.2209940345533139e-05  1.2343922799622242e-05  6.9844284618784039e-06  4.4538668926539116e-06  2.4417261588489414e-06  1.6677757068554524e-06  1.0828123265715195e-06  7.5615369517734394e-07  5.4093955343297454e-07  3.9731298018718842e-07  2.9938543628050851e-07  2.2965543543498161e-07  1.7923453584563676e-07  1.4176635777508605e-07  1.1344860667453958e-07  9.1665463141599867e-08  7.4670727269156402e-08  6.1243796936174923e-08  5.0521352762371990e-08  4.1879083950922118e-08  3.4857918173769643e-08  2.9114898439149301e-08  2.4389967088937525e-08  2.0483375083449698e-08  1.7239850998772341e-08  1.4537394059463617e-08  1.2279256074448569e-08  1.0388075861818954e-08  8.8015192501628733e-09  7.4691064990595997e-09  6.3496792395806214e-09  5.4096071677370683e-09  4.6212750777788530e-09  3.9620154318701979e-09  3.4131801345980906e-09  2.9595055322345374e-09  2.5885118429394592e-09  2.2901315818466020e-09  2.0563131190902227e-09  1.8808300043472134e-09  1.7589987370930625e-09  1.6876500319997186e-09  1.6649404662702667e-09  4.9024222076578315e-04  1.2291569677339968e-03  8.7683681209127463e-04  1.4759956788683437e-04  -5.1819732817003246e-04  -1.3140423804151593e-03  -1.9703951844011972e-03  -2.3442383627922062e-03  -2.4168975916769001e-03  -2.2325938484184368e-03  -1.8826872411114371e-03  -1.4718403086841586e-03  -1.0912432638217626e-03  -8.0329710363663542e-04  -6.3808324128247632e-04  -6.0117442070138345e-04  -6.8333911066828642e-04  -8.6304579967221885e-04  -1.1077511599965116e-03  -1.3757472907199957e-03  -1.6149515235817716e-03  -1.7677699814542026e-03  -1.7863422197198012e-03  -1.6484739589668498e-03  -1.3627112758227708e-03  -9.4497611583180350e-04  -3.8850065134930247e-04  3.2866738482950630e-04  1.2405288104571767e-03  2.4193374731940466e-03  3.9807018143216116e-03  6.1143462572782756e-03  9.1563145757794298e-03  1.3730430966526158e-02  2.1591554745385176e-02  4.4626659940869028e-02  1.6044762605267543e-01  4.9513798635018608e-01  8.4362230377740777e-01  9.5611055752718010e-01  9.8421417859451676e-01  9.9147003092493768e-01  9.9331081108646957e-01  9.9289140329942893e-01  9.9027090959350328e-01  9.8210507306666173e-01  9.6852891214212966e-01  9.4237797799205247e-01  8.5635228289795307e-01  6.6216609173496466e-01  3.9268030384292213e-01  1.5641197427524683e-01  3.8187603399876840e-02  1.1924966930789626e-02  6.6946739455460086e-03  1.5659882706383764e-03  3.4868149587884617e-04  3.0939297597807832e-04  6.9225520674003155e-05  3.4819225824378436e-05  2.1490624094548768e-05  7.5570622433772596e-06  5.5160176690502763e-06  2.8339449365573219e-06  1.8346154637377336e-06  1.1941795953968349e-06  8.0571578480974671e-07  5.7298314584169326e-07  4.1508602074771797e-07  3.1052352172490034e-07  2.3658901140573020e-07  1.8371309941168233e-07  1.4471738156082003e-07  1.1543146526420992e-07  9.3022256577698784e-08  7.5613485979211806e-08  6.1908573460305591e-08  5.0996352950427018e-08  4.2222781562125534e-08  3.5109594886136903e-08  2.9301359660927028e-08  2.4529777498712668e-08  2.0589584563812451e-08  1.7321809388492065e-08  1.4601957720491916e-08  1.2331606630653816e-08  1.0432276546001255e-08  8.8409116415482047e-09  7.5065759409961724e-09  6.3878567530158084e-09  5.4510191038091764e-09  4.6684506130410712e-09  4.0175958827162325e-09  3.4799963952417987e-09  3.0406697975947246e-09  2.6875002239464868e-09  2.4108808300191125e-09  2.2033148133358805e-09  2.0592815819767321e-09  1.9749459990833127e-09  1.9481721972986732e-09  8.6427699665958340e-05  -8.2972866889022485e-05  -1.5893637916286548e-04  2.5060864739476897e-06  1.7812439780903760e-04  3.6040203020526836e-04  5.5029350506603835e-04  6.7884667242247869e-04  7.2794384835606172e-04  7.0234445666238286e-04  6.2094926095910446e-04  5.1106224750571564e-04  3.9955418892582094e-04  3.0725414601049701e-04  2.4642038476090870e-04  2.2148333758601878e-04  2.3176378972338576e-04  2.7315124681777538e-04  3.3843150201005358e-04  4.1778265802448116e