<?xml version="1.0"?>
<VTKFile type="UnstructuredGrid"  version="0.1"  >
<UnstructuredGrid>
<Piece  NumberOfPoints="5151" NumberOfCells="10000">
<Points>
<DataArray  type="Float64"  NumberOfComponents="3"  format="ascii">0 0 0  0.01 0 0  0.02 0 0  0.03 0 0  0.04 0 0  0.05 0 0  0.06 0 0  0.07000000000000001 0 0  0.08 0 0  0.09 0 0  0.1 0 0  0.11 0 0  0.12 0 0  0.13 0 0  0.14 0 0  0.15 0 0  0.16 0 0  0.17 0 0  0.18 0 0  0.19 0 0  0.2 0 0  0.21 0 0  0.22 0 0  0.23 0 0  0.24 0 0  0.25 0 0  0.26 0 0  0.27 0 0  0.28 0 0  0.29 0 0  0.3 0 0  0.31 0 0  0.32 0 0  0.33 0 0  0.34 0 0  0.35 0 0  0.36 0 0  0.37 0 0  0.38 0 0  0.39 0 0  0.4 0 0  0.41 0 0  0.42 0 0  0.43 0 0  0.44 0 0  0.45 0 0  0.46 0 0  0.47 0 0  0.48 0 0  0.49 0 0  0.5 0 0  0.51 0 0  0.52 0 0  0.53 0 0  0.54 0 0  0.55 0 0  0.5600000000000001 0 0  0.57 0 0  0.58 0 0  0.59 0 0  0.6 0 0  0.61 0 0  0.62 0 0  0.63 0 0  0.64 0 0  0.65 0 0  0.66 0 0  0.67 0 0  0.68 0 0  0.6899999999999999 0 0  0.7 0 0  0.71 0 0  0.72 0 0  0.73 0 0  0.74 0 0  0.75 0 0  0.76 0 0  0.77 0 0  0.78 0 0  0.79 0 0  0.8 0 0  0.8100000000000001 0 0  0.82 0 0  0.83 0 0  0.84 0 0  0.85 0 0  0.86 0 0  0.87 0 0  0.88 0 0  0.89 0 0  0.9 0 0  0.91 0 0  0.92 0 0  0.93 0 0  0.9399999999999999 0 0  0.95 0 0  0.96 0 0  0.97 0 0  0.98 0 0  0.99 0 0  1 0 0  0 0.01 0  0.01 0.01 0  0.02 0.01 0  0.03 0.01 0  0.04 0.01 0  0.05 0.01 0  0.06 0.01 0  0.07000000000000001 0.01 0  0.08 0.01 0  0.09 0.01 0  0.1 0.01 0  0.11 0.01 0  0.12 0.01 0  0.13 0.01 0  0.14 0.01 0  0.15 0.01 0  0.16 0.01 0  0.17 0.01 0  0.18 0.01 0  0.19 0.01 0  0.2 0.01 0  0.21 0.01 0  0.22 0.01 0  0.23 0.01 0  0.24 0.01 0  0.25 0.01 0  0.26 0.01 0  0.27 0.01 0  0.28 0.01 0  0.29 0.01 0  0.3 0.01 0  0.31 0.01 0  0.32 0.01 0  0.33 0.01 0  0.34 0.01 0  0.35 0.01 0  0.36 0.01 0  0.37 0.01 0  0.38 0.01 0  0.39 0.01 0  0.4 0.01 0  0.41 0.01 0  0.42 0.01 0  0.43 0.01 0  0.44 0.01 0  0.45 0.01 0  0.46 0.01 0  0.47 0.01 0  0.48 0.01 0  0.49 0.01 0  0.5 0.01 0  0.51 0.01 0  0.52 0.01 0  0.53 0.01 0  0.54 0.01 0  0.55 0.01 0  0.5600000000000001 0.01 0  0.57 0.01 0  0.58 0.01 0  0.59 0.01 0  0.6 0.01 0  0.61 0.01 0  0.62 0.01 0  0.63 0.01 0  0.64 0.01 0  0.65 0.01 0  0.66 0.01 0  0.67 0.01 0  0.68 0.01 0  0.6899999999999999 0.01 0  0.7 0.01 0  0.71 0.01 0  0.72 0.01 0  0.73 0.01 0  0.74 0.01 0  0.75 0.01 0  0.76 0.01 0  0.77 0.01 0  0.78 0.01 0  0.79 0.01 0  0.8 0.01 0  0.8100000000000001 0.01 0  0.82 0.01 0  0.83 0.01 0  0.84 0.01 0  0.85 0.01 0  0.86 0.01 0  0.87 0.01 0  0.88 0.01 0  0.89 0.01 0  0.9 0.01 0  0.91 0.01 0  0.92 0.01 0  0.93 0.01 0  0.9399999999999999 0.01 0  0.95 0.01 0  0.96 0.01 0  0.97 0.01 0  0.98 0.01 0  0.99 0.01 0  1 0.01 0  0 0.02 0  0.01 0.02 0  0.02 0.02 0  0.03 0.02 0  0.04 0.02 0  0.05 0.02 0  0.06 0.02 0  0.07000000000000001 0.02 0  0.08 0.02 0  0.09 0.02 0  0.1 0.02 0  0.11 0.02 0  0.12 0.02 0  0.13 0.02 0  0.14 0.02 0  0.15 0.02 0  0.16 0.02 0  0.17 0.02 0  0.18 0.02 0  0.19 0.02 0  0.2 0.02 0  0.21 0.02 0  0.22 0.02 0  0.23 0.02 0  0.24 0.02 0  0.25 0.02 0  0.26 0.02 0  0.27 0.02 0  0.28 0.02 0  0.29 0.02 0  0.3 0.02 0  0.31 0.02 0  0.32 0.02 0  0.33 0.02 0  0.34 0.02 0  0.35 0.02 0  0.36 0.02 0  0.37 0.02 0  0.38 0.02 0  0.39 0.02 0  0.4 0.02 0  0.41 0.02 0  0.42 0.02 0  0.43 0.02 0  0.44 0.02 0  0.45 0.02 0  0.46 0.02 0  0.47 0.02 0  0.48 0.02 0  0.49 0.02 0  0.5 0.02 0  0.51 0.02 0  0.52 0.02 0  0.53 0.02 0  0.54 0.02 0  0.55 0.02 0  0.5600000000000001 0.02 0  0.57 0.02 0  0.58 0.02 0  0.59 0.02 0  0.6 0.02 0  0.61 0.02 0  0.62 0.02 0  0.63 0.02 0  0.64 0.02 0  0.65 0.02 0  0.66 0.02 0  0.67 0.02 0  0.68 0.02 0  0.6899999999999999 0.02 0  0.7 0.02 0  0.71 0.02 0  0.72 0.02 0  0.73 0.02 0  0.74 0.02 0  0.75 0.02 0  0.76 0.02 0  0.77 0.02 0  0.78 0.02 0  0.79 0.02 0  0.8 0.02 0  0.8100000000000001 0.02 0  0.82 0.02 0  0.83 0.02 0  0.84 0.02 0  0.85 0.02 0  0.86 0.02 0  0.87 0.02 0  0.88 0.02 0  0.89 0.02 0  0.9 0.02 0  0.91 0.02 0  0.92 0.02 0  0.93 0.02 0  0.9399999999999999 0.02 0  0.95 0.02 0  0.96 0.02 0  0.97 0.02 0  0.98 0.02 0  0.99 0.02 0  1 0.02 0  0 0.03 0  0.01 0.03 0  0.02 0.03 0  0.03 0.03 0  0.04 0.03 0  0.05 0.03 0  0.06 0.03 0  0.07000000000000001 0.03 0  0.08 0.03 0  0.09 0.03 0  0.1 0.03 0  0.11 0.03 0  0.12 0.03 0  0.13 0.03 0  0.14 0.03 0  0.15 0.03 0  0.16 0.03 0  0.17 0.03 0  0.18 0.03 0  0.19 0.03 0  0.2 0.03 0  0.21 0.03 0  0.22 0.03 0  0.23 0.03 0  0.24 0.03 0  0.25 0.03 0  0.26 0.03 0  0.27 0.03 0  0.28 0.03 0  0.29 0.03 0  0.3 0.03 0  0.31 0.03 0  0.32 0.03 0  0.33 0.03 0  0.34 0.03 0  0.35 0.03 0  0.36 0.03 0  0.37 0.03 0  0.38 0.03 0  0.39 0.03 0  0.4 0.03 0  0.41 0.03 0  0.42 0.03 0  0.43 0.03 0  0.44 0.03 0  0.45 0.03 0  0.46 0.03 0  0.47 0.03 0  0.48 0.03 0  0.49 0.03 0  0.5 0.03 0  0.51 0.03 0  0.52 0.03 0  0.53 0.03 0  0.54 0.03 0  0.55 0.03 0  0.5600000000000001 0.03 0  0.57 0.03 0  0.58 0.03 0  0.59 0.03 0  0.6 0.03 0  0.61 0.03 0  0.62 0.03 0  0.63 0.03 0  0.64 0.03 0  0.65 0.03 0  0.66 0.03 0  0.67 0.03 0  0.68 0.03 0  0.6899999999999999 0.03 0  0.7 0.03 0  0.71 0.03 0  0.72 0.03 0  0.73 0.03 0  0.74 0.03 0  0.75 0.03 0  0.76 0.03 0  0.77 0.03 0  0.78 0.03 0  0.79 0.03 0  0.8 0.03 0  0.8100000000000001 0.03 0  0.82 0.03 0  0.83 0.03 0  0.84 0.03 0  0.85 0.03 0  0.86 0.03 0  0.87 0.03 0  0.88 0.03 0  0.89 0.03 0  0.9 0.03 0  0.91 0.03 0  0.92 0.03 0  0.93 0.03 0  0.9399999999999999 0.03 0  0.95 0.03 0  0.96 0.03 0  0.97 0.03 0  0.98 0.03 0  0.99 0.03 0  1 0.03 0  0 0.04 0  0.01 0.04 0  0.02 0.04 0  0.03 0.04 0  0.04 0.04 0  0.05 0.04 0  0.06 0.04 0  0.07000000000000001 0.04 0  0.08 0.04 0  0.09 0.04 0  0.1 0.04 0  0.11 0.04 0  0.12 0.04 0  0.13 0.04 0  0.14 0.04 0  0.15 0.04 0  0.16 0.04 0  0.17 0.04 0  0.18 0.04 0  0.19 0.04 0  0.2 0.04 0  0.21 0.04 0  0.22 0.04 0  0.23 0.04 0  0.24 0.04 0  0.25 0.04 0  0.26 0.04 0  0.27 0.04 0  0.28 0.04 0  0.29 0.04 0  0.3 0.04 0  0.31 0.04 0  0.32 0.04 0  0.33 0.04 0  0.34 0.04 0  0.35 0.04 0  0.36 0.04 0  0.37 0.04 0  0.38 0.04 0  0.39 0.04 0  0.4 0.04 0  0.41 0.04 0  0.42 0.04 0  0.43 0.04 0  0.44 0.04 0  0.45 0.04 0  0.46 0.04 0  0.47 0.04 0  0.48 0.04 0  0.49 0.04 0  0.5 0.04 0  0.51 0.04 0  0.52 0.04 0  0.53 0.04 0  0.54 0.04 0  0.55 0.04 0  0.5600000000000001 0.04 0  0.57 0.04 0  0.58 0.04 0  0.59 0.04 0  0.6 0.04 0  0.61 0.04 0  0.62 0.04 0  0.63 0.04 0  0.64 0.04 0  0.65 0.04 0  0.66 0.04 0  0.67 0.04 0  0.68 0.04 0  0.6899999999999999 0.04 0  0.7 0.04 0  0.71 0.04 0  0.72 0.04 0  0.73 0.04 0  0.74 0.04 0  0.75 0.04 0  0.76 0.04 0  0.77 0.04 0  0.78 0.04 0  0.79 0.04 0  0.8 0.04 0  0.8100000000000001 0.04 0  0.82 0.04 0  0.83 0.04 0  0.84 0.04 0  0.85 0.04 0  0.86 0.04 0  0.87 0.04 0  0.88 0.04 0  0.89 0.04 0  0.9 0.04 0  0.91 0.04 0  0.92 0.04 0  0.93 0.04 0  0.9399999999999999 0.04 0  0.95 0.04 0  0.96 0.04 0  0.97 0.04 0  0.98 0.04 0  0.99 0.04 0  1 0.04 0  0 0.05 0  0.01 0.05 0  0.02 0.05 0  0.03 0.05 0  0.04 0.05 0  0.05 0.05 0  0.06 0.05 0  0.07000000000000001 0.05 0  0.08 0.05 0  0.09 0.05 0  0.1 0.05 0  0.11 0.05 0  0.12 0.05 0  0.13 0.05 0  0.14 0.05 0  0.15 0.05 0  0.16 0.05 0  0.17 0.05 0  0.18 0.05 0  0.19 0.05 0  0.2 0.05 0  0.21 0.05 0  0.22 0.05 0  0.23 0.05 0  0.24 0.05 0  0.25 0.05 0  0.26 0.05 0  0.27 0.05 0  0.28 0.05 0  0.29 0.05 0  0.3 0.05 0  0.31 0.05 0  0.32 0.05 0  0.33 0.05 0  0.34 0.05 0  0.35 0.05 0  0.36 0.05 0  0.37 0.05 0  0.38 0.05 0  0.39 0.05 0  0.4 0.05 0  0.41 0.05 0  0.42 0.05 0  0.43 0.05 0  0.44 0.05 0  0.45 0.05 0  0.46 0.05 0  0.47 0.05 0  0.48 0.05 0  0.49 0.05 0  0.5 0.05 0  0.51 0.05 0  0.52 0.05 0  0.53 0.05 0  0.54 0.05 0  0.55 0.05 0  0.5600000000000001 0.05 0  0.57 0.05 0  0.58 0.05 0  0.59 0.05 0  0.6 0.05 0  0.61 0.05 0  0.62 0.05 0  0.63 0.05 0  0.64 0.05 0  0.65 0.05 0  0.66 0.05 0  0.67 0.05 0  0.68 0.05 0  0.6899999999999999 0.05 0  0.7 0.05 0  0.71 0.05 0  0.72 0.05 0  0.73 0.05 0  0.74 0.05 0  0.75 0.05 0  0.76 0.05 0  0.77 0.05 0  0.78 0.05 0  0.79 0.05 0  0.8 0.05 0  0.8100000000000001 0.05 0  0.82 0.05 0  0.83 0.05 0  0.84 0.05 0  0.85 0.05 0  0.86 0.05 0  0.87 0.05 0  0.88 0.05 0  0.89 0.05 0  0.9 0.05 0  0.91 0.05 0  0.92 0.05 0  0.93 0.05 0  0.9399999999999999 0.05 0  0.95 0.05 0  0.96 0.05 0  0.97 0.05 0  0.98 0.05 0  0.99 0.05 0  1 0.05 0  0 0.06 0  0.01 0.06 0  0.02 0.06 0  0.03 0.06 0  0.04 0.06 0  0.05 0.06 0  0.06 0.06 0  0.07000000000000001 0.06 0  0.08 0.06 0  0.09 0.06 0  0.1 0.06 0  0.11 0.06 0  0.12 0.06 0  0.13 0.06 0  0.14 0.06 0  0.15 0.06 0  0.16 0.06 0  0.17 0.06 0  0.18 0.06 0  0.19 0.06 0  0.2 0.06 0  0.21 0.06 0  0.22 0.06 0  0.23 0.06 0  0.24 0.06 0  0.25 0.06 0  0.26 0.06 0  0.27 0.06 0  0.28 0.06 0  0.29 0.06 0  0.3 0.06 0  0.31 0.06 0  0.32 0.06 0  0.33 0.06 0  0.34 0.06 0  0.35 0.06 0  0.36 0.06 0  0.37 0.06 0  0.38 0.06 0  0.39 0.06 0  0.4 0.06 0  0.41 0.06 0  0.42 0.06 0  0.43 0.06 0  0.44 0.06 0  0.45 0.06 0  0.46 0.06 0  0.47 0.06 0  0.48 0.06 0  0.49 0.06 0  0.5 0.06 0  0.51 0.06 0  0.52 0.06 0  0.53 0.06 0  0.54 0.06 0  0.55 0.06 0  0.5600000000000001 0.06 0  0.57 0.06 0  0.58 0.06 0  0.59 0.06 0  0.6 0.06 0  0.61 0.06 0  0.62 0.06 0  0.63 0.06 0  0.64 0.06 0  0.65 0.06 0  0.66 0.06 0  0.67 0.06 0  0.68 0.06 0  0.6899999999999999 0.06 0  0.7 0.06 0  0.71 0.06 0  0.72 0.06 0  0.73 0.06 0  0.74 0.06 0  0.75 0.06 0  0.76 0.06 0  0.77 0.06 0  0.78 0.06 0  0.79 0.06 0  0.8 0.06 0  0.8100000000000001 0.06 0  0.82 0.06 0  0.83 0.06 0  0.84 0.06 0  0.85 0.06 0  0.86 0.06 0  0.87 0.06 0  0.88 0.06 0  0.89 0.06 0  0.9 0.06 0  0.91 0.06 0  0.92 0.06 0  0.93 0.06 0  0.9399999999999999 0.06 0  0.95 0.06 0  0.96 0.06 0  0.97 0.06 0  0.98 0.06 0  0.99 0.06 0  1 0.06 0  0 0.07000000000000001 0  0.01 0.07000000000000001 0  0.02 0.07000000000000001 0  0.03 0.07000000000000001 0  0.04 0.07000000000000001 0  0.05 0.07000000000000001 0  0.06 0.07000000000000001 0  0.07000000000000001 0.07000000000000001 0  0.08 0.07000000000000001 0  0.09 0.07000000000000001 0  0.1 0.07000000000000001 0  0.11 0.07000000000000001 0  0.12 0.07000000000000001 0  0.13 0.07000000000000001 0  0.14 0.07000000000000001 0  0.15 0.07000000000000001 0  0.16 0.07000000000000001 0  0.17 0.07000
[...]
<PointData  Scalars="rho_bar"> 
<DataArray  type="Float64"  Name="rho_bar"  format="ascii">3.7075340510670923e-01  3.7063683621293758e-01  3.7041282317272117e-01  3.7006176419763825e-01  3.6957918319096172e-01  3.6896759797640144e-01  3.6823251369372600e-01  3.6738075362774830e-01  3.6642041928340296e-01  3.6535986372769008e-01  3.6420763704439491e-01  3.6297196421171518e-01  3.6166082089794710e-01  3.6028159402559562e-01  3.5884128828666650e-01  3.5734625334981024e-01  3.5580249604707859e-01  3.5421535195410969e-01  3.5258989382346484e-01  3.5093057972618813e-01  3.4924164328837665e-01  3.4752688788316111e-01  3.4578989062691723e-01  3.4403384731819064e-01  3.4226182623562446e-01  3.4047648349808868e-01  3.3868039331341310e-01  3.3687575556720833e-01  3.3506469487427665e-01  3.3324904101285358e-01  3.3143053040380621e-01  3.2961059641911972e-01  3.2779063820248105e-01  3.2597169478713089e-01  3.2415480733313223e-01  3.2234066505134584e-01  3.2052994521287465e-01  3.1872307374612180e-01  3.1692043136180859e-01  3.1512216025845591e-01  3.1332840662933836e-01  3.1153906584560165e-01  3.0975407042324088e-01  3.0797310709347236e-01  3.0619592255979255e-01  3.0442209659613406e-01  3.0265125134647247e-01  3.0088288177225120e-01  2.9911658019922288e-01  2.9735177937760199e-01  2.9558805240311714e-01  2.9382483505605467e-01  2.9206169950862737e-01  2.9029817895247717e-01  2.8853392749722473e-01  2.8676857625805158e-01  2.8500190679175064e-01  2.8323369350005040e-01  2.8146386672409651e-01  2.7969238275693586e-01  2.7791936530764888e-01  2.7614497320567899e-01  2.7436955544521469e-01  2.7259350165967916e-01  2.7081741792544212e-01  2.6904196585658247e-01  2.6726802577774222e-01  2.6549656199070121e-01  2.6372875616281444e-01  2.6196590457619789e-01  2.6020953513837697e-01  2.5846130207875695e-01  2.5672311819407129e-01  2.5499704227366621e-01  2.5328540649477277e-01  2.5159071883841772e-01  2.4991577953548788e-01  2.4826358735783968e-01  2.4663746998045882e-01  2.4504096219962096e-01  2.4347796415745673e-01  2.4195260799282853e-01  2.4046939978542131e-01  2.3903309717107402e-01  2.3764881690746129e-01  2.3632194096994202e-01  2.3505817894755823e-01  2.3386344319932381e-01  2.3274389759702921e-01  2.3170577579322468e-01  2.3075537066013949e-01  2.2989876328164605e-01  2.2914170111754215e-01  2.2848914524446648e-01  2.2794495336621315e-01  2.2751105546896935e-01  2.2718678136788106e-01  2.2696720419434299e-01  2.2684152629191950e-01  2.2679047539780897e-01  2.2678727726571360e-01  3.7046155660208585e-01  3.7038239202279355e-01  3.7016969278078099e-01  3.6982358275687499e-01  3.6934492912433198e-01  3.6873715947620933e-01  3.6800572232959788e-01  3.6715785314419902e-01  3.6620134975894231e-01  3.6514468728188892e-01  3.6399623606254694e-01  3.6276428936095628e-01  3.6145667566204276e-01  3.6008087166615832e-01  3.5864373332468386e-01  3.5715174159083196e-01  3.5561072831655793e-01  3.5402621520065436e-01  3.5240309518922630e-01  3.5074598604438079e-01  3.4905902745091688e-01  3.4734612599652714e-01  3.4561078313724936e-01  3.4385631308426795e-01  3.4208567102387583e-01  3.4030168342038808e-01  3.3850679445438464e-01  3.3670334498279303e-01  3.3489337855503426e-01  3.3307883878862315e-01  3.3126137153591567e-01  3.2944254997352124e-01  3.2762363369127956e-01  3.2580584900666909e-01  3.2399007665284119e-01  3.2217716578371430e-01  3.2036769128387299e-01  3.1856218880476256e-01  3.1676094911563785e-01  3.1496422422890075e-01  3.1317205046955582e-01  3.1138446636632577e-01  3.0960126859984743e-01  3.0782227634331444e-01  3.0604713673258616e-01  3.0427553072190844e-01  3.0250699435912970e-01  3.0074112308180984e-01  2.9897739352975378e-01  2.9721538001462949e-01  2.9545452073538470e-01  2.9369437348497074e-01  2.9193442513622986e-01  2.9017428477806489e-01  2.8841353636855183e-01  2.8665188266959385e-01  2.8488903448035813e-01  2.8312483935108246e-01  2.8135916120003429e-01  2.7959201861509198e-01  2.7782346846555644e-01  2.7605373439342190e-01  2.7428308629366410e-01  2.7251198152294481e-01  2.7074094327162584e-01  2.6897069779546040e-01  2.6720204654507118e-01  2.6543600101047993e-01  2.6367367432035155e-01  2.6191639452924076e-01  2.6016561651004666e-01  2.5842302566222958e-01  2.5669045636048798e-01  2.5496999661386233e-01  2.5326390056932602e-01  2.5157469831042811e-01  2.4990510952591366e-01  2.4825815799738207e-01  2.4663707906434904e-01  2.4504544281309906e-01  2.4348705682372393e-01  2.4196609171881983e-01  2.4048697085934170e-01  2.3905448352448849e-01  2.3767368807195671e-01  2.3634999029308898e-01  2.3508904917879198e-01  2.3389681629428058e-01  2.3277940821200763e-01  2.3174311036390016e-01  2.3079417259233134e-01  2.2993873643987142e-01  2.2918249761317300e-01  2.2853049062905809e-01  2.2798648529872056e-01  2.2755252034700882e-01  2.2722772168910471e-01  2.2700726204717217e-01  2.2688018646148578e-01  2.2682689210396462e-01  2.2681857956541529e-01  3.6971676586506036e-01  3.6964922867763078e-01  3.6944697501684093e-01  3.6911057258785052e-01  3.6864169815668274e-01  3.6804404030753185e-01  3.6732347245073177e-01  3.6648673442487556e-01  3.6554174840128312e-01  3.6449659806806362e-01  3.6335962909244257e-01  3.6213884825246662e-01  3.6084209341800882e-01  3.5947660082779465e-01  3.5804930298511728e-01  3.5656647478857523e-01  3.5503409346699055e-01  3.5345749425267492e-01  3.5184175161199371e-01  3.5019137824813756e-01  3.4851064832725570e-01  3.4680342167873296e-01  3.4507333107508659e-01  3.4332364808479365e-01  3.4155748897758326e-01  3.3977759793039619e-01  3.3798661004226199e-01  3.3618681159846620e-01  3.3438039527074181e-01  3.3256925596172171e-01  3.3075520315371726e-01  3.2893972152834872e-01  3.2712426476967510e-01  3.2530992870463454e-01  3.2349779993939271e-01  3.2168862459206310e-01  3.1988312923646217e-01  3.1808177428207229e-01  3.1628497708801251e-01  3.1449291652121453e-01  3.1270575560794861e-01  3.1092342706498244e-01  3.0914587651829745e-01  3.0737283011087485e-01  3.0560405070789748e-01  3.0383913889429048e-01  3.0207774495919865e-01  3.0031937034636080e-01  2.9856362173642614e-01  2.9680994545089989e-01  2.9505793339036790e-01  2.9330702761164512e-01  2.9155683337194671e-01  2.8980687437553232e-01  2.8805682278251465e-01  2.8630630892577658e-01  2.8455512114756315e-01  2.8280303238648136e-01  2.8104999120653179e-01  2.7929592725423596e-01  2.7754098197087351e-01  2.7578527706358458e-01  2.7402915180509363e-01  2.7227296362038722e-01  2.7051729136706759e-01  2.6876275450084602e-01  2.6701020611495169e-01  2.6526053532578575e-01  2.6351489181746179e-01  2.6177447492602374e-01  2.6004074570130620e-01  2.5831526042044683e-01  2.5659984438400640e-01  2.5489644782826976e-01  2.5320731595789159e-01  2.5153481942409156e-01  2.4988166857707200e-01  2.4825071981160324e-01  2.4664519077726321e-01  2.4506849234745631e-01  2.4352441683669410e-01  2.4201698715013367e-01  2.4055062929045043e-01  2.3912999795222672e-01  2.3776016802006517e-01  2.3644644072743093e-01  2.3519450206894246e-01  2.3401022944889077e-01  2.3289979583654496e-01  2.3186943780868252e-01  2.3092549867121273e-01  2.3007407442913591e-01  2.2932098377505220e-01  2.2867120927661255e-01  2.2812866205571614e-01  2.2769527160289610e-01  2.2737034210880630e-01  2.2714888256769705e-01  2.2702009454297453e-01  2.2696457279809493e-01  2.2695401034417095e-01  3.6851112449334883e-01  3.6844896330487203e-01  3.6825657805285616e-01  3.6793251349959460e-01  3.6747771454287592e-01  3.6689610389063471e-01  3.6619262711202588e-01  3.6537412938092262e-01  3.6444785065534102e-01  3.6342174388742637e-01  3.6230365076998416e-01  3.6110149576716627e-01  3.5982269206165235e-01  3.5847451205799202e-01  3.5706355447163957e-01  3.5559620668372893e-01  3.5407820228432552e-01  3.5251505173032766e-01  3.5091167114358246e-01  3.4927276413070057e-01  3.4760254468834667e-01  3.4590502976098952e-01  3.4418383964242405e-01  3.4244242253582785e-01  3.4068385954149993e-01  3.3891111160341963e-01  3.3712677058732377e-01  3.3533334866929837e-01  3.3353300736522618e-01  3.3172784970889374e-01  3.2991962439766431e-01  3.2811004853420167e-01  3.2630046879405444e-01  3.2449223262212762e-01  3.2268630875869847e-01  3.2088367469906703e-01  3.1908497128915364e-01  3.1729083474187181e-01  3.1550161048501246e-01  3.1371763259068897e-01  3.1193897881415283e-01  3.1016573700555994e-01  3.0839775751267118e-01  3.0663492576424117e-01  3.0487691630539598e-01  3.0312347127120559e-01  3.0137413849099864e-01  2.9962857812832483e-01  2.9788625819924452e-01  2.9614681361685669e-01  2.9440967540740692e-01  2.9267447491476883e-01  2.9094068068863727e-01  2.8920796939287285e-01  2.8747589789585221e-01  2.8574421664772770e-01  2.8401261049017046e-01  2.8228097486514991e-01  2.8054912936623866e-01  2.7881713849127654e-01  2.7708498811349530e-01  2.7535292959282248e-01  2.7362114444612029e-01  2.7189007770388374e-01  2.7016016045791452e-01  2.6843208648664579e-01  2.6670652718856191e-01  2.6498444263005988e-01  2.6326677256086622e-01  2.6155476445941794e-01  2.5984966332526388e-01  2.5815302063622780e-01  2.5646645135999607e-01  2.5479188905142297e-01  2.5313133001106947e-01  2.5148713276651591e-01  2.4986173503223974e-01  2.4825797548087045e-01  2.4667880472704126e-01  2.4512759243807647e-01  2.4360789422146051e-01  2.4212370615393852e-01  2.4067922095205888e-01  2.3927910466191268e-01  2.3792822255200685e-01  2.3663192139870939e-01  2.3539572122787364e-01  2.3422556570838066e-01  2.3312752201632858e-01  2.3210794798201123e-01  2.3117309635930841e-01  2.3032924410900454e-01  2.2958213660316548e-01  2.2893697133298158e-01  2.2839758523364265e-01  2.2796614933027615e-01  2.2764185643751833e-01  2.2742006854985614e-01  2.2728998616166235e-01  2.2723273097075472e-01  2.2722077781448219e-01  3.6685869719427078e-01  3.6680077843644521e-01  3.6661843583381953e-01  3.6630854864866097e-01  3.6587181804759100e-01  3.6531073277676046e-01  3.6463025050585546e-01  3.6383617235613713e-01  3.6293544837813002e-01  3.6193530289629827e-01  3.6084329382388514e-01  3.5966672688836460e-01  3.5841293287763965e-01  3.5708867949830370e-01  3.5570061413337717e-01  3.5425478113002817e-01  3.5275702827067273e-01  3.5121266464529571e-01  3.4962678170735056e-01  3.4800398541371375e-01  3.4634869290992892e-01  3.4466489244813603e-01  3.4295641606595351e-01  3.4122670484518292e-01  3.3947906772227088e-01  3.3771646442855752e-01  3.3594173596829274e-01  3.3415739330970390e-01  3.3236586913378974e-01  3.3056922737762429e-01  3.2876949167545388e-01  3.2696830911711400e-01  3.2516729996913413e-01  3.2336772718764789e-01  3.2157082195018960e-01  3.1977748427070785e-01  3.1798859500850646e-01  3.1620471155243290e-01  3.1442638354531638e-01  3.1265386675679885e-01  3.1088740899525780e-01  3.0912702697762234e-01  3.0737273011666510e-01  3.0562432805403905e-01  3.0388166563412550e-01  3.0214438142386268e-01  3.0041219857719703e-01  2.9868464687951973e-01  2.9696138918603909e-01  2.9524190085728119e-01  2.9352582110675673e-01  2.9181262586383067e-01  2.9010197832367784e-01  2.8839341058977419e-01  2.8668664872427174e-01  2.8498131532426602e-01  2.8327723540660815e-01  2.8157416776605559e-01  2.7987208588289814e-01  2.7817088324883149e-01  2.7647070398046492e-01  2.7477160914028198e-01  2.7307390333973430e-01  2.7137786050116008e-01  2.6968399021579093e-01  2.6799278975451801e-01  2.6630500546991626e-01  2.6462135434939166e-01  2.6294283928516410e-01  2.6127043469047861e-01  2.5960540141500288e-01  2.5794902698794731e-01  2.5630289029023556e-01  2.5466862991274386e-01  2.5304820636919478e-01  2.5144364139745912e-01  2.4985733344461386e-01  2.4829177264479699e-01  2.4674984613322037e-01  2.4523461002634153e-01  2.4374954102415111e-01  2.4229833504761455e-01  2.4088514631732277e-01  2.3951435169168672e-01  2.3819083140617481e-01  2.3691967848029941e-01  2.3570646743657542e-01  2.3455696635129208e-01  2.3347734034451342e-01  2.3247381582990562e-01  2.3155282317463222e-01  2.3072054016772509e-01  2.2998295750764394e-01  2.2934520441054468e-01  2.2881138959696823e-01  2.2838364939935615e-01  2.2806152570245997e-01  2.2784035490541341e-01  2.2770993276782961e-01  2.2765164266998958e-01  2.2763878102802415e-01  3.6478662966404546e-01  3.6473301682063208e-01  3.6456095021379331e-01  3.6426730382198974e-01  3.6385121526586578e-01  3.6331495264921726e-01  3.6266219099809072e-01  3.6189821776308745e-01  3.6102904509130823e-01  3.6006136214935536e-01  3.5900191358483252e-01  3.5785767960059628e-01  3.5663532471278403e-01  3.5534152267569541e-01  3.5398243781251976e-01  3.5256412911326573e-01  3.5109217781151875e-01  3.4957198118307237e-01  3.4800850642683989e-01  3.4640653615328615e-01  3.4477043900240417e-01  3.4310444629117665e-01  3.4141237063210467e-01  3.3969791644728498e-01  3.3796441918617720e-01  3.3621509141921913e-01  3.3445283220109806e-01  3.3268042796675623e-01  3.3090032411721271e-01  3.2911490382423153e-01  3.2732615459110115e-01  3.2553602602562670e-01  3.2374610589953323e-01  3.2195792370695031e-01  3.2017268731813164e-01  3.1839154419546295e-01  3.1661532900501177e-01  3.1484484777966909e-01  3.1308057324170568e-01  3.1132296995040920e-01  3.0957223354018865e-01  3.0782853779922270e-01  3.0609185323340105e-01  3.0436214347071067e-01  3.0263917971201554e-01  3.0092278396621458e-01  2.9921256644410321e-01  2.9750824191830910e-01  2.9580934540004350e-01  2.9411554124223166e-01  2.9242633793424438e-01  2.9074139523621723e-01  2.8906024695143934e-01  2.8738260550932260e-01  2.8570806140074761e-01  2.8403639815402226e-01  2.8236731209782984e-01  2.8070070628146065e-01  2.7903640198260804e-01  2.7737444153985641e-01  2.7571479101857083e-01  2.7405764040579966e-01  2.7240312563496227e-01  2.7075159481955363e-01  2.6910338161433489e-01  2.6745903380102093e-01  2.6581906851252829e-01  2.6418424627030529e-01  2.6255529508063230e-01  2.6093320125552594e-01  2.5931893953776336e-01  2.5771374936385699e-01  2.5611890443463681e-01  2.5453596466312667e-01  2.5296653639974104e-01  2.5141255792762029e-01  2.4987604642605729e-01  2.4835938822028139e-01  2.4686510875526588e-01  2.4539612917349504e-01  2.4395558933073427e-01  2.4254706671551404e-01  2.4117438179866824e-01  2.3984184965839866e-01  2.3855404184342749e-01  2.3731604729089678e-01  2.3613319945753664e-01  2.3501130991412014e-01  2.3395637119269147e-01  2.3297472644219544e-01  2.3207268361325364e-01  2.3125662167474514e-01  2.3053245607683623e-01  2.2990558160944871e-01  2.2938011033998382e-01  2.2895846858193505e-01  2.2864027095943512e-01  2.2842130967734936e-01  2.2829153571154256e-01  2.2823307451592711e-01  2.2821967566832282e-01  3.6233129710755724e-01  3.6228161505521100e-01  3.6212073327176880e-01  3.6184443060977811e-01  3.6145165242393007e-01  3.6094334269112149e-01  3.6032252726767583e-01  3.5959340281405333e-01  3.5876119231710396e-01  3.5783157938808202e-01  3.5681072359673272e-01  3.5570476473096518e-01  3.5452003217204359e-01  3.5326254856285205e-01  3.5193835961962472e-01  3.5055312304945807e-01  3.4911240800882448e-01  3.4762142151943554e-01  3.4608522543542991e-01  3.4450852859812314e-01  3.4289592197006719e-01  3.4125159316506198e-01  3.3957964981074407e-01  3.3788381280437590e-01  3.3616770245734590e-01  3.3443461951720721e-01  3.3268774214079799e-01  3.3092993174959734e-01  3.2916396234270762e-01  3.2739222427797027e-01  3.2561705456801399e-01  3.2384040583604967e-01  3.2206415666813831e-01  3.2028986639080781e-01  3.1851899251176446e-01  3.1675269488130858e-01  3.1499206574226313e-01  3.1323785866849757e-01  3.1149079959254861e-01  3.0975130408431528e-01  3.0801975596373138e-01  3.0629631060981605e-01  3.0458108624772690e-01  3.0287401135187819e-01  3.0117502530881674e-01  2.9948385803644512e-01  2.9780031301769150e-01  2.9612399592813032e-01  2.9445461601329281e-01  2.9279173365169386e-01  2.9113502408655967e-01  2.8948404215395968e-01  2.8783848990491695e-01  2.8619795274704918e-01  2.8456219711511632e-01  2.8293087525627275e-01  2.8130383694343575e-01  2.7968084502420398e-01  2.7806186120270904e-01  2.7644677238903653e-01  2.7483566484757110e-01  2.7322856806478057e-01  2.7162570464611535e-01  2.7002725712305620e-01  2.6843360653616344e-01  2.6684508887929126e-01  2.6526224878028998e-01  2.6368559276531994e-01  2.6211584658262088e-01  2.6055370916504234e-01  2.5900011323786720e-01  2.5745598256919738e-01  2.5592250379607306e-01  2.5440087393634403e-01  2.5289258421723432e-01  2.5139918243655723e-01  2.4992254353915550e-01  2.4846466098476760e-01  2.4702789424746358e-01  2.4561478816268675e-01  2.4422830910175278e-01  2.4287166019661485e-01  2.4154852431548901e-01  2.4026286550765039e-01  2.3901916988903144e-01  2.3782222285904828e-01  2.3667733919306863e-01  2.3559009081333157e-01  2.3456651995098074e-01  2.3361279055231843e-01  2.3273534348449640e-01  2.3194044825603907e-01  2.3123422778382521e-01  2.3062204662458305e-01  2.3010829235997765e-01  2.2969546480989933e-01  2.2938352371999360e-01  2.2916842829300385e-01  2.2904069393087659e-01  2.2898282540659701e-01  2.2896933282830331e-01  3.5953536721425189e-01  3.5948997504152064e-01  3.5934059378475935e-01  3.5908303994197993e-01  3.5871527901894662e-01  3.5823769058376970e-01  3.5765215602404093e-01  3.5696195944735892e-01  3.5617118148486149e-01  3.5528465327416048e-01  3.5430752811079486e-01  3.5324534538771002e-01  3.5210360695125364e-01  3.5088800034605255e-01  3.4960399917924090e-01  3.4825712400819797e-01  3.4685262441385201e-01  3.4539570305569650e-01  3.4389128809308478e-01  3.4234423319730267e-01  3.4075905859634259e-01  3.3914023306481045e-01  3.3749185524335507e-01  3.3581796223826132e-01  3.3412225711579163e-01  3.3240834611253345e-01  3.3067952040202553e-01  3.2893897316531706e-01  3.2718954107961623e-01  3.2543398502351428e-01  3.2367468067464317e-01  3.2191391960783644e-01  3.2015364888011011e-01  3.1839569511710430e-01  3.1664158812016835e-01  3.1489274420569913e-01  3.1315025454723816e-01  3.1141514319244273e-01  3.0968810393044699e-01  3.0796978276962067e-01  3.0626055175418443e-01  3.0456073481270901e-01  3.0287044084562048e-01  3.0118975480430621e-01  2.9951855553128054e-01  2.9785675560082808e-01  2.9620406426991791e-01  2.9456026848783762e-01  2.9292498818321527e-01  2.9129793619500860e-01  2.8967870593843331e-01  2.8806700261014118e-01  2.8646242300861025e-01  2.8486471693083776e-01  2.8327352337830441e-01  2.8168866603667359e-01  2.8010985504325153e-01  2.7853699715240327e-01  2.7696991560822931e-01  2.7540860916462567e-01  2.7385302357625257e-01  2.7230327334460097e-01  2.7075942580421825e-01  2.6922172963422236e-01  2.6769036287300979e-01  2.6616569445630084e-01  2.6464803585151608e-01  2.6313788329917354e-01  2.6163569835064393e-01  2.6014213452550705e-01  2.5865781385465292e-01  2.5718358911052991e-01  2.5572027723011387e-01  2.5426896268666616e-01  2.5283074324278076e-01  2.5140700305986285e-01  2.4999921905933334e-01  2.4860919003033416e-01  2.4723887317114501e-01  2.4589061670494267e-01  2.4456697246279688e-01  2.4327095618603697e-01  2.4200585857427206e-01  2.4077548364933055e-01  2.3958396722911354e-01  2.3843599121873113e-01  2.3733656280601462e-01  2.3629123458083176e-01  2.3530578870352042e-01  2.3438644555482796e-01  2.3353946520699723e-01  2.3277124399697299e-01  2.3208781472173631e-01  2.3149474754161287e-01  2.3099643089901625e-01  2.3059567169416634e-01  2.3029253772730876e-01  2.3008342326808767e-01  2.2995912351455550e-01  2.2990280123411846e-01  2.2988952161389836e-01  3.5644825920199635e-01  3.5640703697205073e-01  3.5626972744554325e-01  3.5603166491006727e-01  3.5569050777058220e-01  3.5524564592132157e-01  3.5469814147471135e-01  3.5405006729667887e-01  3.5330451927207990e-01  3.5246517453919901e-01  3.5153633624095715e-01  3.5052254094925100e-01  3.4942871001514669e-01  3.4825977174432571e-01  3.4702087375372104e-01  3.4571704861463637e-01  3.4435342183813034e-01  3.4293494458438939e-01  3.4146659330704837e-01  3.3995309728964090e-01  3.3839918509348715e-01  3.36809289693