<?xml version="1.0"?>
<VTKFile type="UnstructuredGrid"  version="0.1"  >
<UnstructuredGrid>
<Piece  NumberOfPoints="5151" NumberOfCells="10000">
<Points>
<DataArray  type="Float64"  NumberOfComponents="3"  format="ascii">0 0 0  0.01 0 0  0.02 0 0  0.03 0 0  0.04 0 0  0.05 0 0  0.06 0 0  0.07000000000000001 0 0  0.08 0 0  0.09 0 0  0.1 0 0  0.11 0 0  0.12 0 0  0.13 0 0  0.14 0 0  0.15 0 0  0.16 0 0  0.17 0 0  0.18 0 0  0.19 0 0  0.2 0 0  0.21 0 0  0.22 0 0  0.23 0 0  0.24 0 0  0.25 0 0  0.26 0 0  0.27 0 0  0.28 0 0  0.29 0 0  0.3 0 0  0.31 0 0  0.32 0 0  0.33 0 0  0.34 0 0  0.35 0 0  0.36 0 0  0.37 0 0  0.38 0 0  0.39 0 0  0.4 0 0  0.41 0 0  0.42 0 0  0.43 0 0  0.44 0 0  0.45 0 0  0.46 0 0  0.47 0 0  0.48 0 0  0.49 0 0  0.5 0 0  0.51 0 0  0.52 0 0  0.53 0 0  0.54 0 0  0.55 0 0  0.5600000000000001 0 0  0.57 0 0  0.58 0 0  0.59 0 0  0.6 0 0  0.61 0 0  0.62 0 0  0.63 0 0  0.64 0 0  0.65 0 0  0.66 0 0  0.67 0 0  0.68 0 0  0.6899999999999999 0 0  0.7 0 0  0.71 0 0  0.72 0 0  0.73 0 0  0.74 0 0  0.75 0 0  0.76 0 0  0.77 0 0  0.78 0 0  0.79 0 0  0.8 0 0  0.8100000000000001 0 0  0.82 0 0  0.83 0 0  0.84 0 0  0.85 0 0  0.86 0 0  0.87 0 0  0.88 0 0  0.89 0 0  0.9 0 0  0.91 0 0  0.92 0 0  0.93 0 0  0.9399999999999999 0 0  0.95 0 0  0.96 0 0  0.97 0 0  0.98 0 0  0.99 0 0  1 0 0  0 0.01 0  0.01 0.01 0  0.02 0.01 0  0.03 0.01 0  0.04 0.01 0  0.05 0.01 0  0.06 0.01 0  0.07000000000000001 0.01 0  0.08 0.01 0  0.09 0.01 0  0.1 0.01 0  0.11 0.01 0  0.12 0.01 0  0.13 0.01 0  0.14 0.01 0  0.15 0.01 0  0.16 0.01 0  0.17 0.01 0  0.18 0.01 0  0.19 0.01 0  0.2 0.01 0  0.21 0.01 0  0.22 0.01 0  0.23 0.01 0  0.24 0.01 0  0.25 0.01 0  0.26 0.01 0  0.27 0.01 0  0.28 0.01 0  0.29 0.01 0  0.3 0.01 0  0.31 0.01 0  0.32 0.01 0  0.33 0.01 0  0.34 0.01 0  0.35 0.01 0  0.36 0.01 0  0.37 0.01 0  0.38 0.01 0  0.39 0.01 0  0.4 0.01 0  0.41 0.01 0  0.42 0.01 0  0.43 0.01 0  0.44 0.01 0  0.45 0.01 0  0.46 0.01 0  0.47 0.01 0  0.48 0.01 0  0.49 0.01 0  0.5 0.01 0  0.51 0.01 0  0.52 0.01 0  0.53 0.01 0  0.54 0.01 0  0.55 0.01 0  0.5600000000000001 0.01 0  0.57 0.01 0  0.58 0.01 0  0.59 0.01 0  0.6 0.01 0  0.61 0.01 0  0.62 0.01 0  0.63 0.01 0  0.64 0.01 0  0.65 0.01 0  0.66 0.01 0  0.67 0.01 0  0.68 0.01 0  0.6899999999999999 0.01 0  0.7 0.01 0  0.71 0.01 0  0.72 0.01 0  0.73 0.01 0  0.74 0.01 0  0.75 0.01 0  0.76 0.01 0  0.77 0.01 0  0.78 0.01 0  0.79 0.01 0  0.8 0.01 0  0.8100000000000001 0.01 0  0.82 0.01 0  0.83 0.01 0  0.84 0.01 0  0.85 0.01 0  0.86 0.01 0  0.87 0.01 0  0.88 0.01 0  0.89 0.01 0  0.9 0.01 0  0.91 0.01 0  0.92 0.01 0  0.93 0.01 0  0.9399999999999999 0.01 0  0.95 0.01 0  0.96 0.01 0  0.97 0.01 0  0.98 0.01 0  0.99 0.01 0  1 0.01 0  0 0.02 0  0.01 0.02 0  0.02 0.02 0  0.03 0.02 0  0.04 0.02 0  0.05 0.02 0  0.06 0.02 0  0.07000000000000001 0.02 0  0.08 0.02 0  0.09 0.02 0  0.1 0.02 0  0.11 0.02 0  0.12 0.02 0  0.13 0.02 0  0.14 0.02 0  0.15 0.02 0  0.16 0.02 0  0.17 0.02 0  0.18 0.02 0  0.19 0.02 0  0.2 0.02 0  0.21 0.02 0  0.22 0.02 0  0.23 0.02 0  0.24 0.02 0  0.25 0.02 0  0.26 0.02 0  0.27 0.02 0  0.28 0.02 0  0.29 0.02 0  0.3 0.02 0  0.31 0.02 0  0.32 0.02 0  0.33 0.02 0  0.34 0.02 0  0.35 0.02 0  0.36 0.02 0  0.37 0.02 0  0.38 0.02 0  0.39 0.02 0  0.4 0.02 0  0.41 0.02 0  0.42 0.02 0  0.43 0.02 0  0.44 0.02 0  0.45 0.02 0  0.46 0.02 0  0.47 0.02 0  0.48 0.02 0  0.49 0.02 0  0.5 0.02 0  0.51 0.02 0  0.52 0.02 0  0.53 0.02 0  0.54 0.02 0  0.55 0.02 0  0.5600000000000001 0.02 0  0.57 0.02 0  0.58 0.02 0  0.59 0.02 0  0.6 0.02 0  0.61 0.02 0  0.62 0.02 0  0.63 0.02 0  0.64 0.02 0  0.65 0.02 0  0.66 0.02 0  0.67 0.02 0  0.68 0.02 0  0.6899999999999999 0.02 0  0.7 0.02 0  0.71 0.02 0  0.72 0.02 0  0.73 0.02 0  0.74 0.02 0  0.75 0.02 0  0.76 0.02 0  0.77 0.02 0  0.78 0.02 0  0.79 0.02 0  0.8 0.02 0  0.8100000000000001 0.02 0  0.82 0.02 0  0.83 0.02 0  0.84 0.02 0  0.85 0.02 0  0.86 0.02 0  0.87 0.02 0  0.88 0.02 0  0.89 0.02 0  0.9 0.02 0  0.91 0.02 0  0.92 0.02 0  0.93 0.02 0  0.9399999999999999 0.02 0  0.95 0.02 0  0.96 0.02 0  0.97 0.02 0  0.98 0.02 0  0.99 0.02 0  1 0.02 0  0 0.03 0  0.01 0.03 0  0.02 0.03 0  0.03 0.03 0  0.04 0.03 0  0.05 0.03 0  0.06 0.03 0  0.07000000000000001 0.03 0  0.08 0.03 0  0.09 0.03 0  0.1 0.03 0  0.11 0.03 0  0.12 0.03 0  0.13 0.03 0  0.14 0.03 0  0.15 0.03 0  0.16 0.03 0  0.17 0.03 0  0.18 0.03 0  0.19 0.03 0  0.2 0.03 0  0.21 0.03 0  0.22 0.03 0  0.23 0.03 0  0.24 0.03 0  0.25 0.03 0  0.26 0.03 0  0.27 0.03 0  0.28 0.03 0  0.29 0.03 0  0.3 0.03 0  0.31 0.03 0  0.32 0.03 0  0.33 0.03 0  0.34 0.03 0  0.35 0.03 0  0.36 0.03 0  0.37 0.03 0  0.38 0.03 0  0.39 0.03 0  0.4 0.03 0  0.41 0.03 0  0.42 0.03 0  0.43 0.03 0  0.44 0.03 0  0.45 0.03 0  0.46 0.03 0  0.47 0.03 0  0.48 0.03 0  0.49 0.03 0  0.5 0.03 0  0.51 0.03 0  0.52 0.03 0  0.53 0.03 0  0.54 0.03 0  0.55 0.03 0  0.5600000000000001 0.03 0  0.57 0.03 0  0.58 0.03 0  0.59 0.03 0  0.6 0.03 0  0.61 0.03 0  0.62 0.03 0  0.63 0.03 0  0.64 0.03 0  0.65 0.03 0  0.66 0.03 0  0.67 0.03 0  0.68 0.03 0  0.6899999999999999 0.03 0  0.7 0.03 0  0.71 0.03 0  0.72 0.03 0  0.73 0.03 0  0.74 0.03 0  0.75 0.03 0  0.76 0.03 0  0.77 0.03 0  0.78 0.03 0  0.79 0.03 0  0.8 0.03 0  0.8100000000000001 0.03 0  0.82 0.03 0  0.83 0.03 0  0.84 0.03 0  0.85 0.03 0  0.86 0.03 0  0.87 0.03 0  0.88 0.03 0  0.89 0.03 0  0.9 0.03 0  0.91 0.03 0  0.92 0.03 0  0.93 0.03 0  0.9399999999999999 0.03 0  0.95 0.03 0  0.96 0.03 0  0.97 0.03 0  0.98 0.03 0  0.99 0.03 0  1 0.03 0  0 0.04 0  0.01 0.04 0  0.02 0.04 0  0.03 0.04 0  0.04 0.04 0  0.05 0.04 0  0.06 0.04 0  0.07000000000000001 0.04 0  0.08 0.04 0  0.09 0.04 0  0.1 0.04 0  0.11 0.04 0  0.12 0.04 0  0.13 0.04 0  0.14 0.04 0  0.15 0.04 0  0.16 0.04 0  0.17 0.04 0  0.18 0.04 0  0.19 0.04 0  0.2 0.04 0  0.21 0.04 0  0.22 0.04 0  0.23 0.04 0  0.24 0.04 0  0.25 0.04 0  0.26 0.04 0  0.27 0.04 0  0.28 0.04 0  0.29 0.04 0  0.3 0.04 0  0.31 0.04 0  0.32 0.04 0  0.33 0.04 0  0.34 0.04 0  0.35 0.04 0  0.36 0.04 0  0.37 0.04 0  0.38 0.04 0  0.39 0.04 0  0.4 0.04 0  0.41 0.04 0  0.42 0.04 0  0.43 0.04 0  0.44 0.04 0  0.45 0.04 0  0.46 0.04 0  0.47 0.04 0  0.48 0.04 0  0.49 0.04 0  0.5 0.04 0  0.51 0.04 0  0.52 0.04 0  0.53 0.04 0  0.54 0.04 0  0.55 0.04 0  0.5600000000000001 0.04 0  0.57 0.04 0  0.58 0.04 0  0.59 0.04 0  0.6 0.04 0  0.61 0.04 0  0.62 0.04 0  0.63 0.04 0  0.64 0.04 0  0.65 0.04 0  0.66 0.04 0  0.67 0.04 0  0.68 0.04 0  0.6899999999999999 0.04 0  0.7 0.04 0  0.71 0.04 0  0.72 0.04 0  0.73 0.04 0  0.74 0.04 0  0.75 0.04 0  0.76 0.04 0  0.77 0.04 0  0.78 0.04 0  0.79 0.04 0  0.8 0.04 0  0.8100000000000001 0.04 0  0.82 0.04 0  0.83 0.04 0  0.84 0.04 0  0.85 0.04 0  0.86 0.04 0  0.87 0.04 0  0.88 0.04 0  0.89 0.04 0  0.9 0.04 0  0.91 0.04 0  0.92 0.04 0  0.93 0.04 0  0.9399999999999999 0.04 0  0.95 0.04 0  0.96 0.04 0  0.97 0.04 0  0.98 0.04 0  0.99 0.04 0  1 0.04 0  0 0.05 0  0.01 0.05 0  0.02 0.05 0  0.03 0.05 0  0.04 0.05 0  0.05 0.05 0  0.06 0.05 0  0.07000000000000001 0.05 0  0.08 0.05 0  0.09 0.05 0  0.1 0.05 0  0.11 0.05 0  0.12 0.05 0  0.13 0.05 0  0.14 0.05 0  0.15 0.05 0  0.16 0.05 0  0.17 0.05 0  0.18 0.05 0  0.19 0.05 0  0.2 0.05 0  0.21 0.05 0  0.22 0.05 0  0.23 0.05 0  0.24 0.05 0  0.25 0.05 0  0.26 0.05 0  0.27 0.05 0  0.28 0.05 0  0.29 0.05 0  0.3 0.05 0  0.31 0.05 0  0.32 0.05 0  0.33 0.05 0  0.34 0.05 0  0.35 0.05 0  0.36 0.05 0  0.37 0.05 0  0.38 0.05 0  0.39 0.05 0  0.4 0.05 0  0.41 0.05 0  0.42 0.05 0  0.43 0.05 0  0.44 0.05 0  0.45 0.05 0  0.46 0.05 0  0.47 0.05 0  0.48 0.05 0  0.49 0.05 0  0.5 0.05 0  0.51 0.05 0  0.52 0.05 0  0.53 0.05 0  0.54 0.05 0  0.55 0.05 0  0.5600000000000001 0.05 0  0.57 0.05 0  0.58 0.05 0  0.59 0.05 0  0.6 0.05 0  0.61 0.05 0  0.62 0.05 0  0.63 0.05 0  0.64 0.05 0  0.65 0.05 0  0.66 0.05 0  0.67 0.05 0  0.68 0.05 0  0.6899999999999999 0.05 0  0.7 0.05 0  0.71 0.05 0  0.72 0.05 0  0.73 0.05 0  0.74 0.05 0  0.75 0.05 0  0.76 0.05 0  0.77 0.05 0  0.78 0.05 0  0.79 0.05 0  0.8 0.05 0  0.8100000000000001 0.05 0  0.82 0.05 0  0.83 0.05 0  0.84 0.05 0  0.85 0.05 0  0.86 0.05 0  0.87 0.05 0  0.88 0.05 0  0.89 0.05 0  0.9 0.05 0  0.91 0.05 0  0.92 0.05 0  0.93 0.05 0  0.9399999999999999 0.05 0  0.95 0.05 0  0.96 0.05 0  0.97 0.05 0  0.98 0.05 0  0.99 0.05 0  1 0.05 0  0 0.06 0  0.01 0.06 0  0.02 0.06 0  0.03 0.06 0  0.04 0.06 0  0.05 0.06 0  0.06 0.06 0  0.07000000000000001 0.06 0  0.08 0.06 0  0.09 0.06 0  0.1 0.06 0  0.11 0.06 0  0.12 0.06 0  0.13 0.06 0  0.14 0.06 0  0.15 0.06 0  0.16 0.06 0  0.17 0.06 0  0.18 0.06 0  0.19 0.06 0  0.2 0.06 0  0.21 0.06 0  0.22 0.06 0  0.23 0.06 0  0.24 0.06 0  0.25 0.06 0  0.26 0.06 0  0.27 0.06 0  0.28 0.06 0  0.29 0.06 0  0.3 0.06 0  0.31 0.06 0  0.32 0.06 0  0.33 0.06 0  0.34 0.06 0  0.35 0.06 0  0.36 0.06 0  0.37 0.06 0  0.38 0.06 0  0.39 0.06 0  0.4 0.06 0  0.41 0.06 0  0.42 0.06 0  0.43 0.06 0  0.44 0.06 0  0.45 0.06 0  0.46 0.06 0  0.47 0.06 0  0.48 0.06 0  0.49 0.06 0  0.5 0.06 0  0.51 0.06 0  0.52 0.06 0  0.53 0.06 0  0.54 0.06 0  0.55 0.06 0  0.5600000000000001 0.06 0  0.57 0.06 0  0.58 0.06 0  0.59 0.06 0  0.6 0.06 0  0.61 0.06 0  0.62 0.06 0  0.63 0.06 0  0.64 0.06 0  0.65 0.06 0  0.66 0.06 0  0.67 0.06 0  0.68 0.06 0  0.6899999999999999 0.06 0  0.7 0.06 0  0.71 0.06 0  0.72 0.06 0  0.73 0.06 0  0.74 0.06 0  0.75 0.06 0  0.76 0.06 0  0.77 0.06 0  0.78 0.06 0  0.79 0.06 0  0.8 0.06 0  0.8100000000000001 0.06 0  0.82 0.06 0  0.83 0.06 0  0.84 0.06 0  0.85 0.06 0  0.86 0.06 0  0.87 0.06 0  0.88 0.06 0  0.89 0.06 0  0.9 0.06 0  0.91 0.06 0  0.92 0.06 0  0.93 0.06 0  0.9399999999999999 0.06 0  0.95 0.06 0  0.96 0.06 0  0.97 0.06 0  0.98 0.06 0  0.99 0.06 0  1 0.06 0  0 0.07000000000000001 0  0.01 0.07000000000000001 0  0.02 0.07000000000000001 0  0.03 0.07000000000000001 0  0.04 0.07000000000000001 0  0.05 0.07000000000000001 0  0.06 0.07000000000000001 0  0.07000000000000001 0.07000000000000001 0  0.08 0.07000000000000001 0  0.09 0.07000000000000001 0  0.1 0.07000000000000001 0  0.11 0.07000000000000001 0  0.12 0.07000000000000001 0  0.13 0.07000000000000001 0  0.14 0.07000000000000001 0  0.15 0.07000000000000001 0  0.16 0.07000000000000001 0  0.17 0.07000
[...]
<PointData  Scalars="rho_bar"> 
<DataArray  type="Float64"  Name="rho_bar"  format="ascii">9.9570805056387512e-01  9.9751221311106120e-01  9.9642464353253823e-01  9.9660686182283809e-01  9.9697688458547151e-01  9.9789617666680508e-01  9.9912692590486796e-01  1.0003451122997273e+00  1.0012317090299849e+00  1.0015998287667176e+00  1.0013972339067785e+00  1.0006674136208842e+00  9.9955733471560437e-01  9.9834872380807527e-01  9.9738129610483706e-01  9.9687513331998145e-01  9.9684360849992548e-01  9.9716122444532451e-01  9.9766901288297460e-01  9.9823685921908401e-01  9.9878337082847990e-01  9.9927273499509583e-01  9.9970093646324032e-01  1.0000743373314367e+00  1.0003935901416707e+00  1.0006529563888309e+00  1.0008403475440009e+00  1.0009308329511113e+00  1.0008837821025869e+00  1.0006524038599740e+00  1.0002663610787910e+00  9.9993462296478075e-01  9.9986493703255663e-01  9.9996347711092115e-01  1.0000270023097293e+00  9.9996990696671006e-01  9.9994813093077206e-01  1.0013431500551055e+00  9.8937893019177781e-01  1.0503385833803407e+00  7.0910678282631745e-01  1.8532322177976183e-02  2.0761394092725966e-04  7.3605488804127190e-04  -6.9272745239823611e-05  -2.6551533862951327e-05  -1.6328397026246210e-05  1.5528134057318145e-05  5.4193053438958580e-06  -1.5958921960703833e-06  -1.4763371199737252e-06  2.6244827800577944e-07  2.6028602179778410e-07  -8.3333019996382311e-08  -2.4725701709190008e-08  2.1369115274343256e-08  -3.0830427310456739e-09  -2.0293078142317434e-09  1.4374282450306580e-09  -3.0281363167037074e-10  -2.7031715266058037e-11  8.1407028640105532e-11  -2.3397348039720947e-11  1.3269100597501369e-11  3.8532568856382498e-12  2.1262616786442379e-12  2.8146716285777301e-12  1.5391342602874728e-12  1.4310201540087739e-12  1.0686047286654463e-12  8.6674356701555325e-13  6.9927370773238917e-13  5.6791142778963063e-13  4.6585668298447738e-13  3.8353917126925512e-13  3.1762318175083987e-13  2.6403431477438333e-13  2.2028714946343240e-13  1.8432697608130561e-13  1.5465480985599187e-13  1.3002474966766398e-13  1.0952102339358211e-13  9.2414160884359829e-14  7.8087931927189544e-14  6.6079722963754303e-14  5.5958167066254254e-14  4.7471518987620289e-14  4.0337095296586502e-14  3.4315493439390440e-14  2.9266536919178483e-14  2.5025539427012021e-14  2.1475723352346942e-14  1.8527058785015064e-14  1.6094712868503281e-14  1.4074982733480073e-14  1.2491259083299773e-14  1.1207855538156604e-14  1.0290222522289081e-14  9.6225071703434519e-15  9.2641692785448847e-15  9.2077833494445939e-15  1.0102934652607096e+00  1.0044755421869695e+00  1.0065914184889377e+00  1.0066953061799178e+00  1.0063294176872670e+00  1.0049262715779410e+00  1.0026203946856644e+00  9.9996782586610378e-01  9.9766957725505712e-01  9.9626158166768142e-01  9.9599794003933095e-01  9.9690547342698732e-01  9.9881953358830089e-01  1.0013092912760893e+00  1.0036892996863616e+00  1.0053258377417140e+00  1.0059671999643949e+00  1.0057449621423018e+00  1.0049630706540380e+00  1.0039221364335684e+00  1.0028385547449554e+00  1.0018312996547827e+00  1.0009390743240500e+00  1.0001559840977918e+00  9.9947502737230332e-01  9.9890416166780216e-01  9.9846059425990052e-01  9.9818022332628820e-01  9.9812929719532839e-01  9.9839996639530915e-01  9.9904635034144063e-01  9.9984451594435531e-01  1.0002729530859888e+00  1.0001724473164146e+00  9.9998137996482717e-01  9.9996030050649387e-01  1.0001268358566837e+00  9.9933517305697861e-01  1.0017819897415172e+00  1.0011372773880971e+00  8.5562388295948832e-01  1.6961067935779669e-02  1.0164122800067971e-02  -9.3797746339081042e-04  -8.0817434814590226e-05  6.5150481688874116e-05  7.7271896645773403e-05  -1.8700088368253186e-05  -2.1382888507678940e-05  -1.5188427838820961e-06  4.4494444406137740e-06  6.9171146611704096e-07  -8.5133308386103753e-07  -9.9184937117269926e-09  1.4665215295120445e-07  -3.9158713314713832e-08  -9.7846394026186756e-09  1.0070817139332145e-08  -2.7481746024926267e-09  -1.4918655557074329e-10  5.0816462707530864e-10  -2.1555418407956067e-10  6.3935861268626215e-11  5.3347659533112129e-12  -2.5067623452336559e-12  7.1023933580929375e-12  8.8592853727338473e-13  2.2320302958756705e-12  1.3378905025903793e-12  1.1191466886071930e-12  8.9810432076529606e-13  7.1420151603485829e-13  5.8510532526522240e-13  4.7671816929144218e-13  3.9296900589880107e-13  3.2485772740110306e-13  2.6990769382880581e-13  2.2501221294021082e-13  1.8821813503079076e-13  1.5781681067558688e-13  1.3262483759656285e-13  1.1168958155574719e-13  9.4190121362243095e-14  7.9574354330667426e-14  6.7308690196497554e-14  5.7008846603384378e-14  4.8351350248025682e-14  4.1070898025627949e-14  3.4926610871805749e-14  2.9793775495641597e-14  2.5461284020891374e-14  2.1857091611406529e-14  1.8857590818465053e-14  1.6355756222637064e-14  1.4331197019786048e-14  1.2708840394340959e-14  1.1424652341765654e-14  1.0461397183864825e-14  9.8040985986370775e-15  9.4119074637212399e-15  9.2755269849862210e-15  9.6389323318791609e-01  9.8410417880455869e-01  9.7764041668189883e-01  9.7621832984723700e-01  9.7586575585474977e-01  9.7869356678649966e-01  9.8499294459203324e-01  9.9351978731671242e-01  1.0019236322907064e+00  1.0080094260538233e+00  1.0105296197973224e+00  1.0091655057189428e+00  1.0042153692175615e+00  9.9662970486619140e-01  9.8831560490107706e-01  9.8165838210165468e-01  9.7819863092008463e-01  9.7801450308893711e-01  9.8024147247893845e-01  9.8378327078272443e-01  9.8774028455979634e-01  9.9154899675237762e-01  9.9495840823229287e-01  9.9794264805221922e-01  1.0005496565937304e+00  1.0027789227947090e+00  1.0045879131737361e+00  1.0058963799299625e+00  1.0065269875247926e+00  1.0061998305785607e+00  1.0046107075563799e+00  1.0018891308865618e+00  9.9947869457211591e-01  9.9903180795294244e-01  9.9982075923752811e-01  1.0001380360137957e+00  9.9995679443720753e-01  9.9999298778723245e-01  1.0005004810450737e+00  9.9437445806554448e-01  9.8914282654217223e-01  2.3243513538103203e-01  4.6997906147819188e-04  -8.4673821172208971e-04  1.0172932773576519e-03  2.0435521709468685e-04  -4.2099217411470385e-04  -3.1852290293252929e-05  9.2463151981439585e-05  3.6135661297841687e-05  -1.3560859292471007e-05  -9.1015009263941128e-06  2.6237509041091643e-06  1.3053752709456529e-06  -7.0583355430334234e-07  -1.0744042655407931e-08  1.1544886010210659e-07  -4.4150383461735607e-08  2.3898465141108771e-09  5.3724625765426661e-09  -3.0017993942616301e-09  8.8284437650150897e-10  -6.1058109103832539e-11  -6.5095416364065132e-11  5.5409503778641489e-11  -1.7045977199744116e-11  8.9663000557993365e-12  6.4999390579967172e-13  1.7162607675899691e-12  1.2877432782804382e-12  9.2698643137728669e-13  8.0283019283162225e-13  6.2314640969169080e-13  5.1708924068047364e-13  4.2112051014028193e-13  3.4822569549769587e-13  2.8834754928846986e-13  2.3997273533559090e-13  2.0035429123377994e-13  1.6773734024405425e-13  1.4081135239776598e-13  1.1843038598841912e-13  9.9808320120279988e-14  8.4264389772631497e-14  7.1204592824101249e-14  6.0284630248844149e-14  5.1097065541710313e-14  4.3379515394332438e-14  3.6886684920082557e-14  3.1445688211073639e-14  2.6880475663468174e-14  2.3049419652329013e-14  1.9876503507512213e-14  1.7262590726011721e-14  1.5098282436798806e-14  1.3374367547929403e-14  1.2019688184676334e-14  1.1015584240111325e-14  1.0307518676331618e-14  9.8872136753071967e-15  9.7763277232636537e-15  1.1110476639017761e+00  1.0569000911999800e+00  1.0719519403983588e+00  1.0788351456292995e+00  1.0819004642604966e+00  1.0745638942588076e+00  1.0525650997524350e+00  1.0170794166576069e+00  9.7550330697861165e-01  9.3818326282299869e-01  9.1411989780055414e-01  9.0863795697395056e-01  9.2280800903655080e-01  9.5364869960853138e-01  9.9365331375654153e-01  1.0317634203067456e+00  1.0584738925884201e+00  1.0705360588363810e+00  1.0700878176235897e+00  1.0614898523058309e+00  1.0489627954041643e+00  1.0355208524063502e+00  1.0228465944577532e+00  1.0115359778536095e+00  1.0015449691075375e+00  9.9281666782155009e-01  9.8549763700358628e-01  9.7980960530180583e-01  9.7621519429352632e-01  9.7559654669818097e-01  9.7908815936143745e-01  9.8739375325451351e-01  9.9806902198596470e-01  1.0038651461942709e+00  1.0020859819803452e+00  9.9957354805637744e-01  9.9978555393275270e-01  1.0001187516597347e+00  9.9964750399231961e-01  9.9966828730961632e-01  1.0005613083138116e+00  7.7301123433668073e-01  3.7318266881159357e-02  1.2344490515029080e-02  3.3707454759227326e-04  -3.1150943696967330e-03  1.5303043253997858e-03  7.2082045424926217e-04  -2.5053900529392191e-04  -2.6588173476196257e-04  -6.1074766993922955e-06  5.7807057989302654e-05  2.7166872138130952e-06  -1.0452784084631130e-05  1.5867626691164918e-06  1.2277452056058148e-06  -6.7499178470653374e-07  8.8933432154429153e-08  5.9355639034511278e-08  -4.1387425876153389e-08  1.3162614423061259e-08  -1.4596944302973684e-09  -8.7213887689433573e-10  7.0106085304675354e-10  -2.8625142338303919e-10  9.4933668040814306e-11  -1.6931849882994877e-11  4.6311857903588907e-12  2.6745970079008316e-12  7.5660644913490319e-13  1.4416994287684623e-12  7.7774114063280140e-13  7.5529322178157812e-13  5.6932576290265403e-13  4.7660847418231122e-13  3.8796661951993282e-13  3.2105527132523463e-13  2.6606768833474699e-13  2.2155366908034129e-13  1.8504985876277012e-13  1.5501360878959034e-13  1.3017927899897086e-13  1.0952754070150514e-13  9.2328209556636774e-14  7.7959611921526765e-14  6.5925386858781813e-14  5.5823525800836727e-14  4.7379311634309789e-14  4.0253059291740475e-14  3.4298602317447147e-14  2.9284932941059902e-14  2.5105887166619637e-14  2.1635533339326817e-14  1.8751677523830409e-14  1.6416079274680323e-14  1.4534714381380487e-14  1.3060311381089149e-14  1.1940631578988315e-14  1.1182994792871487e-14  1.0723227344647454e-14  1.0598719953737376e-14  5.5127717570328316e-01  6.3078792204272494e-01  5.8372459178882297e-01  5.1213804483932912e-01  4.1795634888535160e-01  3.1157460724908909e-01  2.0828580315705084e-01  1.2046866464899919e-01  5.4625710152240908e-02  1.1710529177912564e-02  -1.1222159074901665e-02  -1.8093647122968206e-02  -1.0996470307423796e-02  1.1499777436174020e-02  5.3960791967852126e-02  1.2061452496125007e-01  2.1062990409736088e-01  3.1826384955816017e-01  4.3498224143066372e-01  5.5088040438320951e-01  6.5772959259750696e-01  7.5067805824846767e-01  8.2825626055697055e-01  8.9168763399487461e-01  9.4388191472682625e-01  9.8768049580868478e-01  1.0240924965918465e+00  1.0532085958161641e+00  1.0744237359963340e+00  1.0855342527044212e+00  1.0827895274927708e+00  1.0624246129283919e+00  1.0256605025765906e+00  9.9107859744501869e-01  9.8583169283938632e-01  9.9864622246593626e-01  1.0016014353769231e+00  9.9946582736613843e-01  9.9981553179794935e-01  1.0002198535512383e+00  9.9355461496984609e-01  1.0085328635475665e+00  7.2375035340666927e-01  6.7941277419693899e-02  -1.6484082294823663e-02  1.8714284926705415e-02  -1.4992635356465369e-03  -4.8136800643051904e-03  -2.8541761974241623e-04  1.2862251406563214e-03  4.4092081504780673e-04  -2.1753214583386185e-04  -1.0281221531736049e-04  4.5806143838062590e-05  8.7471791214042319e-06  -9.6127784746908555e-06  2.0642717200308309e-06  5.7045057197558664e-07  -5.5669109641739062e-07  1.9633205745493688e-07  -2.7440737743486365e-08  -1.0574699782135201e-08  9.4512257375096502e-09  -4.0998037371340441e-09  1.2967640892150329e-09  -2.8497205677309158e-10  3.6710792350143905e-11  1.4196404042123423e-11  -7.1447674002980732e-12  6.1760681725869026e-12  -2.5447000134646175e-13  1.6038965183047299e-12  6.9567133805283904e-13  7.2566052482151423e-13  5.4199962933471227e-13  4.5313030702762675e-13  3.6947654725294296e-13  3.0541746641478384e-13  2.5320423560532059e-13  2.1078423926488772e-13  1.7608086244294174e-13  1.4748191877760949e-13  1.2384646743515005e-13  1.0421339051627516e-13  8.7867538954757417e-14  7.4214621890251028e-14  6.2776275930959399e-14  5.3189516257951701e-14  4.5161173101584481e-14  3.8431675699510406e-14  3.2799418584848077e-14  2.8102589126793830e-14  2.4188056595820396e-14  2.0959624476037458e-14  1.8327373171042597e-14  1.6198339153875677e-14  1.4554628459229215e-14  1.3302837520259983e-14  1.2447935658832605e-14  1.1945276984362297e-14  1.1798419798909709e-14  -3.0090436651944389e-02  -9.3872856510293076e-02  -9.9860685800532770e-02  -9.5891254915605226e-02  -8.8260094285994337e-02  -7.3500441432127542e-02  -5.4117103017792781e-02  -3.4059201920624844e-02  -1.6744853181546657e-02  -4.0392535838531919e-03  3.7600925547399840e-03  7.3153953473723797e-03  7.3686125894457761e-03  4.0634590376863568e-03  -3.2472138807270326e-03  -1.5414845883476289e-02  -3.2209207806785801e-02  -5.1694705313803997e-02  -7.0724120863159282e-02  -8.5586291963227548e-02  -9.2852408031493180e-02  -9.0246118969364839e-02  -7.7212843250348800e-02  -5.4925964298875703e-02  -2.5039397082803470e-02  1.2209401338859340e-02  5.7499056322754559e-02  1.1217368553884240e-01  1.8020202078333325e-01  2.6834950725138390e-01  3.8571348495953234e-01  5.4360590507689222e-01  7.4083390170589580e-01  9.4121260695646458e-01  1.0497028452610633e+00  1.0220835437149125e+00  9.9043390890506278e-01  9.9952668432533032e-01  1.0003822414504657e+00  9.9892076069586166e-01  1.0010589817068680e+00  9.9150551347565519e-01  1.0068764394576988e+00  9.1490911358296156e-01  3.4785944229507809e-01  -3.9232009659761202e-02  -1.9443874173679376e-02  2.0484991586322381e-02  8.6753039339728354e-03  -3.7490238224450636e-03  -3.5686830046436939e-03  1.3726613950826148e-04  7.8141699596391437e-04  -5.2267037948582983e-05  -1.2039999281816803e-04  4.0722263847369179e-05  3.3786122729229811e-06  -7.2546519549677192e-06  2.9188990230039333e-06  -4.9000429089026039e-07  -1.1998654029126422e-07  1.2804199135554017e-07  -5.7791427905139591e-08  1.8389435735125852e-08  -4.1845614985559866e-09  4.9143115348907841e-10  1.5496241426757464e-10  -1.2773067303057146e-10  6.4550207496807683e-11  -2.0420783320819337e-11  9.1525821287687906e-12  -8.3350276232869678e-13  1.6480431408227045e-12  6.8494624915532518e-13  7.0166671157672820e-13  5.3312905305383443e-13  4.4063116745203733e-13  3.6081155600038764e-13  2.9747095274660444e-13  2.4671523207537631e-13  2.0525050138240727e-13  1.7141229657834032e-13  1.4355961473758061e-13  1.2052318833604811e-13  1.0139882079169382e-13  8.5485345273621588e-14  7.2205189933736527e-14  6.1109367711178905e-14  5.1833893382621171e-14  4.4054214430045393e-14  3.7555740054356571e-14  3.2149921899281063e-14  2.7636983388498323e-14  2.3928176162359943e-14  2.0892225654860555e-14  1.8480281154374027e-14  1.6573031050248946e-14  1.5146731517701227e-14  1.4156617886267716e-14  1.3573367459990723e-14  1.3386556592807660e-14  -1.9565472582333882e-04  1.8082465753257976e-02  2.7654678086403761e-02  2.6612325183421163e-02  2.5067960146889334e-02  2.2024366709969847e-02  1.7275341472200154e-02  1.1832502388622908e-02  6.7172603759218233e-03  2.6504400572535556e-03  -9.2699306015055921e-05  -1.5891872887990092e-03  -2.0553614429082013e-03  -1.6254533219788947e-03  -2.2520013515638893e-04  2.3826676595988202e-03  6.3211223734990765e-03  1.1306345963515541e-02  1.6644876140988800e-02  2.1405938807194259e-02  2.4621915594662890e-02  2.5529002240810006e-02  2.3768093191570975e-02  1.9477027319173463e-02  1.3138566822202720e-02  5.1105712823117950e-03  -4.5401348115464094e-03  -1.5800398590745675e-02  -2.8854939547418232e-02  -4.4112144868849443e-02  -6.1411194904457428e-02  -7.8157225878698139e-02  -8.1749568553018140e-02  -3.0397176217035460e-02  1.7339376256648220e-01  6.0561414241940170e-01  9.7625062138016472e-01  1.0037802396366513e+00  9.9291057943950700e-01  1.0009756246548513e+00  9.9878486941721734e-01  1.0006318040347277e+00  9.9772156181655169e-01  9.9031872710250457e-01  1.0306405871255016e+00  8.5813990568216747e-01  3.4378606677120271e-01  -1.7711469331483709e-02  -5.7631253826130754e-02  -8.7742930159832519e-04  1.8297496392891403e-02  5.2317660652831770e-03  -3.4346847307952792e-03  -1.0038187697576375e-03  7.1735242425853161e-04  -3.6853588452844423e-05  -8.9264997160671693e-05  4.3177940969645555e-05  -8.5468746969653956e-06  -1.2224996080238491e-06  1.7292801860299579e-06  -8.1394790362395430e-07  2.6261303365509325e-07  -6.0589304523821128e-08  7.2023099784741053e-09  2.0203808111559370e-09  -1.8297856860255156e-09  8.6461546413700735e-10  -3.1364804474325831e-10  1.0657949438312086e-10  -2.8123245445349487e-11  1.0056937390750064e-11  -7.2380184990862922e-13  1.5260269495894888e-12  7.4054517930351129e-13  6.7705318160034668e-13  5.3786902763861664e-13  4.3523215458379807e-13  3.5892511475281102e-13  2.9477965308839972e-13  2.4460494856618113e-13  2.0331117388232904e-13  1.6973987644417664e-13  1.4209428970438956e-13  1.1926685255128984e-13  1.0033730999559445e-13  8.4599167377531745e-14  7.1483083905459844e-14  6.0522067023113490e-14  5.1380872969871753e-14  4.3745298232849485e-14  3.7392010311955446e-14  3.2126132472517263e-14  2.7787159699528237e-14  2.4252924782183881e-14  2.1397210175580807e-14  1.9184120729112511e-14  1.7511304930178348e-14  1.6359505432329034e-14  1.5696886088797441e-14  1.5464198941563083e-14  7.7950477116723856e-04  -2.2355570326484148e-03  -6.5362818659594766e-03  -7.4486316050726992e-03  -6.9296892796018540e-03  -6.3686926901058896e-03  -5.3063455596682133e-03  -3.9040544628652749e-03  -2.4598974521053358e-03  -1.2130676489729105e-03  -2.9810125395358152e-04  2.6407870625364693e-04  5.2046023752001097e-04  5.2418165786889041e-04  2.8496512660602854e-04  -2.4458908088831896e-04  -1.1234307271619931e-03  -2.3353080325474412e-03  -3.7457432608972801e-03  -5.1305671956039843e-03  -6.2278483002008245e-03  -6.7977831988376225e-03  -6.6844445470747383e-03  -5.8583413422633344e-03  -4.4138410114911127e-03  -2.4753849311410733e-03  -9.5638797353239961e-05  2.7192920772455462e-03  5.9911547457068585e-03  9.8231695778184715e-03  1.4305419497337640e-02  1.9293261798417137e-02  2.3372920113969475e-02  2.1253769302345071e-02  -7.5725607040366943e-04  -5.0732304335834352e-02  1.1874805974451300e-01  7.5565026775137467e-01  1.0083371872326712e+00  9.9330757699866601e-01  1.0001978178927657e+00  9.9963952772812370e-01  9.9942703067951333e-01  1.0021173618163535e+00  9.9248959355400113e-01  9.9351421641681359e-01  1.0421432378838951e+00  9.5066951139683109e-01  5.8505809109673623e-01  1.6747983111850276e-01  -4.5883108598373468e-02  -4.5757054515743530e-02  5.7693703539774648e-03  1.0227111652322448e-02  -2.1138118412724308e-03  -9.5684932957124742e-04  6.3375589381059483e-04  -1.4763901840308442e-04  -9.5010518765569994e-06  2.3230287739761579e-05  -1.1485049609045202e-05  3.7635280572296015e-06  -8.7668847830446148e-07  1.0668094299197496e-07  2.7121398368001348e-08  -2.5607559898003398e-08  1.2015395946097499e-08  -4.4393997363517177e-09  1.4513327381574591e-09  -4.2085168208990644e-10  1.1891487237939174e-10  -2.6521165632257020e-11  8.3774720356917503e-12  1.0142111538521232e-13  1.2349528124838444e-12  8.5602301160433661e-13  6.4813078473805387e-13  5.5300840810109932e-13  4.3463081411436277e-13  3.6176244309294951e-13  2.9581274227735628e-13  2.4556537227326367e-13  2.0390693888457108e-13  1.7017567772621924e-13  1.4238862383908331e-13  1.1951192785378640e-13  1.0052808086916909e-13  8.4777520700328319e-14  7.1652429026388824e-14  6.0739082135586739e-14  5.1645590142948170e-14  4.4071237488483524e-14  3.7822299764785286e-14  3.2674054826220724e-14  2.8467927293385864e-14  2.5100367557652513e-14  2.2485429183751892e-14  2.0524710791312159e-14  1.9154215497589002e-14  1.8339482286607385e-14  1.8097441495144078e-14  -1.7611123502120162e-04  8.9650059683169740e-05  1.2219465581198706e-03  1.9685495530102088e-03  1.9438698518783107e-03  1.7883968482112528e-03  1.5804310296658433e-03  1.2403827520697916e-03  8.4969095021229714e-04  4.8281539247259516e-04  1.9065513945512293e-04  -6.5866051830089138e-06  -1.1435043740944810e-04  -1.4801030924582319e-04  -1.171458970