<?xml version="1.0"?>
<VTKFile type="UnstructuredGrid"  version="0.1"  >
<UnstructuredGrid>
<Piece  NumberOfPoints="5151" NumberOfCells="10000">
<Points>
<DataArray  type="Float64"  NumberOfComponents="3"  format="ascii">0 0 0  0.01 0 0  0.02 0 0  0.03 0 0  0.04 0 0  0.05 0 0  0.06 0 0  0.07000000000000001 0 0  0.08 0 0  0.09 0 0  0.1 0 0  0.11 0 0  0.12 0 0  0.13 0 0  0.14 0 0  0.15 0 0  0.16 0 0  0.17 0 0  0.18 0 0  0.19 0 0  0.2 0 0  0.21 0 0  0.22 0 0  0.23 0 0  0.24 0 0  0.25 0 0  0.26 0 0  0.27 0 0  0.28 0 0  0.29 0 0  0.3 0 0  0.31 0 0  0.32 0 0  0.33 0 0  0.34 0 0  0.35 0 0  0.36 0 0  0.37 0 0  0.38 0 0  0.39 0 0  0.4 0 0  0.41 0 0  0.42 0 0  0.43 0 0  0.44 0 0  0.45 0 0  0.46 0 0  0.47 0 0  0.48 0 0  0.49 0 0  0.5 0 0  0.51 0 0  0.52 0 0  0.53 0 0  0.54 0 0  0.55 0 0  0.5600000000000001 0 0  0.57 0 0  0.58 0 0  0.59 0 0  0.6 0 0  0.61 0 0  0.62 0 0  0.63 0 0  0.64 0 0  0.65 0 0  0.66 0 0  0.67 0 0  0.68 0 0  0.6899999999999999 0 0  0.7 0 0  0.71 0 0  0.72 0 0  0.73 0 0  0.74 0 0  0.75 0 0  0.76 0 0  0.77 0 0  0.78 0 0  0.79 0 0  0.8 0 0  0.8100000000000001 0 0  0.82 0 0  0.83 0 0  0.84 0 0  0.85 0 0  0.86 0 0  0.87 0 0  0.88 0 0  0.89 0 0  0.9 0 0  0.91 0 0  0.92 0 0  0.93 0 0  0.9399999999999999 0 0  0.95 0 0  0.96 0 0  0.97 0 0  0.98 0 0  0.99 0 0  1 0 0  0 0.01 0  0.01 0.01 0  0.02 0.01 0  0.03 0.01 0  0.04 0.01 0  0.05 0.01 0  0.06 0.01 0  0.07000000000000001 0.01 0  0.08 0.01 0  0.09 0.01 0  0.1 0.01 0  0.11 0.01 0  0.12 0.01 0  0.13 0.01 0  0.14 0.01 0  0.15 0.01 0  0.16 0.01 0  0.17 0.01 0  0.18 0.01 0  0.19 0.01 0  0.2 0.01 0  0.21 0.01 0  0.22 0.01 0  0.23 0.01 0  0.24 0.01 0  0.25 0.01 0  0.26 0.01 0  0.27 0.01 0  0.28 0.01 0  0.29 0.01 0  0.3 0.01 0  0.31 0.01 0  0.32 0.01 0  0.33 0.01 0  0.34 0.01 0  0.35 0.01 0  0.36 0.01 0  0.37 0.01 0  0.38 0.01 0  0.39 0.01 0  0.4 0.01 0  0.41 0.01 0  0.42 0.01 0  0.43 0.01 0  0.44 0.01 0  0.45 0.01 0  0.46 0.01 0  0.47 0.01 0  0.48 0.01 0  0.49 0.01 0  0.5 0.01 0  0.51 0.01 0  0.52 0.01 0  0.53 0.01 0  0.54 0.01 0  0.55 0.01 0  0.5600000000000001 0.01 0  0.57 0.01 0  0.58 0.01 0  0.59 0.01 0  0.6 0.01 0  0.61 0.01 0  0.62 0.01 0  0.63 0.01 0  0.64 0.01 0  0.65 0.01 0  0.66 0.01 0  0.67 0.01 0  0.68 0.01 0  0.6899999999999999 0.01 0  0.7 0.01 0  0.71 0.01 0  0.72 0.01 0  0.73 0.01 0  0.74 0.01 0  0.75 0.01 0  0.76 0.01 0  0.77 0.01 0  0.78 0.01 0  0.79 0.01 0  0.8 0.01 0  0.8100000000000001 0.01 0  0.82 0.01 0  0.83 0.01 0  0.84 0.01 0  0.85 0.01 0  0.86 0.01 0  0.87 0.01 0  0.88 0.01 0  0.89 0.01 0  0.9 0.01 0  0.91 0.01 0  0.92 0.01 0  0.93 0.01 0  0.9399999999999999 0.01 0  0.95 0.01 0  0.96 0.01 0  0.97 0.01 0  0.98 0.01 0  0.99 0.01 0  1 0.01 0  0 0.02 0  0.01 0.02 0  0.02 0.02 0  0.03 0.02 0  0.04 0.02 0  0.05 0.02 0  0.06 0.02 0  0.07000000000000001 0.02 0  0.08 0.02 0  0.09 0.02 0  0.1 0.02 0  0.11 0.02 0  0.12 0.02 0  0.13 0.02 0  0.14 0.02 0  0.15 0.02 0  0.16 0.02 0  0.17 0.02 0  0.18 0.02 0  0.19 0.02 0  0.2 0.02 0  0.21 0.02 0  0.22 0.02 0  0.23 0.02 0  0.24 0.02 0  0.25 0.02 0  0.26 0.02 0  0.27 0.02 0  0.28 0.02 0  0.29 0.02 0  0.3 0.02 0  0.31 0.02 0  0.32 0.02 0  0.33 0.02 0  0.34 0.02 0  0.35 0.02 0  0.36 0.02 0  0.37 0.02 0  0.38 0.02 0  0.39 0.02 0  0.4 0.02 0  0.41 0.02 0  0.42 0.02 0  0.43 0.02 0  0.44 0.02 0  0.45 0.02 0  0.46 0.02 0  0.47 0.02 0  0.48 0.02 0  0.49 0.02 0  0.5 0.02 0  0.51 0.02 0  0.52 0.02 0  0.53 0.02 0  0.54 0.02 0  0.55 0.02 0  0.5600000000000001 0.02 0  0.57 0.02 0  0.58 0.02 0  0.59 0.02 0  0.6 0.02 0  0.61 0.02 0  0.62 0.02 0  0.63 0.02 0  0.64 0.02 0  0.65 0.02 0  0.66 0.02 0  0.67 0.02 0  0.68 0.02 0  0.6899999999999999 0.02 0  0.7 0.02 0  0.71 0.02 0  0.72 0.02 0  0.73 0.02 0  0.74 0.02 0  0.75 0.02 0  0.76 0.02 0  0.77 0.02 0  0.78 0.02 0  0.79 0.02 0  0.8 0.02 0  0.8100000000000001 0.02 0  0.82 0.02 0  0.83 0.02 0  0.84 0.02 0  0.85 0.02 0  0.86 0.02 0  0.87 0.02 0  0.88 0.02 0  0.89 0.02 0  0.9 0.02 0  0.91 0.02 0  0.92 0.02 0  0.93 0.02 0  0.9399999999999999 0.02 0  0.95 0.02 0  0.96 0.02 0  0.97 0.02 0  0.98 0.02 0  0.99 0.02 0  1 0.02 0  0 0.03 0  0.01 0.03 0  0.02 0.03 0  0.03 0.03 0  0.04 0.03 0  0.05 0.03 0  0.06 0.03 0  0.07000000000000001 0.03 0  0.08 0.03 0  0.09 0.03 0  0.1 0.03 0  0.11 0.03 0  0.12 0.03 0  0.13 0.03 0  0.14 0.03 0  0.15 0.03 0  0.16 0.03 0  0.17 0.03 0  0.18 0.03 0  0.19 0.03 0  0.2 0.03 0  0.21 0.03 0  0.22 0.03 0  0.23 0.03 0  0.24 0.03 0  0.25 0.03 0  0.26 0.03 0  0.27 0.03 0  0.28 0.03 0  0.29 0.03 0  0.3 0.03 0  0.31 0.03 0  0.32 0.03 0  0.33 0.03 0  0.34 0.03 0  0.35 0.03 0  0.36 0.03 0  0.37 0.03 0  0.38 0.03 0  0.39 0.03 0  0.4 0.03 0  0.41 0.03 0  0.42 0.03 0  0.43 0.03 0  0.44 0.03 0  0.45 0.03 0  0.46 0.03 0  0.47 0.03 0  0.48 0.03 0  0.49 0.03 0  0.5 0.03 0  0.51 0.03 0  0.52 0.03 0  0.53 0.03 0  0.54 0.03 0  0.55 0.03 0  0.5600000000000001 0.03 0  0.57 0.03 0  0.58 0.03 0  0.59 0.03 0  0.6 0.03 0  0.61 0.03 0  0.62 0.03 0  0.63 0.03 0  0.64 0.03 0  0.65 0.03 0  0.66 0.03 0  0.67 0.03 0  0.68 0.03 0  0.6899999999999999 0.03 0  0.7 0.03 0  0.71 0.03 0  0.72 0.03 0  0.73 0.03 0  0.74 0.03 0  0.75 0.03 0  0.76 0.03 0  0.77 0.03 0  0.78 0.03 0  0.79 0.03 0  0.8 0.03 0  0.8100000000000001 0.03 0  0.82 0.03 0  0.83 0.03 0  0.84 0.03 0  0.85 0.03 0  0.86 0.03 0  0.87 0.03 0  0.88 0.03 0  0.89 0.03 0  0.9 0.03 0  0.91 0.03 0  0.92 0.03 0  0.93 0.03 0  0.9399999999999999 0.03 0  0.95 0.03 0  0.96 0.03 0  0.97 0.03 0  0.98 0.03 0  0.99 0.03 0  1 0.03 0  0 0.04 0  0.01 0.04 0  0.02 0.04 0  0.03 0.04 0  0.04 0.04 0  0.05 0.04 0  0.06 0.04 0  0.07000000000000001 0.04 0  0.08 0.04 0  0.09 0.04 0  0.1 0.04 0  0.11 0.04 0  0.12 0.04 0  0.13 0.04 0  0.14 0.04 0  0.15 0.04 0  0.16 0.04 0  0.17 0.04 0  0.18 0.04 0  0.19 0.04 0  0.2 0.04 0  0.21 0.04 0  0.22 0.04 0  0.23 0.04 0  0.24 0.04 0  0.25 0.04 0  0.26 0.04 0  0.27 0.04 0  0.28 0.04 0  0.29 0.04 0  0.3 0.04 0  0.31 0.04 0  0.32 0.04 0  0.33 0.04 0  0.34 0.04 0  0.35 0.04 0  0.36 0.04 0  0.37 0.04 0  0.38 0.04 0  0.39 0.04 0  0.4 0.04 0  0.41 0.04 0  0.42 0.04 0  0.43 0.04 0  0.44 0.04 0  0.45 0.04 0  0.46 0.04 0  0.47 0.04 0  0.48 0.04 0  0.49 0.04 0  0.5 0.04 0  0.51 0.04 0  0.52 0.04 0  0.53 0.04 0  0.54 0.04 0  0.55 0.04 0  0.5600000000000001 0.04 0  0.57 0.04 0  0.58 0.04 0  0.59 0.04 0  0.6 0.04 0  0.61 0.04 0  0.62 0.04 0  0.63 0.04 0  0.64 0.04 0  0.65 0.04 0  0.66 0.04 0  0.67 0.04 0  0.68 0.04 0  0.6899999999999999 0.04 0  0.7 0.04 0  0.71 0.04 0  0.72 0.04 0  0.73 0.04 0  0.74 0.04 0  0.75 0.04 0  0.76 0.04 0  0.77 0.04 0  0.78 0.04 0  0.79 0.04 0  0.8 0.04 0  0.8100000000000001 0.04 0  0.82 0.04 0  0.83 0.04 0  0.84 0.04 0  0.85 0.04 0  0.86 0.04 0  0.87 0.04 0  0.88 0.04 0  0.89 0.04 0  0.9 0.04 0  0.91 0.04 0  0.92 0.04 0  0.93 0.04 0  0.9399999999999999 0.04 0  0.95 0.04 0  0.96 0.04 0  0.97 0.04 0  0.98 0.04 0  0.99 0.04 0  1 0.04 0  0 0.05 0  0.01 0.05 0  0.02 0.05 0  0.03 0.05 0  0.04 0.05 0  0.05 0.05 0  0.06 0.05 0  0.07000000000000001 0.05 0  0.08 0.05 0  0.09 0.05 0  0.1 0.05 0  0.11 0.05 0  0.12 0.05 0  0.13 0.05 0  0.14 0.05 0  0.15 0.05 0  0.16 0.05 0  0.17 0.05 0  0.18 0.05 0  0.19 0.05 0  0.2 0.05 0  0.21 0.05 0  0.22 0.05 0  0.23 0.05 0  0.24 0.05 0  0.25 0.05 0  0.26 0.05 0  0.27 0.05 0  0.28 0.05 0  0.29 0.05 0  0.3 0.05 0  0.31 0.05 0  0.32 0.05 0  0.33 0.05 0  0.34 0.05 0  0.35 0.05 0  0.36 0.05 0  0.37 0.05 0  0.38 0.05 0  0.39 0.05 0  0.4 0.05 0  0.41 0.05 0  0.42 0.05 0  0.43 0.05 0  0.44 0.05 0  0.45 0.05 0  0.46 0.05 0  0.47 0.05 0  0.48 0.05 0  0.49 0.05 0  0.5 0.05 0  0.51 0.05 0  0.52 0.05 0  0.53 0.05 0  0.54 0.05 0  0.55 0.05 0  0.5600000000000001 0.05 0  0.57 0.05 0  0.58 0.05 0  0.59 0.05 0  0.6 0.05 0  0.61 0.05 0  0.62 0.05 0  0.63 0.05 0  0.64 0.05 0  0.65 0.05 0  0.66 0.05 0  0.67 0.05 0  0.68 0.05 0  0.6899999999999999 0.05 0  0.7 0.05 0  0.71 0.05 0  0.72 0.05 0  0.73 0.05 0  0.74 0.05 0  0.75 0.05 0  0.76 0.05 0  0.77 0.05 0  0.78 0.05 0  0.79 0.05 0  0.8 0.05 0  0.8100000000000001 0.05 0  0.82 0.05 0  0.83 0.05 0  0.84 0.05 0  0.85 0.05 0  0.86 0.05 0  0.87 0.05 0  0.88 0.05 0  0.89 0.05 0  0.9 0.05 0  0.91 0.05 0  0.92 0.05 0  0.93 0.05 0  0.9399999999999999 0.05 0  0.95 0.05 0  0.96 0.05 0  0.97 0.05 0  0.98 0.05 0  0.99 0.05 0  1 0.05 0  0 0.06 0  0.01 0.06 0  0.02 0.06 0  0.03 0.06 0  0.04 0.06 0  0.05 0.06 0  0.06 0.06 0  0.07000000000000001 0.06 0  0.08 0.06 0  0.09 0.06 0  0.1 0.06 0  0.11 0.06 0  0.12 0.06 0  0.13 0.06 0  0.14 0.06 0  0.15 0.06 0  0.16 0.06 0  0.17 0.06 0  0.18 0.06 0  0.19 0.06 0  0.2 0.06 0  0.21 0.06 0  0.22 0.06 0  0.23 0.06 0  0.24 0.06 0  0.25 0.06 0  0.26 0.06 0  0.27 0.06 0  0.28 0.06 0  0.29 0.06 0  0.3 0.06 0  0.31 0.06 0  0.32 0.06 0  0.33 0.06 0  0.34 0.06 0  0.35 0.06 0  0.36 0.06 0  0.37 0.06 0  0.38 0.06 0  0.39 0.06 0  0.4 0.06 0  0.41 0.06 0  0.42 0.06 0  0.43 0.06 0  0.44 0.06 0  0.45 0.06 0  0.46 0.06 0  0.47 0.06 0  0.48 0.06 0  0.49 0.06 0  0.5 0.06 0  0.51 0.06 0  0.52 0.06 0  0.53 0.06 0  0.54 0.06 0  0.55 0.06 0  0.5600000000000001 0.06 0  0.57 0.06 0  0.58 0.06 0  0.59 0.06 0  0.6 0.06 0  0.61 0.06 0  0.62 0.06 0  0.63 0.06 0  0.64 0.06 0  0.65 0.06 0  0.66 0.06 0  0.67 0.06 0  0.68 0.06 0  0.6899999999999999 0.06 0  0.7 0.06 0  0.71 0.06 0  0.72 0.06 0  0.73 0.06 0  0.74 0.06 0  0.75 0.06 0  0.76 0.06 0  0.77 0.06 0  0.78 0.06 0  0.79 0.06 0  0.8 0.06 0  0.8100000000000001 0.06 0  0.82 0.06 0  0.83 0.06 0  0.84 0.06 0  0.85 0.06 0  0.86 0.06 0  0.87 0.06 0  0.88 0.06 0  0.89 0.06 0  0.9 0.06 0  0.91 0.06 0  0.92 0.06 0  0.93 0.06 0  0.9399999999999999 0.06 0  0.95 0.06 0  0.96 0.06 0  0.97 0.06 0  0.98 0.06 0  0.99 0.06 0  1 0.06 0  0 0.07000000000000001 0  0.01 0.07000000000000001 0  0.02 0.07000000000000001 0  0.03 0.07000000000000001 0  0.04 0.07000000000000001 0  0.05 0.07000000000000001 0  0.06 0.07000000000000001 0  0.07000000000000001 0.07000000000000001 0  0.08 0.07000000000000001 0  0.09 0.07000000000000001 0  0.1 0.07000000000000001 0  0.11 0.07000000000000001 0  0.12 0.07000000000000001 0  0.13 0.07000000000000001 0  0.14 0.07000000000000001 0  0.15 0.07000000000000001 0  0.16 0.07000000000000001 0  0.17 0.07000
[...]
<PointData  Scalars="rho"> 
<DataArray  type="Float64"  Name="rho"  format="ascii">9.9101859595076214e-01  9.8724971468033862e-01  9.8590212815103195e-01  9.8410038941004718e-01  9.8259872259048864e-01  9.8209755461769599e-01  9.8191354267529840e-01  9.8505913393673816e-01  9.9061510617680715e-01  9.9594402167528728e-01  1.0000000000000000e+00  1.0000000000000000e+00  1.0000000000000000e+00  1.0000000000000000e+00  1.0000000000000000e+00  1.0000000000000000e+00  1.0000000000000000e+00  1.0000000000000000e+00  1.0000000000000000e+00  1.0000000000000000e+00  1.0000000000000000e+00  1.0000000000000000e+00  1.0000000000000000e+00  1.0000000000000000e+00  1.0000000000000000e+00  1.0000000000000000e+00  1.0000000000000000e+00  1.0000000000000000e+00  1.0000000000000000e+00  1.0000000000000000e+00  1.0000000000000000e+00  1.0000000000000000e+00  9.9999385400075802e-01  9.9819936752319505e-01  9.9591645695649411e-01  9.8996781018800561e-01  9.5493128084190948e-01  5.3859693345369264e-01  3.3494954479297900e-02  0.0000000000000000e+00  0.0000000000000000e+00  0.0000000000000000e+00  0.0000000000000000e+00  0.0000000000000000e+00  0.0000000000000000e+00  0.0000000000000000e+00  0.0000000000000000e+00  0.0000000000000000e+00  0.0000000000000000e+00  0.0000000000000000e+00  0.0000000000000000e+00  0.0000000000000000e+00  1.2931250603909705e-06  4.6406012688573117e-06  6.8472362430771602e-06  8.1730231107698027e-06  8.8350595384871463e-06  9.0106155601270391e-06  8.8413066848617040e-06  8.4380403531354953e-06  7.8859843200505842e-06  7.2494024745779406e-06  6.5758431727538942e-06  5.8996561344704929e-06  5.2448334180916804e-06  4.6272686782702084e-06  4.0566126723979586e-06  3.5377745482154643e-06  3.0721802403130010e-06  2.6588037980371393e-06  2.2949795574519064e-06  1.9770418255918637e-06  1.7008009873244140e-06  1.4618945384370298e-06  1.2560215575406078e-06  1.0790963402789367e-06  9.2734190639967734e-07  7.9734018655653300e-07  6.8604555672078687e-07  5.9077945807035333e-07  5.0920919612845470e-07  4.3932467087517026e-07  3.7940321540355856e-07  3.2797885501582504e-07  2.8380740116354284e-07  2.4583964843749059e-07  2.1319085636282516e-07  1.8511797346317142e-07  1.6099563303003623e-07  1.4030004486427378e-07  1.2259128887977691e-07  1.0750201497777971e-07  9.4723910709962078e-08  8.4001708800221380e-08  7.5123854091817132e-08  6.7919664893419066e-08  6.2252304656149889e-08  5.8018226293248600e-08  5.5144606955244843e-08  5.3599940036680839e-08  1.7729546428811232e-08  9.8808355868367226e-01  9.7996000249174908e-01  9.8064989707970707e-01  9.7547576239961020e-01  9.7316339371652194e-01  9.7217020117486896e-01  9.7164365546404763e-01  9.7624452370031534e-01  9.8344359829410899e-01  9.9049489854469308e-01  9.9951003255896564e-01  1.0000000000000000e+00  1.0000000000000000e+00  1.0000000000000000e+00  1.0000000000000000e+00  1.0000000000000000e+00  1.0000000000000000e+00  1.0000000000000000e+00  1.0000000000000000e+00  1.0000000000000000e+00  1.0000000000000000e+00  1.0000000000000000e+00  1.0000000000000000e+00  1.0000000000000000e+00  1.0000000000000000e+00  1.0000000000000000e+00  1.0000000000000000e+00  1.0000000000000000e+00  1.0000000000000000e+00  1.0000000000000000e+00  1.0000000000000000e+00  1.0000000000000000e+00  1.0000000000000000e+00  9.9950958248816724e-01  9.9784080734476233e-01  9.9122320526875107e-01  9.7267148598192088e-01  6.5581736336253593e-01  2.2468688230794651e-01  0.0000000000000000e+00  0.0000000000000000e+00  0.0000000000000000e+00  0.0000000000000000e+00  0.0000000000000000e+00  0.0000000000000000e+00  0.0000000000000000e+00  0.0000000000000000e+00  0.0000000000000000e+00  0.0000000000000000e+00  0.0000000000000000e+00  0.0000000000000000e+00  0.0000000000000000e+00  2.6709289236752836e-06  9.5659949197985711e-06  1.4130987139073357e-05  1.6889459468211190e-05  1.8281506244626396e-05  1.8668066761199530e-05  1.8338890243056769e-05  1.7521591710891809e-05  1.6391635873553522e-05  1.5081875820896077e-05  1.3691147730811594e-05  1.2291308662970542e-05  1.0932906664106585e-05  9.6497485494541773e-06  8.4625748797854529e-06  7.3821690405281383e-06  6.4119295538048654e-06  5.5500238604647779e-06  4.7911197320834232e-06  4.1277230844923470e-06  3.5512008517647363e-06  3.0525152535700021e-06  2.6227349178674314e-06  2.2533607703780135e-06  1.9365250290363717e-06  1.6650984705141214e-06  1.4327270967713134e-06  1.2338182114519760e-06  1.0635031704975183e-06  9.1757963106990841e-07  7.9245178769801619e-07  6.8505507190717312e-07  5.9279329429258539e-07  5.1347196750998434e-07  4.4524547791381662e-07  3.8656008927401319e-07  3.3611166644535057e-07  2.9280376671205648e-07  2.5571901314503262e-07  2.2408733157105055e-07  1.9726574579234457e-07  1.7471640014221459e-07  1.5599738760789097e-07  1.4074607349848718e-07  1.2867336584222694e-07  1.1955277283676109e-07  1.1321822439027585e-07  1.0955254874901373e-07  5.3886467232679339e-08  9.8870158378304240e-01  9.8007956185645106e-01  9.7971250457285097e-01  9.7344769870055770e-01  9.6644536574724671e-01  9.6345920049301714e-01  9.6220082139224239e-01  9.6585368747802280e-01  9.7462007845438869e-01  9.8685094635433390e-01  9.9935414950677004e-01  1.0000000000000000e+00  1.0000000000000000e+00  1.0000000000000000e+00  1.0000000000000000e+00  1.0000000000000000e+00  1.0000000000000000e+00  1.0000000000000000e+00  1.0000000000000000e+00  1.0000000000000000e+00  1.0000000000000000e+00  1.0000000000000000e+00  1.0000000000000000e+00  1.0000000000000000e+00  1.0000000000000000e+00  1.0000000000000000e+00  1.0000000000000000e+00  1.0000000000000000e+00  1.0000000000000000e+00  1.0000000000000000e+00  1.0000000000000000e+00  1.0000000000000000e+00  1.0000000000000000e+00  1.0000000000000000e+00  9.9795069519986845e-01  9.9529122672178461e-01  9.8501530043729746e-01  9.6112991486839683e-01  5.0159952745784697e-01  2.1718850291864891e-02  0.0000000000000000e+00  0.0000000000000000e+00  0.0000000000000000e+00  0.0000000000000000e+00  0.0000000000000000e+00  0.0000000000000000e+00  0.0000000000000000e+00  0.0000000000000000e+00  0.0000000000000000e+00  0.0000000000000000e+00  0.0000000000000000e+00  0.0000000000000000e+00  7.3660321935841864e-06  1.3927313574043266e-05  1.8093330721366994e-05  2.0429648862878751e-05  2.1403700229213146e-05  2.1393560711505391e-05  2.0698571360742478e-05  1.9550522611326167e-05  1.8125367016627766e-05  1.6554706399866229e-05  1.4935436079720384e-05  1.3337307962682978e-05  1.1808629838878575e-05  1.0380744296978378e-05  9.0717458961601226e-06  7.8896168077581643e-06  6.8349813774445639e-06  5.9033654019970165e-06  5.0870273535624563e-06  4.3763576868300840e-06  3.7609066432050721e-06  3.2301097617587962e-06  2.7737673461349729e-06  2.3823376393577116e-06  2.0471061637011128e-06  1.7602564670712802e-06  1.5148805453506870e-06  1.3049411661599182e-06  1.1252149939815330e-06  9.7121851598460894e-07  8.3912864737984789e-07  7.2570362306398149e-07  6.2820339392777340e-07  5.4432152134592302e-07  4.7211820465692521e-07  4.0996614818104304e-07  3.5649850801188290e-07  3.1056896249432806e-07  2.7121516087060665e-07  2.3763125102933781e-07  2.0914179937934637e-07  1.8518360598909935e-07  1.6528933828574487e-07  1.4907787400328826e-07  1.3624126053448459e-07  1.2653791587815535e-07  1.1978297688130708e-07  1.1584374024059230e-07  5.6592932229443167e-08  9.8555934686995939e-01  9.7984396443946120e-01  9.7776203476485846e-01  9.6891297333454307e-01  9.5846164676372003e-01  9.3687865457912389e-01  9.0012749795731517e-01  9.0817349128797509e-01  9.2299571845085637e-01  9.2456854637947461e-01  9.4975767635653008e-01  1.0000000000000000e+00  1.0000000000000000e+00  1.0000000000000000e+00  1.0000000000000000e+00  1.0000000000000000e+00  1.0000000000000000e+00  1.0000000000000000e+00  1.0000000000000000e+00  1.0000000000000000e+00  1.0000000000000000e+00  1.0000000000000000e+00  1.0000000000000000e+00  1.0000000000000000e+00  1.0000000000000000e+00  1.0000000000000000e+00  1.0000000000000000e+00  1.0000000000000000e+00  1.0000000000000000e+00  1.0000000000000000e+00  1.0000000000000000e+00  1.0000000000000000e+00  9.9734753781776175e-01  9.9330051036047362e-01  9.5578759273828806e-01  9.4030459400524702e-01  9.2476221211005838e-01  9.8787238747804929e-01  7.5478918765010883e-01  5.2184329101504145e-01  1.8516633230947144e-01  0.0000000000000000e+00  0.0000000000000000e+00  0.0000000000000000e+00  0.0000000000000000e+00  0.0000000000000000e+00  0.0000000000000000e+00  0.0000000000000000e+00  0.0000000000000000e+00  0.0000000000000000e+00  0.0000000000000000e+00  6.3616841371277435e-06  1.5575217907049541e-05  2.1516454511352334e-05  2.4962443042486323e-05  2.6550433974181089e-05  2.6791248866892139e-05  2.6089924339596103e-05  2.4761056898107444e-05  2.3041995319040740e-05  2.1108121421069913e-05  1.9087858308466064e-05  1.7074552262492461e-05  1.5134461434475163e-05  1.3312255021472653e-05  1.1635175315003176e-05  1.0116711479010856e-05  8.7599737237690420e-06  7.5606731973572179e-06  6.5096940012491897e-06  5.5950827451424578e-06  4.8035478168104323e-06  4.1215018050873138e-06  3.5357534088012873e-06  3.0339287052418958e-06  2.6047079508540168e-06  2.2379272997266270e-06  1.9246004401501451e-06  1.6568734492243438e-06  1.4279542901774355e-06  1.2320143458858002e-06  1.0640906289757250e-06  9.1997767356907272e-07  7.9612891754640916e-07  6.8956353400788810e-07  5.9778026677692309e-07  5.1868384969343651e-07  4.5051790307571252e-07  3.9181109951704180e-07  3.4132865813047574e-07  2.9803419938296759e-07  2.6105755899902832e-07  2.2966925545206568e-07  2.0325901086112847e-07  1.8131996369527419e-07  1.6343556677050675e-07  1.4926902441028859e-07  1.3855423895087403e-07  1.3108845603136778e-07  1.2672530908890733e-07  6.1570911837619550e-08  9.4544456627694884e-01  9.7138918500751004e-01  9.1969013857623871e-01  9.1150338680180776e-01  7.2036022699050972e-01  5.6590129060261762e-01  4.2637725032153834e-01  2.6015256283632188e-01  9.1339267789206327e-02  1.5190547059186306e-02  1.1216109330743666e-05  1.5853346146419967e-03  2.9817992115702189e-02  5.4952408267012864e-02  1.5740080697723083e-01  4.1167498672493802e-01  5.5845466324471360e-01  6.4492158160014090e-01  7.1393300811348226e-01  7.1871789712977674e-01  7.7263272446014541e-01  8.7252910486618207e-01  9.7314289493599004e-01  1.0000000000000000e+00  8.4375226370585876e-01  9.5193238214726672e-01  1.0000000000000000e+00  9.3190910980940922e-01  8.9777508821176288e-01  8.5924595713133400e-01  8.6519813094749332e-01  7.8151090321102534e-01  7.7147127765977863e-01  8.6439331990703205e-01  7.8823846074170467e-01  9.0424136024514978e-01  9.8075681729320008e-01  9.3244370542429789e-01  9.9258206463812293e-01  9.8303096674169532e-01  6.9786040227057355e-01  4.3397974546144041e-01  1.2334744432496229e-01  0.0000000000000000e+00  0.0000000000000000e+00  0.0000000000000000e+00  0.0000000000000000e+00  0.0000000000000000e+00  0.0000000000000000e+00  0.0000000000000000e+00  6.2653032078068779e-06  1.9462530501670372e-05  2.7910804701189528e-05  3.2805290622210374e-05  3.5108389082624954e-05  3.5546586186451113e-05  3.4679842744447880e-05  3.2946474526377399e-05  3.0680608743902973e-05  2.8123560661066041e-05  2.5445448342259068e-05  2.2767648225959517e-05  2.0177766201204293e-05  1.7737487141593824e-05  1.5486666382096592e-05  1.3446752109622055e-05  1.1624353363613302e-05  1.0015091210807524e-05  8.6071887203521549e-06  7.3844643187786297e-06  6.3286574017639331e-06  5.4210225326644697e-06  4.6433774232151144e-06  3.9787143718899617e-06  3.4115275196603171e-06  2.9279387980501065e-06  2.5157102566632851e-06  2.1641778988957298e-06  1.8641423018695476e-06  1.6077303210492419e-06  1.3882562242423894e-06  1.2000723766332373e-06  1.0384332110403973e-06  8.9936185523975271e-07  7.7953420863133327e-07  6.7617537104963274e-07  5.8696713708015691e-07  5.0997210733764303e-07  4.4356758725615290e-07  3.8639256363703483e-07  3.3730308141269593e-07  2.9533682558926311e-07  2.5968450984211995e-07  2.2966786429010296e-07  2.0472051579296531e-07  1.8437617991965469e-07  1.6825534896289812e-07  1.5605857938238264e-07  1.4755737688494558e-07  1.4259230049452837e-07  6.8979230173968523e-08  2.4428765373475619e-01  1.1866970351558753e-01  9.0658721505518916e-02  1.0160537002440551e-04  0.0000000000000000e+00  0.0000000000000000e+00  0.0000000000000000e+00  0.0000000000000000e+00  0.0000000000000000e+00  0.0000000000000000e+00  0.0000000000000000e+00  2.4217704379886286e-04  2.7429992522996580e-03  2.1198605756320873e-02  3.4765372245580163e-02  2.7066766389437245e-02  2.9017946726149782e-02  2.3222377402134935e-02  1.4239217312248260e-02  9.1737333289798190e-03  8.2927883916087131e-03  8.0994784643007214e-03  1.2907025432994152e-02  1.8602839717686167e-02  2.1225005843063100e-02  2.2356115831632016e-02  2.6688296401410808e-02  2.6054924409224384e-02  2.8051385783582263e-02  1.5058363856225043e-01  4.0445839428900857e-02  7.5863151585421312e-02  9.4010517939958044e-02  9.7385199610839066e-02  4.6671067669838512e-01  7.5701085939894375e-01  7.4307265900671804e-01  8.9539328416410802e-01  9.9988552687081600e-01  9.9639630451003092e-01  9.9119884584284168e-01  9.8325676996357458e-01  6.2627140327895370e-01  4.8302448579075224e-01  0.0000000000000000e+00  0.0000000000000000e+00  0.0000000000000000e+00  0.0000000000000000e+00  0.0000000000000000e+00  5.4997342938418481e-06  2.5705728621577165e-05  3.8237887949312873e-05  4.5216408327819198e-05  4.8414394599027886e-05  4.9020135005294048e-05  4.7813742382522031e-05  4.5387344831308389e-05  4.2218442079864857e-05  3.8667584329330826e-05  3.4972629885670352e-05  3.1286576710029672e-05  2.7716662258729027e-05  2.4343048676674054e-05  2.1223052400026866e-05  1.8391484977905566e-05  1.5862197907683227e-05  1.3632017929002835e-05  1.1685617686198352e-05  1.0000305928081005e-05  8.5498397158825440e-06  7.3071110422471870e-06  6.2458893804069127e-06  5.3417681931409797e-06  4.5726366007414696e-06  3.9188237986958399e-06  3.3630718571790796e-06  2.8904054548006041e-06  2.4879540655281058e-06  2.1447462573543837e-06  1.8514977044784185e-06  1.6003972302542908e-06  1.3849096242884933e-06  1.1995838866801051e-06  1.0398867064316739e-06  9.0205000346055925e-07  7.8294174211949471e-07  6.7995534865803022e-07  5.9091523852554809e-07  5.1400075902720106e-07  4.4768300991063078e-07  3.9067458158973132e-07  3.4188908531621361e-07  3.0041014212576265e-07  2.6546557160700820e-07  2.3640975893519924e-07  2.1270618499329717e-07  1.9391991075875596e-07  1.7970358007436718e-07  1.6979657181163708e-07  1.6401601980926088e-07  7.9079200118631941e-08  1.3887003111128253e-04  1.9322340077094170e-04  1.2659981929026145e-04  2.0957139622739293e-05  0.0000000000000000e+00  0.0000000000000000e+00  0.0000000000000000e+00  0.0000000000000000e+00  0.0000000000000000e+00  0.0000000000000000e+00  4.2504747675395387e-06  4.3770971422230934e-05  1.2542781459033904e-03  7.2525059867545707e-03  1.1581590836078638e-02  6.4505340153502167e-03  5.7982304693263934e-03  6.0417732513193658e-03  2.4124250542370863e-03  1.6285802032930277e-03  2.3070575600448281e-04  2.5258621971794085e-04  2.7435437528016451e-04  2.9251821547382999e-04  3.0460204019903812e-04  3.0986308422351636e-04  3.1015425089169131e-04  3.0944119166261566e-04  3.1163086327550780e-04  3.1880316314677440e-04  4.2968521287409175e-03  8.0515521122062304e-03  9.8373251540578403e-03  6.8951264525258663e-03  5.7592348668675502e-03  1.1916276126136438e-02  3.8985817697718855e-01  6.9237782020937022e-01  9.4507586797133014e-01  1.0000000000000000e+00  9.9829308497974145e-01  9.8839394328837527e-01  9.8634001241054747e-01  9.5366217970022182e-01  7.8966032010650589e-01  4.5843434832802332e-01  0.0000000000000000e+00  0.0000000000000000e+00  1.0838968394241634e-05  3.7956721320780396e-05  5.5522852156929501e-05  6.4698269720810841e-05  6.8528909507725215e-05  6.9029397868969480e-05  6.7264341532886118e-05  6.3830094404713692e-05  5.9297643920945053e-05  5.4209535079629241e-05  4.8978147737875628e-05  4.3814367854646975e-05  3.8825766869279818e-05  3.4094890410707090e-05  2.9696467295511214e-05  2.5688054856533099e-05  2.2100958363613076e-05  1.8939512978867042e-05  1.6186420338824159e-05  1.3810471206870011e-05  1.1773390132005700e-05  1.0034976642194462e-05  8.5562610246303897e-06  7.3011795973923288e-06  6.2373298091354537e-06  5.3361058432373214e-06  4.5725834516675588e-06  3.9252480057870347e-06  3.3756877882233426e-06  2.9082641976965260e-06  2.5097899817622819e-06  2.1692160297083418e-06  1.8773370747253567e-06  1.6265147415799152e-06  1.4104320222241133e-06  1.2238680635683406e-06  1.0625099715679439e-06  9.2278674478622410e-07  8.0173350413265507e-07  6.9687903589178342e-07  6.0615325608583913e-07  5.2781475944900985e-07  4.6039220470618858e-07  4.0263937943929996e-07  3.5349931927743209e-07  3.1207854510378413e-07  2.7762422213735209e-07  2.4951113742169584e-07  2.2722624388513541e-07  2.1036379913742919e-07  1.9861413070142534e-07  1.9176622088966639e-07  9.2231171708479042e-08  8.8849077883345026e-05  1.2286525226530172e-04  7.1860820022221370e-05  2.6369795998010015e-06  0.0000000000000000e+00  0.0000000000000000e+00  0.0000000000000000e+00  0.0000000000000000e+00  0.0000000000000000e+00  0.0000000000000000e+00  1.1133713655236020e-05  3.7954298219303875e-05  7.5408721976504434e-04  4.7601413381831497e-03  6.6737816454550750e-03  3.3644071883463600e-03  2.9773496271510479e-03  2.4594344583709154e-03  1.2894654948880627e-03  1.7241459432487951e-04  1.8617864136135401e-04  2.0164884738393355e-04  2.1701583199648799e-04  2.3039597281331769e-04  2.4044426556701787e-04  2.4682300590742767e-04  2.5050392783862826e-04  2.5346448095997639e-04  2.5772746701827764e-04  2.6442515865547438e-04  2.7330691673915883e-04  1.8101107081691797e-03  1.2241357360054412e-03  1.8610315492437685e-03  1.9808166041755996e-03  2.1430695196302725e-03  2.9575215515181556e-03  7.2995667005014671e-03  4.8089393683366516e-01  8.1329124044229661e-01  1.0000000000000000e+00  9.9761676326563842e-01  9.8709647172913773e-01  9.7687674580882611e-01  9.3316326582104214e-01  8.7302067644611370e-01  7.8217957289371098e-01  5.5646194107788716e-01  4.0598330611332140e-01  2.6753895247224241e-01  1.4333823778548836e-02  1.1108867413572262e-04  1.0462177340999618e-04  9.7114078597651125e-05  9.0687081445850682e-05  8.4171496051511653e-05  7.6840719585929122e-05  6.9236001070200568e-05  6.1896977357983978e-05  5.4923091935355198e-05  4.8308474033850590e-05  4.2102331107735967e-05  3.6390531999293586e-05  3.1245556952835234e-05  2.6699933903296550e-05  2.2744910590669200e-05  1.9341963334121275e-05  1.6436260842547099e-05  1.3967509834060979e-05  1.1876602812008485e-05  1.0109132260879526e-05  8.6166851469858398e-06  7.3569679042761239e-06  6.2934633181437077e-06  5.3948481246454849e-06  4.6344392631125163e-06  3.9896413026595541e-06  3.4414536293785422e-06  2.9740014023095139e-06  2.5741055619011692e-06  2.2308829849150821e-06  1.9353816145764061e-06  1.6802504456795370e-06  1.4594574292923062e-06  1.2680412023090384e-06  1.1019101115471193e-06  9.5767102149192558e-07  8.3249440330684520e-07  7.2400613632714784e-07  6.3020125711867506e-07  5.4937875808284682e-07  4.8008925055054901e-07  4.2109762246633323e-07  3.7135213781962854e-07  3.2996435318177236e-07  2.9618958633387772e-07  2.6941799894764810e-07  2.4916129119778173e-07  2.3505184282654461e-07  2.2683397186728964e-07  1.0890355195061181e-07  5.3998637760075497e-05  7.5793306300449967e-05  2.7998086740685783e-05  0.0000000000000000e+00  0.0000000000000000e+00  0.0000000000000000e+00  0.0000000000000000e+00  0.0000000000000000e+00  0.0000000000000000e+00  0.0000000000000000e+00  1.4186468706051199e-05  3.2684167593649856e-05  4.2498797231897158e-04  1.4699126810229970e-03  4.5673091715958741e-03  1.8320517844367440e-03  1.8091136336398908e-03  1.3956618276672933e-03  1.2955845092614058e-03  1.3979630438747332e-04  1.5078400454286546e-04  1.6258956609074477e-0