<?xml version="1.0"?>
<VTKFile type="UnstructuredGrid"  version="0.1"  >
<UnstructuredGrid>
<Piece  NumberOfPoints="5151" NumberOfCells="10000">
<Points>
<DataArray  type="Float64"  NumberOfComponents="3"  format="ascii">0 0 0  0.01 0 0  0.02 0 0  0.03 0 0  0.04 0 0  0.05 0 0  0.06 0 0  0.07000000000000001 0 0  0.08 0 0  0.09 0 0  0.1 0 0  0.11 0 0  0.12 0 0  0.13 0 0  0.14 0 0  0.15 0 0  0.16 0 0  0.17 0 0  0.18 0 0  0.19 0 0  0.2 0 0  0.21 0 0  0.22 0 0  0.23 0 0  0.24 0 0  0.25 0 0  0.26 0 0  0.27 0 0  0.28 0 0  0.29 0 0  0.3 0 0  0.31 0 0  0.32 0 0  0.33 0 0  0.34 0 0  0.35 0 0  0.36 0 0  0.37 0 0  0.38 0 0  0.39 0 0  0.4 0 0  0.41 0 0  0.42 0 0  0.43 0 0  0.44 0 0  0.45 0 0  0.46 0 0  0.47 0 0  0.48 0 0  0.49 0 0  0.5 0 0  0.51 0 0  0.52 0 0  0.53 0 0  0.54 0 0  0.55 0 0  0.5600000000000001 0 0  0.57 0 0  0.58 0 0  0.59 0 0  0.6 0 0  0.61 0 0  0.62 0 0  0.63 0 0  0.64 0 0  0.65 0 0  0.66 0 0  0.67 0 0  0.68 0 0  0.6899999999999999 0 0  0.7 0 0  0.71 0 0  0.72 0 0  0.73 0 0  0.74 0 0  0.75 0 0  0.76 0 0  0.77 0 0  0.78 0 0  0.79 0 0  0.8 0 0  0.8100000000000001 0 0  0.82 0 0  0.83 0 0  0.84 0 0  0.85 0 0  0.86 0 0  0.87 0 0  0.88 0 0  0.89 0 0  0.9 0 0  0.91 0 0  0.92 0 0  0.93 0 0  0.9399999999999999 0 0  0.95 0 0  0.96 0 0  0.97 0 0  0.98 0 0  0.99 0 0  1 0 0  0 0.01 0  0.01 0.01 0  0.02 0.01 0  0.03 0.01 0  0.04 0.01 0  0.05 0.01 0  0.06 0.01 0  0.07000000000000001 0.01 0  0.08 0.01 0  0.09 0.01 0  0.1 0.01 0  0.11 0.01 0  0.12 0.01 0  0.13 0.01 0  0.14 0.01 0  0.15 0.01 0  0.16 0.01 0  0.17 0.01 0  0.18 0.01 0  0.19 0.01 0  0.2 0.01 0  0.21 0.01 0  0.22 0.01 0  0.23 0.01 0  0.24 0.01 0  0.25 0.01 0  0.26 0.01 0  0.27 0.01 0  0.28 0.01 0  0.29 0.01 0  0.3 0.01 0  0.31 0.01 0  0.32 0.01 0  0.33 0.01 0  0.34 0.01 0  0.35 0.01 0  0.36 0.01 0  0.37 0.01 0  0.38 0.01 0  0.39 0.01 0  0.4 0.01 0  0.41 0.01 0  0.42 0.01 0  0.43 0.01 0  0.44 0.01 0  0.45 0.01 0  0.46 0.01 0  0.47 0.01 0  0.48 0.01 0  0.49 0.01 0  0.5 0.01 0  0.51 0.01 0  0.52 0.01 0  0.53 0.01 0  0.54 0.01 0  0.55 0.01 0  0.5600000000000001 0.01 0  0.57 0.01 0  0.58 0.01 0  0.59 0.01 0  0.6 0.01 0  0.61 0.01 0  0.62 0.01 0  0.63 0.01 0  0.64 0.01 0  0.65 0.01 0  0.66 0.01 0  0.67 0.01 0  0.68 0.01 0  0.6899999999999999 0.01 0  0.7 0.01 0  0.71 0.01 0  0.72 0.01 0  0.73 0.01 0  0.74 0.01 0  0.75 0.01 0  0.76 0.01 0  0.77 0.01 0  0.78 0.01 0  0.79 0.01 0  0.8 0.01 0  0.8100000000000001 0.01 0  0.82 0.01 0  0.83 0.01 0  0.84 0.01 0  0.85 0.01 0  0.86 0.01 0  0.87 0.01 0  0.88 0.01 0  0.89 0.01 0  0.9 0.01 0  0.91 0.01 0  0.92 0.01 0  0.93 0.01 0  0.9399999999999999 0.01 0  0.95 0.01 0  0.96 0.01 0  0.97 0.01 0  0.98 0.01 0  0.99 0.01 0  1 0.01 0  0 0.02 0  0.01 0.02 0  0.02 0.02 0  0.03 0.02 0  0.04 0.02 0  0.05 0.02 0  0.06 0.02 0  0.07000000000000001 0.02 0  0.08 0.02 0  0.09 0.02 0  0.1 0.02 0  0.11 0.02 0  0.12 0.02 0  0.13 0.02 0  0.14 0.02 0  0.15 0.02 0  0.16 0.02 0  0.17 0.02 0  0.18 0.02 0  0.19 0.02 0  0.2 0.02 0  0.21 0.02 0  0.22 0.02 0  0.23 0.02 0  0.24 0.02 0  0.25 0.02 0  0.26 0.02 0  0.27 0.02 0  0.28 0.02 0  0.29 0.02 0  0.3 0.02 0  0.31 0.02 0  0.32 0.02 0  0.33 0.02 0  0.34 0.02 0  0.35 0.02 0  0.36 0.02 0  0.37 0.02 0  0.38 0.02 0  0.39 0.02 0  0.4 0.02 0  0.41 0.02 0  0.42 0.02 0  0.43 0.02 0  0.44 0.02 0  0.45 0.02 0  0.46 0.02 0  0.47 0.02 0  0.48 0.02 0  0.49 0.02 0  0.5 0.02 0  0.51 0.02 0  0.52 0.02 0  0.53 0.02 0  0.54 0.02 0  0.55 0.02 0  0.5600000000000001 0.02 0  0.57 0.02 0  0.58 0.02 0  0.59 0.02 0  0.6 0.02 0  0.61 0.02 0  0.62 0.02 0  0.63 0.02 0  0.64 0.02 0  0.65 0.02 0  0.66 0.02 0  0.67 0.02 0  0.68 0.02 0  0.6899999999999999 0.02 0  0.7 0.02 0  0.71 0.02 0  0.72 0.02 0  0.73 0.02 0  0.74 0.02 0  0.75 0.02 0  0.76 0.02 0  0.77 0.02 0  0.78 0.02 0  0.79 0.02 0  0.8 0.02 0  0.8100000000000001 0.02 0  0.82 0.02 0  0.83 0.02 0  0.84 0.02 0  0.85 0.02 0  0.86 0.02 0  0.87 0.02 0  0.88 0.02 0  0.89 0.02 0  0.9 0.02 0  0.91 0.02 0  0.92 0.02 0  0.93 0.02 0  0.9399999999999999 0.02 0  0.95 0.02 0  0.96 0.02 0  0.97 0.02 0  0.98 0.02 0  0.99 0.02 0  1 0.02 0  0 0.03 0  0.01 0.03 0  0.02 0.03 0  0.03 0.03 0  0.04 0.03 0  0.05 0.03 0  0.06 0.03 0  0.07000000000000001 0.03 0  0.08 0.03 0  0.09 0.03 0  0.1 0.03 0  0.11 0.03 0  0.12 0.03 0  0.13 0.03 0  0.14 0.03 0  0.15 0.03 0  0.16 0.03 0  0.17 0.03 0  0.18 0.03 0  0.19 0.03 0  0.2 0.03 0  0.21 0.03 0  0.22 0.03 0  0.23 0.03 0  0.24 0.03 0  0.25 0.03 0  0.26 0.03 0  0.27 0.03 0  0.28 0.03 0  0.29 0.03 0  0.3 0.03 0  0.31 0.03 0  0.32 0.03 0  0.33 0.03 0  0.34 0.03 0  0.35 0.03 0  0.36 0.03 0  0.37 0.03 0  0.38 0.03 0  0.39 0.03 0  0.4 0.03 0  0.41 0.03 0  0.42 0.03 0  0.43 0.03 0  0.44 0.03 0  0.45 0.03 0  0.46 0.03 0  0.47 0.03 0  0.48 0.03 0  0.49 0.03 0  0.5 0.03 0  0.51 0.03 0  0.52 0.03 0  0.53 0.03 0  0.54 0.03 0  0.55 0.03 0  0.5600000000000001 0.03 0  0.57 0.03 0  0.58 0.03 0  0.59 0.03 0  0.6 0.03 0  0.61 0.03 0  0.62 0.03 0  0.63 0.03 0  0.64 0.03 0  0.65 0.03 0  0.66 0.03 0  0.67 0.03 0  0.68 0.03 0  0.6899999999999999 0.03 0  0.7 0.03 0  0.71 0.03 0  0.72 0.03 0  0.73 0.03 0  0.74 0.03 0  0.75 0.03 0  0.76 0.03 0  0.77 0.03 0  0.78 0.03 0  0.79 0.03 0  0.8 0.03 0  0.8100000000000001 0.03 0  0.82 0.03 0  0.83 0.03 0  0.84 0.03 0  0.85 0.03 0  0.86 0.03 0  0.87 0.03 0  0.88 0.03 0  0.89 0.03 0  0.9 0.03 0  0.91 0.03 0  0.92 0.03 0  0.93 0.03 0  0.9399999999999999 0.03 0  0.95 0.03 0  0.96 0.03 0  0.97 0.03 0  0.98 0.03 0  0.99 0.03 0  1 0.03 0  0 0.04 0  0.01 0.04 0  0.02 0.04 0  0.03 0.04 0  0.04 0.04 0  0.05 0.04 0  0.06 0.04 0  0.07000000000000001 0.04 0  0.08 0.04 0  0.09 0.04 0  0.1 0.04 0  0.11 0.04 0  0.12 0.04 0  0.13 0.04 0  0.14 0.04 0  0.15 0.04 0  0.16 0.04 0  0.17 0.04 0  0.18 0.04 0  0.19 0.04 0  0.2 0.04 0  0.21 0.04 0  0.22 0.04 0  0.23 0.04 0  0.24 0.04 0  0.25 0.04 0  0.26 0.04 0  0.27 0.04 0  0.28 0.04 0  0.29 0.04 0  0.3 0.04 0  0.31 0.04 0  0.32 0.04 0  0.33 0.04 0  0.34 0.04 0  0.35 0.04 0  0.36 0.04 0  0.37 0.04 0  0.38 0.04 0  0.39 0.04 0  0.4 0.04 0  0.41 0.04 0  0.42 0.04 0  0.43 0.04 0  0.44 0.04 0  0.45 0.04 0  0.46 0.04 0  0.47 0.04 0  0.48 0.04 0  0.49 0.04 0  0.5 0.04 0  0.51 0.04 0  0.52 0.04 0  0.53 0.04 0  0.54 0.04 0  0.55 0.04 0  0.5600000000000001 0.04 0  0.57 0.04 0  0.58 0.04 0  0.59 0.04 0  0.6 0.04 0  0.61 0.04 0  0.62 0.04 0  0.63 0.04 0  0.64 0.04 0  0.65 0.04 0  0.66 0.04 0  0.67 0.04 0  0.68 0.04 0  0.6899999999999999 0.04 0  0.7 0.04 0  0.71 0.04 0  0.72 0.04 0  0.73 0.04 0  0.74 0.04 0  0.75 0.04 0  0.76 0.04 0  0.77 0.04 0  0.78 0.04 0  0.79 0.04 0  0.8 0.04 0  0.8100000000000001 0.04 0  0.82 0.04 0  0.83 0.04 0  0.84 0.04 0  0.85 0.04 0  0.86 0.04 0  0.87 0.04 0  0.88 0.04 0  0.89 0.04 0  0.9 0.04 0  0.91 0.04 0  0.92 0.04 0  0.93 0.04 0  0.9399999999999999 0.04 0  0.95 0.04 0  0.96 0.04 0  0.97 0.04 0  0.98 0.04 0  0.99 0.04 0  1 0.04 0  0 0.05 0  0.01 0.05 0  0.02 0.05 0  0.03 0.05 0  0.04 0.05 0  0.05 0.05 0  0.06 0.05 0  0.07000000000000001 0.05 0  0.08 0.05 0  0.09 0.05 0  0.1 0.05 0  0.11 0.05 0  0.12 0.05 0  0.13 0.05 0  0.14 0.05 0  0.15 0.05 0  0.16 0.05 0  0.17 0.05 0  0.18 0.05 0  0.19 0.05 0  0.2 0.05 0  0.21 0.05 0  0.22 0.05 0  0.23 0.05 0  0.24 0.05 0  0.25 0.05 0  0.26 0.05 0  0.27 0.05 0  0.28 0.05 0  0.29 0.05 0  0.3 0.05 0  0.31 0.05 0  0.32 0.05 0  0.33 0.05 0  0.34 0.05 0  0.35 0.05 0  0.36 0.05 0  0.37 0.05 0  0.38 0.05 0  0.39 0.05 0  0.4 0.05 0  0.41 0.05 0  0.42 0.05 0  0.43 0.05 0  0.44 0.05 0  0.45 0.05 0  0.46 0.05 0  0.47 0.05 0  0.48 0.05 0  0.49 0.05 0  0.5 0.05 0  0.51 0.05 0  0.52 0.05 0  0.53 0.05 0  0.54 0.05 0  0.55 0.05 0  0.5600000000000001 0.05 0  0.57 0.05 0  0.58 0.05 0  0.59 0.05 0  0.6 0.05 0  0.61 0.05 0  0.62 0.05 0  0.63 0.05 0  0.64 0.05 0  0.65 0.05 0  0.66 0.05 0  0.67 0.05 0  0.68 0.05 0  0.6899999999999999 0.05 0  0.7 0.05 0  0.71 0.05 0  0.72 0.05 0  0.73 0.05 0  0.74 0.05 0  0.75 0.05 0  0.76 0.05 0  0.77 0.05 0  0.78 0.05 0  0.79 0.05 0  0.8 0.05 0  0.8100000000000001 0.05 0  0.82 0.05 0  0.83 0.05 0  0.84 0.05 0  0.85 0.05 0  0.86 0.05 0  0.87 0.05 0  0.88 0.05 0  0.89 0.05 0  0.9 0.05 0  0.91 0.05 0  0.92 0.05 0  0.93 0.05 0  0.9399999999999999 0.05 0  0.95 0.05 0  0.96 0.05 0  0.97 0.05 0  0.98 0.05 0  0.99 0.05 0  1 0.05 0  0 0.06 0  0.01 0.06 0  0.02 0.06 0  0.03 0.06 0  0.04 0.06 0  0.05 0.06 0  0.06 0.06 0  0.07000000000000001 0.06 0  0.08 0.06 0  0.09 0.06 0  0.1 0.06 0  0.11 0.06 0  0.12 0.06 0  0.13 0.06 0  0.14 0.06 0  0.15 0.06 0  0.16 0.06 0  0.17 0.06 0  0.18 0.06 0  0.19 0.06 0  0.2 0.06 0  0.21 0.06 0  0.22 0.06 0  0.23 0.06 0  0.24 0.06 0  0.25 0.06 0  0.26 0.06 0  0.27 0.06 0  0.28 0.06 0  0.29 0.06 0  0.3 0.06 0  0.31 0.06 0  0.32 0.06 0  0.33 0.06 0  0.34 0.06 0  0.35 0.06 0  0.36 0.06 0  0.37 0.06 0  0.38 0.06 0  0.39 0.06 0  0.4 0.06 0  0.41 0.06 0  0.42 0.06 0  0.43 0.06 0  0.44 0.06 0  0.45 0.06 0  0.46 0.06 0  0.47 0.06 0  0.48 0.06 0  0.49 0.06 0  0.5 0.06 0  0.51 0.06 0  0.52 0.06 0  0.53 0.06 0  0.54 0.06 0  0.55 0.06 0  0.5600000000000001 0.06 0  0.57 0.06 0  0.58 0.06 0  0.59 0.06 0  0.6 0.06 0  0.61 0.06 0  0.62 0.06 0  0.63 0.06 0  0.64 0.06 0  0.65 0.06 0  0.66 0.06 0  0.67 0.06 0  0.68 0.06 0  0.6899999999999999 0.06 0  0.7 0.06 0  0.71 0.06 0  0.72 0.06 0  0.73 0.06 0  0.74 0.06 0  0.75 0.06 0  0.76 0.06 0  0.77 0.06 0  0.78 0.06 0  0.79 0.06 0  0.8 0.06 0  0.8100000000000001 0.06 0  0.82 0.06 0  0.83 0.06 0  0.84 0.06 0  0.85 0.06 0  0.86 0.06 0  0.87 0.06 0  0.88 0.06 0  0.89 0.06 0  0.9 0.06 0  0.91 0.06 0  0.92 0.06 0  0.93 0.06 0  0.9399999999999999 0.06 0  0.95 0.06 0  0.96 0.06 0  0.97 0.06 0  0.98 0.06 0  0.99 0.06 0  1 0.06 0  0 0.07000000000000001 0  0.01 0.07000000000000001 0  0.02 0.07000000000000001 0  0.03 0.07000000000000001 0  0.04 0.07000000000000001 0  0.05 0.07000000000000001 0  0.06 0.07000000000000001 0  0.07000000000000001 0.07000000000000001 0  0.08 0.07000000000000001 0  0.09 0.07000000000000001 0  0.1 0.07000000000000001 0  0.11 0.07000000000000001 0  0.12 0.07000000000000001 0  0.13 0.07000000000000001 0  0.14 0.07000000000000001 0  0.15 0.07000000000000001 0  0.16 0.07000000000000001 0  0.17 0.07000
[...]
<PointData  Scalars="rho_bar"> 
<DataArray  type="Float64"  Name="rho_bar"  format="ascii">7.1362798313693154e-01  7.1253138589855725e-01  7.1140426419288516e-01  7.0995377451488095e-01  7.0811499810846712e-01  7.0589191732808687e-01  7.0331844561746237e-01  7.0044627864354936e-01  6.9734094579392536e-01  6.9407705724958146e-01  6.9073286936604139e-01  6.8738116898140988e-01  6.8407900636188335e-01  6.8085761144855306e-01  6.7771620943951050e-01  6.7461811876303446e-01  6.7149021734891956e-01  6.6822241210098066e-01  6.6467045883356946e-01  6.6066126324228891e-01  6.5600536384965147e-01  6.5051507094626082e-01  6.4403114306320031e-01  6.3646005213192536e-01  6.2782349587477970e-01  6.1828902022209598e-01  6.0812731991254132e-01  5.9763624171154217e-01  5.8709543516669060e-01  5.7674138388490936e-01  5.6675497551008280e-01  5.5725289644968889e-01  5.4828001040422081e-01  5.3981031349902675e-01  5.3175595607420401e-01  5.2397972271341486e-01  5.1631449204152879e-01  5.0859181345643167e-01  5.0067849978518075e-01  4.9249880723041073e-01  4.8404126373583478e-01  4.7530824982311048e-01  4.6621376984648383e-01  4.5660616915303670e-01  4.4631817279628605e-01  4.3518238931533670e-01  4.2302933325619657e-01  4.0971272602460890e-01  3.9513974809681268e-01  3.7928362540130822e-01  3.6219479773102742e-01  3.4400717601173753e-01  3.2492489342134134e-01  3.0521592044267826e-01  2.8520606893607958e-01  2.6525889051560181e-01  2.4573587021788684e-01  2.2694066975043048e-01  2.0907609200777186e-01  1.9224371899532824e-01  1.7647462093552749e-01  1.6175842465250356e-01  1.4806189747437498e-01  1.3534029778060097e-01  1.2354407496878617e-01  1.1262261350519073e-01  1.0252623173833597e-01  9.3206990797416872e-02  8.4618957041906889e-02  7.6718068397568492e-02  6.9462018616025203e-02  6.2810038661719483e-02  5.6722842518076189e-02  5.1162492913387821e-02  4.6092464920618199e-02  4.1477611316286279e-02  3.7284289632001907e-02  3.3480344233800016e-02  3.0035250072961414e-02  2.6920111533330657e-02  2.4107766829617839e-02  2.1572768925133729e-02  1.9291439181296794e-02  1.7241827147331010e-02  1.5403722336207022e-02  1.3758583327103229e-02  1.2289509509717892e-02  1.0981165640494917e-02  9.8197147542009953e-03  8.7927501463310881e-03  7.8892056878605843e-03  7.0992861505388026e-03  6.4143897187124068e-03  5.8270397530585816e-03  5.3308236109925917e-03  4.9203612763348602e-03  4.5912655678434933e-03  4.3401783139816576e-03  4.1649317288579620e-03  4.0653530057655702e-03  4.0462723813555652e-03  7.0793513496726312e-01  7.0745192973869486e-01  7.0646636091493253e-01  7.0504082252099620e-01  7.0319023183648699e-01  7.0093918431222868e-01  6.9832783058424885e-01  6.9541135250036068e-01  6.9225750504192884e-01  6.8894426740788750e-01  6.8555376278410618e-01  6.8216353348526448e-01  6.7883477135227621e-01  6.7560217069952044e-01  6.7246679569839807e-01  6.6939368166025526e-01  6.6631058613792471e-01  6.6310881711215086e-01  6.5964432459600064e-01  6.5574418803967971e-01  6.5121836810590694e-01  6.4587958286171443e-01  6.3956975093153379e-01  6.3219674870925702e-01  6.2377897675994187e-01  6.1447265853822686e-01  6.0453958807870234e-01  5.9427191822178360e-01  5.8394405064067301e-01  5.7378891630866513e-01  5.6398493270677363e-01  5.5464898105502047e-01  5.4582818910682429e-01  5.3750006684636287e-01  5.2958028287842429e-01  5.2193634992758275e-01  5.1440756416674205e-01  5.0683412860632771e-01  4.9909088169897492e-01  4.9110796156705444e-01  4.8286560206747769e-01  4.7435311501788829e-01  4.6548267029877821e-01  4.5610130621452150e-01  4.4604142893284793e-01  4.3513930704995391e-01  4.2322888527668984e-01  4.1016327846012773e-01  3.9584596772833941e-01  3.8024656303506471e-01  3.6340831667198842e-01  3.4545742602049534e-01  3.2659184852558654e-01  3.0707177142826558e-01  2.8721435462909634e-01  2.6737571223391821e-01  2.4791426959595150e-01  2.2913728308108625e-01  2.1125391936886612e-01  1.9437376322507993e-01  1.7853482097008738e-01  1.6373238348837654e-01  1.4993797678434387e-01  1.3711081118884072e-01  1.2520459874853460e-01  1.1417143295707839e-01  1.0396379764940392e-01  9.4535509310510094e-02  8.5841949268787979e-02  7.7840069252767347e-02  7.0488221079514260e-02  6.3746088741094956e-02  5.7574582514610978e-02  5.1935862341572103e-02  4.6793306044849034e-02  4.2111640831014457e-02  3.7856962298046151e-02  3.3996878036045709e-02  3.0500529449897517e-02  2.7338726290379853e-02  2.4483965573042263e-02  2.1910503230755132e-02  1.9594336728082935e-02  1.7513241573272071e-02  1.5646723471097787e-02  1.3976001944812638e-02  1.2483941653926748e-02  1.1155000412485494e-02  9.9751599279913113e-03  8.9318411392995418e-03  8.0138334463868525e-03  7.2112093361385438e-03  6.5152522980450557e-03  5.9183814932117799e-03  5.4141002619755071e-03  4.9969392417209164e-03  4.6624194895888826e-03  4.4070280328850405e-03  4.2282040152397775e-03  4.1241749138938586e-03  4.0929129392718536e-03  6.9297606729963701e-01  6.9264045795015938e-01  6.9172801638677373e-01  6.9030035892974739e-01  6.8839759825807434e-01  6.8605972942682791e-01  6.8333653448347975e-01  6.8028963735097858e-01  6.7699385469628637e-01  6.7353585463138554e-01  6.7001010476977774e-01  6.6650812677629134e-01  6.6310448335028693e-01  6.5984311786904548e-01  6.5673125365180540e-01  6.5373744938712053e-01  6.5079330036929184e-01  6.4779288270479252e-01  6.4459387129402601e-01  6.4102208156310214e-01  6.3688515480874730e-01  6.3199408253659362e-01  6.2619167993896108e-01  6.1938697460170189e-01  6.1159600397347369e-01  6.0296070590950490e-01  5.9371493529186514e-01  5.8412583177186750e-01  5.7444900972480550e-01  5.6490449130820208e-01  5.5566364278150604e-01  5.4684150060477443e-01  5.3849072761242234e-01  5.3059725832395799e-01  5.2308751556464894e-01  5.1584190392708884e-01  5.0871754376767531e-01  5.0157921573673570e-01  4.9432743205443608e-01  4.8690730172131097e-01  4.7929252684688600e-01  4.7143574340529576e-01  4.6322943816046269e-01  4.5451550383286016e-01  4.4512829985314850e-01  4.3491170340749374e-01  4.2370748232811811e-01  4.1137020212121356e-01  3.9779720956637160e-01  3.8294685464790895e-01  3.6684635280755251e-01  3.4959959598352891e-01  3.3138421112719235e-01  3.1243906320143022e-01  2.9305837817758501e-01  2.7357740952140880e-01  2.5434094116192080e-01  2.3565822306628814e-01  2.1775448598305769e-01  2.0075980325002804e-01  1.8473292506170436e-01  1.6968749111560660e-01  1.5561051169347903e-01  1.4247410086118642e-01  1.3024261561248412e-01  1.1887684522201963e-01  1.0833636003344635e-01  9.8580576835347683e-02  8.9569241320891960e-02  8.1262486800117731e-02  7.3620928884977968e-02  6.6605678670135532e-02  6.0178448491023440e-02  5.4301654057402587e-02  4.8938581070823536e-02  4.4053508099511411e-02  3.9611921192431017e-02  3.5580604544238816e-02  3.1927838055245308e-02  2.8623475516448695e-02  2.5639069991915529e-02  2.2947916303616853e-02  2.0525109988880939e-02  1.8347545316620650e-02  1.6393924229361031e-02  1.4644702044993999e-02  1.3082058100138566e-02  1.1689824085068082e-02  1.0453413320081907e-02  9.3597451812141678e-03  8.3971547171327755e-03  7.5553173051169827e-03  6.8251654072316046e-03  6.1988094246877221e-03  5.6694799721412059e-03  5.2314571234902112e-03  4.8800349081478192e-03  4.6114271421574989e-03  4.4227127088630903e-03  4.3116082039001804e-03  4.2760023801985438e-03  6.6837426056047533e-01  6.6808136147167418e-01  6.6717880711422917e-01  6.6570535758849725e-01  6.6370392526244271e-01  6.6122347774889489e-01  6.5832245458771255e-01  6.5507102477850787e-01  6.5155299921928644e-01  6.4786867103126711e-01  6.4413204517151612e-01  6.4045935560134271e-01  6.3694747001294372e-01  6.3365622899029461e-01  6.3060119460261499e-01  6.2775690224784286e-01  6.2506048389329905e-01  6.2241258075575445e-01  6.1967396140369246e-01  6.1666970850038572e-01  6.1320287225694337e-01  6.0908084422048514e-01  6.0414588356005461e-01  5.9830640629822007e-01  5.9156961905366989e-01  5.8405333554816208e-01  5.7595065928965017e-01  5.6748778808395028e-01  5.5888914144058355e-01  5.5035471979916584e-01  5.4204522604353989e-01  5.3407390128462784e-01  5.2650029180844671e-01  5.1932463705852627e-01  5.1249038179319983e-01  5.0590072998833835e-01  4.9944379911435688e-01  4.9302322111344754e-01  4.8657335901411786e-01  4.8005620221382184e-01  4.7342639382286689e-01  4.6660240208409698e-01  4.5945102890038647e-01  4.5180547920458530e-01  4.4349959523110755e-01  4.3438480239126093e-01  4.2431194045028497e-01  4.1313978048662064e-01  4.0076060453464663e-01  3.8711851479805665e-01  3.7221745744953305e-01  3.5613022972592834e-01  3.3899818855786112e-01  3.2102504151234412e-01  3.0246929918768239e-01  2.8363323455658485e-01  2.6483479176690000e-01  2.4637361852046746e-01  2.2849267724774103e-01  2.1135487369249750e-01  1.9505339141937866e-01  1.7963328778944423e-01  1.6510830468739207e-01  1.5147318459414405e-01  1.3871105115035498e-01  1.2679817787578540e-01  1.1570678125739421e-01  1.0540647450649343e-01  9.5864851503648527e-02  8.7047950744895450e-02  7.8920515479099174e-02  7.1446388405899938e-02  6.4588841102816041e-02  5.8310946506645402e-02  5.2575918710445368e-02  4.7347466492574146e-02  4.2590053628531278e-02  3.8269226345037939e-02  3.4351796986751872e-02  3.0806089190422725e-02  2.7602059262380900e-02  2.4711434338269465e-02  2.2107776363468622e-02  1.9766533340986790e-02  1.7665031780042889e-02  1.5782474517401536e-02  1.4099876784747896e-02  1.2600022171258595e-02  1.1267377023575801e-02  1.0088010036369142e-02  9.0495032194876507e-03  8.1408616449819213e-03  7.3524253054895955e-03  6.6757952382083966e-03  6.1037379591535558e-03  5.6301547231245768e-03  5.2499632857961704e-03  4.9590994903473311e-03  4.7543458015642335e-03  4.6332956502435083e-03  4.5942114857116592e-03  6.3407176834866319e-01  6.3380398374769487e-01  6.3288057167337808e-01  6.3132839660579487e-01  6.2919190678966985e-01  6.2652776294170687e-01  6.2340439370201761e-01  6.1990117926516131e-01  6.1611203465985398e-01  6.1215220736130715e-01  6.0816170009474169e-01  6.0429094800873107e-01  6.0067004327573703e-01  5.9737888064126443e-01  5.9444413484951197e-01  5.9184641509993829e-01  5.8953137012891699e-01  5.8740972002800851e-01  5.8534947977070018e-01  5.8317661756586547e-01  5.8069051015611761e-01  5.7769221075190247e-01  5.7401932036087133e-01  5.6957111201325783e-01  5.6433389258946332e-01  5.5838259583235028e-01  5.5185920762832652e-01  5.4494125076853717e-01  5.3781596526162456e-01  5.3065887814480894e-01  5.2361902191228660e-01  5.1680851697578656e-01  5.1029612612319053e-01  5.0410055928018560e-01  4.9819002752159774e-01  4.9249850736652734e-01  4.8695785217201071e-01  4.8151721262730512e-01  4.7614467644401448e-01  4.7080573112267238e-01  4.6544008039694579e-01  4.5994173815409872e-01  4.5415930854837300e-01  4.4791652468425847e-01  4.4104200335076910e-01  4.3338802705825308e-01  4.2481322233883145e-01  4.1518021944820371e-01  4.0437979631751458e-01  3.9234479426275720e-01  3.7905467837549472e-01  3.6454429528675386e-01  3.4891028889651532e-01  3.3230729229003986e-01  3.1494657812155974e-01  2.9708692539979331e-01  2.7900774918630100e-01  2.6098335058784605e-01  2.4325829661552589e-01  2.2602680048324356e-01  2.0942771854437128e-01  1.9355184713731749e-01  1.7845274222579188e-01  1.6415906237054442e-01  1.5068231907843574e-01  1.3802236373168256e-01  1.2617107910664874e-01  1.1511397385696989e-01  1.0483114529355400e-01  9.5297956062292313e-02  8.6485887809859011e-02  7.8363293754381252e-02  7.0896199714120492e-02  6.4049023086155052e-02  5.7785232114779615e-02  5.2067925511941712e-02  4.6860381428100104e-02  4.2126466410227457e-02  3.7831069906283626e-02  3.3940382662657476e-02  3.0422177547900563e-02  2.7245983572864018e-02  2.4383227660576830e-02  2.1807309223545700e-02  1.9493644825502296e-02  1.7419648084569771e-02  1.5564714292747629e-02  1.3910138509207760e-02  1.2439055912457343e-02  1.1136337218723058e-02  9.9884998709925833e-03  8.9836039215834967e-03  8.1111620007100847e-03  7.3620379441400978e-03  6.7283792382448445e-03  6.2035192636378323e-03  5.7819476206574872e-03  5.4591804657369413e-03  5.2317731075559610e-03  5.0971789905717001e-03  5.0538164956395650e-03  5.9041050190928479e-01  5.9017995364418430e-01  5.8923019266211729e-01  5.8758804634309247e-01  5.8530387562939490e-01  5.8244619445373558e-01  5.7909655978589913e-01  5.7534652383314988e-01  5.7129968683716326e-01  5.6708490516253762e-01  5.6286727644384904e-01  5.5883703428999743e-01  5.5516470386707095e-01  5.5195433282361184e-01  5.4924520123579501e-01  5.4702748782740007e-01  5.4525659764433410e-01  5.4385670342159820e-01  5.4270644099451470e-01  5.4163715190677053e-01  5.4044808744234774e-01  5.3893361181402877e-01  5.3691678125641651e-01  5.3427156989635682e-01  5.3094365871185711e-01  5.2695460176682785e-01  5.2238871106330420e-01  5.1737316106569631e-01  5.1205619740896546e-01  5.0658817445315441e-01  5.0110573481853748e-01  4.9572186596983320e-01  4.9051687578119196e-01  4.8553142812589345e-01  4.8076471657658165e-01  4.7618939536213151e-01  4.7178215620970754e-01  4.6753672819281789e-01  4.6344062352690163e-01  4.5946401157714006e-01  4.5554274326655175e-01  4.5156403051362010e-01  4.4736721142146435e-01  4.4276999102309844e-01  4.3759488574487820e-01  4.3168534523603336e-01  4.2490109901192363e-01  4.1710707098355165e-01  4.0819345245751076e-01  3.9808740596826919e-01  3.8674659001409778e-01  3.7416876041347363e-01  3.6040132488750420e-01  3.4554504819143622e-01  3.2975625822410726e-01  3.1323968360156812e-01  2.9622435470795494e-01  2.7894527044881101e-01  2.6162732232099523e-01  2.4447380391000370e-01  2.2766188037961924e-01  2.1133764771063868e-01  1.9560854569720054e-01  1.8055098737035691e-01  1.6621657164647943e-01  1.5263889979047940e-01  1.3983868804180055e-01  1.2782517396326434e-01  1.1659710862722227e-01  1.0614407842565715e-01  9.6447903376378097e-02  8.7484158729190964e-02  7.9223515625809635e-02  7.1632991192456100e-02  6.4677034498746191e-02  5.8318492373766372e-02  5.2519430247523681e-02  4.7241866884104589e-02  4.2448345945092267e-02  3.8102461237041953e-02  3.4169226871359822e-02  3.0615391780526274e-02  2.7409645163137406e-02  2.4522765583856559e-02  2.1927690277156180e-02  1.9599545748322754e-02  1.7515608580106642e-02  1.5655269341927226e-02  1.3999925978296895e-02  1.2532907617121440e-02  1.1239347282518235e-02  1.0106085735214414e-02  9.1215518021039738e-03  8.2756720973126332e-03  7.5597651024785798e-03  6.9664777670794056e-03  6.4896887027602462e-03  6.1244803814110103e-03  5.8670364307411363e-03  5.7146542893315166e-03  5.6657143748859743e-03  5.3847245343078820e-01  5.3829749648405611e-01  5.3733555832197077e-01  5.3562120874553276e-01  5.3321712244520680e-01  5.3020811729828576e-01  5.2669399092675606e-01  5.2278379594456403e-01  5.1859527628561586e-01  5.1426719073375016e-01  5.0998020399649535e-01  5.0594737157883518e-01  5.0237442517043529e-01  4.9938940876063004e-01  4.9704920880581177e-01  4.9536125143790882e-01  4.9429799024533772e-01  4.9379785692089290e-01  4.9375302992032694e-01  4.9400525957415165e-01  4.9436008515321922e-01  4.9460568281645356e-01  4.9454125000441429e-01  4.9400235100229289e-01  4.9288185040439653e-01  4.9114038331352511e-01  4.8880348888609210e-01  4.8594798853472282e-01  4.8268400271022827e-01  4.7913651469397595e-01  4.7543039363409995e-01  4.7167905151092049e-01  4.6797601628323132e-01  4.6438542435244706e-01  4.6094170022673514e-01  4.5765688436023960e-01  4.5454740659485643e-01  4.5163258129245282e-01  4.4891824897573263e-01  4.4638485850467491e-01  4.4397973618989472e-01  4.4160163182688084e-01  4.3909181831214572e-01  4.3626502162867348e-01  4.3294253974215197e-01  4.2895962294290413e-01  4.2416654485498340e-01  4.1842652150931908e-01  4.1162689663770818e-01  4.0369024636269635e-01  3.9455682268857761e-01  3.8419102436984709e-01  3.7259480296472541e-01  3.5981553825192764e-01  3.4595433377050522e-01  3.3115756471962721e-01  3.1559228611548445e-01  2.9944009751478901e-01  2.8288828979723235e-01  2.6612300431248326e-01  2.4933388490740710e-01  2.3270781926179948e-01  2.1640991026139580e-01  2.0057694797837808e-01  1.8531446138911326e-01  1.7070258804773891e-01  1.5680364163200738e-01  1.4366131530291479e-01  1.3130175857729198e-01  1.1973559479926603e-01  1.0896038894780831e-01  9.8963018615340154e-02  8.9721886683921517e-02  8.1208789732830411e-02  7.3390632351316043e-02  6.6230888142473174e-02  5.9690859730434018e-02  5.3730773704526689e-02  4.8310692284141740e-02  4.3391244936627507e-02  3.8934246751302193e-02  3.4903129864793561e-02  3.1263298862660278e-02  2.7982350602095321e-02  2.5030212168532913e-02  2.2379197366692982e-02  2.0004011693584317e-02  1.7881684079479113e-02  1.5991504966481464e-02  1.4314889839084716e-02  1.2835284519004845e-02  1.1538015892752588e-02  1.0410187750714157e-02  9.4405538116567409e-03  8.6194269321230171e-03  7.9385760009355270e-03  7.3911703213402824e-03  6.9716901847220987e-03  6.6759195307894452e-03  6.5008532063123327e-03  6.4447702196729680e-03  4.8052813381965609e-01  4.8039962736244923e-01  4.7945006552166380e-01  4.7771985290438307e-01  4.7528282109516146e-01  4.7224001402350974e-01  4.6870982848324128e-01  4.6482231814161856e-01  4.6071420142844210e-01  4.5653529931863585e-01  4.5246636837971238e-01  4.4871432675896866e-01  4.4548127391261022e-01  4.4291251053003877e-01  4.4108702779756648e-01  4.4003812249198221e-01  4.3976503806560657e-01  4.4023028332313807e-01  4.4134772328728827e-01  4.4298025275460934e-01  4.4494994077482192e-01  4.4704624533210457e-01  4.4904384592866514e-01  4.5073311411197764e-01  4.5194695038078736e-01  4.5258090099340942e-01  4.5260055546654632e-01  4.5203334275970131e-01  4.5095163621427747e-01  4.4945595809644956e-01  4.4765882663437967e-01  4.4567355567623801e-01  4.4360410525721317e-01  4.4153526097533852e-01  4.3953427972035825e-01  4.3764791721160440e-01  4.3591833354576243e-01  4.3438336217390938e-01  4.3306466207674926e-01  4.3196093947759528e-01  4.3104011987266216e-01  4.3022488563453715e-01  4.2937609737802440e-01  4.2831170132669133e-01  4.2685594704150870e-01  4.2484338133365163e-01  4.2211603039240364e-01  4.1853369962752213e-01  4.1397907674467793e-01  4.0836228109773531e-01  4.0160815497648722e-01  3.9365532190105207e-01  3.8446721688188684e-01  3.7404246621868303e-01  3.6242489373989722e-01  3.4970327043388849e-01  3.3598046961354039e-01  3.2137452091106355e-01  3.0602014734308969e-01  2.9006726699212959e-01  2.7368922832762899e-01  2.5708395422591812e-01  2.4045113863360779e-01  2.2398211342484503e-01  2.0784310133621470e-01  1.9217461611154013e-01  1.7709823489981494e-01  1.6270707270618692e-01  1.4906678595201175e-01  1.3621895530534420e-01  1.2418482424150176e-01  1.1296898861056090e-01  1.0256246769036013e-01  9.2945568647279223e-02  8.4090305501614809e-02  7.5962572692325980e-02  6.8524040605803707e-02  6.1733744091841750e-02  5.5549457303539919e-02  4.9928795387660131e-02  4.4830082492014811e-02  4.0213062564562217e-02  3.6039384475529734e-02  3.2272972855488066e-02  2.8880245328747830e-02  2.5830230588119261e-02  2.3094592957487940e-02  2.0647604879189447e-02  1.8466039030046056e-02  1.6529076891441244e-02  1.4818139832848222e-02  1.3316776070377283e-02  1.2010496628083425e-02  1.0886664477652167e-02  9.9343706764510719e-03  9.1443479504511802e-03  8.5088760678310952e-03  8.0217511872751734e-03  7.6781890026330736e-03  7.4748522865725987e-03  7.4097999385246017e-03  4.2008051841382599e-01  4.1995474508968239e-01  4.1904618541991673e-01  4.1739183493953314e-01  4.1506650895360203e-01  4.1217664098852896e-01  4.0884960242072405e-01  4.0522727439720385e-01  4.0145924513591874e-01  3.9769893301939946e-01  3.9411558740732305e-01  3.9089343144573813e-01  3.8821160134214733e-01  3.8621335698421000e-01  3.8499531774327089e-01  3.8461620209124120e-01  3.8510492637878646e-01  3.8645672388955132e-01  3.8862010820725951e-01  3.9149573801624477e-01  3.9493896762877295e-01  3.98755637791