<?xml version="1.0"?>
<VTKFile type="UnstructuredGrid"  version="0.1"  >
<UnstructuredGrid>
<Piece  NumberOfPoints="5151" NumberOfCells="10000">
<Points>
<DataArray  type="Float64"  NumberOfComponents="3"  format="ascii">0 0 0  0.01 0 0  0.02 0 0  0.03 0 0  0.04 0 0  0.05 0 0  0.06 0 0  0.07000000000000001 0 0  0.08 0 0  0.09 0 0  0.1 0 0  0.11 0 0  0.12 0 0  0.13 0 0  0.14 0 0  0.15 0 0  0.16 0 0  0.17 0 0  0.18 0 0  0.19 0 0  0.2 0 0  0.21 0 0  0.22 0 0  0.23 0 0  0.24 0 0  0.25 0 0  0.26 0 0  0.27 0 0  0.28 0 0  0.29 0 0  0.3 0 0  0.31 0 0  0.32 0 0  0.33 0 0  0.34 0 0  0.35 0 0  0.36 0 0  0.37 0 0  0.38 0 0  0.39 0 0  0.4 0 0  0.41 0 0  0.42 0 0  0.43 0 0  0.44 0 0  0.45 0 0  0.46 0 0  0.47 0 0  0.48 0 0  0.49 0 0  0.5 0 0  0.51 0 0  0.52 0 0  0.53 0 0  0.54 0 0  0.55 0 0  0.5600000000000001 0 0  0.57 0 0  0.58 0 0  0.59 0 0  0.6 0 0  0.61 0 0  0.62 0 0  0.63 0 0  0.64 0 0  0.65 0 0  0.66 0 0  0.67 0 0  0.68 0 0  0.6899999999999999 0 0  0.7 0 0  0.71 0 0  0.72 0 0  0.73 0 0  0.74 0 0  0.75 0 0  0.76 0 0  0.77 0 0  0.78 0 0  0.79 0 0  0.8 0 0  0.8100000000000001 0 0  0.82 0 0  0.83 0 0  0.84 0 0  0.85 0 0  0.86 0 0  0.87 0 0  0.88 0 0  0.89 0 0  0.9 0 0  0.91 0 0  0.92 0 0  0.93 0 0  0.9399999999999999 0 0  0.95 0 0  0.96 0 0  0.97 0 0  0.98 0 0  0.99 0 0  1 0 0  0 0.01 0  0.01 0.01 0  0.02 0.01 0  0.03 0.01 0  0.04 0.01 0  0.05 0.01 0  0.06 0.01 0  0.07000000000000001 0.01 0  0.08 0.01 0  0.09 0.01 0  0.1 0.01 0  0.11 0.01 0  0.12 0.01 0  0.13 0.01 0  0.14 0.01 0  0.15 0.01 0  0.16 0.01 0  0.17 0.01 0  0.18 0.01 0  0.19 0.01 0  0.2 0.01 0  0.21 0.01 0  0.22 0.01 0  0.23 0.01 0  0.24 0.01 0  0.25 0.01 0  0.26 0.01 0  0.27 0.01 0  0.28 0.01 0  0.29 0.01 0  0.3 0.01 0  0.31 0.01 0  0.32 0.01 0  0.33 0.01 0  0.34 0.01 0  0.35 0.01 0  0.36 0.01 0  0.37 0.01 0  0.38 0.01 0  0.39 0.01 0  0.4 0.01 0  0.41 0.01 0  0.42 0.01 0  0.43 0.01 0  0.44 0.01 0  0.45 0.01 0  0.46 0.01 0  0.47 0.01 0  0.48 0.01 0  0.49 0.01 0  0.5 0.01 0  0.51 0.01 0  0.52 0.01 0  0.53 0.01 0  0.54 0.01 0  0.55 0.01 0  0.5600000000000001 0.01 0  0.57 0.01 0  0.58 0.01 0  0.59 0.01 0  0.6 0.01 0  0.61 0.01 0  0.62 0.01 0  0.63 0.01 0  0.64 0.01 0  0.65 0.01 0  0.66 0.01 0  0.67 0.01 0  0.68 0.01 0  0.6899999999999999 0.01 0  0.7 0.01 0  0.71 0.01 0  0.72 0.01 0  0.73 0.01 0  0.74 0.01 0  0.75 0.01 0  0.76 0.01 0  0.77 0.01 0  0.78 0.01 0  0.79 0.01 0  0.8 0.01 0  0.8100000000000001 0.01 0  0.82 0.01 0  0.83 0.01 0  0.84 0.01 0  0.85 0.01 0  0.86 0.01 0  0.87 0.01 0  0.88 0.01 0  0.89 0.01 0  0.9 0.01 0  0.91 0.01 0  0.92 0.01 0  0.93 0.01 0  0.9399999999999999 0.01 0  0.95 0.01 0  0.96 0.01 0  0.97 0.01 0  0.98 0.01 0  0.99 0.01 0  1 0.01 0  0 0.02 0  0.01 0.02 0  0.02 0.02 0  0.03 0.02 0  0.04 0.02 0  0.05 0.02 0  0.06 0.02 0  0.07000000000000001 0.02 0  0.08 0.02 0  0.09 0.02 0  0.1 0.02 0  0.11 0.02 0  0.12 0.02 0  0.13 0.02 0  0.14 0.02 0  0.15 0.02 0  0.16 0.02 0  0.17 0.02 0  0.18 0.02 0  0.19 0.02 0  0.2 0.02 0  0.21 0.02 0  0.22 0.02 0  0.23 0.02 0  0.24 0.02 0  0.25 0.02 0  0.26 0.02 0  0.27 0.02 0  0.28 0.02 0  0.29 0.02 0  0.3 0.02 0  0.31 0.02 0  0.32 0.02 0  0.33 0.02 0  0.34 0.02 0  0.35 0.02 0  0.36 0.02 0  0.37 0.02 0  0.38 0.02 0  0.39 0.02 0  0.4 0.02 0  0.41 0.02 0  0.42 0.02 0  0.43 0.02 0  0.44 0.02 0  0.45 0.02 0  0.46 0.02 0  0.47 0.02 0  0.48 0.02 0  0.49 0.02 0  0.5 0.02 0  0.51 0.02 0  0.52 0.02 0  0.53 0.02 0  0.54 0.02 0  0.55 0.02 0  0.5600000000000001 0.02 0  0.57 0.02 0  0.58 0.02 0  0.59 0.02 0  0.6 0.02 0  0.61 0.02 0  0.62 0.02 0  0.63 0.02 0  0.64 0.02 0  0.65 0.02 0  0.66 0.02 0  0.67 0.02 0  0.68 0.02 0  0.6899999999999999 0.02 0  0.7 0.02 0  0.71 0.02 0  0.72 0.02 0  0.73 0.02 0  0.74 0.02 0  0.75 0.02 0  0.76 0.02 0  0.77 0.02 0  0.78 0.02 0  0.79 0.02 0  0.8 0.02 0  0.8100000000000001 0.02 0  0.82 0.02 0  0.83 0.02 0  0.84 0.02 0  0.85 0.02 0  0.86 0.02 0  0.87 0.02 0  0.88 0.02 0  0.89 0.02 0  0.9 0.02 0  0.91 0.02 0  0.92 0.02 0  0.93 0.02 0  0.9399999999999999 0.02 0  0.95 0.02 0  0.96 0.02 0  0.97 0.02 0  0.98 0.02 0  0.99 0.02 0  1 0.02 0  0 0.03 0  0.01 0.03 0  0.02 0.03 0  0.03 0.03 0  0.04 0.03 0  0.05 0.03 0  0.06 0.03 0  0.07000000000000001 0.03 0  0.08 0.03 0  0.09 0.03 0  0.1 0.03 0  0.11 0.03 0  0.12 0.03 0  0.13 0.03 0  0.14 0.03 0  0.15 0.03 0  0.16 0.03 0  0.17 0.03 0  0.18 0.03 0  0.19 0.03 0  0.2 0.03 0  0.21 0.03 0  0.22 0.03 0  0.23 0.03 0  0.24 0.03 0  0.25 0.03 0  0.26 0.03 0  0.27 0.03 0  0.28 0.03 0  0.29 0.03 0  0.3 0.03 0  0.31 0.03 0  0.32 0.03 0  0.33 0.03 0  0.34 0.03 0  0.35 0.03 0  0.36 0.03 0  0.37 0.03 0  0.38 0.03 0  0.39 0.03 0  0.4 0.03 0  0.41 0.03 0  0.42 0.03 0  0.43 0.03 0  0.44 0.03 0  0.45 0.03 0  0.46 0.03 0  0.47 0.03 0  0.48 0.03 0  0.49 0.03 0  0.5 0.03 0  0.51 0.03 0  0.52 0.03 0  0.53 0.03 0  0.54 0.03 0  0.55 0.03 0  0.5600000000000001 0.03 0  0.57 0.03 0  0.58 0.03 0  0.59 0.03 0  0.6 0.03 0  0.61 0.03 0  0.62 0.03 0  0.63 0.03 0  0.64 0.03 0  0.65 0.03 0  0.66 0.03 0  0.67 0.03 0  0.68 0.03 0  0.6899999999999999 0.03 0  0.7 0.03 0  0.71 0.03 0  0.72 0.03 0  0.73 0.03 0  0.74 0.03 0  0.75 0.03 0  0.76 0.03 0  0.77 0.03 0  0.78 0.03 0  0.79 0.03 0  0.8 0.03 0  0.8100000000000001 0.03 0  0.82 0.03 0  0.83 0.03 0  0.84 0.03 0  0.85 0.03 0  0.86 0.03 0  0.87 0.03 0  0.88 0.03 0  0.89 0.03 0  0.9 0.03 0  0.91 0.03 0  0.92 0.03 0  0.93 0.03 0  0.9399999999999999 0.03 0  0.95 0.03 0  0.96 0.03 0  0.97 0.03 0  0.98 0.03 0  0.99 0.03 0  1 0.03 0  0 0.04 0  0.01 0.04 0  0.02 0.04 0  0.03 0.04 0  0.04 0.04 0  0.05 0.04 0  0.06 0.04 0  0.07000000000000001 0.04 0  0.08 0.04 0  0.09 0.04 0  0.1 0.04 0  0.11 0.04 0  0.12 0.04 0  0.13 0.04 0  0.14 0.04 0  0.15 0.04 0  0.16 0.04 0  0.17 0.04 0  0.18 0.04 0  0.19 0.04 0  0.2 0.04 0  0.21 0.04 0  0.22 0.04 0  0.23 0.04 0  0.24 0.04 0  0.25 0.04 0  0.26 0.04 0  0.27 0.04 0  0.28 0.04 0  0.29 0.04 0  0.3 0.04 0  0.31 0.04 0  0.32 0.04 0  0.33 0.04 0  0.34 0.04 0  0.35 0.04 0  0.36 0.04 0  0.37 0.04 0  0.38 0.04 0  0.39 0.04 0  0.4 0.04 0  0.41 0.04 0  0.42 0.04 0  0.43 0.04 0  0.44 0.04 0  0.45 0.04 0  0.46 0.04 0  0.47 0.04 0  0.48 0.04 0  0.49 0.04 0  0.5 0.04 0  0.51 0.04 0  0.52 0.04 0  0.53 0.04 0  0.54 0.04 0  0.55 0.04 0  0.5600000000000001 0.04 0  0.57 0.04 0  0.58 0.04 0  0.59 0.04 0  0.6 0.04 0  0.61 0.04 0  0.62 0.04 0  0.63 0.04 0  0.64 0.04 0  0.65 0.04 0  0.66 0.04 0  0.67 0.04 0  0.68 0.04 0  0.6899999999999999 0.04 0  0.7 0.04 0  0.71 0.04 0  0.72 0.04 0  0.73 0.04 0  0.74 0.04 0  0.75 0.04 0  0.76 0.04 0  0.77 0.04 0  0.78 0.04 0  0.79 0.04 0  0.8 0.04 0  0.8100000000000001 0.04 0  0.82 0.04 0  0.83 0.04 0  0.84 0.04 0  0.85 0.04 0  0.86 0.04 0  0.87 0.04 0  0.88 0.04 0  0.89 0.04 0  0.9 0.04 0  0.91 0.04 0  0.92 0.04 0  0.93 0.04 0  0.9399999999999999 0.04 0  0.95 0.04 0  0.96 0.04 0  0.97 0.04 0  0.98 0.04 0  0.99 0.04 0  1 0.04 0  0 0.05 0  0.01 0.05 0  0.02 0.05 0  0.03 0.05 0  0.04 0.05 0  0.05 0.05 0  0.06 0.05 0  0.07000000000000001 0.05 0  0.08 0.05 0  0.09 0.05 0  0.1 0.05 0  0.11 0.05 0  0.12 0.05 0  0.13 0.05 0  0.14 0.05 0  0.15 0.05 0  0.16 0.05 0  0.17 0.05 0  0.18 0.05 0  0.19 0.05 0  0.2 0.05 0  0.21 0.05 0  0.22 0.05 0  0.23 0.05 0  0.24 0.05 0  0.25 0.05 0  0.26 0.05 0  0.27 0.05 0  0.28 0.05 0  0.29 0.05 0  0.3 0.05 0  0.31 0.05 0  0.32 0.05 0  0.33 0.05 0  0.34 0.05 0  0.35 0.05 0  0.36 0.05 0  0.37 0.05 0  0.38 0.05 0  0.39 0.05 0  0.4 0.05 0  0.41 0.05 0  0.42 0.05 0  0.43 0.05 0  0.44 0.05 0  0.45 0.05 0  0.46 0.05 0  0.47 0.05 0  0.48 0.05 0  0.49 0.05 0  0.5 0.05 0  0.51 0.05 0  0.52 0.05 0  0.53 0.05 0  0.54 0.05 0  0.55 0.05 0  0.5600000000000001 0.05 0  0.57 0.05 0  0.58 0.05 0  0.59 0.05 0  0.6 0.05 0  0.61 0.05 0  0.62 0.05 0  0.63 0.05 0  0.64 0.05 0  0.65 0.05 0  0.66 0.05 0  0.67 0.05 0  0.68 0.05 0  0.6899999999999999 0.05 0  0.7 0.05 0  0.71 0.05 0  0.72 0.05 0  0.73 0.05 0  0.74 0.05 0  0.75 0.05 0  0.76 0.05 0  0.77 0.05 0  0.78 0.05 0  0.79 0.05 0  0.8 0.05 0  0.8100000000000001 0.05 0  0.82 0.05 0  0.83 0.05 0  0.84 0.05 0  0.85 0.05 0  0.86 0.05 0  0.87 0.05 0  0.88 0.05 0  0.89 0.05 0  0.9 0.05 0  0.91 0.05 0  0.92 0.05 0  0.93 0.05 0  0.9399999999999999 0.05 0  0.95 0.05 0  0.96 0.05 0  0.97 0.05 0  0.98 0.05 0  0.99 0.05 0  1 0.05 0  0 0.06 0  0.01 0.06 0  0.02 0.06 0  0.03 0.06 0  0.04 0.06 0  0.05 0.06 0  0.06 0.06 0  0.07000000000000001 0.06 0  0.08 0.06 0  0.09 0.06 0  0.1 0.06 0  0.11 0.06 0  0.12 0.06 0  0.13 0.06 0  0.14 0.06 0  0.15 0.06 0  0.16 0.06 0  0.17 0.06 0  0.18 0.06 0  0.19 0.06 0  0.2 0.06 0  0.21 0.06 0  0.22 0.06 0  0.23 0.06 0  0.24 0.06 0  0.25 0.06 0  0.26 0.06 0  0.27 0.06 0  0.28 0.06 0  0.29 0.06 0  0.3 0.06 0  0.31 0.06 0  0.32 0.06 0  0.33 0.06 0  0.34 0.06 0  0.35 0.06 0  0.36 0.06 0  0.37 0.06 0  0.38 0.06 0  0.39 0.06 0  0.4 0.06 0  0.41 0.06 0  0.42 0.06 0  0.43 0.06 0  0.44 0.06 0  0.45 0.06 0  0.46 0.06 0  0.47 0.06 0  0.48 0.06 0  0.49 0.06 0  0.5 0.06 0  0.51 0.06 0  0.52 0.06 0  0.53 0.06 0  0.54 0.06 0  0.55 0.06 0  0.5600000000000001 0.06 0  0.57 0.06 0  0.58 0.06 0  0.59 0.06 0  0.6 0.06 0  0.61 0.06 0  0.62 0.06 0  0.63 0.06 0  0.64 0.06 0  0.65 0.06 0  0.66 0.06 0  0.67 0.06 0  0.68 0.06 0  0.6899999999999999 0.06 0  0.7 0.06 0  0.71 0.06 0  0.72 0.06 0  0.73 0.06 0  0.74 0.06 0  0.75 0.06 0  0.76 0.06 0  0.77 0.06 0  0.78 0.06 0  0.79 0.06 0  0.8 0.06 0  0.8100000000000001 0.06 0  0.82 0.06 0  0.83 0.06 0  0.84 0.06 0  0.85 0.06 0  0.86 0.06 0  0.87 0.06 0  0.88 0.06 0  0.89 0.06 0  0.9 0.06 0  0.91 0.06 0  0.92 0.06 0  0.93 0.06 0  0.9399999999999999 0.06 0  0.95 0.06 0  0.96 0.06 0  0.97 0.06 0  0.98 0.06 0  0.99 0.06 0  1 0.06 0  0 0.07000000000000001 0  0.01 0.07000000000000001 0  0.02 0.07000000000000001 0  0.03 0.07000000000000001 0  0.04 0.07000000000000001 0  0.05 0.07000000000000001 0  0.06 0.07000000000000001 0  0.07000000000000001 0.07000000000000001 0  0.08 0.07000000000000001 0  0.09 0.07000000000000001 0  0.1 0.07000000000000001 0  0.11 0.07000000000000001 0  0.12 0.07000000000000001 0  0.13 0.07000000000000001 0  0.14 0.07000000000000001 0  0.15 0.07000000000000001 0  0.16 0.07000000000000001 0  0.17 0.07000
[...]
<PointData  Scalars="rho_bar"> 
<DataArray  type="Float64"  Name="rho_bar"  format="ascii">9.9485891155671191e-01  9.9932177742958628e-01  1.0006412910570608e+00  1.0028036211461164e+00  1.0041183944118495e+00  1.0053284914973377e+00  1.0062348152998688e+00  1.0062513125585826e+00  1.0053450005338511e+00  1.0040556074615907e+00  1.0022004778943487e+00  9.9873773897652429e-01  9.9472971530721632e-01  9.9296878895989171e-01  9.9367880761318428e-01  9.9538850026467263e-01  9.9728943948141080e-01  9.9860226225021009e-01  9.9916617090281956e-01  9.9970412071498105e-01  1.0005799267448312e+00  1.0014314594747808e+00  1.0018583967798649e+00  1.0018987753809065e+00  1.0017656098244416e+00  1.0015541360165143e+00  1.0012359272490434e+00  1.0008142855626119e+00  1.0004455742043510e+00  1.0001354637958195e+00  9.9975009337785237e-01  9.9954790892881662e-01  9.9976604210421482e-01  1.0000203896401254e+00  1.0000942016650014e+00  1.0000180580591125e+00  9.9840461150632831e-01  1.0135520947328054e+00  9.2562273618197111e-01  1.2830217328639582e+00  5.2529150020606090e-02  5.1742774957909670e-03  -1.3277521912736644e-03  -1.0397576957350606e-04  3.8434745007982443e-04  -2.5440908500479859e-04  -1.1850699479060079e-05  2.7270900064477022e-05  1.8376965836497956e-05  -3.3491293153935565e-06  -5.1906377593597410e-06  6.4403417215614679e-07  1.0126641920140554e-06  -2.8480913597609298e-07  -1.2422621647320002e-07  8.5968368491122148e-08  -8.7883252540101196e-09  -1.0323617521748753e-08  5.6921913228422017e-09  -1.0208294422938981e-09  -3.4272372843627280e-10  3.1709981040547262e-10  -1.1789360602578202e-10  2.0656116787711509e-11  4.1253745782476759e-12  -5.0120629276639029e-12  2.3871694203953435e-12  -7.9183934399548838e-13  1.8776134903695307e-13  -2.1637995952455777e-14  -7.6448624524546035e-15  6.7660275199926909e-15  -3.1873921340545872e-15  1.1939694591296332e-15  -3.8936709832520623e-16  1.1447241583401681e-16  -3.0773760903122230e-17  7.5658740432057588e-18  -1.6687479458106246e-18  3.0844275523106874e-19  -3.4999656490499785e-20  -6.0854145151001823e-21  6.4869336625304967e-21  -3.2213679197349885e-21  1.3009405220652576e-21  -4.7186141238849020e-22  1.5896311511058134e-22  -5.0426608642471536e-23  1.5148304281209970e-23  -4.3153244202187273e-24  1.1632365673903210e-24  -2.9441847149843947e-25  6.8736181377047034e-26  -1.4056916704315899e-26  2.1838190064259803e-27  -4.8743563258219870e-30  -1.7780418141416336e-28  1.0411980483683914e-28  -5.4769994966681159e-29  1.0927890251822630e-29  -1.8227111864068342e-29  1.0143148400380706e+00  1.0034638681489469e+00  1.0008206982484473e+00  9.9619272928214864e-01  9.9301656452841225e-01  9.9056219588625904e-01  9.8827572471925407e-01  9.8722992728279391e-01  9.8822622703496199e-01  9.9058531126198279e-01  9.9347512706643093e-01  9.9852676598650503e-01  1.0067949204611695e+00  1.0131626696402083e+00  1.0137267020169340e+00  1.0110582305303206e+00  1.0072921451281029e+00  1.0038441551701469e+00  1.0021212528870824e+00  1.0012270429218482e+00  9.9978754610937470e-01  9.9790488356124196e-01  9.9658157625205823e-01  9.9617811598049799e-01  9.9631355457462067e-01  9.9666316025333601e-01  9.9717366316037448e-01  9.9793434430292582e-01  9.9878204828253525e-01  9.9940635442518855e-01  1.0000894203962456e+00  1.0008186131078733e+00  1.0007795923646383e+00  1.0001381320382405e+00  9.9987057715676941e-01  9.9982759399859966e-01  1.0008688252383906e+00  9.9713226384665810e-01  1.0001977781102465e+00  1.0746466906906882e+00  3.5152795416101201e-01  -3.9967497433460487e-02  -7.0894538396682339e-04  2.1570577202742912e-03  -1.3734280401542307e-03  3.9957811720437347e-04  1.7740076250964009e-04  -2.8279571602298769e-05  -5.6796261769851241e-05  -1.0295521114184382e-05  1.3749745021795956e-05  3.1747158279019776e-06  -3.0178315606975738e-06  -1.9977353343462052e-07  6.0998195359247165e-07  -1.3788292043038590e-07  -5.3514914179375557e-08  4.2057514456719129e-08  -9.5385949258888161e-09  -1.8657555606164676e-09  2.2535100902951974e-09  -8.7347408904216528e-10  1.5248332505677450e-10  3.2319529423979544e-11  -3.7403764063346909e-11  1.7205613398580063e-11  -5.4256966149098423e-12  1.1661394895535036e-12  -7.8086842283186031e-14  -7.8458534853698607e-14  5.3314279418817098e-14  -2.2943707845221729e-14  8.0617525784982384e-15  -2.4795746658956337e-15  6.8604590469662857e-16  -1.7216554720283433e-16  3.8818729314948021e-17  -7.5165915441925881e-18  1.0402238390417321e-18  2.8861599171728863e-20  -1.0231606371437299e-19  5.6136362827888046e-20  -2.3623757868602899e-20  8.8163480984288887e-21  -3.0461814315217961e-21  9.8997453138776093e-22  -3.0434211281020914e-22  8.8596777993945767e-23  -2.4372661762426788e-23  6.2987154501419783e-24  -1.5085126137859391e-24  3.2367435747355846e-25  -5.6405317361923919e-26  4.4344673321604467e-27  2.2762825890505154e-27  -1.7968440780076404e-27  8.0845973447919705e-28  -3.2466991449221529e-28  1.2859758817211986e-28  -2.1811450816407222e-29  2.5526333476314053e-29  9.5144053949896124e-01  9.8044188564989310e-01  9.8945867735609805e-01  1.0059974659756656e+00  1.0195639811162029e+00  1.0286596866298987e+00  1.0372279544735001e+00  1.0437622529438604e+00  1.0438700844132505e+00  1.0373609820807577e+00  1.0280251735302899e+00  1.0157558933088831e+00  9.9187524293294971e-01  9.6219834323140152e-01  9.5060551185243591e-01  9.5616577921821866e-01  9.6739868255669337e-01  9.8126812122332285e-01  9.9036184800780824e-01  9.9407100342436094e-01  9.9778764843019596e-01  1.0040711009706182e+00  1.0101190890808689e+00  1.0130185976103823e+00  1.0132604035191684e+00  1.0123526075939195e+00  1.0108614673101053e+00  1.0087089859058194e+00  1.0056790240220517e+00  1.0030281277876496e+00  1.0010812389822583e+00  9.9827171393352432e-01  9.9664959235167316e-01  9.9840215728134341e-01  1.0003324492234578e+00  1.0003637704939512e+00  9.9981900339516716e-01  9.9958551776378113e-01  1.0045975895681898e+00  9.8326190375200839e-01  9.4371036047454582e-01  -2.0858998213739055e-01  5.3388027573547152e-02  -1.5170278158264626e-02  5.7420332378412568e-03  -3.3847251489241119e-04  -9.9290727576426528e-04  -1.7653606041179246e-04  2.1018878870037924e-04  1.2351600873423640e-04  -3.3724201822179172e-05  -3.3113695947560865e-05  7.8800911062542046e-06  5.5952575992936787e-06  -2.7166218476188153e-06  -1.9657806762171563e-07  5.0566639877301281e-07  -1.6593155096020496e-07  -4.2480838990866723e-09  2.5919320757223468e-08  -1.2111064438479343e-08  2.6927867170969609e-09  1.6768831983486068e-10  -4.4063991493701275e-10  2.2888066663777833e-10  -7.8764716446215592e-11  1.9247185082408041e-11  -2.4398647738139910e-12  -6.4851878271385982e-13  6.3343687667170747e-13  -3.0403645776964207e-13  1.1483588236057006e-13  -3.7670832354093067e-14  1.1144964008282877e-14  -3.0218918211789818e-15  7.5275424529324975e-16  -1.6973091359663041e-16  3.2802021523074480e-17  -4.3535385519922042e-18  -2.9720063463246873e-19  5.4642845485429273e-19  -2.9097313330824055e-19  1.2117984892948920e-19  -4.4791531791618608e-20  1.5297816758374431e-20  -4.9066234013905639e-21  1.4882206477192333e-21  -4.2784098296177583e-22  1.1643858310262704e-22  -2.9819801610892425e-23  7.0757034252619971e-24  -1.4949296973334882e-24  2.4898338774811742e-25  -1.2978018260900113e-26  -1.4179015631920465e-26  9.7567945413543849e-27  -4.2394170469384123e-27  1.6928511703030693e-27  -6.0820462942376974e-28  1.3375065582951486e-28  -1.1316376786464677e-28  1.1262584948142274e+00  1.0949352100384022e+00  1.0637151864517960e+00  1.0087742586100794e+00  9.4912812230509180e-01  9.0941493845910837e-01  8.7769184845828752e-01  8.4642035366025759e-01  8.3241458075840091e-01  8.4569407468998570e-01  8.7797838573123310e-01  9.1601543344329428e-01  9.7732663213909532e-01  1.0880921560877728e+00  1.1762686193929448e+00  1.1748428690512749e+00  1.1453729945041777e+00  1.0944505769877411e+00  1.0490438544770864e+00  1.0274805226617729e+00  1.0165956640571316e+00  9.9752175181153568e-01  9.7245247514950839e-01  9.5525683196141153e-01  9.5049239754084103e-01  9.5208230558382367e-01  9.5670346319513033e-01  9.6322931603068329e-01  9.7286826973890317e-01  9.8460407984983322e-01  9.9227848771221916e-01  1.0004384618516120e+00  1.0112923897091808e+00  1.0105379794933895e+00  1.0011493108405309e+00  9.9808135684841004e-01  9.9988639641387644e-01  1.0005538757203842e+00  9.9951533564835515e-01  9.9272166205771062e-01  1.0837987072126165e+00  4.1305803987082501e-01  -1.0045339396810116e-01  4.4574666582272569e-02  -1.4131169454382945e-02  -5.5959089789560006e-03  3.8514680291843861e-03  2.0440053209913977e-03  -3.5119166236409987e-04  -7.7184518478846920e-04  -7.8623671611113588e-05  1.8711234584990136e-04  2.0489479701690842e-05  -4.0408472258153275e-05  4.8910624978880042e-06  5.5997806359950734e-06  -2.6814558145810630e-06  2.0136487513466860e-07  3.0426351547529231e-07  -1.7128170140862101e-07  4.3529275689351481e-08  1.3724893752542558e-10  -5.7306291227157389e-09  3.1933431655320165e-09  -1.1308755168633328e-09  2.8208038305925838e-10  -3.7421785437384113e-11  -8.6366606207047831e-12  8.9367400892508871e-12  -4.3272521430957720e-12  1.6357315006858997e-12  -5.3464125766544280e-13  1.5696268205216199e-13  -4.2036579029733020e-14  1.0277341242705181e-14  -2.2501798080084108e-15  4.1139671353072885e-16  -4.5220680879384148e-17  -8.8091338811955716e-18  8.9019120098576451e-18  -4.3806835431383814e-18  1.7637410464959772e-18  -6.3933084954383519e-19  2.1550381610747129e-19  -6.8424881275449237e-20  2.0565969251304729e-20  -5.8560593489209607e-21  1.5755674283803475e-21  -3.9743542661528897e-22  9.2240596340675940e-23  -1.8762126890925652e-23  2.8324348112235416e-24  -2.7051839203451228e-27  -2.5055646708560581e-25  1.4559105456457276e-25  -6.4006486974714886e-26  2.3404713894404558e-26  -8.4294729809030859e-27  2.6361978154598676e-27  -6.1749953872973678e-28  4.2957786368535128e-28  -5.2206258330738962e-02  -1.3295932183157888e-02  -3.6305557651617887e-02  -7.8421064595101370e-02  -1.3498495609211481e-01  -1.7458811409446170e-01  -1.8417996089054442e-01  -1.8355332983154585e-01  -1.8133049901395676e-01  -1.8113344892326172e-01  -1.8289872427135437e-01  -1.8260565909580531e-01  -1.6685096249947765e-01  -8.2576433151248407e-02  3.3514729118603176e-02  1.1558845250835358e-01  2.9734274258074600e-01  5.3257435047829715e-01  7.4029566330857310e-01  8.6922545679600860e-01  9.1533545095260216e-01  9.6813090000137247e-01  1.0558104107782658e+00  1.1425011719311309e+00  1.1798741396389747e+00  1.1835530502818199e+00  1.1711441683641057e+00  1.1501093348653324e+00  1.1213725768229135e+00  1.0791963972630967e+00  1.0393252139341456e+00  1.0178519512139135e+00  9.7659344731605902e-01  9.4975446679420361e-01  9.7952420606191493e-01  1.0062259860481191e+00  1.0035539458895406e+00  9.9830966916922936e-01  9.9956082328697093e-01  1.0058885176587138e+00  9.6660734033585205e-01  1.1348762124409211e+00  5.8859931508406493e-01  -2.0185827986681093e-01  1.0787045849590445e-02  4.4449461969326226e-02  -5.9978673891851256e-03  -1.2227657337288964e-02  -2.3672076193035942e-03  3.1685447289966778e-03  1.5586369162747347e-03  -5.9195385458154224e-04  -4.0574813083870190e-04  1.6134098387811545e-04  4.2253958765677463e-05  -3.9670277882522139e-05  6.7751872984852849e-06  3.2033137467200491e-06  -2.3740455462350968e-06  6.8856091451658755e-07  -3.0334734087641885e-08  -7.3504723896115446e-08  4.4300861425709521e-08  -1.6108153829404339e-08  4.0825510708934623e-09  -5.6096227000550807e-10  -1.1333867624088788e-10  1.2394319779044639e-10  -6.0445509026678495e-11  2.2877364811501756e-11  -7.4712416368216740e-12  2.1893456145654256e-12  -5.8499167590175901e-13  1.4272837027748579e-13  -3.1223051048144646e-14  5.7226902425510940e-15  -6.4121177485080687e-16  -1.1479134914239020e-16  1.2045674684271775e-16  -5.9731657657100142e-17  2.4160742208912889e-17  -8.7915218266580449e-18  2.9736346188183781e-18  -9.4710109978005174e-19  2.8544561681663759e-19  -8.1472399489474138e-20  2.1966331249032089e-20  -5.5531090815200635e-21  1.2928196220167704e-21  -2.6461268718691093e-22  4.0747881157335126e-23  -5.0405277805021741e-25  -3.3064977423735500e-24  1.9867968113430568e-24  -8.6234924896087172e-25  3.3052290952657312e-25  -1.1105753504669494e-25  3.7547834141469591e-26  -1.0465342089280159e-26  2.6104811752744749e-27  -1.4968056484470165e-27  6.3320235408619438e-03  9.7788238597288253e-03  4.8401764544248310e-03  1.4891796371034079e-02  2.8591973163447120e-02  4.2383408889938211e-02  4.8782600141095020e-02  4.9422266353744790e-02  4.8863567466994898e-02  4.8480210196900297e-02  4.8757018380084734e-02  4.9133053276275707e-02  4.8324045244787499e-02  3.5422653940922741e-02  6.0960172635360728e-03  -1.8907990799159509e-02  -5.2052833781186178e-02  -1.0879261024696738e-01  -1.5513479718403103e-01  -1.7859594324594719e-01  -1.8656210567382925e-01  -1.7131243958366876e-01  -1.0625782698106902e-01  -1.1931291036154836e-02  6.0081867615367990e-02  1.0429196192765697e-01  1.7722075894834816e-01  3.1324283529829933e-01  4.6142177494017533e-01  6.1104379089748506e-01  7.8832192199546935e-01  9.0059456580190611e-01  9.8350936731025518e-01  1.1775800077214849e+00  1.1459444717141585e+00  1.0092425207976259e+00  9.7109274214765895e-01  1.0050801739706163e+00  1.0015067696920366e+00  9.9686089236814368e-01  1.0094028385490941e+00  9.7366247163169040e-01  1.0420417195217437e+00  1.0683700106641454e+00  2.7381457412893184e-01  -2.0946182499905136e-01  -4.2296006933442529e-02  4.7805848862186154e-02  2.8029696823352726e-02  -6.4601521578485071e-03  -1.0619508665950014e-02  -4.5843484971394728e-04  2.7487805175283792e-03  -9.1280687344335305e-05  -4.9335205129487044e-04  1.5367500246547786e-04  2.4826675631609191e-05  -3.1929160108132792e-05  1.0788226815008658e-05  -9.4145658944467194e-07  -9.1851043139878514e-07  6.1321507102343364e-07  -2.2981937961168545e-07  5.9220468968138397e-08  -8.4176725311315705e-09  -1.4709854434880441e-09  1.7163418026725917e-09  -8.4394927063407666e-10  3.2013271521705349e-10  -1.0458030312747769e-10  3.0623376975811712e-11  -8.1711169385389678e-12  1.9901863208493894e-12  -4.3463167466846566e-13  7.9550076931025541e-14  -8.9035933751666604e-15  -1.5954466918412257e-15  1.6736015420150447e-15  -8.3027445180395890e-16  3.3608679230772210e-16  -1.2240711354541391e-16  4.1444611308975485e-17  -1.3212914680116218e-17  3.9853196966918429e-18  -1.1379663002101823e-18  3.0678716374786000e-19  -7.7505802852540217e-20  1.8023414026958086e-20  -3.6834184883459540e-21  5.6609052318724548e-22  -6.7870729652724613e-24  -4.6061943463527453e-23  2.7574568796569303e-23  -1.2048056002924034e-23  4.5493837772061005e-24  -1.5876425917894484e-24  4.9632735104771871e-25  -1.5745111135528122e-25  3.8711742728937193e-26  -1.0284730344557081e-26  4.5652927539072719e-27  -3.4981808825973611e-04  -2.4959086060757181e-03  -1.8232311232935685e-03  -2.2675045551643746e-03  -5.7788616262924794e-03  -9.6387980472830183e-03  -1.2462362039402675e-02  -1.3270668142733024e-02  -1.3175757468412453e-02  -1.3024270106962265e-02  -1.3013605910717466e-02  -1.3109556673501445e-02  -1.3265333604546126e-02  -1.1777497472008748e-02  -5.7473879950879743e-03  1.7511403885780937e-03  8.8600206738128889e-03  2.1261841187081108e-02  3.6023433520723812e-02  4.5363721748466965e-02  4.9479898406676506e-02  4.9225634279192035e-02  3.8696983283067983e-02  1.5922673024188112e-02  -7.5334732887138963e-03  -2.2088944986189012e-02  -3.5845826605095839e-02  -6.3994305186022518e-02  -1.0225289754772510e-01  -1.3624466433535590e-01  -1.6345872539409298e-01  -1.8309194036984039e-01  -1.8432364860577216e-01  -2.6353950592490936e-02  1.4402476340444897e-01  6.9840095997442508e-01  1.1402034898415381e+00  1.0091289465803666e+00  9.8592685555734416e-01  1.0052209670255565e+00  9.9725472939241389e-01  1.0033090128091733e+00  1.0017851605507060e+00  9.6515066166056218e-01  1.0954732436770325e+00  1.0823046069123579e+00  4.7131325945895569e-01  -8.4368844933458476e-02  -1.6996174135146097e-01  -2.4967243646483211e-02  4.5516631422121957e-02  2.0391825936350635e-02  -1.0737171751335716e-02  -4.2080938313560183e-03  2.7447566361491057e-03  -5.0633586144816645e-05  -4.0547473386794473e-04  1.6766392830498130e-04  -2.1682371148007435e-05  -1.1005641244952049e-05  8.4701490297287112e-06  -3.2890711033437034e-06  8.6194994619732774e-07  -1.2626534604838039e-07  -1.9013123213938340e-08  2.3795277634588311e-08  -1.1789623046089010e-08  4.4808078904219728e-09  -1.4641913060567104e-09  4.2842689975218019e-10  -1.1413302896500029e-10  2.7738064001466446e-11  -6.0430296446374512e-12  1.1033063940848749e-12  -1.2298943823022160e-13  -2.2281074541640752e-14  2.3248365359049962e-14  -1.1527171842551273e-14  4.6672868580993784e-15  -1.7009938792987154e-15  5.7642960161613643e-16  -1.8394740851216279e-16  5.5530548501585802e-17  -1.5865104218715872e-17  4.2775334998528701e-18  -1.0801870760680647e-18  2.5096297931646300e-19  -5.1232671735597370e-20  7.8681867472229016e-21  -9.6890907789210459e-23  -6.3765360485289588e-22  3.8221226895038826e-22  -1.6687193237980503e-22  6.3345069587264293e-23  -2.1860985212465203e-23  7.0759335815598055e-24  -2.0639628196426295e-24  6.1162704202116673e-25  -1.2844976676090957e-25  3.6832660034935148e-26  -1.0546452536431406e-26  -7.0904301353296413e-05  4.1480325110790757e-04  6.2285019643738989e-04  4.6094939051432443e-04  1.0141978646586920e-03  2.0815049610887404e-03  3.0171249349290369e-03  3.5005044604735631e-03  3.5567574089016016e-03  3.5068918305298409e-03  3.4843145264796451e-03  3.4939191413054138e-03  3.5522887586098640e-03  3.4696684931246110e-03  2.4613387528968343e-03  5.3067509684381529e-04  -1.3381765698918227e-03  -3.8741044569589583e-03  -7.7349527353328682e-03  -1.1103803120841024e-02  -1.2851113745752216e-02  -1.3459554172183400e-02  -1.2196420612052890e-02  -7.5625572817915156e-03  -9.4237428981554293e-04  4.1889817269967645e-03  7.5055562576510776e-03  1.2897068680355015e-02  2.2182761951849112e-02  3.2171585794520591e-02  4.0404754047134971e-02  4.6492235961745905e-02  5.2671945314531537e-02  3.0203953335762382e-02  -6.0886335306029483e-03  -1.2100824487705843e-01  -1.2441310276729496e-01  7.6067357255290013e-01  1.0779475587067759e+00  9.8555368411135180e-01  1.0015712649771467e+00  1.0001066477290268e+00  9.9793407411321600e-01  1.0071909782946233e+00  9.9415814752108866e-01  9.6072065822954322e-01  1.0536958382025987e+00  1.1800016129513451e+00  9.1334817279166292e-01  3.5369855945666107e-01  -9.7358296806407563e-02  -1.5407549714482613e-01  8.0230478028401660e-03  3.7925904971119466e-02  -7.3424266979170870e-03  -4.2827529628373896e-03  2.5869496262545225e-03  -4.4963324330410864e-04  -1.2209073703330412e-04  1.1666761015444358e-04  -4.7268310792016616e-05  1.2602095982783583e-05  -1.8944729782720560e-06  -2.4528594093157296e-07  3.3054010488201281e-07  -1.6479409362159768e-07  6.2713832048714891e-08  -2.0497535656375681e-08  5.9941101339510609e-09  -1.5943805323679558e-09  3.8659105678700289e-10  -8.4000920598982066e-11  1.5296335162548447e-11  -1.6985970725854899e-12  -3.1077685523700997e-13  3.2276976281254554e-13  -1.5998872624738839e-13  6.4805820544288591e-14  -2.3636596556304141e-14  8.0177140393467789e-15  -2.5612795637737687e-15  7.7396356312552095e-16  -2.2127675993383171e-16  5.9674285026335317e-17  -1.5064146732054414e-17  3.4968836312394706e-18  -7.1307851753809622e-19  1.0943902854766078e-19  -1.3917753721804822e-21  -8.8277780063824769e-21  5.2959182759064472e-21  -2.3146214581722245e-21  8.7872239813139682e-22  -3.0456076772326132e-22  9.7696754998301759e-23  -2.9453174666616338e-23  7.9607800239487005e-24  -2.1732484889321726e-24  3.5702258351627449e-25  -1.1604431638057492e-25  5.6175630839250045e-27  2.6478192663824899e-05  -4.0420399250062585e-05  -1.5461830814602067e-04  -1.3909578273126044e-04  -1.7291294299282258e-04  -4.0836241510553610e-04  -6.9433047743912269e-04  -8.8926846701170093e-04  -9.546104