<?xml version="1.0"?>
<VTKFile type="UnstructuredGrid"  version="0.1"  >
<UnstructuredGrid>
<Piece  NumberOfPoints="5151" NumberOfCells="10000">
<Points>
<DataArray  type="Float64"  NumberOfComponents="3"  format="ascii">0 0 0  0.01 0 0  0.02 0 0  0.03 0 0  0.04 0 0  0.05 0 0  0.06 0 0  0.07000000000000001 0 0  0.08 0 0  0.09 0 0  0.1 0 0  0.11 0 0  0.12 0 0  0.13 0 0  0.14 0 0  0.15 0 0  0.16 0 0  0.17 0 0  0.18 0 0  0.19 0 0  0.2 0 0  0.21 0 0  0.22 0 0  0.23 0 0  0.24 0 0  0.25 0 0  0.26 0 0  0.27 0 0  0.28 0 0  0.29 0 0  0.3 0 0  0.31 0 0  0.32 0 0  0.33 0 0  0.34 0 0  0.35 0 0  0.36 0 0  0.37 0 0  0.38 0 0  0.39 0 0  0.4 0 0  0.41 0 0  0.42 0 0  0.43 0 0  0.44 0 0  0.45 0 0  0.46 0 0  0.47 0 0  0.48 0 0  0.49 0 0  0.5 0 0  0.51 0 0  0.52 0 0  0.53 0 0  0.54 0 0  0.55 0 0  0.5600000000000001 0 0  0.57 0 0  0.58 0 0  0.59 0 0  0.6 0 0  0.61 0 0  0.62 0 0  0.63 0 0  0.64 0 0  0.65 0 0  0.66 0 0  0.67 0 0  0.68 0 0  0.6899999999999999 0 0  0.7 0 0  0.71 0 0  0.72 0 0  0.73 0 0  0.74 0 0  0.75 0 0  0.76 0 0  0.77 0 0  0.78 0 0  0.79 0 0  0.8 0 0  0.8100000000000001 0 0  0.82 0 0  0.83 0 0  0.84 0 0  0.85 0 0  0.86 0 0  0.87 0 0  0.88 0 0  0.89 0 0  0.9 0 0  0.91 0 0  0.92 0 0  0.93 0 0  0.9399999999999999 0 0  0.95 0 0  0.96 0 0  0.97 0 0  0.98 0 0  0.99 0 0  1 0 0  0 0.01 0  0.01 0.01 0  0.02 0.01 0  0.03 0.01 0  0.04 0.01 0  0.05 0.01 0  0.06 0.01 0  0.07000000000000001 0.01 0  0.08 0.01 0  0.09 0.01 0  0.1 0.01 0  0.11 0.01 0  0.12 0.01 0  0.13 0.01 0  0.14 0.01 0  0.15 0.01 0  0.16 0.01 0  0.17 0.01 0  0.18 0.01 0  0.19 0.01 0  0.2 0.01 0  0.21 0.01 0  0.22 0.01 0  0.23 0.01 0  0.24 0.01 0  0.25 0.01 0  0.26 0.01 0  0.27 0.01 0  0.28 0.01 0  0.29 0.01 0  0.3 0.01 0  0.31 0.01 0  0.32 0.01 0  0.33 0.01 0  0.34 0.01 0  0.35 0.01 0  0.36 0.01 0  0.37 0.01 0  0.38 0.01 0  0.39 0.01 0  0.4 0.01 0  0.41 0.01 0  0.42 0.01 0  0.43 0.01 0  0.44 0.01 0  0.45 0.01 0  0.46 0.01 0  0.47 0.01 0  0.48 0.01 0  0.49 0.01 0  0.5 0.01 0  0.51 0.01 0  0.52 0.01 0  0.53 0.01 0  0.54 0.01 0  0.55 0.01 0  0.5600000000000001 0.01 0  0.57 0.01 0  0.58 0.01 0  0.59 0.01 0  0.6 0.01 0  0.61 0.01 0  0.62 0.01 0  0.63 0.01 0  0.64 0.01 0  0.65 0.01 0  0.66 0.01 0  0.67 0.01 0  0.68 0.01 0  0.6899999999999999 0.01 0  0.7 0.01 0  0.71 0.01 0  0.72 0.01 0  0.73 0.01 0  0.74 0.01 0  0.75 0.01 0  0.76 0.01 0  0.77 0.01 0  0.78 0.01 0  0.79 0.01 0  0.8 0.01 0  0.8100000000000001 0.01 0  0.82 0.01 0  0.83 0.01 0  0.84 0.01 0  0.85 0.01 0  0.86 0.01 0  0.87 0.01 0  0.88 0.01 0  0.89 0.01 0  0.9 0.01 0  0.91 0.01 0  0.92 0.01 0  0.93 0.01 0  0.9399999999999999 0.01 0  0.95 0.01 0  0.96 0.01 0  0.97 0.01 0  0.98 0.01 0  0.99 0.01 0  1 0.01 0  0 0.02 0  0.01 0.02 0  0.02 0.02 0  0.03 0.02 0  0.04 0.02 0  0.05 0.02 0  0.06 0.02 0  0.07000000000000001 0.02 0  0.08 0.02 0  0.09 0.02 0  0.1 0.02 0  0.11 0.02 0  0.12 0.02 0  0.13 0.02 0  0.14 0.02 0  0.15 0.02 0  0.16 0.02 0  0.17 0.02 0  0.18 0.02 0  0.19 0.02 0  0.2 0.02 0  0.21 0.02 0  0.22 0.02 0  0.23 0.02 0  0.24 0.02 0  0.25 0.02 0  0.26 0.02 0  0.27 0.02 0  0.28 0.02 0  0.29 0.02 0  0.3 0.02 0  0.31 0.02 0  0.32 0.02 0  0.33 0.02 0  0.34 0.02 0  0.35 0.02 0  0.36 0.02 0  0.37 0.02 0  0.38 0.02 0  0.39 0.02 0  0.4 0.02 0  0.41 0.02 0  0.42 0.02 0  0.43 0.02 0  0.44 0.02 0  0.45 0.02 0  0.46 0.02 0  0.47 0.02 0  0.48 0.02 0  0.49 0.02 0  0.5 0.02 0  0.51 0.02 0  0.52 0.02 0  0.53 0.02 0  0.54 0.02 0  0.55 0.02 0  0.5600000000000001 0.02 0  0.57 0.02 0  0.58 0.02 0  0.59 0.02 0  0.6 0.02 0  0.61 0.02 0  0.62 0.02 0  0.63 0.02 0  0.64 0.02 0  0.65 0.02 0  0.66 0.02 0  0.67 0.02 0  0.68 0.02 0  0.6899999999999999 0.02 0  0.7 0.02 0  0.71 0.02 0  0.72 0.02 0  0.73 0.02 0  0.74 0.02 0  0.75 0.02 0  0.76 0.02 0  0.77 0.02 0  0.78 0.02 0  0.79 0.02 0  0.8 0.02 0  0.8100000000000001 0.02 0  0.82 0.02 0  0.83 0.02 0  0.84 0.02 0  0.85 0.02 0  0.86 0.02 0  0.87 0.02 0  0.88 0.02 0  0.89 0.02 0  0.9 0.02 0  0.91 0.02 0  0.92 0.02 0  0.93 0.02 0  0.9399999999999999 0.02 0  0.95 0.02 0  0.96 0.02 0  0.97 0.02 0  0.98 0.02 0  0.99 0.02 0  1 0.02 0  0 0.03 0  0.01 0.03 0  0.02 0.03 0  0.03 0.03 0  0.04 0.03 0  0.05 0.03 0  0.06 0.03 0  0.07000000000000001 0.03 0  0.08 0.03 0  0.09 0.03 0  0.1 0.03 0  0.11 0.03 0  0.12 0.03 0  0.13 0.03 0  0.14 0.03 0  0.15 0.03 0  0.16 0.03 0  0.17 0.03 0  0.18 0.03 0  0.19 0.03 0  0.2 0.03 0  0.21 0.03 0  0.22 0.03 0  0.23 0.03 0  0.24 0.03 0  0.25 0.03 0  0.26 0.03 0  0.27 0.03 0  0.28 0.03 0  0.29 0.03 0  0.3 0.03 0  0.31 0.03 0  0.32 0.03 0  0.33 0.03 0  0.34 0.03 0  0.35 0.03 0  0.36 0.03 0  0.37 0.03 0  0.38 0.03 0  0.39 0.03 0  0.4 0.03 0  0.41 0.03 0  0.42 0.03 0  0.43 0.03 0  0.44 0.03 0  0.45 0.03 0  0.46 0.03 0  0.47 0.03 0  0.48 0.03 0  0.49 0.03 0  0.5 0.03 0  0.51 0.03 0  0.52 0.03 0  0.53 0.03 0  0.54 0.03 0  0.55 0.03 0  0.5600000000000001 0.03 0  0.57 0.03 0  0.58 0.03 0  0.59 0.03 0  0.6 0.03 0  0.61 0.03 0  0.62 0.03 0  0.63 0.03 0  0.64 0.03 0  0.65 0.03 0  0.66 0.03 0  0.67 0.03 0  0.68 0.03 0  0.6899999999999999 0.03 0  0.7 0.03 0  0.71 0.03 0  0.72 0.03 0  0.73 0.03 0  0.74 0.03 0  0.75 0.03 0  0.76 0.03 0  0.77 0.03 0  0.78 0.03 0  0.79 0.03 0  0.8 0.03 0  0.8100000000000001 0.03 0  0.82 0.03 0  0.83 0.03 0  0.84 0.03 0  0.85 0.03 0  0.86 0.03 0  0.87 0.03 0  0.88 0.03 0  0.89 0.03 0  0.9 0.03 0  0.91 0.03 0  0.92 0.03 0  0.93 0.03 0  0.9399999999999999 0.03 0  0.95 0.03 0  0.96 0.03 0  0.97 0.03 0  0.98 0.03 0  0.99 0.03 0  1 0.03 0  0 0.04 0  0.01 0.04 0  0.02 0.04 0  0.03 0.04 0  0.04 0.04 0  0.05 0.04 0  0.06 0.04 0  0.07000000000000001 0.04 0  0.08 0.04 0  0.09 0.04 0  0.1 0.04 0  0.11 0.04 0  0.12 0.04 0  0.13 0.04 0  0.14 0.04 0  0.15 0.04 0  0.16 0.04 0  0.17 0.04 0  0.18 0.04 0  0.19 0.04 0  0.2 0.04 0  0.21 0.04 0  0.22 0.04 0  0.23 0.04 0  0.24 0.04 0  0.25 0.04 0  0.26 0.04 0  0.27 0.04 0  0.28 0.04 0  0.29 0.04 0  0.3 0.04 0  0.31 0.04 0  0.32 0.04 0  0.33 0.04 0  0.34 0.04 0  0.35 0.04 0  0.36 0.04 0  0.37 0.04 0  0.38 0.04 0  0.39 0.04 0  0.4 0.04 0  0.41 0.04 0  0.42 0.04 0  0.43 0.04 0  0.44 0.04 0  0.45 0.04 0  0.46 0.04 0  0.47 0.04 0  0.48 0.04 0  0.49 0.04 0  0.5 0.04 0  0.51 0.04 0  0.52 0.04 0  0.53 0.04 0  0.54 0.04 0  0.55 0.04 0  0.5600000000000001 0.04 0  0.57 0.04 0  0.58 0.04 0  0.59 0.04 0  0.6 0.04 0  0.61 0.04 0  0.62 0.04 0  0.63 0.04 0  0.64 0.04 0  0.65 0.04 0  0.66 0.04 0  0.67 0.04 0  0.68 0.04 0  0.6899999999999999 0.04 0  0.7 0.04 0  0.71 0.04 0  0.72 0.04 0  0.73 0.04 0  0.74 0.04 0  0.75 0.04 0  0.76 0.04 0  0.77 0.04 0  0.78 0.04 0  0.79 0.04 0  0.8 0.04 0  0.8100000000000001 0.04 0  0.82 0.04 0  0.83 0.04 0  0.84 0.04 0  0.85 0.04 0  0.86 0.04 0  0.87 0.04 0  0.88 0.04 0  0.89 0.04 0  0.9 0.04 0  0.91 0.04 0  0.92 0.04 0  0.93 0.04 0  0.9399999999999999 0.04 0  0.95 0.04 0  0.96 0.04 0  0.97 0.04 0  0.98 0.04 0  0.99 0.04 0  1 0.04 0  0 0.05 0  0.01 0.05 0  0.02 0.05 0  0.03 0.05 0  0.04 0.05 0  0.05 0.05 0  0.06 0.05 0  0.07000000000000001 0.05 0  0.08 0.05 0  0.09 0.05 0  0.1 0.05 0  0.11 0.05 0  0.12 0.05 0  0.13 0.05 0  0.14 0.05 0  0.15 0.05 0  0.16 0.05 0  0.17 0.05 0  0.18 0.05 0  0.19 0.05 0  0.2 0.05 0  0.21 0.05 0  0.22 0.05 0  0.23 0.05 0  0.24 0.05 0  0.25 0.05 0  0.26 0.05 0  0.27 0.05 0  0.28 0.05 0  0.29 0.05 0  0.3 0.05 0  0.31 0.05 0  0.32 0.05 0  0.33 0.05 0  0.34 0.05 0  0.35 0.05 0  0.36 0.05 0  0.37 0.05 0  0.38 0.05 0  0.39 0.05 0  0.4 0.05 0  0.41 0.05 0  0.42 0.05 0  0.43 0.05 0  0.44 0.05 0  0.45 0.05 0  0.46 0.05 0  0.47 0.05 0  0.48 0.05 0  0.49 0.05 0  0.5 0.05 0  0.51 0.05 0  0.52 0.05 0  0.53 0.05 0  0.54 0.05 0  0.55 0.05 0  0.5600000000000001 0.05 0  0.57 0.05 0  0.58 0.05 0  0.59 0.05 0  0.6 0.05 0  0.61 0.05 0  0.62 0.05 0  0.63 0.05 0  0.64 0.05 0  0.65 0.05 0  0.66 0.05 0  0.67 0.05 0  0.68 0.05 0  0.6899999999999999 0.05 0  0.7 0.05 0  0.71 0.05 0  0.72 0.05 0  0.73 0.05 0  0.74 0.05 0  0.75 0.05 0  0.76 0.05 0  0.77 0.05 0  0.78 0.05 0  0.79 0.05 0  0.8 0.05 0  0.8100000000000001 0.05 0  0.82 0.05 0  0.83 0.05 0  0.84 0.05 0  0.85 0.05 0  0.86 0.05 0  0.87 0.05 0  0.88 0.05 0  0.89 0.05 0  0.9 0.05 0  0.91 0.05 0  0.92 0.05 0  0.93 0.05 0  0.9399999999999999 0.05 0  0.95 0.05 0  0.96 0.05 0  0.97 0.05 0  0.98 0.05 0  0.99 0.05 0  1 0.05 0  0 0.06 0  0.01 0.06 0  0.02 0.06 0  0.03 0.06 0  0.04 0.06 0  0.05 0.06 0  0.06 0.06 0  0.07000000000000001 0.06 0  0.08 0.06 0  0.09 0.06 0  0.1 0.06 0  0.11 0.06 0  0.12 0.06 0  0.13 0.06 0  0.14 0.06 0  0.15 0.06 0  0.16 0.06 0  0.17 0.06 0  0.18 0.06 0  0.19 0.06 0  0.2 0.06 0  0.21 0.06 0  0.22 0.06 0  0.23 0.06 0  0.24 0.06 0  0.25 0.06 0  0.26 0.06 0  0.27 0.06 0  0.28 0.06 0  0.29 0.06 0  0.3 0.06 0  0.31 0.06 0  0.32 0.06 0  0.33 0.06 0  0.34 0.06 0  0.35 0.06 0  0.36 0.06 0  0.37 0.06 0  0.38 0.06 0  0.39 0.06 0  0.4 0.06 0  0.41 0.06 0  0.42 0.06 0  0.43 0.06 0  0.44 0.06 0  0.45 0.06 0  0.46 0.06 0  0.47 0.06 0  0.48 0.06 0  0.49 0.06 0  0.5 0.06 0  0.51 0.06 0  0.52 0.06 0  0.53 0.06 0  0.54 0.06 0  0.55 0.06 0  0.5600000000000001 0.06 0  0.57 0.06 0  0.58 0.06 0  0.59 0.06 0  0.6 0.06 0  0.61 0.06 0  0.62 0.06 0  0.63 0.06 0  0.64 0.06 0  0.65 0.06 0  0.66 0.06 0  0.67 0.06 0  0.68 0.06 0  0.6899999999999999 0.06 0  0.7 0.06 0  0.71 0.06 0  0.72 0.06 0  0.73 0.06 0  0.74 0.06 0  0.75 0.06 0  0.76 0.06 0  0.77 0.06 0  0.78 0.06 0  0.79 0.06 0  0.8 0.06 0  0.8100000000000001 0.06 0  0.82 0.06 0  0.83 0.06 0  0.84 0.06 0  0.85 0.06 0  0.86 0.06 0  0.87 0.06 0  0.88 0.06 0  0.89 0.06 0  0.9 0.06 0  0.91 0.06 0  0.92 0.06 0  0.93 0.06 0  0.9399999999999999 0.06 0  0.95 0.06 0  0.96 0.06 0  0.97 0.06 0  0.98 0.06 0  0.99 0.06 0  1 0.06 0  0 0.07000000000000001 0  0.01 0.07000000000000001 0  0.02 0.07000000000000001 0  0.03 0.07000000000000001 0  0.04 0.07000000000000001 0  0.05 0.07000000000000001 0  0.06 0.07000000000000001 0  0.07000000000000001 0.07000000000000001 0  0.08 0.07000000000000001 0  0.09 0.07000000000000001 0  0.1 0.07000000000000001 0  0.11 0.07000000000000001 0  0.12 0.07000000000000001 0  0.13 0.07000000000000001 0  0.14 0.07000000000000001 0  0.15 0.07000000000000001 0  0.16 0.07000000000000001 0  0.17 0.07000
[...]
<PointData  Scalars="rho_bar"> 
<DataArray  type="Float64"  Name="rho_bar"  format="ascii">9.9243462696566798e-01  9.9794975901886462e-01  9.9894165063107954e-01  1.0017673347510818e+00  1.0033601258976452e+00  1.0044435585883362e+00  1.0052207849739356e+00  1.0053789584301840e+00  1.0047750227855767e+00  1.0037156352314802e+00  1.0018908277648109e+00  9.9845594616007671e-01  9.9462355103722577e-01  9.9297716893354182e-01  9.9363526324090745e-01  9.9524801443114042e-01  9.9711036583808155e-01  9.9847696175195244e-01  9.9907681159328621e-01  9.9952678731551903e-01  1.0002874752022937e+00  1.0011579029740971e+00  1.0017285776440801e+00  1.0019074475180236e+00  1.0018567353701584e+00  1.0017041609268633e+00  1.0014538226445251e+00  1.0010595129636148e+00  1.0006212344961467e+00  1.0002416587094771e+00  9.9983647858339575e-01  9.9957555503463491e-01  9.9973153047216956e-01  9.9999875171220864e-01  1.0001001186403420e+00  9.9997602263432139e-01  9.9874376379269481e-01  1.0118215800761230e+00  9.3160665177334223e-01  1.2729178852488183e+00  8.5012663369192790e-02  4.6013609055107745e-03  -1.9841033214610154e-03  1.7481256975040759e-05  3.9714218592167651e-04  -2.5868654255022929e-04  -1.6292432765323458e-05  2.6719356291014371e-05  1.9401196042333991e-05  -2.8536766547718860e-06  -5.3740419442506805e-06  5.2116503946374461e-07  1.0533999621259381e-06  -2.6978905590542088e-07  -1.3657092536461386e-07  8.6688447678744728e-08  -6.7866494485007514e-09  -1.1196369488143592e-08  5.7131970823041586e-09  -8.8502242927983296e-10  -4.1315573061256209e-10  3.3288916324548160e-10  -1.1606592518221359e-10  1.7395389505316497e-11  5.7477424318475078e-12  -5.5324845427325314e-12  2.4898832085212089e-12  -7.8948601369331580e-13  1.7422545015357603e-13  -1.3819160086990886e-14  -1.0808300549592941e-14  7.8080602240445728e-15  -3.4764552829625432e-15  1.2602370378071025e-15  -4.0053896926288816e-16  1.1497024505803741e-16  -3.0137102423076040e-17  7.1880505736291536e-18  -1.5168896711366033e-18  2.5599717097418179e-19  -1.8167465267516326e-20  -1.1310756184478328e-20  8.0862082989707426e-21  -3.7044019163139241e-21  1.4429712593579377e-21  -5.1160522623692827e-22  1.6923408724699953e-22  -5.2766271574195487e-23  1.5568164250419326e-23  -4.3462744702672564e-24  1.1431822678131881e-24  -2.7980982025258248e-25  6.1890568821198610e-26  -1.1298929697552165e-26  1.1609379625960239e-27  3.5785363518827065e-28  -2.9504733314833810e-28  1.4357567662257862e-28  -6.5225174603385075e-29  1.3903723302820268e-29  -2.0383626955673483e-29  1.0202849636173186e+00  1.0060133847483756e+00  1.0044491993926261e+00  9.9886730182312777e-01  9.9467980564950265e-01  9.9213436997113902e-01  9.9024449879957310e-01  9.8918188772472038e-01  9.8968333304540346e-01  9.9144430170302345e-01  9.9407586727358010e-01  9.9916585870110020e-01  1.0072091133995458e+00  1.0132036759343528e+00  1.0137354101232332e+00  1.0112462084708302e+00  1.0076369336959885e+00  1.0041694806981394e+00  1.0023060453302897e+00  1.0014616453561014e+00  1.0002758492995425e+00  9.9851937994875950e-01  9.9699888470575204e-01  9.9628270711594180e-01  9.9620229382285974e-01  9.9642169584421381e-01  9.9681054236784938e-01  9.9744615275333059e-01  9.9833777978548255e-01  9.9914793088952336e-01  9.9989823644226827e-01  1.0006837209354829e+00  1.0008056094328250e+00  1.0002126457772393e+00  9.9987527452987390e-01  9.9983698237582752e-01  1.0008130085046831e+00  9.9705689876200387e-01  1.0023031532262232e+00  1.0605069196096748e+00  4.2286422946067187e-01  -5.6042110644515697e-02  1.4339768383688568e-03  2.2089218752737506e-03  -1.4678850773097545e-03  3.9706116233296953e-04  1.8857358873954178e-04  -2.3712697313963610e-05  -5.7999753197584765e-05  -1.2136674747538469e-05  1.3684127662812465e-05  3.6042539775936525e-06  -3.0074281049225134e-06  -2.7845977323446406e-07  6.2941242257006452e-07  -1.2814934236288463e-07  -6.0237213266792314e-08  4.2851122516993915e-08  -8.7252878694647579e-09  -2.3736074187360094e-09  2.3786540307297096e-09  -8.6312020587484637e-10  1.2906354403578931e-10  4.3991955135452505e-11  -4.1019032276218937e-11  1.7844352499384421e-11  -5.3657116913711680e-12  1.0570473440204613e-12  -2.0643632277905634e-14  -1.0038013129266663e-13  6.0129036751648016e-14  -2.4698585171396015e-14  8.4167824155400272e-15  -2.5215651975782295e-15  6.7935121026963558e-16  -1.6533794391354059e-16  3.5765244582410329e-17  -6.4330851290154521e-18  6.9592945523431505e-19  1.3271568587382841e-19  -1.3317863059431412e-19  6.5337819002011312e-20  -2.6364921964303614e-20  9.6138761177873688e-21  -3.2652601480099349e-21  1.0443499412115454e-21  -3.1563693580322887e-22  9.0120422967791919e-23  -2.4222733993914835e-23  6.0745142648882088e-24  -1.3913641132026884e-24  2.7485945502304290e-25  -3.7966412582488642e-26  -2.1509189060398964e-27  4.5219546067988834e-27  -2.5342304634050347e-27  1.0277242431163786e-27  -3.9329689957678864e-28  1.4270612358491409e-28  -2.5770299737458254e-29  2.6863530608526695e-29  9.2988880206326407e-01  9.7197000957924762e-01  9.7683113248082909e-01  9.9470157424536743e-01  1.0122566231486547e+00  1.0235354080588683e+00  1.0309303783055515e+00  1.0366220189777642e+00  1.0377590670197829e+00  1.0333607506398279e+00  1.0257235701103276e+00  1.0136045965501559e+00  9.8976849382670518e-01  9.6152779293797308e-01  9.5070490765986637e-01  9.5582031493975428e-01  9.6644681272341271e-01  9.7995751565734357e-01  9.8949529353619725e-01  9.9348353508222487e-01  9.9656109924241809e-01  1.0019885171376131e+00  1.0081750909881253e+00  1.0121430330944730e+00  1.0133235205191518e+00  1.0129941306953443e+00  1.0119019617516336e+00  1.0102089518723285e+00  1.0074524738462076e+00  1.0042460163382712e+00  1.0017674888912043e+00  9.9893330333729802e-01  9.9684849155667254e-01  9.9811439962684367e-01  1.0001985595626377e+00  1.0004012947524981e+00  9.9981238668330763e-01  9.9969589472373765e-01  1.0042812071042753e+00  9.8090779182965127e-01  9.8236290023192241e-01  -2.1617191220796209e-01  5.9868880024109020e-02  -1.7256565843203404e-02  6.0035649178761539e-03  -2.1686093450972360e-04  -1.0246501942893214e-03  -2.0516082785138312e-04  2.0643625266751690e-04  1.3129108624614544e-04  -3.0702931613704405e-05  -3.4641694994203019e-05  7.1923484755380797e-06  5.9518609480481283e-06  -2.6866975325094128e-06  -2.7680790604359163e-07  5.2641122860349638e-07  -1.5959152738709609e-07  -1.0569687641966189e-08  2.7927072166336269e-08  -1.2166968468209484e-08  2.4299500683344772e-09  3.2132015951618477e-10  -4.9339641105479467e-10  2.4007070415940621e-10  -7.8935950074093426e-11  1.8039321156261877e-11  -1.7038495172284247e-12  -9.5247641807316628e-13  7.3493156255254735e-13  -3.3254246933687276e-13  1.2147442592763100e-13  -3.8828493740894518e-14  1.1216344675546551e-14  -2.9668688707313910e-15  7.1796668206113115e-16  -1.5548674922708228e-16  2.7833168140214838e-17  -2.7467795543198452e-18  -7.9958863643697361e-19  7.0143619671642377e-19  -3.3824762373304400e-19  1.3524248373158997e-19  -4.8780099180058854e-20  1.6345218202991335e-20  -5.1504527169746435e-21  1.5338841203975224e-21  -4.3216173076755703e-22  1.1483104708514488e-22  -2.8491473030559763e-23  6.4365957681959323e-24  -1.2346926064369806e-24  1.5149395452329333e-25  2.1515236286019548e-26  -2.5756903997737122e-26  1.3448317461344754e-26  -5.3114051286140989e-27  2.0097807308577156e-27  -6.6895804357251593e-28  1.5343799935808444e-28  -1.1706440382621074e-28  1.2001763880686820e+00  1.1281256959091535e+00  1.1070258147287877e+00  1.0548358740068118e+00  9.8451209765927516e-01  9.3006088482834059e-01  8.9843484261576700e-01  8.7275411924417323e-01  8.5821240603036786e-01  8.6503208143589883e-01  8.8917919241910470e-01  9.2348739599714302e-01  9.8597486657474598e-01  1.0938606322931756e+00  1.1760765070188977e+00  1.1754049573683449e+00  1.1475394695439138e+00  1.0991186193832303e+00  1.0533877542621872e+00  1.0297239052448814e+00  1.0195508001892375e+00  1.0038730573184198e+00  9.8066442033065504e-01  9.6063521884004022e-01  9.5172637925975190e-01  9.5071033289526352e-01  9.5347541099430577e-01  9.5867749771597377e-01  9.6645766033096270e-01  9.7858859584235025e-01  9.8922963271559183e-01  9.9793994692980947e-01  1.0092622952207633e+00  1.0111097221067407e+00  1.0021385738028128e+00  9.9806645413489770e-01  9.9980257419845464e-01  1.0005759253449418e+00  9.9928520525822317e-01  9.9506381264235533e-01  1.0695829008085140e+00  4.8990391401488387e-01  -1.1805511610219373e-01  4.6897914543361480e-02  -1.2873861245039067e-02  -6.4151382815617634e-03  3.8082130800114471e-03  2.1760750970130807e-03  -2.9175707970855716e-04  -7.9127824417975787e-04  -1.0206516640580388e-04  1.8808591192081412e-04  2.5986459542164167e-05  -4.1047542221908894e-05  4.1166134687484144e-06  5.9775660349679244e-06  -2.6576953750076375e-06  1.2401399244702456e-07  3.3507972166382083e-07  -1.7412297523879298e-07  4.0396093639151798e-08  2.2436483234406765e-09  -6.4932342496091009e-09  3.3628162970713660e-09  -1.1368841935894303e-09  2.6581940690264725e-10  -2.7139051996919933e-11  -1.2935716157342753e-11  1.0380632869875293e-11  -4.7332601185029859e-12  1.7297133941682970e-12  -5.5061347208621964e-13  1.5770742801794882e-13  -4.1145433419903253e-14  9.7475107602880269e-15  -2.0383949061987703e-15  3.3893716743436008e-16  -2.2243822942081911e-17  -1.5853816571199870e-17  1.1038070067122221e-17  -5.0238400320050976e-18  1.9535220565970580e-18  -6.9287418305450993e-19  2.2947410654036225e-19  -7.1630167548074171e-20  2.1140794257382215e-20  -5.8962700721248073e-21  1.5468667920735565e-21  -3.7709506211544439e-22  8.2864294428814663e-23  -1.5034879369770290e-23  1.4583202459059149e-24  4.7825032817638867e-25  -4.1092972760574190e-25  1.9621859085259717e-25  -7.9011756314297122e-26  2.7402436529185958e-26  -9.4855977294151637e-27  2.7728491729158927e-27  -6.7172886570472133e-28  4.2018749310748530e-28  -2.3988866478133777e-02  2.7913035664729590e-02  1.0155715132202536e-02  -3.3990195893481200e-02  -9.5488052149967917e-02  -1.5672015678609949e-01  -1.8062957671460081e-01  -1.8423819087790283e-01  -1.8350223069866403e-01  -1.8302797645844096e-01  -1.8341244250976232e-01  -1.8103077662237663e-01  -1.6066007580913000e-01  -7.4828665089378132e-02  3.5861465749617287e-02  1.1464010912925578e-01  2.8775872974451272e-01  5.1693082381545885e-01  7.2084755763609121e-01  8.5727698461459867e-01  9.0783761627878379e-01  9.5108008581542303e-01  1.0268852924164120e+00  1.1144487142542450e+00  1.1690291252015965e+00  1.1837999771264003e+00  1.1804184378074072e+00  1.1644451302937884e+00  1.1414458857936001e+00  1.1048806293232047e+00  1.0562020114340307e+00  1.0258781440443594e+00  9.8728945416504377e-01  9.5230531057136281e-01  9.7467259657967686e-01  1.0050068251720556e+00  1.0040534477020688e+00  9.9827504619149354e-01  9.9967334087483339e-01  1.0049985877188614e+00  9.7056102902487207e-01  1.1216125209299599e+00  6.4605759797620199e-01  -1.9450582344959985e-01  1.4496675940161212e-03  4.6563729775495125e-02  -4.7939558989792000e-03  -1.2574748267727857e-02  -2.7683472925127462e-03  3.1328174931146324e-03  1.6709468791646113e-03  -5.5595170310328572e-04  -4.3114043495005161e-04  1.5563265451682635e-04  4.7405316380128135e-05  -4.0300184421216373e-05  5.9393755562210537e-06  3.6556133438499112e-06  -2.4439013464046425e-06  6.5369321424254782e-07  -1.7885626371327565e-09  -8.4468775980552436e-08  4.6841045050240668e-08  -1.6239374400948767e-08  3.8646713132577105e-09  -4.1867614879975660e-10  -1.7335180111508965e-10  1.4419905126913632e-10  -6.6161806837068616e-11  2.4203311828964375e-11  -7.6965525264693371e-12  2.1997566588330849e-12  -5.7242860509277091e-13  1.3529701030446435e-13  -2.8267199497933754e-14  4.7164874574924383e-15  -3.2366375935194666e-16  -2.1180044894741020e-16  1.4983361682360909e-16  -6.8591353107345107e-17  2.6786957498573557e-17  -9.5373569905417018e-18  3.1697502930356129e-18  -9.9249621784450707e-19  2.9369354465338634e-19  -8.2092559185618289e-20  2.1579465775507257e-20  -5.2729377956370596e-21  1.1633797878060054e-21  -2.1320981793329860e-22  2.1814418791039859e-23  6.1271200152251263e-24  -5.5223156108256713e-24  2.6886217753808521e-24  -1.0705215195847083e-24  3.8739312610087720e-25  -1.2463502906048513e-25  4.0580851596351005e-26  -1.0540926524205479e-26  2.7203353945448093e-27  -1.3674788221254266e-27  4.4672734002784830e-03  -2.7664974049593292e-04  -7.1025831617322344e-03  2.5804467362512511e-03  1.6973373351933992e-02  3.4497341263974669e-02  4.6284483817369056e-02  4.9255075892622666e-02  4.9305159990312812e-02  4.9074392730819795e-02  4.9102550128203429e-02  4.9056580505176292e-02  4.7291507561537396e-02  3.3349000733519221e-02  4.6753756842199878e-03  -1.9147228501635374e-02  -5.0702872819271431e-02  -1.0557619428492385e-01  -1.5222903660668013e-01  -1.7649900650783282e-01  -1.8647332730928232e-01  -1.7725987813417307e-01  -1.3010641143742169e-01  -4.3861075515135517e-02  3.5178774798273603e-02  8.4228593166293136e-02  1.2869409988719097e-01  2.2070482174793576e-01  3.6525709725839084e-01  5.1416811443113775e-01  6.9481484038130636e-01  8.6623388258482537e-01  9.4746105056735364e-01  1.1433862697181540e+00  1.1604462644646980e+00  1.0209576715968982e+00  9.7007030338367939e-01  1.0044581106218506e+00  1.0017863240966269e+00  9.9703886612161363e-01  1.0083862184106436e+00  9.7698618086083866e-01  1.0316747334008625e+00  1.0869246606610150e+00  3.1521252229014129e-01  -2.0696585396860209e-01  -4.9781811417306802e-02  4.7163492166182951e-02  2.9863012459032393e-02  -5.6953159466257052e-03  -1.0921153274825495e-02  -7.8805037958795752e-04  2.7979334084781010e-03  -2.4844121654311677e-05  -5.1015560419697802e-04  1.4732216457375943e-04  3.1040070513473337e-05  -3.3351623433393451e-05  1.0456150543038142e-05  -5.6114273681359275e-07  -1.0762833860249462e-06  6.5151720518538827e-07  -2.3239677367777394e-07  5.6308239683999484e-08  -6.4472916892674938e-09  -2.3086177440121884e-09  2.0004199113548894e-09  -9.2451236203945807e-10  3.3890643053106101e-10  -1.0778286931928357e-10  3.0773984957662441e-11  -7.9941915623091834e-12  1.8855328187907029e-12  -3.9310881330335535e-13  6.5460561469228211e-14  -4.4729395839672522e-15  -2.9442377577909480e-15  2.0809910441220098e-15  -9.5305155240148892e-16  3.7253929302787117e-16  -1.3279600220190548e-16  4.4188737273233800e-17  -1.3850985146184880e-17  4.1016887228147940e-18  -1.1467551769226003e-18  3.0133874704011915e-19  -7.3567029064611002e-20  1.6211207207565367e-20  -2.9670227170050190e-21  3.0311987378123135e-22  8.5175594908144604e-23  -7.6808824795354699e-23  3.7330560647654075e-23  -1.4948979347388324e-23  5.3427652249429882e-24  -1.7809398721633013e-24  5.3453082966493057e-25  -1.6308531321413668e-25  3.6859320420950375e-26  -1.0202199710114020e-26  3.6874723819648989e-27  -5.4714876927159143e-04  -8.5488857012850782e-04  1.2829340897783524e-03  1.0052578307389848e-03  -2.5016826915047895e-03  -6.9303548016600635e-03  -1.1101464573588278e-02  -1.3007733566679405e-02  -1.3244496618751380e-02  -1.3175465579635268e-02  -1.3148356835167600e-02  -1.3157442601932591e-02  -1.3132730667978385e-02  -1.1330388263929103e-02  -5.2375135378194045e-03  1.9854460775766839e-03  8.7292285593638524e-03  2.0613724176568923e-02  3.5153534416339102e-02  4.4674029598963855e-02  4.9122427738236621e-02  4.9686797782067367e-02  4.2619207948968341e-02  2.3900654409063912e-02  3.8196808298693433e-04  -1.6736168178856977e-02  -2.7733258614206429e-02  -4.4748778318496968e-02  -7.7022412888091848e-02  -1.1479281687947522e-01  -1.4889036066123368e-01  -1.7370475985455969e-01  -1.9455829609106548e-01  -7.6934485215502571e-02  9.9180795707794867e-02  6.2809997488261327e-01  1.1303797109983249e+00  1.0147095884297006e+00  9.8435659301400569e-01  1.0054800981083316e+00  9.9744223389734488e-01  1.0026557884964105e+00  1.0031906688003089e+00  9.6499247245230679e-01  1.0854705098894131e+00  1.0967624027108656e+00  5.0031565604742556e-01  -7.0569664278405941e-02  -1.7510738974863552e-01  -3.0195730829437495e-02  4.5061297241697496e-02  2.2145224361770556e-02  -1.0408697393953458e-02  -4.5789164176195298e-03  2.7157111236974997e-03  1.9706487667968176e-05  -4.3162907338593182e-04  1.6577891802972111e-04  -1.6760387385942489e-05  -1.3275461699524601e-05  9.0526590955550523e-06  -3.3372378993825810e-06  8.2307216659065465e-07  -9.8889238463086223e-08  -3.0717804923161332e-08  2.7776636206470069e-08  -1.2924053128942276e-08  4.7466917167794237e-09  -1.5097911365826672e-09  4.3061054032298006e-10  -1.1163524488789550e-10  2.6261636721018459e-11  -5.4592092559802102e-12  9.0598466510820973e-13  -6.1193570759700974e-14  -4.1017855974876383e-14  2.8889881807683959e-14  -1.3225330419233510e-14  5.1721376729932358e-15  -1.8453918636103792e-15  6.1476139633028011e-16  -1.9290901781118025e-16  5.7173981011836654e-17  -1.5990889433269601e-17  4.2012433442971937e-18  -1.0249370794253801e-18  2.2562581770410763e-19  -4.1260504154014764e-20  4.2207847103683210e-21  1.1765825181462626e-21  -1.0636246086094829e-21  5.1765538931699689e-22  -2.0725013490693198e-22  7.4419770759350894e-23  -2.4565526712173444e-23  7.6207543262708924e-24  -2.1292827544151656e-24  6.0336486476262599e-25  -1.1218895809955233e-25  3.4280623425955092e-26  -5.7936268385255451e-27  1.9641799817567852e-05  2.5287727791075890e-04  -4.9954837149128600e-05  -4.1878605967825440e-04  1.2812410257620786e-04  1.2532489292414494e-03  2.4613125299226134e-03  3.3037381986096245e-03  3.5490646838175865e-03  3.5408782920716636e-03  3.5252159185279451e-03  3.5208904150244051e-03  3.5457220663417501e-03  3.3904047406893125e-03  2.3216607536767730e-03  4.2398624210552129e-04  -1.3565249101939289e-03  -3.7679153687294989e-03  -7.5181254779811708e-03  -1.0885603263029654e-02  -1.2706489329985613e-02  -1.3416548800458242e-02  -1.2712555094962224e-02  -9.2232645344532665e-03  -3.2112695273989974e-03  2.4527027029630642e-03  5.9808630755596361e-03  9.3040646607139166e-03  1.5926293145494458e-02  2.5678228793313024e-02  3.5609029690066421e-02  4.3114223739042827e-02  5.1973272237363213e-02  3.8978495341943052e-02  6.7182646770898068e-03  -1.0359331121472076e-01  -1.4618593819148898e-01  7.3449930846833700e-01  1.0825116740369600e+00  9.8491379430935000e-01  1.0015815981909684e+00  1.0002040271260086e+00  9.9785593901131975e-01  1.0066907866503974e+00  9.9604025018106135e-01  9.6077787938862258e-01  1.0463068613396034e+00  1.1828233431208219e+00  9.2983615807066444e-01  3.7751709681620155e-01  -8.5935282908903357e-02  -1.5975198068787616e-01  3.9372660544528372e-03  3.8938727383680434e-02  -6.5453318944537937e-03  -4.6547251919282148e-03  2.6152376552320586e-03  -3.8931085570139193e-04  -1.5466163878514127e-04  1.2561597966095502e-04  -4.8150488979644595e-05  1.2084660128060025e-05  -1.5121978130706950e-06  -4.0922848013517848e-07  3.8629808323997692e-07  -1.8073959943912485e-07  6.6477549685687822e-08  -2.1148361002626392e-08  6.0261474181593742e-09  -1.5590969242574056e-09  3.6573650257830335e-10  -7.5788325933308014e-11  1.2533166355719745e-11  -8.3687346244668020e-13  -5.7105570695001405e-13  4.0089857420901371e-13  -1.8347537129299952e-13  7.1796444182763904e-14  -2.5643234434371124e-14  8.5531911875350907e-15  -2.6872268158227167e-15  7.9721602843663101e-16  -2.2309003398299824e-16  5.8608303029378289e-17  -1.4288894362524478e-17  3.1423272635441170e-18  -5.7415751911065833e-19  5.8828478489899660e-20  1.6243765876758557e-20  -1.4728736993660333e-20  7.1759846262477204e-21  -2.8767703507434605e-21  1.0333459882451053e-21  -3.4244207473216086e-22  1.0535753049489662e-22  -3.0398681185032002e-23  7.8071393412155880e-24  -2.0091529632597447e-24  2.5898997074791429e-25  -9.7275717545995188e-26  -1.7082558782493776e-26  1.0417536462695142e-05  -4.3437060959014134e-05  -4.1476229773878554e-05  7.9068514786301581e-05  6.7286657338806968e-05  -1.7406928159344385e-04  -5.0282343318921422e-04  -7.9021949894919337e-04  -9.3338876618104488e-0