<?xml version="1.0"?>
<VTKFile type="UnstructuredGrid"  version="0.1"  >
<UnstructuredGrid>
<Piece  NumberOfPoints="5151" NumberOfCells="10000">
<Points>
<DataArray  type="Float64"  NumberOfComponents="3"  format="ascii">0 0 0  0.01 0 0  0.02 0 0  0.03 0 0  0.04 0 0  0.05 0 0  0.06 0 0  0.07000000000000001 0 0  0.08 0 0  0.09 0 0  0.1 0 0  0.11 0 0  0.12 0 0  0.13 0 0  0.14 0 0  0.15 0 0  0.16 0 0  0.17 0 0  0.18 0 0  0.19 0 0  0.2 0 0  0.21 0 0  0.22 0 0  0.23 0 0  0.24 0 0  0.25 0 0  0.26 0 0  0.27 0 0  0.28 0 0  0.29 0 0  0.3 0 0  0.31 0 0  0.32 0 0  0.33 0 0  0.34 0 0  0.35 0 0  0.36 0 0  0.37 0 0  0.38 0 0  0.39 0 0  0.4 0 0  0.41 0 0  0.42 0 0  0.43 0 0  0.44 0 0  0.45 0 0  0.46 0 0  0.47 0 0  0.48 0 0  0.49 0 0  0.5 0 0  0.51 0 0  0.52 0 0  0.53 0 0  0.54 0 0  0.55 0 0  0.5600000000000001 0 0  0.57 0 0  0.58 0 0  0.59 0 0  0.6 0 0  0.61 0 0  0.62 0 0  0.63 0 0  0.64 0 0  0.65 0 0  0.66 0 0  0.67 0 0  0.68 0 0  0.6899999999999999 0 0  0.7 0 0  0.71 0 0  0.72 0 0  0.73 0 0  0.74 0 0  0.75 0 0  0.76 0 0  0.77 0 0  0.78 0 0  0.79 0 0  0.8 0 0  0.8100000000000001 0 0  0.82 0 0  0.83 0 0  0.84 0 0  0.85 0 0  0.86 0 0  0.87 0 0  0.88 0 0  0.89 0 0  0.9 0 0  0.91 0 0  0.92 0 0  0.93 0 0  0.9399999999999999 0 0  0.95 0 0  0.96 0 0  0.97 0 0  0.98 0 0  0.99 0 0  1 0 0  0 0.01 0  0.01 0.01 0  0.02 0.01 0  0.03 0.01 0  0.04 0.01 0  0.05 0.01 0  0.06 0.01 0  0.07000000000000001 0.01 0  0.08 0.01 0  0.09 0.01 0  0.1 0.01 0  0.11 0.01 0  0.12 0.01 0  0.13 0.01 0  0.14 0.01 0  0.15 0.01 0  0.16 0.01 0  0.17 0.01 0  0.18 0.01 0  0.19 0.01 0  0.2 0.01 0  0.21 0.01 0  0.22 0.01 0  0.23 0.01 0  0.24 0.01 0  0.25 0.01 0  0.26 0.01 0  0.27 0.01 0  0.28 0.01 0  0.29 0.01 0  0.3 0.01 0  0.31 0.01 0  0.32 0.01 0  0.33 0.01 0  0.34 0.01 0  0.35 0.01 0  0.36 0.01 0  0.37 0.01 0  0.38 0.01 0  0.39 0.01 0  0.4 0.01 0  0.41 0.01 0  0.42 0.01 0  0.43 0.01 0  0.44 0.01 0  0.45 0.01 0  0.46 0.01 0  0.47 0.01 0  0.48 0.01 0  0.49 0.01 0  0.5 0.01 0  0.51 0.01 0  0.52 0.01 0  0.53 0.01 0  0.54 0.01 0  0.55 0.01 0  0.5600000000000001 0.01 0  0.57 0.01 0  0.58 0.01 0  0.59 0.01 0  0.6 0.01 0  0.61 0.01 0  0.62 0.01 0  0.63 0.01 0  0.64 0.01 0  0.65 0.01 0  0.66 0.01 0  0.67 0.01 0  0.68 0.01 0  0.6899999999999999 0.01 0  0.7 0.01 0  0.71 0.01 0  0.72 0.01 0  0.73 0.01 0  0.74 0.01 0  0.75 0.01 0  0.76 0.01 0  0.77 0.01 0  0.78 0.01 0  0.79 0.01 0  0.8 0.01 0  0.8100000000000001 0.01 0  0.82 0.01 0  0.83 0.01 0  0.84 0.01 0  0.85 0.01 0  0.86 0.01 0  0.87 0.01 0  0.88 0.01 0  0.89 0.01 0  0.9 0.01 0  0.91 0.01 0  0.92 0.01 0  0.93 0.01 0  0.9399999999999999 0.01 0  0.95 0.01 0  0.96 0.01 0  0.97 0.01 0  0.98 0.01 0  0.99 0.01 0  1 0.01 0  0 0.02 0  0.01 0.02 0  0.02 0.02 0  0.03 0.02 0  0.04 0.02 0  0.05 0.02 0  0.06 0.02 0  0.07000000000000001 0.02 0  0.08 0.02 0  0.09 0.02 0  0.1 0.02 0  0.11 0.02 0  0.12 0.02 0  0.13 0.02 0  0.14 0.02 0  0.15 0.02 0  0.16 0.02 0  0.17 0.02 0  0.18 0.02 0  0.19 0.02 0  0.2 0.02 0  0.21 0.02 0  0.22 0.02 0  0.23 0.02 0  0.24 0.02 0  0.25 0.02 0  0.26 0.02 0  0.27 0.02 0  0.28 0.02 0  0.29 0.02 0  0.3 0.02 0  0.31 0.02 0  0.32 0.02 0  0.33 0.02 0  0.34 0.02 0  0.35 0.02 0  0.36 0.02 0  0.37 0.02 0  0.38 0.02 0  0.39 0.02 0  0.4 0.02 0  0.41 0.02 0  0.42 0.02 0  0.43 0.02 0  0.44 0.02 0  0.45 0.02 0  0.46 0.02 0  0.47 0.02 0  0.48 0.02 0  0.49 0.02 0  0.5 0.02 0  0.51 0.02 0  0.52 0.02 0  0.53 0.02 0  0.54 0.02 0  0.55 0.02 0  0.5600000000000001 0.02 0  0.57 0.02 0  0.58 0.02 0  0.59 0.02 0  0.6 0.02 0  0.61 0.02 0  0.62 0.02 0  0.63 0.02 0  0.64 0.02 0  0.65 0.02 0  0.66 0.02 0  0.67 0.02 0  0.68 0.02 0  0.6899999999999999 0.02 0  0.7 0.02 0  0.71 0.02 0  0.72 0.02 0  0.73 0.02 0  0.74 0.02 0  0.75 0.02 0  0.76 0.02 0  0.77 0.02 0  0.78 0.02 0  0.79 0.02 0  0.8 0.02 0  0.8100000000000001 0.02 0  0.82 0.02 0  0.83 0.02 0  0.84 0.02 0  0.85 0.02 0  0.86 0.02 0  0.87 0.02 0  0.88 0.02 0  0.89 0.02 0  0.9 0.02 0  0.91 0.02 0  0.92 0.02 0  0.93 0.02 0  0.9399999999999999 0.02 0  0.95 0.02 0  0.96 0.02 0  0.97 0.02 0  0.98 0.02 0  0.99 0.02 0  1 0.02 0  0 0.03 0  0.01 0.03 0  0.02 0.03 0  0.03 0.03 0  0.04 0.03 0  0.05 0.03 0  0.06 0.03 0  0.07000000000000001 0.03 0  0.08 0.03 0  0.09 0.03 0  0.1 0.03 0  0.11 0.03 0  0.12 0.03 0  0.13 0.03 0  0.14 0.03 0  0.15 0.03 0  0.16 0.03 0  0.17 0.03 0  0.18 0.03 0  0.19 0.03 0  0.2 0.03 0  0.21 0.03 0  0.22 0.03 0  0.23 0.03 0  0.24 0.03 0  0.25 0.03 0  0.26 0.03 0  0.27 0.03 0  0.28 0.03 0  0.29 0.03 0  0.3 0.03 0  0.31 0.03 0  0.32 0.03 0  0.33 0.03 0  0.34 0.03 0  0.35 0.03 0  0.36 0.03 0  0.37 0.03 0  0.38 0.03 0  0.39 0.03 0  0.4 0.03 0  0.41 0.03 0  0.42 0.03 0  0.43 0.03 0  0.44 0.03 0  0.45 0.03 0  0.46 0.03 0  0.47 0.03 0  0.48 0.03 0  0.49 0.03 0  0.5 0.03 0  0.51 0.03 0  0.52 0.03 0  0.53 0.03 0  0.54 0.03 0  0.55 0.03 0  0.5600000000000001 0.03 0  0.57 0.03 0  0.58 0.03 0  0.59 0.03 0  0.6 0.03 0  0.61 0.03 0  0.62 0.03 0  0.63 0.03 0  0.64 0.03 0  0.65 0.03 0  0.66 0.03 0  0.67 0.03 0  0.68 0.03 0  0.6899999999999999 0.03 0  0.7 0.03 0  0.71 0.03 0  0.72 0.03 0  0.73 0.03 0  0.74 0.03 0  0.75 0.03 0  0.76 0.03 0  0.77 0.03 0  0.78 0.03 0  0.79 0.03 0  0.8 0.03 0  0.8100000000000001 0.03 0  0.82 0.03 0  0.83 0.03 0  0.84 0.03 0  0.85 0.03 0  0.86 0.03 0  0.87 0.03 0  0.88 0.03 0  0.89 0.03 0  0.9 0.03 0  0.91 0.03 0  0.92 0.03 0  0.93 0.03 0  0.9399999999999999 0.03 0  0.95 0.03 0  0.96 0.03 0  0.97 0.03 0  0.98 0.03 0  0.99 0.03 0  1 0.03 0  0 0.04 0  0.01 0.04 0  0.02 0.04 0  0.03 0.04 0  0.04 0.04 0  0.05 0.04 0  0.06 0.04 0  0.07000000000000001 0.04 0  0.08 0.04 0  0.09 0.04 0  0.1 0.04 0  0.11 0.04 0  0.12 0.04 0  0.13 0.04 0  0.14 0.04 0  0.15 0.04 0  0.16 0.04 0  0.17 0.04 0  0.18 0.04 0  0.19 0.04 0  0.2 0.04 0  0.21 0.04 0  0.22 0.04 0  0.23 0.04 0  0.24 0.04 0  0.25 0.04 0  0.26 0.04 0  0.27 0.04 0  0.28 0.04 0  0.29 0.04 0  0.3 0.04 0  0.31 0.04 0  0.32 0.04 0  0.33 0.04 0  0.34 0.04 0  0.35 0.04 0  0.36 0.04 0  0.37 0.04 0  0.38 0.04 0  0.39 0.04 0  0.4 0.04 0  0.41 0.04 0  0.42 0.04 0  0.43 0.04 0  0.44 0.04 0  0.45 0.04 0  0.46 0.04 0  0.47 0.04 0  0.48 0.04 0  0.49 0.04 0  0.5 0.04 0  0.51 0.04 0  0.52 0.04 0  0.53 0.04 0  0.54 0.04 0  0.55 0.04 0  0.5600000000000001 0.04 0  0.57 0.04 0  0.58 0.04 0  0.59 0.04 0  0.6 0.04 0  0.61 0.04 0  0.62 0.04 0  0.63 0.04 0  0.64 0.04 0  0.65 0.04 0  0.66 0.04 0  0.67 0.04 0  0.68 0.04 0  0.6899999999999999 0.04 0  0.7 0.04 0  0.71 0.04 0  0.72 0.04 0  0.73 0.04 0  0.74 0.04 0  0.75 0.04 0  0.76 0.04 0  0.77 0.04 0  0.78 0.04 0  0.79 0.04 0  0.8 0.04 0  0.8100000000000001 0.04 0  0.82 0.04 0  0.83 0.04 0  0.84 0.04 0  0.85 0.04 0  0.86 0.04 0  0.87 0.04 0  0.88 0.04 0  0.89 0.04 0  0.9 0.04 0  0.91 0.04 0  0.92 0.04 0  0.93 0.04 0  0.9399999999999999 0.04 0  0.95 0.04 0  0.96 0.04 0  0.97 0.04 0  0.98 0.04 0  0.99 0.04 0  1 0.04 0  0 0.05 0  0.01 0.05 0  0.02 0.05 0  0.03 0.05 0  0.04 0.05 0  0.05 0.05 0  0.06 0.05 0  0.07000000000000001 0.05 0  0.08 0.05 0  0.09 0.05 0  0.1 0.05 0  0.11 0.05 0  0.12 0.05 0  0.13 0.05 0  0.14 0.05 0  0.15 0.05 0  0.16 0.05 0  0.17 0.05 0  0.18 0.05 0  0.19 0.05 0  0.2 0.05 0  0.21 0.05 0  0.22 0.05 0  0.23 0.05 0  0.24 0.05 0  0.25 0.05 0  0.26 0.05 0  0.27 0.05 0  0.28 0.05 0  0.29 0.05 0  0.3 0.05 0  0.31 0.05 0  0.32 0.05 0  0.33 0.05 0  0.34 0.05 0  0.35 0.05 0  0.36 0.05 0  0.37 0.05 0  0.38 0.05 0  0.39 0.05 0  0.4 0.05 0  0.41 0.05 0  0.42 0.05 0  0.43 0.05 0  0.44 0.05 0  0.45 0.05 0  0.46 0.05 0  0.47 0.05 0  0.48 0.05 0  0.49 0.05 0  0.5 0.05 0  0.51 0.05 0  0.52 0.05 0  0.53 0.05 0  0.54 0.05 0  0.55 0.05 0  0.5600000000000001 0.05 0  0.57 0.05 0  0.58 0.05 0  0.59 0.05 0  0.6 0.05 0  0.61 0.05 0  0.62 0.05 0  0.63 0.05 0  0.64 0.05 0  0.65 0.05 0  0.66 0.05 0  0.67 0.05 0  0.68 0.05 0  0.6899999999999999 0.05 0  0.7 0.05 0  0.71 0.05 0  0.72 0.05 0  0.73 0.05 0  0.74 0.05 0  0.75 0.05 0  0.76 0.05 0  0.77 0.05 0  0.78 0.05 0  0.79 0.05 0  0.8 0.05 0  0.8100000000000001 0.05 0  0.82 0.05 0  0.83 0.05 0  0.84 0.05 0  0.85 0.05 0  0.86 0.05 0  0.87 0.05 0  0.88 0.05 0  0.89 0.05 0  0.9 0.05 0  0.91 0.05 0  0.92 0.05 0  0.93 0.05 0  0.9399999999999999 0.05 0  0.95 0.05 0  0.96 0.05 0  0.97 0.05 0  0.98 0.05 0  0.99 0.05 0  1 0.05 0  0 0.06 0  0.01 0.06 0  0.02 0.06 0  0.03 0.06 0  0.04 0.06 0  0.05 0.06 0  0.06 0.06 0  0.07000000000000001 0.06 0  0.08 0.06 0  0.09 0.06 0  0.1 0.06 0  0.11 0.06 0  0.12 0.06 0  0.13 0.06 0  0.14 0.06 0  0.15 0.06 0  0.16 0.06 0  0.17 0.06 0  0.18 0.06 0  0.19 0.06 0  0.2 0.06 0  0.21 0.06 0  0.22 0.06 0  0.23 0.06 0  0.24 0.06 0  0.25 0.06 0  0.26 0.06 0  0.27 0.06 0  0.28 0.06 0  0.29 0.06 0  0.3 0.06 0  0.31 0.06 0  0.32 0.06 0  0.33 0.06 0  0.34 0.06 0  0.35 0.06 0  0.36 0.06 0  0.37 0.06 0  0.38 0.06 0  0.39 0.06 0  0.4 0.06 0  0.41 0.06 0  0.42 0.06 0  0.43 0.06 0  0.44 0.06 0  0.45 0.06 0  0.46 0.06 0  0.47 0.06 0  0.48 0.06 0  0.49 0.06 0  0.5 0.06 0  0.51 0.06 0  0.52 0.06 0  0.53 0.06 0  0.54 0.06 0  0.55 0.06 0  0.5600000000000001 0.06 0  0.57 0.06 0  0.58 0.06 0  0.59 0.06 0  0.6 0.06 0  0.61 0.06 0  0.62 0.06 0  0.63 0.06 0  0.64 0.06 0  0.65 0.06 0  0.66 0.06 0  0.67 0.06 0  0.68 0.06 0  0.6899999999999999 0.06 0  0.7 0.06 0  0.71 0.06 0  0.72 0.06 0  0.73 0.06 0  0.74 0.06 0  0.75 0.06 0  0.76 0.06 0  0.77 0.06 0  0.78 0.06 0  0.79 0.06 0  0.8 0.06 0  0.8100000000000001 0.06 0  0.82 0.06 0  0.83 0.06 0  0.84 0.06 0  0.85 0.06 0  0.86 0.06 0  0.87 0.06 0  0.88 0.06 0  0.89 0.06 0  0.9 0.06 0  0.91 0.06 0  0.92 0.06 0  0.93 0.06 0  0.9399999999999999 0.06 0  0.95 0.06 0  0.96 0.06 0  0.97 0.06 0  0.98 0.06 0  0.99 0.06 0  1 0.06 0  0 0.07000000000000001 0  0.01 0.07000000000000001 0  0.02 0.07000000000000001 0  0.03 0.07000000000000001 0  0.04 0.07000000000000001 0  0.05 0.07000000000000001 0  0.06 0.07000000000000001 0  0.07000000000000001 0.07000000000000001 0  0.08 0.07000000000000001 0  0.09 0.07000000000000001 0  0.1 0.07000000000000001 0  0.11 0.07000000000000001 0  0.12 0.07000000000000001 0  0.13 0.07000000000000001 0  0.14 0.07000000000000001 0  0.15 0.07000000000000001 0  0.16 0.07000000000000001 0  0.17 0.07000
[...]
<PointData  Scalars="rho_bar"> 
<DataArray  type="Float64"  Name="rho_bar"  format="ascii">9.9200349204909422e-01  9.9715042538185916e-01  9.9736902345217882e-01  1.0000613976474844e+00  1.0021816940752089e+00  1.0039093762969362e+00  1.0050818631033014e+00  1.0055624911134289e+00  1.0051975769127035e+00  1.0040500826686125e+00  1.0021904826808006e+00  9.9950052101592546e-01  9.9639739684596074e-01  9.9424280536499920e-01  9.9389586784034989e-01  9.9490230433427451e-01  9.9643379235056551e-01  9.9782981868718423e-01  9.9876937349821604e-01  9.9942790195912423e-01  1.0000905450319231e+00  1.0007726376817434e+00  1.0013135636165140e+00  1.0016204395124224e+00  1.0017267270881791e+00  1.0017007073748623e+00  1.0015745098807323e+00  1.0013277136666283e+00  1.0009571623438107e+00  1.0005151792103639e+00  1.0000350906298174e+00  9.9967819788058687e-01  9.9970450387143373e-01  9.9994953007368881e-01  1.0000914354577741e+00  9.9993547366678626e-01  9.9939200965098485e-01  1.0074378624848714e+00  9.5209586608151875e-01  1.2094583040550795e+00  2.6825803731353443e-01  -9.7992777904657713e-03  -2.9426423398132284e-03  6.8798043571563982e-04  2.1493373365572021e-04  -2.0814508004499504e-04  -2.1132929940317670e-05  2.3890467324501094e-05  1.8368124966146441e-05  -1.8272733134891574e-06  -4.8529469257902203e-06  2.2079834899475788e-07  9.5449138214015198e-07  -1.8610365908557152e-07  -1.3457214314745781e-07  7.0541610992438473e-08  -1.1690993780934324e-09  -1.0874935286824693e-08  4.6880648839916559e-09  -4.4554624988021507e-10  -4.8309649709873218e-10  3.0693392590715507e-10  -9.2359034734988002e-11  7.7210472774583805e-12  8.1084666024107356e-12  -5.6348236936662241e-12  2.2419993367744979e-12  -6.2586886680481935e-13  1.0526242994270592e-13  8.5679101384805442e-15  -1.6443033789301323e-14  8.7403205137035472e-15  -3.4469831850536915e-15  1.1537882573598988e-15  -3.4327955553705992e-16  9.2400439255048981e-17  -2.2483831838305211e-17  4.8130035464667627e-18  -8.1773199767362489e-19  5.6291862396948189e-20  3.7697231035440692e-20  -2.6513080072414899e-20  1.2015377914565326e-20  -4.6256365972633186e-21  1.6203208171882749e-21  -5.3010537360224045e-22  1.6383580995723700e-22  -4.8051314073881438e-23  1.3371982376758610e-23  -3.5124428616852431e-24  8.5906944732096209e-25  -1.8933411729201972e-25  3.4389101317103982e-26  -3.2684041244577935e-27  -1.0947482230335972e-27  9.5670797672161595e-28  -4.3975116442812360e-28  1.7765963419854239e-28  -6.7995121769197188e-29  1.5370490819849472e-29  -1.9179566590944894e-29  1.0209977389323914e+00  1.0069189169016248e+00  1.0069435201663248e+00  1.0023434596546610e+00  9.9769693529552306e-01  9.9377251800966115e-01  9.9086746121361546e-01  9.8915085694728222e-01  9.8902174639302820e-01  9.9057900752432393e-01  9.9357649481132015e-01  9.9807657568733488e-01  1.0041277963473565e+00  1.0098082743842758e+00  1.0123166367489966e+00  1.0114231851456237e+00  1.0087050627015266e+00  1.0056274947154713e+00  1.0032814645246442e+00  1.0017815538629009e+00  1.0005047806278384e+00  9.9912331428013579e-01  9.9785671826273858e-01  9.9700605224521888e-01  9.9661248384080281e-01  9.9654676143752996e-01  9.9670049794576154e-01  9.9706176188684081e-01  9.9768926099836863e-01  9.9851780553012004e-01  9.9944053035100544e-01  1.0003575092134516e+00  1.0007380998937419e+00  1.0003345245144890e+00  9.9991891559950563e-01  9.9986427615639428e-01  1.0005875802869564e+00  9.9754972265847153e-01  1.0043927489819908e+00  1.0308614770502411e+00  6.0598158426694149e-01  -1.0456308428578460e-01  1.2850784767774747e-02  5.3963922400747366e-04  -1.2397100040155225e-03  3.5499124123094611e-04  1.7254359896769062e-04  -1.7017502726042131e-05  -5.3271496757249971e-05  -1.2864475146463222e-05  1.1588706066752569e-05  3.7733721928652938e-06  -2.4865394680245320e-06  -3.9428202335051842e-07  5.4263338111088558e-07  -8.1135927621945409e-08  -6.2618284092594449e-08  3.6292244374067805e-08  -5.4269212665427430e-09  -2.9770326170797746e-09  2.2111871732739570e-09  -6.9259151999122954e-10  5.9517508186623928e-11  6.0232109426033420e-11  -4.1269967192119893e-11  1.5901455592991594e-11  -4.1722174815855249e-12  5.7656575149755144e-13  1.2740996555830517e-13  -1.3454677705325198e-13  6.4433348561107939e-14  -2.3758362519295991e-14  7.4824094653628454e-15  -2.0885142957334905e-15  5.2228089394916767e-16  -1.1553657564546162e-16  2.1216951567997165e-17  -2.3721774538393698e-18  -4.1605126757150160e-19  4.3459955616052156e-19  -2.1345776003227383e-19  8.5476675763685017e-20  -3.0793740021443663e-20  1.0316964612586578e-20  -3.2579041866734185e-21  9.7481272054137185e-22  -2.7657491330740585e-22  7.4145827273755513e-23  -1.8595781219108976e-23  4.2617125566164792e-24  -8.3990988360052941e-25  1.1359003112627344e-25  7.6830464307527163e-27  -1.4549089673825940e-26  7.7071255001640566e-27  -3.2670327571951613e-27  1.1641585207611726e-27  -4.1208883293688050e-28  1.3298307343991342e-28  -2.5512770641517716e-29  2.2988642362040313e-29  9.2687639640148056e-01  9.7064756240751737e-01  9.7074321349757553e-01  9.8381311571565755e-01  1.0000541888631671e+00  1.0154034686126856e+00  1.0273033139407641e+00  1.0355733067949608e+00  1.0389825947289828e+00  1.0363908011740144e+00  1.0282833555574462e+00  1.0153568910067057e+00  9.9678531891899358e-01  9.7466343345652462e-01  9.5940144825763862e-01  9.5732822444673016e-01  9.6431263559206160e-01  9.7507014717989859e-01  9.8491471982807399e-01  9.9138824114560153e-01  9.9593891020291925e-01  1.0006090886675603e+00  1.0054263429794255e+00  1.0092177790869123e+00  1.0113427019324213e+00  1.0120824145908545e+00  1.0118966004523373e+00  1.0110166712468118e+00  1.0093207749140869e+00  1.0066792156529250e+00  1.0036118182538283e+00  1.0003194150510533e+00  9.9764361090976272e-01  9.9785305424552495e-01  9.9982874922719644e-01  1.0004179909709114e+00  9.9986294707332246e-01  9.9987008901995489e-01  1.0030213706844584e+00  9.8267385816339203e-01  1.0218815999793360e+00  -1.5250483070881046e-01  5.8110263247217464e-02  -1.8363363648973615e-02  5.7692867365058262e-03  -1.2857029325750367e-04  -9.4099938737423434e-04  -2.0295793452109365e-04  1.8303331130289851e-04  1.2421905482383469e-04  -2.1890264907182438e-05  -3.1870648300455669e-05  4.7603971213313265e-06  5.6044597861661801e-06  -2.0632492822040043e-06  -3.9645725125581605e-07  4.6728825212421670e-07  -1.1610737593511787e-07  -2.1556850285233803e-08  2.6990036530335293e-08  -1.0154625368699294e-08  1.4857692131055006e-09  5.7523779657287315e-10  -5.1455832629958761e-10  2.1955611620641260e-10  -6.3899391952587227e-11  1.1459200159598483e-11  4.8890774231725249e-13  -1.5196252052450209e-12  8.3375287431300752e-13  -3.3214586619409232e-13  1.1172603805081326e-13  -3.3388907685910270e-14  9.0479903801128028e-15  -2.2284000373300771e-15  4.8825684319118271e-16  -8.7656118553566535e-17  8.3465548281406972e-18  2.7564378863083311e-18  -2.3178239319936117e-18  1.1011757579109339e-18  -4.3449452307388582e-19  1.5470181758246910e-19  -5.1235315672228618e-20  1.5995430887524183e-20  -4.7344673205365694e-21  1.3298546536831258e-21  -3.5309415800881382e-22  8.7605393009439766e-23  -1.9758913828035004e-23  3.7647900759722405e-24  -4.4725994774753371e-25  -7.1788731869273254e-26  8.1594527807225188e-26  -4.0810858887832911e-26  1.6747380665360881e-26  -5.8784278968031570e-27  2.0556415500746671e-27  -6.1815861642488871e-28  1.4819726693446092e-28  -9.8467727937960486e-29  1.2170592486388159e+00  1.1294990539437384e+00  1.1208117303751841e+00  1.0860223620329188e+00  1.0303674445738327e+00  9.6882112938464271e-01  9.1750463431201590e-01  8.7860579421388141e-01  8.5478857818201381e-01  8.5284739080568739e-01  8.7414937744843357e-01  9.1461004718649441e-01  9.7330611292111979e-01  1.0522546509759616e+00  1.1290437283049657e+00  1.1602174217293879e+00  1.1482874888878185e+00  1.1132863471790551e+00  1.0727248555406050e+00  1.0424166310873402e+00  1.0233361872894144e+00  1.0067462434159438e+00  9.8860568423454243e-01  9.7202927004460427e-01  9.6103219835566955e-01  9.5599283965639903e-01  9.5511411455977446e-01  9.5715993194246995e-01  9.6176040241564664e-01  9.6986803674494804e-01  9.8091700882539146e-01  9.9245511465378811e-01  1.0045749261062198e+00  1.0102953299264463e+00  1.0040413599952906e+00  9.9846165926628094e-01  9.9955550679477378e-01  1.0005268741451137e+00  9.9923096813519630e-01  9.9815386317653532e-01  1.0437983970688458e+00  6.0489529811660037e-01  -1.2633344435838664e-01  4.1765257155461241e-02  -8.8520407324550465e-03  -6.5716573498595283e-03  3.3995107568205920e-03  2.0504789608492518e-03  -2.3029137365280689e-04  -7.1888061496938160e-04  -1.2144078846448771e-04  1.6170974046394684e-04  3.1281938865020403e-05  -3.4864965803559635e-05  1.4218807388102691e-06  5.6012610617430251e-06  -2.0880539776172810e-06  -5.9356696222545310e-08  3.3659558971279662e-07  -1.4900247170413625e-07  2.7177682059680103e-08  6.0401098528806847e-09  -6.8939332126699955e-09  3.1043695582314484e-09  -9.3156313082586511e-10  1.7372200960565085e-10  4.0275373429899308e-12  -2.1101492201716912e-11  1.1824122523547909e-11  -4.7330076257639228e-12  1.5893982628199193e-12  -4.7188854952704150e-13  1.2639210906035245e-13  -3.0556738321883722e-14  6.4922085948178781e-15  -1.0918221923570754e-15  7.1592970789916417e-17  5.2059966589623813e-17  -3.6084389005367597e-17  1.6305259512781392e-17  -6.2744778536280038e-18  2.1985999651016483e-18  -7.1952931788315441e-19  2.2236531539220954e-19  -6.5173894419973982e-20  1.8112031661680892e-20  -4.7474218135367261e-21  1.1576175627493872e-21  -2.5408357535541882e-22  4.5754243080982538e-23  -4.2368745356920656e-24  -1.5674948173747949e-24  1.2843730122312860e-24  -6.0924827863236394e-25  2.3914674578919326e-25  -8.5781536761119102e-26  2.7546446810620964e-26  -8.9760274088035730e-27  2.3866949337593208e-27  -6.0247629272214835e-28  3.2244873267983617e-28  1.2414618733014459e-02  7.2700800669038473e-02  5.4465076435116458e-02  1.2037678381047129e-02  -4.1329117440100462e-02  -1.0049102782668698e-01  -1.4320665331119437e-01  -1.6174670872725666e-01  -1.6685545504659638e-01  -1.6719580735437350e-01  -1.6565176343030943e-01  -1.5954799483299895e-01  -1.3913273345390742e-01  -8.6206602041991903e-02  1.2479391017565058e-03  1.0115145020304848e-01  2.4330280527375850e-01  4.4042422341869025e-01  6.3519425688140929e-01  7.8614578532321699e-01  8.7835125571624384e-01  9.4212045131989364e-01  1.0077826445875879e+00  1.0753261133796230e+00  1.1280309280450811e+00  1.1571123271155104e+00  1.1673221182745679e+00  1.1648437883292833e+00  1.1524003456046952e+00  1.1296678234731792e+00  1.0924447784991689e+00  1.0494382667103161e+00  1.0064076196569152e+00  9.6542927055912486e-01  9.6868577382787513e-01  1.0006272656424167e+00  1.0047591684108186e+00  9.9863831663037317e-01  9.9968092025828104e-01  1.0033609451779040e+00  9.7895981860904513e-01  1.0928577204781043e+00  6.8202632579825206e-01  -1.4240269546275730e-01  -1.1883897313943938e-02  4.2400701209541723e-02  -3.1589024129740715e-03  -1.1647413289336061e-02  -2.6807225132880847e-03  2.7507970336337396e-03  1.6069664522410966e-03  -4.2347963686006370e-04  -4.0285904311611266e-04  1.1543288644473413e-04  5.0688231865295444e-05  -3.3497022060302628e-05  3.0153354621113173e-06  3.9002530372034831e-06  -2.1438353481528247e-06  4.7028520402307776e-07  5.4523168184161439e-08  -9.1462309852622370e-08  4.3606758043921951e-08  -1.3448645188692475e-08  2.5872447125263593e-09  1.9044714684906413e-11  -2.8949790308976168e-10  1.6515235342087692e-10  -6.6343167979028975e-11  2.2263650128150371e-11  -6.5932528290025570e-12  1.7601524192550884e-12  -4.2419166582983175e-13  8.9947168951739493e-14  -1.5150139369810007e-14  1.0258579723608120e-15  7.0141681031274218e-16  -4.9181313392240508e-16  2.2325431632553919e-16  -8.6216201110187771e-17  3.0304896938180265e-17  -9.9452411202126168e-18  3.0809672662768723e-18  -9.0496393398037302e-19  2.5200875202000349e-19  -6.6202847769345657e-20  1.6191010465783389e-20  -3.5715161421398609e-21  6.5055565886137100e-22  -6.3937247559853611e-23  -2.0114240216335523e-23  1.7342862918942945e-23  -8.3029226194581009e-24  3.2924763216943485e-24  -1.1703122038586071e-24  3.8967787559753289e-25  -1.1761836940816032e-25  3.6228299945799468e-26  -8.4824908906298241e-27  2.3033420559498432e-27  -9.2766661656568140e-28  1.6773674574605782e-03  -1.1927857555424881e-02  -1.8818725966242150e-02  -9.1942570582247765e-03  3.6717331312475332e-03  1.9191060636354097e-02  3.3414999693677644e-02  4.1522166196026319e-02  4.4310798029616939e-02  4.4845339650782932e-02  4.4679380032167051e-02  4.3851066493516798e-02  4.0816381600808707e-02  3.1431259596772960e-02  1.2152961682295195e-02  -1.2696199155991643e-02  -4.3441099304868731e-02  -8.6837316891954786e-02  -1.3116450420313233e-01  -1.5994479390751365e-01  -1.7078201378609334e-01  -1.6033163801103265e-01  -1.2352253119600605e-01  -6.3162324725712496e-02  3.4068837126459118e-03  6.2893555643806276e-02  1.1868981775836206e-01  1.8492121268284395e-01  2.7485703649851612e-01  3.9488031633690290e-01  5.4652754077542443e-01  7.2962716710878139e-01  8.9108518572778095e-01  1.0566297366309338e+00  1.1605749179530473e+00  1.0468912064014275e+00  9.7339467702682392e-01  1.0007672190786066e+00  1.0028803084046078e+00  9.9727693045618360e-01  1.0065302774363427e+00  9.8134599507235809e-01  1.0287821508758257e+00  1.0683581427686741e+00  3.2890132355739049e-01  -1.7255412407464349e-01  -5.1269011050891496e-02  4.2642586568843135e-02  2.7631554043266882e-02  -4.4707895216339021e-03  -1.0011064598453249e-02  -1.1177301066631492e-03  2.4142315668006144e-03  1.1797776298922867e-04  -4.5482124346786241e-04  1.0219907295641436e-04  3.8056350277441353e-05  -3.0064801111135839e-05  7.9391934477962302e-06  2.7604150640390691e-07  -1.1960336685823699e-06  6.1189655495140182e-07  -1.9447041397631170e-07  3.8594644113884124e-08  -3.0721208373901987e-10  -3.9594621448171487e-09  2.3052881684913263e-09  -9.3024736500718005e-10  3.1224827040943639e-10  -9.2327896406121712e-11  2.4591301547466584e-11  -5.9119777579126909e-12  1.2509980239216694e-12  -2.1045117668281732e-13  1.4274597433553332e-14  9.7177415882722776e-15  -6.8245532654006808e-15  3.1022367866529771e-15  -1.1996820471363677e-15  4.2220990663146905e-16  -1.3869278374147548e-16  4.2994062683640815e-17  -1.2632602278296072e-17  3.5179330876092725e-18  -9.2396149953296350e-19  2.2588434819042540e-19  -4.9805161301845204e-20  9.0688525704862104e-21  -8.9151759150445909e-22  -2.7989695935802138e-22  2.4140835834654399e-22  -1.1564590095291060e-22  4.5810255628113364e-23  -1.6344937346858537e-23  5.3881895064102867e-24  -1.6783689477073306e-24  4.7486705836082578e-25  -1.3682792750469765e-25  2.6988568726873495e-26  -8.0359329097995885e-27  1.8418194402588627e-27  -7.0650668438112260e-04  1.1929840181014455e-03  4.5947031377894295e-03  4.1019845357258304e-03  8.1214618106142185e-04  -3.0258113982172159e-03  -7.1828588109655780e-03  -1.0248850304982370e-02  -1.1626755280175160e-02  -1.1987445672031201e-02  -1.2011275464063529e-02  -1.1900164428682072e-02  -1.1480448407316900e-02  -9.9715068405141615e-03  -6.1070287763187701e-03  -8.8361515904800830e-05  7.1843585576394208e-03  1.7170741516310477e-02  2.9476986829032201e-02  3.9592261170288350e-02  4.4955092420965195e-02  4.5170302118857870e-02  3.8919551868504272e-02  2.5547779958448348e-02  7.9834674834937339e-03  -9.0187391728726723e-03  -2.3975220275796190e-02  -3.9472431730511674e-02  -5.9256962359837094e-02  -8.5364462485174458e-02  -1.1655047381911690e-01  -1.4815148599915390e-01  -1.6990779511264881e-01  -1.2963745663391099e-01  4.8337259472177589e-02  5.0442496673768034e-01  1.0700465583773460e+00  1.0357139741353856e+00  9.7999234034519911e-01  1.0063611208655789e+00  9.9752418881074822e-01  1.0023470508256709e+00  1.0022962557925170e+00  9.6942822995107703e-01  1.0813154069853861e+00  1.0731429465404008e+00  4.9130122334967458e-01  -5.8250900892976923e-02  -1.5870703518254961e-01  -3.0918101735048512e-02  4.0052464133500103e-02  2.1244685346758000e-02  -8.1249582954969080e-03  -4.5343400745949261e-03  2.1544893302714520e-03  1.8814017629158322e-04  -4.0176093064412494e-04  1.3177024373239632e-04  -4.2925692901333844e-06  -1.5310249480962718e-05  8.5843908074551630e-06  -2.8209352295234839e-06  5.7699912404221310e-07  -1.2812287440928025e-08  -5.4136064037555584e-08  3.2205555047088836e-08  -1.3053147690149500e-08  4.3815813774307175e-09  -1.2932880766195104e-09  3.4356453013435064e-10  -8.2357205803642861e-11  1.7378873383729843e-11  -2.9162059978944568e-12  1.9668603553468793e-13  1.3499290008508595e-13  -9.4704079173790356e-14  4.3071866873453159e-14  -1.6671800438647843e-14  5.8730113548766791e-15  -1.9308069477460470e-15  5.9888422361972269e-16  -1.7602018631397165e-16  4.9021540413931303e-17  -1.2873648661468947e-17  3.1466105813458302e-18  -6.9370383798737544e-19  1.2635850542897317e-19  -1.2468901075251106e-20  -3.8670297779600602e-21  3.3481401991371150e-21  -1.6052676211325864e-21  6.3641181914044297e-22  -2.2698365010024361e-22  7.5073014331847409e-23  -2.3191389087456347e-23  6.7633942257246446e-24  -1.7756027759906951e-24  4.6953779484839453e-25  -6.9035787445546695e-26  2.4222426443633185e-26  1.3419316827119985e-27  1.2451058677889553e-04  2.5597583253184562e-05  -8.2120149289830423e-04  -1.2953967637652118e-03  -7.1037307855649620e-04  2.8384877753090724e-04  1.3789394586103268e-03  2.3868152642012065e-03  2.9787350313755052e-03  3.1851285767212070e-03  3.2214386685195944e-03  3.2091046977570743e-03  3.1531594523195473e-03  2.9337545823471577e-03  2.2351233659720325e-03  8.8269880123190711e-04  -8.8661457225663995e-04  -3.1645927011029365e-03  -6.2426895455716860e-03  -9.3800480131016554e-03  -1.1494994844004285e-02  -1.2267010528327051e-02  -1.1502413456643601e-02  -8.8387826669267602e-03  -4.5501030669264945e-03  1.9836745081055763e-04  4.4564257607216566e-03  8.4181943822238398e-03  1.3038785788098107e-02  1.9173051834939382e-02  2.6945292256465032e-02  3.5539540846851014e-02  4.3675759604065618e-02  4.3104378872084646e-02  1.9784461651243011e-02  -7.3126430394811301e-02  -1.4435472825812584e-01  6.2943464590275788e-01  1.0923181953082357e+00  9.8184280358147391e-01  1.0023135012681181e+00  1.0000253083841883e+00  9.9819416286713369e-01  1.0061034324982225e+00  9.9539641237053411e-01  9.6502526531459720e-01  1.0509112314000100e+00  1.1537946130308518e+00  8.9691097614534154e-01  3.6845236557415867e-01  -7.1003107457187048e-02  -1.4479832368979426e-01  -3.4623308154829299e-03  3.4205329684810597e-02  -3.5610281201346235e-03  -4.6828644577584953e-03  2.1539171713620478e-03  -2.0351743074443457e-04  -1.8904208088171159e-04  1.2046311003441795e-04  -4.1108669620163606e-05  8.6535016480973261e-06  -3.0514308882283366e-07  -7.4053027944112288e-07  4.5041671394446113e-07  -1.8328102935543370e-07  6.1503585029161977e-08  -1.8117661336458747e-08  4.7995680351593140e-09  -1.1469863884095991e-09  2.4132411602332822e-10  -4.0387689860896513e-11  2.7085375705009177e-12  1.8741187315923146e-12  -1.3135686942299234e-12  5.9780591660777440e-13  -2.3163854754539730e-13  8.1690037594244997e-14  -2.6881796711940113e-14  8.3437812295573258e-15  -2.4533629810725510e-15  6.8336765052424168e-16  -1.7945357561623433e-16  4.3856707702741567e-17  -9.6682975385182415e-18  1.7620149618232756e-18  -1.7468386933129070e-19  -5.3373611068501817e-20  4.6431850600354356e-20  -2.2286246035461773e-20  8.8411167905942179e-21  -3.1555744810647826e-21  1.0435923800613229e-21  -3.2333966760735514e-22  9.3611302522717251e-23  -2.5342628715102567e-23  6.0194346654988040e-24  -1.3952481407811699e-24  8.4620804270916812e-26  -5.4326942111840230e-26  -4.2266396604198017e-26  -1.0178745702701423e-05  -4.0786628519249388e-05  9.7414701639662914e-05  3.1190628057779627e-04  2.9536120010820795e-04  6.4294540782935635e-05  -2.2228836879909227e-04  -5.1334221536871903e-04  -7.3351474384630161e-04  -8.3