<?xml version="1.0"?>
<VTKFile type="UnstructuredGrid"  version="0.1"  >
<UnstructuredGrid>
<Piece  NumberOfPoints="5151" NumberOfCells="10000">
<Points>
<DataArray  type="Float64"  NumberOfComponents="3"  format="ascii">0 0 0  0.01 0 0  0.02 0 0  0.03 0 0  0.04 0 0  0.05 0 0  0.06 0 0  0.07000000000000001 0 0  0.08 0 0  0.09 0 0  0.1 0 0  0.11 0 0  0.12 0 0  0.13 0 0  0.14 0 0  0.15 0 0  0.16 0 0  0.17 0 0  0.18 0 0  0.19 0 0  0.2 0 0  0.21 0 0  0.22 0 0  0.23 0 0  0.24 0 0  0.25 0 0  0.26 0 0  0.27 0 0  0.28 0 0  0.29 0 0  0.3 0 0  0.31 0 0  0.32 0 0  0.33 0 0  0.34 0 0  0.35 0 0  0.36 0 0  0.37 0 0  0.38 0 0  0.39 0 0  0.4 0 0  0.41 0 0  0.42 0 0  0.43 0 0  0.44 0 0  0.45 0 0  0.46 0 0  0.47 0 0  0.48 0 0  0.49 0 0  0.5 0 0  0.51 0 0  0.52 0 0  0.53 0 0  0.54 0 0  0.55 0 0  0.5600000000000001 0 0  0.57 0 0  0.58 0 0  0.59 0 0  0.6 0 0  0.61 0 0  0.62 0 0  0.63 0 0  0.64 0 0  0.65 0 0  0.66 0 0  0.67 0 0  0.68 0 0  0.6899999999999999 0 0  0.7 0 0  0.71 0 0  0.72 0 0  0.73 0 0  0.74 0 0  0.75 0 0  0.76 0 0  0.77 0 0  0.78 0 0  0.79 0 0  0.8 0 0  0.8100000000000001 0 0  0.82 0 0  0.83 0 0  0.84 0 0  0.85 0 0  0.86 0 0  0.87 0 0  0.88 0 0  0.89 0 0  0.9 0 0  0.91 0 0  0.92 0 0  0.93 0 0  0.9399999999999999 0 0  0.95 0 0  0.96 0 0  0.97 0 0  0.98 0 0  0.99 0 0  1 0 0  0 0.01 0  0.01 0.01 0  0.02 0.01 0  0.03 0.01 0  0.04 0.01 0  0.05 0.01 0  0.06 0.01 0  0.07000000000000001 0.01 0  0.08 0.01 0  0.09 0.01 0  0.1 0.01 0  0.11 0.01 0  0.12 0.01 0  0.13 0.01 0  0.14 0.01 0  0.15 0.01 0  0.16 0.01 0  0.17 0.01 0  0.18 0.01 0  0.19 0.01 0  0.2 0.01 0  0.21 0.01 0  0.22 0.01 0  0.23 0.01 0  0.24 0.01 0  0.25 0.01 0  0.26 0.01 0  0.27 0.01 0  0.28 0.01 0  0.29 0.01 0  0.3 0.01 0  0.31 0.01 0  0.32 0.01 0  0.33 0.01 0  0.34 0.01 0  0.35 0.01 0  0.36 0.01 0  0.37 0.01 0  0.38 0.01 0  0.39 0.01 0  0.4 0.01 0  0.41 0.01 0  0.42 0.01 0  0.43 0.01 0  0.44 0.01 0  0.45 0.01 0  0.46 0.01 0  0.47 0.01 0  0.48 0.01 0  0.49 0.01 0  0.5 0.01 0  0.51 0.01 0  0.52 0.01 0  0.53 0.01 0  0.54 0.01 0  0.55 0.01 0  0.5600000000000001 0.01 0  0.57 0.01 0  0.58 0.01 0  0.59 0.01 0  0.6 0.01 0  0.61 0.01 0  0.62 0.01 0  0.63 0.01 0  0.64 0.01 0  0.65 0.01 0  0.66 0.01 0  0.67 0.01 0  0.68 0.01 0  0.6899999999999999 0.01 0  0.7 0.01 0  0.71 0.01 0  0.72 0.01 0  0.73 0.01 0  0.74 0.01 0  0.75 0.01 0  0.76 0.01 0  0.77 0.01 0  0.78 0.01 0  0.79 0.01 0  0.8 0.01 0  0.8100000000000001 0.01 0  0.82 0.01 0  0.83 0.01 0  0.84 0.01 0  0.85 0.01 0  0.86 0.01 0  0.87 0.01 0  0.88 0.01 0  0.89 0.01 0  0.9 0.01 0  0.91 0.01 0  0.92 0.01 0  0.93 0.01 0  0.9399999999999999 0.01 0  0.95 0.01 0  0.96 0.01 0  0.97 0.01 0  0.98 0.01 0  0.99 0.01 0  1 0.01 0  0 0.02 0  0.01 0.02 0  0.02 0.02 0  0.03 0.02 0  0.04 0.02 0  0.05 0.02 0  0.06 0.02 0  0.07000000000000001 0.02 0  0.08 0.02 0  0.09 0.02 0  0.1 0.02 0  0.11 0.02 0  0.12 0.02 0  0.13 0.02 0  0.14 0.02 0  0.15 0.02 0  0.16 0.02 0  0.17 0.02 0  0.18 0.02 0  0.19 0.02 0  0.2 0.02 0  0.21 0.02 0  0.22 0.02 0  0.23 0.02 0  0.24 0.02 0  0.25 0.02 0  0.26 0.02 0  0.27 0.02 0  0.28 0.02 0  0.29 0.02 0  0.3 0.02 0  0.31 0.02 0  0.32 0.02 0  0.33 0.02 0  0.34 0.02 0  0.35 0.02 0  0.36 0.02 0  0.37 0.02 0  0.38 0.02 0  0.39 0.02 0  0.4 0.02 0  0.41 0.02 0  0.42 0.02 0  0.43 0.02 0  0.44 0.02 0  0.45 0.02 0  0.46 0.02 0  0.47 0.02 0  0.48 0.02 0  0.49 0.02 0  0.5 0.02 0  0.51 0.02 0  0.52 0.02 0  0.53 0.02 0  0.54 0.02 0  0.55 0.02 0  0.5600000000000001 0.02 0  0.57 0.02 0  0.58 0.02 0  0.59 0.02 0  0.6 0.02 0  0.61 0.02 0  0.62 0.02 0  0.63 0.02 0  0.64 0.02 0  0.65 0.02 0  0.66 0.02 0  0.67 0.02 0  0.68 0.02 0  0.6899999999999999 0.02 0  0.7 0.02 0  0.71 0.02 0  0.72 0.02 0  0.73 0.02 0  0.74 0.02 0  0.75 0.02 0  0.76 0.02 0  0.77 0.02 0  0.78 0.02 0  0.79 0.02 0  0.8 0.02 0  0.8100000000000001 0.02 0  0.82 0.02 0  0.83 0.02 0  0.84 0.02 0  0.85 0.02 0  0.86 0.02 0  0.87 0.02 0  0.88 0.02 0  0.89 0.02 0  0.9 0.02 0  0.91 0.02 0  0.92 0.02 0  0.93 0.02 0  0.9399999999999999 0.02 0  0.95 0.02 0  0.96 0.02 0  0.97 0.02 0  0.98 0.02 0  0.99 0.02 0  1 0.02 0  0 0.03 0  0.01 0.03 0  0.02 0.03 0  0.03 0.03 0  0.04 0.03 0  0.05 0.03 0  0.06 0.03 0  0.07000000000000001 0.03 0  0.08 0.03 0  0.09 0.03 0  0.1 0.03 0  0.11 0.03 0  0.12 0.03 0  0.13 0.03 0  0.14 0.03 0  0.15 0.03 0  0.16 0.03 0  0.17 0.03 0  0.18 0.03 0  0.19 0.03 0  0.2 0.03 0  0.21 0.03 0  0.22 0.03 0  0.23 0.03 0  0.24 0.03 0  0.25 0.03 0  0.26 0.03 0  0.27 0.03 0  0.28 0.03 0  0.29 0.03 0  0.3 0.03 0  0.31 0.03 0  0.32 0.03 0  0.33 0.03 0  0.34 0.03 0  0.35 0.03 0  0.36 0.03 0  0.37 0.03 0  0.38 0.03 0  0.39 0.03 0  0.4 0.03 0  0.41 0.03 0  0.42 0.03 0  0.43 0.03 0  0.44 0.03 0  0.45 0.03 0  0.46 0.03 0  0.47 0.03 0  0.48 0.03 0  0.49 0.03 0  0.5 0.03 0  0.51 0.03 0  0.52 0.03 0  0.53 0.03 0  0.54 0.03 0  0.55 0.03 0  0.5600000000000001 0.03 0  0.57 0.03 0  0.58 0.03 0  0.59 0.03 0  0.6 0.03 0  0.61 0.03 0  0.62 0.03 0  0.63 0.03 0  0.64 0.03 0  0.65 0.03 0  0.66 0.03 0  0.67 0.03 0  0.68 0.03 0  0.6899999999999999 0.03 0  0.7 0.03 0  0.71 0.03 0  0.72 0.03 0  0.73 0.03 0  0.74 0.03 0  0.75 0.03 0  0.76 0.03 0  0.77 0.03 0  0.78 0.03 0  0.79 0.03 0  0.8 0.03 0  0.8100000000000001 0.03 0  0.82 0.03 0  0.83 0.03 0  0.84 0.03 0  0.85 0.03 0  0.86 0.03 0  0.87 0.03 0  0.88 0.03 0  0.89 0.03 0  0.9 0.03 0  0.91 0.03 0  0.92 0.03 0  0.93 0.03 0  0.9399999999999999 0.03 0  0.95 0.03 0  0.96 0.03 0  0.97 0.03 0  0.98 0.03 0  0.99 0.03 0  1 0.03 0  0 0.04 0  0.01 0.04 0  0.02 0.04 0  0.03 0.04 0  0.04 0.04 0  0.05 0.04 0  0.06 0.04 0  0.07000000000000001 0.04 0  0.08 0.04 0  0.09 0.04 0  0.1 0.04 0  0.11 0.04 0  0.12 0.04 0  0.13 0.04 0  0.14 0.04 0  0.15 0.04 0  0.16 0.04 0  0.17 0.04 0  0.18 0.04 0  0.19 0.04 0  0.2 0.04 0  0.21 0.04 0  0.22 0.04 0  0.23 0.04 0  0.24 0.04 0  0.25 0.04 0  0.26 0.04 0  0.27 0.04 0  0.28 0.04 0  0.29 0.04 0  0.3 0.04 0  0.31 0.04 0  0.32 0.04 0  0.33 0.04 0  0.34 0.04 0  0.35 0.04 0  0.36 0.04 0  0.37 0.04 0  0.38 0.04 0  0.39 0.04 0  0.4 0.04 0  0.41 0.04 0  0.42 0.04 0  0.43 0.04 0  0.44 0.04 0  0.45 0.04 0  0.46 0.04 0  0.47 0.04 0  0.48 0.04 0  0.49 0.04 0  0.5 0.04 0  0.51 0.04 0  0.52 0.04 0  0.53 0.04 0  0.54 0.04 0  0.55 0.04 0  0.5600000000000001 0.04 0  0.57 0.04 0  0.58 0.04 0  0.59 0.04 0  0.6 0.04 0  0.61 0.04 0  0.62 0.04 0  0.63 0.04 0  0.64 0.04 0  0.65 0.04 0  0.66 0.04 0  0.67 0.04 0  0.68 0.04 0  0.6899999999999999 0.04 0  0.7 0.04 0  0.71 0.04 0  0.72 0.04 0  0.73 0.04 0  0.74 0.04 0  0.75 0.04 0  0.76 0.04 0  0.77 0.04 0  0.78 0.04 0  0.79 0.04 0  0.8 0.04 0  0.8100000000000001 0.04 0  0.82 0.04 0  0.83 0.04 0  0.84 0.04 0  0.85 0.04 0  0.86 0.04 0  0.87 0.04 0  0.88 0.04 0  0.89 0.04 0  0.9 0.04 0  0.91 0.04 0  0.92 0.04 0  0.93 0.04 0  0.9399999999999999 0.04 0  0.95 0.04 0  0.96 0.04 0  0.97 0.04 0  0.98 0.04 0  0.99 0.04 0  1 0.04 0  0 0.05 0  0.01 0.05 0  0.02 0.05 0  0.03 0.05 0  0.04 0.05 0  0.05 0.05 0  0.06 0.05 0  0.07000000000000001 0.05 0  0.08 0.05 0  0.09 0.05 0  0.1 0.05 0  0.11 0.05 0  0.12 0.05 0  0.13 0.05 0  0.14 0.05 0  0.15 0.05 0  0.16 0.05 0  0.17 0.05 0  0.18 0.05 0  0.19 0.05 0  0.2 0.05 0  0.21 0.05 0  0.22 0.05 0  0.23 0.05 0  0.24 0.05 0  0.25 0.05 0  0.26 0.05 0  0.27 0.05 0  0.28 0.05 0  0.29 0.05 0  0.3 0.05 0  0.31 0.05 0  0.32 0.05 0  0.33 0.05 0  0.34 0.05 0  0.35 0.05 0  0.36 0.05 0  0.37 0.05 0  0.38 0.05 0  0.39 0.05 0  0.4 0.05 0  0.41 0.05 0  0.42 0.05 0  0.43 0.05 0  0.44 0.05 0  0.45 0.05 0  0.46 0.05 0  0.47 0.05 0  0.48 0.05 0  0.49 0.05 0  0.5 0.05 0  0.51 0.05 0  0.52 0.05 0  0.53 0.05 0  0.54 0.05 0  0.55 0.05 0  0.5600000000000001 0.05 0  0.57 0.05 0  0.58 0.05 0  0.59 0.05 0  0.6 0.05 0  0.61 0.05 0  0.62 0.05 0  0.63 0.05 0  0.64 0.05 0  0.65 0.05 0  0.66 0.05 0  0.67 0.05 0  0.68 0.05 0  0.6899999999999999 0.05 0  0.7 0.05 0  0.71 0.05 0  0.72 0.05 0  0.73 0.05 0  0.74 0.05 0  0.75 0.05 0  0.76 0.05 0  0.77 0.05 0  0.78 0.05 0  0.79 0.05 0  0.8 0.05 0  0.8100000000000001 0.05 0  0.82 0.05 0  0.83 0.05 0  0.84 0.05 0  0.85 0.05 0  0.86 0.05 0  0.87 0.05 0  0.88 0.05 0  0.89 0.05 0  0.9 0.05 0  0.91 0.05 0  0.92 0.05 0  0.93 0.05 0  0.9399999999999999 0.05 0  0.95 0.05 0  0.96 0.05 0  0.97 0.05 0  0.98 0.05 0  0.99 0.05 0  1 0.05 0  0 0.06 0  0.01 0.06 0  0.02 0.06 0  0.03 0.06 0  0.04 0.06 0  0.05 0.06 0  0.06 0.06 0  0.07000000000000001 0.06 0  0.08 0.06 0  0.09 0.06 0  0.1 0.06 0  0.11 0.06 0  0.12 0.06 0  0.13 0.06 0  0.14 0.06 0  0.15 0.06 0  0.16 0.06 0  0.17 0.06 0  0.18 0.06 0  0.19 0.06 0  0.2 0.06 0  0.21 0.06 0  0.22 0.06 0  0.23 0.06 0  0.24 0.06 0  0.25 0.06 0  0.26 0.06 0  0.27 0.06 0  0.28 0.06 0  0.29 0.06 0  0.3 0.06 0  0.31 0.06 0  0.32 0.06 0  0.33 0.06 0  0.34 0.06 0  0.35 0.06 0  0.36 0.06 0  0.37 0.06 0  0.38 0.06 0  0.39 0.06 0  0.4 0.06 0  0.41 0.06 0  0.42 0.06 0  0.43 0.06 0  0.44 0.06 0  0.45 0.06 0  0.46 0.06 0  0.47 0.06 0  0.48 0.06 0  0.49 0.06 0  0.5 0.06 0  0.51 0.06 0  0.52 0.06 0  0.53 0.06 0  0.54 0.06 0  0.55 0.06 0  0.5600000000000001 0.06 0  0.57 0.06 0  0.58 0.06 0  0.59 0.06 0  0.6 0.06 0  0.61 0.06 0  0.62 0.06 0  0.63 0.06 0  0.64 0.06 0  0.65 0.06 0  0.66 0.06 0  0.67 0.06 0  0.68 0.06 0  0.6899999999999999 0.06 0  0.7 0.06 0  0.71 0.06 0  0.72 0.06 0  0.73 0.06 0  0.74 0.06 0  0.75 0.06 0  0.76 0.06 0  0.77 0.06 0  0.78 0.06 0  0.79 0.06 0  0.8 0.06 0  0.8100000000000001 0.06 0  0.82 0.06 0  0.83 0.06 0  0.84 0.06 0  0.85 0.06 0  0.86 0.06 0  0.87 0.06 0  0.88 0.06 0  0.89 0.06 0  0.9 0.06 0  0.91 0.06 0  0.92 0.06 0  0.93 0.06 0  0.9399999999999999 0.06 0  0.95 0.06 0  0.96 0.06 0  0.97 0.06 0  0.98 0.06 0  0.99 0.06 0  1 0.06 0  0 0.07000000000000001 0  0.01 0.07000000000000001 0  0.02 0.07000000000000001 0  0.03 0.07000000000000001 0  0.04 0.07000000000000001 0  0.05 0.07000000000000001 0  0.06 0.07000000000000001 0  0.07000000000000001 0.07000000000000001 0  0.08 0.07000000000000001 0  0.09 0.07000000000000001 0  0.1 0.07000000000000001 0  0.11 0.07000000000000001 0  0.12 0.07000000000000001 0  0.13 0.07000000000000001 0  0.14 0.07000000000000001 0  0.15 0.07000000000000001 0  0.16 0.07000000000000001 0  0.17 0.07000
[...]
<PointData  Scalars="rho"> 
<DataArray  type="Float64"  Name="rho"  format="ascii">9.7729153119133461e-01  9.6551681327353056e-01  9.6384077424350134e-01  9.5705955719260472e-01  9.5261018000143927e-01  9.5160812581090692e-01  9.5854204144991051e-01  9.7077323729170095e-01  9.7951331993177815e-01  9.8547308569804659e-01  9.9220868654654437e-01  1.0000000000000000e+00  1.0000000000000000e+00  1.0000000000000000e+00  1.0000000000000000e+00  1.0000000000000000e+00  1.0000000000000000e+00  1.0000000000000000e+00  1.0000000000000000e+00  9.9995860119089652e-01  9.9986172225504066e-01  9.9975829554547080e-01  9.9982173675077957e-01  9.9972242005607836e-01  9.9963425362142444e-01  9.9956292567657823e-01  9.9951050859410551e-01  9.9947434547931280e-01  9.9944833694869517e-01  9.9942562234898413e-01  9.9914476559701249e-01  9.9910654695054346e-01  9.9934593812779482e-01  9.9931875892951860e-01  9.9816343436691923e-01  9.8742213809498247e-01  7.1742084577380993e-01  4.5562732846619375e-01  2.8569880496513655e-02  2.3060994431350203e-03  2.7781679059966356e-03  2.2287740660969671e-03  2.3798381761099990e-03  1.0468710727511857e-03  1.0130835856557710e-03  9.4910055949512431e-04  8.9855141100306278e-04  8.0208120635045285e-04  7.0290007114389764e-04  6.0561802413646121e-04  6.6508588170952944e-04  1.1266356652689464e-03  1.2764395037174847e-03  1.3145788231079117e-03  9.2066497992426930e-04  8.2620715698733267e-04  7.8059076842183891e-04  6.3134543577718621e-04  4.8262080360169215e-04  3.4707282258726022e-04  3.8846925611993452e-04  2.3364452027540094e-04  1.0571983940337733e-04  1.0675298391740897e-05  9.2577850146567247e-06  8.0096362671890881e-06  6.9150625505982543e-06  5.9586631780261312e-06  5.1257377875587418e-06  4.4024613942980710e-06  3.1466976171760025e-06  6.6015346650017679e-06  4.7074860909026656e-06  4.0242615153962556e-06  3.4371749737759568e-06  2.9334469772428848e-06  2.5018204795786321e-06  2.1324218955533747e-06  1.8166266189101423e-06  1.5469295066365845e-06  1.3168150068402209e-06  1.1206467439568552e-06  9.5355640730748938e-07  8.1135451035616097e-07  6.9043744623946212e-07  5.8771650505841854e-07  5.0054659032878816e-07  4.2667095930531724e-07  3.0347068952960932e-07  2.5949503690939062e-07  2.2247767277311102e-07  1.9144577081801483e-07  1.6558104574596239e-07  1.4420200156837566e-07  1.2674487569712687e-07  1.1275186501416311e-07  1.0185734762952558e-07  9.3781347930826554e-08  8.8324274242719824e-08  8.5378308838458807e-08  2.8200616006919001e-08  9.6960586076521182e-01  9.4080039766947499e-01  9.4115464642811808e-01  9.3116220844956665e-01  9.2455725810631484e-01  9.2169326954070940e-01  9.3345677035088859e-01  9.4256867236233755e-01  9.6371910957953233e-01  9.7478452374822089e-01  9.8551358861037819e-01  9.9626369378313895e-01  1.0000000000000000e+00  1.0000000000000000e+00  1.0000000000000000e+00  1.0000000000000000e+00  1.0000000000000000e+00  1.0000000000000000e+00  1.0000000000000000e+00  9.9990493484428788e-01  9.9970599164394824e-01  9.9949150509080420e-01  9.9926959728908793e-01  9.9937360871167558e-01  9.9918250444578427e-01  9.9902739731157431e-01  9.9891492426426309e-01  9.9884028917330614e-01  9.9879021508390398e-01  9.9874937316026280e-01  9.9815190332770654e-01  9.9808853477476411e-01  9.9802163866536109e-01  9.9857592272940898e-01  9.9770778630277590e-01  9.9262267033223750e-01  9.6226644360753621e-01  6.1312834054608334e-01  1.3132307444506125e-01  5.5629294657539271e-03  6.1225604987854105e-03  4.7141198514561210e-03  4.9368737838011573e-03  2.1502498161420787e-03  2.0709342891923827e-03  1.9356845182529800e-03  1.8327792776095975e-03  1.6368998857224796e-03  1.4366615417467827e-03  1.2406089453543322e-03  1.3994997270281363e-03  1.7740721498251916e-03  2.0519569330836669e-03  2.2196373298667832e-03  1.5596794032976125e-03  1.4068863496217413e-03  1.3643696906959438e-03  1.1058482029972390e-03  8.4565559146874297e-04  6.0761447865540820e-04  6.6232838217641064e-04  4.0254408893027912e-04  1.7404010386355568e-04  2.2333397673400989e-05  1.9367549977398814e-05  1.6755978989178249e-05  1.4465720678767697e-05  1.2464618730739967e-05  1.0721904204770810e-05  9.2086722281731446e-06  6.5817687610164544e-06  1.3807638492682450e-05  9.8458000053835752e-06  8.4165898461070385e-06  7.1885273570051168e-06  6.1348651011488862e-06  5.2320422617084549e-06  4.4593975514603854e-06  3.7988849155232455e-06  3.2347968051165082e-06  2.7535053141008232e-06  2.3432111345402298e-06  1.9937344288873204e-06  1.6963032566322662e-06  1.4433827229859199e-06  1.2285051679900885e-06  1.0461395633399434e-06  8.9155913029106926e-07  6.3394855836859395e-07  5.4187694941134935e-07  4.6433563223423185e-07  3.9928364548323087e-07  3.4500728777358042e-07  3.0007331150798880e-07  2.6329819729540709e-07  2.3371393053327795e-07  2.1054600631448603e-07  1.9319058325056616e-07  1.8120133665700710e-07  1.7426847584199351e-07  8.5594689978727449e-08  9.7267510669914048e-01  9.4909261487811758e-01  9.2776861369266350e-01  9.2437429293946549e-01  9.1238605706095466e-01  9.0259388779202265e-01  9.0936506354988478e-01  9.2625016434024010e-01  9.5140375765394192e-01  9.7063295065893207e-01  9.8410807790708232e-01  9.9915088808344676e-01  1.0000000000000000e+00  1.0000000000000000e+00  1.0000000000000000e+00  1.0000000000000000e+00  1.0000000000000000e+00  1.0000000000000000e+00  1.0000000000000000e+00  9.9991628916696906e-01  9.9968993906057968e-01  9.9944315794177074e-01  9.9918285871706936e-01  9.9926845532769082e-01  9.9904078574641308e-01  9.9886422011276121e-01  9.9875008226081419e-01  9.9868848555318612e-01  9.9865588936705196e-01  9.9803928686469479e-01  9.9798000387048102e-01  9.9790410428831688e-01  9.9781702104260472e-01  9.9775076780957472e-01  9.9841353973988678e-01  9.9744207661273521e-01  9.8045353867088236e-01  7.8749197617338307e-01  4.8989291241879185e-01  6.7543654225911166e-03  7.3406758212417305e-03  5.5407997800064907e-03  2.4909456179782567e-03  2.4550905253826285e-03  2.3341927166919832e-03  2.2349118031642504e-03  2.0130903439799014e-03  1.7809104078799420e-03  1.5508076326306425e-03  1.4091396933721013e-03  1.8211482516391252e-03  2.2440955488074168e-03  2.4240820749846259e-03  2.4015417697508604e-03  2.2103922682700184e-03  1.5389638258381405e-03  1.4518452551186810e-03  1.1491590603384635e-03  8.5325801819530938e-04  7.4748043279987473e-04  6.2835261007927669e-04  3.3717599801858596e-04  9.8695700366517591e-05  2.3812831029132694e-05  2.0623306702432442e-05  1.7820595830989906e-05  1.5367542148132455e-05  1.3228103038844270e-05  1.1368047088266531e-05  8.1294862394226589e-06  1.7062563242006997e-05  1.2171838688822205e-05  1.0408786969809424e-05  8.8928891984431897e-06  7.5915079241301183e-06  6.4758383710285673e-06  5.5205783718323332e-06  4.7035915323808611e-06  4.0055834369961708e-06  3.4097925074048254e-06  2.9016953061273419e-06  2.4687407708945147e-06  2.1001040387303796e-06  1.7864772879235635e-06  1.5198651862767396e-06  1.2934187418638740e-06  1.1012782914873938e-06  7.8203834247645249e-07  6.6722002160971394e-07  5.7026436501104518e-07  4.8861895979629676e-07  4.2013163415236295e-07  3.6299360349463414e-07  3.1569555426850454e-07  2.7698787831685986e-07  2.4585098976906106e-07  2.2146569061179911e-07  2.0319148535014401e-07  1.9054517241552083e-07  1.8318438115179507e-07  8.9418152787550332e-08  9.8615709613662772e-01  9.5900081389895464e-01  9.2824219148212705e-01  8.9492332486470061e-01  8.7562130462313981e-01  8.5451585612863268e-01  7.9503569251283379e-01  8.6541720466212979e-01  8.9122078850193953e-01  9.4344786327451591e-01  9.7905201670617681e-01  9.9796152673247129e-01  1.0000000000000000e+00  1.0000000000000000e+00  1.0000000000000000e+00  1.0000000000000000e+00  1.0000000000000000e+00  1.0000000000000000e+00  1.0000000000000000e+00  9.9993848226845694e-01  9.9966821885099055e-01  9.9936717068831871e-01  9.9903762398764107e-01  9.9908175027299129e-01  9.9877944179491696e-01  9.9855992066741106e-01  9.9844707365031093e-01  9.9841782547893676e-01  9.9842492646207992e-01  9.9774913113954500e-01  9.9769533654224329e-01  9.9758978980888890e-01  9.9745090970481820e-01  9.3177079052762191e-01  8.8256823353670000e-01  9.9817040337312934e-01  9.2090519409762295e-01  9.7059838679984478e-01  7.2540414118996888e-01  4.4692890666042301e-01  1.4461442003437502e-01  6.8800334967082143e-03  3.0740935498689637e-03  2.9836787899341667e-03  2.8885252063418081e-03  2.6138261431260723e-03  2.3153506152695348e-03  2.0217582229986922e-03  1.7421395709530949e-03  2.0933765278055294e-03  2.6746058676440803e-03  3.0649266909012723e-03  3.0319275488862475e-03  2.8479723157959565e-03  2.5341387818016447e-03  1.7519040652647525e-03  1.5888274006084879e-03  1.2121377646812591e-03  8.5865433398562988e-04  7.2292363711707664e-04  5.3898954650609670e-04  2.1949079089227550e-04  3.3896230321204764e-05  2.6367654709383262e-05  2.2791117875502984e-05  1.9658038713436357e-05  1.6923810079427743e-05  1.4545585065074916e-05  1.0402533728370798e-05  2.1834386502736030e-05  1.5576375316927176e-05  1.3320433094233233e-05  1.1380576993095163e-05  9.7151167443789322e-06  8.2872288640043746e-06  7.0645574873165740e-06  6.0187981450451064e-06  5.1252754964716194e-06  4.3625447366875932e-06  3.7120233700435537e-06  3.1576481449028365e-06  2.6855637303889348e-06  2.2838451032821033e-06  1.9422474845213938e-06  1.6519907425085494e-06  1.4055587614946829e-06  9.9711097381286517e-07  8.4953445450287766e-07  7.2469184139983298e-07  6.1929174264815708e-07  5.3054998856015560e-07  4.5611862755948996e-07  3.9402772580547237e-07  3.4263315134185131e-07  3.0057549769909359e-07  2.6674380798354576e-07  2.4024581470585527e-07  2.2038254802981582e-07  2.0662738861251750e-07  1.9860797593987315e-07  9.6464725950674885e-08  9.6906444741357378e-01  9.4039088219238332e-01  8.8688211594674582e-01  8.3391120232288207e-01  7.2205931992058814e-01  3.8482582202657217e-01  2.2914676044708948e-01  1.0866679983818986e-01  1.7357976430260895e-04  3.3633445416335448e-04  1.9056782617650294e-03  3.5259093917982286e-02  7.2264159298247685e-02  1.1895550748767565e-01  2.0566398538811664e-01  2.7283338369437032e-01  5.6077599582259108e-01  6.0408309909606772e-01  7.0407349078722825e-01  7.3442576341169907e-01  7.8411559950315857e-01  9.1124333185991901e-01  7.7654132939346132e-01  9.4193197864145906e-01  8.6393447006215462e-01  9.9805427677652958e-01  9.9795707386584509e-01  9.9800268075782661e-01  8.8735748037780438e-01  8.1744766489623877e-01  7.9937913784601611e-01  7.8727070974440128e-01  7.2450703815503925e-01  6.9015099724389239e-01  6.8249318683918070e-01  6.9182098894383515e-01  8.5594027575289411e-01  9.9545922052296343e-01  9.8695866872347937e-01  9.6669518646624752e-01  7.4198456895954712e-01  4.4059055785938045e-01  2.7978823584615004e-01  3.8441295959808592e-03  3.5617268075367296e-03  3.1495762758789983e-03  2.7325131146404588e-03  2.5427064169864363e-03  2.7931542004925782e-03  3.3655588339160745e-03  3.8115886669109604e-03  3.8404298676951907e-03  3.7586071566514823e-03  3.4386873322546961e-03  2.9464492269143760e-03  2.2626201553498700e-03  1.7549747428111850e-03  1.2768885982992080e-03  1.0759385184230281e-03  8.1362737102997219e-04  3.8742226843841625e-04  4.8564126024406688e-05  3.4820163347367264e-05  3.0092322701813916e-05  2.5949285172936096e-05  2.2333529098789597e-05  1.9189074624948499e-05  1.3719028464725663e-05  2.8786547304987018e-05  2.0529842181004693e-05  1.7551558113416809e-05  1.4991580518913611e-05  1.2794524371377715e-05  1.0911492840271980e-05  9.2995679135864482e-06  7.9212328818111160e-06  6.7438136179038463e-06  5.7389402743240269e-06  4.8820433968325753e-06  4.1518925864798704e-06  3.5301837963870362e-06  3.0011653899034969e-06  2.5513074618723600e-06  2.1690099625833531e-06  1.8443433548959995e-06  1.3073547490197988e-06  1.1126843520206256e-06  9.4780989972410090e-07  8.0837122738238200e-07  6.9067372961525446e-07  5.9159419739489745e-07  5.0850238492672493e-07  4.3919225920974706e-07  3.8182551692377843e-07  3.3488145399907459e-07  2.9711902351251301e-07  2.6754053029860944e-07  2.4536579072374106e-07  2.3000801678243349e-07  2.2105970935977295e-07  1.0693896743520660e-07  8.0481425753824248e-02  5.0974649180068226e-04  3.8384587308883784e-04  1.9858483141581873e-04  1.8226052078968428e-04  6.1070668798383085e-05  6.0281051263136728e-05  5.9898004431855275e-05  6.0062089522003839e-05  2.8644687941810988e-04  1.7013627362173715e-03  1.2371496726895539e-02  4.1101888382556004e-02  6.0463189472958548e-02  6.9805794431223339e-02  5.4354608857025685e-02  6.3793316066063588e-02  4.5480604244673678e-02  2.9023312850106214e-02  1.6069562738539354e-02  1.9541932585554037e-02  2.5222264399695736e-02  3.2948939957136290e-02  4.1552625123866350e-02  6.2101215679376806e-02  5.1363045686887092e-02  5.2421227536732576e-02  5.2029324423076902e-02  4.5291826850455158e-02  6.3277557178514812e-02  9.4424970236531222e-02  1.0663423401144408e-01  1.2522146799216327e-01  1.5424230885494625e-01  4.3583015224424521e-01  6.3650335366670319e-01  6.2667773956286166e-01  6.4826180007783962e-01  9.7548454023604425e-01  9.9199886985622265e-01  9.8770496802370422e-01  9.8308761681170498e-01  6.8750255511037839e-01  5.1221186850570466e-01  4.1714411933939386e-03  3.7509656970958140e-03  3.6570604765809758e-03  3.8603678263481591e-03  4.0688736827595431e-03  4.7438466879803579e-03  4.8682120268222781e-03  4.8809420324250766e-03  4.6267806564085096e-03  4.0802534105364129e-03  3.4115430543636576e-03  2.5925873495733069e-03  1.9207803876925159e-03  1.3093572309273180e-03  1.2734257640788387e-03  6.3726398432829747e-04  7.1290212208888039e-05  5.6612421693484899e-05  4.0753133041233989e-05  3.5123216757229748e-05  3.0211169704951232e-05  2.5941680819060200e-05  4.5393115386474319e-05  3.8870424337393151e-05  2.7706334639460150e-05  2.3675014771358249e-05  2.0212525168385571e-05  1.7242960519960263e-05  1.4699427043735537e-05  1.2523316704338859e-05  1.0663478291601553e-05  9.0754475651929101e-06  7.7206686793962768e-06  6.5657950411378368e-06  5.5820459375748162e-06  4.7446270477769145e-06  4.0322141068359481e-06  3.4265002467309975e-06  2.9117930539303246e-06  2.4746636620756526e-06  1.7530320777248342e-06  1.4907746056770306e-06  1.2685030487570158e-06  1.0803136399288865e-06  9.2119881734218100e-07  7.8691954529014521e-07  6.7389758920232087e-07  5.7912184698568286e-07  5.0007029126724864e-07  4.3464170935427347e-07  3.8110127895480129e-07  3.3803098798524352e-07  3.0429481815060208e-07  2.7900229105977823e-07  2.6148914285743542e-07  2.5129510827867905e-07  1.2118452063783933e-07  1.9631742225967224e-04  3.6597095095986816e-04  2.8880929600687516e-04  1.7143299770679726e-04  1.4505784986055395e-04  4.8439239659412936e-05  4.7677813227519448e-05  5.6731859833754072e-05  4.7316013012196639e-05  2.5935266135020184e-04  1.7386628194213179e-03  1.0243815859769096e-02  2.4798465253956018e-02  3.5015306400341326e-02  4.7463000715839344e-02  4.5249224843642952e-02  5.3144977600689335e-02  3.0478522068268992e-02  1.9139128772484026e-02  1.5237843444114959e-02  1.4502621775155782e-02  1.5553923247057249e-02  2.1707495161373387e-02  2.9374521827826738e-02  2.8997219876145282e-02  3.2556380016170117e-02  3.0117862297949074e-02  3.0229502510689097e-02  2.6345474439638465e-02  3.4270957242561233e-02  5.0745362331607355e-02  6.2577143735399923e-02  5.6236379114430697e-02  5.7819690227518108e-02  5.0707446213488529e-02  4.3069199249721996e-02  2.8762681326948825e-01  5.1252113806166677e-01  6.4182201088434232e-01  9.6182051515252420e-01  9.9202720409301015e-01  9.9010749443060209e-01  9.8777813576168039e-01  9.7441212143221256e-01  9.0397896652245280e-01  7.4257905484755948e-01  5.3653835130672040e-02  6.1456475239023822e-03  6.2379838003252756e-03  6.2530090119327850e-03  6.3476238086339360e-03  6.0840798448746980e-03  5.6054825780603879e-03  4.8648787849826557e-03  3.8567899742780760e-03  2.9237163394778250e-03  2.0484999964786349e-03  1.6440806031636725e-03  1.0828799405788612e-03  7.5266994511328860e-05  6.5686568116654178e-05  5.6257443559664435e-05  4.8450320321344257e-05  4.1641598202332521e-05  3.5727863263061274e-05  6.2467330219881994e-05  5.3450450450654883e-05  3.8071667852017052e-05  3.2510860253801610e-05  2.7739544469248380e-05  2.3651268847407499e-05  2.0152431237218084e-05  1.7161209298222495e-05  1.4606383126474819e-05  1.2426190446209273e-05  1.0567177900980426e-05  8.9832047296305063e-06  7.6344970211115623e-06  6.4868316601322095e-06  5.5108052357984296e-06  4.6811918967549084e-06  3.9763787379133311e-06  3.3778777108094540e-06  2.3915789083028522e-06  2.0324657404292465e-06  1.7279982473389823e-06  1.4700471515470930e-06  1.2517139113423322e-06  1.0671532314905147e-06  9.1142464675997237e-07  7.8036202552341265e-07  6.7046408400107396e-07  5.7879995251447681e-07  5.0293164185367939e-07  4.4084551460764673e-07  3.9089986071409791e-07  3.5177628733427813e-07  3.2244707564466191e-07  3.0214239156508688e-07  2.9033609172106141e-07  1.3967930054192291e-07  1.3198151392275034e-04  2.5081054504717370e-04  2.0392642084186445e-04  1.3588518360244312e-04  1.1268261637437659e-04  3.7789495471733818e-05  3.7336198329618112e-05  3.7091503443608241e-05  3.8916687544524912e-05  4.8740056404764114e-04  1.9811153476732282e-03  9.0714178360184767e-03  1.5330634532056301e-02  2.7236396485806596e-02  2.6985231437744558e-02  4.5444966650520953e-02  3.0321997693097038e-02  2.4040405279274570e-02  1.7132246039295761e-02  1.4895902100183420e-02  1.4339033014207031e-02  1.5587279125442130e-02  1.6784847155779013e-02  1.8611730251246700e-02  2.2141813139341056e-02  2.3053364032740314e-02  2.2726598722575011e-02  2.3543535814353801e-02  2.1317306806379659e-02  2.3123726521305545e-02  3.3115771869260374e-02  3.9782310538865141e-02  4.0515254343975050e-02  3.5666691479676479e-02  3.1040314344782077e-02  2.2093271068539262e-02  1.6970426637350513e-02  7.8106975126961235e-03  4.2466920645003081e-01  6.1436145991146229e-01  9.4062525522298035e-01  9.9237083853904695e-01  9.9133273301127822e-01  9.9234824505002517e-01  9.6170726966633868e-01  9.2648955200352412e-01  8.6295830298687048e-01  7.9193628979527719e-01  5.7632841816566760e-01  5.5007052253987077e-01  5.4310316695460392e-01  4.5952592004547460e-01  3.4042726724175215e-02  5.7648835788018538e-03  4.4507504515530682e-03  3.2089410254718198e-03  2.1677043948148170e-03  2.0102300317098635e-03  1.0633617940096131e-04  1.8028723973767508e-04  7.8752444848870408e-05  6.7764432715931375e-05  5.8188002054277734e-05  1.0179128233432672e-04  8.7126623300634202e-05  7.4484229613648042e-05  5.3009727352925333e-05  4.5232836740669689e-05  3.8568134463979543e-05  3.2863819124515260e-05  2.7986722572943329e-05  2.3820747411813554e-05  2.0265180757710449e-05  1.7232931345984187e-05  1.4648840159754074e-05  1.2448176481357138e-05  1.0575231240192797e-05  8.9821446230607836e-06  7.6278313611034369e-06  6.4770737262503185e-06  5.4997196055447395e-06  4.6699873074103180e-06  3.3048811686611962e-06  2.8071276835096668e-06  2.3850695074487075e-06  2.0273757252985022e-06  1.7244258821418399e-06  1.4680652437468959e-06  1.2513957505297387e-06  1.0685924962715661e-06  9.1475069361571829e-07  7.8575158893902390e-07  6.7815197778973889e-07  5.8908820929262067e-07  5.1619927020051200e-07  4.5755844065212276e-07  4.1162280916597870e-07  3.7718631760306521e-07  3.5335205071230791e-07  3.3950323497422063e-07  1.6304720062322509e-07  9.0585561732588315e-05  1.7548648772924141e-04  1.4805451082759778e-04  1.0938106835513206e-04  8.7467675158544179e-05  2.9418948106390969e-05  2.9136781986836545e-05  2.8977918530310643e-05  4.1796190444988417e-05  7.7200311118698307e-04  1.9421996701438891e-03  8.1421590868024502e-03  1.0861088833697267e-02  1.3211403197131924e-02  2.1697270872712591e-02  2.3240711167774913e-02  2.1471281382272521e-02  1.7522343094072933e-02  1.5493837208498477e-02  1.4181307421008803e-02  1.4298970878836132e-02  1.3582751586768126e-0