<?xml version="1.0"?>
<VTKFile type="UnstructuredGrid"  version="0.1"  >
<UnstructuredGrid>
<Piece  NumberOfPoints="5151" NumberOfCells="10000">
<Points>
<DataArray  type="Float64"  NumberOfComponents="3"  format="ascii">0 0 0  0.01 0 0  0.02 0 0  0.03 0 0  0.04 0 0  0.05 0 0  0.06 0 0  0.07000000000000001 0 0  0.08 0 0  0.09 0 0  0.1 0 0  0.11 0 0  0.12 0 0  0.13 0 0  0.14 0 0  0.15 0 0  0.16 0 0  0.17 0 0  0.18 0 0  0.19 0 0  0.2 0 0  0.21 0 0  0.22 0 0  0.23 0 0  0.24 0 0  0.25 0 0  0.26 0 0  0.27 0 0  0.28 0 0  0.29 0 0  0.3 0 0  0.31 0 0  0.32 0 0  0.33 0 0  0.34 0 0  0.35 0 0  0.36 0 0  0.37 0 0  0.38 0 0  0.39 0 0  0.4 0 0  0.41 0 0  0.42 0 0  0.43 0 0  0.44 0 0  0.45 0 0  0.46 0 0  0.47 0 0  0.48 0 0  0.49 0 0  0.5 0 0  0.51 0 0  0.52 0 0  0.53 0 0  0.54 0 0  0.55 0 0  0.5600000000000001 0 0  0.57 0 0  0.58 0 0  0.59 0 0  0.6 0 0  0.61 0 0  0.62 0 0  0.63 0 0  0.64 0 0  0.65 0 0  0.66 0 0  0.67 0 0  0.68 0 0  0.6899999999999999 0 0  0.7 0 0  0.71 0 0  0.72 0 0  0.73 0 0  0.74 0 0  0.75 0 0  0.76 0 0  0.77 0 0  0.78 0 0  0.79 0 0  0.8 0 0  0.8100000000000001 0 0  0.82 0 0  0.83 0 0  0.84 0 0  0.85 0 0  0.86 0 0  0.87 0 0  0.88 0 0  0.89 0 0  0.9 0 0  0.91 0 0  0.92 0 0  0.93 0 0  0.9399999999999999 0 0  0.95 0 0  0.96 0 0  0.97 0 0  0.98 0 0  0.99 0 0  1 0 0  0 0.01 0  0.01 0.01 0  0.02 0.01 0  0.03 0.01 0  0.04 0.01 0  0.05 0.01 0  0.06 0.01 0  0.07000000000000001 0.01 0  0.08 0.01 0  0.09 0.01 0  0.1 0.01 0  0.11 0.01 0  0.12 0.01 0  0.13 0.01 0  0.14 0.01 0  0.15 0.01 0  0.16 0.01 0  0.17 0.01 0  0.18 0.01 0  0.19 0.01 0  0.2 0.01 0  0.21 0.01 0  0.22 0.01 0  0.23 0.01 0  0.24 0.01 0  0.25 0.01 0  0.26 0.01 0  0.27 0.01 0  0.28 0.01 0  0.29 0.01 0  0.3 0.01 0  0.31 0.01 0  0.32 0.01 0  0.33 0.01 0  0.34 0.01 0  0.35 0.01 0  0.36 0.01 0  0.37 0.01 0  0.38 0.01 0  0.39 0.01 0  0.4 0.01 0  0.41 0.01 0  0.42 0.01 0  0.43 0.01 0  0.44 0.01 0  0.45 0.01 0  0.46 0.01 0  0.47 0.01 0  0.48 0.01 0  0.49 0.01 0  0.5 0.01 0  0.51 0.01 0  0.52 0.01 0  0.53 0.01 0  0.54 0.01 0  0.55 0.01 0  0.5600000000000001 0.01 0  0.57 0.01 0  0.58 0.01 0  0.59 0.01 0  0.6 0.01 0  0.61 0.01 0  0.62 0.01 0  0.63 0.01 0  0.64 0.01 0  0.65 0.01 0  0.66 0.01 0  0.67 0.01 0  0.68 0.01 0  0.6899999999999999 0.01 0  0.7 0.01 0  0.71 0.01 0  0.72 0.01 0  0.73 0.01 0  0.74 0.01 0  0.75 0.01 0  0.76 0.01 0  0.77 0.01 0  0.78 0.01 0  0.79 0.01 0  0.8 0.01 0  0.8100000000000001 0.01 0  0.82 0.01 0  0.83 0.01 0  0.84 0.01 0  0.85 0.01 0  0.86 0.01 0  0.87 0.01 0  0.88 0.01 0  0.89 0.01 0  0.9 0.01 0  0.91 0.01 0  0.92 0.01 0  0.93 0.01 0  0.9399999999999999 0.01 0  0.95 0.01 0  0.96 0.01 0  0.97 0.01 0  0.98 0.01 0  0.99 0.01 0  1 0.01 0  0 0.02 0  0.01 0.02 0  0.02 0.02 0  0.03 0.02 0  0.04 0.02 0  0.05 0.02 0  0.06 0.02 0  0.07000000000000001 0.02 0  0.08 0.02 0  0.09 0.02 0  0.1 0.02 0  0.11 0.02 0  0.12 0.02 0  0.13 0.02 0  0.14 0.02 0  0.15 0.02 0  0.16 0.02 0  0.17 0.02 0  0.18 0.02 0  0.19 0.02 0  0.2 0.02 0  0.21 0.02 0  0.22 0.02 0  0.23 0.02 0  0.24 0.02 0  0.25 0.02 0  0.26 0.02 0  0.27 0.02 0  0.28 0.02 0  0.29 0.02 0  0.3 0.02 0  0.31 0.02 0  0.32 0.02 0  0.33 0.02 0  0.34 0.02 0  0.35 0.02 0  0.36 0.02 0  0.37 0.02 0  0.38 0.02 0  0.39 0.02 0  0.4 0.02 0  0.41 0.02 0  0.42 0.02 0  0.43 0.02 0  0.44 0.02 0  0.45 0.02 0  0.46 0.02 0  0.47 0.02 0  0.48 0.02 0  0.49 0.02 0  0.5 0.02 0  0.51 0.02 0  0.52 0.02 0  0.53 0.02 0  0.54 0.02 0  0.55 0.02 0  0.5600000000000001 0.02 0  0.57 0.02 0  0.58 0.02 0  0.59 0.02 0  0.6 0.02 0  0.61 0.02 0  0.62 0.02 0  0.63 0.02 0  0.64 0.02 0  0.65 0.02 0  0.66 0.02 0  0.67 0.02 0  0.68 0.02 0  0.6899999999999999 0.02 0  0.7 0.02 0  0.71 0.02 0  0.72 0.02 0  0.73 0.02 0  0.74 0.02 0  0.75 0.02 0  0.76 0.02 0  0.77 0.02 0  0.78 0.02 0  0.79 0.02 0  0.8 0.02 0  0.8100000000000001 0.02 0  0.82 0.02 0  0.83 0.02 0  0.84 0.02 0  0.85 0.02 0  0.86 0.02 0  0.87 0.02 0  0.88 0.02 0  0.89 0.02 0  0.9 0.02 0  0.91 0.02 0  0.92 0.02 0  0.93 0.02 0  0.9399999999999999 0.02 0  0.95 0.02 0  0.96 0.02 0  0.97 0.02 0  0.98 0.02 0  0.99 0.02 0  1 0.02 0  0 0.03 0  0.01 0.03 0  0.02 0.03 0  0.03 0.03 0  0.04 0.03 0  0.05 0.03 0  0.06 0.03 0  0.07000000000000001 0.03 0  0.08 0.03 0  0.09 0.03 0  0.1 0.03 0  0.11 0.03 0  0.12 0.03 0  0.13 0.03 0  0.14 0.03 0  0.15 0.03 0  0.16 0.03 0  0.17 0.03 0  0.18 0.03 0  0.19 0.03 0  0.2 0.03 0  0.21 0.03 0  0.22 0.03 0  0.23 0.03 0  0.24 0.03 0  0.25 0.03 0  0.26 0.03 0  0.27 0.03 0  0.28 0.03 0  0.29 0.03 0  0.3 0.03 0  0.31 0.03 0  0.32 0.03 0  0.33 0.03 0  0.34 0.03 0  0.35 0.03 0  0.36 0.03 0  0.37 0.03 0  0.38 0.03 0  0.39 0.03 0  0.4 0.03 0  0.41 0.03 0  0.42 0.03 0  0.43 0.03 0  0.44 0.03 0  0.45 0.03 0  0.46 0.03 0  0.47 0.03 0  0.48 0.03 0  0.49 0.03 0  0.5 0.03 0  0.51 0.03 0  0.52 0.03 0  0.53 0.03 0  0.54 0.03 0  0.55 0.03 0  0.5600000000000001 0.03 0  0.57 0.03 0  0.58 0.03 0  0.59 0.03 0  0.6 0.03 0  0.61 0.03 0  0.62 0.03 0  0.63 0.03 0  0.64 0.03 0  0.65 0.03 0  0.66 0.03 0  0.67 0.03 0  0.68 0.03 0  0.6899999999999999 0.03 0  0.7 0.03 0  0.71 0.03 0  0.72 0.03 0  0.73 0.03 0  0.74 0.03 0  0.75 0.03 0  0.76 0.03 0  0.77 0.03 0  0.78 0.03 0  0.79 0.03 0  0.8 0.03 0  0.8100000000000001 0.03 0  0.82 0.03 0  0.83 0.03 0  0.84 0.03 0  0.85 0.03 0  0.86 0.03 0  0.87 0.03 0  0.88 0.03 0  0.89 0.03 0  0.9 0.03 0  0.91 0.03 0  0.92 0.03 0  0.93 0.03 0  0.9399999999999999 0.03 0  0.95 0.03 0  0.96 0.03 0  0.97 0.03 0  0.98 0.03 0  0.99 0.03 0  1 0.03 0  0 0.04 0  0.01 0.04 0  0.02 0.04 0  0.03 0.04 0  0.04 0.04 0  0.05 0.04 0  0.06 0.04 0  0.07000000000000001 0.04 0  0.08 0.04 0  0.09 0.04 0  0.1 0.04 0  0.11 0.04 0  0.12 0.04 0  0.13 0.04 0  0.14 0.04 0  0.15 0.04 0  0.16 0.04 0  0.17 0.04 0  0.18 0.04 0  0.19 0.04 0  0.2 0.04 0  0.21 0.04 0  0.22 0.04 0  0.23 0.04 0  0.24 0.04 0  0.25 0.04 0  0.26 0.04 0  0.27 0.04 0  0.28 0.04 0  0.29 0.04 0  0.3 0.04 0  0.31 0.04 0  0.32 0.04 0  0.33 0.04 0  0.34 0.04 0  0.35 0.04 0  0.36 0.04 0  0.37 0.04 0  0.38 0.04 0  0.39 0.04 0  0.4 0.04 0  0.41 0.04 0  0.42 0.04 0  0.43 0.04 0  0.44 0.04 0  0.45 0.04 0  0.46 0.04 0  0.47 0.04 0  0.48 0.04 0  0.49 0.04 0  0.5 0.04 0  0.51 0.04 0  0.52 0.04 0  0.53 0.04 0  0.54 0.04 0  0.55 0.04 0  0.5600000000000001 0.04 0  0.57 0.04 0  0.58 0.04 0  0.59 0.04 0  0.6 0.04 0  0.61 0.04 0  0.62 0.04 0  0.63 0.04 0  0.64 0.04 0  0.65 0.04 0  0.66 0.04 0  0.67 0.04 0  0.68 0.04 0  0.6899999999999999 0.04 0  0.7 0.04 0  0.71 0.04 0  0.72 0.04 0  0.73 0.04 0  0.74 0.04 0  0.75 0.04 0  0.76 0.04 0  0.77 0.04 0  0.78 0.04 0  0.79 0.04 0  0.8 0.04 0  0.8100000000000001 0.04 0  0.82 0.04 0  0.83 0.04 0  0.84 0.04 0  0.85 0.04 0  0.86 0.04 0  0.87 0.04 0  0.88 0.04 0  0.89 0.04 0  0.9 0.04 0  0.91 0.04 0  0.92 0.04 0  0.93 0.04 0  0.9399999999999999 0.04 0  0.95 0.04 0  0.96 0.04 0  0.97 0.04 0  0.98 0.04 0  0.99 0.04 0  1 0.04 0  0 0.05 0  0.01 0.05 0  0.02 0.05 0  0.03 0.05 0  0.04 0.05 0  0.05 0.05 0  0.06 0.05 0  0.07000000000000001 0.05 0  0.08 0.05 0  0.09 0.05 0  0.1 0.05 0  0.11 0.05 0  0.12 0.05 0  0.13 0.05 0  0.14 0.05 0  0.15 0.05 0  0.16 0.05 0  0.17 0.05 0  0.18 0.05 0  0.19 0.05 0  0.2 0.05 0  0.21 0.05 0  0.22 0.05 0  0.23 0.05 0  0.24 0.05 0  0.25 0.05 0  0.26 0.05 0  0.27 0.05 0  0.28 0.05 0  0.29 0.05 0  0.3 0.05 0  0.31 0.05 0  0.32 0.05 0  0.33 0.05 0  0.34 0.05 0  0.35 0.05 0  0.36 0.05 0  0.37 0.05 0  0.38 0.05 0  0.39 0.05 0  0.4 0.05 0  0.41 0.05 0  0.42 0.05 0  0.43 0.05 0  0.44 0.05 0  0.45 0.05 0  0.46 0.05 0  0.47 0.05 0  0.48 0.05 0  0.49 0.05 0  0.5 0.05 0  0.51 0.05 0  0.52 0.05 0  0.53 0.05 0  0.54 0.05 0  0.55 0.05 0  0.5600000000000001 0.05 0  0.57 0.05 0  0.58 0.05 0  0.59 0.05 0  0.6 0.05 0  0.61 0.05 0  0.62 0.05 0  0.63 0.05 0  0.64 0.05 0  0.65 0.05 0  0.66 0.05 0  0.67 0.05 0  0.68 0.05 0  0.6899999999999999 0.05 0  0.7 0.05 0  0.71 0.05 0  0.72 0.05 0  0.73 0.05 0  0.74 0.05 0  0.75 0.05 0  0.76 0.05 0  0.77 0.05 0  0.78 0.05 0  0.79 0.05 0  0.8 0.05 0  0.8100000000000001 0.05 0  0.82 0.05 0  0.83 0.05 0  0.84 0.05 0  0.85 0.05 0  0.86 0.05 0  0.87 0.05 0  0.88 0.05 0  0.89 0.05 0  0.9 0.05 0  0.91 0.05 0  0.92 0.05 0  0.93 0.05 0  0.9399999999999999 0.05 0  0.95 0.05 0  0.96 0.05 0  0.97 0.05 0  0.98 0.05 0  0.99 0.05 0  1 0.05 0  0 0.06 0  0.01 0.06 0  0.02 0.06 0  0.03 0.06 0  0.04 0.06 0  0.05 0.06 0  0.06 0.06 0  0.07000000000000001 0.06 0  0.08 0.06 0  0.09 0.06 0  0.1 0.06 0  0.11 0.06 0  0.12 0.06 0  0.13 0.06 0  0.14 0.06 0  0.15 0.06 0  0.16 0.06 0  0.17 0.06 0  0.18 0.06 0  0.19 0.06 0  0.2 0.06 0  0.21 0.06 0  0.22 0.06 0  0.23 0.06 0  0.24 0.06 0  0.25 0.06 0  0.26 0.06 0  0.27 0.06 0  0.28 0.06 0  0.29 0.06 0  0.3 0.06 0  0.31 0.06 0  0.32 0.06 0  0.33 0.06 0  0.34 0.06 0  0.35 0.06 0  0.36 0.06 0  0.37 0.06 0  0.38 0.06 0  0.39 0.06 0  0.4 0.06 0  0.41 0.06 0  0.42 0.06 0  0.43 0.06 0  0.44 0.06 0  0.45 0.06 0  0.46 0.06 0  0.47 0.06 0  0.48 0.06 0  0.49 0.06 0  0.5 0.06 0  0.51 0.06 0  0.52 0.06 0  0.53 0.06 0  0.54 0.06 0  0.55 0.06 0  0.5600000000000001 0.06 0  0.57 0.06 0  0.58 0.06 0  0.59 0.06 0  0.6 0.06 0  0.61 0.06 0  0.62 0.06 0  0.63 0.06 0  0.64 0.06 0  0.65 0.06 0  0.66 0.06 0  0.67 0.06 0  0.68 0.06 0  0.6899999999999999 0.06 0  0.7 0.06 0  0.71 0.06 0  0.72 0.06 0  0.73 0.06 0  0.74 0.06 0  0.75 0.06 0  0.76 0.06 0  0.77 0.06 0  0.78 0.06 0  0.79 0.06 0  0.8 0.06 0  0.8100000000000001 0.06 0  0.82 0.06 0  0.83 0.06 0  0.84 0.06 0  0.85 0.06 0  0.86 0.06 0  0.87 0.06 0  0.88 0.06 0  0.89 0.06 0  0.9 0.06 0  0.91 0.06 0  0.92 0.06 0  0.93 0.06 0  0.9399999999999999 0.06 0  0.95 0.06 0  0.96 0.06 0  0.97 0.06 0  0.98 0.06 0  0.99 0.06 0  1 0.06 0  0 0.07000000000000001 0  0.01 0.07000000000000001 0  0.02 0.07000000000000001 0  0.03 0.07000000000000001 0  0.04 0.07000000000000001 0  0.05 0.07000000000000001 0  0.06 0.07000000000000001 0  0.07000000000000001 0.07000000000000001 0  0.08 0.07000000000000001 0  0.09 0.07000000000000001 0  0.1 0.07000000000000001 0  0.11 0.07000000000000001 0  0.12 0.07000000000000001 0  0.13 0.07000000000000001 0  0.14 0.07000000000000001 0  0.15 0.07000000000000001 0  0.16 0.07000000000000001 0  0.17 0.07000
[...]
<PointData  Scalars="rho_bar"> 
<DataArray  type="Float64"  Name="rho_bar"  format="ascii">9.9640867091433938e-01  9.9768879590973669e-01  9.9709104807688909e-01  9.9734234653858844e-01  9.9764167687135685e-01  9.9818597717478119e-01  9.9880343684377804e-01  9.9931112720077486e-01  9.9956688361264256e-01  9.9953727387060898e-01  9.9926700310522387e-01  9.9882002594701891e-01  9.9825816656660538e-01  9.9766318224965667e-01  9.9715345911320119e-01  9.9684326496308062e-01  9.9677836152694821e-01  9.9692573793028472e-01  9.9721487531504382e-01  9.9757658588696696e-01  9.9796190875707980e-01  9.9834315630946180e-01  9.9870453265023884e-01  9.9903526517370056e-01  9.9933044412308591e-01  9.9959347081902861e-01  9.9983211379281700e-01  1.0000473423501781e+00  1.0002199556613562e+00  1.0003000712893440e+00  1.0002318955599867e+00  1.0000472005952614e+00  9.9989512485451781e-01  9.9987115218025746e-01  9.9990595692605988e-01  9.9989464348300527e-01  9.9983255342778643e-01  9.9993716024701895e-01  9.9660633712582647e-01  1.0016513518391974e+00  8.4695242786676872e-01  1.9339981059541789e-01  1.9127505981610237e-02  3.1408759777486767e-03  8.1129625870948437e-04  2.1314172077722550e-04  3.5043641714053440e-05  1.6892872411764310e-05  1.4184271803372862e-05  7.7149501857891364e-06  2.1118224867542598e-06  7.2313077233470818e-07  8.3156259996891651e-07  5.3304689901305172e-07  2.3509529265652801e-07  1.6113649738099232e-07  1.1505624916825951e-07  6.9509545729715518e-08  4.7696030627200794e-08  3.3744796581953427e-08  2.3431600085214985e-08  1.7051799686430923e-08  1.2578896870040818e-08  9.4210130360200476e-09  7.1988278671745089e-09  5.5707675593227451e-09  4.3702534716960725e-09  3.4677289169357559e-09  2.7789802374553646e-09  2.2466229133049143e-09  1.8298442790857142e-09  1.5000622212871407e-09  1.2365393807391337e-09  1.0241576558526271e-09  8.5169543065318542e-10  7.1072705643432394e-10  5.9484164430620647e-10  4.9910395517979929e-10  4.1967274732158019e-10  3.5353091564043550e-10  2.9828297709745085e-10  2.5201440414129767e-10  2.1317972467540406e-10  1.8052814323138456e-10  1.5303626305472812e-10  1.2986649479260107e-10  1.1032720049379490e-10  9.3848269046171367e-11  7.9955896664210674e-11  6.8257423037527166e-11  5.8425850382432682e-11  5.0190338008875556e-11  4.3325469850809287e-11  3.7645695677285278e-11  3.2998154469118349e-11  2.9259628786187334e-11  2.6331471385898904e-11  2.4138322198003975e-11  2.2625988987160582e-11  2.1767615969570326e-11  2.1579993902013433e-11  1.0057519449923642e+00  1.0014875682533670e+00  1.0024510560973998e+00  1.0018928562360894e+00  1.0009699467162012e+00  9.9938573261100871e-01  9.9728640723157014e-01  9.9504093175303099e-01  9.9308303392146602e-01  9.9173275553675710e-01  9.9115090917746462e-01  9.9139885767903624e-01  9.9246322416948640e-01  9.9420670888860496e-01  9.9631333932779753e-01  9.9835144795596631e-01  9.9996652759755944e-01  1.0010202758001963e+00  1.0015588336366015e+00  1.0017109307679801e+00  1.0016099510067360e+00  1.0013563734940181e+00  1.0010187901957508e+00  1.0006481227575728e+00  1.0002813620855910e+00  9.9993594832674948e-01  9.9961050851268285e-01  9.9930193347301399e-01  9.9903161668088414e-01  9.9887074133423182e-01  9.9894107202940940e-01  9.9929884710765615e-01  9.9974395009249051e-01  9.9996069620244976e-01  9.9992950326689223e-01  9.9986232750829140e-01  9.9983888128929854e-01  9.9950958989326344e-01  9.9916111068026292e-01  9.9265748310069257e-01  8.9228790963269200e-01  2.6777442389805439e-01  1.9246042023211410e-02  5.9418785924679543e-03  8.9694388954885318e-04  1.1721538739494395e-04  1.2505148183858381e-04  6.4612794148093963e-05  1.1805629005564678e-05  -2.7864069708840375e-06  1.2346043951854623e-06  3.1917936980016491e-06  1.1937782127069261e-06  2.0051316476855222e-07  3.1285570065696916e-07  2.3788129766758418e-07  1.0437016499568768e-07  7.7165397749567474e-08  5.5594491634697394e-08  3.4907856555860836e-08  2.5386308432634454e-08  1.8238714711597068e-08  1.3208827252304993e-08  9.9325238575072232e-09  7.5192446954127918e-09  5.8001884367756414e-09  4.5349817457202251e-09  3.5864946090079418e-09  2.8675598621733345e-09  2.3131144662982071e-09  1.8807173235657578e-09  1.5394416732186741e-09  1.2673988860495701e-09  1.0485945832460326e-09  8.7122868130730696e-10  7.2646941307881177e-10  6.0762072449841426e-10  5.0954289526907426e-10  4.2824807887126999e-10  3.6060853712448022e-10  3.0414984064286894e-10  2.5689413199707314e-10  2.1725259556876221e-10  1.8393600534271008e-10  1.5589560656309561e-10  1.3227012081342172e-10  1.1235265142109600e-10  9.5558121326113357e-11  8.1402834031913435e-11  6.9484565487924834e-11  5.9470101630267530e-11  5.1082166505651847e-11  4.4091390748865434e-11  3.8307698861099900e-11  3.3575914926109212e-11  2.9769711749149924e-11  2.6788706013707195e-11  2.4554956918610692e-11  2.3011405823657870e-11  2.2118227120974713e-11  2.1846623800380613e-11  9.7165251198443214e-01  9.8627680556642150e-01  9.8268812238970293e-01  9.8279073813411832e-01  9.8349719954629566e-01  9.8583383364756150e-01  9.8965578464587844e-01  9.9408911503216324e-01  9.9785198134948527e-01  1.0000340264449950e+00  1.0004698814561308e+00  9.9943538869014803e-01  9.9722392131686421e-01  9.9404863637760521e-01  9.9028573189543134e-01  9.8668256794980069e-01  9.8409898674917506e-01  9.8298258837915931e-01  9.8324606521447544e-01  9.8451628416365844e-01  9.8637407496868479e-01  9.8850019891108354e-01  9.9070178718312407e-01  9.9285523989528923e-01  9.9486760576356636e-01  9.9668699447962383e-01  9.9832456101172740e-01  9.9982579266048666e-01  1.0011904313754061e+00  1.0022792463674990e+00  1.0027530369304805e+00  1.0022066767175448e+00  1.0008066880537332e+00  9.9965434691303257e-01  9.9949869144053005e-01  9.9974824853357058e-01  9.9973305135725588e-01  9.9952190610074421e-01  9.9880565952343991e-01  9.9318977712132150e-01  9.5249376933949559e-01  5.0149348523078607e-01  5.5451201683873408e-02  1.5329081492042311e-02  6.6382425120591667e-04  1.2461083638563594e-03  1.8163374183005564e-04  -1.0750690223804539e-04  -2.1864788860638690e-05  4.0363237096992036e-05  2.3907492328047545e-05  -1.0228480757358690e-06  -2.1676933951526733e-06  1.7512788863236355e-06  8.8780721084139298e-07  1.9248649259720018e-08  1.8621363965222907e-07  1.3877262440626896e-07  5.2739076896529077e-08  4.8443145831997731e-08  3.2220687668014391e-08  2.1024126639930193e-08  1.6034033850545239e-08  1.1439543455964680e-08  8.6071056818505766e-09  6.5627468512983577e-09  5.0619575117296814e-09  3.9745313256982785e-09  3.1509020203892189e-09  2.5262677772516728e-09  2.0428015062430800e-09  1.6645867334593004e-09  1.3652074122144615e-09  1.1258809113898224e-09  9.3289786190724495e-10  7.7609797753950602e-10  6.4785989691952475e-10  5.4238319414367100e-10  4.5520248809637164e-10  3.8284226293151034e-10  3.2256793984071575e-10  2.7220944250034130e-10  2.3002819953876719e-10  1.9462409213104131e-10  1.6485886781020300e-10  1.3980452177571991e-10  1.1869869956311889e-10  1.0091451461484359e-10  8.5933190183050740e-11  7.3325823414108916e-11  6.2736377389366507e-11  5.3870017343199667e-11  4.6482361039237703e-11  4.0371975607188841e-11  3.5373544312999742e-11  3.1353235049357596e-11  2.8204093244765258e-11  2.5842916498133397e-11  2.4206856620812835e-11  2.3251780457945108e-11  2.2945864680344815e-11  1.0569371926013138e+00  1.0170269634185649e+00  1.0222946698411406e+00  1.0188374069856139e+00  1.0099708584685432e+00  9.9200018321755989e-01  9.6313300530782886e-01  9.2506791585823889e-01  8.8349295729960953e-01  8.4641781010846628e-01  8.2082224652341762e-01  8.1094452475481649e-01  8.1824627919390669e-01  8.4159608898560445e-01  8.7696275579050520e-01  9.1745549028758677e-01  9.5510902754882743e-01  9.8428907985779057e-01  1.0034906927911424e+00  1.0140101456593302e+00  1.0181904076269921e+00  1.0182662979083026e+00  1.0158587998460562e+00  1.0120607747197621e+00  1.0076462042930825e+00  1.0031641002118581e+00  9.9888626829598470e-01  9.9482250688094542e-01  9.9095893182479822e-01  9.8758563499187579e-01  9.8561419821369367e-01  9.8656243517539421e-01  9.9132376362338592e-01  9.9741284346243142e-01  1.0002674630005934e+00  9.9974533533335141e-01  9.9918282946695447e-01  9.9915730366049504e-01  9.9841787251238112e-01  9.9568073648409439e-01  9.7803344253773006e-01  8.3065926372812116e-01  2.9019158314627408e-01  3.8242789479732871e-02  1.2635873047326046e-02  6.2887303869250196e-04  -4.8380371626229317e-04  7.4768487798593892e-04  4.8265337131369099e-04  4.6172245474536232e-06  -9.9273527536850950e-05  -7.2960129989730554e-06  2.4709740218243349e-05  2.9183198103321667e-06  -2.7056091826367236e-06  1.2546828935635779e-06  6.1995430815478728e-07  -5.1151192756018332e-08  1.5996572151995516e-07  7.7075369643891043e-08  3.3223440184496912e-08  3.4777146770195870e-08  1.9632890325867434e-08  1.4769728218710697e-08  1.0877242310600889e-08  7.9314027972880431e-09  6.1075638583366264e-09  4.6832441939819423e-09  3.6770430937760235e-09  2.9136593974692726e-09  2.3353659577863184e-09  1.8886422660142147e-09  1.5391110428013677e-09  1.2625544592094814e-09  1.0414298443586797e-09  8.6309831110803104e-10  7.1816473156629597e-10  5.9960029513998682e-10  5.0205505875967125e-10  4.2141224180368857e-10  3.5446650432750047e-10  2.9869553843478992e-10  2.5209717426030802e-10  2.1306731391005929e-10  1.8031334422045683e-10  1.5278477381566737e-10  1.2962512259739789e-10  1.1013106310941818e-10  9.3724808422006918e-11  7.9928656772228098e-11  6.8348330680299063e-11  5.8657426014028784e-11  5.0586357185595852e-11  4.3912959446791755e-11  3.8455488551963931e-11  3.4066519613424326e-11  3.0628399369755106e-11  2.8049275882868135e-11  2.6260271625226068e-11  2.5212214186835480e-11  2.4875414272470852e-11  4.9188925587078808e-01  5.4628524147339930e-01  5.1466669592348291e-01  4.6422867635358700e-01  3.9651608716334785e-01  3.1732984314733537e-01  2.3722579335364141e-01  1.6604646274479168e-01  1.1048134702741605e-01  7.3034593500784242e-02  5.1945400534944113e-02  4.4160550880332508e-02  4.7893088498192959e-02  6.3555830932224416e-02  9.3620468408016300e-02  1.4120058247872166e-01  2.0718146785517388e-01  2.8747020509695936e-01  3.7546099766984409e-01  4.6432093834704319e-01  5.4887290753679230e-01  6.2582988842497789e-01  6.9407438674273392e-01  7.5449307119484954e-01  8.0753185086983970e-01  8.5357814459158687e-01  8.9298086840320856e-01  9.2712879968182937e-01  9.5766473179832812e-01  9.8534411630888274e-01  1.0085221934101154e+00  1.0224612690055397e+00  1.0212594352874527e+00  1.0058815608268499e+00  9.9219684934554186e-01  9.9269308086043773e-01  9.9754524090724028e-01  9.9802889883208135e-01  9.9745417352866517e-01  9.9610494482520351e-01  9.8928635225874073e-01  9.6549743830506651e-01  8.0900923693667570e-01  3.3940171489563770e-01  4.3799698436460734e-02  1.3173376376966342e-02  1.0392956289344160e-02  7.6896745132649198e-04  -1.8336507441345934e-03  -4.2140617279065210e-04  4.9992521754769158e-04  2.5560604973993918e-04  -5.7475325818166298e-05  -3.3270167039931120e-05  1.9451365319871695e-05  3.2236288448105601e-06  -2.3871618592643128e-06  1.2879791605105182e-06  2.5273218940542677e-07  -2.4060433530658499e-08  1.4271978899969867e-07  2.9794100337236567e-08  3.1511251480839952e-08  2.2569228542400398e-08  1.3609595906100043e-08  1.0976441353697705e-08  7.6788985590108543e-09  5.9223905715414826e-09  4.5234357174131107e-09  3.5357078194277322e-09  2.7974624938575817e-09  2.2374103078170980e-09  1.8072989376880291e-09  1.4712336085069155e-09  1.2059328462943436e-09  9.9409005237511889e-10  8.2344686457859385e-10  6.8488678884533586e-10  5.7162062591928669e-10  4.7849215906037956e-10  4.0154202113280053e-10  3.3769228025873685e-10  2.8452477573262620e-10  2.4012218760121849e-10  2.0295055334873897e-10  1.7177478965619882e-10  1.4559241429296710e-10  1.2358746550199589e-10  1.0509079370012282e-10  8.9553445682349606e-11  7.6522879485976764e-11  6.5626304614179779e-11  5.6556488251202924e-11  4.9061041136354536e-11  4.2933415581123869e-11  3.8006832007795033e-11  3.4147763344804972e-11  3.1252593950032061e-11  2.9243247546305588e-11  2.8065821723666838e-11  2.7688477276171718e-11  -5.6402442105419450e-03  -4.4377813973332736e-02  -5.0693599179510572e-02  -5.1374424104493006e-02  -5.1102307548473509e-02  -4.6574790873969311e-02  -3.8028651455772791e-02  -2.7359596841742512e-02  -1.6970965337250354e-02  -8.7146630057101573e-03  -3.3163526238775441e-03  -5.5083765575699903e-04  2.8469220218794292e-05  -1.3819005923509022e-03  -4.9305264020206045e-03  -1.0896389906629391e-02  -1.9135930779617359e-02  -2.8441334526240914e-02  -3.6728742201196728e-02  -4.1859740335991338e-02  -4.2239352849683033e-02  -3.7070651598128050e-02  -2.6300966809558332e-02  -1.0003893467809177e-02  1.1634324702591825e-02  3.8272130381154144e-02  6.9321822353266713e-02  1.0506412574606569e-01  1.4798245911959199e-01  2.0350347487693635e-01  2.8015966751779509e-01  3.8882839729394675e-01  5.3901234587182267e-01  7.2416948771666223e-01  8.9491495558084500e-01  9.7817499259326413e-01  9.8609378297140582e-01  9.8930761084036223e-01  9.9502956283710620e-01  9.9504534558355806e-01  9.9434479476715842e-01  9.8829443080126222e-01  9.7336141384486496e-01  9.1260759443399753e-01  6.1227543813950747e-01  2.0135299400733983e-01  1.2549138652678571e-02  9.2226780859266358e-04  1.1125603403168557e-02  6.5283231873161998e-03  -1.9946084572534278e-04  -1.3925657530824665e-03  -5.1198659395902304e-06  3.1308481470622960e-04  -1.2524633740993991e-05  -3.2489343110600831e-05  1.7602478937574978e-05  3.3881930569919195e-07  -1.2980822488700787e-06  1.2386188896348805e-06  -1.1558685202749798e-07  1.0333025769742892e-07  7.3408837509663387e-08  1.8456333389092175e-08  2.7675568194568210e-08  1.3266841186674236e-08  1.1161207606378474e-08  7.7739543013986840e-09  5.8825494583263007e-09  4.5018818048693392e-09  3.4918743231992175e-09  2.7577525260165403e-09  2.1990121238539811e-09  1.7730725650978744e-09  1.4410296855711778e-09  1.1796988587504062e-09  9.7146193424723122e-10  8.0402527316464432e-10  6.6826807530989031e-10  5.5742899833169313e-10  4.6639070624717125e-10  3.9123508483850820e-10  3.2892416830502679e-10  2.7707680478505926e-10  2.3380876254031442e-10  1.9761539422486983e-10  1.6728776373978824e-10  1.4184646286810868e-10  1.2049567078804480e-10  1.0258444217383422e-10  8.7579834271852059e-11  7.5043994451677901e-11  6.4617740091701727e-11  5.6006519872067881e-11  4.8970520095448186e-11  4.3315361028083146e-11  3.8886949316356425e-11  3.5564697347342188e-11  3.3259378524937586e-11  3.1908706889285241e-11  3.1477399156205810e-11  -3.1913928476502061e-04  1.0036999444162668e-02  1.6172397913811299e-02  1.6008776193768826e-02  1.5678009277312492e-02  1.4674594641983887e-02  1.2525699834438603e-02  9.6144815257971864e-03  6.5398452146230223e-03  3.8838394158198651e-03  1.9825093034908287e-03  8.7385790600266093e-04  4.3993330505279725e-04  5.8514394742235822e-04  1.3108852457595491e-03  2.6995346934902105e-03  4.8104232632987529e-03  7.4952605535374842e-03  1.0319603832967194e-02  1.2719472778349740e-02  1.4209203520627241e-02  1.4493709820542020e-02  1.3502677322842811e-02  1.1297946387441046e-02  7.9847336736159208e-03  3.7178679428920428e-03  -1.2552206911626475e-03  -6.6616758393805769e-03  -1.2397025593994854e-02  -1.8528657645968574e-02  -2.4880597580004653e-02  -2.9743167122522660e-02  -2.6346389615494122e-02  6.3342694513888777e-03  1.2174835737150906e-01  3.9321242545542739e-01  7.5368056297485286e-01  9.4715107032461443e-01  9.7826298682995250e-01  9.9248184602165757e-01  9.9484213536534172e-01  9.9542800313969304e-01  9.9377522399338458e-01  9.8481713091223300e-01  9.7965027369363344e-01  9.1274541294536693e-01  6.4446602610646586e-01  2.7969488493668454e-01  4.9372167375218920e-02  -1.2039641390899304e-02  -8.5988897267440289e-04  8.5301650800393390e-03  3.3503744268140821e-03  -9.6864478477809652e-04  -2.5465803188133584e-04  2.7349403238078598e-04  -2.2014814067935125e-05  -1.6888391002546294e-05  1.5343447077754214e-05  -3.2907168658536451e-06  7.3811717841027282e-07  4.6103869695624280e-07  -1.0060828334382030e-07  1.4044203632307468e-07  1.0444789440977437e-08  2.9556535356572398e-08  1.4750236449182535e-08  1.1126008369575838e-08  8.1296971874793956e-09  5.9346272167467158e-09  4.5678871754189479e-09  3.5122622276300695e-09  2.7680502697064708e-09  2.2001441947291265e-09  1.7702950883146113e-09  1.4361851341982599e-09  1.1740517783698416e-09  9.6568148967984857e-10  7.9847211487965375e-10  6.6312712973037758e-10  5.5277879909509425e-10  4.6225186323107319e-10  3.8759601709113530e-10  3.2575736405095585e-10  2.7434874562080710e-10  2.3148578897869277e-10  1.9566730610156386e-10  1.6568980415907437e-10  1.4058060931492467e-10  1.1955106355454198e-10  1.0195796622498641e-10  8.7276443770927164e-11  7.5076818513055814e-11  6.5008970414590746e-11  5.6787713472261203e-11  5.0183562668786837e-11  4.5013622802722179e-11  4.1136625349341666e-11  3.8446493795350443e-11  3.6871529500477980e-11  3.6370056027169044e-11  5.0385942243797539e-04  -1.0683281833190146e-03  -3.6322998497939057e-03  -4.3234686754463408e-03  -4.1600680518687058e-03  -4.0314513594622006e-03  -3.6209735978710101e-03  -2.9343800420728507e-03  -2.1190777759780770e-03  -1.3402985423869476e-03  -7.2667377587608121e-04  -3.2674474670245617e-04  -1.2392178166349509e-04  -8.5100875359765720e-05  -1.9655002196014294e-04  -4.7109868981554240e-04  -9.3242356650016149e-04  -1.5731203008386974e-03  -2.3130112188989530e-03  -3.0107644550631820e-03  -3.5193969331561315e-03  -3.7308667599290314e-03  -3.5961382978421550e-03  -3.1157724248233906e-03  -2.3107386881526873e-03  -1.2102985361643690e-03  1.3847281373843953e-04  1.6728402131000917e-03  3.3618484146295327e-03  5.2564027265217398e-03  7.4737192598603903e-03  1.0091379307721530e-02  1.2808310354744007e-02  1.4357574126455172e-02  1.1936151147123718e-02  9.3513472849510223e-03  1.0874314118790311e-01  5.1979873908263508e-01  9.1280367220906600e-01  9.7913506127917771e-01  9.9455239409514407e-01  9.9697428258022824e-01  9.9742452459316977e-01  9.9770076522450546e-01  9.9439045112809099e-01  9.8630572769825686e-01  9.8840832086316677e-01  9.6162083703099821e-01  8.0436438997822546e-01  5.1293616799949382e-01  2.1135421529602705e-01  3.0308949515997136e-02  -8.9696092011817830e-03  4.3222881973393910e-03  4.4138464765622496e-03  -6.0287902206872246e-04  -1.2958716020814524e-04  2.1328116977842518e-04  -5.4751971199977927e-05  1.0127271411932381e-05  4.5922865946670142e-06  -2.3072138929087809e-06  1.3898071855432532e-06  -2.4505888445762874e-07  1.5464316557601981e-07  2.4679421756593258e-08  2.5496238653505012e-08  1.7944370507337263e-08  1.0949116224937603e-08  8.6310772815065753e-09  6.0593274493006147e-09  4.6894264650547840e-09  3.5770834064400391e-09  2.8121022250838758e-09  2.2284456612611028e-09  1.7891400064587245e-09  1.4488983902641249e-09  1.1827130130575690e-09  9.7166116619100779e-10  8.0263372666828960e-10  6.6605148898095392e-10  5.5485173425867089e-10  4.6373780541928833e-10  3.8867864879764633e-10  3.2656805854655017e-10  2.7498456986956417e-10  2.3202171973200690e-10  1.9616462907980729e-10  1.6620159280730873e-10  1.4115586739845728e-10  1.2023779578311747e-10  1.0280526450682202e-10  8.8336729679059455e-11  7.6407434639889231e-11  6.6674067057925807e-11  5.8859954739573400e-11  5.2746293600571328e-11  4.8162804434353310e-11  4.4984259094465925e-11  4.3123706082113104e-11  4.2532847278821572e-11  -9.3207583207207182e-05  2.1414583030117886e-05  6.5906816632025072e-04  1.1288788097048759e-03  1.1538944610543032e-03  1.1065314885155340e-03  1.0418632019487781e-03  8.9055093891625577e-04  6.8326030177906602e-04  4.6419260448198605e-04  2.7437211633648254e-04  1.3808552759203536e-04  5.8380725178836163e-05  2.7060124592523962e-05  3.7131973861037074e-05  8.8642922164285006e-05  1.8751233763407039e-04  3.3752903802483