<?xml version="1.0"?>
<VTKFile type="UnstructuredGrid"  version="0.1"  >
<UnstructuredGrid>
<Piece  NumberOfPoints="5151" NumberOfCells="10000">
<Points>
<DataArray  type="Float64"  NumberOfComponents="3"  format="ascii">0 0 0  0.01 0 0  0.02 0 0  0.03 0 0  0.04 0 0  0.05 0 0  0.06 0 0  0.07000000000000001 0 0  0.08 0 0  0.09 0 0  0.1 0 0  0.11 0 0  0.12 0 0  0.13 0 0  0.14 0 0  0.15 0 0  0.16 0 0  0.17 0 0  0.18 0 0  0.19 0 0  0.2 0 0  0.21 0 0  0.22 0 0  0.23 0 0  0.24 0 0  0.25 0 0  0.26 0 0  0.27 0 0  0.28 0 0  0.29 0 0  0.3 0 0  0.31 0 0  0.32 0 0  0.33 0 0  0.34 0 0  0.35 0 0  0.36 0 0  0.37 0 0  0.38 0 0  0.39 0 0  0.4 0 0  0.41 0 0  0.42 0 0  0.43 0 0  0.44 0 0  0.45 0 0  0.46 0 0  0.47 0 0  0.48 0 0  0.49 0 0  0.5 0 0  0.51 0 0  0.52 0 0  0.53 0 0  0.54 0 0  0.55 0 0  0.5600000000000001 0 0  0.57 0 0  0.58 0 0  0.59 0 0  0.6 0 0  0.61 0 0  0.62 0 0  0.63 0 0  0.64 0 0  0.65 0 0  0.66 0 0  0.67 0 0  0.68 0 0  0.6899999999999999 0 0  0.7 0 0  0.71 0 0  0.72 0 0  0.73 0 0  0.74 0 0  0.75 0 0  0.76 0 0  0.77 0 0  0.78 0 0  0.79 0 0  0.8 0 0  0.8100000000000001 0 0  0.82 0 0  0.83 0 0  0.84 0 0  0.85 0 0  0.86 0 0  0.87 0 0  0.88 0 0  0.89 0 0  0.9 0 0  0.91 0 0  0.92 0 0  0.93 0 0  0.9399999999999999 0 0  0.95 0 0  0.96 0 0  0.97 0 0  0.98 0 0  0.99 0 0  1 0 0  0 0.01 0  0.01 0.01 0  0.02 0.01 0  0.03 0.01 0  0.04 0.01 0  0.05 0.01 0  0.06 0.01 0  0.07000000000000001 0.01 0  0.08 0.01 0  0.09 0.01 0  0.1 0.01 0  0.11 0.01 0  0.12 0.01 0  0.13 0.01 0  0.14 0.01 0  0.15 0.01 0  0.16 0.01 0  0.17 0.01 0  0.18 0.01 0  0.19 0.01 0  0.2 0.01 0  0.21 0.01 0  0.22 0.01 0  0.23 0.01 0  0.24 0.01 0  0.25 0.01 0  0.26 0.01 0  0.27 0.01 0  0.28 0.01 0  0.29 0.01 0  0.3 0.01 0  0.31 0.01 0  0.32 0.01 0  0.33 0.01 0  0.34 0.01 0  0.35 0.01 0  0.36 0.01 0  0.37 0.01 0  0.38 0.01 0  0.39 0.01 0  0.4 0.01 0  0.41 0.01 0  0.42 0.01 0  0.43 0.01 0  0.44 0.01 0  0.45 0.01 0  0.46 0.01 0  0.47 0.01 0  0.48 0.01 0  0.49 0.01 0  0.5 0.01 0  0.51 0.01 0  0.52 0.01 0  0.53 0.01 0  0.54 0.01 0  0.55 0.01 0  0.5600000000000001 0.01 0  0.57 0.01 0  0.58 0.01 0  0.59 0.01 0  0.6 0.01 0  0.61 0.01 0  0.62 0.01 0  0.63 0.01 0  0.64 0.01 0  0.65 0.01 0  0.66 0.01 0  0.67 0.01 0  0.68 0.01 0  0.6899999999999999 0.01 0  0.7 0.01 0  0.71 0.01 0  0.72 0.01 0  0.73 0.01 0  0.74 0.01 0  0.75 0.01 0  0.76 0.01 0  0.77 0.01 0  0.78 0.01 0  0.79 0.01 0  0.8 0.01 0  0.8100000000000001 0.01 0  0.82 0.01 0  0.83 0.01 0  0.84 0.01 0  0.85 0.01 0  0.86 0.01 0  0.87 0.01 0  0.88 0.01 0  0.89 0.01 0  0.9 0.01 0  0.91 0.01 0  0.92 0.01 0  0.93 0.01 0  0.9399999999999999 0.01 0  0.95 0.01 0  0.96 0.01 0  0.97 0.01 0  0.98 0.01 0  0.99 0.01 0  1 0.01 0  0 0.02 0  0.01 0.02 0  0.02 0.02 0  0.03 0.02 0  0.04 0.02 0  0.05 0.02 0  0.06 0.02 0  0.07000000000000001 0.02 0  0.08 0.02 0  0.09 0.02 0  0.1 0.02 0  0.11 0.02 0  0.12 0.02 0  0.13 0.02 0  0.14 0.02 0  0.15 0.02 0  0.16 0.02 0  0.17 0.02 0  0.18 0.02 0  0.19 0.02 0  0.2 0.02 0  0.21 0.02 0  0.22 0.02 0  0.23 0.02 0  0.24 0.02 0  0.25 0.02 0  0.26 0.02 0  0.27 0.02 0  0.28 0.02 0  0.29 0.02 0  0.3 0.02 0  0.31 0.02 0  0.32 0.02 0  0.33 0.02 0  0.34 0.02 0  0.35 0.02 0  0.36 0.02 0  0.37 0.02 0  0.38 0.02 0  0.39 0.02 0  0.4 0.02 0  0.41 0.02 0  0.42 0.02 0  0.43 0.02 0  0.44 0.02 0  0.45 0.02 0  0.46 0.02 0  0.47 0.02 0  0.48 0.02 0  0.49 0.02 0  0.5 0.02 0  0.51 0.02 0  0.52 0.02 0  0.53 0.02 0  0.54 0.02 0  0.55 0.02 0  0.5600000000000001 0.02 0  0.57 0.02 0  0.58 0.02 0  0.59 0.02 0  0.6 0.02 0  0.61 0.02 0  0.62 0.02 0  0.63 0.02 0  0.64 0.02 0  0.65 0.02 0  0.66 0.02 0  0.67 0.02 0  0.68 0.02 0  0.6899999999999999 0.02 0  0.7 0.02 0  0.71 0.02 0  0.72 0.02 0  0.73 0.02 0  0.74 0.02 0  0.75 0.02 0  0.76 0.02 0  0.77 0.02 0  0.78 0.02 0  0.79 0.02 0  0.8 0.02 0  0.8100000000000001 0.02 0  0.82 0.02 0  0.83 0.02 0  0.84 0.02 0  0.85 0.02 0  0.86 0.02 0  0.87 0.02 0  0.88 0.02 0  0.89 0.02 0  0.9 0.02 0  0.91 0.02 0  0.92 0.02 0  0.93 0.02 0  0.9399999999999999 0.02 0  0.95 0.02 0  0.96 0.02 0  0.97 0.02 0  0.98 0.02 0  0.99 0.02 0  1 0.02 0  0 0.03 0  0.01 0.03 0  0.02 0.03 0  0.03 0.03 0  0.04 0.03 0  0.05 0.03 0  0.06 0.03 0  0.07000000000000001 0.03 0  0.08 0.03 0  0.09 0.03 0  0.1 0.03 0  0.11 0.03 0  0.12 0.03 0  0.13 0.03 0  0.14 0.03 0  0.15 0.03 0  0.16 0.03 0  0.17 0.03 0  0.18 0.03 0  0.19 0.03 0  0.2 0.03 0  0.21 0.03 0  0.22 0.03 0  0.23 0.03 0  0.24 0.03 0  0.25 0.03 0  0.26 0.03 0  0.27 0.03 0  0.28 0.03 0  0.29 0.03 0  0.3 0.03 0  0.31 0.03 0  0.32 0.03 0  0.33 0.03 0  0.34 0.03 0  0.35 0.03 0  0.36 0.03 0  0.37 0.03 0  0.38 0.03 0  0.39 0.03 0  0.4 0.03 0  0.41 0.03 0  0.42 0.03 0  0.43 0.03 0  0.44 0.03 0  0.45 0.03 0  0.46 0.03 0  0.47 0.03 0  0.48 0.03 0  0.49 0.03 0  0.5 0.03 0  0.51 0.03 0  0.52 0.03 0  0.53 0.03 0  0.54 0.03 0  0.55 0.03 0  0.5600000000000001 0.03 0  0.57 0.03 0  0.58 0.03 0  0.59 0.03 0  0.6 0.03 0  0.61 0.03 0  0.62 0.03 0  0.63 0.03 0  0.64 0.03 0  0.65 0.03 0  0.66 0.03 0  0.67 0.03 0  0.68 0.03 0  0.6899999999999999 0.03 0  0.7 0.03 0  0.71 0.03 0  0.72 0.03 0  0.73 0.03 0  0.74 0.03 0  0.75 0.03 0  0.76 0.03 0  0.77 0.03 0  0.78 0.03 0  0.79 0.03 0  0.8 0.03 0  0.8100000000000001 0.03 0  0.82 0.03 0  0.83 0.03 0  0.84 0.03 0  0.85 0.03 0  0.86 0.03 0  0.87 0.03 0  0.88 0.03 0  0.89 0.03 0  0.9 0.03 0  0.91 0.03 0  0.92 0.03 0  0.93 0.03 0  0.9399999999999999 0.03 0  0.95 0.03 0  0.96 0.03 0  0.97 0.03 0  0.98 0.03 0  0.99 0.03 0  1 0.03 0  0 0.04 0  0.01 0.04 0  0.02 0.04 0  0.03 0.04 0  0.04 0.04 0  0.05 0.04 0  0.06 0.04 0  0.07000000000000001 0.04 0  0.08 0.04 0  0.09 0.04 0  0.1 0.04 0  0.11 0.04 0  0.12 0.04 0  0.13 0.04 0  0.14 0.04 0  0.15 0.04 0  0.16 0.04 0  0.17 0.04 0  0.18 0.04 0  0.19 0.04 0  0.2 0.04 0  0.21 0.04 0  0.22 0.04 0  0.23 0.04 0  0.24 0.04 0  0.25 0.04 0  0.26 0.04 0  0.27 0.04 0  0.28 0.04 0  0.29 0.04 0  0.3 0.04 0  0.31 0.04 0  0.32 0.04 0  0.33 0.04 0  0.34 0.04 0  0.35 0.04 0  0.36 0.04 0  0.37 0.04 0  0.38 0.04 0  0.39 0.04 0  0.4 0.04 0  0.41 0.04 0  0.42 0.04 0  0.43 0.04 0  0.44 0.04 0  0.45 0.04 0  0.46 0.04 0  0.47 0.04 0  0.48 0.04 0  0.49 0.04 0  0.5 0.04 0  0.51 0.04 0  0.52 0.04 0  0.53 0.04 0  0.54 0.04 0  0.55 0.04 0  0.5600000000000001 0.04 0  0.57 0.04 0  0.58 0.04 0  0.59 0.04 0  0.6 0.04 0  0.61 0.04 0  0.62 0.04 0  0.63 0.04 0  0.64 0.04 0  0.65 0.04 0  0.66 0.04 0  0.67 0.04 0  0.68 0.04 0  0.6899999999999999 0.04 0  0.7 0.04 0  0.71 0.04 0  0.72 0.04 0  0.73 0.04 0  0.74 0.04 0  0.75 0.04 0  0.76 0.04 0  0.77 0.04 0  0.78 0.04 0  0.79 0.04 0  0.8 0.04 0  0.8100000000000001 0.04 0  0.82 0.04 0  0.83 0.04 0  0.84 0.04 0  0.85 0.04 0  0.86 0.04 0  0.87 0.04 0  0.88 0.04 0  0.89 0.04 0  0.9 0.04 0  0.91 0.04 0  0.92 0.04 0  0.93 0.04 0  0.9399999999999999 0.04 0  0.95 0.04 0  0.96 0.04 0  0.97 0.04 0  0.98 0.04 0  0.99 0.04 0  1 0.04 0  0 0.05 0  0.01 0.05 0  0.02 0.05 0  0.03 0.05 0  0.04 0.05 0  0.05 0.05 0  0.06 0.05 0  0.07000000000000001 0.05 0  0.08 0.05 0  0.09 0.05 0  0.1 0.05 0  0.11 0.05 0  0.12 0.05 0  0.13 0.05 0  0.14 0.05 0  0.15 0.05 0  0.16 0.05 0  0.17 0.05 0  0.18 0.05 0  0.19 0.05 0  0.2 0.05 0  0.21 0.05 0  0.22 0.05 0  0.23 0.05 0  0.24 0.05 0  0.25 0.05 0  0.26 0.05 0  0.27 0.05 0  0.28 0.05 0  0.29 0.05 0  0.3 0.05 0  0.31 0.05 0  0.32 0.05 0  0.33 0.05 0  0.34 0.05 0  0.35 0.05 0  0.36 0.05 0  0.37 0.05 0  0.38 0.05 0  0.39 0.05 0  0.4 0.05 0  0.41 0.05 0  0.42 0.05 0  0.43 0.05 0  0.44 0.05 0  0.45 0.05 0  0.46 0.05 0  0.47 0.05 0  0.48 0.05 0  0.49 0.05 0  0.5 0.05 0  0.51 0.05 0  0.52 0.05 0  0.53 0.05 0  0.54 0.05 0  0.55 0.05 0  0.5600000000000001 0.05 0  0.57 0.05 0  0.58 0.05 0  0.59 0.05 0  0.6 0.05 0  0.61 0.05 0  0.62 0.05 0  0.63 0.05 0  0.64 0.05 0  0.65 0.05 0  0.66 0.05 0  0.67 0.05 0  0.68 0.05 0  0.6899999999999999 0.05 0  0.7 0.05 0  0.71 0.05 0  0.72 0.05 0  0.73 0.05 0  0.74 0.05 0  0.75 0.05 0  0.76 0.05 0  0.77 0.05 0  0.78 0.05 0  0.79 0.05 0  0.8 0.05 0  0.8100000000000001 0.05 0  0.82 0.05 0  0.83 0.05 0  0.84 0.05 0  0.85 0.05 0  0.86 0.05 0  0.87 0.05 0  0.88 0.05 0  0.89 0.05 0  0.9 0.05 0  0.91 0.05 0  0.92 0.05 0  0.93 0.05 0  0.9399999999999999 0.05 0  0.95 0.05 0  0.96 0.05 0  0.97 0.05 0  0.98 0.05 0  0.99 0.05 0  1 0.05 0  0 0.06 0  0.01 0.06 0  0.02 0.06 0  0.03 0.06 0  0.04 0.06 0  0.05 0.06 0  0.06 0.06 0  0.07000000000000001 0.06 0  0.08 0.06 0  0.09 0.06 0  0.1 0.06 0  0.11 0.06 0  0.12 0.06 0  0.13 0.06 0  0.14 0.06 0  0.15 0.06 0  0.16 0.06 0  0.17 0.06 0  0.18 0.06 0  0.19 0.06 0  0.2 0.06 0  0.21 0.06 0  0.22 0.06 0  0.23 0.06 0  0.24 0.06 0  0.25 0.06 0  0.26 0.06 0  0.27 0.06 0  0.28 0.06 0  0.29 0.06 0  0.3 0.06 0  0.31 0.06 0  0.32 0.06 0  0.33 0.06 0  0.34 0.06 0  0.35 0.06 0  0.36 0.06 0  0.37 0.06 0  0.38 0.06 0  0.39 0.06 0  0.4 0.06 0  0.41 0.06 0  0.42 0.06 0  0.43 0.06 0  0.44 0.06 0  0.45 0.06 0  0.46 0.06 0  0.47 0.06 0  0.48 0.06 0  0.49 0.06 0  0.5 0.06 0  0.51 0.06 0  0.52 0.06 0  0.53 0.06 0  0.54 0.06 0  0.55 0.06 0  0.5600000000000001 0.06 0  0.57 0.06 0  0.58 0.06 0  0.59 0.06 0  0.6 0.06 0  0.61 0.06 0  0.62 0.06 0  0.63 0.06 0  0.64 0.06 0  0.65 0.06 0  0.66 0.06 0  0.67 0.06 0  0.68 0.06 0  0.6899999999999999 0.06 0  0.7 0.06 0  0.71 0.06 0  0.72 0.06 0  0.73 0.06 0  0.74 0.06 0  0.75 0.06 0  0.76 0.06 0  0.77 0.06 0  0.78 0.06 0  0.79 0.06 0  0.8 0.06 0  0.8100000000000001 0.06 0  0.82 0.06 0  0.83 0.06 0  0.84 0.06 0  0.85 0.06 0  0.86 0.06 0  0.87 0.06 0  0.88 0.06 0  0.89 0.06 0  0.9 0.06 0  0.91 0.06 0  0.92 0.06 0  0.93 0.06 0  0.9399999999999999 0.06 0  0.95 0.06 0  0.96 0.06 0  0.97 0.06 0  0.98 0.06 0  0.99 0.06 0  1 0.06 0  0 0.07000000000000001 0  0.01 0.07000000000000001 0  0.02 0.07000000000000001 0  0.03 0.07000000000000001 0  0.04 0.07000000000000001 0  0.05 0.07000000000000001 0  0.06 0.07000000000000001 0  0.07000000000000001 0.07000000000000001 0  0.08 0.07000000000000001 0  0.09 0.07000000000000001 0  0.1 0.07000000000000001 0  0.11 0.07000000000000001 0  0.12 0.07000000000000001 0  0.13 0.07000000000000001 0  0.14 0.07000000000000001 0  0.15 0.07000000000000001 0  0.16 0.07000000000000001 0  0.17 0.07000
[...]
<PointData  Scalars="rho_bar"> 
<DataArray  type="Float64"  Name="rho_bar"  format="ascii">9.9413233733041051e-01  9.9731721447611710e-01  9.9667892117629064e-01  9.9794471768654569e-01  9.9928193321595649e-01  1.0008814496094882e+00  1.0023234015040137e+00  1.0033260018508305e+00  1.0037224676521022e+00  1.0034749666127865e+00  1.0026288543080217e+00  1.0012889599360417e+00  9.9965108056532415e-01  9.9804527464225246e-01  9.9686079397384209e-01  9.9633150551008509e-01  9.9641229296856426e-01  9.9688480984844685e-01  9.9752586310669178e-01  9.9818675815472246e-01  9.9879886203369606e-01  9.9934371111725306e-01  9.9981709283065412e-01  1.0002146623765684e+00  1.0005357208849972e+00  1.0007869329050503e+00  1.0009752002039316e+00  1.0010887517068887e+00  1.0010841610791879e+00  1.0008932228526508e+00  1.0004879112633043e+00  1.0000338595056786e+00  9.9983203654438735e-01  9.9991295583310047e-01  1.0000277901844195e+00  9.9997017164763902e-01  9.9993462192550531e-01  1.0017908322437279e+00  9.8601794619688843e-01  1.0684925112258057e+00  6.5580445491104178e-01  -3.8629509925276620e-03  -8.0381165584161873e-04  8.6960625366744250e-04  -5.0832085090606135e-05  -1.7650209427136493e-05  -5.6044602285173951e-05  7.4030386121966361e-06  1.3292602523418314e-05  2.3070853383497838e-06  -2.7367445191687605e-06  -6.4839600632043185e-07  5.5536703503284102e-07  4.2730880739816690e-08  -1.0526829024071318e-07  2.1615649174328506e-08  1.0131224456163820e-08  -7.2280000760403987e-09  1.4170185873870294e-09  4.6925205987936386e-10  -4.3430706401836153e-10  1.5142916337340799e-10  -1.7380902738451830e-11  -1.1066311484231581e-11  8.7446560409931403e-12  -3.3527242319352243e-12  9.6440100023371263e-13  -6.0571524666932271e-14  -6.0877624149660006e-15  6.4666236832181372e-14  4.6950096075788232e-15  2.3536007902656163e-14  1.1966595614016997e-14  1.1755871351863777e-14  9.0345655749299425e-15  7.5603905187018573e-15  6.2328526877090073e-15  5.1511586683006849e-15  4.2881030897506520e-15  3.5895502097482406e-15  3.0147678456355165e-15  2.5207106918174024e-15  2.1195124101549232e-15  1.7898745708280409e-15  1.5239141840841023e-15  1.2844528492708652e-15  1.0676584941645945e-15  9.1988055107922894e-16  7.7852681548995345e-16  6.6089215818295740e-16  5.9004387000902300e-16  4.9340044058418977e-16  4.2484947426415897e-16  3.7136550526683139e-16  3.5100156329698326e-16  2.7583972973824926e-16  2.8545734484054823e-16  2.1146199016712487e-16  2.2249952509000405e-16  2.2199830170901602e-16  2.2210588035593165e-16  1.0149027926674383e+00  1.0054908488130656e+00  1.0069353218811339e+00  1.0051471645449759e+00  1.0027408959172306e+00  9.9963573085833168e-01  9.9646362987032910e-01  9.9390060066558361e-01  9.9242109689440383e-01  9.9223239850902667e-01  9.9332741813431868e-01  9.9556300026350841e-01  9.9865003585480272e-01  1.0020577842063116e+00  1.0050092656370537e+00  1.0068076036156153e+00  1.0072600825179414e+00  1.0066807787005727e+00  1.0055456459997802e+00  1.0042360547111602e+00  1.0029675025721376e+00  1.0018181568888225e+00  1.0008048091034356e+00  9.9993691174967358e-01  9.9922198652623062e-01  9.9865443142726007e-01  9.9821740122042391e-01  9.9791001682850722e-01  9.9778701398190750e-01  9.9796410562094606e-01  9.9856603365994068e-01  9.9950348610811490e-01  1.0002324413295427e+00  1.0002959569195000e+00  1.0000333454785413e+00  9.9993957659425436e-01  1.0001653475916410e+00  9.9914115935255154e-01  1.0024495356361813e+00  1.0027724287940645e+00  8.4075287043973934e-01  -3.0508964617407076e-02  1.4380648314175832e-02  -1.5480173646085097e-03  -2.0302150875287236e-04  -3.4945316467699294e-05  1.4577092875431671e-04  2.8249772758394766e-05  -2.8914488782967440e-05  -1.5773278270197405e-05  3.5881456458071278e-06  3.7976696939888535e-06  -7.5989864306211819e-07  -6.0258602573228421e-07  2.4968845712671578e-07  3.4102465159361694e-08  -5.1303717428080135e-08  1.3755249702738886e-08  2.1752244882084159e-09  -3.0355728214381294e-09  1.1429627225498594e-09  -1.4649628577679030e-10  -7.9530864552432627e-11  6.3052260613059654e-11  -2.4491915872109821e-11  6.1878860001886888e-12  -4.7224465485890292e-13  -3.4098375019115982e-13  3.2190917302367742e-13  -9.4017491605889330e-14  6.4359065842943758e-14  5.8158930622903474e-15  1.7249949454437431e-14  1.0967503507074573e-14  9.4771495176508021e-15  7.7277360720750871e-15  6.3610147208732985e-15  5.2726951772049175e-15  4.3944911451447212e-15  3.6597097012220249e-15  3.0713295557841414e-15  2.5752030934194619e-15  2.1762803777391647e-15  1.8226444239794372e-15  1.5449474191871258e-15  1.3142302775189822e-15  1.1046587994614067e-15  9.4503062900175567e-16  8.0897424477911543e-16  6.7202341083634156e-16  5.8006300645702240e-16  4.9960020853291074e-16  4.2924567118941988e-16  3.7611389495864885e-16  3.2764849570723518e-16  2.7939538928711119e-16  2.8476613795658307e-16  2.2926259328229544e-16  2.2603724392120133e-16  2.2200166442093614e-16  2.2196835727926830e-16  9.4716878353906597e-01  9.7854927022902960e-01  9.7420028923805357e-01  9.7838657973307541e-01  9.8502468621045525e-01  9.9475918778209738e-01  1.0058050474478448e+00  1.0157967519306395e+00  1.0227023267844779e+00  1.0254045682661483e+00  1.0236825395697886e+00  1.0178548094935491e+00  1.0086250242594574e+00  9.9729920890229584e-01  9.8613765874735915e-01  9.7790327237704211e-01  9.7427001582277684e-01  9.7488460493465745e-01  9.7820796934474163e-01  9.8269864118422035e-01  9.8732026939099604e-01  9.9159809146146682e-01  9.9540990181366207e-01  9.9872382048644670e-01  1.0015068374444251e+00  1.0037529111693790e+00  1.0055082088142611e+00  1.0068226024772511e+00  1.0076198136907386e+00  1.0075889298342613e+00  1.0062792685252531e+00  1.0034631989289551e+00  1.0001860747630473e+00  9.9874643149416953e-01  9.9946064597581863e-01  1.0001565652830666e+00  1.0000006537152686e+00  1.0000027446795934e+00  1.0007189125820621e+00  9.9339213556260553e-01  1.0033083677868289e+00  1.7922239112541619e-01  3.6178241421405384e-03  -4.1190891773871322e-03  1.2798227641798059e-03  8.6110608313620814e-04  -5.0740307534859240e-04  -2.8388754608007935e-04  4.6787854801160706e-05  9.3683530783657970e-05  1.0729550554526136e-05  -1.9837376633455987e-05  -2.3858884768791109e-06  3.8455721321322932e-06  -3.1694444703218107e-07  -5.4971691641961637e-07  2.3058093914890922e-07  -2.2595087860842659e-09  -3.3993449481924252e-08  1.6061983888055970e-08  -3.0369956024715094e-09  -6.6429518834835529e-10  7.6842625534126687e-10  -3.3822459830350686e-10  9.4764879600225022e-11  -1.3107777565140797e-11  -3.3064220493559178e-12  3.5049771974131193e-12  -1.6035042126848135e-12  6.3351971434342970e-13  -1.6079916919506432e-13  6.9296383703802799e-14  4.0978792418840361e-15  1.4594598325934143e-14  9.9654245268872488e-15  8.2052389709123486e-15  6.8719360330918434e-15  5.6107720570288641e-15  4.6854049608560520e-15  3.8962787015850784e-15  3.2580123366473165e-15  2.7327818330832107e-15  2.2843125437884790e-15  1.9303824237098294e-15  1.6293399593039292e-15  1.3760463923961831e-15  1.1780682163310237e-15  9.9443429962541165e-16  8.5098959405301451e-16  7.1975213798061747e-16  6.1687278578662971e-16  5.2587749427322574e-16  4.5672725332458480e-16  4.0336815799135530e-16  3.3884235472643455e-16  3.2090048450637409e-16  2.6775352582039465e-16  2.7765638553232198e-16  2.0568348084653481e-16  2.1740254176633821e-16  2.2261930280899685e-16  1.1592907250933500e+00  1.0836360388145083e+00  1.0898136864595118e+00  1.0797793089056005e+00  1.0584851284233756e+00  1.0232304119654947e+00  9.7728866158784800e-01  9.2893974527822243e-01  8.8793888766100948e-01  8.6282616350054542e-01  8.5843755372390829e-01  8.7541631137058262e-01  9.1080556262698731e-01  9.5877809202206576e-01  1.0105722030447026e+00  1.0549128497869149e+00  1.0822518350164252e+00  1.0905027344084812e+00  1.0844270088540378e+00  1.0705565283684877e+00  1.0540760788459707e+00  1.0379391409116725e+00  1.0232166285406508e+00  1.0101703062030516e+00  9.9897056673803153e-01  9.8973277474712484e-01  9.8240341862103953e-01  9.7676305789873896e-01  9.7279591961182488e-01  9.7119274743591033e-01  9.7349068053597576e-01  9.8115788354592481e-01  9.9346356410249781e-01  1.0034301163206933e+00  1.0038845178585809e+00  1.0000939402332951e+00  9.9950677862815773e-01  1.0001860579156459e+00  9.9965744000213452e-01  1.0001440283440044e+00  1.0044325622957746e+00  7.9453262518885104e-01  9.6880130077811322e-03  1.1493548288013264e-02  4.2632515791415889e-03  -6.3053937027296430e-03  6.7254587636056645e-04  1.6941159030332551e-03  2.9780954562140196e-04  -3.8718944632282394e-04  -1.8760779118925147e-04  6.1611572583528907e-05  4.1697785943309719e-05  -1.4422989973702993e-05  -4.5829755148785908e-06  3.5425809582112449e-06  -4.4131458418390550e-07  -3.7281340841535985e-07  2.2741801936057046e-07  -5.3146551005516241e-08  -5.3113709781921048e-09  1.0041180281235060e-08  -4.7757620202258815e-09  1.3983641098694513e-09  -2.1278600030293260e-10  -4.1078838079303954e-11  4.7912509615644551e-11  -2.3236168191762942e-11  8.6217292517268476e-12  -2.6040324974648481e-12  7.3188433719045975e-13  -1.3651459100159810e-13  4.5775801973286380e-14  1.2238876775796047e-14  1.0174080138312953e-14  1.0207085385239784e-14  7.2195897696299291e-15  6.4270588412356293e-15  5.1341567813939602e-15  4.3254961713684840e-15  3.5891093494428313e-15  3.0130085665120707e-15  2.5302511670581525e-15  2.1124309264802369e-15  1.7814568810430521e-15  1.5152887845405469e-15  1.2844905321645935e-15  1.0732744515344319e-15  9.1502111474008791e-16  7.7283110851361445e-16  6.6411125381344505e-16  5.7735956112456496e-16  4.9642639199157769e-16  4.2958468049739728e-16  3.7443048653416063e-16  3.3021110398242100e-16  2.9553221864516032e-16  2.6925094184320009e-16  2.8701948995146841e-16  2.5573564391209877e-16  2.2804267259264419e-16  2.2267444938216652e-01  3.0779999920224788e-01  2.7351133173757358e-01  2.1644026082323820e-01  1.4785304673394536e-01  7.7285481238757767e-02  1.6014996211216898e-02  -2.9817343660772499e-02  -5.8771103923820220e-02  -7.3077670384863902e-02  -7.6676958092707539e-02  -7.1681411184324487e-02  -5.7050599363120520e-02  -2.8730511489600496e-02  1.9240308760572308e-02  9.2014532691336054e-02  1.9083616579427323e-01  3.0995125684717156e-01  4.3838605987806001e-01  5.6331913875607609e-01  6.7523715375317495e-01  7.6987300157741057e-01  8.4791839331818519e-01  9.1259891994346598e-01  9.6608148449651987e-01  1.0096037738059920e+00  1.0440042944657375e+00  1.0705750671589642e+00  1.0904145817415536e+00  1.1027436764623240e+00  1.1034210677434326e+00  1.0861192817863141e+00  1.0482904424494224e+00  1.0016223367794899e+00  9.8095438419773362e-01  9.9370374854473498e-01  1.0025349615396362e+00  9.9982732378355466e-01  9.9966167704416042e-01  1.0006330998825266e+00  9.9383424402515708e-01  1.0180318846166938e+00  7.9658071736804414e-01  8.4721715219936045e-02  -4.4395663615687295e-02  2.4512252651138950e-02  7.0083504124941690e-03  -6.6856354186235192e-03  -3.6410023683895688e-03  7.8791014064716423e-04  1.2854375758452748e-03  6.1619602888770259e-05  -2.7619645654204314e-04  1.0688320953637705e-06  4.6903060854281000e-05  -1.2050346487475494e-05  -3.3130062118526069e-06  3.1107398358514823e-06  -8.8808017656635069e-07  -1.4122646430776874e-08  1.2887115225706286e-07  -6.6899902090542355e-08  2.0453494488818502e-08  -3.3355866752189500e-09  -4.9202304221983080e-10  6.5758897707604155e-10  -3.2613261796565090e-10  1.2059858339634077e-10  -3.7055570197047554e-11  9.8900601647477580e-12  -2.1819753873723469e-12  4.1475362044762806e-13  -5.5023235663219684e-15  -9.2433062175257427e-16  2.5937217611208969e-14  5.3062952979332834e-15  1.0945293033344674e-14  6.5042600942944843e-15  6.1857665570097274e-15  4.8514805040075653e-15  4.1081161764194748e-15  3.4061299120453203e-15  2.8604520027503772e-15  2.3978345855197478e-15  2.0216905290288186e-15  1.6996900259997426e-15  1.4293630373963063e-15  1.2091768417474399e-15  1.0234082243416348e-15  8.7538347239362684e-16  7.6082342427029230e-16  6.4911480725657186e-16  5.5128458450137080e-16  4.7916604612295067e-16  4.3051042472342777e-16  3.7290338777132929e-16  3.3103122332773716e-16  3.1492100955755554e-16  2.7228079330945122e-16  2.6861900319620874e-16  2.8960013513171471e-16  -1.4233813510924103e-02  -6.0780084934300066e-02  -6.6093941150039914e-02  -5.4997676669818168e-02  -4.1414052000572153e-02  -2.5187403630569139e-02  -9.1073815068965381e-03  4.2596842357964029e-03  1.3668377304504027e-02  1.9062761713773406e-02  2.1250367627544686e-02  2.1080873236419908e-02  1.8722352639278524e-02  1.3545039657428856e-02  4.3226303529251050e-03  -1.0151142056152562e-02  -3.0122602249058252e-02  -5.3910056877464196e-02  -7.7881977892127793e-02  -9.7520535453874221e-02  -1.0886963535133605e-01  -1.0952354426370464e-01  -9.8867303883399815e-02  -7.7451964308107066e-02  -4.6744616683796356e-02  -8.8092051587825345e-03  3.4317301773899918e-02  8.2066399532835482e-02  1.3731399241532605e-01  2.0785165847817294e-01  3.0671423098506367e-01  4.5043117594575949e-01  6.4711413324323352e-01  8.7196652040705269e-01  1.0449113101927670e+00  1.0518877772052504e+00  9.9380060424667493e-01  9.9613443322993411e-01  1.0020529848838775e+00  9.9865364700266424e-01  1.0016396658399553e+00  9.9352309746810352e-01  1.0053382761710068e+00  1.0003675280869442e+00  5.0109862235373381e-01  -1.3794935007793331e-02  -6.3421251025474940e-02  1.2408240356041489e-02  2.2418771284665094e-02  3.4101565827374513e-03  -5.6769738773732557e-03  -2.3067822488686890e-03  1.0547193976388777e-03  4.3670103900248696e-04  -2.4102816564426242e-04  -1.0382824113260122e-05  4.0141460142701151e-05  -1.4423017242921491e-05  7.7452686228316024e-07  1.6030132666139159e-06  -9.3322384698326720e-07  2.9952915538980169e-07  -5.2159284731317502e-08  -5.5787148663733189e-09  9.0153041675496179e-09  -4.5665394886652194e-09  1.6956435354067783e-09  -5.2216034763796021e-10  1.3824353944231502e-10  -3.0964318945560401e-11  5.4396520537515926e-12  -3.3637746660054410e-13  -2.2195549501830319e-13  1.9391561144385188e-13  -6.0766441471657190e-14  4.2505997249465064e-14  4.5666933237210218e-16  1.1870262643862259e-14  6.0460843168094282e-15  6.0855275757703627e-15  4.7113364917806890e-15  3.9998748436301115e-15  3.3139115009575722e-15  2.7847831044135668e-15  2.3277214665636300e-15  1.9556877609073368e-15  1.6521604306548044e-15  1.4119062206088136e-15  1.1875013249747032e-15  1.0104845924110811e-15  8.6017870770777516e-16  7.1718027868564335e-16  6.3929224691104283e-16  5.5349358210803552e-16  4.8019235234772222e-16  4.2430769888286484e-16  3.7951613122931026e-16  3.4367856255588434e-16  3.3357218859422153e-16  3.2281386450775396e-16  3.0960901864087203e-16  -8.3189736556627382e-04  1.0531322693226050e-02  1.8176067332309701e-02  1.6486207587728629e-02  1.3001911463000861e-02  8.9871698248324954e-03  4.5511842859772070e-03  5.3871742622210175e-04  -2.5349251180375311e-03  -4.5041031978743859e-03  -5.4891764942358034e-03  -5.7407235219118459e-03  -5.4094217400330125e-03  -4.4313050588873550e-03  -2.5437889349727840e-03  6.0646767905075851e-04  5.2501311196025214e-03  1.1216484163642702e-02  1.7779050527508722e-02  2.3806967518638686e-02  2.8131461048322315e-02  2.9892603509032091e-02  2.8713889346918080e-02  2.4630447527499020e-02  1.7959428706373723e-02  9.2392409005357719e-03  -8.8182272740448299e-04  -1.1898269631551441e-02  -2.3854521906951746e-02  -3.7633604966762879e-02  -5.4747603160724918e-02  -7.6048173875544675e-02  -9.6462056289416634e-02  -8.8975080486211527e-02  2.9577137312956397e-02  3.9860377507373629e-01  9.0208230976609594e-01  1.0265003392031329e+00  9.8698352993483862e-01  1.0029347929201693e+00  9.9876940291565874e-01  1.0005559256636345e+00  1.0007840266646602e+00  9.8617476373136670e-01  1.0345505975203004e+00  1.0050087769541900e+00  5.8593813050266419e-01  9.6451106327876526e-02  -8.7362460827349164e-02  -4.6755255377057249e-02  1.3339013339067210e-02  1.7710827743379905e-02  -5.6382481830771433e-04  -3.6736685932911742e-03  5.1617532590926844e-04  4.5598135259965693e-04  -2.2758617071481286e-04  2.6922621342809829e-05  1.8906122659845536e-05  -1.2954630568454538e-05  4.3978860282987913e-06  -8.1567336186351876e-07  -5.8024194250724736e-08  1.2350529042342215e-07  -6.3992480063132280e-08  2.3881212325135789e-08  -7.3540874527554774e-09  1.9401512713801039e-09  -4.3381785426841786e-10  7.5099221416632832e-11  -5.0187289041293459e-12  -3.4395384123360337e-12  2.4432476646679184e-12  -1.0473633735242387e-12  4.2894547971802023e-13  -1.2473220061460612e-13  5.8699393947583828e-14  -3.4063758876830531e-15  1.2541947808958548e-14  5.8725938839691626e-15  6.0061212103952742e-15  4.6620766701562600e-15  3.9592392179310736e-15  3.2657978896187273e-15  2.7535314554206503e-15  2.3046448331592185e-15  1.9485250627270174e-15  1.6220239792225919e-15  1.3815703186470736e-15  1.1750731219981017e-15  1.0014404942262437e-15  8.6136914512516224e-16  7.1500578190930808e-16  6.3870635398657696e-16  5.5173507123322583e-16  4.9612135575039813e-16  4.4191099419518008e-16  4.0229636956033682e-16  3.7549747490383963e-16  3.5813507794848684e-16  3.5548703416188994e-16  5.3365601321734820e-04  -1.1404753104414323e-03  -4.1208870887735408e-03  -4.8424151778972144e-03  -3.9698416955664881e-03  -2.9629228734344344e-03  -1.8148031018237838e-03  -6.5740801675148231e-04  3.0295479385997637e-04  9.7891983623436406e-04  1.3677095225464034e-03  1.5259547368743267e-03  1.5136421809594171e-03  1.3439374450438749e-03  9.7097057936351477e-04  3.0684530905150166e-04  -7.3537027029114673e-04  -2.1717648489186004e-03  -3.8823798963984069e-03  -5.6089744418059842e-03  -7.0306928195816559e-03  -7.8664912701302825e-03  -7.9491926935609785e-03  -7.2370840169071150e-03  -5.7804219054253918e-03  -3.6960835076330165e-03  -1.1485355785315102e-03  1.6965077191805858e-03  4.7652095028731332e-03  8.1833740606946197e-03  1.2291059218951985e-02  1.7537278728280443e-02  2.3694122501472750e-02  2.7616520721301767e-02  1.8191555261191397e-02  -3.6355412120038878e-02  -2.6232323816606139e-02  5.5881150771790233e-01  1.0279457647055983e+00  9.8911723472125324e-01  1.0013005515169087e+00  9.9984432559646441e-01  9.9920207798346339e-01  1.0025552764749590e+00  9.9735485735322393e-01  9.8290791331426708e-01  1.0285561298078931e+00  1.0649573364742730e+00  8.6271993812426007e-01  4.4645335079779025e-01  6.0587922346869751e-02  -8.0874535027080502e-02  -2.6174321651383513e-02  1.7311325652997808e-02  3.3597921365785982e-03  -3.4245838680347215e-03  6.5305809803553572e-04  2.0005149811477035e-04  -1.7857793151325170e-04  6.4831897521084285e-05  -1.2783148043747933e-05  -5.0293927002503864e-07  1.6910450138247506e-06  -8.9801539526837134e-07  3.3677432599927016e-07  -1.0362581272421404e-07  2.7244885916826384e-08  -6.0660874888097395e-09  1.0424264736055660e-09  -6.9066311611566806e-11  -4.8783116881760394e-11  3.3584857660745128e-11  -1.4883514730353869e-11  5.7066655857150156e-12  -1.9357476097253203e-12  6.5630212766900150e-13  -1.7727669583909905e-13  6.9174607992022698e-14  -4.7140808464830862e-15  1.2478311951103770e-14  6.0632614804050418e-15  5.9433542197665089e-15  4.7056916679161433e-15  3.9433816336650796e-15  3.2730154765426949e-15  2.7478401814780935e-15  2.3049208583949582e-15  1.9463118641808578e-15  1.6376556492385602e-15  1.3843997114946747e-15  1.1798557838114471e-15  1.0125339296386058e-15  8.5722734373079283e-16  7.5187670492944004e-16  6.5343001819032562e-16  5.7355969155812291e-16  5.1359136978698101e-16  4.6177162781990924e-16  4.4217930158214105e-16  4.1580304041565448e-16  4.1441838505100709e-16  -1.0292041916922081e-04  7.2772887802077494e-06  7.2498210137397138e-04  1.2773187255198139e-03  1.2069015943609945e-03  9.3040831367794655e-04  6.4351311092851601e-04  3.2792507875098925e-04  3.8983920906332727e-05  -1.8158633365135269e-04  -3.2318509997600580e-04  -3.9429922999956380e-04  -4.1250025571392632e-04  -3.88674603640