<?xml version="1.0"?>
<VTKFile type="UnstructuredGrid"  version="0.1"  >
<UnstructuredGrid>
<Piece  NumberOfPoints="5151" NumberOfCells="10000">
<Points>
<DataArray  type="Float64"  NumberOfComponents="3"  format="ascii">0 0 0  0.01 0 0  0.02 0 0  0.03 0 0  0.04 0 0  0.05 0 0  0.06 0 0  0.07000000000000001 0 0  0.08 0 0  0.09 0 0  0.1 0 0  0.11 0 0  0.12 0 0  0.13 0 0  0.14 0 0  0.15 0 0  0.16 0 0  0.17 0 0  0.18 0 0  0.19 0 0  0.2 0 0  0.21 0 0  0.22 0 0  0.23 0 0  0.24 0 0  0.25 0 0  0.26 0 0  0.27 0 0  0.28 0 0  0.29 0 0  0.3 0 0  0.31 0 0  0.32 0 0  0.33 0 0  0.34 0 0  0.35 0 0  0.36 0 0  0.37 0 0  0.38 0 0  0.39 0 0  0.4 0 0  0.41 0 0  0.42 0 0  0.43 0 0  0.44 0 0  0.45 0 0  0.46 0 0  0.47 0 0  0.48 0 0  0.49 0 0  0.5 0 0  0.51 0 0  0.52 0 0  0.53 0 0  0.54 0 0  0.55 0 0  0.5600000000000001 0 0  0.57 0 0  0.58 0 0  0.59 0 0  0.6 0 0  0.61 0 0  0.62 0 0  0.63 0 0  0.64 0 0  0.65 0 0  0.66 0 0  0.67 0 0  0.68 0 0  0.6899999999999999 0 0  0.7 0 0  0.71 0 0  0.72 0 0  0.73 0 0  0.74 0 0  0.75 0 0  0.76 0 0  0.77 0 0  0.78 0 0  0.79 0 0  0.8 0 0  0.8100000000000001 0 0  0.82 0 0  0.83 0 0  0.84 0 0  0.85 0 0  0.86 0 0  0.87 0 0  0.88 0 0  0.89 0 0  0.9 0 0  0.91 0 0  0.92 0 0  0.93 0 0  0.9399999999999999 0 0  0.95 0 0  0.96 0 0  0.97 0 0  0.98 0 0  0.99 0 0  1 0 0  0 0.01 0  0.01 0.01 0  0.02 0.01 0  0.03 0.01 0  0.04 0.01 0  0.05 0.01 0  0.06 0.01 0  0.07000000000000001 0.01 0  0.08 0.01 0  0.09 0.01 0  0.1 0.01 0  0.11 0.01 0  0.12 0.01 0  0.13 0.01 0  0.14 0.01 0  0.15 0.01 0  0.16 0.01 0  0.17 0.01 0  0.18 0.01 0  0.19 0.01 0  0.2 0.01 0  0.21 0.01 0  0.22 0.01 0  0.23 0.01 0  0.24 0.01 0  0.25 0.01 0  0.26 0.01 0  0.27 0.01 0  0.28 0.01 0  0.29 0.01 0  0.3 0.01 0  0.31 0.01 0  0.32 0.01 0  0.33 0.01 0  0.34 0.01 0  0.35 0.01 0  0.36 0.01 0  0.37 0.01 0  0.38 0.01 0  0.39 0.01 0  0.4 0.01 0  0.41 0.01 0  0.42 0.01 0  0.43 0.01 0  0.44 0.01 0  0.45 0.01 0  0.46 0.01 0  0.47 0.01 0  0.48 0.01 0  0.49 0.01 0  0.5 0.01 0  0.51 0.01 0  0.52 0.01 0  0.53 0.01 0  0.54 0.01 0  0.55 0.01 0  0.5600000000000001 0.01 0  0.57 0.01 0  0.58 0.01 0  0.59 0.01 0  0.6 0.01 0  0.61 0.01 0  0.62 0.01 0  0.63 0.01 0  0.64 0.01 0  0.65 0.01 0  0.66 0.01 0  0.67 0.01 0  0.68 0.01 0  0.6899999999999999 0.01 0  0.7 0.01 0  0.71 0.01 0  0.72 0.01 0  0.73 0.01 0  0.74 0.01 0  0.75 0.01 0  0.76 0.01 0  0.77 0.01 0  0.78 0.01 0  0.79 0.01 0  0.8 0.01 0  0.8100000000000001 0.01 0  0.82 0.01 0  0.83 0.01 0  0.84 0.01 0  0.85 0.01 0  0.86 0.01 0  0.87 0.01 0  0.88 0.01 0  0.89 0.01 0  0.9 0.01 0  0.91 0.01 0  0.92 0.01 0  0.93 0.01 0  0.9399999999999999 0.01 0  0.95 0.01 0  0.96 0.01 0  0.97 0.01 0  0.98 0.01 0  0.99 0.01 0  1 0.01 0  0 0.02 0  0.01 0.02 0  0.02 0.02 0  0.03 0.02 0  0.04 0.02 0  0.05 0.02 0  0.06 0.02 0  0.07000000000000001 0.02 0  0.08 0.02 0  0.09 0.02 0  0.1 0.02 0  0.11 0.02 0  0.12 0.02 0  0.13 0.02 0  0.14 0.02 0  0.15 0.02 0  0.16 0.02 0  0.17 0.02 0  0.18 0.02 0  0.19 0.02 0  0.2 0.02 0  0.21 0.02 0  0.22 0.02 0  0.23 0.02 0  0.24 0.02 0  0.25 0.02 0  0.26 0.02 0  0.27 0.02 0  0.28 0.02 0  0.29 0.02 0  0.3 0.02 0  0.31 0.02 0  0.32 0.02 0  0.33 0.02 0  0.34 0.02 0  0.35 0.02 0  0.36 0.02 0  0.37 0.02 0  0.38 0.02 0  0.39 0.02 0  0.4 0.02 0  0.41 0.02 0  0.42 0.02 0  0.43 0.02 0  0.44 0.02 0  0.45 0.02 0  0.46 0.02 0  0.47 0.02 0  0.48 0.02 0  0.49 0.02 0  0.5 0.02 0  0.51 0.02 0  0.52 0.02 0  0.53 0.02 0  0.54 0.02 0  0.55 0.02 0  0.5600000000000001 0.02 0  0.57 0.02 0  0.58 0.02 0  0.59 0.02 0  0.6 0.02 0  0.61 0.02 0  0.62 0.02 0  0.63 0.02 0  0.64 0.02 0  0.65 0.02 0  0.66 0.02 0  0.67 0.02 0  0.68 0.02 0  0.6899999999999999 0.02 0  0.7 0.02 0  0.71 0.02 0  0.72 0.02 0  0.73 0.02 0  0.74 0.02 0  0.75 0.02 0  0.76 0.02 0  0.77 0.02 0  0.78 0.02 0  0.79 0.02 0  0.8 0.02 0  0.8100000000000001 0.02 0  0.82 0.02 0  0.83 0.02 0  0.84 0.02 0  0.85 0.02 0  0.86 0.02 0  0.87 0.02 0  0.88 0.02 0  0.89 0.02 0  0.9 0.02 0  0.91 0.02 0  0.92 0.02 0  0.93 0.02 0  0.9399999999999999 0.02 0  0.95 0.02 0  0.96 0.02 0  0.97 0.02 0  0.98 0.02 0  0.99 0.02 0  1 0.02 0  0 0.03 0  0.01 0.03 0  0.02 0.03 0  0.03 0.03 0  0.04 0.03 0  0.05 0.03 0  0.06 0.03 0  0.07000000000000001 0.03 0  0.08 0.03 0  0.09 0.03 0  0.1 0.03 0  0.11 0.03 0  0.12 0.03 0  0.13 0.03 0  0.14 0.03 0  0.15 0.03 0  0.16 0.03 0  0.17 0.03 0  0.18 0.03 0  0.19 0.03 0  0.2 0.03 0  0.21 0.03 0  0.22 0.03 0  0.23 0.03 0  0.24 0.03 0  0.25 0.03 0  0.26 0.03 0  0.27 0.03 0  0.28 0.03 0  0.29 0.03 0  0.3 0.03 0  0.31 0.03 0  0.32 0.03 0  0.33 0.03 0  0.34 0.03 0  0.35 0.03 0  0.36 0.03 0  0.37 0.03 0  0.38 0.03 0  0.39 0.03 0  0.4 0.03 0  0.41 0.03 0  0.42 0.03 0  0.43 0.03 0  0.44 0.03 0  0.45 0.03 0  0.46 0.03 0  0.47 0.03 0  0.48 0.03 0  0.49 0.03 0  0.5 0.03 0  0.51 0.03 0  0.52 0.03 0  0.53 0.03 0  0.54 0.03 0  0.55 0.03 0  0.5600000000000001 0.03 0  0.57 0.03 0  0.58 0.03 0  0.59 0.03 0  0.6 0.03 0  0.61 0.03 0  0.62 0.03 0  0.63 0.03 0  0.64 0.03 0  0.65 0.03 0  0.66 0.03 0  0.67 0.03 0  0.68 0.03 0  0.6899999999999999 0.03 0  0.7 0.03 0  0.71 0.03 0  0.72 0.03 0  0.73 0.03 0  0.74 0.03 0  0.75 0.03 0  0.76 0.03 0  0.77 0.03 0  0.78 0.03 0  0.79 0.03 0  0.8 0.03 0  0.8100000000000001 0.03 0  0.82 0.03 0  0.83 0.03 0  0.84 0.03 0  0.85 0.03 0  0.86 0.03 0  0.87 0.03 0  0.88 0.03 0  0.89 0.03 0  0.9 0.03 0  0.91 0.03 0  0.92 0.03 0  0.93 0.03 0  0.9399999999999999 0.03 0  0.95 0.03 0  0.96 0.03 0  0.97 0.03 0  0.98 0.03 0  0.99 0.03 0  1 0.03 0  0 0.04 0  0.01 0.04 0  0.02 0.04 0  0.03 0.04 0  0.04 0.04 0  0.05 0.04 0  0.06 0.04 0  0.07000000000000001 0.04 0  0.08 0.04 0  0.09 0.04 0  0.1 0.04 0  0.11 0.04 0  0.12 0.04 0  0.13 0.04 0  0.14 0.04 0  0.15 0.04 0  0.16 0.04 0  0.17 0.04 0  0.18 0.04 0  0.19 0.04 0  0.2 0.04 0  0.21 0.04 0  0.22 0.04 0  0.23 0.04 0  0.24 0.04 0  0.25 0.04 0  0.26 0.04 0  0.27 0.04 0  0.28 0.04 0  0.29 0.04 0  0.3 0.04 0  0.31 0.04 0  0.32 0.04 0  0.33 0.04 0  0.34 0.04 0  0.35 0.04 0  0.36 0.04 0  0.37 0.04 0  0.38 0.04 0  0.39 0.04 0  0.4 0.04 0  0.41 0.04 0  0.42 0.04 0  0.43 0.04 0  0.44 0.04 0  0.45 0.04 0  0.46 0.04 0  0.47 0.04 0  0.48 0.04 0  0.49 0.04 0  0.5 0.04 0  0.51 0.04 0  0.52 0.04 0  0.53 0.04 0  0.54 0.04 0  0.55 0.04 0  0.5600000000000001 0.04 0  0.57 0.04 0  0.58 0.04 0  0.59 0.04 0  0.6 0.04 0  0.61 0.04 0  0.62 0.04 0  0.63 0.04 0  0.64 0.04 0  0.65 0.04 0  0.66 0.04 0  0.67 0.04 0  0.68 0.04 0  0.6899999999999999 0.04 0  0.7 0.04 0  0.71 0.04 0  0.72 0.04 0  0.73 0.04 0  0.74 0.04 0  0.75 0.04 0  0.76 0.04 0  0.77 0.04 0  0.78 0.04 0  0.79 0.04 0  0.8 0.04 0  0.8100000000000001 0.04 0  0.82 0.04 0  0.83 0.04 0  0.84 0.04 0  0.85 0.04 0  0.86 0.04 0  0.87 0.04 0  0.88 0.04 0  0.89 0.04 0  0.9 0.04 0  0.91 0.04 0  0.92 0.04 0  0.93 0.04 0  0.9399999999999999 0.04 0  0.95 0.04 0  0.96 0.04 0  0.97 0.04 0  0.98 0.04 0  0.99 0.04 0  1 0.04 0  0 0.05 0  0.01 0.05 0  0.02 0.05 0  0.03 0.05 0  0.04 0.05 0  0.05 0.05 0  0.06 0.05 0  0.07000000000000001 0.05 0  0.08 0.05 0  0.09 0.05 0  0.1 0.05 0  0.11 0.05 0  0.12 0.05 0  0.13 0.05 0  0.14 0.05 0  0.15 0.05 0  0.16 0.05 0  0.17 0.05 0  0.18 0.05 0  0.19 0.05 0  0.2 0.05 0  0.21 0.05 0  0.22 0.05 0  0.23 0.05 0  0.24 0.05 0  0.25 0.05 0  0.26 0.05 0  0.27 0.05 0  0.28 0.05 0  0.29 0.05 0  0.3 0.05 0  0.31 0.05 0  0.32 0.05 0  0.33 0.05 0  0.34 0.05 0  0.35 0.05 0  0.36 0.05 0  0.37 0.05 0  0.38 0.05 0  0.39 0.05 0  0.4 0.05 0  0.41 0.05 0  0.42 0.05 0  0.43 0.05 0  0.44 0.05 0  0.45 0.05 0  0.46 0.05 0  0.47 0.05 0  0.48 0.05 0  0.49 0.05 0  0.5 0.05 0  0.51 0.05 0  0.52 0.05 0  0.53 0.05 0  0.54 0.05 0  0.55 0.05 0  0.5600000000000001 0.05 0  0.57 0.05 0  0.58 0.05 0  0.59 0.05 0  0.6 0.05 0  0.61 0.05 0  0.62 0.05 0  0.63 0.05 0  0.64 0.05 0  0.65 0.05 0  0.66 0.05 0  0.67 0.05 0  0.68 0.05 0  0.6899999999999999 0.05 0  0.7 0.05 0  0.71 0.05 0  0.72 0.05 0  0.73 0.05 0  0.74 0.05 0  0.75 0.05 0  0.76 0.05 0  0.77 0.05 0  0.78 0.05 0  0.79 0.05 0  0.8 0.05 0  0.8100000000000001 0.05 0  0.82 0.05 0  0.83 0.05 0  0.84 0.05 0  0.85 0.05 0  0.86 0.05 0  0.87 0.05 0  0.88 0.05 0  0.89 0.05 0  0.9 0.05 0  0.91 0.05 0  0.92 0.05 0  0.93 0.05 0  0.9399999999999999 0.05 0  0.95 0.05 0  0.96 0.05 0  0.97 0.05 0  0.98 0.05 0  0.99 0.05 0  1 0.05 0  0 0.06 0  0.01 0.06 0  0.02 0.06 0  0.03 0.06 0  0.04 0.06 0  0.05 0.06 0  0.06 0.06 0  0.07000000000000001 0.06 0  0.08 0.06 0  0.09 0.06 0  0.1 0.06 0  0.11 0.06 0  0.12 0.06 0  0.13 0.06 0  0.14 0.06 0  0.15 0.06 0  0.16 0.06 0  0.17 0.06 0  0.18 0.06 0  0.19 0.06 0  0.2 0.06 0  0.21 0.06 0  0.22 0.06 0  0.23 0.06 0  0.24 0.06 0  0.25 0.06 0  0.26 0.06 0  0.27 0.06 0  0.28 0.06 0  0.29 0.06 0  0.3 0.06 0  0.31 0.06 0  0.32 0.06 0  0.33 0.06 0  0.34 0.06 0  0.35 0.06 0  0.36 0.06 0  0.37 0.06 0  0.38 0.06 0  0.39 0.06 0  0.4 0.06 0  0.41 0.06 0  0.42 0.06 0  0.43 0.06 0  0.44 0.06 0  0.45 0.06 0  0.46 0.06 0  0.47 0.06 0  0.48 0.06 0  0.49 0.06 0  0.5 0.06 0  0.51 0.06 0  0.52 0.06 0  0.53 0.06 0  0.54 0.06 0  0.55 0.06 0  0.5600000000000001 0.06 0  0.57 0.06 0  0.58 0.06 0  0.59 0.06 0  0.6 0.06 0  0.61 0.06 0  0.62 0.06 0  0.63 0.06 0  0.64 0.06 0  0.65 0.06 0  0.66 0.06 0  0.67 0.06 0  0.68 0.06 0  0.6899999999999999 0.06 0  0.7 0.06 0  0.71 0.06 0  0.72 0.06 0  0.73 0.06 0  0.74 0.06 0  0.75 0.06 0  0.76 0.06 0  0.77 0.06 0  0.78 0.06 0  0.79 0.06 0  0.8 0.06 0  0.8100000000000001 0.06 0  0.82 0.06 0  0.83 0.06 0  0.84 0.06 0  0.85 0.06 0  0.86 0.06 0  0.87 0.06 0  0.88 0.06 0  0.89 0.06 0  0.9 0.06 0  0.91 0.06 0  0.92 0.06 0  0.93 0.06 0  0.9399999999999999 0.06 0  0.95 0.06 0  0.96 0.06 0  0.97 0.06 0  0.98 0.06 0  0.99 0.06 0  1 0.06 0  0 0.07000000000000001 0  0.01 0.07000000000000001 0  0.02 0.07000000000000001 0  0.03 0.07000000000000001 0  0.04 0.07000000000000001 0  0.05 0.07000000000000001 0  0.06 0.07000000000000001 0  0.07000000000000001 0.07000000000000001 0  0.08 0.07000000000000001 0  0.09 0.07000000000000001 0  0.1 0.07000000000000001 0  0.11 0.07000000000000001 0  0.12 0.07000000000000001 0  0.13 0.07000000000000001 0  0.14 0.07000000000000001 0  0.15 0.07000000000000001 0  0.16 0.07000000000000001 0  0.17 0.07000
[...]
<PointData  Scalars="rho_bar"> 
<DataArray  type="Float64"  Name="rho_bar"  format="ascii">9.9328180939418509e-01  9.9688986592980067e-01  9.9610261266026090e-01  9.9748348999422598e-01  9.9894095326528864e-01  1.0006794788823923e+00  1.0022258916477735e+00  1.0032817191125747e+00  1.0036729267458000e+00  1.0033574748183105e+00  1.0023854849791292e+00  1.0008774624713928e+00  9.9906502042978951e-01  9.9734860551276960e-01  9.9618592076474810e-01  9.9580760884428254e-01  9.9609753476031071e-01  9.9676414672625446e-01  9.9754518251895807e-01  9.9828822478160395e-01  9.9894436888088367e-01  9.9951758622117604e-01  1.0000141754330858e+00  1.0004290093053558e+00  1.0007573541542680e+00  1.0010034358087556e+00  1.0011723098341347e+00  1.0012477379347029e+00  1.0011828481131124e+00  1.0009179810034918e+00  1.0004478044777547e+00  9.9996837946178485e-01  9.9979246513607190e-01  9.9991165983594033e-01  1.0000402735752072e+00  9.9995328612848833e-01  9.9996803371276455e-01  1.0019868663131706e+00  9.8362612700569474e-01  1.0829982776945049e+00  6.2301744289584515e-01  -1.7560543576646617e-02  -1.3414121473923116e-03  1.0208157714348914e-03  -5.5596024301352279e-05  -4.5287240175949789e-05  -5.4170573763182261e-05  1.1704801530733604e-05  1.4845501740140323e-05  1.5609680398359973e-06  -3.2790071491987879e-06  -5.1436803869265441e-07  6.5993441902562904e-07  3.2640603051694467e-09  -1.1639058265673910e-07  3.1484758438161001e-08  8.7553099989992033e-09  -8.3167757305234383e-09  2.0763401845223146e-09  3.3998643608447268e-10  -4.7287829454733304e-10  1.8874324394957566e-10  -3.1952633336818276e-11  -8.7163127061515911e-12  9.1490091590263600e-12  -4.0638229587661064e-12  1.1975877317382323e-12  -2.0255195062661725e-13  -1.9645408796992215e-14  3.5575623000649262e-14  -1.7814136945340451e-14  7.4755970358018061e-15  -1.9886506809219930e-15  8.9872364118330366e-16  4.7604315456069417e-17  2.0358482380186195e-16  1.4144293092426072e-16  1.0755738112618437e-16  1.1678410428391681e-16  9.1435423594999345e-17  5.2560573894773521e-17  5.5401075408548156e-17  5.5586229637883171e-17  5.5562063320879569e-17  5.5211951963981194e-17  5.6429043270606108e-17  5.4810921430447505e-17  4.4565130841813074e-17  -4.0072628252580587e-18  4.5951601481103933e-20  7.5159482208778861e-20  -1.1476841450647954e-20  -1.8451680839421463e-21  1.4148713823308707e-21  -4.5454475337503216e-22  1.0241125924445504e-22  -1.9080526288129925e-23  4.2364757571946750e-24  -1.2525659430484036e-24  4.8547279510584801e-25  -6.2547907482802095e-25  1.0170849962175446e+00  1.0064118517209306e+00  1.0081660516184965e+00  1.0062686148856015e+00  1.0036729368927026e+00  1.0003143588738501e+00  9.9692533858298993e-01  9.9424069099527168e-01  9.9274875371651217e-01  9.9266159497149509e-01  9.9396506743096313e-01  9.9649081391187488e-01  9.9990519610647022e-01  1.0035800458680220e+00  1.0065877355276927e+00  1.0081585665394714e+00  1.0081945062347171e+00  1.0071711239484813e+00  1.0056777115296121e+00  1.0041356237488832e+00  1.0027381689783330e+00  1.0015144038789183e+00  1.0004456590976365e+00  9.9953294404444359e-01  9.9879026900660306e-01  9.9821854104980290e-01  9.9780418244298552e-01  9.9755171708626356e-01  9.9752631211013398e-01  9.9784140819989875e-01  9.9858867160057996e-01  9.9962424824689378e-01  1.0003501063011799e+00  1.0003321763770054e+00  1.0000161974546113e+00  9.9993019046912313e-01  1.0002052605007741e+00  9.9891885376816514e-01  1.0033082793369805e+00  1.0026533384368983e+00  8.3789075806272895e-01  -6.6576050811811435e-02  1.7965513169565017e-02  -1.8951209967455536e-03  -3.4553878802497665e-04  3.1991022630392236e-05  1.5947029441738941e-04  1.9931840170170617e-05  -3.5365519784888827e-05  -1.5799719841060747e-05  5.3346913419581558e-06  3.9793770302841349e-06  -1.1266176432283655e-06  -5.9758937198767174e-07  3.1604288807229406e-07  1.5761876663180369e-08  -5.6395219253313657e-08  1.8546834153227156e-08  9.8841889031905225e-10  -3.2286599133986359e-09  1.4071765439254580e-09  -2.5278996764236504e-10  -6.0955559929402097e-11  6.6842350046962014e-11  -2.9264424931611414e-11  8.2256141208431404e-12  -1.1949607606452541e-12  -2.5575121093890196e-13  2.8092831563249631e-13  -1.3363369437212261e-13  4.9330248232189648e-14  -1.4508350153902301e-14  4.2447095315843526e-15  -6.1976068022002555e-16  3.7393553070284808e-16  1.3868099352061486e-16  1.5859527286384071e-16  1.0510761801004733e-16  1.0924053578240407e-16  1.0704456378034696e-16  4.4512705068456537e-17  5.7454231132995785e-17  5.5336048262577933e-17  5.5490600846605270e-17  5.5491025777370465e-17  5.5944472422489756e-17  5.2823868456024082e-17  6.5313187583970460e-17  -8.9844541880301147e-18  2.0543402597235572e-18  -2.2614339264222848e-19  -1.6572433999336210e-20  1.4345801288861703e-20  -3.7793120028767187e-21  6.8455427454270927e-22  -7.9561335205268457e-23  9.1401973034842826e-24  -5.2224859399193413e-24  2.6796047839244780e-24  -1.2828812309295265e-24  7.6548535455019371e-25  9.4001424956256097e-01  9.7549003261392764e-01  9.7029130801174412e-01  9.7465986008395911e-01  9.8183421663424730e-01  9.9251495665631673e-01  1.0045799579603818e+00  1.0153557205167689e+00  1.0226835486205161e+00  1.0253763992961025e+00  1.0231667558748119e+00  1.0164101791367752e+00  1.0059400496485131e+00  9.9331819436623059e-01  9.8130771010335649e-01  9.7318964822845744e-01  9.7060631353995053e-01  9.7267802479719867e-01  9.7735757306163107e-01  9.8282772455985823e-01  9.8802240458874657e-01  9.9260806072647401e-01  9.9662038640493100e-01  1.0000992800715214e+00  1.0030046902292984e+00  1.0053020324686459e+00  1.0070214390953016e+00  1.0082001035283015e+00  1.0087336425001387e+00  1.0082808075652798e+00  1.0064520392281726e+00  1.0031823881855602e+00  9.9971561814203069e-01  9.9846529590162802e-01  9.9947022485964732e-01  1.0002172811944521e+00  9.9998512444828402e-01  1.0000093850474769e+00  1.0009871895661462e+00  9.9142749042412415e-01  1.0212034145349898e+00  1.2463373373163182e-01  1.0492991951258459e-02  -7.5354649141289613e-03  2.2794333243739474e-03  7.2816344912082721e-04  -6.2993910563535337e-04  -2.7893383865598399e-04  7.7775049664633591e-05  1.0375104654607590e-04  4.6756050651104732e-06  -2.3144194508710300e-05  -1.1463783207404443e-06  4.3788692860828046e-06  -6.4590330344036221e-07  -5.5537821666796222e-07  2.8607447168490702e-07  -2.2247709894414950e-08  -3.4063025379979261e-08  1.9055771100772203e-08  -4.4952117244526959e-09  -3.3321903173981910e-10  7.8803825813420169e-10  -3.9304804980103080e-10  1.2294594182828689e-10  -2.2818765426754740e-11  -1.1326493172618942e-12  3.2185872273820648e-12  -1.7507703794435034e-12  6.8740721026545185e-13  -2.2373427178852758e-13  6.4302247025888528e-14  -1.5623435741492652e-14  3.6936088584710920e-15  -3.2056005963948891e-16  1.9512557170631017e-16  2.1697047254564851e-16  7.8826382586799969e-17  1.2406330896147323e-16  1.1626743869379384e-16  4.9543453691531152e-17  5.9123229024767264e-17  5.4474796317995465e-17  5.5710591855598140e-17  5.5504250841152721e-17  5.5474320715762241e-17  5.5036770056410968e-17  6.1656209275024125e-17  6.7034891115014790e-18  1.9573645009210491e-18  -1.1114972548131046e-18  3.0947870125237136e-19  -6.1929146661118257e-20  9.5280944647510297e-21  -1.4522813092839158e-21  2.4350237115379532e-22  -1.0769533763780076e-22  5.4307242005757665e-23  -1.9948077922715113e-23  7.3919065758708311e-24  -2.3726161808257840e-24  1.1842316616513937e+00  1.0993689929154424e+00  1.1075050307368710e+00  1.0983291374787358e+00  1.0770257730639592e+00  1.0405833861620792e+00  9.9309539675735170e-01  9.4410728949842926e-01  9.0371940223828184e-01  8.8013204028558190e-01  8.7779938724404027e-01  8.9703780664338351e-01  9.3462233136295325e-01  9.8453359352256786e-01  1.0373754495363134e+00  1.0803145024862906e+00  1.1029809098044834e+00  1.1046614254780931e+00  1.0920883202411682e+00  1.0731027433328690e+00  1.0533248813754690e+00  1.0353442644149726e+00  1.0195398976608445e+00  1.0056915326739295e+00  9.9385226450529007e-01  9.8421735481770234e-01  9.7681052595865003e-01  9.7144716548899146e-01  9.6817802461380698e-01  9.6781663074884183e-01  9.7191436693716782e-01  9.8145945844223570e-01  9.9505207060142253e-01  1.0050232944986990e+00  1.0043107057895710e+00  9.9983221850959525e-01  9.9945747406638930e-01  1.0002617117157806e+00  9.9955813102574731e-01  1.0005561827947698e+00  1.0080494323091529e+00  7.9352901300844403e-01  -3.2919613568312196e-02  1.7170082845006110e-02  2.5228292323951347e-03  -6.9800985179845881e-03  1.2893537304484162e-03  1.8512865578565411e-03  1.9534948000670907e-04  -4.7132895331647689e-04  -1.8244973872749847e-04  8.4257849052950793e-05  4.1765108160015663e-05  -1.8973913543691293e-05  -3.7826866075652531e-06  4.1162094350884134e-06  -7.5589723151343892e-07  -3.4228246933466433e-07  2.6160912752256579e-07  -7.3572680711575938e-08  3.7322948252212489e-11  1.0033289697621580e-08  -5.4809629788847865e-09  1.7928766641951736e-09  -3.5137993605538847e-10  -7.9562729845412187e-12  4.4127911106245672e-11  -2.4739403743067868e-11  9.7784410078655254e-12  -3.1929855281334591e-12  9.0473664653184154e-13  -2.2283889394746969e-13  4.6896999039707268e-14  -6.6127729892479898e-15  1.8060845827399112e-16  8.5688278399952195e-16  -2.0297980271457944e-16  3.0553696484855048e-16  4.8247880431388556e-17  1.3019792027691402e-16  9.1779988654901362e-17  4.9357351035202412e-17  5.6051903380308517e-17  5.5609033210873174e-17  5.5455534162300114e-17  5.5486236370541080e-17  5.5825135012555067e-17  5.4189188554772417e-17  5.5422777727136790e-17  -1.3483135710390511e-17  3.0770707764824019e-18  -5.0312731685852487e-19  6.2397337460084123e-20  -7.6026205000224649e-21  3.2489923959337065e-21  -1.2121436478009854e-21  7.0611312846248884e-22  -2.8732957789345312e-22  8.5211830055858011e-23  -2.4679629945200950e-23  1.2521610405219018e-24  2.0636583058127031e-01  2.9888701448438004e-01  2.6292732558440374e-01  2.0285179685809718e-01  1.3225624733956104e-01  6.0637398760823989e-02  -1.4358119599324126e-03  -4.7894420519252842e-02  -7.6835836615859965e-02  -9.0661347204977330e-02  -9.3737198122105500e-02  -8.8181492992982335e-02  -7.2517699167274879e-02  -4.2021152756484860e-02  9.6351093695264713e-03  8.7238478493325847e-02  1.9220023508811443e-01  3.1969586983066256e-01  4.5750821641690903e-01  5.8980809252346433e-01  7.0522111928672981e-01  7.9988243837547546e-01  8.7644203191520298e-01  9.3983810987713223e-01  9.9276386911458525e-01  1.0359697415336129e+00  1.0696331896312303e+00  1.0946401046716530e+00  1.1117869362358324e+00  1.1198228232160590e+00  1.1141762952543963e+00  1.0891398920658788e+00  1.0448503430434262e+00  9.9512622033884779e-01  9.7703072837417426e-01  9.9423442427624065e-01  1.0032699342897640e+00  9.9965021221581030e-01  9.9971133763610442e-01  1.0009095355849322e+00  9.9294286363388706e-01  1.0287654935943618e+00  7.9757422209467066e-01  3.8203046454542249e-02  -4.6847549110080773e-02  2.9860756837458702e-02  5.4192351134280141e-03  -8.1023533118193981e-03  -3.5781186148501789e-03  1.2277562724880675e-03  1.4059022217347162e-03  -3.2533065263956486e-05  -3.1385389983247742e-04  2.2271854094520102e-05  5.0357311515565248e-05  -1.6536261637343751e-05  -2.4210641537117545e-06  3.4518479808646005e-06  -1.1676827235948422e-06  7.0197579502327925e-08  1.2460094946508413e-07  -7.5845283901585015e-08  2.5918004582977889e-08  -5.3130040660530857e-09  -6.7845223644450635e-12  6.0031739329332811e-10  -3.4540961387781829e-10  1.3731923973146659e-10  -4.4854431917806996e-11  1.2663133818887103e-11  -3.1142345421486459e-12  6.4612205755258909e-13  -9.5054961848024835e-14  -7.2558118196666133e-16  9.0819926499803733e-15  -4.6774425351405128e-15  2.2559820166210954e-15  -5.8807068405094756e-16  3.8016851299201328e-16  2.7340896113671406e-17  1.4338059503347521e-16  6.0824045446208368e-17  5.6020727183728617e-17  5.5237257720675481e-17  5.5549532072976929e-17  5.5540965450150999e-17  5.5416190369926329e-17  5.5580298632350200e-17  5.7477492742981997e-17  3.8016339154884091e-17  -6.1743362535230905e-18  8.5230737576977363e-19  -1.7099303500037638e-19  5.9789393007165610e-20  -2.7418947666681529e-20  8.6639442834355972e-21  -4.1374089828957575e-21  1.2643964042992667e-21  -2.7835579982485204e-22  4.4734863245315450e-23  2.9435096676354605e-23  -1.3329568514937195e-02  -6.1666279581558195e-02  -6.7604194349359950e-02  -5.5087761712205856e-02  -4.0078515174273591e-02  -2.2716654978515681e-02  -5.8049471141044945e-03  8.1677928695845035e-03  1.7907546082586819e-02  2.3350402283949249e-02  2.5443330520207422e-02  2.5124989413839390e-02  2.2501848609616720e-02  1.6764413562649114e-02  6.4845753795496810e-03  -9.5926811440364673e-03  -3.1710549669260693e-02  -5.8356957542036292e-02  -8.5733407693484309e-02  -1.0851552207253497e-01  -1.2202612188374119e-01  -1.2356052804628380e-01  -1.1238223473835481e-01  -8.9063139030598162e-02  -5.5393036519461987e-02  -1.4082224902654473e-02  3.2238919420954602e-02  8.2872714354842739e-02  1.4113917801627499e-01  2.1590342342746421e-01  3.2193090755708542e-01  4.7663142840230882e-01  6.8309542649772392e-01  9.0832156694923416e-01  1.0741742624039994e+00  1.0583518422340199e+00  9.9005121410715946e-01  9.9658722827004731e-01  1.0025202104662849e+00  9.9851899001729616e-01  1.0023229020083164e+00  9.9263448151818900e-01  1.0087543576767024e+00  1.0217326225829610e+00  4.7582167454411078e-01  -5.2055122143696439e-02  -6.6770182676558376e-02  1.9338756126421976e-02  2.4418249918342277e-02  1.8957116400665699e-03  -6.8111634501648727e-03  -2.1651420513235345e-03  1.3666000644988953e-03  4.0078775675231136e-04  -2.9370722455136875e-04  8.5859513680443771e-06  4.2362276691991576e-05  -1.8111666491708313e-05  2.0875438253108763e-06  1.4771933980355165e-06  -1.0433287039972418e-06  3.7490802484370812e-07  -8.0425027332546392e-08  1.5233727736215134e-09  8.1317306759367483e-09  -4.8197154758906826e-09  1.9294113288099685e-09  -6.3071823309119602e-10  1.7770709622944750e-10  -4.3582144511270058e-11  9.0005372076307827e-12  -1.3259233112561402e-12  -1.5733950550942594e-14  1.2254125147915193e-13  -6.7840773871825909e-14  2.8862492453225318e-14  -1.0268708024410847e-14  3.7423411831767040e-15  -9.5757696511038257e-16  4.5583832711184240e-16  1.0389017022525686e-17  1.4809855301754888e-16  5.2612194919002411e-17  5.5926699171324662e-17  5.5552373431828770e-17  5.5441458361403615e-17  5.5539070737039837e-17  5.5664966352898604e-17  5.4079049947858032e-17  6.3981204300200282e-17  1.0837899707354956e-17  -2.2544637829621568e-18  9.1200535724310225e-19  -3.5741393661934215e-19  1.4229484428334582e-19  -4.1880867469768536e-20  1.9416709670599509e-20  -4.0145659416213292e-21  4.2516874797729888e-22  1.3795253126482627e-22  -2.1797320769887853e-22  -9.8802793973107057e-04  1.0463574634434897e-02  1.8544636074927907e-02  1.6718577595530654e-02  1.2811889609912417e-02  8.4576508900523970e-03  3.7625459843946330e-03  -4.4004625075989341e-04  -3.6397476052139714e-03  -5.6567820074786184e-03  -6.6309513950523037e-03  -6.8493876786466165e-03  -6.4673877409712763e-03  -5.3865912727825409e-03  -3.2882634301543119e-03  2.1595831962544905e-04  5.3540163974963896e-03  1.1980838001455886e-02  1.9386225739096524e-02  2.6297361620275263e-02  3.1315037111636669e-02  3.3437479993901842e-02  3.2232166841570056e-02  2.7710559406736456e-02  2.0223355362316803e-02  1.0437541639369269e-02  -8.2378709246031434e-04  -1.2958182214326689e-02  -2.6075182569873460e-02  -4.1315334821059105e-02  -6.0681737369180394e-02  -8.5592919096982426e-02  -1.1056774086208246e-01  -1.0575633597021981e-01  1.8178173281870359e-02  4.0754522100126578e-01  9.3689123545816633e-01  1.0349111397592499e+00  9.8521027787931315e-01  1.0039597057038934e+00  9.9864919269605601e-01  1.0008189293725296e+00  1.0014704467108524e+00  9.8324412405246142e-01  1.0438073263849406e+00  1.0245158314079099e+00  5.7008392560668530e-01  5.9423610929131357e-02  -1.0793736150510734e-01  -4.5748729089976972e-02  1.9416045369508469e-02  1.9129029452604231e-02  -2.0605071866316637e-03  -4.0273082896973506e-03  8.4144744617182328e-04  4.3882457313164082e-04  -2.7281034549118255e-04  4.7120984493259264e-05  1.6068699911033721e-05  -1.4243580468825058e-05  5.4337116520778598e-06  -1.2206323753923351e-06  4.6184846302466820e-08  1.0986223858708344e-07  -6.7313711022197822e-08  2.7139689638585518e-08  -8.8759473749346649e-09  2.4950771108150829e-09  -6.0975158285478785e-10  1.2537331850842252e-10  -1.8377196397826411e-11  -2.5301084187805027e-13  1.7018547956579119e-12  -9.4757195008837715e-13  3.9748228027021667e-13  -1.4564252439987102e-13  4.9736523125902225e-14  -1.5472853278163955e-14  4.9086481877676271e-15  -1.1731661827647184e-15  4.8034194868138643e-16  1.4933207457109770e-17  1.4343336081151330e-16  5.6416819686119906e-17  5.4734246805790494e-17  5.5930380051950037e-17  5.5372742862725572e-17  5.5463066955749560e-17  5.6066340014778136e-17  5.2889213044736381e-17  6.5592955558510249e-17  1.2517131707209586e-17  -5.4182251962813778e-18  1.8767564316348649e-18  -6.7536937145205485e-19  1.8852466450060391e-19  -8.0196010252692000e-20  5.0646503399448953e-21  2.0538794698027699e-21  -1.7143191517844760e-21  9.1302936049663325e-22  5.4815489542881033e-04  -1.0963155744994966e-03  -4.1657222612137704e-03  -4.9405986461101689e-03  -3.9780735547273764e-03  -2.8630580031449135e-03  -1.6358640641273600e-03  -4.1850889100961651e-04  5.8446393055723849e-04  1.2837398412161652e-03  1.6763902122318805e-03  1.8279275780633698e-03  1.8049042825555503e-03  1.6162834425528017e-03  1.2029707584932992e-03  4.6357036893098343e-04  -6.9206571709180082e-04  -2.2821051134437028e-03  -4.1961158310791545e-03  -6.1609101277896551e-03  -7.8006443569289602e-03  -8.7811649661250317e-03  -8.9104145570219426e-03  -8.1366600474068063e-03  -6.5101175437147340e-03  -4.1694837718138939e-03  -1.3232367483385988e-03  1.8224035499488107e-03  5.1868038487047491e-03  8.9365272015412261e-03  1.3506384911406813e-02  1.9500081938303857e-02  2.6710503818069248e-02  3.1473256071987372e-02  2.1065056787852313e-02  -4.2610004606931942e-02  -5.5265798363696085e-02  5.6666225593066655e-01  1.0468288076186341e+00  9.8753040937274295e-01  1.0017204478067681e+00  9.9991701714450476e-01  9.9903313831122009e-01  1.0032148494585094e+00  9.9730478206551820e-01  9.7945302276745205e-01  1.0339954333250321e+00  1.0855192518291483e+00  8.7160541405170644e-01  4.2874731013136869e-01  2.8476147849580948e-02  -9.8429508587289688e-02  -2.3096470960129033e-02  2.1324122083616996e-02  2.3088176957482441e-03  -3.8742064979649209e-03  9.5796491962176628e-04  1.4203235008788744e-04  -1.9226287436022952e-04  7.8998154244033959e-05  -1.8603663800449440e-05  1.0317798278857142e-06  1.4805492737204417e-06  -9.4136772469749851e-07  3.8222611745587191e-07  -1.2500033113192546e-07  3.5040096755852622e-08  -8.5287401140169093e-09  1.7453593615150461e-09  -2.5424330155995951e-10  -3.9632980911728859e-12  2.3707571952882011e-11  -1.3174880452616123e-11  5.5160530378378393e-12  -2.0291867857205240e-12  6.8857313992485205e-13  -2.1841464407648366e-13  6.6041233936172627e-14  -1.8488123920468885e-14  5.2289583884383078e-15  -1.1002688755478184e-15  4.1275000423829322e-16  4.7655501036259010e-17  1.3049365899244142e-16  6.0692296013666221e-17  5.3209765585461014e-17  5.6240947416183953e-17  5.5282434076413190e-17  5.5429858996740915e-17  5.6209619388441265e-17  5.2869367296887545e-17  6.4731013430150118e-17  2.8114258968419456e-17  -8.6563375038565962e-18  2.9348020611571117e-18  -7.3274783624424411e-19  2.5675125413179036e-19  5.3299650342981579e-20  -2.0947565328739941e-20  8.8633545154069422e-21  -2.1074697142416185e-21  -1.0231503215071088e-04  -2.9266419957157831e-06  7.2309089950631776e-04  1.3001745292097403e-03  1.2241924547639624e-03  9.1759116742160288e-04  6.0527040952943758e-04  2.7137208179949207e-04  -3.1349980194615471e-05  -2.6081477565299626e-04  -4.0589959798266852e-04  -4.7632