<?xml version="1.0"?>
<VTKFile type="UnstructuredGrid"  version="0.1"  >
<UnstructuredGrid>
<Piece  NumberOfPoints="5151" NumberOfCells="10000">
<Points>
<DataArray  type="Float64"  NumberOfComponents="3"  format="ascii">0 0 0  0.01 0 0  0.02 0 0  0.03 0 0  0.04 0 0  0.05 0 0  0.06 0 0  0.07000000000000001 0 0  0.08 0 0  0.09 0 0  0.1 0 0  0.11 0 0  0.12 0 0  0.13 0 0  0.14 0 0  0.15 0 0  0.16 0 0  0.17 0 0  0.18 0 0  0.19 0 0  0.2 0 0  0.21 0 0  0.22 0 0  0.23 0 0  0.24 0 0  0.25 0 0  0.26 0 0  0.27 0 0  0.28 0 0  0.29 0 0  0.3 0 0  0.31 0 0  0.32 0 0  0.33 0 0  0.34 0 0  0.35 0 0  0.36 0 0  0.37 0 0  0.38 0 0  0.39 0 0  0.4 0 0  0.41 0 0  0.42 0 0  0.43 0 0  0.44 0 0  0.45 0 0  0.46 0 0  0.47 0 0  0.48 0 0  0.49 0 0  0.5 0 0  0.51 0 0  0.52 0 0  0.53 0 0  0.54 0 0  0.55 0 0  0.5600000000000001 0 0  0.57 0 0  0.58 0 0  0.59 0 0  0.6 0 0  0.61 0 0  0.62 0 0  0.63 0 0  0.64 0 0  0.65 0 0  0.66 0 0  0.67 0 0  0.68 0 0  0.6899999999999999 0 0  0.7 0 0  0.71 0 0  0.72 0 0  0.73 0 0  0.74 0 0  0.75 0 0  0.76 0 0  0.77 0 0  0.78 0 0  0.79 0 0  0.8 0 0  0.8100000000000001 0 0  0.82 0 0  0.83 0 0  0.84 0 0  0.85 0 0  0.86 0 0  0.87 0 0  0.88 0 0  0.89 0 0  0.9 0 0  0.91 0 0  0.92 0 0  0.93 0 0  0.9399999999999999 0 0  0.95 0 0  0.96 0 0  0.97 0 0  0.98 0 0  0.99 0 0  1 0 0  0 0.01 0  0.01 0.01 0  0.02 0.01 0  0.03 0.01 0  0.04 0.01 0  0.05 0.01 0  0.06 0.01 0  0.07000000000000001 0.01 0  0.08 0.01 0  0.09 0.01 0  0.1 0.01 0  0.11 0.01 0  0.12 0.01 0  0.13 0.01 0  0.14 0.01 0  0.15 0.01 0  0.16 0.01 0  0.17 0.01 0  0.18 0.01 0  0.19 0.01 0  0.2 0.01 0  0.21 0.01 0  0.22 0.01 0  0.23 0.01 0  0.24 0.01 0  0.25 0.01 0  0.26 0.01 0  0.27 0.01 0  0.28 0.01 0  0.29 0.01 0  0.3 0.01 0  0.31 0.01 0  0.32 0.01 0  0.33 0.01 0  0.34 0.01 0  0.35 0.01 0  0.36 0.01 0  0.37 0.01 0  0.38 0.01 0  0.39 0.01 0  0.4 0.01 0  0.41 0.01 0  0.42 0.01 0  0.43 0.01 0  0.44 0.01 0  0.45 0.01 0  0.46 0.01 0  0.47 0.01 0  0.48 0.01 0  0.49 0.01 0  0.5 0.01 0  0.51 0.01 0  0.52 0.01 0  0.53 0.01 0  0.54 0.01 0  0.55 0.01 0  0.5600000000000001 0.01 0  0.57 0.01 0  0.58 0.01 0  0.59 0.01 0  0.6 0.01 0  0.61 0.01 0  0.62 0.01 0  0.63 0.01 0  0.64 0.01 0  0.65 0.01 0  0.66 0.01 0  0.67 0.01 0  0.68 0.01 0  0.6899999999999999 0.01 0  0.7 0.01 0  0.71 0.01 0  0.72 0.01 0  0.73 0.01 0  0.74 0.01 0  0.75 0.01 0  0.76 0.01 0  0.77 0.01 0  0.78 0.01 0  0.79 0.01 0  0.8 0.01 0  0.8100000000000001 0.01 0  0.82 0.01 0  0.83 0.01 0  0.84 0.01 0  0.85 0.01 0  0.86 0.01 0  0.87 0.01 0  0.88 0.01 0  0.89 0.01 0  0.9 0.01 0  0.91 0.01 0  0.92 0.01 0  0.93 0.01 0  0.9399999999999999 0.01 0  0.95 0.01 0  0.96 0.01 0  0.97 0.01 0  0.98 0.01 0  0.99 0.01 0  1 0.01 0  0 0.02 0  0.01 0.02 0  0.02 0.02 0  0.03 0.02 0  0.04 0.02 0  0.05 0.02 0  0.06 0.02 0  0.07000000000000001 0.02 0  0.08 0.02 0  0.09 0.02 0  0.1 0.02 0  0.11 0.02 0  0.12 0.02 0  0.13 0.02 0  0.14 0.02 0  0.15 0.02 0  0.16 0.02 0  0.17 0.02 0  0.18 0.02 0  0.19 0.02 0  0.2 0.02 0  0.21 0.02 0  0.22 0.02 0  0.23 0.02 0  0.24 0.02 0  0.25 0.02 0  0.26 0.02 0  0.27 0.02 0  0.28 0.02 0  0.29 0.02 0  0.3 0.02 0  0.31 0.02 0  0.32 0.02 0  0.33 0.02 0  0.34 0.02 0  0.35 0.02 0  0.36 0.02 0  0.37 0.02 0  0.38 0.02 0  0.39 0.02 0  0.4 0.02 0  0.41 0.02 0  0.42 0.02 0  0.43 0.02 0  0.44 0.02 0  0.45 0.02 0  0.46 0.02 0  0.47 0.02 0  0.48 0.02 0  0.49 0.02 0  0.5 0.02 0  0.51 0.02 0  0.52 0.02 0  0.53 0.02 0  0.54 0.02 0  0.55 0.02 0  0.5600000000000001 0.02 0  0.57 0.02 0  0.58 0.02 0  0.59 0.02 0  0.6 0.02 0  0.61 0.02 0  0.62 0.02 0  0.63 0.02 0  0.64 0.02 0  0.65 0.02 0  0.66 0.02 0  0.67 0.02 0  0.68 0.02 0  0.6899999999999999 0.02 0  0.7 0.02 0  0.71 0.02 0  0.72 0.02 0  0.73 0.02 0  0.74 0.02 0  0.75 0.02 0  0.76 0.02 0  0.77 0.02 0  0.78 0.02 0  0.79 0.02 0  0.8 0.02 0  0.8100000000000001 0.02 0  0.82 0.02 0  0.83 0.02 0  0.84 0.02 0  0.85 0.02 0  0.86 0.02 0  0.87 0.02 0  0.88 0.02 0  0.89 0.02 0  0.9 0.02 0  0.91 0.02 0  0.92 0.02 0  0.93 0.02 0  0.9399999999999999 0.02 0  0.95 0.02 0  0.96 0.02 0  0.97 0.02 0  0.98 0.02 0  0.99 0.02 0  1 0.02 0  0 0.03 0  0.01 0.03 0  0.02 0.03 0  0.03 0.03 0  0.04 0.03 0  0.05 0.03 0  0.06 0.03 0  0.07000000000000001 0.03 0  0.08 0.03 0  0.09 0.03 0  0.1 0.03 0  0.11 0.03 0  0.12 0.03 0  0.13 0.03 0  0.14 0.03 0  0.15 0.03 0  0.16 0.03 0  0.17 0.03 0  0.18 0.03 0  0.19 0.03 0  0.2 0.03 0  0.21 0.03 0  0.22 0.03 0  0.23 0.03 0  0.24 0.03 0  0.25 0.03 0  0.26 0.03 0  0.27 0.03 0  0.28 0.03 0  0.29 0.03 0  0.3 0.03 0  0.31 0.03 0  0.32 0.03 0  0.33 0.03 0  0.34 0.03 0  0.35 0.03 0  0.36 0.03 0  0.37 0.03 0  0.38 0.03 0  0.39 0.03 0  0.4 0.03 0  0.41 0.03 0  0.42 0.03 0  0.43 0.03 0  0.44 0.03 0  0.45 0.03 0  0.46 0.03 0  0.47 0.03 0  0.48 0.03 0  0.49 0.03 0  0.5 0.03 0  0.51 0.03 0  0.52 0.03 0  0.53 0.03 0  0.54 0.03 0  0.55 0.03 0  0.5600000000000001 0.03 0  0.57 0.03 0  0.58 0.03 0  0.59 0.03 0  0.6 0.03 0  0.61 0.03 0  0.62 0.03 0  0.63 0.03 0  0.64 0.03 0  0.65 0.03 0  0.66 0.03 0  0.67 0.03 0  0.68 0.03 0  0.6899999999999999 0.03 0  0.7 0.03 0  0.71 0.03 0  0.72 0.03 0  0.73 0.03 0  0.74 0.03 0  0.75 0.03 0  0.76 0.03 0  0.77 0.03 0  0.78 0.03 0  0.79 0.03 0  0.8 0.03 0  0.8100000000000001 0.03 0  0.82 0.03 0  0.83 0.03 0  0.84 0.03 0  0.85 0.03 0  0.86 0.03 0  0.87 0.03 0  0.88 0.03 0  0.89 0.03 0  0.9 0.03 0  0.91 0.03 0  0.92 0.03 0  0.93 0.03 0  0.9399999999999999 0.03 0  0.95 0.03 0  0.96 0.03 0  0.97 0.03 0  0.98 0.03 0  0.99 0.03 0  1 0.03 0  0 0.04 0  0.01 0.04 0  0.02 0.04 0  0.03 0.04 0  0.04 0.04 0  0.05 0.04 0  0.06 0.04 0  0.07000000000000001 0.04 0  0.08 0.04 0  0.09 0.04 0  0.1 0.04 0  0.11 0.04 0  0.12 0.04 0  0.13 0.04 0  0.14 0.04 0  0.15 0.04 0  0.16 0.04 0  0.17 0.04 0  0.18 0.04 0  0.19 0.04 0  0.2 0.04 0  0.21 0.04 0  0.22 0.04 0  0.23 0.04 0  0.24 0.04 0  0.25 0.04 0  0.26 0.04 0  0.27 0.04 0  0.28 0.04 0  0.29 0.04 0  0.3 0.04 0  0.31 0.04 0  0.32 0.04 0  0.33 0.04 0  0.34 0.04 0  0.35 0.04 0  0.36 0.04 0  0.37 0.04 0  0.38 0.04 0  0.39 0.04 0  0.4 0.04 0  0.41 0.04 0  0.42 0.04 0  0.43 0.04 0  0.44 0.04 0  0.45 0.04 0  0.46 0.04 0  0.47 0.04 0  0.48 0.04 0  0.49 0.04 0  0.5 0.04 0  0.51 0.04 0  0.52 0.04 0  0.53 0.04 0  0.54 0.04 0  0.55 0.04 0  0.5600000000000001 0.04 0  0.57 0.04 0  0.58 0.04 0  0.59 0.04 0  0.6 0.04 0  0.61 0.04 0  0.62 0.04 0  0.63 0.04 0  0.64 0.04 0  0.65 0.04 0  0.66 0.04 0  0.67 0.04 0  0.68 0.04 0  0.6899999999999999 0.04 0  0.7 0.04 0  0.71 0.04 0  0.72 0.04 0  0.73 0.04 0  0.74 0.04 0  0.75 0.04 0  0.76 0.04 0  0.77 0.04 0  0.78 0.04 0  0.79 0.04 0  0.8 0.04 0  0.8100000000000001 0.04 0  0.82 0.04 0  0.83 0.04 0  0.84 0.04 0  0.85 0.04 0  0.86 0.04 0  0.87 0.04 0  0.88 0.04 0  0.89 0.04 0  0.9 0.04 0  0.91 0.04 0  0.92 0.04 0  0.93 0.04 0  0.9399999999999999 0.04 0  0.95 0.04 0  0.96 0.04 0  0.97 0.04 0  0.98 0.04 0  0.99 0.04 0  1 0.04 0  0 0.05 0  0.01 0.05 0  0.02 0.05 0  0.03 0.05 0  0.04 0.05 0  0.05 0.05 0  0.06 0.05 0  0.07000000000000001 0.05 0  0.08 0.05 0  0.09 0.05 0  0.1 0.05 0  0.11 0.05 0  0.12 0.05 0  0.13 0.05 0  0.14 0.05 0  0.15 0.05 0  0.16 0.05 0  0.17 0.05 0  0.18 0.05 0  0.19 0.05 0  0.2 0.05 0  0.21 0.05 0  0.22 0.05 0  0.23 0.05 0  0.24 0.05 0  0.25 0.05 0  0.26 0.05 0  0.27 0.05 0  0.28 0.05 0  0.29 0.05 0  0.3 0.05 0  0.31 0.05 0  0.32 0.05 0  0.33 0.05 0  0.34 0.05 0  0.35 0.05 0  0.36 0.05 0  0.37 0.05 0  0.38 0.05 0  0.39 0.05 0  0.4 0.05 0  0.41 0.05 0  0.42 0.05 0  0.43 0.05 0  0.44 0.05 0  0.45 0.05 0  0.46 0.05 0  0.47 0.05 0  0.48 0.05 0  0.49 0.05 0  0.5 0.05 0  0.51 0.05 0  0.52 0.05 0  0.53 0.05 0  0.54 0.05 0  0.55 0.05 0  0.5600000000000001 0.05 0  0.57 0.05 0  0.58 0.05 0  0.59 0.05 0  0.6 0.05 0  0.61 0.05 0  0.62 0.05 0  0.63 0.05 0  0.64 0.05 0  0.65 0.05 0  0.66 0.05 0  0.67 0.05 0  0.68 0.05 0  0.6899999999999999 0.05 0  0.7 0.05 0  0.71 0.05 0  0.72 0.05 0  0.73 0.05 0  0.74 0.05 0  0.75 0.05 0  0.76 0.05 0  0.77 0.05 0  0.78 0.05 0  0.79 0.05 0  0.8 0.05 0  0.8100000000000001 0.05 0  0.82 0.05 0  0.83 0.05 0  0.84 0.05 0  0.85 0.05 0  0.86 0.05 0  0.87 0.05 0  0.88 0.05 0  0.89 0.05 0  0.9 0.05 0  0.91 0.05 0  0.92 0.05 0  0.93 0.05 0  0.9399999999999999 0.05 0  0.95 0.05 0  0.96 0.05 0  0.97 0.05 0  0.98 0.05 0  0.99 0.05 0  1 0.05 0  0 0.06 0  0.01 0.06 0  0.02 0.06 0  0.03 0.06 0  0.04 0.06 0  0.05 0.06 0  0.06 0.06 0  0.07000000000000001 0.06 0  0.08 0.06 0  0.09 0.06 0  0.1 0.06 0  0.11 0.06 0  0.12 0.06 0  0.13 0.06 0  0.14 0.06 0  0.15 0.06 0  0.16 0.06 0  0.17 0.06 0  0.18 0.06 0  0.19 0.06 0  0.2 0.06 0  0.21 0.06 0  0.22 0.06 0  0.23 0.06 0  0.24 0.06 0  0.25 0.06 0  0.26 0.06 0  0.27 0.06 0  0.28 0.06 0  0.29 0.06 0  0.3 0.06 0  0.31 0.06 0  0.32 0.06 0  0.33 0.06 0  0.34 0.06 0  0.35 0.06 0  0.36 0.06 0  0.37 0.06 0  0.38 0.06 0  0.39 0.06 0  0.4 0.06 0  0.41 0.06 0  0.42 0.06 0  0.43 0.06 0  0.44 0.06 0  0.45 0.06 0  0.46 0.06 0  0.47 0.06 0  0.48 0.06 0  0.49 0.06 0  0.5 0.06 0  0.51 0.06 0  0.52 0.06 0  0.53 0.06 0  0.54 0.06 0  0.55 0.06 0  0.5600000000000001 0.06 0  0.57 0.06 0  0.58 0.06 0  0.59 0.06 0  0.6 0.06 0  0.61 0.06 0  0.62 0.06 0  0.63 0.06 0  0.64 0.06 0  0.65 0.06 0  0.66 0.06 0  0.67 0.06 0  0.68 0.06 0  0.6899999999999999 0.06 0  0.7 0.06 0  0.71 0.06 0  0.72 0.06 0  0.73 0.06 0  0.74 0.06 0  0.75 0.06 0  0.76 0.06 0  0.77 0.06 0  0.78 0.06 0  0.79 0.06 0  0.8 0.06 0  0.8100000000000001 0.06 0  0.82 0.06 0  0.83 0.06 0  0.84 0.06 0  0.85 0.06 0  0.86 0.06 0  0.87 0.06 0  0.88 0.06 0  0.89 0.06 0  0.9 0.06 0  0.91 0.06 0  0.92 0.06 0  0.93 0.06 0  0.9399999999999999 0.06 0  0.95 0.06 0  0.96 0.06 0  0.97 0.06 0  0.98 0.06 0  0.99 0.06 0  1 0.06 0  0 0.07000000000000001 0  0.01 0.07000000000000001 0  0.02 0.07000000000000001 0  0.03 0.07000000000000001 0  0.04 0.07000000000000001 0  0.05 0.07000000000000001 0  0.06 0.07000000000000001 0  0.07000000000000001 0.07000000000000001 0  0.08 0.07000000000000001 0  0.09 0.07000000000000001 0  0.1 0.07000000000000001 0  0.11 0.07000000000000001 0  0.12 0.07000000000000001 0  0.13 0.07000000000000001 0  0.14 0.07000000000000001 0  0.15 0.07000000000000001 0  0.16 0.07000000000000001 0  0.17 0.07000
[...]
<PointData  Scalars="rho_bar"> 
<DataArray  type="Float64"  Name="rho_bar"  format="ascii">9.9671159132226139e-01  9.9784346796035384e-01  9.9718370029208048e-01  9.9727479659069596e-01  9.9740604693747181e-01  9.9781387314688996e-01  9.9838945429283921e-01  9.9896894489304611e-01  9.9937223845500789e-01  9.9950167403080270e-01  9.9935759980603089e-01  9.9899325189202304e-01  9.9847451640843576e-01  9.9788313610119328e-01  9.9733480911590455e-01  9.9695124283804260e-01  9.9679814980777615e-01  9.9686355494183321e-01  9.9708883462948839e-01  9.9740689850739850e-01  9.9776570231075612e-01  9.9813348908749722e-01  9.9849113238195242e-01  9.9882520973300426e-01  9.9912924808452852e-01  9.9940705589181011e-01  9.9966860013408732e-01  9.9991774564466818e-01  1.0001364376668433e+00  1.0002683174220812e+00  1.0002392619546825e+00  1.0000645676496762e+00  9.9990164192748898e-01  9.9987003180555112e-01  9.9990577249761103e-01  9.9990265876161100e-01  9.9989681926403329e-01  9.9956258999853453e-01  9.9976654021151834e-01  9.9187867958393328e-01  9.3906242645682547e-01  2.9622915462079646e-01  2.9362001085672332e-02  4.2196794945966367e-03  1.1458695207086449e-03  2.7121825614432368e-04  5.6267841167129578e-05  1.7072276531679596e-05  1.4930433416442995e-05  9.0269580182688645e-06  2.7690340568777802e-06  8.0423102309249351e-07  8.6226638082206507e-07  5.9095393020633193e-07  2.5868833384560393e-07  1.6849672480415546e-07  1.2173462679983142e-07  7.3163238919049364e-08  4.9454563007746670e-08  3.4955762562868292e-08  2.4147251759776816e-08  1.7489432435784618e-08  1.2871192283078768e-08  9.6120474312965196e-09  7.3298653887240751e-09  5.6628134193521171e-09  4.4362993439505770e-09  3.5164040491583748e-09  2.8155635131117971e-09  2.2746839837734633e-09  1.8517500878189813e-09  1.5174375220615756e-09  1.2505181484528939e-09  1.0355453963391931e-09  8.6107533357093660e-10  7.1852800469844273e-10  6.0138420615677503e-10  5.0463128463844109e-10  4.2437194033899791e-10  3.5754780693865298e-10  3.0173260797983619e-10  2.5498862274121236e-10  2.1575272559798341e-10  1.8276044101576657e-10  1.5497775292552338e-10  1.3155868759284834e-10  1.1180503789843785e-10  9.5141362076054764e-11  8.1089546896008603e-11  6.9253620797081865e-11  5.9303581070059223e-11  5.0966438685720583e-11  4.4014854719273883e-11  3.8261673845553950e-11  3.3552880396219880e-11  2.9764129568948934e-11  2.6796030968566213e-11  2.4572616334023632e-11  2.3039277594165118e-11  2.2169055855291780e-11  2.1979287271437538e-11  1.0054511295610378e+00  1.0016229370992038e+00  1.0027041326825581e+00  1.0024724032842922e+00  1.0019594455039329e+00  1.0008014079092453e+00  9.9900831502928267e-01  9.9683866424970291e-01  9.9471369611351257e-01  9.9303069673756506e-01  9.9204190137099957e-01  9.9186477703138842e-01  9.9252353155586481e-01  9.9393185180258736e-01  9.9583314924001476e-01  9.9782385131907847e-01  9.9952149110026700e-01  1.0007253292916138e+00  1.0014242511140672e+00  1.0017147633523833e+00  1.0017200013632128e+00  1.0015416729864739e+00  1.0012530239973025e+00  1.0009101845356654e+00  1.0005549922978243e+00  1.0002068901266377e+00  9.9986249061692622e-01  9.9951405163141038e-01  9.9917863592651390e-01  9.9893105958983297e-01  9.9891783805365320e-01  9.9923676134676231e-01  9.9970025705778909e-01  9.9995152552822242e-01  9.9993444376572382e-01  9.9987470990213156e-01  9.9983425098979029e-01  9.9969378901668304e-01  9.9927472238522963e-01  9.9407548526189859e-01  9.4715663530923966e-01  4.0075823427186474e-01  2.7321705436415468e-02  9.0315990806595064e-03  1.1896625608848008e-03  1.7028247956265468e-04  1.2546496228157513e-04  7.8520068108001823e-05  2.0069321507685326e-05  -1.8891930860140061e-06  5.6361408423273781e-07  3.3063294408007376e-06  1.4670650889077198e-06  2.3766325684834109e-07  3.1205598077530274e-07  2.5822949906411789e-07  1.1231893680338917e-07  7.9502695143584300e-08  5.8187835605496978e-08  3.6199036349118807e-08  2.6093858019147153e-08  1.8746432741703983e-08  1.3510376287263787e-08  1.0135297411636295e-08  7.6580651027654475e-09  5.8960221004557094e-09  4.6040765628046589e-09  3.6370402549446361e-09  2.9054944433231427e-09  2.3421410791440668e-09  1.9033335375537952e-09  1.5573551062012109e-09  1.2817919914793457e-09  1.0603082105109444e-09  8.8086873631058706e-10  7.3448110702734791e-10  6.1433607672654934e-10  5.1521349478537318e-10  4.3306714358270526e-10  3.6472646854432268e-10  3.0768522322848097e-10  2.5994154944525547e-10  2.1988833039981000e-10  1.8622228524029809e-10  1.5788365064197700e-10  1.3400261301849669e-10  1.1386536526244715e-10  9.6881475361530051e-11  8.2562832100821714e-11  7.0503636424163957e-11  6.0367843200744569e-11  5.1875781822718697e-11  4.4796139371337485e-11  3.8937282894161819e-11  3.4142719052579099e-11  3.0285071649596940e-11  2.7263159674575088e-11  2.4998396471023142e-11  2.3433226480674933e-11  2.2527536228770132e-11  2.2252268207500384e-11  9.7431722436711998e-01  9.8749054785197199e-01  9.8371417125583094e-01  9.8306960103959551e-01  9.8274695217853947e-01  9.8389938599338578e-01  9.8677161472714792e-01  9.9090015754134175e-01  9.9512435903269780e-01  9.9824871203989018e-01  9.9966842663762578e-01  9.9940702100631185e-01  9.9774780018995135e-01  9.9496177556605359e-01  9.9140419834264515e-01  9.8774560482308815e-01  9.8483967669666250e-01  9.8324189757926994e-01  9.8300821150376338e-01  9.8386084951648911e-01  9.8541242057930978e-01  9.8733663268898897e-01  9.8942153408091682e-01  9.9152598390651914e-01  9.9354065447848749e-01  9.9540280964990235e-01  9.9712679848371810e-01  9.9877316055826282e-01  1.0003611121257872e+00  1.0017587835048403e+00  1.0025844117689129e+00  1.0023060631851317e+00  1.0009635600441127e+00  9.9971623243665209e-01  9.9949531008767212e-01  9.9975327619422549e-01  9.9977178026082258e-01  9.9959315581676333e-01  9.9908199099935724e-01  9.9536179931892199e-01  9.7363207740071778e-01  6.3996496437671435e-01  9.3285932479151970e-02  2.1209228142157824e-02  9.5331108698818844e-04  1.4206104616441336e-03  3.6247513286147634e-04  -9.3787201140843268e-05  -4.5121319359005323e-05  3.4606639788843812e-05  2.8769674622275156e-05  1.1496520633133855e-06  -2.6639223142266494e-06  1.6258848930175621e-06  1.0602173811326385e-06  3.3292221330204067e-08  1.7955321111897591e-07  1.5096053009858530e-07  5.5238157367355941e-08  4.9440892584484575e-08  3.3587188098471467e-08  2.1522391910880280e-08  1.6411678641450820e-08  1.1691112969386833e-08  8.7625841790366578e-09  6.6757074746896901e-09  5.1398585816227745e-09  4.0315525414712970e-09  3.1932531153536514e-09  2.5584291386400498e-09  2.0677350541551270e-09  1.6842323907531376e-09  1.3809337027883459e-09  1.1386363832478702e-09  9.4336709448757196e-10  7.8477888642093266e-10  6.5512247931484040e-10  5.4850614726400253e-10  4.6039906644184757e-10  3.8727783724501802e-10  3.2637243683831836e-10  2.7548614422376367e-10  2.3286024361814398e-10  1.9707904185508435e-10  1.6699231121524021e-10  1.4166260799223041e-10  1.2032016477587959e-10  1.0233218769392127e-10  8.7175083419926279e-11  7.4416151595804709e-11  6.3696223209160936e-11  5.4717919771844046e-11  4.7234744045984295e-11  4.1043569361659759e-11  3.5977665560411780e-11  3.1902117182949890e-11  2.8708999790138228e-11  2.6314438270957705e-11  2.4655044302224874e-11  2.3686313800028185e-11  2.3376084897199279e-11  1.0548619745111547e+00  1.0188376357301416e+00  1.0253790115159152e+00  1.0250511962843032e+00  1.0210929400127562e+00  1.0097189749076896e+00  9.8801793245953873e-01  9.5564609381325916e-01  9.1623460580366545e-01  8.7686930938607777e-01  8.4522000663460295e-01  8.2714471177762305e-01  8.2565673552162455e-01  8.4095448578828358e-01  8.7023971330168726e-01  9.0752931000365356e-01  9.4489655678805995e-01  9.7584169880306904e-01  9.9769197648097585e-01  1.0108538183560762e+00  1.0172354608704615e+00  1.0189677614069064e+00  1.0177265624102709e+00  1.0146966378930429e+00  1.0107361301221394e+00  1.0064720940871981e+00  1.0022103918820906e+00  9.9794167575871495e-01  9.9359980875424792e-01  9.8942205470071343e-01  9.8636360864221617e-01  9.8624164842197126e-01  9.9050071173448417e-01  9.9686500734299477e-01  1.0001832061809366e+00  9.9979936427420157e-01  9.9923281220373883e-01  9.9927360269409837e-01  9.9875026813109202e-01  9.9700599054981542e-01  9.8431412315164379e-01  8.9678570630211840e-01  4.0771464016336506e-01  5.6245359627000564e-02  1.6187031663541251e-02  2.4018105806329357e-03  -8.8357750570650020e-04  6.1200189167897353e-04  5.9538325061652818e-04  7.9071622505269855e-05  -1.0080618157505321e-04  -1.9723459542218759e-05  2.5417948354233425e-05  5.0726915564946046e-06  -3.0052282798752275e-06  1.1219329599227819e-06  7.4562898718890160e-07  -5.6921393173964143e-08  1.5742633972123440e-07  8.5104007590142563e-08  3.3149660375176164e-08  3.5760272455204874e-08  2.0276058209492454e-08  1.5011959894657966e-08  1.1116409951080307e-08  8.0638952766662408e-09  6.2058955120059427e-09  4.7526562851146054e-09  3.7276429026193111e-09  2.9518798379633251e-09  2.3645731181050852e-09  1.9115141585563557e-09  1.5572758438768064e-09  1.2772076371713887e-09  1.0533966622864251e-09  8.7298099279604364e-10  7.2640441230582468e-10  6.0652716737667649e-10  5.0791982431385418e-10  4.2640803550995945e-10  3.5874413181810689e-10  3.0237434154062943e-10  2.5527260257409165e-10  2.1581673606883452e-10  1.8270016117060058e-10  1.5486143808144349e-10  1.3143550831289079e-10  1.1171232586469116e-10  9.5108577202056824e-11  8.1142285529516345e-11  6.9415561292190237e-11  5.9599055615238958e-11  5.1420911885352358e-11  4.4656965473572795e-11  3.9123907938099758e-11  3.4673031368572177e-11  3.1185636174395877e-11  2.8569053492305964e-11  2.6753889031946876e-11  2.5690423733096853e-11  2.5348757866458016e-11  5.6633119031021639e-01  6.1667131546425691e-01  5.8548006147054965e-01  5.3583120848062604e-01  4.6793284671508695e-01  3.8599539169729080e-01  2.9926775231178021e-01  2.1786447373888920e-01  1.5024307112611393e-01  1.0114098890616764e-01  7.0308727548214267e-02  5.5050414726445743e-02  5.2833616929352262e-02  6.2968134438782603e-02  8.6984993444647205e-02  1.2764834399000258e-01  1.8627907333170746e-01  2.5984944779806890e-01  3.4275063145996548e-01  4.2854559786196572e-01  5.1186333007972440e-01  5.8892972176423874e-01  6.5815849795380155e-01  7.2018082272608319e-01  7.7523873739922555e-01  8.2354126746678646e-01  8.6532216315261956e-01  9.0220263899421105e-01  9.3618887195209821e-01  9.6840910846874806e-01  9.9732341413415881e-01  1.0175329076787165e+00  1.0212891151057946e+00  1.0075078181255768e+00  9.9277958713933001e-01  9.9257221880661373e-01  9.9764838646137011e-01  9.9827846615794502e-01  9.9785859028879742e-01  9.9690290015949246e-01  9.9276919778756101e-01  9.7391367139035478e-01  8.7658253253458573e-01  4.4891675156674588e-01  7.6727006866814496e-02  1.2142714449142330e-02  1.2506206976959224e-02  2.5955742439433861e-03  -1.7900150251195259e-03  -7.6875670453131480e-04  4.2364441574194975e-04  3.1967973823022273e-04  -3.7326487445227988e-05  -4.2464622204097610e-05  1.8775705146970002e-05  4.8885404206615873e-06  -2.6927005832245685e-06  1.2417790782061731e-06  3.3717022158159559e-07  -4.3241037286352212e-08  1.4810336952567908e-07  3.2810177458853630e-08  3.1207964910460633e-08  2.3486075060693497e-08  1.3798993556744820e-08  1.1189415756843374e-08  7.8115410975989743e-09  6.0109828687356611e-09  4.5901527071121692e-09  3.5834189157973560e-09  2.8340729605717206e-09  2.2654832194185050e-09  1.8294333149665347e-09  1.4889095516917873e-09  1.2202660447587946e-09  1.0058513945941282e-09  8.3320126517470854e-10  6.9305062251218833e-10  5.7850681800111929e-10  4.8433951129393919e-10  4.0653537374142939e-10  3.4197667622018649e-10  2.8821552281065080e-10  2.4331209566803001e-10  2.0571523335542118e-10  1.7417653976276523e-10  1.4768321187351426e-10  1.2541101466903333e-10  1.0668435449920914e-10  9.0949017305908155e-11  7.7748235725065436e-11  6.6705826345747087e-11  5.7511698671910057e-11  4.9911242603958711e-11  4.3695972347679143e-11  3.8697622502773097e-11  3.4781442947301733e-11  3.1842905762970097e-11  2.9803188065375013e-11  2.8607884330671617e-11  2.8224862562229256e-11  -1.4998854879892591e-03  -3.8428156946853032e-02  -4.5906846094926117e-02  -4.9614348126116627e-02  -5.2905831341331748e-02  -5.1758956707700997e-02  -4.5544984012696577e-02  -3.5630251489764134e-02  -2.4531208723826994e-02  -1.4691712349773806e-02  -7.5184554583171996e-03  -3.2219492767169146e-03  -1.4482603783489124e-03  -1.8669058356373725e-03  -4.4593738255401345e-03  -9.4433738105288937e-03  -1.6810658003238662e-02  -2.5662280939557167e-02  -3.4232705247902624e-02  -4.0535927873752153e-02  -4.2930620564728940e-02  -4.0452867720634902e-02  -3.2855742897346163e-02  -2.0095514540694231e-02  -2.2761693140491801e-03  2.0327683681952556e-02  4.7158544825134048e-02  7.8555780592540717e-02  1.1705134021170970e-01  1.6812438898676768e-01  2.4066497239337331e-01  3.4681493839518834e-01  4.9897328406169711e-01  6.9402244338125818e-01  8.8086321406521595e-01  9.7609110176100944e-01  9.8661427291328252e-01  9.8980021854828582e-01  9.9573389463754258e-01  9.9590516971983545e-01  9.9539282283093600e-01  9.9193427334052953e-01  9.7823927093764196e-01  9.4382701422554049e-01  7.0766931937321154e-01  2.8438549999672141e-01  3.3362177051172552e-02  -2.4515262587147071e-03  1.0040602636898524e-02  8.1960035817940681e-03  7.8381116825079484e-04  -1.4646152139648754e-03  -1.6138880028781041e-04  3.3677781684070902e-04  8.4548144664628507e-06  -3.9157921689128487e-05  1.7526335279895540e-05  1.3964366105542995e-06  -1.6481453327560879e-06  1.3052237601411420e-06  -9.1039263014152015e-08  9.0589790631164362e-08  8.1084495779093396e-08  1.7650305203624881e-08  2.8426144370547191e-08  1.3586373758803175e-08  1.1318543243177652e-08  7.9223038806861539e-09  5.9657962798109803e-09  4.5693355227212126e-09  3.5392620421067310e-09  2.7944629380709906e-09  2.2272367977775837e-09  1.7954061847931645e-09  1.4589302055465199e-09  1.1942592021978641e-09  9.8344648745025632e-10  8.1399161115697466e-10  6.7662974677392312e-10  5.6449701496933580e-10  4.7240317082473495e-10  3.9637684235264494e-10  3.3334074865555020e-10  2.8088436671248190e-10  2.3710126296809750e-10  2.0046970392575019e-10  1.6976759790179442e-10  1.4400525084766870e-10  1.2237868145715582e-10  1.0423044106703253e-10  8.9022419120719075e-11  7.6312472437432984e-11  6.5738019393097059e-11  5.7001657417219306e-11  4.9861350187623834e-11  4.4120794011197116e-11  3.9624514693129735e-11  3.6250663149822435e-11  3.3909241206078456e-11  3.2537347710017024e-11  3.2099366193346903e-11  -3.4527483551570422e-04  9.4875755880110615e-03  1.5440186384742628e-02  1.5770396557155418e-02  1.6214385985769034e-02  1.6030982990859005e-02  1.4557476922947723e-02  1.1978328187541090e-02  8.8328091006423439e-03  5.8026202973662615e-03  3.4015625938695459e-03  1.8197680358423510e-03  1.0054760159757311e-03  8.4859837548527926e-04  1.3015321281893096e-03  2.4091445813817364e-03  4.2358736403955034e-03  6.6924107015371038e-03  9.4307881976591519e-03  1.1950017151970067e-02  1.3773355473055492e-02  1.4569034361322706e-02  1.4208719615286369e-02  1.2702883865262504e-02  1.0119223900435039e-02  6.5765805714795966e-03  2.2900567332719245e-03  -2.5052825748479090e-03  -7.7676339901852926e-03  -1.3674316206261116e-02  -2.0286894514733610e-02  -2.6427754833690892e-02  -2.6363332633543384e-02  -3.1684326020274875e-04  1.0669966586098166e-01  3.7707808461297609e-01  7.4890223225850949e-01  9.4948896931351134e-01  9.7972775016258173e-01  9.9352632846942379e-01  9.9572530700059014e-01  9.9615833776355389e-01  9.9553705873939680e-01  9.8786029288107258e-01  9.8266163834471432e-01  9.4570366744222878e-01  7.2820438105533769e-01  3.6228603625866934e-01  8.7213562869511624e-02  -7.7945527675878515e-03  -4.4422474243835889e-03  8.0647590191662739e-03  4.3412640756396786e-03  -7.8128717161573494e-04  -3.7417930747195538e-04  2.8721249229601180e-04  -8.6348557653739054e-06  -2.2454600469513019e-05  1.6478103580078448e-05  -3.0447815876790717e-06  5.3717159743754208e-07  5.5684393377391508e-07  -1.2134831196926298e-07  1.4597909967637815e-07  1.1578212430064716e-08  2.9564767798011020e-08  1.5323586869770570e-08  1.1226378297305700e-08  8.2978548148032930e-09  6.0179522456312756e-09  4.6381771417516810e-09  3.5613947659465670e-09  2.8061199324635566e-09  2.2295146315418926e-09  1.7935434274669132e-09  1.4548642327447396e-09  1.1892664834658812e-09  9.7822699939223310e-10  8.0892016283295652e-10  6.7190461491821945e-10  5.6020620380565358e-10  4.6857513188259862e-10  3.9300631244013439e-10  3.3040572069135633e-10  2.7835602350621695e-10  2.3495012656502385e-10  1.9866947221407424e-10  1.6829698432533636e-10  1.4284947325263497e-10  1.2152988706174982e-10  1.0368836450858263e-10  8.8794599495442384e-11  7.6414612718992081e-11  6.6194721297097424e-11  5.7846777030244547e-11  5.1139129090826298e-11  4.5886898722506375e-11  4.1947446905943904e-11  3.9213598881383679e-11  3.7612958687989827e-11  3.7103395897824953e-11  4.9391471418392958e-04  -9.6581492025651157e-04  -3.4171670277881741e-03  -4.1551856966822853e-03  -4.1775962318202318e-03  -4.2726587990969973e-03  -4.0725088179305088e-03  -3.5283331672259404e-03  -2.7493775684761927e-03  -1.9076148219672093e-03  -1.1723352142114670e-03  -6.3931472934907689e-04  -3.2223426462595582e-04  -1.9401238332879457e-04  -2.3084943402056299e-04  -4.3276032995232232e-04  -8.1841767784381200e-04  -1.3893317454134759e-03  -2.0863250733720380e-03  -2.7896895194307789e-03  -3.3625361737821646e-03  -3.6926221669725929e-03  -3.7174669746779820e-03  -3.4226073956601273e-03  -2.8176901415934434e-03  -1.9229149571336720e-03  -7.7715089336629630e-04  5.6432662787844051e-04  2.0808993492840862e-03  3.8399798121209962e-03  5.9908798522384874e-03  8.6843849724011820e-03  1.1774367115888446e-02  1.4214151633782753e-02  1.3043180312419297e-02  9.7858581434057818e-03  1.0588858871357643e-01  5.2232310610458976e-01  9.1795621410507422e-01  9.8081749034610122e-01  9.9528178332865713e-01  9.9745027206728798e-01  9.9783560831487583e-01  9.9802306092099935e-01  9.9621572782342771e-01  9.8801872482221387e-01  9.8770887091746062e-01  9.7726729210230256e-01  8.5787141139296907e-01  5.8844378514770768e-01  2.7060797208297827e-01  5.3287237875824317e-02  -8.2180847348912889e-03  3.0630414918495267e-03  5.0113717184263806e-03  -4.3636614876818754e-04  -2.1260437852996646e-04  2.3447786928635053e-04  -5.2287385229060940e-05  7.2873741666391588e-06  5.9358938061227943e-06  -2.6392574629872575e-06  1.4560514140588233e-06  -2.3822648103224811e-07  1.4939931424284961e-07  2.9325914419697103e-08  2.4650880581775416e-08  1.8753256731821466e-08  1.1022225399253091e-08  8.8158805421744530e-09  6.1488178171356692e-09  4.7638062967511596e-09  3.6298204348161696e-09  2.8525052473586289e-09  2.2597950175013977e-09  1.8138910406630970e-09  1.4688180066706451e-09  1.1989402484164062e-09  9.8505186196245482e-10  8.1379091299917746e-10  6.7542836275252781e-10  5.6278759605781585e-10  4.7049341318925109e-10  3.9445701252207707e-10  3.3152989460855295e-10  2.7925896808649698e-10  2.3571388616505344e-10  1.9936142505365899e-10  1.6897568395563728e-10  1.4356880187244869e-10  1.2234225354890376e-10  1.0464687464431773e-10  8.9955423478195225e-11  7.7838545861698930e-11  6.7949215383169823e-11  6.0007764815873425e-11  5.3793046079605403e-11  4.9132873745483053e-11  4.5900701040273733e-11  4.4008668805776208e-11  4.3407909333925656e-11  -8.7251125067483275e-05  1.3221918058184576e-05  6.1499244625797390e-04  1.0732770227843166e-03  1.1318952694367845e-03  1.1418907798708628e-03  1.1368458096101240e-03  1.0343034349461376e-03  8.5138266697225675e-04  6.2774571354098116e-04  4.1150879691456666e-04  2.3964544978442889e-04  1.2612127357445642e-04  6.7555947730921559e-05  5.6011295443010635e-05  8.8045242088109760e-05  1.6689695506448161e-04  2.967896395984