<?xml version="1.0"?>
<VTKFile type="UnstructuredGrid"  version="0.1"  >
<UnstructuredGrid>
<Piece  NumberOfPoints="5151" NumberOfCells="10000">
<Points>
<DataArray  type="Float64"  NumberOfComponents="3"  format="ascii">0 0 0  0.01 0 0  0.02 0 0  0.03 0 0  0.04 0 0  0.05 0 0  0.06 0 0  0.07000000000000001 0 0  0.08 0 0  0.09 0 0  0.1 0 0  0.11 0 0  0.12 0 0  0.13 0 0  0.14 0 0  0.15 0 0  0.16 0 0  0.17 0 0  0.18 0 0  0.19 0 0  0.2 0 0  0.21 0 0  0.22 0 0  0.23 0 0  0.24 0 0  0.25 0 0  0.26 0 0  0.27 0 0  0.28 0 0  0.29 0 0  0.3 0 0  0.31 0 0  0.32 0 0  0.33 0 0  0.34 0 0  0.35 0 0  0.36 0 0  0.37 0 0  0.38 0 0  0.39 0 0  0.4 0 0  0.41 0 0  0.42 0 0  0.43 0 0  0.44 0 0  0.45 0 0  0.46 0 0  0.47 0 0  0.48 0 0  0.49 0 0  0.5 0 0  0.51 0 0  0.52 0 0  0.53 0 0  0.54 0 0  0.55 0 0  0.5600000000000001 0 0  0.57 0 0  0.58 0 0  0.59 0 0  0.6 0 0  0.61 0 0  0.62 0 0  0.63 0 0  0.64 0 0  0.65 0 0  0.66 0 0  0.67 0 0  0.68 0 0  0.6899999999999999 0 0  0.7 0 0  0.71 0 0  0.72 0 0  0.73 0 0  0.74 0 0  0.75 0 0  0.76 0 0  0.77 0 0  0.78 0 0  0.79 0 0  0.8 0 0  0.8100000000000001 0 0  0.82 0 0  0.83 0 0  0.84 0 0  0.85 0 0  0.86 0 0  0.87 0 0  0.88 0 0  0.89 0 0  0.9 0 0  0.91 0 0  0.92 0 0  0.93 0 0  0.9399999999999999 0 0  0.95 0 0  0.96 0 0  0.97 0 0  0.98 0 0  0.99 0 0  1 0 0  0 0.01 0  0.01 0.01 0  0.02 0.01 0  0.03 0.01 0  0.04 0.01 0  0.05 0.01 0  0.06 0.01 0  0.07000000000000001 0.01 0  0.08 0.01 0  0.09 0.01 0  0.1 0.01 0  0.11 0.01 0  0.12 0.01 0  0.13 0.01 0  0.14 0.01 0  0.15 0.01 0  0.16 0.01 0  0.17 0.01 0  0.18 0.01 0  0.19 0.01 0  0.2 0.01 0  0.21 0.01 0  0.22 0.01 0  0.23 0.01 0  0.24 0.01 0  0.25 0.01 0  0.26 0.01 0  0.27 0.01 0  0.28 0.01 0  0.29 0.01 0  0.3 0.01 0  0.31 0.01 0  0.32 0.01 0  0.33 0.01 0  0.34 0.01 0  0.35 0.01 0  0.36 0.01 0  0.37 0.01 0  0.38 0.01 0  0.39 0.01 0  0.4 0.01 0  0.41 0.01 0  0.42 0.01 0  0.43 0.01 0  0.44 0.01 0  0.45 0.01 0  0.46 0.01 0  0.47 0.01 0  0.48 0.01 0  0.49 0.01 0  0.5 0.01 0  0.51 0.01 0  0.52 0.01 0  0.53 0.01 0  0.54 0.01 0  0.55 0.01 0  0.5600000000000001 0.01 0  0.57 0.01 0  0.58 0.01 0  0.59 0.01 0  0.6 0.01 0  0.61 0.01 0  0.62 0.01 0  0.63 0.01 0  0.64 0.01 0  0.65 0.01 0  0.66 0.01 0  0.67 0.01 0  0.68 0.01 0  0.6899999999999999 0.01 0  0.7 0.01 0  0.71 0.01 0  0.72 0.01 0  0.73 0.01 0  0.74 0.01 0  0.75 0.01 0  0.76 0.01 0  0.77 0.01 0  0.78 0.01 0  0.79 0.01 0  0.8 0.01 0  0.8100000000000001 0.01 0  0.82 0.01 0  0.83 0.01 0  0.84 0.01 0  0.85 0.01 0  0.86 0.01 0  0.87 0.01 0  0.88 0.01 0  0.89 0.01 0  0.9 0.01 0  0.91 0.01 0  0.92 0.01 0  0.93 0.01 0  0.9399999999999999 0.01 0  0.95 0.01 0  0.96 0.01 0  0.97 0.01 0  0.98 0.01 0  0.99 0.01 0  1 0.01 0  0 0.02 0  0.01 0.02 0  0.02 0.02 0  0.03 0.02 0  0.04 0.02 0  0.05 0.02 0  0.06 0.02 0  0.07000000000000001 0.02 0  0.08 0.02 0  0.09 0.02 0  0.1 0.02 0  0.11 0.02 0  0.12 0.02 0  0.13 0.02 0  0.14 0.02 0  0.15 0.02 0  0.16 0.02 0  0.17 0.02 0  0.18 0.02 0  0.19 0.02 0  0.2 0.02 0  0.21 0.02 0  0.22 0.02 0  0.23 0.02 0  0.24 0.02 0  0.25 0.02 0  0.26 0.02 0  0.27 0.02 0  0.28 0.02 0  0.29 0.02 0  0.3 0.02 0  0.31 0.02 0  0.32 0.02 0  0.33 0.02 0  0.34 0.02 0  0.35 0.02 0  0.36 0.02 0  0.37 0.02 0  0.38 0.02 0  0.39 0.02 0  0.4 0.02 0  0.41 0.02 0  0.42 0.02 0  0.43 0.02 0  0.44 0.02 0  0.45 0.02 0  0.46 0.02 0  0.47 0.02 0  0.48 0.02 0  0.49 0.02 0  0.5 0.02 0  0.51 0.02 0  0.52 0.02 0  0.53 0.02 0  0.54 0.02 0  0.55 0.02 0  0.5600000000000001 0.02 0  0.57 0.02 0  0.58 0.02 0  0.59 0.02 0  0.6 0.02 0  0.61 0.02 0  0.62 0.02 0  0.63 0.02 0  0.64 0.02 0  0.65 0.02 0  0.66 0.02 0  0.67 0.02 0  0.68 0.02 0  0.6899999999999999 0.02 0  0.7 0.02 0  0.71 0.02 0  0.72 0.02 0  0.73 0.02 0  0.74 0.02 0  0.75 0.02 0  0.76 0.02 0  0.77 0.02 0  0.78 0.02 0  0.79 0.02 0  0.8 0.02 0  0.8100000000000001 0.02 0  0.82 0.02 0  0.83 0.02 0  0.84 0.02 0  0.85 0.02 0  0.86 0.02 0  0.87 0.02 0  0.88 0.02 0  0.89 0.02 0  0.9 0.02 0  0.91 0.02 0  0.92 0.02 0  0.93 0.02 0  0.9399999999999999 0.02 0  0.95 0.02 0  0.96 0.02 0  0.97 0.02 0  0.98 0.02 0  0.99 0.02 0  1 0.02 0  0 0.03 0  0.01 0.03 0  0.02 0.03 0  0.03 0.03 0  0.04 0.03 0  0.05 0.03 0  0.06 0.03 0  0.07000000000000001 0.03 0  0.08 0.03 0  0.09 0.03 0  0.1 0.03 0  0.11 0.03 0  0.12 0.03 0  0.13 0.03 0  0.14 0.03 0  0.15 0.03 0  0.16 0.03 0  0.17 0.03 0  0.18 0.03 0  0.19 0.03 0  0.2 0.03 0  0.21 0.03 0  0.22 0.03 0  0.23 0.03 0  0.24 0.03 0  0.25 0.03 0  0.26 0.03 0  0.27 0.03 0  0.28 0.03 0  0.29 0.03 0  0.3 0.03 0  0.31 0.03 0  0.32 0.03 0  0.33 0.03 0  0.34 0.03 0  0.35 0.03 0  0.36 0.03 0  0.37 0.03 0  0.38 0.03 0  0.39 0.03 0  0.4 0.03 0  0.41 0.03 0  0.42 0.03 0  0.43 0.03 0  0.44 0.03 0  0.45 0.03 0  0.46 0.03 0  0.47 0.03 0  0.48 0.03 0  0.49 0.03 0  0.5 0.03 0  0.51 0.03 0  0.52 0.03 0  0.53 0.03 0  0.54 0.03 0  0.55 0.03 0  0.5600000000000001 0.03 0  0.57 0.03 0  0.58 0.03 0  0.59 0.03 0  0.6 0.03 0  0.61 0.03 0  0.62 0.03 0  0.63 0.03 0  0.64 0.03 0  0.65 0.03 0  0.66 0.03 0  0.67 0.03 0  0.68 0.03 0  0.6899999999999999 0.03 0  0.7 0.03 0  0.71 0.03 0  0.72 0.03 0  0.73 0.03 0  0.74 0.03 0  0.75 0.03 0  0.76 0.03 0  0.77 0.03 0  0.78 0.03 0  0.79 0.03 0  0.8 0.03 0  0.8100000000000001 0.03 0  0.82 0.03 0  0.83 0.03 0  0.84 0.03 0  0.85 0.03 0  0.86 0.03 0  0.87 0.03 0  0.88 0.03 0  0.89 0.03 0  0.9 0.03 0  0.91 0.03 0  0.92 0.03 0  0.93 0.03 0  0.9399999999999999 0.03 0  0.95 0.03 0  0.96 0.03 0  0.97 0.03 0  0.98 0.03 0  0.99 0.03 0  1 0.03 0  0 0.04 0  0.01 0.04 0  0.02 0.04 0  0.03 0.04 0  0.04 0.04 0  0.05 0.04 0  0.06 0.04 0  0.07000000000000001 0.04 0  0.08 0.04 0  0.09 0.04 0  0.1 0.04 0  0.11 0.04 0  0.12 0.04 0  0.13 0.04 0  0.14 0.04 0  0.15 0.04 0  0.16 0.04 0  0.17 0.04 0  0.18 0.04 0  0.19 0.04 0  0.2 0.04 0  0.21 0.04 0  0.22 0.04 0  0.23 0.04 0  0.24 0.04 0  0.25 0.04 0  0.26 0.04 0  0.27 0.04 0  0.28 0.04 0  0.29 0.04 0  0.3 0.04 0  0.31 0.04 0  0.32 0.04 0  0.33 0.04 0  0.34 0.04 0  0.35 0.04 0  0.36 0.04 0  0.37 0.04 0  0.38 0.04 0  0.39 0.04 0  0.4 0.04 0  0.41 0.04 0  0.42 0.04 0  0.43 0.04 0  0.44 0.04 0  0.45 0.04 0  0.46 0.04 0  0.47 0.04 0  0.48 0.04 0  0.49 0.04 0  0.5 0.04 0  0.51 0.04 0  0.52 0.04 0  0.53 0.04 0  0.54 0.04 0  0.55 0.04 0  0.5600000000000001 0.04 0  0.57 0.04 0  0.58 0.04 0  0.59 0.04 0  0.6 0.04 0  0.61 0.04 0  0.62 0.04 0  0.63 0.04 0  0.64 0.04 0  0.65 0.04 0  0.66 0.04 0  0.67 0.04 0  0.68 0.04 0  0.6899999999999999 0.04 0  0.7 0.04 0  0.71 0.04 0  0.72 0.04 0  0.73 0.04 0  0.74 0.04 0  0.75 0.04 0  0.76 0.04 0  0.77 0.04 0  0.78 0.04 0  0.79 0.04 0  0.8 0.04 0  0.8100000000000001 0.04 0  0.82 0.04 0  0.83 0.04 0  0.84 0.04 0  0.85 0.04 0  0.86 0.04 0  0.87 0.04 0  0.88 0.04 0  0.89 0.04 0  0.9 0.04 0  0.91 0.04 0  0.92 0.04 0  0.93 0.04 0  0.9399999999999999 0.04 0  0.95 0.04 0  0.96 0.04 0  0.97 0.04 0  0.98 0.04 0  0.99 0.04 0  1 0.04 0  0 0.05 0  0.01 0.05 0  0.02 0.05 0  0.03 0.05 0  0.04 0.05 0  0.05 0.05 0  0.06 0.05 0  0.07000000000000001 0.05 0  0.08 0.05 0  0.09 0.05 0  0.1 0.05 0  0.11 0.05 0  0.12 0.05 0  0.13 0.05 0  0.14 0.05 0  0.15 0.05 0  0.16 0.05 0  0.17 0.05 0  0.18 0.05 0  0.19 0.05 0  0.2 0.05 0  0.21 0.05 0  0.22 0.05 0  0.23 0.05 0  0.24 0.05 0  0.25 0.05 0  0.26 0.05 0  0.27 0.05 0  0.28 0.05 0  0.29 0.05 0  0.3 0.05 0  0.31 0.05 0  0.32 0.05 0  0.33 0.05 0  0.34 0.05 0  0.35 0.05 0  0.36 0.05 0  0.37 0.05 0  0.38 0.05 0  0.39 0.05 0  0.4 0.05 0  0.41 0.05 0  0.42 0.05 0  0.43 0.05 0  0.44 0.05 0  0.45 0.05 0  0.46 0.05 0  0.47 0.05 0  0.48 0.05 0  0.49 0.05 0  0.5 0.05 0  0.51 0.05 0  0.52 0.05 0  0.53 0.05 0  0.54 0.05 0  0.55 0.05 0  0.5600000000000001 0.05 0  0.57 0.05 0  0.58 0.05 0  0.59 0.05 0  0.6 0.05 0  0.61 0.05 0  0.62 0.05 0  0.63 0.05 0  0.64 0.05 0  0.65 0.05 0  0.66 0.05 0  0.67 0.05 0  0.68 0.05 0  0.6899999999999999 0.05 0  0.7 0.05 0  0.71 0.05 0  0.72 0.05 0  0.73 0.05 0  0.74 0.05 0  0.75 0.05 0  0.76 0.05 0  0.77 0.05 0  0.78 0.05 0  0.79 0.05 0  0.8 0.05 0  0.8100000000000001 0.05 0  0.82 0.05 0  0.83 0.05 0  0.84 0.05 0  0.85 0.05 0  0.86 0.05 0  0.87 0.05 0  0.88 0.05 0  0.89 0.05 0  0.9 0.05 0  0.91 0.05 0  0.92 0.05 0  0.93 0.05 0  0.9399999999999999 0.05 0  0.95 0.05 0  0.96 0.05 0  0.97 0.05 0  0.98 0.05 0  0.99 0.05 0  1 0.05 0  0 0.06 0  0.01 0.06 0  0.02 0.06 0  0.03 0.06 0  0.04 0.06 0  0.05 0.06 0  0.06 0.06 0  0.07000000000000001 0.06 0  0.08 0.06 0  0.09 0.06 0  0.1 0.06 0  0.11 0.06 0  0.12 0.06 0  0.13 0.06 0  0.14 0.06 0  0.15 0.06 0  0.16 0.06 0  0.17 0.06 0  0.18 0.06 0  0.19 0.06 0  0.2 0.06 0  0.21 0.06 0  0.22 0.06 0  0.23 0.06 0  0.24 0.06 0  0.25 0.06 0  0.26 0.06 0  0.27 0.06 0  0.28 0.06 0  0.29 0.06 0  0.3 0.06 0  0.31 0.06 0  0.32 0.06 0  0.33 0.06 0  0.34 0.06 0  0.35 0.06 0  0.36 0.06 0  0.37 0.06 0  0.38 0.06 0  0.39 0.06 0  0.4 0.06 0  0.41 0.06 0  0.42 0.06 0  0.43 0.06 0  0.44 0.06 0  0.45 0.06 0  0.46 0.06 0  0.47 0.06 0  0.48 0.06 0  0.49 0.06 0  0.5 0.06 0  0.51 0.06 0  0.52 0.06 0  0.53 0.06 0  0.54 0.06 0  0.55 0.06 0  0.5600000000000001 0.06 0  0.57 0.06 0  0.58 0.06 0  0.59 0.06 0  0.6 0.06 0  0.61 0.06 0  0.62 0.06 0  0.63 0.06 0  0.64 0.06 0  0.65 0.06 0  0.66 0.06 0  0.67 0.06 0  0.68 0.06 0  0.6899999999999999 0.06 0  0.7 0.06 0  0.71 0.06 0  0.72 0.06 0  0.73 0.06 0  0.74 0.06 0  0.75 0.06 0  0.76 0.06 0  0.77 0.06 0  0.78 0.06 0  0.79 0.06 0  0.8 0.06 0  0.8100000000000001 0.06 0  0.82 0.06 0  0.83 0.06 0  0.84 0.06 0  0.85 0.06 0  0.86 0.06 0  0.87 0.06 0  0.88 0.06 0  0.89 0.06 0  0.9 0.06 0  0.91 0.06 0  0.92 0.06 0  0.93 0.06 0  0.9399999999999999 0.06 0  0.95 0.06 0  0.96 0.06 0  0.97 0.06 0  0.98 0.06 0  0.99 0.06 0  1 0.06 0  0 0.07000000000000001 0  0.01 0.07000000000000001 0  0.02 0.07000000000000001 0  0.03 0.07000000000000001 0  0.04 0.07000000000000001 0  0.05 0.07000000000000001 0  0.06 0.07000000000000001 0  0.07000000000000001 0.07000000000000001 0  0.08 0.07000000000000001 0  0.09 0.07000000000000001 0  0.1 0.07000000000000001 0  0.11 0.07000000000000001 0  0.12 0.07000000000000001 0  0.13 0.07000000000000001 0  0.14 0.07000000000000001 0  0.15 0.07000000000000001 0  0.16 0.07000000000000001 0  0.17 0.07000
[...]
<PointData  Scalars="rho_bar"> 
<DataArray  type="Float64"  Name="rho_bar"  format="ascii">9.8807620828465337e-01  9.8772790448089254e-01  9.8693813926140916e-01  9.8608523588228514e-01  9.8493048901411506e-01  9.8348701671215422e-01  9.8172389613672739e-01  9.7963460523385903e-01  9.7724827369204481e-01  9.7466278720848176e-01  9.7207001713899199e-01  9.6975232278504953e-01  9.6803473718276900e-01  9.6719540369794277e-01  9.6736582114388847e-01  9.6847463005478229e-01  9.7028799421704837e-01  9.7251290073550956e-01  9.7489100755357982e-01  9.7723977881693525e-01  9.7945381492080408e-01  9.8148669965753710e-01  9.8333085010299526e-01  9.8499786424481695e-01  9.8650604420539334e-01  9.8787568595663677e-01  9.8912875004365508e-01  9.9028654977429520e-01  9.9136304460391955e-01  9.9235447966320189e-01  9.9323618553638204e-01  9.9397500460508270e-01  9.9454527692940076e-01  9.9491745874815174e-01  9.9501931056826254e-01  9.9468433841102755e-01  9.9352170049592581e-01  9.9049397835741360e-01  9.8187564043437792e-01  9.5490771599633451e-01  8.5591583792233361e-01  5.6990265226254300e-01  2.5214230105577795e-01  9.4239715809333310e-02  3.6990560792936028e-02  1.6024648489240158e-02  7.6332013456624041e-03  3.9437410652509008e-03  2.1772097270309457e-03  1.2722064343074185e-03  7.7860970978477987e-04  4.9467323261106024e-04  3.2468287123652272e-04  2.1931654931653768e-04  1.5186646219977369e-04  1.0752344267610975e-04  7.7692809799594068e-05  5.7184543066348720e-05  4.2805549338877956e-05  3.2540175371427873e-05  2.5085411001431735e-05  1.9584731443511493e-05  1.5465070729330492e-05  1.2336442686702478e-05  9.9296814370099224e-06  8.0560950830779472e-06  6.5816614111849639e-06  5.4098276785671869e-06  4.4701905825451588e-06  3.7107029610748395e-06  3.0924633806020500e-06  2.5860333550418475e-06  2.1688986206840326e-06  1.8236502068699575e-06  1.5366914641347041e-06  1.2973084477337254e-06  1.0969810563936610e-06  9.2887811650274871e-07  7.8748263395331819e-07  6.6831359764839473e-07  5.6770394796063542e-07  4.8264269952101043e-07  4.1063979399401012e-07  3.4963652165707329e-07  2.9791638760523678e-07  2.5405099735677879e-07  2.1684357952898493e-07  1.8529512994015560e-07  1.5856603361081783e-07  1.3595390143363879e-07  1.1686850633488804e-07  1.0081784090286220e-07  8.7389503444535412e-08  7.6242336124709855e-08  6.7093787308025133e-08  5.9715427391150858e-08  5.3923831924387003e-08  4.9578703499067913e-08  4.6579378190781093e-08  4.4877762697881229e-08  4.4512850257232545e-08  9.8689031694060814e-01  9.8569274258035877e-01  9.8520548493466653e-01  9.8403510782809445e-01  9.8238513105232683e-01  9.8014922458786169e-01  9.7730850234583300e-01  9.7390875151235867e-01  9.7008515980294396e-01  9.6607702485293212e-01  9.6222395871906530e-01  9.5894292826347627e-01  9.5667260659433362e-01  9.5577244646228898e-01  9.5638603673973255e-01  9.5835527285914190e-01  9.6128745015634676e-01  9.6472486146439029e-01  9.6828107920658402e-01  9.7169587362216336e-01  9.7482826543404977e-01  9.7762628583449540e-01  9.8009153095199852e-01  9.8225116481668961e-01  9.8414053020649617e-01  9.8579572298171370e-01  9.8725043369736931e-01  9.8853600111090345e-01  9.8968033437747671e-01  9.9071261121979504e-01  9.9166507727122355e-01  9.9255478107287598e-01  9.9334476747716094e-01  9.9393256642298511e-01  9.9418525233999044e-01  9.9393366725799204e-01  9.9281501624892476e-01  9.8979044822455697e-01  9.8154336970535527e-01  9.5596541559359882e-01  8.6565033030831073e-01  6.1315391763412064e-01  2.8857916877972362e-01  1.1070599933180614e-01  4.4172769447080859e-02  1.9081284903380524e-02  9.0144017142745302e-03  4.6112660515931709e-03  2.5303442998612746e-03  1.4650990971094248e-03  8.8531777615557931e-04  5.5666806885389141e-04  3.6219895347771897e-04  2.4228083453216900e-04  1.6619395502912566e-04  1.1669782073142355e-04  8.3664237861228697e-05  6.1136700608179265e-05  4.5471855403305195e-05  3.4369421177977459e-05  2.6361620023750031e-05  2.0490272555579901e-05  1.6117862953674209e-05  1.2814387537555372e-05  1.0284760212747662e-05  8.3235899129594758e-06  6.7857861568155340e-06  5.5674883574268467e-06  4.5933034342857678e-06  3.8078227797640880e-06  3.1697806386800861e-06  2.6480995279144451e-06  2.2190952821030290e-06  1.8645192464110306e-06  1.5701668741620181e-06  1.3248734853603791e-06  1.1197864592813597e-06  9.4782413960048469e-07  8.0328165978588242e-07  6.8152985895055853e-07  5.7879263915467536e-07  4.9196752826165849e-07  4.1850065377131909e-07  3.5627434479162586e-07  3.0353262491652454e-07  2.5880904464978666e-07  2.2088196927705090e-07  1.8872732758092134e-07  1.6148886389550383e-07  1.3844743303497550e-07  1.1900234631663412e-07  1.0264986336433659e-07  8.8970707653466787e-08  7.7615369068671594e-08  6.8297288717987668e-08  6.0782180180388966e-08  5.4883425859881195e-08  5.0455672317705025e-08  4.7392551484912167e-08  4.5619688836813469e-08  4.5082116678747952e-08  9.6736539750661676e-01  9.6982902100975499e-01  9.6765629999509017e-01  9.6541413317608649e-01  9.6233869758358137e-01  9.5856928361827232e-01  9.5408141164745963e-01  9.4882741625818612e-01  9.4276797476549146e-01  9.3599915145244916e-01  9.2889225535849407e-01  9.2218615285514749e-01  9.1691793041866620e-01  9.1412132866960794e-01  9.1439912957732628e-01  9.1755307086997084e-01  9.2273961647371683e-01  9.2895632626785263e-01  9.3541737640162970e-01  9.4164415333833584e-01  9.4740980431730260e-01  9.5264801876618477e-01  9.5738734967928207e-01  9.6169872206993712e-01  9.6564317150031720e-01  9.6926553305419405e-01  9.7261522214747320e-01  9.7575902694449068e-01  9.7876535797926933e-01  9.8166253401803105e-01  9.8438348961662481e-01  9.8675371784110144e-01  9.8859906295384170e-01  9.8988634182184454e-01  9.9066987833743481e-01  9.9085117731277039e-01  9.9001763648291463e-01  9.8718948773944626e-01  9.7959013318911858e-01  9.5804052155328945e-01  8.9170051534791528e-01  7.0777163595975334e-01  4.0735526670696182e-01  1.7839859268636601e-01  7.4029943928111186e-02  3.1869262564968998e-02  1.4879146630536553e-02  7.5034486112501211e-03  3.9849095033494229e-03  2.2211566655472256e-03  1.3076754342586619e-03  8.0116045582877585e-04  5.0439504992242821e-04  3.2737249836796439e-04  2.1878466458199683e-04  1.4966350079671418e-04  1.0471072994721218e-04  7.4880062960256693e-05  5.4604285281259832e-05  4.0551704671940955e-05  3.0627067694707021e-05  2.3485305994436586e-05  1.8257944220370109e-05  1.4369246111326069e-05  1.1432365741447990e-05  9.1832808654768026e-06  7.4387590625415952e-06  6.0698156021326982e-06  4.9842987133786921e-06  4.1154150593924254e-06  3.4141097084017351e-06  2.8438719039116766e-06  2.3771894456394404e-06  1.9930806269031445e-06  1.6753612813811048e-06  1.4114243386130271e-06  1.1913454380371928e-06  1.0072434342798877e-06  8.5280689264504579e-07  7.2294653345375832e-07  6.1352802048733906e-07  5.2117516489394300e-07  4.4311320265547758e-07  3.7705664466936098e-07  3.2111001900624243e-07  2.7370065176546998e-07  2.3351640385832714e-07  1.9946391148623848e-07  1.7062743876992768e-07  1.4624224689786918e-07  1.2566762471688580e-07  1.0836904045585571e-07  9.3900269345042653e-08  8.1891485875906303e-08  7.2037459600501780e-08  6.4090286505747126e-08  5.7850981245884271e-08  5.3164387573213506e-08  4.9912984604206938e-08  4.8013833840155416e-08  4.7406230432611247e-08  9.3638829174115867e-01  9.2610100346459756e-01  9.2405878019967391e-01  9.1732965871950323e-01  9.0659993895293711e-01  8.9101590444249323e-01  8.7007743834996365e-01  8.4374866928561287e-01  8.1281530951849468e-01  7.7926706446970107e-01  7.4614964666049066e-01  7.1735000459651566e-01  6.9695405888875828e-01  6.8837887003734133e-01  6.9342108448642470e-01  7.1067003847866983e-01  7.3592861793673736e-01  7.6456129241975879e-01  7.9320231645576023e-01  8.1986848439427951e-01  8.4363879746304493e-01  8.6426741377939442e-01  8.8198052143662165e-01  8.9720055838500257e-01  9.1021493941895937e-01  9.2127454194647940e-01  9.3060937367090735e-01  9.3854966413437668e-01  9.4541242599691644e-01  9.5148747981451398e-01  9.5708731536179703e-01  9.6257936686817824e-01  9.6822407138858990e-01  9.7376461809254788e-01  9.7836236433196955e-01  9.8123209778633957e-01  9.8208461152939108e-01  9.8047192813246065e-01  9.7455992358881949e-01  9.5896492122539312e-01  9.1851380925191539e-01  8.1746640268051596e-01  6.1138077875185726e-01  3.5113658447539109e-01  1.6513478149027264e-01  7.4712953799791676e-02  3.4852415230289174e-02  1.6649608328050194e-02  8.4396165935119501e-03  4.5951583709192964e-03  2.5754810108944339e-03  1.4729900660138643e-03  8.8250809937196059e-04  5.4914957227136568e-04  3.4869431752438323e-04  2.2760884373168878e-04  1.5300316477987299e-04  1.0524902284717032e-04  7.4131500508028779e-05  5.3411136690407129e-05  3.9263062511522434e-05  2.9410758456869675e-05  2.2406521207493399e-05  1.7329518526846968e-05  1.3583753793519730e-05  1.0773470043861054e-05  8.6327925839352384e-06  6.9794359377431815e-06  5.6864278275870910e-06  4.6638899406809703e-06  3.8471812347969018e-06  3.1891317015973401e-06  2.6548187586203852e-06  2.2180390458390952e-06  1.8588837254386293e-06  1.5620414027717462e-06  1.3156118892671040e-06  1.1102460907719315e-06  9.3853310498681648e-07  7.9454781901836082e-07  6.7351798090811005e-07  5.7157203890902809e-07  4.8555216303572749e-07  4.1286680095150351e-07  3.5138288010284926e-07  2.9933396227008222e-07  2.5525607842914785e-07  2.1792955563594156e-07  1.8633968258777739e-07  1.5963828608654704e-07  1.3711845472844609e-07  1.1818993818229609e-07  1.0236190111590173e-07  8.9227048649998602e-08  7.8450477051055851e-08  6.9759217683047279e-08  6.2934576701349790e-08  5.7805301659659532e-08  5.4242583543216345e-08  5.2154022896692476e-08  5.1483563472185170e-08  6.2924209814602750e-01  6.3815320084715532e-01  6.2078398165630644e-01  5.9056251474212251e-01  5.4953278342970702e-01  5.0011620000492385e-01  4.4590469691893453e-01  3.9030600430193957e-01  3.3672314942723280e-01  2.8870044150394136e-01  2.4884976660238203e-01  2.1894373463218778e-01  2.0005365329859764e-01  1.9263965263163133e-01  1.9700410685903788e-01  2.1295115177755591e-01  2.3906260260526449e-01  2.7267526919774593e-01  3.1129628511582852e-01  3.5283690055437428e-01  3.9568275894653743e-01  4.3856008999277485e-01  4.8091586508596695e-01  5.2322661996501785e-01  5.6527262017487556e-01  6.0648643996089124e-01  6.4599028255433288e-01  6.8424109722277393e-01  7.2229572936357012e-01  7.6139340123610844e-01  8.0210700911179778e-01  8.4296433339600763e-01  8.8020480479870955e-01  9.0992761483004703e-01  9.3140914405892816e-01  9.4669523262314847e-01  9.5716620765828264e-01  9.6263247384329154e-01  9.6269902616874581e-01  9.5593350961727375e-01  9.3753036476251139e-01  8.9609294524320460e-01  8.0945625802667875e-01  6.4770252951208396e-01  4.2577267889768311e-01  2.2763982403278660e-01  1.0875157401856597e-01  5.2733039709951079e-02  2.6417663149267044e-02  1.3047726718389626e-02  6.6024948232228124e-03  3.6156392406068048e-03  2.0439719119923296e-03  1.1575730032196551e-03  6.8313049454360800e-04  4.2038096564251721e-04  2.6404826851749005e-04  1.7125313338132748e-04  1.1470071384955116e-04  7.8817155538572244e-05  5.5645706919172600e-05  4.0247817172605465e-05  2.9745327611169249e-05  2.2420968377443587e-05  1.7192853419509466e-05  1.3384750928858874e-05  1.0557866798648621e-05  8.4230603505615594e-06  6.7859260539803552e-06  5.5130291290062304e-06  4.5112031417068985e-06  3.7141923710165810e-06  3.0741151786147974e-06  2.5558108590037797e-06  2.1330837290424136e-06  1.7861486082702855e-06  1.4998681644798435e-06  1.2625277637091237e-06  1.0649609936522522e-06  8.9992695929729800e-07  7.6165423687140776e-07  6.4550661715289069e-07  5.4773299305562762e-07  4.6528070967736386e-07  3.9565031377634688e-07  3.3678815807034379e-07  2.8699721928106659e-07  2.4487414336259055e-07  2.0925228610439398e-07  1.7916278558615679e-07  1.5379839205792144e-07  1.3248806749915987e-07  1.1467406510436453e-07  9.9895190906749322e-08  8.7771573103690385e-08  7.7994895560932595e-08  7.0317338190538025e-08  6.4545819893904144e-08  6.0534441218610511e-08  5.8182176189511195e-08  5.7429187430540396e-08  1.3178109816174863e-01  1.2873302704575917e-01  1.1758128460097469e-01  1.0232091592377032e-01  8.3869388433907205e-02  6.5777161355048935e-02  5.0148312315246836e-02  3.7915338242531044e-02  2.9192394816485612e-02  2.3610525245751805e-02  2.0457644139086625e-02  1.8989761214885523e-02  1.8618608678096830e-02  1.8974403976550834e-02  1.9902881037893935e-02  2.1406625746212583e-02  2.3625120192937103e-02  2.6790734787266398e-02  3.1166446762055343e-02  3.6977740152565927e-02  4.4406164842401723e-02  5.3591507374581807e-02  6.4695156614519023e-02  7.8118245960088400e-02  9.4257640055497791e-02  1.1342594804125053e-01  1.3578609365455974e-01  1.6206653804489524e-01  1.9402051183291150e-01  2.3466298829512022e-01  2.8882619713449936e-01  3.6216053893275801e-01  4.5827501860045738e-01  5.7335938654439822e-01  6.9305995892291095e-01  7.9570424385106475e-01  8.6677231711712099e-01  9.0962250975912806e-01  9.3386588023241668e-01  9.4512218428691486e-01  9.4627065986423908e-01  9.3725389563670636e-01  9.1374361014488037e-01  8.6556386935346841e-01  7.7180938406826316e-01  6.1123198494804232e-01  4.0546860826503012e-01  2.2160031566522090e-01  1.0566898309622533e-01  5.0276400094920383e-02  2.5337768090656892e-02  1.2528258958256606e-02  6.0913367171640930e-03  3.1823909906900328e-03  1.7422765630823970e-03  9.5415493607817539e-04  5.4851893209936135e-04  3.3031510823277167e-04  2.0421180492042519e-04  1.3159677750242609e-04  8.7782085467185840e-05  6.0360748456113728e-05  4.2782384521721828e-05  3.1102663634138353e-05  2.3138106245493812e-05  1.7559879897237566e-05  1.3557591306263635e-05  1.0623940465342487e-05  8.4310878898653882e-06  6.7635847148688315e-06  5.4760364787010681e-06  4.4684623195521840e-06  3.6706670777872470e-06  3.0324755123753752e-06  2.5173880661637365e-06  2.0984319245671846e-06  1.7553748481920768e-06  1.4728318420113807e-06  1.2389602619707585e-06  1.0445371186197428e-06  8.8230702366454644e-07  7.4650881460689928e-07  6.3252989375957573e-07  5.3665012503147501e-07  4.5585007321131116e-07  3.8766390385148722e-07  3.3007081347615706e-07  2.8140497851979190e-07  2.4029176459383122e-07  2.0559159414433734e-07  1.7636033301818176e-07  1.5181411647882466e-07  1.3130415766661499e-07  1.1429404269291158e-07  1.0034418708110821e-07  8.9096056701813672e-08  8.0264240413777693e-08  7.3624248773361275e-08  6.9009658220116041e-08  6.6303961560947186e-08  6.5441143345280672e-08  1.4280019999731058e-02  1.1256959020804319e-02  1.1699406517991279e-02  1.1429805845549116e-02  1.1241405127260415e-02  1.1260879876276157e-02  1.1166066516819980e-02  1.0835873066439360e-02  1.0231565801352408e-02  9.4048685149241175e-03  8.4743244823100149e-03  7.5887823223383692e-03  6.8800150848234562e-03  6.4415573736637541e-03  6.3248948706519656e-03  6.5465739623875724e-03  7.0860058681182694e-03  7.8766116501962150e-03  8.8244843204648878e-03  9.8437306621603615e-03  1.0874603853331208e-02  1.1886827888638259e-02  1.2886575285482454e-02  1.3906529737823175e-02  1.4999123868311369e-02  1.6257845359854188e-02  1.7860970433776140e-02  2.0123399375703389e-02  2.3552136299350584e-02  2.9036302396740332e-02  3.8259512148535790e-02  5.4521260436725991e-02  8.4282068043146696e-02  1.3909931709878681e-01  2.3599745491532523e-01  3.8867460949031213e-01  5.8062014474069590e-01  7.5332074322709153e-01  8.6312807572717243e-01  9.1955797571932985e-01  9.4553995237203425e-01  9.5519104041526970e-01  9.5490174767737479e-01  9.4548307001007637e-01  9.2376253299653210e-01  8.8166438724168650e-01  8.0037844738446873e-01  6.5675912817368964e-01  4.5734399425253858e-01  2.5894256478251543e-01  1.2292422847513276e-01  5.5239962316399591e-02  2.6190016607886304e-02  1.2382381049872411e-02  5.6546290729279428e-03  2.7807766198264189e-03  1.4467802444823685e-03  7.6195536781608589e-04  4.2948930333279949e-04  2.5354505122435471e-04  1.5559085312667571e-04  1.0031763590207523e-04  6.7031937954484551e-05  4.6429790347645713e-05  3.3166009175752010e-05  2.4324965317373744e-05  1.8258307397658516e-05  1.3973882539174554e-05  1.0874563497430632e-05  8.5825107476495198e-06  6.8547555370953911e-06  5.5302405201088704e-06  4.4998475591374666e-06  3.6879572879851042e-06  3.0411071575633781e-06  2.5207724916755972e-06  2.0987168869734945e-06  1.7539096131478436e-06  1.4704585563080137e-06  1.2361975441251621e-06  1.0416978266829996e-06  8.7957400181869995e-07  7.4398484399291506e-07  6.3026934024172084e-07  5.3468050835046460e-07  4.5418579455642262e-07  3.8631541843633588e-07  3.2905032595765043e-07  2.8073038819956729e-07  2.3998893740944151e-07  2.0569629632653780e-07  1.7691960878342936e-07  1.5288741971841046e-07  1.3296528866922626e-07  1.1663236301580234e-07  1.0346698586642787e-07  9.3130922765944098e-08  8.5361955655432377e-08  7.9962515041213275e-08  7.6798728881252130e-08  7.5792790142668580e-08  2.8580630075794393e-03  3.6860278978904969e-03  3.7605171832444063e-03  3.2008214097594186e-03  2.7135614177632083e-03  2.1102363089256313e-03  1.5147994945859786e-03  1.0303656587969633e-03  6.9224462116712301e-04  5.0594166485796684e-04  4.4844460631614653e-04  4.8017574463056370e-04  5.5933330799610081e-04  6.5294808871102581e-04  7.4029544659670566e-04  8.1165794442442335e-04  8.6627356394728913e-04  9.1371498426450826e-04  9.7372105913111405e-04  1.0696556442637019e-03  1.2221850374146809e-03  1.4482402026310065e-03  1.7615129879226545e-03  2.1761745108078386e-03  2.7117548943919193e-03  3.3934017668145466e-03  4.2507759522835437e-03  5.3268258718682845e-03  6.7072103865232369e-03  8.5608314282676554e-03  1.1204464583047030e-02  1.5235455774337348e-02  2.1833520382394066e-02  3.3624949244067517e-02  5.7303711062826737e-02  1.1045016725184717e-01  2.3176364182468523e-01  4.5447191797755460e-01  7.0901477150340320e-01  8.6786734109231378e-01  9.3543184785834510e-01  9.6130540767661576e-01  9.7046302605634494e-01  9.7181745875056325e-01  9.6763871405706570e-01  9.5686132748179620e-01  9.3618173774445668e-01  8.9915588530042823e-01  8.2988077726789633e-01  7.0287631191678202e-01  5.1299238485744536e-01  3.0453837565749192e-01  1.4429100146553997e-01  5.9860772700409341e-02  2.5645648211121926e-02  1.1145023357374887e-02  4.7463042863955104e-03  2.2320093500264901e-03  1.1051142005616872e-03  5.6960603796809325e-04  3.1941964030061064e-04  1.8690342335106464e-04  1.1582651775376036e-04  7.5270645456828315e-05  5.0898309759872910e-05  3.5723688853046771e-05  2.5833330399942081e-05  1.9179819945514237e-05  1.4553861500957745e-05  1.1249642775970794e-05  8.8313117770183572e-06  7.0236540014831396e-06  5.6474381194243205e-06  4.5828694750462151e-06  3.7479449659875783e-06  3.0852802012268723e-06  2.5538927791287744e-06  2.1239765974593845e-06  1.7734812853095630e-06  1.4858437504263228e-06  1.2484502454403542e-06  1.0515712943721315e-06  8.8761682715169919e-07  7.5060636747301800e-07  6.3578368943696972e-07  5.3933684320842473e-07  4.5818906503807810e-07  3.8984127315353696e-07  3.3225517728042133e-07  2.8375919527205162e-07  2.4298105849019093e-07  2.0878983831044464e-07  1.8025594980365549e-07  1.5661456335928520e-07  1.3724185687886697e-07  1.2163130224652756e-07  1.0937986474614127e-07  1.0017219874063220e-07  9.3775505526926461e-08  9.0028000720130197e-08  8.8839468872776392e-08  7.8517457317720343e-04  6.2672111856263281e-04  4.3123130079299697e-04  4.4416902776123250e-04  5.0135151816100871e-04  5.4307692867610420e-04  6.0749187689251134e-04  6.5953783501033602e-04  6.8596443734947549e-04  6.8450584215397705e-04  6.5896660398818811e-04  6.1886697346138077e-04  5.7583118659549053e-04  5.4023321510074146e-04  5.1931820238793937e-04  5.1702741494024794e-04  5.3453474157715605e-04  5.7032734711434825e-04  6.1999357601553041e-04  6.7745724545440421e-04  7.3726870271515182e-04  7.95939996356