<?xml version="1.0"?>
<VTKFile type="UnstructuredGrid"  version="0.1"  >
<UnstructuredGrid>
<Piece  NumberOfPoints="5151" NumberOfCells="10000">
<Points>
<DataArray  type="Float64"  NumberOfComponents="3"  format="ascii">0 0 0  0.01 0 0  0.02 0 0  0.03 0 0  0.04 0 0  0.05 0 0  0.06 0 0  0.07000000000000001 0 0  0.08 0 0  0.09 0 0  0.1 0 0  0.11 0 0  0.12 0 0  0.13 0 0  0.14 0 0  0.15 0 0  0.16 0 0  0.17 0 0  0.18 0 0  0.19 0 0  0.2 0 0  0.21 0 0  0.22 0 0  0.23 0 0  0.24 0 0  0.25 0 0  0.26 0 0  0.27 0 0  0.28 0 0  0.29 0 0  0.3 0 0  0.31 0 0  0.32 0 0  0.33 0 0  0.34 0 0  0.35 0 0  0.36 0 0  0.37 0 0  0.38 0 0  0.39 0 0  0.4 0 0  0.41 0 0  0.42 0 0  0.43 0 0  0.44 0 0  0.45 0 0  0.46 0 0  0.47 0 0  0.48 0 0  0.49 0 0  0.5 0 0  0.51 0 0  0.52 0 0  0.53 0 0  0.54 0 0  0.55 0 0  0.5600000000000001 0 0  0.57 0 0  0.58 0 0  0.59 0 0  0.6 0 0  0.61 0 0  0.62 0 0  0.63 0 0  0.64 0 0  0.65 0 0  0.66 0 0  0.67 0 0  0.68 0 0  0.6899999999999999 0 0  0.7 0 0  0.71 0 0  0.72 0 0  0.73 0 0  0.74 0 0  0.75 0 0  0.76 0 0  0.77 0 0  0.78 0 0  0.79 0 0  0.8 0 0  0.8100000000000001 0 0  0.82 0 0  0.83 0 0  0.84 0 0  0.85 0 0  0.86 0 0  0.87 0 0  0.88 0 0  0.89 0 0  0.9 0 0  0.91 0 0  0.92 0 0  0.93 0 0  0.9399999999999999 0 0  0.95 0 0  0.96 0 0  0.97 0 0  0.98 0 0  0.99 0 0  1 0 0  0 0.01 0  0.01 0.01 0  0.02 0.01 0  0.03 0.01 0  0.04 0.01 0  0.05 0.01 0  0.06 0.01 0  0.07000000000000001 0.01 0  0.08 0.01 0  0.09 0.01 0  0.1 0.01 0  0.11 0.01 0  0.12 0.01 0  0.13 0.01 0  0.14 0.01 0  0.15 0.01 0  0.16 0.01 0  0.17 0.01 0  0.18 0.01 0  0.19 0.01 0  0.2 0.01 0  0.21 0.01 0  0.22 0.01 0  0.23 0.01 0  0.24 0.01 0  0.25 0.01 0  0.26 0.01 0  0.27 0.01 0  0.28 0.01 0  0.29 0.01 0  0.3 0.01 0  0.31 0.01 0  0.32 0.01 0  0.33 0.01 0  0.34 0.01 0  0.35 0.01 0  0.36 0.01 0  0.37 0.01 0  0.38 0.01 0  0.39 0.01 0  0.4 0.01 0  0.41 0.01 0  0.42 0.01 0  0.43 0.01 0  0.44 0.01 0  0.45 0.01 0  0.46 0.01 0  0.47 0.01 0  0.48 0.01 0  0.49 0.01 0  0.5 0.01 0  0.51 0.01 0  0.52 0.01 0  0.53 0.01 0  0.54 0.01 0  0.55 0.01 0  0.5600000000000001 0.01 0  0.57 0.01 0  0.58 0.01 0  0.59 0.01 0  0.6 0.01 0  0.61 0.01 0  0.62 0.01 0  0.63 0.01 0  0.64 0.01 0  0.65 0.01 0  0.66 0.01 0  0.67 0.01 0  0.68 0.01 0  0.6899999999999999 0.01 0  0.7 0.01 0  0.71 0.01 0  0.72 0.01 0  0.73 0.01 0  0.74 0.01 0  0.75 0.01 0  0.76 0.01 0  0.77 0.01 0  0.78 0.01 0  0.79 0.01 0  0.8 0.01 0  0.8100000000000001 0.01 0  0.82 0.01 0  0.83 0.01 0  0.84 0.01 0  0.85 0.01 0  0.86 0.01 0  0.87 0.01 0  0.88 0.01 0  0.89 0.01 0  0.9 0.01 0  0.91 0.01 0  0.92 0.01 0  0.93 0.01 0  0.9399999999999999 0.01 0  0.95 0.01 0  0.96 0.01 0  0.97 0.01 0  0.98 0.01 0  0.99 0.01 0  1 0.01 0  0 0.02 0  0.01 0.02 0  0.02 0.02 0  0.03 0.02 0  0.04 0.02 0  0.05 0.02 0  0.06 0.02 0  0.07000000000000001 0.02 0  0.08 0.02 0  0.09 0.02 0  0.1 0.02 0  0.11 0.02 0  0.12 0.02 0  0.13 0.02 0  0.14 0.02 0  0.15 0.02 0  0.16 0.02 0  0.17 0.02 0  0.18 0.02 0  0.19 0.02 0  0.2 0.02 0  0.21 0.02 0  0.22 0.02 0  0.23 0.02 0  0.24 0.02 0  0.25 0.02 0  0.26 0.02 0  0.27 0.02 0  0.28 0.02 0  0.29 0.02 0  0.3 0.02 0  0.31 0.02 0  0.32 0.02 0  0.33 0.02 0  0.34 0.02 0  0.35 0.02 0  0.36 0.02 0  0.37 0.02 0  0.38 0.02 0  0.39 0.02 0  0.4 0.02 0  0.41 0.02 0  0.42 0.02 0  0.43 0.02 0  0.44 0.02 0  0.45 0.02 0  0.46 0.02 0  0.47 0.02 0  0.48 0.02 0  0.49 0.02 0  0.5 0.02 0  0.51 0.02 0  0.52 0.02 0  0.53 0.02 0  0.54 0.02 0  0.55 0.02 0  0.5600000000000001 0.02 0  0.57 0.02 0  0.58 0.02 0  0.59 0.02 0  0.6 0.02 0  0.61 0.02 0  0.62 0.02 0  0.63 0.02 0  0.64 0.02 0  0.65 0.02 0  0.66 0.02 0  0.67 0.02 0  0.68 0.02 0  0.6899999999999999 0.02 0  0.7 0.02 0  0.71 0.02 0  0.72 0.02 0  0.73 0.02 0  0.74 0.02 0  0.75 0.02 0  0.76 0.02 0  0.77 0.02 0  0.78 0.02 0  0.79 0.02 0  0.8 0.02 0  0.8100000000000001 0.02 0  0.82 0.02 0  0.83 0.02 0  0.84 0.02 0  0.85 0.02 0  0.86 0.02 0  0.87 0.02 0  0.88 0.02 0  0.89 0.02 0  0.9 0.02 0  0.91 0.02 0  0.92 0.02 0  0.93 0.02 0  0.9399999999999999 0.02 0  0.95 0.02 0  0.96 0.02 0  0.97 0.02 0  0.98 0.02 0  0.99 0.02 0  1 0.02 0  0 0.03 0  0.01 0.03 0  0.02 0.03 0  0.03 0.03 0  0.04 0.03 0  0.05 0.03 0  0.06 0.03 0  0.07000000000000001 0.03 0  0.08 0.03 0  0.09 0.03 0  0.1 0.03 0  0.11 0.03 0  0.12 0.03 0  0.13 0.03 0  0.14 0.03 0  0.15 0.03 0  0.16 0.03 0  0.17 0.03 0  0.18 0.03 0  0.19 0.03 0  0.2 0.03 0  0.21 0.03 0  0.22 0.03 0  0.23 0.03 0  0.24 0.03 0  0.25 0.03 0  0.26 0.03 0  0.27 0.03 0  0.28 0.03 0  0.29 0.03 0  0.3 0.03 0  0.31 0.03 0  0.32 0.03 0  0.33 0.03 0  0.34 0.03 0  0.35 0.03 0  0.36 0.03 0  0.37 0.03 0  0.38 0.03 0  0.39 0.03 0  0.4 0.03 0  0.41 0.03 0  0.42 0.03 0  0.43 0.03 0  0.44 0.03 0  0.45 0.03 0  0.46 0.03 0  0.47 0.03 0  0.48 0.03 0  0.49 0.03 0  0.5 0.03 0  0.51 0.03 0  0.52 0.03 0  0.53 0.03 0  0.54 0.03 0  0.55 0.03 0  0.5600000000000001 0.03 0  0.57 0.03 0  0.58 0.03 0  0.59 0.03 0  0.6 0.03 0  0.61 0.03 0  0.62 0.03 0  0.63 0.03 0  0.64 0.03 0  0.65 0.03 0  0.66 0.03 0  0.67 0.03 0  0.68 0.03 0  0.6899999999999999 0.03 0  0.7 0.03 0  0.71 0.03 0  0.72 0.03 0  0.73 0.03 0  0.74 0.03 0  0.75 0.03 0  0.76 0.03 0  0.77 0.03 0  0.78 0.03 0  0.79 0.03 0  0.8 0.03 0  0.8100000000000001 0.03 0  0.82 0.03 0  0.83 0.03 0  0.84 0.03 0  0.85 0.03 0  0.86 0.03 0  0.87 0.03 0  0.88 0.03 0  0.89 0.03 0  0.9 0.03 0  0.91 0.03 0  0.92 0.03 0  0.93 0.03 0  0.9399999999999999 0.03 0  0.95 0.03 0  0.96 0.03 0  0.97 0.03 0  0.98 0.03 0  0.99 0.03 0  1 0.03 0  0 0.04 0  0.01 0.04 0  0.02 0.04 0  0.03 0.04 0  0.04 0.04 0  0.05 0.04 0  0.06 0.04 0  0.07000000000000001 0.04 0  0.08 0.04 0  0.09 0.04 0  0.1 0.04 0  0.11 0.04 0  0.12 0.04 0  0.13 0.04 0  0.14 0.04 0  0.15 0.04 0  0.16 0.04 0  0.17 0.04 0  0.18 0.04 0  0.19 0.04 0  0.2 0.04 0  0.21 0.04 0  0.22 0.04 0  0.23 0.04 0  0.24 0.04 0  0.25 0.04 0  0.26 0.04 0  0.27 0.04 0  0.28 0.04 0  0.29 0.04 0  0.3 0.04 0  0.31 0.04 0  0.32 0.04 0  0.33 0.04 0  0.34 0.04 0  0.35 0.04 0  0.36 0.04 0  0.37 0.04 0  0.38 0.04 0  0.39 0.04 0  0.4 0.04 0  0.41 0.04 0  0.42 0.04 0  0.43 0.04 0  0.44 0.04 0  0.45 0.04 0  0.46 0.04 0  0.47 0.04 0  0.48 0.04 0  0.49 0.04 0  0.5 0.04 0  0.51 0.04 0  0.52 0.04 0  0.53 0.04 0  0.54 0.04 0  0.55 0.04 0  0.5600000000000001 0.04 0  0.57 0.04 0  0.58 0.04 0  0.59 0.04 0  0.6 0.04 0  0.61 0.04 0  0.62 0.04 0  0.63 0.04 0  0.64 0.04 0  0.65 0.04 0  0.66 0.04 0  0.67 0.04 0  0.68 0.04 0  0.6899999999999999 0.04 0  0.7 0.04 0  0.71 0.04 0  0.72 0.04 0  0.73 0.04 0  0.74 0.04 0  0.75 0.04 0  0.76 0.04 0  0.77 0.04 0  0.78 0.04 0  0.79 0.04 0  0.8 0.04 0  0.8100000000000001 0.04 0  0.82 0.04 0  0.83 0.04 0  0.84 0.04 0  0.85 0.04 0  0.86 0.04 0  0.87 0.04 0  0.88 0.04 0  0.89 0.04 0  0.9 0.04 0  0.91 0.04 0  0.92 0.04 0  0.93 0.04 0  0.9399999999999999 0.04 0  0.95 0.04 0  0.96 0.04 0  0.97 0.04 0  0.98 0.04 0  0.99 0.04 0  1 0.04 0  0 0.05 0  0.01 0.05 0  0.02 0.05 0  0.03 0.05 0  0.04 0.05 0  0.05 0.05 0  0.06 0.05 0  0.07000000000000001 0.05 0  0.08 0.05 0  0.09 0.05 0  0.1 0.05 0  0.11 0.05 0  0.12 0.05 0  0.13 0.05 0  0.14 0.05 0  0.15 0.05 0  0.16 0.05 0  0.17 0.05 0  0.18 0.05 0  0.19 0.05 0  0.2 0.05 0  0.21 0.05 0  0.22 0.05 0  0.23 0.05 0  0.24 0.05 0  0.25 0.05 0  0.26 0.05 0  0.27 0.05 0  0.28 0.05 0  0.29 0.05 0  0.3 0.05 0  0.31 0.05 0  0.32 0.05 0  0.33 0.05 0  0.34 0.05 0  0.35 0.05 0  0.36 0.05 0  0.37 0.05 0  0.38 0.05 0  0.39 0.05 0  0.4 0.05 0  0.41 0.05 0  0.42 0.05 0  0.43 0.05 0  0.44 0.05 0  0.45 0.05 0  0.46 0.05 0  0.47 0.05 0  0.48 0.05 0  0.49 0.05 0  0.5 0.05 0  0.51 0.05 0  0.52 0.05 0  0.53 0.05 0  0.54 0.05 0  0.55 0.05 0  0.5600000000000001 0.05 0  0.57 0.05 0  0.58 0.05 0  0.59 0.05 0  0.6 0.05 0  0.61 0.05 0  0.62 0.05 0  0.63 0.05 0  0.64 0.05 0  0.65 0.05 0  0.66 0.05 0  0.67 0.05 0  0.68 0.05 0  0.6899999999999999 0.05 0  0.7 0.05 0  0.71 0.05 0  0.72 0.05 0  0.73 0.05 0  0.74 0.05 0  0.75 0.05 0  0.76 0.05 0  0.77 0.05 0  0.78 0.05 0  0.79 0.05 0  0.8 0.05 0  0.8100000000000001 0.05 0  0.82 0.05 0  0.83 0.05 0  0.84 0.05 0  0.85 0.05 0  0.86 0.05 0  0.87 0.05 0  0.88 0.05 0  0.89 0.05 0  0.9 0.05 0  0.91 0.05 0  0.92 0.05 0  0.93 0.05 0  0.9399999999999999 0.05 0  0.95 0.05 0  0.96 0.05 0  0.97 0.05 0  0.98 0.05 0  0.99 0.05 0  1 0.05 0  0 0.06 0  0.01 0.06 0  0.02 0.06 0  0.03 0.06 0  0.04 0.06 0  0.05 0.06 0  0.06 0.06 0  0.07000000000000001 0.06 0  0.08 0.06 0  0.09 0.06 0  0.1 0.06 0  0.11 0.06 0  0.12 0.06 0  0.13 0.06 0  0.14 0.06 0  0.15 0.06 0  0.16 0.06 0  0.17 0.06 0  0.18 0.06 0  0.19 0.06 0  0.2 0.06 0  0.21 0.06 0  0.22 0.06 0  0.23 0.06 0  0.24 0.06 0  0.25 0.06 0  0.26 0.06 0  0.27 0.06 0  0.28 0.06 0  0.29 0.06 0  0.3 0.06 0  0.31 0.06 0  0.32 0.06 0  0.33 0.06 0  0.34 0.06 0  0.35 0.06 0  0.36 0.06 0  0.37 0.06 0  0.38 0.06 0  0.39 0.06 0  0.4 0.06 0  0.41 0.06 0  0.42 0.06 0  0.43 0.06 0  0.44 0.06 0  0.45 0.06 0  0.46 0.06 0  0.47 0.06 0  0.48 0.06 0  0.49 0.06 0  0.5 0.06 0  0.51 0.06 0  0.52 0.06 0  0.53 0.06 0  0.54 0.06 0  0.55 0.06 0  0.5600000000000001 0.06 0  0.57 0.06 0  0.58 0.06 0  0.59 0.06 0  0.6 0.06 0  0.61 0.06 0  0.62 0.06 0  0.63 0.06 0  0.64 0.06 0  0.65 0.06 0  0.66 0.06 0  0.67 0.06 0  0.68 0.06 0  0.6899999999999999 0.06 0  0.7 0.06 0  0.71 0.06 0  0.72 0.06 0  0.73 0.06 0  0.74 0.06 0  0.75 0.06 0  0.76 0.06 0  0.77 0.06 0  0.78 0.06 0  0.79 0.06 0  0.8 0.06 0  0.8100000000000001 0.06 0  0.82 0.06 0  0.83 0.06 0  0.84 0.06 0  0.85 0.06 0  0.86 0.06 0  0.87 0.06 0  0.88 0.06 0  0.89 0.06 0  0.9 0.06 0  0.91 0.06 0  0.92 0.06 0  0.93 0.06 0  0.9399999999999999 0.06 0  0.95 0.06 0  0.96 0.06 0  0.97 0.06 0  0.98 0.06 0  0.99 0.06 0  1 0.06 0  0 0.07000000000000001 0  0.01 0.07000000000000001 0  0.02 0.07000000000000001 0  0.03 0.07000000000000001 0  0.04 0.07000000000000001 0  0.05 0.07000000000000001 0  0.06 0.07000000000000001 0  0.07000000000000001 0.07000000000000001 0  0.08 0.07000000000000001 0  0.09 0.07000000000000001 0  0.1 0.07000000000000001 0  0.11 0.07000000000000001 0  0.12 0.07000000000000001 0  0.13 0.07000000000000001 0  0.14 0.07000000000000001 0  0.15 0.07000000000000001 0  0.16 0.07000000000000001 0  0.17 0.07000
[...]
<PointData  Scalars="rho_bar"> 
<DataArray  type="Float64"  Name="rho_bar"  format="ascii">9.9645616718476127e-01  9.9771459857783262e-01  9.9710033755038718e-01  9.9731592576174988e-01  9.9757498677024714e-01  9.9808854693711224e-01  9.9870281596017341e-01  9.9923978455640383e-01  9.9954451634842900e-01  9.9956402727369464e-01  9.9933163927427782e-01  9.9891002861769707e-01  9.9836079742596473e-01  9.9776150188600321e-01  9.9722766223687020e-01  9.9687896261708797e-01  9.9677286127478359e-01  9.9688627571514499e-01  9.9715236084392200e-01  9.9750068027782368e-01  9.9787928923544822e-01  9.9825786368877190e-01  9.9861889681142280e-01  9.9895060974238015e-01  9.9924780243709665e-01  9.9951453876974783e-01  9.9976012831658934e-01  9.9998767084731677e-01  1.0001798332649547e+00  1.0002854608948786e+00  1.0002398679630096e+00  1.0000621221186679e+00  9.9990135294094806e-01  9.9986863887653177e-01  9.9990266144418849e-01  9.9989448776356760e-01  9.9985655372047699e-01  9.9977611662020682e-01  9.9780634873004614e-01  9.9799127398150012e-01  8.8096869104697562e-01  2.2387276103332265e-01  2.2029982082840231e-02  3.4573439320266111e-03  9.1809327977315238e-04  2.3586427700289172e-04  4.1966235267717855e-05  1.6366335902124751e-05  1.4308594511113777e-05  8.3984043962877136e-06  2.4577543211439412e-06  7.4381217177866233e-07  8.4024961216469740e-07  5.6690150185365152e-07  2.4835428261509870e-07  1.6477372051939542e-07  1.1913601551895288e-07  7.1789257688963551e-08  4.8784046469743816e-08  3.4546413182703068e-08  2.3915125411847086e-08  1.7353940635337763e-08  1.2786918667223864e-08  9.5593164781024659e-09  7.2954830723174771e-09  5.6396558913040792e-09  4.4202097847591210e-09  3.5048420313222447e-09  2.8069943958415821e-09  2.2681425043221853e-09  1.8466193101061120e-09  1.5133150668610300e-09  1.2471355823195692e-09  1.0327201209242224e-09  8.5868043197834732e-10  7.1647346933097731e-10  5.9960477361645776e-10  5.0307865459357317e-10  4.2300947461260569e-10  3.5634712122150491e-10  3.0067119153039062e-10  2.5404824875914939e-10  2.1491832599011568e-10  1.8201932308160275e-10  1.5431902943731105e-10  1.3097291150768073e-10  1.1128382262382789e-10  9.4677323472901071e-11  8.0676101024777463e-11  6.8884656737787848e-11  5.8973736365712242e-11  5.0670693293856285e-11  4.3748600486980727e-11  3.8020741976591574e-11  3.3333231847237817e-11  2.9562114789590609e-11  2.6608095234302551e-11  2.4395389205043067e-11  2.2869541018227003e-11  2.2003490194854161e-11  2.1814350421882499e-11  1.0057306675351432e+00  1.0015288978756702e+00  1.0025231464248514e+00  1.0020375366076049e+00  1.0012124937152118e+00  9.9972978811665203e-01  9.9769473782211027e-01  9.9544304002290052e-01  9.9340595067774506e-01  9.9192885126194663e-01  9.9120058850381743e-01  9.9129922609189192e-01  9.9222717440913433e-01  9.9387307015245563e-01  9.9594729946522087e-01  9.9802273600539482e-01  9.9972121318481710e-01  1.0008705640428228e+00  1.0014929852234100e+00  1.0017085252989959e+00  1.0016517544211636e+00  1.0014277311007598e+00  1.0011093737589638e+00  1.0007508339699500e+00  1.0003912449968686e+00  1.0000484300744785e+00  9.9971938785677972e-01  9.9939780129736322e-01  9.9910113716141835e-01  9.9889915965185294e-01  9.9892274584306107e-01  9.9925273181780272e-01  9.9970678654361700e-01  9.9994981926661630e-01  9.9993097976100553e-01  9.9986476352657894e-01  9.9983216071998748e-01  9.9956771727470373e-01  9.9921149206559301e-01  9.9301478782775510e-01  9.1323916489501211e-01  3.0880043335616686e-01  2.1099195638414437e-02  6.9136671010862818e-03  9.9703689123291557e-04  1.2774215051174754e-04  1.2454361983964304e-04  7.1260003331392811e-05  1.5956640863780180e-05  -2.4994894323044966e-06  7.4161854324611564e-07  3.2505604287808186e-06  1.3610708357289521e-06  2.1668171284963484e-07  3.0878548606366743e-07  2.5089174787438679e-07  1.0921405301355489e-07  7.8395002344360665e-08  5.7319221328518360e-08  3.5758678143037758e-08  2.5857885863476969e-08  1.8596642581257364e-08  1.3422839763127733e-08  1.0080162285497842e-08  7.6221681631349418e-09  5.8720796066399468e-09  4.5874423246342017e-09  3.6251178078523880e-09  2.8966678701146831e-09  2.3354048300150371e-09  1.8980507525070524e-09  1.5531096306727810e-09  1.2783077104549659e-09  1.0573973401974108e-09  8.7840097609446654e-10  7.3236402397345023e-10  6.1250266342726050e-10  5.1361404569641016e-10  4.3166394910574533e-10  3.6349030296351666e-10  3.0659286112496837e-10  2.5897416520610800e-10  2.1903034291722245e-10  1.8546053159926501e-10  1.5720688872341329e-10  1.3340102639654367e-10  1.1333035661276122e-10  9.6405372225232463e-11  8.2138762849240973e-11  7.0125414915255790e-11  6.0029817292738860e-11  5.1572816955960245e-11  4.4523513087184976e-11  3.8690610299114611e-11  3.3917932180811510e-11  3.0078382246542517e-11  2.7070940545412636e-11  2.4817194454418271e-11  2.3259729495907729e-11  2.2358463332914947e-11  2.2084498822147844e-11  9.7205160530963619e-01  9.8647522041075830e-01  9.8283838360321318e-01  9.8278741384186596e-01  9.8325864345259595e-01  9.8531466775316523e-01  9.8892261004911741e-01  9.9332880598853346e-01  9.9728080216154136e-01  9.9977413161347528e-01  1.0005128994565615e+00  9.9971614907510842e-01  9.9768971254396166e-01  9.9465063545002985e-01  9.9093239636717578e-01  9.8723760330954669e-01  9.8444374697184500e-01  9.8307236104145124e-01  9.8310807455975413e-01  9.8421084574490547e-01  9.8596067589983616e-01  9.8802323753387233e-01  9.9019035396547594e-01  9.9232798512198350e-01  9.9433629971208715e-01  9.9616088465199282e-01  9.9781729859599166e-01  9.9936132636545927e-01  1.0008070853087161e+00  1.0020277500182360e+00  1.0026759033917296e+00  1.0022872137777161e+00  1.0009338483251939e+00  9.9971124268576206e-01  9.9948822653570701e-01  9.9973609324970447e-01  9.9974033946835827e-01  9.9953776844161013e-01  9.9888424140835430e-01  9.9388145574216824e-01  9.6059314723546552e-01  5.4679824213925710e-01  6.5412424286920109e-02  1.7343954571619895e-02  6.7761290908300697e-04  1.3285359931924175e-03  2.5595224760917789e-04  -1.0460800569556561e-04  -3.5574933932188545e-05  3.7185887216349410e-05  2.6922482540586797e-05  2.4875695827563118e-07  -2.5446001354057219e-06  1.6620562316553959e-06  1.0054141857423052e-06  2.5544396403514748e-08  1.7987777282277926e-07  1.4746470350110928e-07  5.4252708165715507e-08  4.9020824434446351e-08  3.3217632922065788e-08  2.1359692812007534e-08  1.6308529596074018e-08  1.1626192632163740e-08  8.7226194382385439e-09  6.6488003724677555e-09  5.1214470833976780e-09  4.0184387480335155e-09  3.1835659661442060e-09  2.5510557198186233e-09  2.0619546462401053e-09  1.6795878997349698e-09  1.3771214028998962e-09  1.1354512035501519e-09  9.4066703661134550e-10  7.8246330419195967e-10  6.5311831159979433e-10  5.4675914112836791e-10  4.5886795701737489e-10  3.8593050146300936e-10  3.2518325592282620e-10  2.7443440506008571e-10  2.3192864570343670e-10  1.9625305017296068e-10  1.6625944193865769e-10  1.4101202775489723e-10  1.1974230317616841e-10  1.0181858363639826e-10  8.6718172619666695e-11  7.4009104621408809e-11  6.3332866820282989e-11  5.4392605800321667e-11  4.6942325925265007e-11  4.0779264877831804e-11  3.5737084762823771e-11  3.1681058507426396e-11  2.8503621616299596e-11  2.6120981336192222e-11  2.4469964022651623e-11  2.3506116434241909e-11  2.3197419725847434e-11  1.0569949214130470e+00  1.0176286351268253e+00  1.0231844167357818e+00  1.0204051581309637e+00  1.0126861325443810e+00  9.9633082761462455e-01  9.6921851203113230e-01  9.3240674263193801e-01  8.9092864988090104e-01  8.5251974351783422e-01  8.2444523165634176e-01  8.1154009442842134e-01  8.1579369060682283e-01  8.3656565100403790e-01  8.7033718498909440e-01  9.1055829776110742e-01  9.4912744552699757e-01  9.7986929017921787e-01  1.0007074357433097e+00  1.0125964713721469e+00  1.0177849632427183e+00  1.0185509496995138e+00  1.0165997431453699e+00  1.0130978066088521e+00  1.0088702283394460e+00  1.0045012168893859e+00  1.0002712365565751e+00  9.9617196112883799e-01  9.9215151455103667e-01  9.8845065650490538e-01  9.8596322611032361e-01  9.8631437346537632e-01  9.9070946077006461e-01  9.9693217304841486e-01  1.0001562945132685e+00  9.9977870624649356e-01  9.9918422339938018e-01  9.9916941116806668e-01  9.9849916855114795e-01  9.9610269331005219e-01  9.8003640547827797e-01  8.5402817446731794e-01  3.2648644357973439e-01  4.3294013855063665e-02  1.3938914430519410e-02  1.2143352765312076e-03  -6.8376752357487600e-04  6.8903660135795786e-04  5.4559428221451504e-04  4.5179711789095027e-05  -1.0184644194361392e-04  -1.5240411356037227e-05  2.5312017545112628e-05  4.3543172893245986e-06  -2.9478687079466028e-06  1.1564820737498738e-06  7.1279156305458097e-07  -5.7595509846286427e-08  1.5741862522238467e-07  8.3306913817833546e-08  3.2928478180679316e-08  3.5517779329409287e-08  2.0121435449044473e-08  1.4939506460038825e-08  1.1064704657416347e-08  8.0316375557448817e-09  6.1841394197642093e-09  4.7371459922294371e-09  3.7163447761182277e-09  2.9432847866023836e-09  2.3578557628075694e-09  1.9061227857401520e-09  1.5528547290629130e-09  1.2735175336048843e-09  1.0502722875788409e-09  8.7030543274386302e-10  7.2409262653764939e-10  6.0451590715536369e-10  5.0616077833956365e-10  4.2486349999897269e-10  3.5738400725338062e-10  3.0117408502511652e-10  2.5421186949603721e-10  2.1487832522312230e-10  1.8186935501616573e-10  1.5412543199944330e-10  1.3078314461808682e-10  1.1113361563936196e-10  9.4594754918216877e-11  8.0685357081892738e-11  6.9008388740361302e-11  5.9235167441514233e-11  5.1094336531801489e-11  4.4362269199419236e-11  3.8856060561131477e-11  3.4427286680837927e-11  3.0957599422213146e-11  2.8354540164387365e-11  2.6548819566858494e-11  2.5490910556785726e-11  2.5150990828104106e-11  5.0528013214611045e-01  5.5928675116764393e-01  5.2801186132504696e-01  4.7826469751997963e-01  4.1122540156754578e-01  3.3213072830989721e-01  2.5100706844728315e-01  1.7761895681720224e-01  1.1908678462093357e-01  7.8561177539870797e-02  5.4751433030075819e-02  4.4729982197166909e-02  4.6438548207669024e-02  5.9903209485686087e-02  8.7321339535244333e-02  1.3186604848062392e-01  1.9484362491852616e-01  2.7276289156196676e-01  3.5941152498033413e-01  4.4794797407999709e-01  5.3290467370480354e-01  6.1064094923700019e-01  6.7977531371079336e-01  7.4107481856373314e-01  7.9492824485658908e-01  8.4170048778976603e-01  8.8175591951796384e-01  9.1664233264081574e-01  9.4822152224953760e-01  9.7750549400830011e-01  1.0030408711486063e+00  1.0199529540854209e+00  1.0215051483526982e+00  1.0072364984839517e+00  9.9273897735110683e-01  9.9240922505766538e-01  9.9739266156920492e-01  9.9806192145871064e-01  9.9752000787918405e-01  9.9628724563737114e-01  9.9038162660552043e-01  9.6821447920746584e-01  8.3285459910196014e-01  3.7557751118063887e-01  5.3798083205358289e-02  1.2656416948380930e-02  1.1385660574690282e-02  1.5797546161556853e-03  -1.8554774291471537e-03  -6.2175660817429348e-04  4.6047393498287024e-04  2.9687231811617061e-04  -4.5453628336706491e-05  -3.9820286028242325e-05  1.9054930471648428e-05  4.4303926809328786e-06  -2.6356609363803697e-06  1.2522663081947450e-06  3.1943886147152424e-07  -4.1010755380988114e-08  1.4716996072944876e-07  3.2174700525326769e-08  3.1129536972805811e-08  2.3344110491013282e-08  1.3733297541687344e-08  1.1148826512110684e-08  7.7824576949754635e-09  5.9917897887549684e-09  4.5759175189129794e-09  3.5727586022535228e-09  2.8257704567815083e-09  2.2588461381176551e-09  1.8240113193414227e-09  1.4843993612810819e-09  1.2164609433171676e-09  1.0026044980753178e-09  8.3040619875920608e-10  6.9062785165003947e-10  5.7639566863435794e-10  4.8249250040395234e-10  4.0491461159050579e-10  3.4055132531231418e-10  2.8695996683535409e-10  2.4220483190360730e-10  2.0473783921079176e-10  1.7331315028207078e-10  1.4691993750785209e-10  1.2473571442213169e-10  1.0608618755431590e-10  9.0418365488582296e-11  7.7276438287376713e-11  6.6285060408871618e-11  5.7134900090718092e-11  4.9571883095842010e-11  4.3388119880129133e-11  3.8415682978980744e-11  3.4520248822399814e-11  3.1597500339741596e-11  2.9568860989829197e-11  2.8380099411793213e-11  2.7999120583945723e-11  -5.0701368148479481e-03  -4.3669652253658618e-02  -5.0162529274754883e-02  -5.1327949736298409e-02  -5.1693211786182761e-02  -4.7840567445508825e-02  -3.9799930259496505e-02  -2.9290006187201650e-02  -1.8694424595366910e-02  -9.9957060022911274e-03  -4.0950677166951086e-03  -8.8419175426246628e-04  6.7745520849226578e-05  -9.8851005213801955e-04  -4.1503520711951864e-03  -9.7090861509728284e-03  -1.7628485801852996e-02  -2.6862664721999070e-02  -3.5446722152165856e-02  -4.1249342410247219e-02  -4.2593848534411519e-02  -3.8580971183734797e-02  -2.9085777496540521e-02  -1.4175768882505806e-02  5.9334974848135871e-03  3.0855387782160761e-02  5.9940496056663128e-02  9.3436560344386299e-02  1.3379101281234018e-01  1.8637424240876171e-01  2.5977847432464757e-01  3.6539316710576863e-01  5.1427301692678340e-01  7.0255372626128587e-01  8.8215911163296346e-01  9.7488188658768715e-01  9.8593276075366831e-01  9.8900451131592215e-01  9.9503661020671885e-01  9.9521073815437711e-01  9.9458182413858809e-01  9.8946313804347819e-01  9.7493462566473998e-01  9.2464801056850754e-01  6.4839377763111383e-01  2.3248160419512390e-01  1.9857420338164809e-02  -9.4432649133583194e-04  1.0685031060399966e-02  7.4794491679211327e-03  3.4223061458370826e-04  -1.4573218626214609e-03  -1.0554064397024036e-04  3.3108698858464028e-04  1.8336576237103610e-06  -3.7605741844916290e-05  1.7592287401348099e-05  1.1606347919168986e-06  -1.5919841376358875e-06  1.2963398144916556e-06  -9.6067545312001503e-08  9.1762983752892187e-08  8.0287168361605800e-08  1.7506522363093652e-08  2.8350451177059109e-08  1.3510909753360184e-08  1.1284094811768559e-08  7.8945592789333764e-09  5.9468940576161931e-09  4.5551618902620224e-09  3.5283242632520321e-09  2.7858110956747977e-09  2.2202174395772029e-09  1.7896129874427768e-09  1.4540761130030284e-09  1.1901455553234659e-09  9.7992768247260513e-10  8.1096013994294197e-10  6.7400326681413655e-10  5.6221153606266009e-10  4.7040775223532485e-10  3.9463023091159703e-10  3.3180895653491812e-10  2.7953899993791703e-10  2.3591820324862958e-10  1.9942835258316438e-10  1.6885006714468121e-10  1.4319597698327904e-10  1.2166394662475156e-10  1.0359813129248822e-10  8.8461702303698041e-11  7.5813665426339496e-11  6.5292374604966104e-11  5.6601227818028442e-11  4.9498840369085352e-11  4.3789497201030071e-11  3.9318113181636431e-11  3.5963247897381394e-11  3.3635118973722682e-11  3.2271044508084909e-11  3.1835485472276323e-11  -3.2096555967293586e-04  1.0000637849256151e-02  1.6127050116951921e-02  1.6040015601661631e-02  1.5844848063184855e-02  1.5002053474486606e-02  1.2998722766406632e-02  1.0163242436559786e-02  7.0667324549465154e-03  4.3080688444514714e-03  2.2673696462133940e-03  1.0234861430396581e-03  4.7546979957848167e-04  5.1970265727524034e-04  1.1400830606165657e-03  2.4110141153030813e-03  4.4066815611831971e-03  7.0161453346661148e-03  9.8447071571047921e-03  1.2345227542996098e-02  1.4019130459916172e-02  1.4542657637177780e-02  1.3817550446126755e-02  1.1890016867253814e-02  8.8614724251677695e-03  4.8857603423716218e-03  2.1010330801347790e-04  -4.9003548218534820e-03  -1.0367489338209510e-02  -1.6314960165000936e-02  -2.2702682068026968e-02  -2.8159712589404792e-02  -2.6690561606510010e-02  1.3403108695868805e-03  1.0845648880443934e-01  3.7269444678929631e-01  7.3871342455128153e-01  9.4419415702469001e-01  9.7796849652742612e-01  9.9249463988307618e-01  9.9503238770299229e-01  9.9560772109408435e-01  9.9438464283152539e-01  9.8586668785643838e-01  9.8105756367167885e-01  9.2749276850709617e-01  6.8152164258979842e-01  3.1688008575813165e-01  6.6658890626691558e-02  -1.0574059201485254e-02  -3.0139778954510360e-03  8.3193726669818138e-03  3.9919984830136708e-03  -8.5909369707269949e-04  -3.4133729850271066e-04  2.8476734711241228e-04  -1.2018794467695274e-05  -2.1428422194095282e-05  1.6321322819502550e-05  -3.1016330005301333e-06  5.6198002897141026e-07  5.4797974738306895e-07  -1.2135394178885090e-07  1.4600820439702154e-07  1.1196813485257705e-08  2.9537507373416699e-08  1.5247690303482418e-08  1.1188752130792843e-08  8.2702476323713891e-09  5.9975113589592858e-09  4.6229165882527806e-09  3.5493991749961105e-09  2.7965583863473042e-09  2.2217090050500169e-09  1.7870855608656546e-09  1.4494465768829414e-09  1.1846791277901904e-09  9.7430953231116754e-10  8.0555399965083218e-10  6.6899711597581539e-10  5.5768490378301188e-10  4.6638179160745771e-10  3.9109354629105395e-10  3.2873428086592953e-10  2.7689311656876745e-10  2.3366793623896119e-10  1.9754418669891377e-10  1.6730804958056319e-10  1.4197897755995201e-10  1.2076216439587992e-10  1.0300958439667861e-10  8.8192420698774971e-11  7.5878015417621854e-11  6.5713732873563545e-11  5.7412375469536783e-11  5.0742942137837373e-11  4.5521201787242055e-11  4.1604921417279197e-11  3.8887369745158463e-11  3.7296240385581367e-11  3.6789663338600835e-11  5.0426715207859709e-04  -1.0586552316937427e-03  -3.6152331900591440e-03  -4.3152069883963919e-03  -4.1819472850499074e-03  -4.0947533039381468e-03  -3.7275083412324442e-03  -3.0726032551338729e-03  -2.2651585397350515e-03  -1.4689645113750256e-03  -8.2171758409438226e-04  -3.8427581479131276e-04  -1.4820283039970538e-04  -8.1350502853180453e-05  -1.6597315607026083e-04  -4.1094572402168149e-04  -8.4064724089045106e-04  -1.4550499908854305e-03  -2.1851703272336245e-03  -2.8978753227419485e-03  -3.4465847317730145e-03  -3.7171818058664863e-03  -3.6526482115511348e-03  -3.2476711453654659e-03  -2.5210734257815411e-03  -1.5020422219128129e-03  -2.3821861811889266e-04  1.2074433610600088e-03  2.8065948572599288e-03  4.6169676002947128e-03  6.7714799020270498e-03  9.3882596493741043e-03  1.2262713628470871e-02  1.4294301751298462e-02  1.2707710586983861e-02  9.5522358995137873e-03  1.0078252710922590e-01  5.0474605071263146e-01  9.0906162178150163e-01  9.7904624623307268e-01  9.9463371448057403e-01  9.9709077240845401e-01  9.9754807613545626e-01  9.9781955084720297e-01  9.9512354028141881e-01  9.8692479336021799e-01  9.8831509171131371e-01  9.7006367650461223e-01  8.3225846704887063e-01  5.5328696424431278e-01  2.4401793719976869e-01  4.3139683683838012e-02  -8.8545290293680287e-03  3.4836349773061750e-03  4.8519344222126637e-03  -4.8837951545050839e-04  -1.9532682761469865e-04  2.3111333043865980e-04  -5.3019608093295704e-05  7.6914194867743773e-06  5.8049614829588584e-06  -2.6311885178417302e-06  1.4593937964763392e-06  -2.4201579350789544e-07  1.5010739066856048e-07  2.8920614169130077e-08  2.4578350372792980e-08  1.8690161020652284e-08  1.0975243330254308e-08  8.7858096670466139e-09  6.1254005476022116e-09  4.7463653732009254e-09  3.6160140857159555e-09  2.8415373195487504e-09  2.2508307449670241e-09  1.8065076099320379e-09  1.4626416498246842e-09  1.1937343374184362e-09  9.8062572317509092e-10  8.1000564063912182e-10  6.7217420755594765e-10  5.5997874289508451e-10  4.6806084509198990e-10  3.9234465473219088e-10  3.2969142089517108e-10  2.7765573055673743e-10  2.3431325950535058e-10  1.9813561010719055e-10  1.6790078557369842e-10  1.4262408336777663e-10  1.2150966315559298e-10  1.0391045369095088e-10  8.9301056540340982e-11  7.7253543263388487e-11  6.7422145717017696e-11  5.9528162062452601e-11  5.3351218585744668e-11  4.8719760227840287e-11  4.5507689759317924e-11  4.3627466847546096e-11  4.3030363651728692e-11  -9.2739675776096439e-05  2.0503068601970398e-05  6.5543632465387411e-04  1.1250490687774277e-03  1.1553651116773158e-03  1.1179119982922541e-03  1.0649297943760572e-03  9.2408536543544563e-04  7.2231223042398265e-04  5.0179003557091850e-04  3.0471602925769481e-04  1.5850969856890984e-04  6.9145941538740260e-05  2.9655943993874036e-05  3.2503188060102142e-05  7.6493643083814730e-05  1.6698987134435079e-04  3.088720389578459