<?xml version="1.0"?>
<VTKFile type="UnstructuredGrid"  version="0.1"  >
<UnstructuredGrid>
<Piece  NumberOfPoints="5151" NumberOfCells="10000">
<Points>
<DataArray  type="Float64"  NumberOfComponents="3"  format="ascii">0 0 0  0.01 0 0  0.02 0 0  0.03 0 0  0.04 0 0  0.05 0 0  0.06 0 0  0.07000000000000001 0 0  0.08 0 0  0.09 0 0  0.1 0 0  0.11 0 0  0.12 0 0  0.13 0 0  0.14 0 0  0.15 0 0  0.16 0 0  0.17 0 0  0.18 0 0  0.19 0 0  0.2 0 0  0.21 0 0  0.22 0 0  0.23 0 0  0.24 0 0  0.25 0 0  0.26 0 0  0.27 0 0  0.28 0 0  0.29 0 0  0.3 0 0  0.31 0 0  0.32 0 0  0.33 0 0  0.34 0 0  0.35 0 0  0.36 0 0  0.37 0 0  0.38 0 0  0.39 0 0  0.4 0 0  0.41 0 0  0.42 0 0  0.43 0 0  0.44 0 0  0.45 0 0  0.46 0 0  0.47 0 0  0.48 0 0  0.49 0 0  0.5 0 0  0.51 0 0  0.52 0 0  0.53 0 0  0.54 0 0  0.55 0 0  0.5600000000000001 0 0  0.57 0 0  0.58 0 0  0.59 0 0  0.6 0 0  0.61 0 0  0.62 0 0  0.63 0 0  0.64 0 0  0.65 0 0  0.66 0 0  0.67 0 0  0.68 0 0  0.6899999999999999 0 0  0.7 0 0  0.71 0 0  0.72 0 0  0.73 0 0  0.74 0 0  0.75 0 0  0.76 0 0  0.77 0 0  0.78 0 0  0.79 0 0  0.8 0 0  0.8100000000000001 0 0  0.82 0 0  0.83 0 0  0.84 0 0  0.85 0 0  0.86 0 0  0.87 0 0  0.88 0 0  0.89 0 0  0.9 0 0  0.91 0 0  0.92 0 0  0.93 0 0  0.9399999999999999 0 0  0.95 0 0  0.96 0 0  0.97 0 0  0.98 0 0  0.99 0 0  1 0 0  0 0.01 0  0.01 0.01 0  0.02 0.01 0  0.03 0.01 0  0.04 0.01 0  0.05 0.01 0  0.06 0.01 0  0.07000000000000001 0.01 0  0.08 0.01 0  0.09 0.01 0  0.1 0.01 0  0.11 0.01 0  0.12 0.01 0  0.13 0.01 0  0.14 0.01 0  0.15 0.01 0  0.16 0.01 0  0.17 0.01 0  0.18 0.01 0  0.19 0.01 0  0.2 0.01 0  0.21 0.01 0  0.22 0.01 0  0.23 0.01 0  0.24 0.01 0  0.25 0.01 0  0.26 0.01 0  0.27 0.01 0  0.28 0.01 0  0.29 0.01 0  0.3 0.01 0  0.31 0.01 0  0.32 0.01 0  0.33 0.01 0  0.34 0.01 0  0.35 0.01 0  0.36 0.01 0  0.37 0.01 0  0.38 0.01 0  0.39 0.01 0  0.4 0.01 0  0.41 0.01 0  0.42 0.01 0  0.43 0.01 0  0.44 0.01 0  0.45 0.01 0  0.46 0.01 0  0.47 0.01 0  0.48 0.01 0  0.49 0.01 0  0.5 0.01 0  0.51 0.01 0  0.52 0.01 0  0.53 0.01 0  0.54 0.01 0  0.55 0.01 0  0.5600000000000001 0.01 0  0.57 0.01 0  0.58 0.01 0  0.59 0.01 0  0.6 0.01 0  0.61 0.01 0  0.62 0.01 0  0.63 0.01 0  0.64 0.01 0  0.65 0.01 0  0.66 0.01 0  0.67 0.01 0  0.68 0.01 0  0.6899999999999999 0.01 0  0.7 0.01 0  0.71 0.01 0  0.72 0.01 0  0.73 0.01 0  0.74 0.01 0  0.75 0.01 0  0.76 0.01 0  0.77 0.01 0  0.78 0.01 0  0.79 0.01 0  0.8 0.01 0  0.8100000000000001 0.01 0  0.82 0.01 0  0.83 0.01 0  0.84 0.01 0  0.85 0.01 0  0.86 0.01 0  0.87 0.01 0  0.88 0.01 0  0.89 0.01 0  0.9 0.01 0  0.91 0.01 0  0.92 0.01 0  0.93 0.01 0  0.9399999999999999 0.01 0  0.95 0.01 0  0.96 0.01 0  0.97 0.01 0  0.98 0.01 0  0.99 0.01 0  1 0.01 0  0 0.02 0  0.01 0.02 0  0.02 0.02 0  0.03 0.02 0  0.04 0.02 0  0.05 0.02 0  0.06 0.02 0  0.07000000000000001 0.02 0  0.08 0.02 0  0.09 0.02 0  0.1 0.02 0  0.11 0.02 0  0.12 0.02 0  0.13 0.02 0  0.14 0.02 0  0.15 0.02 0  0.16 0.02 0  0.17 0.02 0  0.18 0.02 0  0.19 0.02 0  0.2 0.02 0  0.21 0.02 0  0.22 0.02 0  0.23 0.02 0  0.24 0.02 0  0.25 0.02 0  0.26 0.02 0  0.27 0.02 0  0.28 0.02 0  0.29 0.02 0  0.3 0.02 0  0.31 0.02 0  0.32 0.02 0  0.33 0.02 0  0.34 0.02 0  0.35 0.02 0  0.36 0.02 0  0.37 0.02 0  0.38 0.02 0  0.39 0.02 0  0.4 0.02 0  0.41 0.02 0  0.42 0.02 0  0.43 0.02 0  0.44 0.02 0  0.45 0.02 0  0.46 0.02 0  0.47 0.02 0  0.48 0.02 0  0.49 0.02 0  0.5 0.02 0  0.51 0.02 0  0.52 0.02 0  0.53 0.02 0  0.54 0.02 0  0.55 0.02 0  0.5600000000000001 0.02 0  0.57 0.02 0  0.58 0.02 0  0.59 0.02 0  0.6 0.02 0  0.61 0.02 0  0.62 0.02 0  0.63 0.02 0  0.64 0.02 0  0.65 0.02 0  0.66 0.02 0  0.67 0.02 0  0.68 0.02 0  0.6899999999999999 0.02 0  0.7 0.02 0  0.71 0.02 0  0.72 0.02 0  0.73 0.02 0  0.74 0.02 0  0.75 0.02 0  0.76 0.02 0  0.77 0.02 0  0.78 0.02 0  0.79 0.02 0  0.8 0.02 0  0.8100000000000001 0.02 0  0.82 0.02 0  0.83 0.02 0  0.84 0.02 0  0.85 0.02 0  0.86 0.02 0  0.87 0.02 0  0.88 0.02 0  0.89 0.02 0  0.9 0.02 0  0.91 0.02 0  0.92 0.02 0  0.93 0.02 0  0.9399999999999999 0.02 0  0.95 0.02 0  0.96 0.02 0  0.97 0.02 0  0.98 0.02 0  0.99 0.02 0  1 0.02 0  0 0.03 0  0.01 0.03 0  0.02 0.03 0  0.03 0.03 0  0.04 0.03 0  0.05 0.03 0  0.06 0.03 0  0.07000000000000001 0.03 0  0.08 0.03 0  0.09 0.03 0  0.1 0.03 0  0.11 0.03 0  0.12 0.03 0  0.13 0.03 0  0.14 0.03 0  0.15 0.03 0  0.16 0.03 0  0.17 0.03 0  0.18 0.03 0  0.19 0.03 0  0.2 0.03 0  0.21 0.03 0  0.22 0.03 0  0.23 0.03 0  0.24 0.03 0  0.25 0.03 0  0.26 0.03 0  0.27 0.03 0  0.28 0.03 0  0.29 0.03 0  0.3 0.03 0  0.31 0.03 0  0.32 0.03 0  0.33 0.03 0  0.34 0.03 0  0.35 0.03 0  0.36 0.03 0  0.37 0.03 0  0.38 0.03 0  0.39 0.03 0  0.4 0.03 0  0.41 0.03 0  0.42 0.03 0  0.43 0.03 0  0.44 0.03 0  0.45 0.03 0  0.46 0.03 0  0.47 0.03 0  0.48 0.03 0  0.49 0.03 0  0.5 0.03 0  0.51 0.03 0  0.52 0.03 0  0.53 0.03 0  0.54 0.03 0  0.55 0.03 0  0.5600000000000001 0.03 0  0.57 0.03 0  0.58 0.03 0  0.59 0.03 0  0.6 0.03 0  0.61 0.03 0  0.62 0.03 0  0.63 0.03 0  0.64 0.03 0  0.65 0.03 0  0.66 0.03 0  0.67 0.03 0  0.68 0.03 0  0.6899999999999999 0.03 0  0.7 0.03 0  0.71 0.03 0  0.72 0.03 0  0.73 0.03 0  0.74 0.03 0  0.75 0.03 0  0.76 0.03 0  0.77 0.03 0  0.78 0.03 0  0.79 0.03 0  0.8 0.03 0  0.8100000000000001 0.03 0  0.82 0.03 0  0.83 0.03 0  0.84 0.03 0  0.85 0.03 0  0.86 0.03 0  0.87 0.03 0  0.88 0.03 0  0.89 0.03 0  0.9 0.03 0  0.91 0.03 0  0.92 0.03 0  0.93 0.03 0  0.9399999999999999 0.03 0  0.95 0.03 0  0.96 0.03 0  0.97 0.03 0  0.98 0.03 0  0.99 0.03 0  1 0.03 0  0 0.04 0  0.01 0.04 0  0.02 0.04 0  0.03 0.04 0  0.04 0.04 0  0.05 0.04 0  0.06 0.04 0  0.07000000000000001 0.04 0  0.08 0.04 0  0.09 0.04 0  0.1 0.04 0  0.11 0.04 0  0.12 0.04 0  0.13 0.04 0  0.14 0.04 0  0.15 0.04 0  0.16 0.04 0  0.17 0.04 0  0.18 0.04 0  0.19 0.04 0  0.2 0.04 0  0.21 0.04 0  0.22 0.04 0  0.23 0.04 0  0.24 0.04 0  0.25 0.04 0  0.26 0.04 0  0.27 0.04 0  0.28 0.04 0  0.29 0.04 0  0.3 0.04 0  0.31 0.04 0  0.32 0.04 0  0.33 0.04 0  0.34 0.04 0  0.35 0.04 0  0.36 0.04 0  0.37 0.04 0  0.38 0.04 0  0.39 0.04 0  0.4 0.04 0  0.41 0.04 0  0.42 0.04 0  0.43 0.04 0  0.44 0.04 0  0.45 0.04 0  0.46 0.04 0  0.47 0.04 0  0.48 0.04 0  0.49 0.04 0  0.5 0.04 0  0.51 0.04 0  0.52 0.04 0  0.53 0.04 0  0.54 0.04 0  0.55 0.04 0  0.5600000000000001 0.04 0  0.57 0.04 0  0.58 0.04 0  0.59 0.04 0  0.6 0.04 0  0.61 0.04 0  0.62 0.04 0  0.63 0.04 0  0.64 0.04 0  0.65 0.04 0  0.66 0.04 0  0.67 0.04 0  0.68 0.04 0  0.6899999999999999 0.04 0  0.7 0.04 0  0.71 0.04 0  0.72 0.04 0  0.73 0.04 0  0.74 0.04 0  0.75 0.04 0  0.76 0.04 0  0.77 0.04 0  0.78 0.04 0  0.79 0.04 0  0.8 0.04 0  0.8100000000000001 0.04 0  0.82 0.04 0  0.83 0.04 0  0.84 0.04 0  0.85 0.04 0  0.86 0.04 0  0.87 0.04 0  0.88 0.04 0  0.89 0.04 0  0.9 0.04 0  0.91 0.04 0  0.92 0.04 0  0.93 0.04 0  0.9399999999999999 0.04 0  0.95 0.04 0  0.96 0.04 0  0.97 0.04 0  0.98 0.04 0  0.99 0.04 0  1 0.04 0  0 0.05 0  0.01 0.05 0  0.02 0.05 0  0.03 0.05 0  0.04 0.05 0  0.05 0.05 0  0.06 0.05 0  0.07000000000000001 0.05 0  0.08 0.05 0  0.09 0.05 0  0.1 0.05 0  0.11 0.05 0  0.12 0.05 0  0.13 0.05 0  0.14 0.05 0  0.15 0.05 0  0.16 0.05 0  0.17 0.05 0  0.18 0.05 0  0.19 0.05 0  0.2 0.05 0  0.21 0.05 0  0.22 0.05 0  0.23 0.05 0  0.24 0.05 0  0.25 0.05 0  0.26 0.05 0  0.27 0.05 0  0.28 0.05 0  0.29 0.05 0  0.3 0.05 0  0.31 0.05 0  0.32 0.05 0  0.33 0.05 0  0.34 0.05 0  0.35 0.05 0  0.36 0.05 0  0.37 0.05 0  0.38 0.05 0  0.39 0.05 0  0.4 0.05 0  0.41 0.05 0  0.42 0.05 0  0.43 0.05 0  0.44 0.05 0  0.45 0.05 0  0.46 0.05 0  0.47 0.05 0  0.48 0.05 0  0.49 0.05 0  0.5 0.05 0  0.51 0.05 0  0.52 0.05 0  0.53 0.05 0  0.54 0.05 0  0.55 0.05 0  0.5600000000000001 0.05 0  0.57 0.05 0  0.58 0.05 0  0.59 0.05 0  0.6 0.05 0  0.61 0.05 0  0.62 0.05 0  0.63 0.05 0  0.64 0.05 0  0.65 0.05 0  0.66 0.05 0  0.67 0.05 0  0.68 0.05 0  0.6899999999999999 0.05 0  0.7 0.05 0  0.71 0.05 0  0.72 0.05 0  0.73 0.05 0  0.74 0.05 0  0.75 0.05 0  0.76 0.05 0  0.77 0.05 0  0.78 0.05 0  0.79 0.05 0  0.8 0.05 0  0.8100000000000001 0.05 0  0.82 0.05 0  0.83 0.05 0  0.84 0.05 0  0.85 0.05 0  0.86 0.05 0  0.87 0.05 0  0.88 0.05 0  0.89 0.05 0  0.9 0.05 0  0.91 0.05 0  0.92 0.05 0  0.93 0.05 0  0.9399999999999999 0.05 0  0.95 0.05 0  0.96 0.05 0  0.97 0.05 0  0.98 0.05 0  0.99 0.05 0  1 0.05 0  0 0.06 0  0.01 0.06 0  0.02 0.06 0  0.03 0.06 0  0.04 0.06 0  0.05 0.06 0  0.06 0.06 0  0.07000000000000001 0.06 0  0.08 0.06 0  0.09 0.06 0  0.1 0.06 0  0.11 0.06 0  0.12 0.06 0  0.13 0.06 0  0.14 0.06 0  0.15 0.06 0  0.16 0.06 0  0.17 0.06 0  0.18 0.06 0  0.19 0.06 0  0.2 0.06 0  0.21 0.06 0  0.22 0.06 0  0.23 0.06 0  0.24 0.06 0  0.25 0.06 0  0.26 0.06 0  0.27 0.06 0  0.28 0.06 0  0.29 0.06 0  0.3 0.06 0  0.31 0.06 0  0.32 0.06 0  0.33 0.06 0  0.34 0.06 0  0.35 0.06 0  0.36 0.06 0  0.37 0.06 0  0.38 0.06 0  0.39 0.06 0  0.4 0.06 0  0.41 0.06 0  0.42 0.06 0  0.43 0.06 0  0.44 0.06 0  0.45 0.06 0  0.46 0.06 0  0.47 0.06 0  0.48 0.06 0  0.49 0.06 0  0.5 0.06 0  0.51 0.06 0  0.52 0.06 0  0.53 0.06 0  0.54 0.06 0  0.55 0.06 0  0.5600000000000001 0.06 0  0.57 0.06 0  0.58 0.06 0  0.59 0.06 0  0.6 0.06 0  0.61 0.06 0  0.62 0.06 0  0.63 0.06 0  0.64 0.06 0  0.65 0.06 0  0.66 0.06 0  0.67 0.06 0  0.68 0.06 0  0.6899999999999999 0.06 0  0.7 0.06 0  0.71 0.06 0  0.72 0.06 0  0.73 0.06 0  0.74 0.06 0  0.75 0.06 0  0.76 0.06 0  0.77 0.06 0  0.78 0.06 0  0.79 0.06 0  0.8 0.06 0  0.8100000000000001 0.06 0  0.82 0.06 0  0.83 0.06 0  0.84 0.06 0  0.85 0.06 0  0.86 0.06 0  0.87 0.06 0  0.88 0.06 0  0.89 0.06 0  0.9 0.06 0  0.91 0.06 0  0.92 0.06 0  0.93 0.06 0  0.9399999999999999 0.06 0  0.95 0.06 0  0.96 0.06 0  0.97 0.06 0  0.98 0.06 0  0.99 0.06 0  1 0.06 0  0 0.07000000000000001 0  0.01 0.07000000000000001 0  0.02 0.07000000000000001 0  0.03 0.07000000000000001 0  0.04 0.07000000000000001 0  0.05 0.07000000000000001 0  0.06 0.07000000000000001 0  0.07000000000000001 0.07000000000000001 0  0.08 0.07000000000000001 0  0.09 0.07000000000000001 0  0.1 0.07000000000000001 0  0.11 0.07000000000000001 0  0.12 0.07000000000000001 0  0.13 0.07000000000000001 0  0.14 0.07000000000000001 0  0.15 0.07000000000000001 0  0.16 0.07000000000000001 0  0.17 0.07000
[...]
<PointData  Scalars="rho_bar"> 
<DataArray  type="Float64"  Name="rho_bar"  format="ascii">9.9487622183938540e-01  9.9743185538564205e-01  9.9660905101309316e-01  9.9739261107682420e-01  9.9830605886100354e-01  9.9962061022270954e-01  1.0009848947875730e+00  1.0020940534348535e+00  1.0027351520542853e+00  1.0028325911058478e+00  1.0023930062055355e+00  1.0014692588098635e+00  1.0001893664914858e+00  9.9880425633766223e-01  9.9764799334757048e-01  9.9697341661622030e-01  9.9681911136040791e-01  9.9705207205263724e-01  9.9749777002189188e-01  9.9802094283258358e-01  9.9854484848172620e-01  9.9903686904147804e-01  9.9948291684477142e-01  9.9987362670695190e-01  1.0002047278964203e+00  1.0004793692406861e+00  1.0007021912112433e+00  1.0008631196592637e+00  1.0009224694353238e+00  1.0008096756539995e+00  1.0004836489255859e+00  1.0000813404349038e+00  9.9987646432627997e-01  9.9992311007450807e-01  1.0000143328414051e+00  9.9997726786580854e-01  9.9999999775361559e-01  1.0008366748984012e+00  9.9229624372198433e-01  1.0385070099760887e+00  7.5449138153193762e-01  3.1800793750393908e-02  6.8305601248862952e-04  6.9691486607241070e-04  -1.8454105614126951e-05  2.6353856565547997e-05  -5.8276653886167112e-05  2.0384746263186836e-06  1.1118664018887814e-05  3.1126367670395261e-06  -2.0129768430996462e-06  -7.5833723972365835e-07  4.2135161891210307e-07  8.1220259922189620e-08  -8.7868730564693894e-08  1.1062901822068841e-08  1.0981299225819060e-08  -5.6509564420816082e-09  7.5753032311611112e-10  5.9190714708623344e-10  -3.4872602979018552e-10  1.2016952864834398e-10  6.5077595754221435e-12  -6.0397106237183461e-12  1.2383118967185783e-11  9.1347525056122260e-13  3.2172344561337047e-12  2.0050491495287810e-12  1.5037015326696687e-12  1.2627195865030533e-12  9.5985462503580448e-13  7.8734611572275933e-13  6.3214002911624246e-13  5.1719836952952163e-13  4.2429388172912995e-13  3.5026483825478931e-13  2.9044592844071204e-13  2.4177605183961086e-13  2.0191882471049816e-13  1.6911617487127828e-13  1.4196138683669326e-13  1.1943058055382307e-13  1.0062180029748776e-13  8.4959217028888219e-14  7.1827211925387458e-14  6.0776672523939212e-14  5.1521707156351310e-14  4.3721160408303078e-14  3.7198879132971380e-14  3.1702405472726181e-14  2.7078614905659727e-14  2.3237586995197941e-14  2.0038058307124526e-14  1.7391612374963472e-14  1.5217847029547464e-14  1.3478552771146567e-14  1.2121033628922233e-14  1.1107087512582107e-14  1.0391369549011833e-14  1.0009679416206280e-14  9.9306825679414866e-15  1.0126572981650739e+00  1.0048503361486032e+00  1.0065478957650258e+00  1.0055718550193797e+00  1.0040407855352316e+00  1.0016248013661424e+00  9.9874593804991718e-01  9.9605430653439075e-01  9.9411508919587066e-01  9.9323370480124562e-01  9.9349411941265087e-01  9.9486180433473925e-01  9.9717690440833295e-01  1.0000535671053474e+00  1.0028477676303769e+00  1.0048881549703368e+00  1.0058479196857244e+00  1.0058460882084785e+00  1.0052200283475323e+00  1.0042937850682192e+00  1.0032846251667213e+00  1.0023002063363273e+00  1.0013853393238885e+00  1.0005655065535544e+00  9.9985757040922851e-01  9.9926412948966359e-01  9.9877539447725594e-01  9.9839237384693891e-01  9.9816294638152425e-01  9.9819936369455631e-01  9.9864192501428262e-01  9.9944067240633561e-01  1.0001185310236351e+00  1.0002359472588798e+00  1.0000366938632010e+00  9.9995659009675020e-01  1.0000852044807942e+00  9.9946430597880487e-01  1.0016703056830127e+00  9.9870167647782182e-01  8.8477717239670994e-01  4.7399833051414965e-02  8.6743254565096080e-03  -6.4111833925762415e-04  2.8922433405689645e-05  -1.3732427689069253e-04  1.2777683702925840e-04  3.9364889122635940e-05  -2.0206013484338943e-05  -1.5200787653568658e-05  1.4959075246888120e-06  3.4390354171826157e-06  -3.3692635005640994e-07  -5.7427953669728985e-07  1.7076778302288375e-07  5.0176211525115802e-08  -4.3090083219562005e-08  8.4419454320613662e-09  3.2104247403761436e-09  -2.6182878417403507e-09  8.4292935283094355e-10  -2.3226777200483000e-11  -8.1380313874913756e-11  6.2077254657854891e-11  -1.3546321234112116e-11  7.4445647126893891e-12  2.8664593995208342e-12  1.6148411917216016e-12  1.8883611180061646e-12  1.1641061831337978e-12  1.0374590948434574e-12  7.9644200145425080e-13  6.5259469512611505e-13  5.2985107386170984e-13  4.3471167759839517e-13  3.5848294265807013e-13  2.9697024283987659e-13  2.4702919277606011e-13  2.0617442729267341e-13  1.7259231231517814e-13  1.4484586068826809e-13  1.2179041646843755e-13  1.0259879915671398e-13  8.6577907581099984e-14  7.3152389369168313e-14  6.1923823590438787e-14  5.2464668466494894e-14  4.4554569649811216e-14  3.7878185237999004e-14  3.2262284348871683e-14  2.7572497092702912e-14  2.3644267029636648e-14  2.0381070469802597e-14  1.7700112033381209e-14  1.5488153345067844e-14  1.3727408168868862e-14  1.2343010660175561e-14  1.1295518116568085e-14  1.0570051046330313e-14  1.0176452757954200e-14  1.0043863592934674e-14  9.5455740420505952e-01  9.8114261387601409e-01  9.7595706715795671e-01  9.7771051429028799e-01  9.8121354114939796e-01  9.8788926301419200e-01  9.9690893311625517e-01  1.0063168222996197e+00  1.0139123545210400e+00  1.0182726211924786e+00  1.0189433060815973e+00  1.0159904701170097e+00  1.0097477173411229e+00  1.0010304060179216e+00  9.9151626335034337e-01  9.8353767404348147e-01  9.7889840676950701e-01  9.7786062842638610e-01  9.7949182649172406e-01  9.8259553111845466e-01  9.8623576346605246e-01  9.8988125603749755e-01  9.9330994985236531e-01  9.9642191637800659e-01  9.9914921290993430e-01  1.0014599486446798e+00  1.0033751445156287e+00  1.0049283683030623e+00  1.0060522762594371e+00  1.0064667040741087e+00  1.0057024098956782e+00  1.0034373506862280e+00  1.0005348369900617e+00  9.9907315879591774e-01  9.9951683989439810e-01  1.0000943690798538e+00  1.0000042490310268e+00  9.9999532056176776e-01  1.0002967749424609e+00  9.9512070812135001e-01  9.9483073639572839e-01  3.0479923701604333e-01  -4.7459500306728250e-03  2.2003488678475585e-03  -3.6768774092962094e-04  1.1029304119882866e-03  -3.2508824816211202e-04  -2.8838049212722436e-04  6.6287386008575921e-06  7.8995732903840832e-05  1.7270718052196789e-05  -1.5362303514186677e-05  -3.5676548071490835e-06  3.1022236162467888e-06  2.6164506109326553e-08  -5.1061744814462400e-07  1.6351034448975428e-07  1.6941208261801224e-08  -3.1616088092626042e-08  1.2245937511730431e-08  -1.4467045919237094e-09  -9.0683722757169934e-10  7.0991674685483190e-10  -2.5624719862946792e-10  6.8137009175166644e-11  7.8942606199664489e-13  -2.0343635278062347e-12  5.7842241159939286e-12  3.7274956292839030e-13  1.8830165861116067e-12  9.6479465327037329e-13  9.1086645775991411e-13  6.9909948279882554e-13  5.7305532367647912e-13  4.6774121958971432e-13  3.8423024709921023e-13  3.1770969604269464e-13  2.6359522605471211e-13  2.1963584263587269e-13  1.8355728068947628e-13  1.5381958434861833e-13  1.2920262748372171e-13  1.0872457614256597e-13  9.1680453152093412e-14  7.7402759852526378e-14  6.5461740154846664e-14  5.5454006681662475e-14  4.7041061824457382e-14  3.9977332336846167e-14  3.4060266632493797e-14  2.9094826916615497e-14  2.4951170447724417e-14  2.1492314455303698e-14  1.8640394157213650e-14  1.6308907254553628e-14  1.4451367437902675e-14  1.2995700913157644e-14  1.1889887974713819e-14  1.1127314566837456e-14  1.0677375386488498e-14  1.0536505466195828e-14  1.1355988084732453e+00  1.0680150410380684e+00  1.0774271887066500e+00  1.0739580001592037e+00  1.0626037191673465e+00  1.0384937228391946e+00  1.0010701236455908e+00  9.5555794740508393e-01  9.1114743178406710e-01  8.7740048274199711e-01  8.6081122093728646e-01  8.6418350240943820e-01  8.8708802904336215e-01  9.2583515537004624e-01  9.7301196861496408e-01  1.0181218545799291e+00  1.0512162687380635e+00  1.0680349855498144e+00  1.0707999339675693e+00  1.0644274794922632e+00  1.0535036860769218e+00  1.0411144045320313e+00  1.0287940690124040e+00  1.0172118193193547e+00  1.0067669100662291e+00  9.9771336480514516e-01  9.9011564341675473e-01  9.8385424696198776e-01  9.7894646003001906e-01  9.7600565816407403e-01  9.7649320327976885e-01  9.8212179751091788e-01  9.9263088991616866e-01  1.0018749740235786e+00  1.0031221032169257e+00  1.0002093998843486e+00  9.9958496632022853e-01  1.0000848058977341e+00  9.9967670335761805e-01  1.0000034848127477e+00  9.9679184556145795e-01  8.4006724952522616e-01  9.7529598533864129e-02  4.7011697479494297e-03  7.4150492256504505e-03  -5.1863130135459366e-03  -2.5363427618626546e-04  1.4689721671722288e-03  4.2890433781390459e-04  -2.7390760021794440e-04  -1.8709983686598179e-04  3.4069837694354654e-05  3.9669763929913518e-05  -9.0209716332842960e-06  -5.1023279854959637e-06  2.7744703012967195e-06  -1.1308767035321772e-07  -3.7721541858728340e-07  1.8050706683334846e-07  -3.0454967833259751e-08  -9.8677945104196700e-09  9.3905186086352328e-09  -3.7804054728569839e-09  9.5110079120188946e-10  -6.3741693625207269e-11  -6.3125721106821314e-11  5.1750445747391909e-11  -1.7481569726307237e-11  9.0319353600479787e-12  -3.0511612619170675e-13  1.7514261182667962e-12  9.2005308169860196e-13  8.1352530260528731e-13  6.5055068972524801e-13  5.2371581350129630e-13  4.3130730498607334e-13  3.5354773829458564e-13  2.9287689849362760e-13  2.4307182588629675e-13  2.0266101025267467e-13  1.6946181797693914e-13  1.4206985807960100e-13  1.1937739396405379e-13  1.0050815173563722e-13  8.4756023032698158e-14  7.1619095495880029e-14  6.0590756076358706e-14  5.1366650692820343e-14  4.3619893672784909e-14  3.7143233625999724e-14  3.1694750147924848e-14  2.7147627340864788e-14  2.3392700868867846e-14  2.0270640518509753e-14  1.7752508611271216e-14  1.5691266167057569e-14  1.4092001223898722e-14  1.2899732060416613e-14  1.2077539275914472e-14  1.1584343800426450e-14  1.1432655542694582e-14  3.4470238489162924e-01  4.3103365129665044e-01  3.9429896598005265e-01  3.3496443169231171e-01  2.5888996698426386e-01  1.7563811283789485e-01  9.8708786411481272e-02  3.6880084122604254e-02  -6.2592168738224273e-03  -3.1349450143514042e-02  -4.2293120410798725e-02  -4.2507541174647084e-02  -3.2612083661952666e-02  -1.0031817407573956e-02  3.0344171819259767e-02  9.3760203468235187e-02  1.8174903545130208e-01  2.8876118864646150e-01  4.0508468285000743e-01  5.2005446641174735e-01  6.2564688428245696e-01  7.1763904028450209e-01  7.9563465590122151e-01  8.6178327641710850e-01  9.1766360421521154e-01  9.6437544940006437e-01  1.0026624689510488e+00  1.0337523449095172e+00  1.0587193230148402e+00  1.0770543164196138e+00  1.0850908204995040e+00  1.0764112460935609e+00  1.0468217138185194e+00  1.0060416316299230e+00  9.8544034993056484e-01  9.9405348727540721e-01  1.0016567844018294e+00  9.9983754454319451e-01  9.9960252163848029e-01  9.9995040978544303e-01  9.9567376202783819e-01  1.0017912760127592e+00  8.3621563480192018e-01  1.8183027756409659e-01  -3.7477826028674950e-02  1.6767037061002250e-02  9.5608164754514557e-03  -4.5893986357404618e-03  -3.6805490338047407e-03  2.2015415842399839e-04  1.1034407691219001e-03  1.6516015659686826e-04  -2.2321102270416937e-04  -2.0612149679722100e-05  4.0759027424862823e-05  -6.9764359424002713e-06  -3.9488110344263873e-06  2.5869646820269479e-06  -5.6692006527334936e-07  -9.1476518855589718e-08  1.2414319496985920e-07  -5.4005276701196024e-08  1.4050707747134082e-08  -1.2772591607511664e-09  -8.8869110068914733e-10  6.7089739043571675e-10  -2.8057276195236714e-10  1.0054287857778729e-10  -2.4719321465010140e-11  8.6450213794275196e-12  3.3026671214107878e-13  1.3432658312851808e-12  9.9890722566674761e-13  7.3323940726101209e-13  6.3109897365124437e-13  4.9441561289772819e-13  4.1105154588007251e-13  3.3587536464588097e-13  2.7849187867574536e-13  2.3107920541221307e-13  1.9267417385124865e-13  1.6108663612903078e-13  1.3506496632235422e-13  1.1349722307255360e-13  9.5554698503974259e-14  8.0620912086981534e-14  6.8140278079454791e-14  5.7688361758984613e-14  4.8950751587041899e-14  4.1619713474744317e-14  3.5503351836089272e-14  3.0389635870565072e-14  2.6151513707928213e-14  2.2647437276837233e-14  1.9801649441103192e-14  1.7503156404822352e-14  1.5710935577217172e-14  1.4377408766014696e-14  1.3441148799581202e-14  1.2889502308542400e-14  1.2710664854683668e-14  -2.0774445331764403e-02  -7.5921343770903052e-02  -8.1097890797668007e-02  -7.2400284727791975e-02  -6.1099335023347703e-02  -4.5505916984158915e-02  -2.8225967358375410e-02  -1.2348947925698399e-02  6.9500421954426541e-05  8.2267951850860284e-03  1.2509122730104993e-02  1.3844660063982569e-02  1.2774704254871337e-02  9.1001543669435234e-03  1.9501946277257749e-03  -9.7427561409517537e-03  -2.6280755625357914e-02  -4.6122434009728236e-02  -6.6038146548087262e-02  -8.2282853180412049e-02  -9.1708952943583555e-02  -9.2461072813720957e-02  -8.4096918569792983e-02  -6.6845643438758817e-02  -4.1322012094597349e-02  -8.4693872151585907e-03  3.0514941013171724e-02  7.5398950348437327e-02  1.2873896406835422e-01  1.9725281541318548e-01  2.9243334685133793e-01  4.2926699340113555e-01  6.1748994333714502e-01  8.3803793139069915e-01  1.0123186926164454e+00  1.0382715473734601e+00  9.9552471530587283e-01  9.9602532299945823e-01  1.0011631684393467e+00  9.9874800799112495e-01  1.0003250833868309e+00  9.9542870571427977e-01  9.9670358514464130e-01  9.8857244276593992e-01  5.7362608115949087e-01  5.7007681053713122e-02  -5.6283316267057390e-02  2.6465170847920841e-03  1.9604363938793744e-02  5.3303523656515464e-03  -4.1365950493623847e-03  -2.3832415685990566e-03  6.7244389310700816e-04  4.5082375138108798e-04  -1.7459989589054599e-04  -2.7986328340144762e-05  3.5454720622817918e-05  -9.9987569179417272e-06  -5.0287335659041818e-07  1.6116902693244843e-06  -7.6731144492404937e-07  2.0963190406751234e-07  -2.2594437347543019e-08  -1.1633430372693316e-08  9.2035549740837809e-09  -4.0030794499008963e-09  1.3714291767109731e-09  -3.8163179405214768e-10  9.6207410247646929e-11  -1.4648486109764794e-11  3.7380093395286691e-12  2.0823381345182856e-12  7.4827957100129106e-13  1.1486733351655668e-12  6.6727588315662274e-13  6.2938698572725237e-13  4.7861711807633186e-13  4.0137442667841506e-13  3.2694289436535429e-13  2.7110985043884396e-13  2.2485841983500690e-13  1.8741174594132501e-13  1.5666340313566127e-13  1.3132390216015768e-13  1.1034750490013756e-13  9.2915067977381239e-14  7.8399704879950802e-14  6.6283318251995020e-14  5.6165853218320169e-14  4.7709638120855878e-14  4.0647321353457533e-14  3.4775088230341691e-14  2.9892483311903744e-14  2.5858421648495426e-14  2.2578666358675661e-14  1.9948102144965798e-14  1.7891259994657083e-14  1.6356415484063095e-14  1.5281022884994948e-14  1.4648961371040083e-14  1.4437981273677207e-14  -6.3657896295974379e-04  1.3838006126989063e-02  2.2461799775023789e-02  2.0867829377963752e-02  1.8094614204376538e-02  1.4468766168683072e-02  9.9305708718930366e-03  5.3850058753906714e-03  1.5370362815509146e-03  -1.2303366058887078e-03  -2.8740515975283808e-03  -3.5999514864374122e-03  -3.6280060127036801e-03  -3.0078800907617502e-03  -1.5864350866217616e-03  9.2225543422493137e-04  4.7429762268681556e-03  9.7330576138477364e-03  1.5235650012360826e-02  2.0285595269933152e-02  2.3942541367291872e-02  2.5539617955099778e-02  2.4804336007630809e-02  2.1759664470750267e-02  1.6570294808550799e-02  9.5074936991301536e-03  9.6022320030194079e-04  -8.7002634504387555e-03  -1.9466798395354177e-02  -3.1922327116512599e-02  -4.7017054285766482e-02  -6.4774206910124615e-02  -7.9459586643299204e-02  -6.5014071666672099e-02  5.7026410499540783e-02  4.1112577905098152e-01  8.7559262513523295e-01  1.0122329342193062e+00  9.8853185650838293e-01  1.0014495845804221e+00  9.9883265848160130e-01  9.9982120055194168e-01  1.0004339419107613e+00  9.8861050165355657e-01  1.0185595550881306e+00  9.9301093601913148e-01  6.3412777308450952e-01  1.6349137236159217e-01  -5.4525595915992639e-02  -4.6470301291089595e-02  5.6954067417880790e-03  1.5547656414970681e-02  1.1068872279191985e-03  -3.1126979173947420e-03  1.6336365998650677e-04  4.4378001988701110e-04  -1.6979797561997328e-04  6.1879850345373675e-06  2.0281190378972340e-05  -1.0873684018296957e-05  3.1409895597960467e-06  -3.8740972136988726e-07  -1.4892808446086240e-07  1.2728519295068485e-07  -5.6421303014544165e-08  1.9257723701274592e-08  -5.4410708138842398e-09  1.3065856388238670e-09  -2.3744484774236686e-10  2.7388347131189434e-11  1.0320362751119097e-11  -4.2041062609814473e-12  4.4555469790153057e-12  7.6436974136060901e-14  1.3286344882848356e-12  6.1757249926776218e-13  6.3675171083511673e-13  4.7304435013450667e-13  3.9845198426155430e-13  3.2406345648607086e-13  2.6852484476583204e-13  2.2260757392740447e-13  1.8545156472762326e-13  1.5496419044924547e-13  1.2986689950982125e-13  1.0910380713307473e-13  9.1876550073108711e-14  7.7545380771170245e-14  6.5607804085583357e-14  5.5638974842984247e-14  4.7349931982332773e-14  4.0444738170723884e-14  3.4734797455943177e-14  3.0024791220365949e-14  2.6194588858091096e-14  2.3116532278169584e-14  2.0711665417300090e-14  1.8914423696330601e-14  1.7661197089733650e-14  1.6931680912823941e-14  1.6711507780374216e-14  6.5133068003037141e-04  -1.6029060255568996e-03  -5.2022983237675468e-03  -6.0000564060251615e-03  -5.2294478766505732e-03  -4.3950711209751374e-03  -3.2851127994170761e-03  -2.0383671227497185e-03  -8.9576442909266891e-04  -2.5146801841085887e-06  5.8503465171965395e-04  8.9448970365804171e-04  9.9058410481988961e-04  9.1313451707563612e-04  6.4757432094727976e-04  1.3078228370815901e-04  -7.1457996387034727e-04  -1.9081222591203018e-03  -3.3415989302016226e-03  -4.7876226919917695e-03  -5.9806104088346683e-03  -6.6986500637964434e-03  -6.8154923508500949e-03  -6.3024918842639801e-03  -5.1878449802696940e-03  -3.5292763164398583e-03  -1.4158097798345837e-03  1.0434578435044555e-03  3.7898848480140837e-03  6.9072236543853936e-03  1.0633096369613088e-02  1.5247432444699238e-02  2.0383135910377888e-02  2.3165978630640970e-02  1.3976621785424448e-02  -2.9889983641937467e-02  1.7357951077458370e-02  5.7304805310120865e-01  1.0050377282389509e+00  9.9027177898833230e-01  1.0005500121204716e+00  9.9972633257758803e-01  9.9926316210016319e-01  1.0015264573176776e+00  9.9824083540829545e-01  9.8604647635251452e-01  1.0169792079522575e+00  1.0417757752800447e+00  8.6470310170519826e-01  4.8346989878844149e-01  1.0934095607387517e-01  -5.5048354839491338e-02  -2.7890805676562248e-02  1.2367859785753358e-02  4.2354065627366036e-03  -2.7651348989883346e-03  3.2252873832460359e-04  2.4112620436750096e-04  -1.5366003221984427e-04  4.7299057926498426e-05  -6.5470702452384194e-06  -1.8685388674528959e-06  1.7637208063342636e-06  -7.9492417915655355e-07  2.7178505536454766e-07  -7.6863507355556960e-08  1.8259048744782853e-08  -3.3793318197805151e-09  3.3297825917414058e-10  1.1228295125760675e-10  -8.3297863965883951e-11  4.3256965209200491e-11  -1.3476824835447587e-11  7.0125846453365563e-12  -5.5494458932712664e-13  1.4905008591583735e-12  5.9419886870068227e-13  6.4505121327089210e-13  4.7620791767473806e-13  3.9980538587187632e-13  3.2554521701128329e-13  2.6919639660269652e-13  2.2316542002414832e-13  1.8577821025221322e-13  1.5519897482433204e-13  1.3002093495345599e-13  1.0922575684437600e-13  9.2000449281723321e-14  7.7692460839806294e-14  6.5784668406248438e-14  5.5891937589823985e-14  4.7684806556672261e-14  4.0887754761683477e-14  3.5297400797626689e-14  3.0758331467989476e-14  2.7117875767184475e-14  2.4269153122088340e-14  2.2136816427017063e-14  2.0661077570356335e-14  1.9816556854799727e-14  1.9521420535841704e-14  -1.3524441049661963e-04  3.8489832009663920e-05  9.4340363628699195e-04  1.5873959678978785e-03  1.5271461209241492e-03  1.2922165936966959e-03  1.0373567011482841e-03  7.1369216599115575e-04  3.8680764580349220e-04  1.1073899607765667e-04  -8.8043346710905507e-05  -2.0644484284813007e-04  -2.5883861870289215e-04  -2.6086769322962488e-04  -2.1628632573084941e