<?xml version="1.0"?>
<VTKFile type="UnstructuredGrid"  version="0.1"  >
<UnstructuredGrid>
<Piece  NumberOfPoints="5151" NumberOfCells="10000">
<Points>
<DataArray  type="Float64"  NumberOfComponents="3"  format="ascii">0 0 0  0.01 0 0  0.02 0 0  0.03 0 0  0.04 0 0  0.05 0 0  0.06 0 0  0.07000000000000001 0 0  0.08 0 0  0.09 0 0  0.1 0 0  0.11 0 0  0.12 0 0  0.13 0 0  0.14 0 0  0.15 0 0  0.16 0 0  0.17 0 0  0.18 0 0  0.19 0 0  0.2 0 0  0.21 0 0  0.22 0 0  0.23 0 0  0.24 0 0  0.25 0 0  0.26 0 0  0.27 0 0  0.28 0 0  0.29 0 0  0.3 0 0  0.31 0 0  0.32 0 0  0.33 0 0  0.34 0 0  0.35 0 0  0.36 0 0  0.37 0 0  0.38 0 0  0.39 0 0  0.4 0 0  0.41 0 0  0.42 0 0  0.43 0 0  0.44 0 0  0.45 0 0  0.46 0 0  0.47 0 0  0.48 0 0  0.49 0 0  0.5 0 0  0.51 0 0  0.52 0 0  0.53 0 0  0.54 0 0  0.55 0 0  0.5600000000000001 0 0  0.57 0 0  0.58 0 0  0.59 0 0  0.6 0 0  0.61 0 0  0.62 0 0  0.63 0 0  0.64 0 0  0.65 0 0  0.66 0 0  0.67 0 0  0.68 0 0  0.6899999999999999 0 0  0.7 0 0  0.71 0 0  0.72 0 0  0.73 0 0  0.74 0 0  0.75 0 0  0.76 0 0  0.77 0 0  0.78 0 0  0.79 0 0  0.8 0 0  0.8100000000000001 0 0  0.82 0 0  0.83 0 0  0.84 0 0  0.85 0 0  0.86 0 0  0.87 0 0  0.88 0 0  0.89 0 0  0.9 0 0  0.91 0 0  0.92 0 0  0.93 0 0  0.9399999999999999 0 0  0.95 0 0  0.96 0 0  0.97 0 0  0.98 0 0  0.99 0 0  1 0 0  0 0.01 0  0.01 0.01 0  0.02 0.01 0  0.03 0.01 0  0.04 0.01 0  0.05 0.01 0  0.06 0.01 0  0.07000000000000001 0.01 0  0.08 0.01 0  0.09 0.01 0  0.1 0.01 0  0.11 0.01 0  0.12 0.01 0  0.13 0.01 0  0.14 0.01 0  0.15 0.01 0  0.16 0.01 0  0.17 0.01 0  0.18 0.01 0  0.19 0.01 0  0.2 0.01 0  0.21 0.01 0  0.22 0.01 0  0.23 0.01 0  0.24 0.01 0  0.25 0.01 0  0.26 0.01 0  0.27 0.01 0  0.28 0.01 0  0.29 0.01 0  0.3 0.01 0  0.31 0.01 0  0.32 0.01 0  0.33 0.01 0  0.34 0.01 0  0.35 0.01 0  0.36 0.01 0  0.37 0.01 0  0.38 0.01 0  0.39 0.01 0  0.4 0.01 0  0.41 0.01 0  0.42 0.01 0  0.43 0.01 0  0.44 0.01 0  0.45 0.01 0  0.46 0.01 0  0.47 0.01 0  0.48 0.01 0  0.49 0.01 0  0.5 0.01 0  0.51 0.01 0  0.52 0.01 0  0.53 0.01 0  0.54 0.01 0  0.55 0.01 0  0.5600000000000001 0.01 0  0.57 0.01 0  0.58 0.01 0  0.59 0.01 0  0.6 0.01 0  0.61 0.01 0  0.62 0.01 0  0.63 0.01 0  0.64 0.01 0  0.65 0.01 0  0.66 0.01 0  0.67 0.01 0  0.68 0.01 0  0.6899999999999999 0.01 0  0.7 0.01 0  0.71 0.01 0  0.72 0.01 0  0.73 0.01 0  0.74 0.01 0  0.75 0.01 0  0.76 0.01 0  0.77 0.01 0  0.78 0.01 0  0.79 0.01 0  0.8 0.01 0  0.8100000000000001 0.01 0  0.82 0.01 0  0.83 0.01 0  0.84 0.01 0  0.85 0.01 0  0.86 0.01 0  0.87 0.01 0  0.88 0.01 0  0.89 0.01 0  0.9 0.01 0  0.91 0.01 0  0.92 0.01 0  0.93 0.01 0  0.9399999999999999 0.01 0  0.95 0.01 0  0.96 0.01 0  0.97 0.01 0  0.98 0.01 0  0.99 0.01 0  1 0.01 0  0 0.02 0  0.01 0.02 0  0.02 0.02 0  0.03 0.02 0  0.04 0.02 0  0.05 0.02 0  0.06 0.02 0  0.07000000000000001 0.02 0  0.08 0.02 0  0.09 0.02 0  0.1 0.02 0  0.11 0.02 0  0.12 0.02 0  0.13 0.02 0  0.14 0.02 0  0.15 0.02 0  0.16 0.02 0  0.17 0.02 0  0.18 0.02 0  0.19 0.02 0  0.2 0.02 0  0.21 0.02 0  0.22 0.02 0  0.23 0.02 0  0.24 0.02 0  0.25 0.02 0  0.26 0.02 0  0.27 0.02 0  0.28 0.02 0  0.29 0.02 0  0.3 0.02 0  0.31 0.02 0  0.32 0.02 0  0.33 0.02 0  0.34 0.02 0  0.35 0.02 0  0.36 0.02 0  0.37 0.02 0  0.38 0.02 0  0.39 0.02 0  0.4 0.02 0  0.41 0.02 0  0.42 0.02 0  0.43 0.02 0  0.44 0.02 0  0.45 0.02 0  0.46 0.02 0  0.47 0.02 0  0.48 0.02 0  0.49 0.02 0  0.5 0.02 0  0.51 0.02 0  0.52 0.02 0  0.53 0.02 0  0.54 0.02 0  0.55 0.02 0  0.5600000000000001 0.02 0  0.57 0.02 0  0.58 0.02 0  0.59 0.02 0  0.6 0.02 0  0.61 0.02 0  0.62 0.02 0  0.63 0.02 0  0.64 0.02 0  0.65 0.02 0  0.66 0.02 0  0.67 0.02 0  0.68 0.02 0  0.6899999999999999 0.02 0  0.7 0.02 0  0.71 0.02 0  0.72 0.02 0  0.73 0.02 0  0.74 0.02 0  0.75 0.02 0  0.76 0.02 0  0.77 0.02 0  0.78 0.02 0  0.79 0.02 0  0.8 0.02 0  0.8100000000000001 0.02 0  0.82 0.02 0  0.83 0.02 0  0.84 0.02 0  0.85 0.02 0  0.86 0.02 0  0.87 0.02 0  0.88 0.02 0  0.89 0.02 0  0.9 0.02 0  0.91 0.02 0  0.92 0.02 0  0.93 0.02 0  0.9399999999999999 0.02 0  0.95 0.02 0  0.96 0.02 0  0.97 0.02 0  0.98 0.02 0  0.99 0.02 0  1 0.02 0  0 0.03 0  0.01 0.03 0  0.02 0.03 0  0.03 0.03 0  0.04 0.03 0  0.05 0.03 0  0.06 0.03 0  0.07000000000000001 0.03 0  0.08 0.03 0  0.09 0.03 0  0.1 0.03 0  0.11 0.03 0  0.12 0.03 0  0.13 0.03 0  0.14 0.03 0  0.15 0.03 0  0.16 0.03 0  0.17 0.03 0  0.18 0.03 0  0.19 0.03 0  0.2 0.03 0  0.21 0.03 0  0.22 0.03 0  0.23 0.03 0  0.24 0.03 0  0.25 0.03 0  0.26 0.03 0  0.27 0.03 0  0.28 0.03 0  0.29 0.03 0  0.3 0.03 0  0.31 0.03 0  0.32 0.03 0  0.33 0.03 0  0.34 0.03 0  0.35 0.03 0  0.36 0.03 0  0.37 0.03 0  0.38 0.03 0  0.39 0.03 0  0.4 0.03 0  0.41 0.03 0  0.42 0.03 0  0.43 0.03 0  0.44 0.03 0  0.45 0.03 0  0.46 0.03 0  0.47 0.03 0  0.48 0.03 0  0.49 0.03 0  0.5 0.03 0  0.51 0.03 0  0.52 0.03 0  0.53 0.03 0  0.54 0.03 0  0.55 0.03 0  0.5600000000000001 0.03 0  0.57 0.03 0  0.58 0.03 0  0.59 0.03 0  0.6 0.03 0  0.61 0.03 0  0.62 0.03 0  0.63 0.03 0  0.64 0.03 0  0.65 0.03 0  0.66 0.03 0  0.67 0.03 0  0.68 0.03 0  0.6899999999999999 0.03 0  0.7 0.03 0  0.71 0.03 0  0.72 0.03 0  0.73 0.03 0  0.74 0.03 0  0.75 0.03 0  0.76 0.03 0  0.77 0.03 0  0.78 0.03 0  0.79 0.03 0  0.8 0.03 0  0.8100000000000001 0.03 0  0.82 0.03 0  0.83 0.03 0  0.84 0.03 0  0.85 0.03 0  0.86 0.03 0  0.87 0.03 0  0.88 0.03 0  0.89 0.03 0  0.9 0.03 0  0.91 0.03 0  0.92 0.03 0  0.93 0.03 0  0.9399999999999999 0.03 0  0.95 0.03 0  0.96 0.03 0  0.97 0.03 0  0.98 0.03 0  0.99 0.03 0  1 0.03 0  0 0.04 0  0.01 0.04 0  0.02 0.04 0  0.03 0.04 0  0.04 0.04 0  0.05 0.04 0  0.06 0.04 0  0.07000000000000001 0.04 0  0.08 0.04 0  0.09 0.04 0  0.1 0.04 0  0.11 0.04 0  0.12 0.04 0  0.13 0.04 0  0.14 0.04 0  0.15 0.04 0  0.16 0.04 0  0.17 0.04 0  0.18 0.04 0  0.19 0.04 0  0.2 0.04 0  0.21 0.04 0  0.22 0.04 0  0.23 0.04 0  0.24 0.04 0  0.25 0.04 0  0.26 0.04 0  0.27 0.04 0  0.28 0.04 0  0.29 0.04 0  0.3 0.04 0  0.31 0.04 0  0.32 0.04 0  0.33 0.04 0  0.34 0.04 0  0.35 0.04 0  0.36 0.04 0  0.37 0.04 0  0.38 0.04 0  0.39 0.04 0  0.4 0.04 0  0.41 0.04 0  0.42 0.04 0  0.43 0.04 0  0.44 0.04 0  0.45 0.04 0  0.46 0.04 0  0.47 0.04 0  0.48 0.04 0  0.49 0.04 0  0.5 0.04 0  0.51 0.04 0  0.52 0.04 0  0.53 0.04 0  0.54 0.04 0  0.55 0.04 0  0.5600000000000001 0.04 0  0.57 0.04 0  0.58 0.04 0  0.59 0.04 0  0.6 0.04 0  0.61 0.04 0  0.62 0.04 0  0.63 0.04 0  0.64 0.04 0  0.65 0.04 0  0.66 0.04 0  0.67 0.04 0  0.68 0.04 0  0.6899999999999999 0.04 0  0.7 0.04 0  0.71 0.04 0  0.72 0.04 0  0.73 0.04 0  0.74 0.04 0  0.75 0.04 0  0.76 0.04 0  0.77 0.04 0  0.78 0.04 0  0.79 0.04 0  0.8 0.04 0  0.8100000000000001 0.04 0  0.82 0.04 0  0.83 0.04 0  0.84 0.04 0  0.85 0.04 0  0.86 0.04 0  0.87 0.04 0  0.88 0.04 0  0.89 0.04 0  0.9 0.04 0  0.91 0.04 0  0.92 0.04 0  0.93 0.04 0  0.9399999999999999 0.04 0  0.95 0.04 0  0.96 0.04 0  0.97 0.04 0  0.98 0.04 0  0.99 0.04 0  1 0.04 0  0 0.05 0  0.01 0.05 0  0.02 0.05 0  0.03 0.05 0  0.04 0.05 0  0.05 0.05 0  0.06 0.05 0  0.07000000000000001 0.05 0  0.08 0.05 0  0.09 0.05 0  0.1 0.05 0  0.11 0.05 0  0.12 0.05 0  0.13 0.05 0  0.14 0.05 0  0.15 0.05 0  0.16 0.05 0  0.17 0.05 0  0.18 0.05 0  0.19 0.05 0  0.2 0.05 0  0.21 0.05 0  0.22 0.05 0  0.23 0.05 0  0.24 0.05 0  0.25 0.05 0  0.26 0.05 0  0.27 0.05 0  0.28 0.05 0  0.29 0.05 0  0.3 0.05 0  0.31 0.05 0  0.32 0.05 0  0.33 0.05 0  0.34 0.05 0  0.35 0.05 0  0.36 0.05 0  0.37 0.05 0  0.38 0.05 0  0.39 0.05 0  0.4 0.05 0  0.41 0.05 0  0.42 0.05 0  0.43 0.05 0  0.44 0.05 0  0.45 0.05 0  0.46 0.05 0  0.47 0.05 0  0.48 0.05 0  0.49 0.05 0  0.5 0.05 0  0.51 0.05 0  0.52 0.05 0  0.53 0.05 0  0.54 0.05 0  0.55 0.05 0  0.5600000000000001 0.05 0  0.57 0.05 0  0.58 0.05 0  0.59 0.05 0  0.6 0.05 0  0.61 0.05 0  0.62 0.05 0  0.63 0.05 0  0.64 0.05 0  0.65 0.05 0  0.66 0.05 0  0.67 0.05 0  0.68 0.05 0  0.6899999999999999 0.05 0  0.7 0.05 0  0.71 0.05 0  0.72 0.05 0  0.73 0.05 0  0.74 0.05 0  0.75 0.05 0  0.76 0.05 0  0.77 0.05 0  0.78 0.05 0  0.79 0.05 0  0.8 0.05 0  0.8100000000000001 0.05 0  0.82 0.05 0  0.83 0.05 0  0.84 0.05 0  0.85 0.05 0  0.86 0.05 0  0.87 0.05 0  0.88 0.05 0  0.89 0.05 0  0.9 0.05 0  0.91 0.05 0  0.92 0.05 0  0.93 0.05 0  0.9399999999999999 0.05 0  0.95 0.05 0  0.96 0.05 0  0.97 0.05 0  0.98 0.05 0  0.99 0.05 0  1 0.05 0  0 0.06 0  0.01 0.06 0  0.02 0.06 0  0.03 0.06 0  0.04 0.06 0  0.05 0.06 0  0.06 0.06 0  0.07000000000000001 0.06 0  0.08 0.06 0  0.09 0.06 0  0.1 0.06 0  0.11 0.06 0  0.12 0.06 0  0.13 0.06 0  0.14 0.06 0  0.15 0.06 0  0.16 0.06 0  0.17 0.06 0  0.18 0.06 0  0.19 0.06 0  0.2 0.06 0  0.21 0.06 0  0.22 0.06 0  0.23 0.06 0  0.24 0.06 0  0.25 0.06 0  0.26 0.06 0  0.27 0.06 0  0.28 0.06 0  0.29 0.06 0  0.3 0.06 0  0.31 0.06 0  0.32 0.06 0  0.33 0.06 0  0.34 0.06 0  0.35 0.06 0  0.36 0.06 0  0.37 0.06 0  0.38 0.06 0  0.39 0.06 0  0.4 0.06 0  0.41 0.06 0  0.42 0.06 0  0.43 0.06 0  0.44 0.06 0  0.45 0.06 0  0.46 0.06 0  0.47 0.06 0  0.48 0.06 0  0.49 0.06 0  0.5 0.06 0  0.51 0.06 0  0.52 0.06 0  0.53 0.06 0  0.54 0.06 0  0.55 0.06 0  0.5600000000000001 0.06 0  0.57 0.06 0  0.58 0.06 0  0.59 0.06 0  0.6 0.06 0  0.61 0.06 0  0.62 0.06 0  0.63 0.06 0  0.64 0.06 0  0.65 0.06 0  0.66 0.06 0  0.67 0.06 0  0.68 0.06 0  0.6899999999999999 0.06 0  0.7 0.06 0  0.71 0.06 0  0.72 0.06 0  0.73 0.06 0  0.74 0.06 0  0.75 0.06 0  0.76 0.06 0  0.77 0.06 0  0.78 0.06 0  0.79 0.06 0  0.8 0.06 0  0.8100000000000001 0.06 0  0.82 0.06 0  0.83 0.06 0  0.84 0.06 0  0.85 0.06 0  0.86 0.06 0  0.87 0.06 0  0.88 0.06 0  0.89 0.06 0  0.9 0.06 0  0.91 0.06 0  0.92 0.06 0  0.93 0.06 0  0.9399999999999999 0.06 0  0.95 0.06 0  0.96 0.06 0  0.97 0.06 0  0.98 0.06 0  0.99 0.06 0  1 0.06 0  0 0.07000000000000001 0  0.01 0.07000000000000001 0  0.02 0.07000000000000001 0  0.03 0.07000000000000001 0  0.04 0.07000000000000001 0  0.05 0.07000000000000001 0  0.06 0.07000000000000001 0  0.07000000000000001 0.07000000000000001 0  0.08 0.07000000000000001 0  0.09 0.07000000000000001 0  0.1 0.07000000000000001 0  0.11 0.07000000000000001 0  0.12 0.07000000000000001 0  0.13 0.07000000000000001 0  0.14 0.07000000000000001 0  0.15 0.07000000000000001 0  0.16 0.07000000000000001 0  0.17 0.07000
[...]
<PointData  Scalars="rho"> 
<DataArray  type="Float64"  Name="rho"  format="ascii">9.8883644855677988e-01  9.8389076813948373e-01  9.8031210726073847e-01  9.7676178397444202e-01  9.7561287536516339e-01  9.7801102685743668e-01  9.8535617231413553e-01  9.9188821690935380e-01  9.9503906346693494e-01  9.9454760739791626e-01  9.9447003199891015e-01  9.9532872839975584e-01  9.9530191572332760e-01  9.9821655824289701e-01  9.9644350554350525e-01  9.9645405384778274e-01  9.9623148693528418e-01  9.9604993648247464e-01  9.9594071700431097e-01  9.9593462601622107e-01  9.9669391728546275e-01  9.9687746536014743e-01  9.9713818749045946e-01  9.9746024094864616e-01  9.9782901321607398e-01  9.9804211216311345e-01  9.9826527220663053e-01  9.9854381513588686e-01  9.9885217461485243e-01  9.9884392091577257e-01  9.9867400200094669e-01  9.9950038119801032e-01  9.9953374479521473e-01  9.9927119475253035e-01  9.9976709855680412e-01  9.9399091792162386e-01  7.3301266726736192e-01  5.8608249552508351e-01  2.4966727922490431e-01  0.0000000000000000e+00  0.0000000000000000e+00  0.0000000000000000e+00  0.0000000000000000e+00  0.0000000000000000e+00  0.0000000000000000e+00  0.0000000000000000e+00  0.0000000000000000e+00  0.0000000000000000e+00  0.0000000000000000e+00  0.0000000000000000e+00  0.0000000000000000e+00  0.0000000000000000e+00  0.0000000000000000e+00  0.0000000000000000e+00  0.0000000000000000e+00  9.8669570327805016e-06  1.6904177592246880e-05  2.1228328893406169e-05  2.3452641075210893e-05  2.4119725870246306e-05  2.3685756743010761e-05  2.2517573648408873e-05  2.0898357397612253e-05  1.9038698428678349e-05  1.7089667416974035e-05  1.5155493973099544e-05  1.3304864118405769e-05  1.1580095446393184e-05  1.0004472955670399e-05  8.5878268479721904e-06  7.3306687379219246e-06  6.2272736840084647e-06  5.2679361121610969e-06  4.4406572444316582e-06  3.7323204756905691e-06  3.1295524001799422e-06  2.6193160332459217e-06  2.1893311563675097e-06  1.8283023375374302e-06  1.5260509804002440e-06  1.2735488554725176e-06  1.0629204656287714e-06  8.8736705329581979e-07  7.4108717508364307e-07  6.1916846413599071e-07  5.1749640271587074e-07  4.3264089183918830e-07  3.6176572993397861e-07  3.0253055114931230e-07  2.5301837809564640e-07  2.1166110251509644e-07  1.7718626310461218e-07  1.4856026962353602e-07  1.2494971804901483e-07  1.0568752369467250e-07  9.0242931608160508e-08  7.8205150814693421e-08  6.9260209750545972e-08  6.3190028034064073e-08  5.9863474971221553e-08  1.9670101002393383e-08  9.8410117882158243e-01  9.7249905594173169e-01  9.6848302033698586e-01  9.6344668029405245e-01  9.6231866431137703e-01  9.6419409272138168e-01  9.7753432999216494e-01  9.8330650758602911e-01  9.9236080675396066e-01  9.9171297293323712e-01  9.9171639702769099e-01  9.9029699547671735e-01  9.9309179931275848e-01  9.9733573808398723e-01  9.9481876049909856e-01  9.9494001114365271e-01  9.9461768591100597e-01  9.9435235093694585e-01  9.9418762877580014e-01  9.9417262328970601e-01  9.9432135919124764e-01  9.9551578758109416e-01  9.9588888165360245e-01  9.9634680993286739e-01  9.9686725289910061e-01  9.9714043296492882e-01  9.9731714011801853e-01  9.9760320637581901e-01  9.9796479395358173e-01  9.9718931888874818e-01  9.9633566613873381e-01  9.9785363401450622e-01  9.9785417221170614e-01  9.9860162250912266e-01  9.9973865911787108e-01  9.9754679976524629e-01  9.8147702361013101e-01  7.2190941394541286e-01  3.9175477740363834e-01  0.0000000000000000e+00  0.0000000000000000e+00  0.0000000000000000e+00  0.0000000000000000e+00  0.0000000000000000e+00  0.0000000000000000e+00  0.0000000000000000e+00  0.0000000000000000e+00  0.0000000000000000e+00  0.0000000000000000e+00  0.0000000000000000e+00  0.0000000000000000e+00  0.0000000000000000e+00  0.0000000000000000e+00  0.0000000000000000e+00  0.0000000000000000e+00  1.9715224450251164e-05  3.3964368367545704e-05  4.2842153439932154e-05  4.7516444259175038e-05  4.9040760252662187e-05  4.8314085789130972e-05  4.6067411025985360e-05  4.2870943246231672e-05  3.9152907479287205e-05  3.5223647700675914e-05  3.1300046821924832e-05  2.7527104413636448e-05  2.3996179945845370e-05  2.0759313558538633e-05  1.7840419186823587e-05  1.5243670835309754e-05  1.2959757622283205e-05  1.0970594913703847e-05  9.2527999576713248e-06  7.7802829072659952e-06  6.5260690227797808e-06  5.4636303139806200e-06  4.5677873101377526e-06  3.8152902154402736e-06  3.1850986540647080e-06  2.6585168241921546e-06  2.2191742897983049e-06  1.8529419559803427e-06  1.5477342846333419e-06  1.2933248758664477e-06  1.0811244953377628e-06  9.0398718673291288e-07  7.5598951198743174e-07  6.3225422210061261e-07  5.2877448459408498e-07  4.4228356322278006e-07  3.7011842967125551e-07  3.1012233888783911e-07  2.6055199725831750e-07  2.2000799526034251e-07  1.8737988076512742e-07  1.6179359865460006e-07  1.4258747707990076e-07  1.2927371045370502e-07  1.2152280147342380e-07  5.9377627292657283e-08  9.8528027438247234e-01  9.7333732563724928e-01  9.6511149366112126e-01  9.5888709521408777e-01  9.5302285400635123e-01  9.5341369205576820e-01  9.6324357019655849e-01  9.7640525861646854e-01  9.8682851973237662e-01  9.9109954965694869e-01  9.9126268874122081e-01  9.9148915605403853e-01  9.9288962648008061e-01  9.9726504528908366e-01  9.9464236324682087e-01  9.9471675966438000e-01  9.9429203163843694e-01  9.9394345254745686e-01  9.9373080174297446e-01  9.9370802952850168e-01  9.9388318331493597e-01  9.9519023822632013e-01  9.9561246939933723e-01  9.9611637254420449e-01  9.9667543374041501e-01  9.9680730745210777e-01  9.9700580108929138e-01  9.9733219384427441e-01  9.9776167665981141e-01  9.9769551419051183e-01  9.9634044262627008e-01  9.9792004625324982e-01  9.9844738880313089e-01  9.9903511714774174e-01  9.9886515955942445e-01  9.9965859350131114e-01  9.9200742712080869e-01  8.2089804154546986e-01  6.7635424014175360e-01  2.2738972304688790e-01  0.0000000000000000e+00  0.0000000000000000e+00  0.0000000000000000e+00  0.0000000000000000e+00  0.0000000000000000e+00  0.0000000000000000e+00  0.0000000000000000e+00  0.0000000000000000e+00  0.0000000000000000e+00  0.0000000000000000e+00  0.0000000000000000e+00  0.0000000000000000e+00  0.0000000000000000e+00  0.0000000000000000e+00  1.1107107277541500e-05  3.1603912990470276e-05  4.5026457952086807e-05  5.2789454095152782e-05  5.6231742196785839e-05  5.6530738940619701e-05  5.4662019424113535e-05  5.1395083934696309e-05  4.7311706693875898e-05  4.2835872828307310e-05  3.8265907956122126e-05  3.3804004043470749e-05  2.9580815585557997e-05  2.5674635055649897e-05  2.2126277684593352e-05  1.8950013000132766e-05  1.6141740827736731e-05  1.3685010098302665e-05  1.1555507137258105e-05  9.7244218939827455e-06  8.1609237995092740e-06  6.8339525281014812e-06  5.7135036019143071e-06  4.7714734614788042e-06  3.9821805044764444e-06  3.3225998227640489e-06  2.7724391854621972e-06  2.3140635294882626e-06  1.9323368907815047e-06  1.6144028903613892e-06  1.3494362623453643e-06  1.1284010569667766e-06  9.4380036266853961e-07  7.8945520443914492e-07  6.6029046839789563e-07  5.5215620625911409e-07  4.6166879250813903e-07  3.8608215857242785e-07  3.2316887643217278e-07  2.7113324912427577e-07  2.2853328380135449e-07  1.9421991334241646e-07  1.6729292472109289e-07  1.4706175745468034e-07  1.3302000195862685e-07  1.2480763467366493e-07  6.0726501289910461e-08  9.9674925941938686e-01  9.8081310240362585e-01  9.5762549038235822e-01  9.4740849994308241e-01  9.2846286260987154e-01  9.2573503836317295e-01  9.1402798650183759e-01  9.3874005233804880e-01  9.5243080093870658e-01  9.7402520490151501e-01  9.9013152252512349e-01  9.8888781650119106e-01  9.9227919951246957e-01  9.9706188377147076e-01  9.9423345203811819e-01  9.9385867510698356e-01  9.9368035698657287e-01  9.9320909702868843e-01  9.9293160722674079e-01  9.9291096333327700e-01  9.9314409472102116e-01  9.9359065040630556e-01  9.9418715197895868e-01  9.9574439697485617e-01  9.9617375237683292e-01  9.9623901831586847e-01  9.9645566226766380e-01  9.9683075163859924e-01  9.9736024115732846e-01  9.9630377350374166e-01  9.9680035127216549e-01  9.9562492594552443e-01  1.0000000000000000e+00  8.9728703756416828e-01  8.5831905915432072e-01  1.0000000000000000e+00  9.2432913774516345e-01  9.8459341973427128e-01  7.5957651916474300e-01  5.5776897507015011e-01  3.0207211274591944e-01  0.0000000000000000e+00  0.0000000000000000e+00  0.0000000000000000e+00  0.0000000000000000e+00  0.0000000000000000e+00  0.0000000000000000e+00  0.0000000000000000e+00  0.0000000000000000e+00  0.0000000000000000e+00  0.0000000000000000e+00  0.0000000000000000e+00  0.0000000000000000e+00  3.1201924459889332e-06  3.2585382172711630e-05  5.2368648632038641e-05  6.4223533240345527e-05  6.9948315538146015e-05  7.1188335137716878e-05  6.9333199127428598e-05  6.5482943802775158e-05  6.0462905935554918e-05  5.4865905918617490e-05  4.9101940351122541e-05  4.3444756972628025e-05  3.8069521604404631e-05  3.3081562961954964e-05  2.8537161291350418e-05  2.4458268190819093e-05  2.0843173107977964e-05  1.7674019041528768e-05  1.4922388129535144e-05  1.2553464033477189e-05  1.0529198084840228e-05  8.8106636537255298e-06  7.3598054526567513e-06  6.1406354299561780e-06  5.1200339023826222e-06  4.2681431097614778e-06  3.5585525212179540e-06  2.9682335443085232e-06  2.4773953530263272e-06  2.0692016672197422e-06  1.7294825950497433e-06  1.4464087850200298e-06  1.2101780096133847e-06  1.0127170202626217e-06  8.4740793447731483e-07  7.0884894552219135e-07  5.9264282549879004e-07  4.9521796377972832e-07  4.1368039869924549e-07  3.4569044276090387e-07  2.8935892437548569e-07  2.4317087252912281e-07  2.0591572087431349e-07  1.7664451962838670e-07  1.5462984153249815e-07  1.3933007862227830e-07  1.3037008994301891e-07  6.3207603399882450e-08  9.7710842290860589e-01  9.5975267570478517e-01  9.1702002695749685e-01  8.9116073193092959e-01  7.8421694517609297e-01  5.1391338571429357e-01  3.7524133761776951e-01  2.5091058405558475e-01  3.6940952244491149e-02  1.2383619788334601e-03  2.4272592146475694e-03  2.9962465323879094e-02  5.6303199845927077e-02  7.1401025368881127e-02  1.5575442038872028e-01  2.3942888124358780e-01  5.0432060219673969e-01  5.7579511569416053e-01  6.8292831953545241e-01  7.1674520359300042e-01  7.6680653384260522e-01  8.9488945632740968e-01  7.5626059385265432e-01  9.1160541816931873e-01  8.4134979691605782e-01  9.9305345652560539e-01  9.8426692560330764e-01  9.7925267798208415e-01  8.4477901542834077e-01  7.5824802133350411e-01  7.1611213316892430e-01  6.9197054400760682e-01  6.2379014590491033e-01  6.0914342586884052e-01  6.4240442645142337e-01  6.6461045014517728e-01  8.4630008525827982e-01  1.0000000000000000e+00  9.9871167153948459e-01  9.8615972079685110e-01  7.7350397844132968e-01  4.6947241346795615e-01  3.0696380295474573e-01  0.0000000000000000e+00  0.0000000000000000e+00  0.0000000000000000e+00  0.0000000000000000e+00  0.0000000000000000e+00  0.0000000000000000e+00  0.0000000000000000e+00  0.0000000000000000e+00  0.0000000000000000e+00  0.0000000000000000e+00  3.5284787824402960e-05  6.5181339518662504e-05  8.3468883102336017e-05  9.2614679928822952e-05  9.5042455556951553e-05  9.2858993637567365e-05  8.7751386434410005e-05  8.0975620026643461e-05  7.3410206928700076e-05  6.5639863880774112e-05  5.8038231741274318e-05  5.0834002221057378e-05  4.4159244260208395e-05  3.8081675000397086e-05  3.2626192183975909e-05  2.7788753971906040e-05  2.3545609136252746e-05  1.9859890999367017e-05  1.6686409593657530e-05  1.3975437431774280e-05  1.1675643406451985e-05  9.7364195918900174e-06  8.1095382345781479e-06  6.7503378532440297e-06  5.6183987296469928e-06  4.6778623653024580e-06  3.8974194377895307e-06  3.2501493022654135e-06  2.7131697318873845e-06  2.2672541845143787e-06  1.8963805870005260e-06  1.5873106017720746e-06  1.3291764429006611e-06  1.1131019449379440e-06  9.3186735830093682e-07  7.7961747742955836e-07  6.5161346765016679e-07  5.4402348901235988e-07  4.5375178149053515e-07  3.7829827110977358e-07  3.1564723461006566e-07  2.6417591016047475e-07  2.2259052304992005e-07  1.8987048489603653e-07  1.6523183518942110e-07  1.4809680186412766e-07  1.3805517396494930e-07  6.6719103876429351e-08  9.3430017417989578e-02  2.1468326023678545e-02  1.0831151898876260e-03  0.0000000000000000e+00  0.0000000000000000e+00  0.0000000000000000e+00  0.0000000000000000e+00  0.0000000000000000e+00  0.0000000000000000e+00  2.4612197279528966e-04  2.0998430588177858e-03  1.4142798321717108e-02  3.3314702649426146e-02  3.4420534857062056e-02  3.8737967336728935e-02  2.1236609994470343e-02  1.8937487762347705e-02  2.3588445441728754e-02  1.4988646024490331e-02  3.3433872487624076e-03  1.1196273055558788e-02  1.4556960270175988e-02  1.9885021805542094e-02  2.2462343437650321e-02  3.2844542260488850e-02  3.2373535932043181e-02  3.1005116027559145e-02  2.7623144712046365e-02  1.3636816319257113e-02  1.4627626074381714e-02  1.4782137821254388e-02  8.8572795068165202e-03  1.4257910072342211e-02  6.8403412839171118e-02  3.7761980221984770e-01  5.9503673810956526e-01  5.9783767051216907e-01  6.4178459246338038e-01  9.7772539317365836e-01  9.9984855859423405e-01  1.0000000000000000e+00  9.9766636239579631e-01  6.9941644240581424e-01  5.2735087357816479e-01  0.0000000000000000e+00  0.0000000000000000e+00  0.0000000000000000e+00  0.0000000000000000e+00  0.0000000000000000e+00  0.0000000000000000e+00  0.0000000000000000e+00  0.0000000000000000e+00  3.4812202402395759e-05  8.1895376998505264e-05  1.1153306691617382e-04  1.2684096171366419e-04  1.3151178126698577e-04  1.2890527839828260e-04  1.2174461583276638e-04  1.1208240972774155e-04  1.0132871922620662e-04  9.0374917919332651e-05  7.9749701869338458e-05  6.9749470736176777e-05  6.0528948186730609e-05  5.2157447393622003e-05  4.4652799562531763e-05  3.8000241419728855e-05  3.2163667964822597e-05  2.7092310608492049e-05  2.2725465223313971e-05  1.8996476068371908e-05  1.5836050607606178e-05  1.3175219044144971e-05  1.0947649666613041e-05  9.0914377425892637e-06  7.5502191589381055e-06  6.2737985733960664e-06  5.2182799808016950e-06  4.3458945610220307e-06  3.6245727760757035e-06  3.0274228373935084e-06  2.5321041111724505e-06  2.1202275668207155e-06  1.7767565913761814e-06  1.4894728693437641e-06  1.2484914803365001e-06  1.0458392279827864e-06  8.7509708564269155e-07  7.3109937725963205e-07  6.0968912312389180e-07  5.0751568975495916e-07  4.2187728103099076e-07  3.5059188804830717e-07  2.9190246204136506e-07  2.4439833814785839e-07  2.0696608216276499e-07  1.7874970281675614e-07  1.5910731646705815e-07  1.4759625735010140e-07  7.1128047848965888e-08  4.1459808440661973e-04  3.7206543895297177e-04  0.0000000000000000e+00  0.0000000000000000e+00  0.0000000000000000e+00  0.0000000000000000e+00  0.0000000000000000e+00  0.0000000000000000e+00  0.0000000000000000e+00  0.0000000000000000e+00  4.7977338964564752e-03  4.5485397415015406e-03  1.8380935096178937e-02  2.2461058091558423e-02  2.5146805595170917e-02  2.2359544792101740e-02  1.7627237482857720e-02  1.1925553720925651e-02  6.0832787422949739e-03  2.2925452988034533e-03  2.3920884662961342e-03  2.7922880439057852e-03  1.1346056694733712e-02  1.4873767759737920e-02  1.5987541245185952e-02  1.5796598089378434e-02  1.3471840543618642e-02  1.0039749392304122e-02  9.5017740476993596e-04  1.4466984548840189e-03  1.8613619202802467e-03  2.4134907127184163e-03  2.7814870034069236e-03  3.5892537942708433e-03  1.3611360421160973e-03  1.7995673210678901e-03  2.5660414568121659e-01  5.0078446842019075e-01  6.3633403715028725e-01  9.6314593009917582e-01  1.0000000000000000e+00  1.0000000000000000e+00  9.9840744914411506e-01  9.8222607747539181e-01  9.1658605897445722e-01  7.5783524236645938e-01  7.9029205490733556e-02  0.0000000000000000e+00  0.0000000000000000e+00  0.0000000000000000e+00  0.0000000000000000e+00  3.1572531581248253e-05  9.9684119276631259e-05  1.4797282914894849e-04  1.7507286388054530e-04  1.8467006842834348e-04  1.8220641243289960e-04  1.7223380329009063e-04  1.5817025788005478e-04  1.4246608139991464e-04  1.2662157903392884e-04  1.1143565645270375e-04  9.7289881928135376e-05  8.4342639671828974e-05  7.2638668595460468e-05  6.2166054135131166e-05  5.2883164663494891e-05  4.4731186557515031e-05  3.7638764989025571e-05  3.1524878091497278e-05  2.6301160791755461e-05  2.1874813913945130e-05  1.8152044108045790e-05  1.5041228624514913e-05  1.2455739962567738e-05  1.0315890887578627e-05  8.5502150517603463e-06  7.0959390515119700e-06  5.8989412405748678e-06  4.9132754495952857e-06  4.1004604056623097e-06  3.4286249260281639e-06  2.8716361240963787e-06  2.4082238694547463e-06  2.0212032641303831e-06  1.6967505566840193e-06  1.4237924906518659e-06  1.1934746737981069e-06  9.9872042076576821e-07  8.3386898242107162e-07  6.9437898946061587e-07  5.7660107945747097e-07  4.7758690540670554e-07  3.9495436890426780e-07  3.2677335587794293e-07  2.7149071810620328e-07  2.2786780630936645e-07  1.9494741239771595e-07  1.7201843015043461e-07  1.5857692403884350e-07  7.6227171906964442e-08  0.0000000000000000e+00  0.0000000000000000e+00  0.0000000000000000e+00  0.0000000000000000e+00  0.0000000000000000e+00  0.0000000000000000e+00  0.0000000000000000e+00  0.0000000000000000e+00  0.0000000000000000e+00  0.0000000000000000e+00  3.1856090189305458e-03  2.9799380562703145e-03  1.2017744848864085e-02  1.7895546284945045e-02  1.5195313165544396e-02  1.5174236274055543e-02  1.2301107622453164e-02  8.1871339998368063e-03  2.2469381719697006e-03  1.3618816714507009e-03  1.3952210746109718e-03  5.3998796305213606e-03  7.2812525919322560e-03  9.1732511812836239e-03  9.9573449631850629e-03  9.7825641260584819e-03  8.5036717682104180e-03  6.8932924061314094e-03  9.5416253799331747e-04  1.2881468834158969e-03  1.2650759952631577e-03  3.3425135413089266e-03  2.7864200262513101e-03  7.4798486384424737e-04  5.1501041380962848e-04  3.9587782530656483e-04  4.7613525419752548e-04  5.2516376837900846e-04  4.1857085367840707e-01  6.1427172140506692e-01  9.4493930517651825e-01  1.0000000000000000e+00  1.0000000000000000e+00  9.9897965155346036e-01  9.6992670566795969e-01  9.3471581400131365e-01  8.7651914649903162e-01  8.0691950819651470e-01  5.9330950016085648e-01  5.7107075148433728e-01  5.6477255311701602e-01  4.8005339894407739e-01  5.2124665080604760e-02  2.5767972257356210e-04  2.6604814366830404e-04  2.5987152366839733e-04  2.4559245954393165e-04  2.2523287654288264e-04  2.0199120709877197e-04  1.7868062072926624e-04  1.5670619965354953e-04  1.3655242442838609e-04  1.1830729646903109e-04  1.0191621155985681e-04  8.7282249872617723e-05  7.4301998124254057e-05  6.2874878291649974e-05  5.2900693531262250e-05  4.4275363162511272e-05  3.6887349356111830e-05  3.0617864139019843e-05  2.5343421048928034e-05  2.0939955587247986e-05  1.7287369967502478e-05  1.4273159449558192e-05  1.1795116443587902e-05  9.7626802585844857e-06  8.0973917094287385e-06  6.7324945083675643e-06  5.6120783979120591e-06  4.6899332857822232e-06  3.9282879686390767e-06  3.2965466405849960e-06  2.7701225705669559e-06  2.3293630015962189e-06  1.9586426371486303e-06  1.6455584271234678e-06  1.3802808157724569e-06  1.1550092863789246e-06  9.6353232797377832e-07  8.0088598611867939e-07  6.6307362441376849e-07  5.4686695492623983e-07  4.4963779736416800e-07  3.6924889478445819e-07  3.0396166441891611e-07  2.5238378946526029e-07  2.1342690011646965e-07  1.8627350367178243e-07  1.7035302908257911e-07  8.1705093601455076e-08  0.0000000000000000e+00  0.0000000000000000e+00  0.0000000000000000e+00  0.0000000000000000e+00  0.0000000000000000e+00  0.0000000000000000e+00  0.0000000000000000e+00  0.0000000000000000e+00  0.0000000000000000e+00  0.0000000000000000e+00  2.0311282681609250e-03  1.8988259095189914e-03  9.2310745827563871e-03  7.8983137277932533e-03  9.3168270575644842e-03  9.3986630589572399e-03  7.4949247972953366e-03  4.0053166476715944e-03  1.6302643329310267e-03  1.1173960818617408e-03  3.1925844579451168e-03  3.7144334214172844e-0