<?xml version="1.0"?>
<VTKFile type="UnstructuredGrid"  version="0.1"  >
<UnstructuredGrid>
<Piece  NumberOfPoints="5151" NumberOfCells="10000">
<Points>
<DataArray  type="Float64"  NumberOfComponents="3"  format="ascii">0 0 0  0.01 0 0  0.02 0 0  0.03 0 0  0.04 0 0  0.05 0 0  0.06 0 0  0.07000000000000001 0 0  0.08 0 0  0.09 0 0  0.1 0 0  0.11 0 0  0.12 0 0  0.13 0 0  0.14 0 0  0.15 0 0  0.16 0 0  0.17 0 0  0.18 0 0  0.19 0 0  0.2 0 0  0.21 0 0  0.22 0 0  0.23 0 0  0.24 0 0  0.25 0 0  0.26 0 0  0.27 0 0  0.28 0 0  0.29 0 0  0.3 0 0  0.31 0 0  0.32 0 0  0.33 0 0  0.34 0 0  0.35 0 0  0.36 0 0  0.37 0 0  0.38 0 0  0.39 0 0  0.4 0 0  0.41 0 0  0.42 0 0  0.43 0 0  0.44 0 0  0.45 0 0  0.46 0 0  0.47 0 0  0.48 0 0  0.49 0 0  0.5 0 0  0.51 0 0  0.52 0 0  0.53 0 0  0.54 0 0  0.55 0 0  0.5600000000000001 0 0  0.57 0 0  0.58 0 0  0.59 0 0  0.6 0 0  0.61 0 0  0.62 0 0  0.63 0 0  0.64 0 0  0.65 0 0  0.66 0 0  0.67 0 0  0.68 0 0  0.6899999999999999 0 0  0.7 0 0  0.71 0 0  0.72 0 0  0.73 0 0  0.74 0 0  0.75 0 0  0.76 0 0  0.77 0 0  0.78 0 0  0.79 0 0  0.8 0 0  0.8100000000000001 0 0  0.82 0 0  0.83 0 0  0.84 0 0  0.85 0 0  0.86 0 0  0.87 0 0  0.88 0 0  0.89 0 0  0.9 0 0  0.91 0 0  0.92 0 0  0.93 0 0  0.9399999999999999 0 0  0.95 0 0  0.96 0 0  0.97 0 0  0.98 0 0  0.99 0 0  1 0 0  0 0.01 0  0.01 0.01 0  0.02 0.01 0  0.03 0.01 0  0.04 0.01 0  0.05 0.01 0  0.06 0.01 0  0.07000000000000001 0.01 0  0.08 0.01 0  0.09 0.01 0  0.1 0.01 0  0.11 0.01 0  0.12 0.01 0  0.13 0.01 0  0.14 0.01 0  0.15 0.01 0  0.16 0.01 0  0.17 0.01 0  0.18 0.01 0  0.19 0.01 0  0.2 0.01 0  0.21 0.01 0  0.22 0.01 0  0.23 0.01 0  0.24 0.01 0  0.25 0.01 0  0.26 0.01 0  0.27 0.01 0  0.28 0.01 0  0.29 0.01 0  0.3 0.01 0  0.31 0.01 0  0.32 0.01 0  0.33 0.01 0  0.34 0.01 0  0.35 0.01 0  0.36 0.01 0  0.37 0.01 0  0.38 0.01 0  0.39 0.01 0  0.4 0.01 0  0.41 0.01 0  0.42 0.01 0  0.43 0.01 0  0.44 0.01 0  0.45 0.01 0  0.46 0.01 0  0.47 0.01 0  0.48 0.01 0  0.49 0.01 0  0.5 0.01 0  0.51 0.01 0  0.52 0.01 0  0.53 0.01 0  0.54 0.01 0  0.55 0.01 0  0.5600000000000001 0.01 0  0.57 0.01 0  0.58 0.01 0  0.59 0.01 0  0.6 0.01 0  0.61 0.01 0  0.62 0.01 0  0.63 0.01 0  0.64 0.01 0  0.65 0.01 0  0.66 0.01 0  0.67 0.01 0  0.68 0.01 0  0.6899999999999999 0.01 0  0.7 0.01 0  0.71 0.01 0  0.72 0.01 0  0.73 0.01 0  0.74 0.01 0  0.75 0.01 0  0.76 0.01 0  0.77 0.01 0  0.78 0.01 0  0.79 0.01 0  0.8 0.01 0  0.8100000000000001 0.01 0  0.82 0.01 0  0.83 0.01 0  0.84 0.01 0  0.85 0.01 0  0.86 0.01 0  0.87 0.01 0  0.88 0.01 0  0.89 0.01 0  0.9 0.01 0  0.91 0.01 0  0.92 0.01 0  0.93 0.01 0  0.9399999999999999 0.01 0  0.95 0.01 0  0.96 0.01 0  0.97 0.01 0  0.98 0.01 0  0.99 0.01 0  1 0.01 0  0 0.02 0  0.01 0.02 0  0.02 0.02 0  0.03 0.02 0  0.04 0.02 0  0.05 0.02 0  0.06 0.02 0  0.07000000000000001 0.02 0  0.08 0.02 0  0.09 0.02 0  0.1 0.02 0  0.11 0.02 0  0.12 0.02 0  0.13 0.02 0  0.14 0.02 0  0.15 0.02 0  0.16 0.02 0  0.17 0.02 0  0.18 0.02 0  0.19 0.02 0  0.2 0.02 0  0.21 0.02 0  0.22 0.02 0  0.23 0.02 0  0.24 0.02 0  0.25 0.02 0  0.26 0.02 0  0.27 0.02 0  0.28 0.02 0  0.29 0.02 0  0.3 0.02 0  0.31 0.02 0  0.32 0.02 0  0.33 0.02 0  0.34 0.02 0  0.35 0.02 0  0.36 0.02 0  0.37 0.02 0  0.38 0.02 0  0.39 0.02 0  0.4 0.02 0  0.41 0.02 0  0.42 0.02 0  0.43 0.02 0  0.44 0.02 0  0.45 0.02 0  0.46 0.02 0  0.47 0.02 0  0.48 0.02 0  0.49 0.02 0  0.5 0.02 0  0.51 0.02 0  0.52 0.02 0  0.53 0.02 0  0.54 0.02 0  0.55 0.02 0  0.5600000000000001 0.02 0  0.57 0.02 0  0.58 0.02 0  0.59 0.02 0  0.6 0.02 0  0.61 0.02 0  0.62 0.02 0  0.63 0.02 0  0.64 0.02 0  0.65 0.02 0  0.66 0.02 0  0.67 0.02 0  0.68 0.02 0  0.6899999999999999 0.02 0  0.7 0.02 0  0.71 0.02 0  0.72 0.02 0  0.73 0.02 0  0.74 0.02 0  0.75 0.02 0  0.76 0.02 0  0.77 0.02 0  0.78 0.02 0  0.79 0.02 0  0.8 0.02 0  0.8100000000000001 0.02 0  0.82 0.02 0  0.83 0.02 0  0.84 0.02 0  0.85 0.02 0  0.86 0.02 0  0.87 0.02 0  0.88 0.02 0  0.89 0.02 0  0.9 0.02 0  0.91 0.02 0  0.92 0.02 0  0.93 0.02 0  0.9399999999999999 0.02 0  0.95 0.02 0  0.96 0.02 0  0.97 0.02 0  0.98 0.02 0  0.99 0.02 0  1 0.02 0  0 0.03 0  0.01 0.03 0  0.02 0.03 0  0.03 0.03 0  0.04 0.03 0  0.05 0.03 0  0.06 0.03 0  0.07000000000000001 0.03 0  0.08 0.03 0  0.09 0.03 0  0.1 0.03 0  0.11 0.03 0  0.12 0.03 0  0.13 0.03 0  0.14 0.03 0  0.15 0.03 0  0.16 0.03 0  0.17 0.03 0  0.18 0.03 0  0.19 0.03 0  0.2 0.03 0  0.21 0.03 0  0.22 0.03 0  0.23 0.03 0  0.24 0.03 0  0.25 0.03 0  0.26 0.03 0  0.27 0.03 0  0.28 0.03 0  0.29 0.03 0  0.3 0.03 0  0.31 0.03 0  0.32 0.03 0  0.33 0.03 0  0.34 0.03 0  0.35 0.03 0  0.36 0.03 0  0.37 0.03 0  0.38 0.03 0  0.39 0.03 0  0.4 0.03 0  0.41 0.03 0  0.42 0.03 0  0.43 0.03 0  0.44 0.03 0  0.45 0.03 0  0.46 0.03 0  0.47 0.03 0  0.48 0.03 0  0.49 0.03 0  0.5 0.03 0  0.51 0.03 0  0.52 0.03 0  0.53 0.03 0  0.54 0.03 0  0.55 0.03 0  0.5600000000000001 0.03 0  0.57 0.03 0  0.58 0.03 0  0.59 0.03 0  0.6 0.03 0  0.61 0.03 0  0.62 0.03 0  0.63 0.03 0  0.64 0.03 0  0.65 0.03 0  0.66 0.03 0  0.67 0.03 0  0.68 0.03 0  0.6899999999999999 0.03 0  0.7 0.03 0  0.71 0.03 0  0.72 0.03 0  0.73 0.03 0  0.74 0.03 0  0.75 0.03 0  0.76 0.03 0  0.77 0.03 0  0.78 0.03 0  0.79 0.03 0  0.8 0.03 0  0.8100000000000001 0.03 0  0.82 0.03 0  0.83 0.03 0  0.84 0.03 0  0.85 0.03 0  0.86 0.03 0  0.87 0.03 0  0.88 0.03 0  0.89 0.03 0  0.9 0.03 0  0.91 0.03 0  0.92 0.03 0  0.93 0.03 0  0.9399999999999999 0.03 0  0.95 0.03 0  0.96 0.03 0  0.97 0.03 0  0.98 0.03 0  0.99 0.03 0  1 0.03 0  0 0.04 0  0.01 0.04 0  0.02 0.04 0  0.03 0.04 0  0.04 0.04 0  0.05 0.04 0  0.06 0.04 0  0.07000000000000001 0.04 0  0.08 0.04 0  0.09 0.04 0  0.1 0.04 0  0.11 0.04 0  0.12 0.04 0  0.13 0.04 0  0.14 0.04 0  0.15 0.04 0  0.16 0.04 0  0.17 0.04 0  0.18 0.04 0  0.19 0.04 0  0.2 0.04 0  0.21 0.04 0  0.22 0.04 0  0.23 0.04 0  0.24 0.04 0  0.25 0.04 0  0.26 0.04 0  0.27 0.04 0  0.28 0.04 0  0.29 0.04 0  0.3 0.04 0  0.31 0.04 0  0.32 0.04 0  0.33 0.04 0  0.34 0.04 0  0.35 0.04 0  0.36 0.04 0  0.37 0.04 0  0.38 0.04 0  0.39 0.04 0  0.4 0.04 0  0.41 0.04 0  0.42 0.04 0  0.43 0.04 0  0.44 0.04 0  0.45 0.04 0  0.46 0.04 0  0.47 0.04 0  0.48 0.04 0  0.49 0.04 0  0.5 0.04 0  0.51 0.04 0  0.52 0.04 0  0.53 0.04 0  0.54 0.04 0  0.55 0.04 0  0.5600000000000001 0.04 0  0.57 0.04 0  0.58 0.04 0  0.59 0.04 0  0.6 0.04 0  0.61 0.04 0  0.62 0.04 0  0.63 0.04 0  0.64 0.04 0  0.65 0.04 0  0.66 0.04 0  0.67 0.04 0  0.68 0.04 0  0.6899999999999999 0.04 0  0.7 0.04 0  0.71 0.04 0  0.72 0.04 0  0.73 0.04 0  0.74 0.04 0  0.75 0.04 0  0.76 0.04 0  0.77 0.04 0  0.78 0.04 0  0.79 0.04 0  0.8 0.04 0  0.8100000000000001 0.04 0  0.82 0.04 0  0.83 0.04 0  0.84 0.04 0  0.85 0.04 0  0.86 0.04 0  0.87 0.04 0  0.88 0.04 0  0.89 0.04 0  0.9 0.04 0  0.91 0.04 0  0.92 0.04 0  0.93 0.04 0  0.9399999999999999 0.04 0  0.95 0.04 0  0.96 0.04 0  0.97 0.04 0  0.98 0.04 0  0.99 0.04 0  1 0.04 0  0 0.05 0  0.01 0.05 0  0.02 0.05 0  0.03 0.05 0  0.04 0.05 0  0.05 0.05 0  0.06 0.05 0  0.07000000000000001 0.05 0  0.08 0.05 0  0.09 0.05 0  0.1 0.05 0  0.11 0.05 0  0.12 0.05 0  0.13 0.05 0  0.14 0.05 0  0.15 0.05 0  0.16 0.05 0  0.17 0.05 0  0.18 0.05 0  0.19 0.05 0  0.2 0.05 0  0.21 0.05 0  0.22 0.05 0  0.23 0.05 0  0.24 0.05 0  0.25 0.05 0  0.26 0.05 0  0.27 0.05 0  0.28 0.05 0  0.29 0.05 0  0.3 0.05 0  0.31 0.05 0  0.32 0.05 0  0.33 0.05 0  0.34 0.05 0  0.35 0.05 0  0.36 0.05 0  0.37 0.05 0  0.38 0.05 0  0.39 0.05 0  0.4 0.05 0  0.41 0.05 0  0.42 0.05 0  0.43 0.05 0  0.44 0.05 0  0.45 0.05 0  0.46 0.05 0  0.47 0.05 0  0.48 0.05 0  0.49 0.05 0  0.5 0.05 0  0.51 0.05 0  0.52 0.05 0  0.53 0.05 0  0.54 0.05 0  0.55 0.05 0  0.5600000000000001 0.05 0  0.57 0.05 0  0.58 0.05 0  0.59 0.05 0  0.6 0.05 0  0.61 0.05 0  0.62 0.05 0  0.63 0.05 0  0.64 0.05 0  0.65 0.05 0  0.66 0.05 0  0.67 0.05 0  0.68 0.05 0  0.6899999999999999 0.05 0  0.7 0.05 0  0.71 0.05 0  0.72 0.05 0  0.73 0.05 0  0.74 0.05 0  0.75 0.05 0  0.76 0.05 0  0.77 0.05 0  0.78 0.05 0  0.79 0.05 0  0.8 0.05 0  0.8100000000000001 0.05 0  0.82 0.05 0  0.83 0.05 0  0.84 0.05 0  0.85 0.05 0  0.86 0.05 0  0.87 0.05 0  0.88 0.05 0  0.89 0.05 0  0.9 0.05 0  0.91 0.05 0  0.92 0.05 0  0.93 0.05 0  0.9399999999999999 0.05 0  0.95 0.05 0  0.96 0.05 0  0.97 0.05 0  0.98 0.05 0  0.99 0.05 0  1 0.05 0  0 0.06 0  0.01 0.06 0  0.02 0.06 0  0.03 0.06 0  0.04 0.06 0  0.05 0.06 0  0.06 0.06 0  0.07000000000000001 0.06 0  0.08 0.06 0  0.09 0.06 0  0.1 0.06 0  0.11 0.06 0  0.12 0.06 0  0.13 0.06 0  0.14 0.06 0  0.15 0.06 0  0.16 0.06 0  0.17 0.06 0  0.18 0.06 0  0.19 0.06 0  0.2 0.06 0  0.21 0.06 0  0.22 0.06 0  0.23 0.06 0  0.24 0.06 0  0.25 0.06 0  0.26 0.06 0  0.27 0.06 0  0.28 0.06 0  0.29 0.06 0  0.3 0.06 0  0.31 0.06 0  0.32 0.06 0  0.33 0.06 0  0.34 0.06 0  0.35 0.06 0  0.36 0.06 0  0.37 0.06 0  0.38 0.06 0  0.39 0.06 0  0.4 0.06 0  0.41 0.06 0  0.42 0.06 0  0.43 0.06 0  0.44 0.06 0  0.45 0.06 0  0.46 0.06 0  0.47 0.06 0  0.48 0.06 0  0.49 0.06 0  0.5 0.06 0  0.51 0.06 0  0.52 0.06 0  0.53 0.06 0  0.54 0.06 0  0.55 0.06 0  0.5600000000000001 0.06 0  0.57 0.06 0  0.58 0.06 0  0.59 0.06 0  0.6 0.06 0  0.61 0.06 0  0.62 0.06 0  0.63 0.06 0  0.64 0.06 0  0.65 0.06 0  0.66 0.06 0  0.67 0.06 0  0.68 0.06 0  0.6899999999999999 0.06 0  0.7 0.06 0  0.71 0.06 0  0.72 0.06 0  0.73 0.06 0  0.74 0.06 0  0.75 0.06 0  0.76 0.06 0  0.77 0.06 0  0.78 0.06 0  0.79 0.06 0  0.8 0.06 0  0.8100000000000001 0.06 0  0.82 0.06 0  0.83 0.06 0  0.84 0.06 0  0.85 0.06 0  0.86 0.06 0  0.87 0.06 0  0.88 0.06 0  0.89 0.06 0  0.9 0.06 0  0.91 0.06 0  0.92 0.06 0  0.93 0.06 0  0.9399999999999999 0.06 0  0.95 0.06 0  0.96 0.06 0  0.97 0.06 0  0.98 0.06 0  0.99 0.06 0  1 0.06 0  0 0.07000000000000001 0  0.01 0.07000000000000001 0  0.02 0.07000000000000001 0  0.03 0.07000000000000001 0  0.04 0.07000000000000001 0  0.05 0.07000000000000001 0  0.06 0.07000000000000001 0  0.07000000000000001 0.07000000000000001 0  0.08 0.07000000000000001 0  0.09 0.07000000000000001 0  0.1 0.07000000000000001 0  0.11 0.07000000000000001 0  0.12 0.07000000000000001 0  0.13 0.07000000000000001 0  0.14 0.07000000000000001 0  0.15 0.07000000000000001 0  0.16 0.07000000000000001 0  0.17 0.07000
[...]
<PointData  Scalars="rho_bar"> 
<DataArray  type="Float64"  Name="rho_bar"  format="ascii">9.9596460199989556e-01  9.9776242553445005e-01  9.9695308224320267e-01  9.9731433279990822e-01  9.9779034460771099e-01  9.9867401243666010e-01  9.9974164502029061e-01  1.0007301810660736e+00  1.0014072553221107e+00  1.0016668274607983e+00  1.0015018350903635e+00  1.0009496794172053e+00  1.0000880787631670e+00  9.9907176204726211e-01  9.9813265542529261e-01  9.9748475093536360e-01  9.9721208179052101e-01  9.9726266871123337e-01  9.9752568440693390e-01  9.9789701834302580e-01  9.9830668099674602e-01  9.9871739967090822e-01  9.9910873462101124e-01  9.9946660409818333e-01  9.9978392451354614e-01  1.0000630635417738e+00  1.0003100485415743e+00  1.0005194583130499e+00  1.0006577913553825e+00  1.0006543754390620e+00  1.0004485740551923e+00  1.0001270423901272e+00  9.9992238785518284e-01  9.9992603195748753e-01  9.9999087061313907e-01  9.9997516449803348e-01  1.0000301925911994e+00  9.9996138329641560e-01  9.9812223818606727e-01  1.0079176137029189e+00  8.7486556214206135e-01  1.2317700138967633e-01  5.8188754450895757e-03  8.5790267796551556e-04  2.0682324136096338e-04  6.4834181014070767e-05  -4.1424696690259799e-05  -1.7468365562599214e-06  8.6646006963089316e-06  3.8789367555902166e-06  -9.7151975129373271e-07  -6.9978727300471909e-07  2.9145564589267963e-07  1.2767882223598375e-07  -5.0956445551292521e-08  7.1766467998870405e-09  1.4518885972847192e-08  -1.1505561122282412e-09  1.6572589877301531e-09  1.6603538266438272e-09  4.5487576344475408e-10  5.5479901347506446e-10  3.6394263613774437e-10  2.4310983624791935e-10  1.9491052144820821e-10  1.4083858707153157e-10  1.0935590435618896e-10  8.4955604788767436e-11  6.6806245172564517e-11  5.3315774514642218e-11  4.2858295232917846e-11  3.4782301781654490e-11  2.8416325609542458e-11  2.3360914180074306e-11  1.9303938683429077e-11  1.6022292300333840e-11  1.3348565405031716e-11  1.1156679510161676e-11  9.3501030136004600e-12  7.8543379857365538e-12  6.6109562603412147e-12  5.5740435004273797e-12  4.7067918475040869e-12  3.9798769551248093e-12  3.3694440692975055e-12  2.8560893122396483e-12  2.4240539279382136e-12  2.0602636379424100e-12  1.7540018859375397e-12  1.4964129528905339e-12  1.2801746034462402e-12  1.0991971822759180e-12  9.4842305867660365e-13  8.2379479417805790e-13  7.2185634154898268e-13  6.3989615084871157e-13  5.7573206611132807e-13  5.2767430850368586e-13  4.9456241334797458e-13  4.7573063485685966e-13  4.7165964638444376e-13  1.0092628325965611e+00  1.0035638734218444e+00  1.0051132757153978e+00  1.0047223283036550e+00  1.0039230103510164e+00  1.0022849720352165e+00  9.9997756267002424e-01  9.9748217332032640e-01  9.9536267531671530e-01  9.9401477567192154e-01  9.9360811005831184e-01  9.9417594707097301e-01  9.9565250240124104e-01  9.9780948725836349e-01  1.0001967430425882e+00  1.0022573618722252e+00  1.0036052333682888e+00  1.0041803033149981e+00  1.0041490826939150e+00  1.0037375578834853e+00  1.0031320588354045e+00  1.0024481262460381e+00  1.0017501193520149e+00  1.0010806676546020e+00  1.0004689302402987e+00  9.9992466133590407e-01  9.9944013595031278e-01  9.9901272861022150e-01  9.9867944479860271e-01  9.9854475309869306e-01  9.9876499380518358e-01  9.9935854425293436e-01  9.9996124787409901e-01  1.0001501418629377e+00  1.0000302604583264e+00  9.9996007159392131e-01  9.9999350593532610e-01  9.9974358493511983e-01  1.0006176885012998e+00  9.9559638888164170e-01  9.3233062325097327e-01  1.9519826207862515e-01  3.2822327355797316e-03  2.3147979940142957e-03  2.1951702884844747e-04  -1.5541308163630267e-04  1.0175227752885170e-04  4.7112731957858845e-05  -8.3291995166500810e-06  -1.2610831240888389e-05  -4.1173093557633519e-07  2.8236783229479024e-06  1.3262415149634077e-07  -4.6022642052262083e-07  9.4917256689983104e-08  6.6597648109943069e-08  -2.6410825990898421e-08  5.5665738591663905e-09  5.5098020171047517e-09  -8.3479855988997696e-10  1.2294642426552972e-09  5.9999820456535253e-10  2.8413599473609548e-10  3.1250499867473222e-10  1.8743771833008949e-10  1.5014942619981006e-10  1.1429690503451045e-10  8.7527777730800652e-11  6.9388549433153620e-11  5.4890709928241067e-11  4.4150949799587027e-11  3.5733608728476114e-11  2.9158122243783201e-11  2.3939398357706322e-11  1.9761161460780207e-11  1.6387243552084257e-11  1.3642315128394060e-11  1.1394900392579446e-11  9.5445813868074274e-12  8.0139624704360961e-12  6.7426783815550129e-12  5.6831557301320104e-12  4.7975659628364378e-12  4.0556049393004465e-12  3.4327983234785587e-12  2.9092553855517451e-12  2.4687428799571087e-12  2.0979445600946412e-12  1.7858241655524464e-12  1.5233953108253091e-12  1.3030989816328045e-12  1.1187477570784353e-12  9.6522563641443917e-13  8.3830632768157029e-13  7.3450115040221779e-13  6.5106474166684273e-13  5.8573037315142388e-13  5.3677802838620069e-13  5.0298296146040072e-13  4.8341264437342697e-13  4.7747407852324063e-13  9.6523357946731791e-01  9.8490187327238043e-01  9.8002669984160939e-01  9.8007306697447971e-01  9.8107017339575708e-01  9.8458485103029925e-01  9.9058651102660200e-01  9.9791373658886928e-01  1.0046746747910020e+00  1.0093085389953873e+00  1.0111682881602644e+00  1.0102440187458737e+00  1.0067546792088040e+00  1.0011349053788510e+00  9.9434241961119241e-01  9.8794068460325113e-01  9.8344785390719680e-01  9.8148060666675252e-01  9.8171089287997959e-01  9.8341007944624048e-01  9.8587450032223822e-01  9.8862528845815234e-01  9.9140719090911333e-01  9.9407446448578374e-01  9.9652342194727761e-01  9.9869902410725153e-01  1.0006149863215623e+00  1.0023126612192421e+00  1.0037537968324635e+00  1.0047033459524375e+00  1.0046873898022353e+00  1.0032536339877098e+00  1.0009268997537892e+00  9.9945239485632853e-01  9.9955651533796319e-01  9.9999817191955931e-01  9.9997944315344700e-01  9.9991663517467655e-01  9.9985696433773619e-01  9.9616630262429329e-01  9.8655047652389283e-01  4.7403729437610581e-01  9.4157437772530578e-03  1.0154433872098571e-02  -1.4714669526483513e-03  1.2140551625078300e-03  -9.0681021248168096e-05  -2.4837803484491222e-04  -3.0030608843987056e-05  5.7289075553079119e-05  2.1845178806944723e-05  -9.3776317707567287e-06  -4.1714306622293435e-06  2.1298629628899795e-06  3.5124208269731511e-07  -4.0643421156254999e-07  9.2518013878965549e-08  3.6007831211890225e-08  -2.3608041132980770e-08  8.9770820133545576e-09  1.0842121099989633e-09  -3.9362153135677237e-10  1.0150774924304868e-09  1.4966159082204207e-10  2.5735918668342020e-10  1.7610088341377331e-10  1.2203805315015267e-10  1.0142190814588179e-10  7.5462065606341768e-11  6.0708527985900415e-11  4.8087439027940552e-11  3.8813732392784435e-11  3.1510522585603381e-11  2.5773987483651082e-11  2.1208879128857087e-11  1.7539838998463324e-11  1.4568981431009316e-11  1.2145392709483079e-11  1.0156623574154334e-11  8.5159765100992781e-12  7.1565717157002897e-12  6.0258987487503249e-12  5.0824531272282761e-12  4.2932144784724838e-12  3.6315453862563319e-12  3.0759419231734356e-12  2.6088827688402946e-12  2.2159897289217061e-12  1.8855515841178680e-12  1.6078423803397927e-12  1.3748109270556807e-12  1.1799064949483892e-12  1.0176325133791175e-12  8.8352506759043894e-13  7.7386282453819796e-13  6.8570890600821374e-13  6.1670432653398793e-13  5.6494569380501869e-13  5.2910263449648967e-13  5.0820201624625570e-13  5.0149874771933372e-13  1.0975318263450760e+00  1.0454306198516066e+00  1.0549085791491883e+00  1.0550155474352443e+00  1.0501509533829427e+00  1.0352488321739026e+00  1.0074918432326831e+00  9.6860513760671729e-01  9.2530969751345782e-01  8.8692277987918910e-01  8.6128402461409170e-01  8.5292630303301564e-01  8.6323477454325548e-01  8.9053311585917705e-01  9.2961907865552151e-01  9.7195013248208051e-01  1.0081844884193127e+00  1.0325542634689222e+00  1.0446793548280282e+00  1.0473314845811752e+00  1.0439775391494919e+00  1.0374337768086694e+00  1.0294384040141342e+00  1.0209806876959375e+00  1.0127153799528748e+00  1.0050831201629014e+00  9.9825627998230571e-01  9.9215356763323326e-01  9.8675879735888150e-01  9.8255583991015971e-01  9.8088818826349500e-01  9.8370256426498448e-01  9.9154475924782348e-01  9.9977315616974405e-01  1.0020978332541131e+00  1.0002708623257854e+00  9.9958961748004427e-01  9.9988828187330847e-01  9.9953304303010393e-01  9.9922670290126114e-01  9.9039420732918659e-01  8.7791305776637518e-01  2.2934149700246390e-01  1.0563285710793964e-02  9.6697704056533003e-03  -2.7040885595735744e-03  -9.7597311958789513e-04  1.0850737434807490e-03  5.0953176707898651e-04  -1.3384269769471411e-04  -1.6480238137899761e-04  5.3426081751478996e-06  3.3691244634785058e-05  -3.0415282273651729e-06  -4.9393814189409958e-06  1.8056992872383180e-06  2.0361245463830517e-07  -3.3165774912697403e-07  1.2279671888994011e-07  -4.5112246692481110e-09  -1.1439172443457647e-08  8.7087961092367851e-09  -1.8902072660308448e-09  8.5181631585843572e-10  3.6021250193657334e-10  1.2642523953071641e-10  1.9988780623069763e-10  1.0228156009082865e-10  9.5039887457430667e-11  6.9228291855880308e-11  5.5737604376457851e-11  4.4307487168318708e-11  3.5719227607165194e-11  2.9046439839374494e-11  2.3765498051369756e-11  1.9571012337793581e-11  1.6193407947944523e-11  1.3457282597198009e-11  1.1223228170341213e-11  9.3888767480159189e-12  7.8747574412044617e-12  6.6195880509232719e-12  5.5752826465998627e-12  4.7037191494174189e-12  3.9745617381533876e-12  3.3633352321594535e-12  2.8502987745300392e-12  2.4192702853117238e-12  2.0571334985328588e-12  1.7530352075220839e-12  1.4980972113559525e-12  1.2849747940400838e-12  1.1076178390552999e-12  9.6110310234020602e-13  8.4135522092877236e-13  7.4510441225517125e-13  6.6973006965777453e-13  6.1321413224319696e-13  5.7401764020756082e-13  5.5105252083059946e-13  5.4366994910474947e-13  4.7796393754330985e-01  5.5034001126495857e-01  5.1386302641215753e-01  4.5640081351166556e-01  3.7940003267746797e-01  2.9001005392369134e-01  2.0118005303582986e-01  1.2417227305270746e-01  6.5708486843197203e-02  2.7590754844455639e-02  7.0358041668007031e-03  9.6355954220778221e-05  4.7212451531051204e-03  2.1710096054946979e-02  5.4474571707846524e-02  1.0730425204767129e-01  1.8185860037983487e-01  2.7363725804358441e-01  3.7468666430531561e-01  4.7643312274413047e-01  5.7226952729885405e-01  6.5819341246097318e-01  7.3314737078034009e-01  7.9848164888234230e-01  8.5508378176800504e-01  9.0364012369689883e-01  9.4468553520388177e-01  9.7963114404360352e-01  1.0099126514623564e+00  1.0355991748418425e+00  1.0536845505379744e+00  1.0577018098798538e+00  1.0413823350851383e+00  1.0102280276584596e+00  9.9020005996653415e-01  9.9393819685984330e-01  1.0003560797872237e+00  9.9961458265344416e-01  9.9924206893788203e-01  9.9899003595650315e-01  9.9584735494273924e-01  9.8702315406078489e-01  8.6124606866644660e-01  2.9742059189357861e-01  -5.3364946576582349e-03  9.6720365408954068e-03  1.0784714623870996e-02  -1.8355258614847218e-03  -3.2157938370618111e-03  -3.2054344431166988e-04  8.1677333540227162e-04  2.4555688273555638e-04  -1.4933544966566872e-04  -3.7494049238305582e-05  3.0836029441556338e-05  -1.6116676632559696e-06  -4.0304545680859926e-06  1.8498035409083031e-06  -2.0955751827659432e-07  -1.4594490177895846e-07  1.0913166688071947e-07  -3.5158068807271875e-08  7.7399756204555601e-09  1.3160653566799543e-09  -7.5828321212702672e-10  8.9285901227721509e-10  -1.3963388556310478e-11  2.1714846810816107e-10  9.7446141548523277e-11  8.9630299468467940e-11  6.7104281845800722e-11  5.2917997279349773e-11  4.2399813367737015e-11  3.4033091113264903e-11  2.7697164529425845e-11  2.2642473848907346e-11  1.8643506590795310e-11  1.5421903481797106e-11  1.2814050275559040e-11  1.0685319048906890e-11  8.9379517685622776e-12  7.4960158834381274e-12  6.3010062632794730e-12  5.3070110595743165e-12  4.4777869129160398e-12  3.7843673552589054e-12  3.2034798799746617e-12  2.7163385363879293e-12  2.3076202130358312e-12  1.9648433486625700e-12  1.6777570228460663e-12  1.4379756805012984e-12  1.2385760565035695e-12  1.0739402012462101e-12  9.3944556990158654e-13  8.3136957387129052e-13  7.4675553149681232e-13  6.8328443040875472e-13  6.3925532698703735e-13  6.1346545732519688e-13  6.0518254521149294e-13  -2.0176725326224925e-02  -7.2255170249769754e-02  -7.8018834622037583e-02  -7.4838398889518529e-02  -6.9679309081327370e-02  -5.9228268590920230e-02  -4.4726734547767502e-02  -2.9052180613526785e-02  -1.5090981574252323e-02  -4.6881211310469207e-03  1.7323501283225968e-03  4.7799260062964602e-03  5.1420391392031466e-03  3.0098487312927320e-03  -2.0004858296860340e-03  -1.0554722400058558e-02  -2.2847247160342164e-02  -3.7630311833559381e-02  -5.2318861370014479e-02  -6.4017308557320560e-02  -7.0371579440039800e-02  -7.0028126529809456e-02  -6.2675499150151859e-02  -4.8367106906968466e-02  -2.7328074286367250e-02  3.9050129504612770e-05  3.3031452189166546e-02  7.1819100490098944e-02  1.1905412217668125e-01  1.8092665927260573e-01  2.6766645954267410e-01  3.9288786453370700e-01  5.6793791478981848e-01  7.8070301755630533e-01  9.6163129913545708e-01  1.0173302238729869e+00  9.9533907274988465e-01  9.9466658312507550e-01  9.9962970432330833e-01  9.9823858000117616e-01  9.9861074788532400e-01  9.9537126555975042e-01  9.8823437421179128e-01  9.6680594240402207e-01  6.3324758616139265e-01  1.4526243431584873e-01  -3.0756929764692326e-02  -4.4012567210269136e-03  1.5066819931564994e-02  6.6710647285221662e-03  -2.1745238035660057e-03  -2.1756826976135910e-03  2.5527900815538990e-04  4.1576725851243210e-04  -9.4545419032791210e-05  -4.0051692923565084e-05  2.7429824611448462e-05  -4.8952161348049706e-06  -1.5614415600241643e-06  1.4562531236589358e-06  -5.3068313060585298e-07  1.0963527201444127e-07  8.1616329400381979e-09  -1.4930330125260990e-08  9.0838865463692461e-09  -2.6821685412204994e-09  1.2233681080342855e-09  -1.7678551382612639e-11  1.9280008201797541e-10  1.0938254971543862e-10  8.3715923115781131e-11  6.7602131284205287e-11  5.1493680382046859e-11  4.1676172358209484e-11  3.3264761164106441e-11  2.7076268111803702e-11  2.2105277609380515e-11  1.8189324697882452e-11  1.5036599587094922e-11  1.2487665107835602e-11  1.0408854387909092e-11  8.7037910164565149e-12  7.2977587007626462e-12  6.1332453172407180e-12  5.1652877433806297e-12  4.3583476182428328e-12  3.6841347125228152e-12  3.1199647899154283e-12  2.6475060144119525e-12  2.2518847213989635e-12  1.9209696610799569e-12  1.6448848190124934e-12  1.4155110645776419e-12  1.2262410508926808e-12  1.0717410268606883e-12  9.4762529749834146e-13  8.5050286571176995e-13  7.7764999523941636e-13  7.2711148687432084e-13  6.9752661736018574e-13  6.8805781730880202e-13  -3.7586383545047057e-04  1.4057037239102703e-02  2.2059224665708459e-02  2.1253397308997304e-02  2.0023651562828707e-02  1.7835571713521625e-02  1.4294847934499486e-02  1.0071188915989935e-02  5.9675763808878920e-03  2.6346887381978744e-03  3.6996854115998551e-04  -8.8046988220923756e-04  -1.3201332512900313e-03  -1.0772409065110322e-03  -1.2022935851856547e-04  1.7134782910423565e-03  4.5788638766517589e-03  8.3626789995317179e-03  1.2543127214334718e-02  1.6368259889296365e-02  1.9132164499525494e-02  2.0351121250945105e-02  1.9839652626068023e-02  1.7615886673131319e-02  1.3774140185561345e-02  8.4649584927255651e-03  1.9426812316484616e-03  -5.5249324041440669e-03  -1.3945674226062915e-02  -2.3729880209908436e-02  -3.5385917759790671e-02  -4.8260680993140855e-02  -5.6383317499603985e-02  -3.6024951162266533e-02  8.2228175849305446e-02  4.0357193762322174e-01  8.2645736258215297e-01  9.9061723936584789e-01  9.8758728559592679e-01  9.9901892617177634e-01  9.9823574790310521e-01  9.9871327707850788e-01  9.9897708623823744e-01  9.8979102891677651e-01  1.0019607042701328e+00  9.6910117836650878e-01  6.7017035456429275e-01  2.3901186903295124e-01  -5.0716344936905878e-03  -3.7079458418487275e-02  -1.1080115472231920e-03  1.2137640443509536e-02  2.6073653616077827e-03  -2.2315278042641853e-03  -1.6290037321076199e-04  3.8457192476002854e-04  -9.8574220932337443e-05  -1.2670417417780077e-05  1.9387047441363550e-05  -7.8016103701333172e-06  1.6942666100631211e-06  4.6783991459078958e-08  -2.1239431770232915e-07  1.1988591630338990e-07  -4.2834774511838009e-08  1.3841222977945704e-08  -2.7311166105319950e-09  8.9306031274194279e-10  1.7008043284183721e-10  1.2768950105267087e-10  1.3253712555210630e-10  7.7969322582203758e-11  6.9596272984930848e-11  5.1060611035426258e-11  4.1716132929972139e-11  3.3119673124919391e-11  2.6943623276057775e-11  2.1966770124161761e-11  1.8058069447327107e-11  1.4916532166262279e-11  1.2379689176910371e-11  1.0313472584434788e-11  8.6202995139194222e-12  7.2254120249876044e-12  6.0711409695692443e-12  5.1125450100398906e-12  4.3141885025745142e-12  3.6479637083017565e-12  3.0912936129309190e-12  2.6260745431382789e-12  2.2375761803153387e-12  1.9138776099655870e-12  1.6452556994151782e-12  1.4237892875055133e-12  1.2431281234068991e-12  1.0981186610218258e-12  9.8467476015638771e-13  8.9961588912881870e-13  8.4065790363126935e-13  8.0612156826442590e-13  7.9512961269991845e-13  6.3720571574144176e-04  -1.6730570125536328e-03  -5.1480475591372662e-03  -5.9415507186257564e-03  -5.5191781934233819e-03  -5.1061927795075885e-03  -4.3333245734095164e-03  -3.2673740533674307e-03  -2.1277298268560360e-03  -1.1158592672384517e-03  -3.6270713098784696e-04  1.0284868488438225e-04  3.2315431498598963e-04  3.4809212959382573e-04  1.9147231728801507e-04  -1.7535006154378608e-04  -8.0193079767356009e-04  -1.7014373362469726e-03  -2.7879070708853246e-03  -3.8819042718904670e-03  -4.7799377339508191e-03  -5.3179549344714730e-03  -5.4063151118070724e-03  -5.0263471787291890e-03  -4.1948960337766872e-03  -2.9423678611261886e-03  -1.3207628951185544e-03  5.9691409976641099e-04  2.7757825044858937e-03  5.2922020072220174e-03  8.3296873159967762e-03  1.2063314044929167e-02  1.6131853404764637e-02  1.8333706298193711e-02  1.1678252309033127e-02  -1.4633500179331108e-02  6.1539593995179082e-02  5.5899005370088550e-01  9.7184503005605527e-01  9.8888256188627788e-01  9.9911644182801318e-01  9.9921068952119307e-01  9.9904951202847125e-01  1.0002548481490006e+00  9.9800407865569829e-01  9.8838384928961831e-01  1.0046473274744150e+00  1.0109553339214037e+00  8.5521925803561416e-01  5.1817368463842162e-01  1.6778464361008755e-01  -1.6827012326331502e-02  -2.4204799427201617e-02  7.0579401985458859e-03  4.6688710706268661e-03  -1.8303797738250373e-03  5.5666715876503485e-07  2.5293290987722292e-04  -1.1415974019084047e-04  2.6692868507782332e-05  -1.8358665150286514e-07  -2.8896860523307755e-06  1.6614188600817415e-06  -6.1793540197659292e-07  1.8824832770552614e-07  -4.3733738562880818e-08  9.0159653810830527e-09  -1.1901026758093987e-10  -4.7070012773049034e-11  4.8303709498766405e-10  4.4095223187046497e-11  1.5990972160981599e-10  7.3355262210214573e-11  7.2286366507426540e-11  5.1421117390864780e-11  4.2239736176394460e-11  3.3419404558463751e-11  2.7145428785282459e-11  2.2107214147114039e-11  1.8152168563718655e-11  1.4982465240185941e-11  1.2425334785776747e-11  1.0345694990761358e-11  8.6433191709922028e-12  7.2423340343663727e-12  6.0841910205322084e-12  5.1234509387393287e-12  4.3243288894186949e-12  3.6585040338309795e-12  3.1033300763045251e-12  2.6406333394874082e-12  2.2557369708790206e-12  1.9367772511048283e-12  1.6741275992895382e-12  1.4600649155241694e-12  1.2883633572711263e-12  1.1541167672300119e-12  1.0535293972600794e-12  9.8380192960095185e-13  9.4298354423842219e-13  9.3004023196274663e-13  -1.3691667834605676e-04  5.3977829161277082e-05  9.4846199287394793e-04  1.5636663007007972e-03  1.5507933237974472e-03  1.4276158987010319e-03  1.2777975115997118e-03  1.0250394685218352e-03  7.2208974266935850e-04  4.2808614886697332e-04  1.8891071779491105e-04  2.6053388908747115e-05  -6.4062865714975073e-05  -9.5736528167558835e-05  -7.8337214226570232e-05  -9.6203016411458882