<?xml version="1.0"?>
<VTKFile type="UnstructuredGrid"  version="0.1"  >
<UnstructuredGrid>
<Piece  NumberOfPoints="5151" NumberOfCells="10000">
<Points>
<DataArray  type="Float64"  NumberOfComponents="3"  format="ascii">0 0 0  0.01 0 0  0.02 0 0  0.03 0 0  0.04 0 0  0.05 0 0  0.06 0 0  0.07000000000000001 0 0  0.08 0 0  0.09 0 0  0.1 0 0  0.11 0 0  0.12 0 0  0.13 0 0  0.14 0 0  0.15 0 0  0.16 0 0  0.17 0 0  0.18 0 0  0.19 0 0  0.2 0 0  0.21 0 0  0.22 0 0  0.23 0 0  0.24 0 0  0.25 0 0  0.26 0 0  0.27 0 0  0.28 0 0  0.29 0 0  0.3 0 0  0.31 0 0  0.32 0 0  0.33 0 0  0.34 0 0  0.35 0 0  0.36 0 0  0.37 0 0  0.38 0 0  0.39 0 0  0.4 0 0  0.41 0 0  0.42 0 0  0.43 0 0  0.44 0 0  0.45 0 0  0.46 0 0  0.47 0 0  0.48 0 0  0.49 0 0  0.5 0 0  0.51 0 0  0.52 0 0  0.53 0 0  0.54 0 0  0.55 0 0  0.5600000000000001 0 0  0.57 0 0  0.58 0 0  0.59 0 0  0.6 0 0  0.61 0 0  0.62 0 0  0.63 0 0  0.64 0 0  0.65 0 0  0.66 0 0  0.67 0 0  0.68 0 0  0.6899999999999999 0 0  0.7 0 0  0.71 0 0  0.72 0 0  0.73 0 0  0.74 0 0  0.75 0 0  0.76 0 0  0.77 0 0  0.78 0 0  0.79 0 0  0.8 0 0  0.8100000000000001 0 0  0.82 0 0  0.83 0 0  0.84 0 0  0.85 0 0  0.86 0 0  0.87 0 0  0.88 0 0  0.89 0 0  0.9 0 0  0.91 0 0  0.92 0 0  0.93 0 0  0.9399999999999999 0 0  0.95 0 0  0.96 0 0  0.97 0 0  0.98 0 0  0.99 0 0  1 0 0  0 0.01 0  0.01 0.01 0  0.02 0.01 0  0.03 0.01 0  0.04 0.01 0  0.05 0.01 0  0.06 0.01 0  0.07000000000000001 0.01 0  0.08 0.01 0  0.09 0.01 0  0.1 0.01 0  0.11 0.01 0  0.12 0.01 0  0.13 0.01 0  0.14 0.01 0  0.15 0.01 0  0.16 0.01 0  0.17 0.01 0  0.18 0.01 0  0.19 0.01 0  0.2 0.01 0  0.21 0.01 0  0.22 0.01 0  0.23 0.01 0  0.24 0.01 0  0.25 0.01 0  0.26 0.01 0  0.27 0.01 0  0.28 0.01 0  0.29 0.01 0  0.3 0.01 0  0.31 0.01 0  0.32 0.01 0  0.33 0.01 0  0.34 0.01 0  0.35 0.01 0  0.36 0.01 0  0.37 0.01 0  0.38 0.01 0  0.39 0.01 0  0.4 0.01 0  0.41 0.01 0  0.42 0.01 0  0.43 0.01 0  0.44 0.01 0  0.45 0.01 0  0.46 0.01 0  0.47 0.01 0  0.48 0.01 0  0.49 0.01 0  0.5 0.01 0  0.51 0.01 0  0.52 0.01 0  0.53 0.01 0  0.54 0.01 0  0.55 0.01 0  0.5600000000000001 0.01 0  0.57 0.01 0  0.58 0.01 0  0.59 0.01 0  0.6 0.01 0  0.61 0.01 0  0.62 0.01 0  0.63 0.01 0  0.64 0.01 0  0.65 0.01 0  0.66 0.01 0  0.67 0.01 0  0.68 0.01 0  0.6899999999999999 0.01 0  0.7 0.01 0  0.71 0.01 0  0.72 0.01 0  0.73 0.01 0  0.74 0.01 0  0.75 0.01 0  0.76 0.01 0  0.77 0.01 0  0.78 0.01 0  0.79 0.01 0  0.8 0.01 0  0.8100000000000001 0.01 0  0.82 0.01 0  0.83 0.01 0  0.84 0.01 0  0.85 0.01 0  0.86 0.01 0  0.87 0.01 0  0.88 0.01 0  0.89 0.01 0  0.9 0.01 0  0.91 0.01 0  0.92 0.01 0  0.93 0.01 0  0.9399999999999999 0.01 0  0.95 0.01 0  0.96 0.01 0  0.97 0.01 0  0.98 0.01 0  0.99 0.01 0  1 0.01 0  0 0.02 0  0.01 0.02 0  0.02 0.02 0  0.03 0.02 0  0.04 0.02 0  0.05 0.02 0  0.06 0.02 0  0.07000000000000001 0.02 0  0.08 0.02 0  0.09 0.02 0  0.1 0.02 0  0.11 0.02 0  0.12 0.02 0  0.13 0.02 0  0.14 0.02 0  0.15 0.02 0  0.16 0.02 0  0.17 0.02 0  0.18 0.02 0  0.19 0.02 0  0.2 0.02 0  0.21 0.02 0  0.22 0.02 0  0.23 0.02 0  0.24 0.02 0  0.25 0.02 0  0.26 0.02 0  0.27 0.02 0  0.28 0.02 0  0.29 0.02 0  0.3 0.02 0  0.31 0.02 0  0.32 0.02 0  0.33 0.02 0  0.34 0.02 0  0.35 0.02 0  0.36 0.02 0  0.37 0.02 0  0.38 0.02 0  0.39 0.02 0  0.4 0.02 0  0.41 0.02 0  0.42 0.02 0  0.43 0.02 0  0.44 0.02 0  0.45 0.02 0  0.46 0.02 0  0.47 0.02 0  0.48 0.02 0  0.49 0.02 0  0.5 0.02 0  0.51 0.02 0  0.52 0.02 0  0.53 0.02 0  0.54 0.02 0  0.55 0.02 0  0.5600000000000001 0.02 0  0.57 0.02 0  0.58 0.02 0  0.59 0.02 0  0.6 0.02 0  0.61 0.02 0  0.62 0.02 0  0.63 0.02 0  0.64 0.02 0  0.65 0.02 0  0.66 0.02 0  0.67 0.02 0  0.68 0.02 0  0.6899999999999999 0.02 0  0.7 0.02 0  0.71 0.02 0  0.72 0.02 0  0.73 0.02 0  0.74 0.02 0  0.75 0.02 0  0.76 0.02 0  0.77 0.02 0  0.78 0.02 0  0.79 0.02 0  0.8 0.02 0  0.8100000000000001 0.02 0  0.82 0.02 0  0.83 0.02 0  0.84 0.02 0  0.85 0.02 0  0.86 0.02 0  0.87 0.02 0  0.88 0.02 0  0.89 0.02 0  0.9 0.02 0  0.91 0.02 0  0.92 0.02 0  0.93 0.02 0  0.9399999999999999 0.02 0  0.95 0.02 0  0.96 0.02 0  0.97 0.02 0  0.98 0.02 0  0.99 0.02 0  1 0.02 0  0 0.03 0  0.01 0.03 0  0.02 0.03 0  0.03 0.03 0  0.04 0.03 0  0.05 0.03 0  0.06 0.03 0  0.07000000000000001 0.03 0  0.08 0.03 0  0.09 0.03 0  0.1 0.03 0  0.11 0.03 0  0.12 0.03 0  0.13 0.03 0  0.14 0.03 0  0.15 0.03 0  0.16 0.03 0  0.17 0.03 0  0.18 0.03 0  0.19 0.03 0  0.2 0.03 0  0.21 0.03 0  0.22 0.03 0  0.23 0.03 0  0.24 0.03 0  0.25 0.03 0  0.26 0.03 0  0.27 0.03 0  0.28 0.03 0  0.29 0.03 0  0.3 0.03 0  0.31 0.03 0  0.32 0.03 0  0.33 0.03 0  0.34 0.03 0  0.35 0.03 0  0.36 0.03 0  0.37 0.03 0  0.38 0.03 0  0.39 0.03 0  0.4 0.03 0  0.41 0.03 0  0.42 0.03 0  0.43 0.03 0  0.44 0.03 0  0.45 0.03 0  0.46 0.03 0  0.47 0.03 0  0.48 0.03 0  0.49 0.03 0  0.5 0.03 0  0.51 0.03 0  0.52 0.03 0  0.53 0.03 0  0.54 0.03 0  0.55 0.03 0  0.5600000000000001 0.03 0  0.57 0.03 0  0.58 0.03 0  0.59 0.03 0  0.6 0.03 0  0.61 0.03 0  0.62 0.03 0  0.63 0.03 0  0.64 0.03 0  0.65 0.03 0  0.66 0.03 0  0.67 0.03 0  0.68 0.03 0  0.6899999999999999 0.03 0  0.7 0.03 0  0.71 0.03 0  0.72 0.03 0  0.73 0.03 0  0.74 0.03 0  0.75 0.03 0  0.76 0.03 0  0.77 0.03 0  0.78 0.03 0  0.79 0.03 0  0.8 0.03 0  0.8100000000000001 0.03 0  0.82 0.03 0  0.83 0.03 0  0.84 0.03 0  0.85 0.03 0  0.86 0.03 0  0.87 0.03 0  0.88 0.03 0  0.89 0.03 0  0.9 0.03 0  0.91 0.03 0  0.92 0.03 0  0.93 0.03 0  0.9399999999999999 0.03 0  0.95 0.03 0  0.96 0.03 0  0.97 0.03 0  0.98 0.03 0  0.99 0.03 0  1 0.03 0  0 0.04 0  0.01 0.04 0  0.02 0.04 0  0.03 0.04 0  0.04 0.04 0  0.05 0.04 0  0.06 0.04 0  0.07000000000000001 0.04 0  0.08 0.04 0  0.09 0.04 0  0.1 0.04 0  0.11 0.04 0  0.12 0.04 0  0.13 0.04 0  0.14 0.04 0  0.15 0.04 0  0.16 0.04 0  0.17 0.04 0  0.18 0.04 0  0.19 0.04 0  0.2 0.04 0  0.21 0.04 0  0.22 0.04 0  0.23 0.04 0  0.24 0.04 0  0.25 0.04 0  0.26 0.04 0  0.27 0.04 0  0.28 0.04 0  0.29 0.04 0  0.3 0.04 0  0.31 0.04 0  0.32 0.04 0  0.33 0.04 0  0.34 0.04 0  0.35 0.04 0  0.36 0.04 0  0.37 0.04 0  0.38 0.04 0  0.39 0.04 0  0.4 0.04 0  0.41 0.04 0  0.42 0.04 0  0.43 0.04 0  0.44 0.04 0  0.45 0.04 0  0.46 0.04 0  0.47 0.04 0  0.48 0.04 0  0.49 0.04 0  0.5 0.04 0  0.51 0.04 0  0.52 0.04 0  0.53 0.04 0  0.54 0.04 0  0.55 0.04 0  0.5600000000000001 0.04 0  0.57 0.04 0  0.58 0.04 0  0.59 0.04 0  0.6 0.04 0  0.61 0.04 0  0.62 0.04 0  0.63 0.04 0  0.64 0.04 0  0.65 0.04 0  0.66 0.04 0  0.67 0.04 0  0.68 0.04 0  0.6899999999999999 0.04 0  0.7 0.04 0  0.71 0.04 0  0.72 0.04 0  0.73 0.04 0  0.74 0.04 0  0.75 0.04 0  0.76 0.04 0  0.77 0.04 0  0.78 0.04 0  0.79 0.04 0  0.8 0.04 0  0.8100000000000001 0.04 0  0.82 0.04 0  0.83 0.04 0  0.84 0.04 0  0.85 0.04 0  0.86 0.04 0  0.87 0.04 0  0.88 0.04 0  0.89 0.04 0  0.9 0.04 0  0.91 0.04 0  0.92 0.04 0  0.93 0.04 0  0.9399999999999999 0.04 0  0.95 0.04 0  0.96 0.04 0  0.97 0.04 0  0.98 0.04 0  0.99 0.04 0  1 0.04 0  0 0.05 0  0.01 0.05 0  0.02 0.05 0  0.03 0.05 0  0.04 0.05 0  0.05 0.05 0  0.06 0.05 0  0.07000000000000001 0.05 0  0.08 0.05 0  0.09 0.05 0  0.1 0.05 0  0.11 0.05 0  0.12 0.05 0  0.13 0.05 0  0.14 0.05 0  0.15 0.05 0  0.16 0.05 0  0.17 0.05 0  0.18 0.05 0  0.19 0.05 0  0.2 0.05 0  0.21 0.05 0  0.22 0.05 0  0.23 0.05 0  0.24 0.05 0  0.25 0.05 0  0.26 0.05 0  0.27 0.05 0  0.28 0.05 0  0.29 0.05 0  0.3 0.05 0  0.31 0.05 0  0.32 0.05 0  0.33 0.05 0  0.34 0.05 0  0.35 0.05 0  0.36 0.05 0  0.37 0.05 0  0.38 0.05 0  0.39 0.05 0  0.4 0.05 0  0.41 0.05 0  0.42 0.05 0  0.43 0.05 0  0.44 0.05 0  0.45 0.05 0  0.46 0.05 0  0.47 0.05 0  0.48 0.05 0  0.49 0.05 0  0.5 0.05 0  0.51 0.05 0  0.52 0.05 0  0.53 0.05 0  0.54 0.05 0  0.55 0.05 0  0.5600000000000001 0.05 0  0.57 0.05 0  0.58 0.05 0  0.59 0.05 0  0.6 0.05 0  0.61 0.05 0  0.62 0.05 0  0.63 0.05 0  0.64 0.05 0  0.65 0.05 0  0.66 0.05 0  0.67 0.05 0  0.68 0.05 0  0.6899999999999999 0.05 0  0.7 0.05 0  0.71 0.05 0  0.72 0.05 0  0.73 0.05 0  0.74 0.05 0  0.75 0.05 0  0.76 0.05 0  0.77 0.05 0  0.78 0.05 0  0.79 0.05 0  0.8 0.05 0  0.8100000000000001 0.05 0  0.82 0.05 0  0.83 0.05 0  0.84 0.05 0  0.85 0.05 0  0.86 0.05 0  0.87 0.05 0  0.88 0.05 0  0.89 0.05 0  0.9 0.05 0  0.91 0.05 0  0.92 0.05 0  0.93 0.05 0  0.9399999999999999 0.05 0  0.95 0.05 0  0.96 0.05 0  0.97 0.05 0  0.98 0.05 0  0.99 0.05 0  1 0.05 0  0 0.06 0  0.01 0.06 0  0.02 0.06 0  0.03 0.06 0  0.04 0.06 0  0.05 0.06 0  0.06 0.06 0  0.07000000000000001 0.06 0  0.08 0.06 0  0.09 0.06 0  0.1 0.06 0  0.11 0.06 0  0.12 0.06 0  0.13 0.06 0  0.14 0.06 0  0.15 0.06 0  0.16 0.06 0  0.17 0.06 0  0.18 0.06 0  0.19 0.06 0  0.2 0.06 0  0.21 0.06 0  0.22 0.06 0  0.23 0.06 0  0.24 0.06 0  0.25 0.06 0  0.26 0.06 0  0.27 0.06 0  0.28 0.06 0  0.29 0.06 0  0.3 0.06 0  0.31 0.06 0  0.32 0.06 0  0.33 0.06 0  0.34 0.06 0  0.35 0.06 0  0.36 0.06 0  0.37 0.06 0  0.38 0.06 0  0.39 0.06 0  0.4 0.06 0  0.41 0.06 0  0.42 0.06 0  0.43 0.06 0  0.44 0.06 0  0.45 0.06 0  0.46 0.06 0  0.47 0.06 0  0.48 0.06 0  0.49 0.06 0  0.5 0.06 0  0.51 0.06 0  0.52 0.06 0  0.53 0.06 0  0.54 0.06 0  0.55 0.06 0  0.5600000000000001 0.06 0  0.57 0.06 0  0.58 0.06 0  0.59 0.06 0  0.6 0.06 0  0.61 0.06 0  0.62 0.06 0  0.63 0.06 0  0.64 0.06 0  0.65 0.06 0  0.66 0.06 0  0.67 0.06 0  0.68 0.06 0  0.6899999999999999 0.06 0  0.7 0.06 0  0.71 0.06 0  0.72 0.06 0  0.73 0.06 0  0.74 0.06 0  0.75 0.06 0  0.76 0.06 0  0.77 0.06 0  0.78 0.06 0  0.79 0.06 0  0.8 0.06 0  0.8100000000000001 0.06 0  0.82 0.06 0  0.83 0.06 0  0.84 0.06 0  0.85 0.06 0  0.86 0.06 0  0.87 0.06 0  0.88 0.06 0  0.89 0.06 0  0.9 0.06 0  0.91 0.06 0  0.92 0.06 0  0.93 0.06 0  0.9399999999999999 0.06 0  0.95 0.06 0  0.96 0.06 0  0.97 0.06 0  0.98 0.06 0  0.99 0.06 0  1 0.06 0  0 0.07000000000000001 0  0.01 0.07000000000000001 0  0.02 0.07000000000000001 0  0.03 0.07000000000000001 0  0.04 0.07000000000000001 0  0.05 0.07000000000000001 0  0.06 0.07000000000000001 0  0.07000000000000001 0.07000000000000001 0  0.08 0.07000000000000001 0  0.09 0.07000000000000001 0  0.1 0.07000000000000001 0  0.11 0.07000000000000001 0  0.12 0.07000000000000001 0  0.13 0.07000000000000001 0  0.14 0.07000000000000001 0  0.15 0.07000000000000001 0  0.16 0.07000000000000001 0  0.17 0.07000
[...]
<PointData  Scalars="rho_bar"> 
<DataArray  type="Float64"  Name="rho_bar"  format="ascii">9.9538496737776194e-01  9.9592296097137678e-01  9.9537331014673514e-01  9.9523407803604169e-01  9.9502022194440232e-01  9.9484666466175842e-01  9.9463243985145555e-01  9.9429696619094088e-01  9.9378488687783362e-01  9.9312299274014226e-01  9.9242015860695676e-01  9.9181542550062352e-01  9.9141801063761759e-01  9.9128172529645753e-01  9.9141650267332726e-01  9.9180063529171669e-01  9.9238086701083150e-01  9.9308181825686481e-01  9.9382861119689669e-01  9.9456306061528510e-01  9.9524997492629408e-01  9.9587435751155262e-01  9.9643349011749571e-01  9.9692956774743335e-01  9.9736849460322585e-01  9.9776185143483664e-01  9.9812484082839448e-01  9.9846867107014425e-01  9.9879067697466895e-01  9.9906332906736717e-01  9.9923890515433245e-01  9.9930022985103728e-01  9.9930667909545967e-01  9.9932886398505560e-01  9.9935206115781983e-01  9.9930065618407959e-01  9.9907735450309765e-01  9.9845030935804857e-01  9.9570942235476534e-01  9.8384811165883845e-01  8.9175408413396384e-01  4.0077695594022594e-01  8.2984706908613884e-02  1.8016483728829833e-02  5.1614255694129967e-03  1.6997561836468100e-03  6.5547236604424585e-04  2.7952200060531141e-04  1.3928456070161046e-04  7.6046435608549472e-05  4.2456522754855653e-05  2.4495948067586587e-05  1.5170077825668819e-05  9.7689333354869797e-06  6.3544609825273737e-06  4.2505230816406639e-06  2.9247766209650181e-06  2.0463646277349452e-06  1.4606499512161248e-06  1.0634896106393420e-06  7.8736375062777770e-07  5.9265959236557520e-07  4.5291970319096447e-07  3.5087472448800109e-07  2.7522420341243935e-07  2.1827960751022202e-07  1.7481823237572062e-07  1.4121836169088277e-07  1.1493458934804589e-07  9.4153484157070234e-08  7.7564722646406726e-08  6.4208808907467062e-08  5.3374037492431015e-08  4.4525758390653931e-08  3.7257457912771026e-08  3.1256697547365693e-08  2.6280630550714138e-08  2.2138611144025289e-08  1.8679570298986104e-08  1.5782906874366627e-08  1.3351437040692846e-08  1.1306457763858986e-08  9.5836731767757761e-09  8.1304971074990709e-09  6.9034975516426364e-09  5.8668344883933034e-09  4.9906982615169792e-09  4.2503627929507559e-09  3.6251651132134471e-09  3.0979019864391386e-09  2.6541826877343951e-09  2.2820528299068872e-09  1.9715284118200979e-09  1.7143716969002702e-09  1.5037797759476682e-09  1.3342601778442940e-09  1.2014109847456511e-09  1.1018649915772887e-09  1.0332011859378654e-09  9.9422588550254465e-10  9.8572774380255003e-10  9.9973966084231169e-01  9.9720512035884057e-01  9.9755612424552220e-01  9.9691421312810802e-01  9.9593926769878871e-01  9.9442339888593900e-01  9.9240584106710161e-01  9.9007416947702276e-01  9.8772565015469782e-01  9.8567673513583387e-01  9.8418913659741714e-01  9.8345244058924486e-01  9.8358193240564351e-01  9.8458827137522287e-01  9.8632475669378639e-01  9.8848633116882745e-01  9.9071326523045466e-01  9.9272640243944665e-01  9.9438339021420652e-01  9.9565868209564701e-01  9.9659395807115314e-01  9.9725362092233294e-01  9.9770196262660971e-01  9.9799731027413607e-01  9.9818849423677813e-01  9.9830730000952361e-01  9.9836640446105651e-01  9.9837068430310416e-01  9.9833447986095447e-01  9.9830103392690794e-01  9.9835548634699478e-01  9.9857682748009990e-01  9.9890993775084702e-01  9.9916547658315014e-01  9.9923808128618774e-01  9.9917289246070240e-01  9.9895589744742308e-01  9.9827187858009669e-01  9.9592470800271859e-01  9.8461197271010836e-01  9.0327981042043526e-01  4.8027217503139191e-01  9.7761964346487637e-02  2.4262844631409462e-02  6.4005645951931674e-03  2.0321141293639365e-03  7.8241731007169628e-04  3.6823853239440944e-04  1.7917257703319709e-04  8.6328310747946869e-05  4.6520319830998398e-05  2.8857585347336768e-05  1.7936622637223764e-05  1.0923210539344690e-05  7.0636384434319853e-06  4.7519912188689191e-06  3.2066788248431006e-06  2.2203657021274914e-06  1.5765469465707961e-06  1.1367426765117774e-06  8.3588557568302597e-07  6.2556205159088031e-07  4.7537918700589548e-07  3.6663394361308335e-07  2.8645263093397181e-07  2.2642366546527463e-07  1.8082799245887442e-07  1.4572027450127010e-07  1.1835628754327296e-07  9.6788371484516784e-08  7.9617942136665371e-08  6.5826002090653824e-08  5.4660076626258394e-08  4.5557210816129926e-08  3.8091065227522411e-08  3.1934923545755689e-08  2.6835714132370158e-08  2.2595261137369347e-08  1.9056993887473802e-08  1.6096063903247253e-08  1.3612218265371711e-08  1.1524234194232054e-08  9.7660778133138024e-09  8.2835904547402901e-09  7.0322961295247725e-09  5.9753659194813903e-09  5.0823468737881231e-09  4.3278772830963852e-09  3.6908705571873354e-09  3.1537081977925317e-09  2.7017352889905887e-09  2.3227122090755333e-09  2.0064831408789599e-09  1.7446104160766776e-09  1.5301904486124765e-09  1.3575929996213351e-09  1.2223382222417344e-09  1.1209420553261720e-09  1.0508535330734454e-09  1.0102914329940636e-09  9.9796192892548747e-10  9.7575564539459247e-01  9.8402037671755072e-01  9.8135868578061447e-01  9.8052683554293429e-01  9.7959912321158604e-01  9.7914403970099417e-01  9.7913916300284798e-01  9.7925220740151964e-01  9.7893610308657975e-01  9.7782609536855669e-01  9.7604633306142030e-01  9.7413429931004125e-01  9.7265820864008290e-01  9.7189049343417089e-01  9.7179440340395995e-01  9.7224848730495950e-01  9.7320571221369589e-01  9.7463412642489067e-01  9.7645486692753547e-01  9.7854228440673718e-01  9.8075244190863287e-01  9.8296832309139859e-01  9.8512009587920979e-01  9.8716805544580566e-01  9.8907881744216330e-01  9.9083688273238724e-01  9.9247419174803575e-01  9.9405666276152316e-01  9.9562950213304058e-01  9.9714731304286996e-01  9.9840700075779643e-01  9.9906603034814889e-01  9.9897798154111461e-01  9.9858903978074987e-01  9.9847892116746362e-01  9.9857472010028869e-01  9.9844308341548182e-01  9.9776973410621528e-01  9.9558675502744209e-01  9.8635776211489834e-01  9.3722616277307991e-01  6.5229003825204412e-01  1.9774432512240209e-01  4.8214476416087636e-02  1.1996955722149278e-02  4.0962585804350179e-03  1.6721881702422927e-03  5.9482504794798607e-04  2.3193177365046972e-04  1.3858414954730493e-04  9.1036214910903052e-05  4.7952489158023187e-05  2.4318254229917947e-05  1.5807867737120896e-05  1.0466330714816983e-05  6.4068770830141527e-06  4.2174800132024122e-06  2.8913582333404577e-06  1.9721253837983031e-06  1.3915717740356843e-06  1.0038549243564177e-06  7.3563233981457220e-07  5.5056204947003271e-07  4.1863749438866113e-07  3.2316727888280101e-07  2.5288650131921950e-07  2.0021460904255515e-07  1.6017176021683150e-07  1.2929058481545880e-07  1.0517740897624804e-07  8.6135269713778498e-08  7.0946403376393435e-08  5.8723586981836412e-08  4.8810898420419020e-08  4.0716926563458873e-08  3.4068946815918709e-08  2.8580665923988275e-08  2.4029781329139762e-08  2.0241844177294329e-08  1.7078747319748918e-08  1.4430123913079294e-08  1.2207162634792236e-08  1.0337816966968202e-08  8.7634220395022030e-09  7.4358150857952932e-09  6.3153912068710821e-09  5.3693641649825324e-09  4.5706005237001135e-09  3.8965119493769899e-09  3.3283341978756214e-09  2.8504210787765267e-09  2.4497696747150551e-09  2.1155664251610823e-09  1.8388756863010723e-09  1.6123443001512617e-09  1.4300118491462657e-09  1.2871039214466528e-09  1.1799032147744456e-09  1.1055995120480499e-09  1.0622150272533702e-09  1.0483210226078140e-09  1.0026106335631391e+00  9.7804083483541049e-01  9.7967886563708628e-01  9.7464969297946857e-01  9.6499497643981003e-01  9.4836165977558295e-01  9.2337884963444949e-01  8.9052222424163197e-01  8.5284132223300779e-01  8.1575187600751031e-01  7.8528418281811863e-01  7.6635336416836275e-01  7.6170062720132292e-01  7.7192483017169911e-01  7.9548032063258289e-01  8.2841178499167489e-01  8.6475180453118461e-01  8.9874343968550063e-01  9.2701536373043358e-01  9.4857005790974902e-01  9.6396565879992591e-01  9.7440179757589451e-01  9.8112806277114084e-01  9.8521687582936412e-01  9.8748848638151998e-01  9.8858685253389467e-01  9.8890594768744577e-01  9.8861447447735784e-01  9.8778765104578170e-01  9.8661175929309941e-01  9.8561758249526821e-01  9.8583698120758745e-01  9.8833442139714456e-01  9.9249853971306323e-01  9.9572431937130534e-01  9.9672573525004993e-01  9.9670372563151399e-01  9.9628921143761062e-01  9.9448061664266585e-01  9.8831005005915951e-01  9.6277070938339371e-01  8.4659361595846272e-01  4.7549747737708248e-01  1.3890841806419629e-01  3.9154156571429663e-02  1.2678650416556438e-02  3.2697299175895749e-03  1.4770422774148439e-03  9.8109630664556906e-04  4.7378054249954966e-04  1.4992447236688818e-04  6.6225728651056007e-05  5.8414853808362776e-05  3.5486797016679087e-05  1.6608838346108521e-05  1.0760027803213843e-05  7.2120019892328553e-06  4.3210227301988654e-06  2.8881046808379303e-06  1.9747155752095201e-06  1.3508635109036468e-06  9.6624900723969715e-07  7.0167326216761213e-07  5.2053555602447412e-07  3.9403406933982552e-07  3.0286976129837005e-07  2.3635725251306863e-07  1.8675180218449611e-07  1.4918667873191701e-07  1.2030255246457674e-07  9.7794199270457874e-08  8.0046654436669880e-08  6.5905532878523916e-08  5.4534751279199637e-08  4.5318331834054641e-08  3.7796169162730468e-08  3.1619952821224832e-08  2.6522553497624215e-08  2.2296798406262571e-08  1.8780265649927800e-08  1.5844429757954387e-08  1.3386646232715275e-08  1.1324358212258968e-08  9.5906458013492764e-09  8.1310256456350730e-09  6.9008109467209288e-09  5.8632793754933903e-09  4.9880624002302910e-09  4.2500603582494237e-09  3.6284133149891667e-09  3.1058236791071526e-09  2.6679136446397866e-09  2.3027722793609981e-09  2.0005513228050544e-09  1.7531765053200291e-09  1.5540835693572030e-09  1.3980250052005788e-09  1.2808987554031547e-09  1.1996260234268039e-09  1.1520039107958143e-09  1.1367021926993261e-09  5.5737848438589876e-01  5.8933978959292488e-01  5.6448726320588194e-01  5.2368318246115297e-01  4.6804281758996347e-01  4.0112801374738877e-01  3.3000639113842256e-01  2.6208460676852646e-01  2.0371126984660481e-01  1.5916983523356834e-01  1.2940021009470470e-01  1.1332260886320086e-01  1.0932569451472075e-01  1.1670592165305017e-01  1.3619754148078830e-01  1.6937425700849987e-01  2.1676264190624470e-01  2.7586656629641937e-01  3.4258035489518768e-01  4.1222665409214893e-01  4.8078397689972063e-01  5.4522325749102063e-01  6.0408454987234250e-01  6.5774878075582854e-01  7.0627580274995583e-01  7.4973684247497885e-01  7.8815951574852183e-01  8.2303256889270615e-01  8.5638824958877746e-01  8.8977527208745577e-01  9.2281842760717647e-01  9.5236848177363997e-01  9.7289062525013736e-01  9.8076338282293352e-01  9.8153938408587171e-01  9.8463394067930732e-01  9.8959856526736067e-01  9.9176786763808944e-01  9.9142020348515891e-01  9.8834529532371318e-01  9.7784013884118370e-01  9.4348432361984813e-01  8.2521027797129909e-01  5.0743815756405453e-01  1.8079131060614745e-01  4.9408313340202549e-02  2.1129525688864923e-02  9.1314755392840133e-03  2.3409347714180356e-03  4.7821882884458106e-04  5.2230527188198365e-04  4.6365422728910852e-04  1.7809693996012309e-04  5.0525158957792717e-05  4.4343938172515476e-05  2.8314500282711833e-05  1.2362391282355777e-05  8.2113496860979116e-06  5.2399853338001868e-06  3.0890929507246564e-06  2.1113993482450267e-06  1.4144695921752456e-06  9.8180992002310224e-07  7.0731523386924340e-07  5.1708228891085149e-07  3.8822364555171481e-07  2.9635280683875610e-07  2.3001965187306761e-07  1.8101697123281906e-07  1.4413774076877994e-07  1.1594108329037628e-07  9.4059731852072198e-08  7.6866087646400402e-08  6.3203854779535130e-08  5.2242808548568684e-08  4.3374892798171562e-08  3.6148301512687775e-08  3.0222415851034318e-08  2.5336965814602884e-08  2.1290719817867037e-08  1.7926327470703990e-08  1.5119545638589269e-08  1.2771371489771930e-08  1.0802321782428182e-08  9.1480927982418161e-09  7.7564050069397212e-09  6.5844585532726195e-09  5.5971513384293677e-09  4.7655115728121318e-09  4.0656338696799095e-09  3.4777123134675785e-09  2.9853647703181987e-09  2.5750353400252064e-09  2.2355571014129576e-09  1.9577637685792550e-09  1.7342368297412847e-09  1.5590276239942747e-09  1.4275117789874937e-09  1.3362008654255898e-09  1.2826831782773958e-09  1.2655325895430537e-09  3.2484739571069433e-02  1.0970527920868394e-02  2.8637479016251385e-03  -4.3907431648040288e-03  -1.2572360837829229e-02  -1.8183898053283278e-02  -1.9924862519511564e-02  -1.8048164409886974e-02  -1.3908366053371176e-02  -9.1670726874367239e-03  -5.1120272630159986e-03  -2.3165475718755699e-03  -8.3706191320998859e-04  -5.2812295728072605e-04  -1.2791000076928711e-03  -3.0234537896639611e-03  -5.5122784904183333e-03  -8.0087418042948059e-03  -9.3601728889660223e-03  -8.3933379444628142e-03  -4.2248632237167540e-03  3.5625066911440999e-03  1.4946900755053710e-02  2.9916897838873639e-02  4.8382272963229354e-02  7.0152662661427320e-02  9.4873338963846532e-02  1.2311053757127056e-01  1.5728286728617635e-01  2.0199777278145920e-01  2.6410709243782210e-01  3.5248395843025460e-01  4.7604544404916460e-01  6.3382022600146337e-01  7.9541843091475950e-01  9.0677375879150013e-01  9.5341022819094845e-01  9.7201244470234716e-01  9.8240732716681445e-01  9.8548423408078534e-01  9.8406358120679494e-01  9.7612003931436886e-01  9.5327967957656157e-01  8.9259338562655122e-01  7.0381842207055800e-01  3.8578707778794696e-01  1.3327623627208918e-01  3.5229207748001125e-02  1.6218401812040182e-02  1.0804601479306640e-02  4.6804208335965245e-03  8.8467166836903824e-04  2.7323621891032124e-04  3.9883194957118600e-04  1.8461494979451584e-04  4.5711135083904386e-05  3.8314784688423836e-05  2.1555791308174588e-05  9.1454728055283777e-06  6.4689713057140240e-06  3.6951692406947284e-06  2.2887156587111439e-06  1.5568629349234837e-06  1.0348099487835456e-06  7.3624952095580246e-07  5.3083970510900456e-07  3.9387916980156690e-07  2.9841053846581611e-07  2.3003603655739229e-07  1.8014023803906711e-07  1.4285780057820802e-07  1.1454566891266364e-07  9.2688000219851560e-08  7.5586659589641572e-08  6.2045421680266893e-08  5.1212968294849032e-08  4.2470248257839028e-08  3.5360051877281314e-08  2.9539508510235234e-08  2.4747798687463662e-08  2.0784051383857781e-08  1.7491747500960313e-08  1.4747675581353989e-08  1.2453942554923380e-08  1.0532145663718589e-08  8.9190084547342497e-09  7.5632120355932370e-09  6.4228403163207014e-09  5.4635865927155058e-09  4.6572136671776969e-09  3.9804772797710597e-09  3.4141871293748566e-09  2.9425391098716534e-09  2.5525240446012956e-09  2.2335209517441052e-09  1.9768958297905772e-09  1.7757944595722378e-09  1.6248380161099433e-09  1.5200458273553307e-09  1.4586344050921672e-09  1.4390267870164783e-09  9.7784274479241549e-04  5.2628464368998235e-03  9.0023467676661872e-03  9.5284308665927846e-03  1.0236979378636352e-02  1.0724678028376075e-02  1.0431327176626246e-02  9.3422725532474361e-03  7.7008592321931406e-03  5.9094350791798365e-03  4.3415603791180759e-03  3.2119170476762773e-03  2.5699223846718522e-03  2.3832372555356350e-03  2.6181089741116647e-03  3.2748564317728558e-03  4.3537478871192069e-03  5.7635531663028398e-03  7.2755366409039774e-03  8.5944382883362865e-03  9.4601071492411391e-03  9.7123838034375767e-03  9.3218939043753606e-03  8.3391845501436558e-03  6.8465959391869891e-03  4.9666025220334569e-03  2.8994702363615327e-03  8.9269789265782095e-04  -8.4846777455325811e-04  -2.0541889497280833e-03  -1.9513088873218763e-03  1.8257016157432460e-03  1.5892937809309456e-02  5.7340339395564835e-02  1.6376683288684890e-01  3.8082458054698248e-01  6.7091263893595832e-01  8.7614415764746223e-01  9.5007804721553912e-01  9.7645245140874060e-01  9.8501444639992020e-01  9.8670551810032381e-01  9.8405679217494568e-01  9.7384616948535840e-01  9.5348908350557071e-01  8.9603504581931825e-01  7.2640620581529847e-01  4.4976060865795742e-01  1.9856441397976479e-01  6.0541103359713098e-02  1.6566852746493131e-02  1.0336035494469367e-02  6.5992794385870629e-03  1.8028834515353158e-03  3.2215099991206921e-04  3.6367707964946055e-04  1.5150381095748917e-04  3.7455769711530163e-05  3.3419624636142377e-05  1.3888029515005581e-05  7.1001860062988481e-06  4.7482184429248519e-06  2.5446782011876618e-06  1.7300667194376232e-06  1.1235004863041157e-06  7.7828817934198789e-07  5.5621688963559640e-07  4.0690580848706880e-07  3.0596898822389925e-07  2.3416706042031791e-07  1.8241736530839894e-07  1.4404667956288793e-07  1.1510762608887874e-07  9.2888378007092828e-08  7.5582129331781031e-08  6.1929651770463370e-08  5.1041740242091563e-08  4.2276741434899520e-08  3.5163610715387118e-08  2.9351048735116222e-08  2.4573086331599048e-08  2.0625743322401224e-08  1.7350684796649577e-08  1.4623673882902583e-08  1.2346313380513285e-08  1.0440017974169873e-08  8.8415347284726796e-09  7.4996899419900286e-09  6.3727946257734988e-09  5.4268105986093344e-09  4.6338047769347214e-09  3.9708609569873352e-09  3.4191341230239933e-09  2.9632047754486265e-09  2.5904689663040402e-09  2.2907606887466055e-09  2.0559509105100022e-09  1.8797534832804280e-09  1.7574405525156583e-09  1.6858124099487338e-09  1.6630080118945483e-09  5.2564744076720460e-04  1.2444050082074918e-04  -1.1838432581461316e-03  -1.7899531869719687e-03  -1.9758048459080657e-03  -2.2532716835960520e-03  -2.3717844351320242e-03  -2.2529926724161554e-03  -1.9325748219428968e-03  -1.5011735963236755e-03  -1.0697147707400176e-03  -7.2070059718960290e-04  -4.8899669357407741e-04  -3.7429262854125645e-04  -3.6532244542131291e-04  -4.5645075422466542e-04  -6.4847872321053906e-04  -9.3015529959192364e-04  -1.2564984556063215e-03  -1.5525422393811901e-03  -1.7394933702346114e-03  -1.7576301255557520e-03  -1.5795065029129531e-03  -1.2055054782261479e-03  -6.4673467607903276e-04  8.1831626188210615e-05  9.5560230497991508e-04  1.9451624503674084e-03  3.0543563225766579e-03  4.3554326420325471e-03  5.9880916087571047e-03  8.1378415007706262e-03  1.1015288416338915e-02  1.5042748895228691e-02  2.2371995181302905e-02  4.7558557390108100e-02  1.6697624738132261e-01  4.9279387986022472e-01  8.3458661957962155e-01  9.5182738400502243e-01  9.8206325697188879e-01  9.9008515963343191e-01  9.9204662260318244e-01  9.9147724700563333e-01  9.8775735462846992e-01  9.7794046634863774e-01  9.6321048841435719e-01  9.2827218678584933e-01  8.2235479416842017e-01  6.1788214822972543e-01  3.6206076082165423e-01  1.4730419073818635e-01  3.7983925068231693e-02  1.1841114487821431e-02  7.0371293932803202e-03  1.9503901098421119e-03  3.5396107376271666e-04  3.2753499927301583e-04  8.6749256364401678e-05  3.3717428277273322e-05  2.4006506364732036e-05  7.9606267148271884e-06  5.7637995132947692e-06  3.0100676280612922e-06  1.8929237721763581e-06  1.2430618956678588e-06  8.2917296807594595e-07  5.8907523966353667e-07  4.2498044489851964e-07  3.1712803393147757e-07  2.4105146804900116e-07  1.8680234452667975e-07  1.4690029288705533e-07  1.1699797737816419e-07  9.4163568854594070e-08  7.6455149144469281e-08  6.2536143896091574e-08  5.1468667069807511e-08  4.2581107453287346e-08  3.5383237717552367e-08  2.9511413800069498e-08  2.4691606443112320e-08  2.0714510024094196e-08  1.7418267188897674e-08  1.4676304280402915e-08  1.2388680900364279e-08  1.0475801044195142e-08  8.8737757341762924e-09  7.5310415872158837e-09  6.4057062858189093e-09  5.4636657186930463e-09  4.6770184024492218e-09  4.0229822371279778e-09  3.4829182724254418e-09  3.0417010883725309e-09  2.6871010668062445e-09  2.4094216902381470e-09  2.2010969478855866e-09  2.0565548036501807e-09  1.9719246950346248e-09  1.9450500093125809e-09  1.4003913117468652e-05  -5.5351699918958424e-06  2.5008050639332486e-04  5.2698612166594502e-04  6.0443022457430456e-04  6.5348867085444993e-04  7.0536938453886469e-04  6.9760476518880435e-04  6.2987001897425938e-04  5.2047753849730337e-04  3.9789784907571753e-04  2.8927451210236806e-04  2.1036475976215084e-04  1.6509824747053752e-04  1.5123520391580790e-04  1.6629425877102974e-04  2.1007797275205997e-04  2.8210031629857145e-04  3.7532758035742705e-04  4.73272001198146