<?xml version="1.0"?>
<VTKFile type="UnstructuredGrid"  version="0.1"  >
<UnstructuredGrid>
<Piece  NumberOfPoints="5151" NumberOfCells="10000">
<Points>
<DataArray  type="Float64"  NumberOfComponents="3"  format="ascii">0 0 0  0.01 0 0  0.02 0 0  0.03 0 0  0.04 0 0  0.05 0 0  0.06 0 0  0.07000000000000001 0 0  0.08 0 0  0.09 0 0  0.1 0 0  0.11 0 0  0.12 0 0  0.13 0 0  0.14 0 0  0.15 0 0  0.16 0 0  0.17 0 0  0.18 0 0  0.19 0 0  0.2 0 0  0.21 0 0  0.22 0 0  0.23 0 0  0.24 0 0  0.25 0 0  0.26 0 0  0.27 0 0  0.28 0 0  0.29 0 0  0.3 0 0  0.31 0 0  0.32 0 0  0.33 0 0  0.34 0 0  0.35 0 0  0.36 0 0  0.37 0 0  0.38 0 0  0.39 0 0  0.4 0 0  0.41 0 0  0.42 0 0  0.43 0 0  0.44 0 0  0.45 0 0  0.46 0 0  0.47 0 0  0.48 0 0  0.49 0 0  0.5 0 0  0.51 0 0  0.52 0 0  0.53 0 0  0.54 0 0  0.55 0 0  0.5600000000000001 0 0  0.57 0 0  0.58 0 0  0.59 0 0  0.6 0 0  0.61 0 0  0.62 0 0  0.63 0 0  0.64 0 0  0.65 0 0  0.66 0 0  0.67 0 0  0.68 0 0  0.6899999999999999 0 0  0.7 0 0  0.71 0 0  0.72 0 0  0.73 0 0  0.74 0 0  0.75 0 0  0.76 0 0  0.77 0 0  0.78 0 0  0.79 0 0  0.8 0 0  0.8100000000000001 0 0  0.82 0 0  0.83 0 0  0.84 0 0  0.85 0 0  0.86 0 0  0.87 0 0  0.88 0 0  0.89 0 0  0.9 0 0  0.91 0 0  0.92 0 0  0.93 0 0  0.9399999999999999 0 0  0.95 0 0  0.96 0 0  0.97 0 0  0.98 0 0  0.99 0 0  1 0 0  0 0.01 0  0.01 0.01 0  0.02 0.01 0  0.03 0.01 0  0.04 0.01 0  0.05 0.01 0  0.06 0.01 0  0.07000000000000001 0.01 0  0.08 0.01 0  0.09 0.01 0  0.1 0.01 0  0.11 0.01 0  0.12 0.01 0  0.13 0.01 0  0.14 0.01 0  0.15 0.01 0  0.16 0.01 0  0.17 0.01 0  0.18 0.01 0  0.19 0.01 0  0.2 0.01 0  0.21 0.01 0  0.22 0.01 0  0.23 0.01 0  0.24 0.01 0  0.25 0.01 0  0.26 0.01 0  0.27 0.01 0  0.28 0.01 0  0.29 0.01 0  0.3 0.01 0  0.31 0.01 0  0.32 0.01 0  0.33 0.01 0  0.34 0.01 0  0.35 0.01 0  0.36 0.01 0  0.37 0.01 0  0.38 0.01 0  0.39 0.01 0  0.4 0.01 0  0.41 0.01 0  0.42 0.01 0  0.43 0.01 0  0.44 0.01 0  0.45 0.01 0  0.46 0.01 0  0.47 0.01 0  0.48 0.01 0  0.49 0.01 0  0.5 0.01 0  0.51 0.01 0  0.52 0.01 0  0.53 0.01 0  0.54 0.01 0  0.55 0.01 0  0.5600000000000001 0.01 0  0.57 0.01 0  0.58 0.01 0  0.59 0.01 0  0.6 0.01 0  0.61 0.01 0  0.62 0.01 0  0.63 0.01 0  0.64 0.01 0  0.65 0.01 0  0.66 0.01 0  0.67 0.01 0  0.68 0.01 0  0.6899999999999999 0.01 0  0.7 0.01 0  0.71 0.01 0  0.72 0.01 0  0.73 0.01 0  0.74 0.01 0  0.75 0.01 0  0.76 0.01 0  0.77 0.01 0  0.78 0.01 0  0.79 0.01 0  0.8 0.01 0  0.8100000000000001 0.01 0  0.82 0.01 0  0.83 0.01 0  0.84 0.01 0  0.85 0.01 0  0.86 0.01 0  0.87 0.01 0  0.88 0.01 0  0.89 0.01 0  0.9 0.01 0  0.91 0.01 0  0.92 0.01 0  0.93 0.01 0  0.9399999999999999 0.01 0  0.95 0.01 0  0.96 0.01 0  0.97 0.01 0  0.98 0.01 0  0.99 0.01 0  1 0.01 0  0 0.02 0  0.01 0.02 0  0.02 0.02 0  0.03 0.02 0  0.04 0.02 0  0.05 0.02 0  0.06 0.02 0  0.07000000000000001 0.02 0  0.08 0.02 0  0.09 0.02 0  0.1 0.02 0  0.11 0.02 0  0.12 0.02 0  0.13 0.02 0  0.14 0.02 0  0.15 0.02 0  0.16 0.02 0  0.17 0.02 0  0.18 0.02 0  0.19 0.02 0  0.2 0.02 0  0.21 0.02 0  0.22 0.02 0  0.23 0.02 0  0.24 0.02 0  0.25 0.02 0  0.26 0.02 0  0.27 0.02 0  0.28 0.02 0  0.29 0.02 0  0.3 0.02 0  0.31 0.02 0  0.32 0.02 0  0.33 0.02 0  0.34 0.02 0  0.35 0.02 0  0.36 0.02 0  0.37 0.02 0  0.38 0.02 0  0.39 0.02 0  0.4 0.02 0  0.41 0.02 0  0.42 0.02 0  0.43 0.02 0  0.44 0.02 0  0.45 0.02 0  0.46 0.02 0  0.47 0.02 0  0.48 0.02 0  0.49 0.02 0  0.5 0.02 0  0.51 0.02 0  0.52 0.02 0  0.53 0.02 0  0.54 0.02 0  0.55 0.02 0  0.5600000000000001 0.02 0  0.57 0.02 0  0.58 0.02 0  0.59 0.02 0  0.6 0.02 0  0.61 0.02 0  0.62 0.02 0  0.63 0.02 0  0.64 0.02 0  0.65 0.02 0  0.66 0.02 0  0.67 0.02 0  0.68 0.02 0  0.6899999999999999 0.02 0  0.7 0.02 0  0.71 0.02 0  0.72 0.02 0  0.73 0.02 0  0.74 0.02 0  0.75 0.02 0  0.76 0.02 0  0.77 0.02 0  0.78 0.02 0  0.79 0.02 0  0.8 0.02 0  0.8100000000000001 0.02 0  0.82 0.02 0  0.83 0.02 0  0.84 0.02 0  0.85 0.02 0  0.86 0.02 0  0.87 0.02 0  0.88 0.02 0  0.89 0.02 0  0.9 0.02 0  0.91 0.02 0  0.92 0.02 0  0.93 0.02 0  0.9399999999999999 0.02 0  0.95 0.02 0  0.96 0.02 0  0.97 0.02 0  0.98 0.02 0  0.99 0.02 0  1 0.02 0  0 0.03 0  0.01 0.03 0  0.02 0.03 0  0.03 0.03 0  0.04 0.03 0  0.05 0.03 0  0.06 0.03 0  0.07000000000000001 0.03 0  0.08 0.03 0  0.09 0.03 0  0.1 0.03 0  0.11 0.03 0  0.12 0.03 0  0.13 0.03 0  0.14 0.03 0  0.15 0.03 0  0.16 0.03 0  0.17 0.03 0  0.18 0.03 0  0.19 0.03 0  0.2 0.03 0  0.21 0.03 0  0.22 0.03 0  0.23 0.03 0  0.24 0.03 0  0.25 0.03 0  0.26 0.03 0  0.27 0.03 0  0.28 0.03 0  0.29 0.03 0  0.3 0.03 0  0.31 0.03 0  0.32 0.03 0  0.33 0.03 0  0.34 0.03 0  0.35 0.03 0  0.36 0.03 0  0.37 0.03 0  0.38 0.03 0  0.39 0.03 0  0.4 0.03 0  0.41 0.03 0  0.42 0.03 0  0.43 0.03 0  0.44 0.03 0  0.45 0.03 0  0.46 0.03 0  0.47 0.03 0  0.48 0.03 0  0.49 0.03 0  0.5 0.03 0  0.51 0.03 0  0.52 0.03 0  0.53 0.03 0  0.54 0.03 0  0.55 0.03 0  0.5600000000000001 0.03 0  0.57 0.03 0  0.58 0.03 0  0.59 0.03 0  0.6 0.03 0  0.61 0.03 0  0.62 0.03 0  0.63 0.03 0  0.64 0.03 0  0.65 0.03 0  0.66 0.03 0  0.67 0.03 0  0.68 0.03 0  0.6899999999999999 0.03 0  0.7 0.03 0  0.71 0.03 0  0.72 0.03 0  0.73 0.03 0  0.74 0.03 0  0.75 0.03 0  0.76 0.03 0  0.77 0.03 0  0.78 0.03 0  0.79 0.03 0  0.8 0.03 0  0.8100000000000001 0.03 0  0.82 0.03 0  0.83 0.03 0  0.84 0.03 0  0.85 0.03 0  0.86 0.03 0  0.87 0.03 0  0.88 0.03 0  0.89 0.03 0  0.9 0.03 0  0.91 0.03 0  0.92 0.03 0  0.93 0.03 0  0.9399999999999999 0.03 0  0.95 0.03 0  0.96 0.03 0  0.97 0.03 0  0.98 0.03 0  0.99 0.03 0  1 0.03 0  0 0.04 0  0.01 0.04 0  0.02 0.04 0  0.03 0.04 0  0.04 0.04 0  0.05 0.04 0  0.06 0.04 0  0.07000000000000001 0.04 0  0.08 0.04 0  0.09 0.04 0  0.1 0.04 0  0.11 0.04 0  0.12 0.04 0  0.13 0.04 0  0.14 0.04 0  0.15 0.04 0  0.16 0.04 0  0.17 0.04 0  0.18 0.04 0  0.19 0.04 0  0.2 0.04 0  0.21 0.04 0  0.22 0.04 0  0.23 0.04 0  0.24 0.04 0  0.25 0.04 0  0.26 0.04 0  0.27 0.04 0  0.28 0.04 0  0.29 0.04 0  0.3 0.04 0  0.31 0.04 0  0.32 0.04 0  0.33 0.04 0  0.34 0.04 0  0.35 0.04 0  0.36 0.04 0  0.37 0.04 0  0.38 0.04 0  0.39 0.04 0  0.4 0.04 0  0.41 0.04 0  0.42 0.04 0  0.43 0.04 0  0.44 0.04 0  0.45 0.04 0  0.46 0.04 0  0.47 0.04 0  0.48 0.04 0  0.49 0.04 0  0.5 0.04 0  0.51 0.04 0  0.52 0.04 0  0.53 0.04 0  0.54 0.04 0  0.55 0.04 0  0.5600000000000001 0.04 0  0.57 0.04 0  0.58 0.04 0  0.59 0.04 0  0.6 0.04 0  0.61 0.04 0  0.62 0.04 0  0.63 0.04 0  0.64 0.04 0  0.65 0.04 0  0.66 0.04 0  0.67 0.04 0  0.68 0.04 0  0.6899999999999999 0.04 0  0.7 0.04 0  0.71 0.04 0  0.72 0.04 0  0.73 0.04 0  0.74 0.04 0  0.75 0.04 0  0.76 0.04 0  0.77 0.04 0  0.78 0.04 0  0.79 0.04 0  0.8 0.04 0  0.8100000000000001 0.04 0  0.82 0.04 0  0.83 0.04 0  0.84 0.04 0  0.85 0.04 0  0.86 0.04 0  0.87 0.04 0  0.88 0.04 0  0.89 0.04 0  0.9 0.04 0  0.91 0.04 0  0.92 0.04 0  0.93 0.04 0  0.9399999999999999 0.04 0  0.95 0.04 0  0.96 0.04 0  0.97 0.04 0  0.98 0.04 0  0.99 0.04 0  1 0.04 0  0 0.05 0  0.01 0.05 0  0.02 0.05 0  0.03 0.05 0  0.04 0.05 0  0.05 0.05 0  0.06 0.05 0  0.07000000000000001 0.05 0  0.08 0.05 0  0.09 0.05 0  0.1 0.05 0  0.11 0.05 0  0.12 0.05 0  0.13 0.05 0  0.14 0.05 0  0.15 0.05 0  0.16 0.05 0  0.17 0.05 0  0.18 0.05 0  0.19 0.05 0  0.2 0.05 0  0.21 0.05 0  0.22 0.05 0  0.23 0.05 0  0.24 0.05 0  0.25 0.05 0  0.26 0.05 0  0.27 0.05 0  0.28 0.05 0  0.29 0.05 0  0.3 0.05 0  0.31 0.05 0  0.32 0.05 0  0.33 0.05 0  0.34 0.05 0  0.35 0.05 0  0.36 0.05 0  0.37 0.05 0  0.38 0.05 0  0.39 0.05 0  0.4 0.05 0  0.41 0.05 0  0.42 0.05 0  0.43 0.05 0  0.44 0.05 0  0.45 0.05 0  0.46 0.05 0  0.47 0.05 0  0.48 0.05 0  0.49 0.05 0  0.5 0.05 0  0.51 0.05 0  0.52 0.05 0  0.53 0.05 0  0.54 0.05 0  0.55 0.05 0  0.5600000000000001 0.05 0  0.57 0.05 0  0.58 0.05 0  0.59 0.05 0  0.6 0.05 0  0.61 0.05 0  0.62 0.05 0  0.63 0.05 0  0.64 0.05 0  0.65 0.05 0  0.66 0.05 0  0.67 0.05 0  0.68 0.05 0  0.6899999999999999 0.05 0  0.7 0.05 0  0.71 0.05 0  0.72 0.05 0  0.73 0.05 0  0.74 0.05 0  0.75 0.05 0  0.76 0.05 0  0.77 0.05 0  0.78 0.05 0  0.79 0.05 0  0.8 0.05 0  0.8100000000000001 0.05 0  0.82 0.05 0  0.83 0.05 0  0.84 0.05 0  0.85 0.05 0  0.86 0.05 0  0.87 0.05 0  0.88 0.05 0  0.89 0.05 0  0.9 0.05 0  0.91 0.05 0  0.92 0.05 0  0.93 0.05 0  0.9399999999999999 0.05 0  0.95 0.05 0  0.96 0.05 0  0.97 0.05 0  0.98 0.05 0  0.99 0.05 0  1 0.05 0  0 0.06 0  0.01 0.06 0  0.02 0.06 0  0.03 0.06 0  0.04 0.06 0  0.05 0.06 0  0.06 0.06 0  0.07000000000000001 0.06 0  0.08 0.06 0  0.09 0.06 0  0.1 0.06 0  0.11 0.06 0  0.12 0.06 0  0.13 0.06 0  0.14 0.06 0  0.15 0.06 0  0.16 0.06 0  0.17 0.06 0  0.18 0.06 0  0.19 0.06 0  0.2 0.06 0  0.21 0.06 0  0.22 0.06 0  0.23 0.06 0  0.24 0.06 0  0.25 0.06 0  0.26 0.06 0  0.27 0.06 0  0.28 0.06 0  0.29 0.06 0  0.3 0.06 0  0.31 0.06 0  0.32 0.06 0  0.33 0.06 0  0.34 0.06 0  0.35 0.06 0  0.36 0.06 0  0.37 0.06 0  0.38 0.06 0  0.39 0.06 0  0.4 0.06 0  0.41 0.06 0  0.42 0.06 0  0.43 0.06 0  0.44 0.06 0  0.45 0.06 0  0.46 0.06 0  0.47 0.06 0  0.48 0.06 0  0.49 0.06 0  0.5 0.06 0  0.51 0.06 0  0.52 0.06 0  0.53 0.06 0  0.54 0.06 0  0.55 0.06 0  0.5600000000000001 0.06 0  0.57 0.06 0  0.58 0.06 0  0.59 0.06 0  0.6 0.06 0  0.61 0.06 0  0.62 0.06 0  0.63 0.06 0  0.64 0.06 0  0.65 0.06 0  0.66 0.06 0  0.67 0.06 0  0.68 0.06 0  0.6899999999999999 0.06 0  0.7 0.06 0  0.71 0.06 0  0.72 0.06 0  0.73 0.06 0  0.74 0.06 0  0.75 0.06 0  0.76 0.06 0  0.77 0.06 0  0.78 0.06 0  0.79 0.06 0  0.8 0.06 0  0.8100000000000001 0.06 0  0.82 0.06 0  0.83 0.06 0  0.84 0.06 0  0.85 0.06 0  0.86 0.06 0  0.87 0.06 0  0.88 0.06 0  0.89 0.06 0  0.9 0.06 0  0.91 0.06 0  0.92 0.06 0  0.93 0.06 0  0.9399999999999999 0.06 0  0.95 0.06 0  0.96 0.06 0  0.97 0.06 0  0.98 0.06 0  0.99 0.06 0  1 0.06 0  0 0.07000000000000001 0  0.01 0.07000000000000001 0  0.02 0.07000000000000001 0  0.03 0.07000000000000001 0  0.04 0.07000000000000001 0  0.05 0.07000000000000001 0  0.06 0.07000000000000001 0  0.07000000000000001 0.07000000000000001 0  0.08 0.07000000000000001 0  0.09 0.07000000000000001 0  0.1 0.07000000000000001 0  0.11 0.07000000000000001 0  0.12 0.07000000000000001 0  0.13 0.07000000000000001 0  0.14 0.07000000000000001 0  0.15 0.07000000000000001 0  0.16 0.07000000000000001 0  0.17 0.07000
[...]
<PointData  Scalars="rho_bar"> 
<DataArray  type="Float64"  Name="rho_bar"  format="ascii">9.5451658398954420e-01  9.5301693957964917e-01  9.5123881875986416e-01  9.4882371872011362e-01  9.4561021146320812e-01  9.4156127762692110e-01  9.3669123615688921e-01  9.3106783401188109e-01  9.2482168701977907e-01  9.1815940398834583e-01  9.1137870558489209e-01  9.0487076251152454e-01  8.9909228289704912e-01  8.9449879939930754e-01  8.9146749171605788e-01  8.9022787807042458e-01  8.9082358797233285e-01  8.9311206263575094e-01  8.9680885872478722e-01  9.0155080198322479e-01  9.0696618929515704e-01  9.1273725483973833e-01  9.1863656679844530e-01  9.2450954018610099e-01  9.3023854585839794e-01  9.3571991029609813e-01  9.4085940116175604e-01  9.4557055741193075e-01  9.4977474111106897e-01  9.5339552499090940e-01  9.5634677692932435e-01  9.5850755305372071e-01  9.5968403271296365e-01  9.5954743800716713e-01  9.5752383354757087e-01  9.5255755803364051e-01  9.4260250062316642e-01  9.2363781647374366e-01  8.8775568597819565e-01  8.2062499906361619e-01  7.0474089257536321e-01  5.4250103463745403e-01  3.7322004634574502e-01  2.3833711572402000e-01  1.4808057597585672e-01  9.2369806615949707e-02  5.8704343767511012e-02  3.8196764802779157e-02  2.5454187454750907e-02  1.7351622682405504e-02  1.2080894613712312e-02  8.5779312018109937e-03  6.2029307939405693e-03  4.5625089654230712e-03  3.4095750789291078e-03  2.5858206761392175e-03  1.9880068397430182e-03  1.5476710948709315e-03  1.2187224918068229e-03  9.6967608347533736e-04  7.7873610004334083e-04  6.3060771109913524e-04  5.1442713313330345e-04  4.2237803889612796e-04  3.4877293495480586e-04  2.8942081360262286e-04  2.4120075015776217e-04  2.0176027417628630e-04  1.6930893061741168e-04  1.4246747868369727e-04  1.2016417836978553e-04  1.0155734030992393e-04  8.5980473018665239e-05  7.2900973786269472e-05  6.1890001096534612e-05  5.2599855434140335e-05  4.4746752564847430e-05  3.8097606074348651e-05  3.2460037327563909e-05  2.7674640739488383e-05  2.3608628567599563e-05  2.0151181787762117e-05  1.7209332757006195e-05  1.4705190683769558e-05  1.2573076001563424e-05  1.0757742825167922e-05  9.2124881625962726e-06  7.8979921798082957e-06  6.7809741704085842e-06  5.8334105021671934e-06  5.0316204400535925e-06  4.3557628819780285e-06  3.7891381034487980e-06  3.3178789290657875e-06  2.9304633106794947e-06  2.6175553301943641e-06  2.3716413056746809e-06  2.1869721037040869e-06  2.0594278065671534e-06  1.9870827075522291e-06  1.9717406518999855e-06  9.4720746316650850e-01  9.4624140146667124e-01  9.4445488555408064e-01  9.4169432201695091e-01  9.3792995128306478e-01  9.3313505782036288e-01  9.2734011096128988e-01  9.2063806985001051e-01  9.1319446726032394e-01  9.0526322631761047e-01  8.9720116379036674e-01  8.8947464604106130e-01  8.8262615580760750e-01  8.7719522636047020e-01  8.7362539192383493e-01  8.7218643460059286e-01  8.7292589563336109e-01  8.7567110371244672e-01  8.8007838823809648e-01  8.8571226967426842e-01  8.9212390802414698e-01  8.9893406677816701e-01  9.0588192748259944e-01  9.1279774564034399e-01  9.1954701540874739e-01  9.2600790327731031e-01  9.3206855288109791e-01  9.3763050944633064e-01  9.4260686791672854e-01  9.4691949327123826e-01  9.5048458528333635e-01  9.5318599255827496e-01  9.5483148940114226e-01  9.5509181044404579e-01  9.5339625460690502e-01  9.4871221168647790e-01  9.3907101811309590e-01  9.2067891923304179e-01  8.8626668647622786e-01  8.2298650148013153e-01  7.1519936541176798e-01  5.6247696943138870e-01  3.9678301759811352e-01  2.5873674434490651e-01  1.6301385068180826e-01  1.0243497222345523e-01  6.5250951386695663e-02  4.2404077873571130e-02  2.8156992720954763e-02  1.9098120985959043e-02  1.3219448217430018e-02  9.3280472950829450e-03  6.7030589773998100e-03  4.9002547050739625e-03  3.6406891675980681e-03  2.7461360340705846e-03  2.1007570126435355e-03  1.6280742581464894e-03  1.2768459221562910e-03  1.0122599276578934e-03  8.1033837119966722e-04  6.5435263862307551e-04  5.3247676139530947e-04  4.3625009839513330e-04  3.5954276406547416e-04  2.9786218439172799e-04  2.4787440853532344e-04  2.0707924402513694e-04  1.7357902787995248e-04  1.4591898988406139e-04  1.2297109157459726e-04  1.0385294720201686e-04  8.7867496192762297e-05  7.4459352016703696e-05  6.3182402013944438e-05  5.3675739500324159e-05  4.5645427899749190e-05  3.8850551806657973e-05  3.3092644985049223e-05  2.8207404614132691e-05  2.4058335454725781e-05  2.0531455094012754e-05  1.7531528504366331e-05  1.4978556626812843e-05  1.2805403334166523e-05  1.0955424878875232e-05  9.3809743963681471e-06  8.0417858532670797e-06  6.9039391007990748e-06  5.9387620935198574e-06  5.1221659456315870e-06  4.4338494475577967e-06  3.8568428832691310e-06  3.3769464053280375e-06  2.9824823350841707e-06  2.6638761965434712e-06  2.4134900470740259e-06  2.2253635163318282e-06  2.0951347563124746e-06  2.0197513318290164e-06  1.9969209879662531e-06  9.2048983178430022e-01  9.1977484179545721e-01  9.1708621993219097e-01  9.1281471121862989e-01  9.0686737089041825e-01  8.9927679048779119e-01  8.9012817656227905e-01  8.7957594316634602e-01  8.6786899733487299e-01  8.5538165209428108e-01  8.4264565871214592e-01  8.3038963827787116e-01  8.1950709699018609e-01  8.1088584946460673e-01  8.0524296721742727e-01  8.0299876265952375e-01  8.0421233561835781e-01  8.0858085533882396e-01  8.1553767997661997e-01  8.2438268612268939e-01  8.3439158945765135e-01  8.4494669824035173e-01  8.5568720485099270e-01  8.6643247000997015e-01  8.7702208931084935e-01  8.8727337802951123e-01  8.9700385097239588e-01  9.0604501226293621e-01  9.1424795624138244e-01  9.2149175299619468e-01  9.2767934094447435e-01  9.3270127996522900e-01  9.3638009292717672e-01  9.3839514795849732e-01  9.3819491387499576e-01  9.3481191555579879e-01  9.2649266583456380e-01  9.1008570159517932e-01  8.7999336179324894e-01  8.2694199043208894e-01  7.3945368716465709e-01  6.1322500745184105e-01  4.6428048302232311e-01  3.2379914427952688e-01  2.1412364465270164e-01  1.3833337906992341e-01  8.9103200840741012e-02  5.7865220675981807e-02  3.8092439060752055e-02  2.5481145329927242e-02  1.7341752208612633e-02  1.2014436197597818e-02  8.4731853715753706e-03  6.0810498027174774e-03  4.4389861453973493e-03  3.2935182153057147e-03  2.4815644585320486e-03  1.8969031233527307e-03  1.4694095152644195e-03  1.1521744620937749e-03  9.1341221777351911e-04  7.3129352399224547e-04  5.9063185510766468e-04  4.8072279089025611e-04  3.9392435594560728e-04  3.2471044883282190e-04  2.6903519378191330e-04  2.2389935795300034e-04  1.8705351374918570e-04  1.5679000182960759e-04  1.3179872089071491e-04  1.1106360359454010e-04  9.3788940612754586e-05  7.9345652126136247e-05  6.7232082031695343e-05  5.7045235185064369e-05  4.8458848204725962e-05  4.1207058784401988e-05  3.5071956894518216e-05  2.9874072475462435e-05  2.5464826799619338e-05  2.1720788189068261e-05  1.8538955281300011e-05  1.5833309829759829e-05  1.3531645538371691e-05  1.1573383987038513e-05  9.9074993775609605e-06  8.4910975486447283e-06  7.2879862421863237e-06  6.2677322678806673e-06  5.4046892817560011e-06  4.6773532782253925e-06  4.0676925558625839e-06  3.5607064986863594e-06  3.1439740307390688e-06  2.8073807546542388e-06  2.5427914666765055e-06  2.3438500091018036e-06  2.2057367149175098e-06  2.1250347645047057e-06  2.0992258084317354e-06  8.5168286783086122e-01  8.4879171239691409e-01  8.4423872498378538e-01  8.3589977116811143e-01  8.2387227173948574e-01  8.0819489538155886e-01  7.8917304669773070e-01  7.6733513016698895e-01  7.4345067839161361e-01  7.1851523237152282e-01  6.9371079034018757e-01  6.7050125689528717e-01  6.5055917805990449e-01  6.3533719385462217e-01  6.2582569370423369e-01  6.2249503804905504e-01  6.2527660688237474e-01  6.3358042577114582e-01  6.4643515318858202e-01  6.6268982505724583e-01  6.8111905499006242e-01  7.0057673969246703e-01  7.2055198654696906e-01  7.4097509350613011e-01  7.6159055069924564e-01  7.8195502587677790e-01  8.0159875817282888e-01  8.2012796240005426e-01  8.3720820905295246e-01  8.5261456583091189e-01  8.6626127978952072e-01  8.7812665027564485e-01  8.8812886353196718e-01  8.9595706426104404e-01  9.0102631845828440e-01  9.0241061534384381e-01  8.9868135049445674e-01  8.8770472013015356e-01  8.6612247522851626e-01  8.2883660714328389e-01  7.6930403035224471e-01  6.8222096146467515e-01  5.6881635733792613e-01  4.4129273776961625e-01  3.1962436558014329e-01  2.1974872728173792e-01  1.4635613282154186e-01  9.6000133442344981e-02  6.2723844039939913e-02  4.1167940558098463e-02  2.7306824267520392e-02  1.8367929655794209e-02  1.2555547433834890e-02  8.7339015640699336e-03  6.1862287688139320e-03  4.4613728562391212e-03  3.2745705364352223e-03  2.4442177413437969e-03  1.8533733266824382e-03  1.4259250298352519e-03  1.1116674045105724e-03  8.7704333599597051e-04  6.9931265111780171e-04  5.6284588736428109e-04  4.5674933698702899e-04  3.7332192036920839e-04  3.0704386755639988e-04  2.5390367001739685e-04  2.1094671030572049e-04  1.7596879594941278e-04  1.4730490340635578e-04  1.2368284326952836e-04  1.0411961907619771e-04  8.7847921099770202e-05  7.4263137530337342e-05  6.2884536200635369e-05  5.3326926740745088e-05  4.5279253503034731e-05  3.8488685954265769e-05  3.2748497000359865e-05  2.7888760816326550e-05  2.3769101262604495e-05  2.0273135170108739e-05  1.7303954622192269e-05  1.4780747817356437e-05  1.2635824254805933e-05  1.0812495872547419e-05  9.2631147769670674e-06  7.9477113897111857e-06  6.8326487585891797e-06  5.8897146903648445e-06  5.0952292656883486e-06  4.4294118362687835e-06  3.8757852547120281e-06  3.4207532737544554e-06  3.0532079626041841e-06  2.7642250683450457e-06  2.5468093888082228e-06  2.3956821158302632e-06  2.3070535574240648e-06  2.2786061646081070e-06  6.5640594857410550e-01  6.5494117383955186e-01  6.4511969643958245e-01  6.2704969264708021e-01  6.0181320991686416e-01  5.7064610244562053e-01  5.3568483127506383e-01  4.9905826862649860e-01  4.6267164545211686e-01  4.2818953940498178e-01  3.9688169619355951e-01  3.6990287949752104e-01  3.4833369688622562e-01  3.3287285941368122e-01  3.2376660962000764e-01  3.2095722901413409e-01  3.2418590681549714e-01  3.3297157132608485e-01  3.4667109852110778e-01  3.6450920463083175e-01  3.8563836735163665e-01  4.0916865570063804e-01  4.3483253755846180e-01  4.6321445943084988e-01  4.9447650217120243e-01  5.2820248913749157e-01  5.6367374088399214e-01  6.0008285103405523e-01  6.3641549283631138e-01  6.7162456070616128e-01  7.0504619298146598e-01  7.3633965116356292e-01  7.6531731334485886e-01  7.9148864023612897e-01  8.1385612937580265e-01  8.3112365735072868e-01  8.4200586437524649e-01  8.4537120557986101e-01  8.4003634157804619e-01  8.2420490690511872e-01  7.9523604319824892e-01  7.4971105724800280e-01  6.8404743179258376e-01  5.9637816553554046e-01  4.9033361101368866e-01  3.7732964264684893e-01  2.7237431496474535e-01  1.8665455925595748e-01  1.2348665091097627e-01  8.0168317618039470e-02  5.1742849797600264e-02  3.3531799556240464e-02  2.1977541236018992e-02  1.4631412138580029e-02  9.9201652732435405e-03  6.8617862846404743e-03  4.8446908836449771e-03  3.4902504159284148e-03  2.5636129600515776e-03  1.9173956781648222e-03  1.4581084347143692e-03  1.1256396472180792e-03  8.8072877271641429e-04  6.9733956535413726e-04  5.5792418966452107e-04  4.5046361799762509e-04  3.6659113712246907e-04  3.0039017400296318e-04  2.4761128523529552e-04  2.0515701528329891e-04  1.7073786776282472e-04  1.4263869460941263e-04  1.1955877731437900e-04  1.0049989002260567e-04  8.4687759964920743e-05  7.1515749227370190e-05  6.0504069072136955e-05  5.1270058536951994e-05  4.3506094755573932e-05  3.6963145811966876e-05  3.1438334161927309e-05  2.6765441477578245e-05  2.2807599946426584e-05  1.9451659798930600e-05  1.6603674387934256e-05  1.4185482901019250e-05  1.2131791934940563e-05  1.0388067330727470e-05  8.9085962654398244e-06  7.6551216873774042e-06  6.5955667632768263e-06  5.7031141799254330e-06  4.9553684834575758e-06  4.3337353741691647e-06  3.8228496395032547e-06  3.4101998840694308e-06  3.0857137855314931e-06  2.8415200300058431e-06  2.6716683891350541e-06  2.5720248401545302e-06  2.5401373099080470e-06  3.1582469808292302e-01  3.1828087595542554e-01  3.0773794646423824e-01  2.9063964941622994e-01  2.6812114367636392e-01  2.4270618731509661e-01  2.1704377270882749e-01  1.9311942464351811e-01  1.7194489313462050e-01  1.5392451018645414e-01  1.3909406304454930e-01  1.2736103075955640e-01  1.1861205762563316e-01  1.1268327037135191e-01  1.0937763824259623e-01  1.0851712968546155e-01  1.0996096044247933e-01  1.1358854407492709e-01  1.1929204302411002e-01  1.2696729357096717e-01  1.3652082568596249e-01  1.4790578743237118e-01  1.6130980889892860e-01  1.7733179226092105e-01  1.9664625721479723e-01  2.1979177089270824e-01  2.4723034744954819e-01  2.7940082468855215e-01  3.1650474037392529e-01  3.5828831936735323e-01  4.0461291186967396e-01  4.5551469507431852e-01  5.1107212004212410e-01  5.7042058680446928e-01  6.3041574049361071e-01  6.8616371006087151e-01  7.3333207747414308e-01  7.6963958187177051e-01  7.9450636197791091e-01  8.0799863021376983e-01  8.1013736012444648e-01  8.0030500277994132e-01  7.7673327876991127e-01  7.3635290146227528e-01  6.7547377526342556e-01  5.9198328702562308e-01  4.8859927554765542e-01  3.7533018500750948e-01  2.6752759261497766e-01  1.7902990748314151e-01  1.1513104269543763e-01  7.2625308637424002e-02  4.5583435542470671e-02  2.8792043287143854e-02  1.8466254627875038e-02  1.2087091012351805e-02  8.0949599846722314e-03  5.5542381731329658e-03  3.9035084319963566e-03  2.8069798378479276e-03  2.0620962894355934e-03  1.5446742763113705e-03  1.1774714301054949e-03  9.1155466492904690e-04  7.1533821485564710e-04  5.6804578425615404e-04  4.5574558730401951e-04  3.6891835798909771e-04  3.0094174354492907e-04  2.4712783447603903e-04  2.0410366110452341e-04  1.6940504255703461e-04  1.4120534122900747e-04  1.1813255144233997e-04  9.9142861971341452e-05  8.3433052612504210e-05  7.0378198047216481e-05  5.9487211968824459e-05  5.0370678306898531e-05  4.2717155012055347e-05  3.6275682437090807e-05  3.0842673275044705e-05  2.6251957920292909e-05  2.2367202793771075e-05  1.9076048613480451e-05  1.6285489529928452e-05  1.3918379380396797e-05  1.1910459736839477e-05  1.0208200454493185e-05  8.7668763120033292e-06  7.5491652470611197e-06  6.5239002945391745e-06  5.6651489572441952e-06  4.9513807207258811e-06  4.3648853140123593e-06  3.8911811141158572e-06  3.5187043796855357e-06  3.2383505434304203e-06  3.0433514423128302e-06  2.9289692860346957e-06  2.8925090902064338e-06  9.9128200525536378e-02  9.5975118297350059e-02  9.2266184484346148e-02  8.6769002934176886e-02  7.9805902754962160e-02  7.2474598990780723e-02  6.5442766947695893e-02  5.9127717806375338e-02  5.3665873801419718e-02  4.9054512288615966e-02  4.5247217500981478e-02  4.2200877320634038e-02  3.9886026698020445e-02  3.8280134307685579e-02  3.7363311123162442e-02  3.7115579129472373e-02  3.7516806339771419e-02  3.8546733435533997e-02  4.0186735732693817e-02  4.2423743557360533e-02  4.5259924662669641e-02  4.8731493340621150e-02  5.2944866995457557e-02  5.8103032248494633e-02  6.4485395078194535e-02  7.2444497143580727e-02  8.2443034974335971e-02  9.5105769938822110e-02  1.1124814613066510e-01  1.3189421456460823e-01  1.5848098923521139e-01  1.9309807423414141e-01  2.3866469680616281e-01  2.9855917787703201e-01  3.7469431388515456e-01  4.6435639780916499e-01  5.5923082410557723e-01  6.4788857206526040e-01  7.2119523929183760e-01  7.7522529071937663e-01  8.1053098439787719e-01  8.2957463355981542e-01  8.3445357647456819e-01  8.2586808503205222e-01  8.0284481581531431e-01  7.6288076269193306e-01  7.0224817971808717e-01  6.1746748428908915e-01  5.0913688177057181e-01  3.8717141992748066e-01  2.7052476748320720e-01  1.7577953643104516e-01  1.0893161162967976e-01  6.6139441712619026e-02  4.0094037424736405e-02  2.4605793081024330e-02  1.5438759016500407e-02  9.9496237622369327e-03  6.5978917199427615e-03  4.5029919159601780e-03  3.1586172718574531e-03  2.2725355952879275e-03  1.6729670990638516e-03  1.2569304459082819e-03  9.6141687123054516e-04  7.4694928304752130e-04  5.8823397598616294e-04  4.6869608614861488e-04  3.7723673485040294e-04  3.0627240955030313e-04  2.5052062803539822e-04  2.0623539586669970e-04  1.7071564887443218e-04  1.4198256145478959e-04  1.1856557865681017e-04  9.9356421038063140e-05  8.3509451867375646e-05  7.0371615321978409e-05  5.9433124120870393e-05  5.0292095050793481e-05  4.2628793921623104e-05  3.6186772727116095e-05  3.0758880815851205e-05  2.6176665461790173e-05  2.2302416176286749e-05  1.9023001789034297e-05  1.6245070013190464e-05  1.3891409921911675e-05  1.1897899740847644e-05  1.0211275775800321e-05  8.7871850852826078e-06  7.5887533536342157e-06  6.5853257613347839e-06  5.7515667878476395e-06  5.0666027368237892e-06  4.5134778670629078e-06  4.0785633112541241e-06  3.7512645973249902e-06  3.5235978798174478e-06  3.3901338519939411e-06  3.3477235577801397e-06  3.1233512666543600e-02  3.0927123276261816e-02  3.0491279840474089e-02  2.9031595135410718e-02  2.7255767998724569e-02  2.5301769421299931e-02  2.3297074666749278e-02  2.1385306010661253e-02  1.9652617274786382e-02  1.8148205879758926e-02  1.6892158119552279e-02  1.5888344836431170e-02  1.5132770094644277e-02  1.4617639701453834e-02  1.4332916239739138e-02  1.4268437808856430e-02  1.4416058939155684e-02  1.4770321991682437e-02  1.5329115555628782e-02  1.6094992465897299e-02  1.7078002252210935e-02  1.8300611093808324e-02  1.9805366546579762e-02  2.1663134798871126e-02  2.3976549865117037e-02  2.6883572101735798e-02  3.0571507580617604e-02  3.5304870287726622e-02  4.1467279251565112e-02  4.9634620900630998e-02  6.0726806284248633e-02  7.6271555581005387e-02  9.8824668311305874e-02  1.3254007677572260e-01  1.8357912437069657e-01  2.5922950516819415e-01  3.6378050947450602e-01  4.9021242913526691e-01  6.1740749223537472e-01  7.2226116135426033e-01  7.9526777356391964e-01  8.3996730637638184e-01  8.6368977790075696e-01  8.7219930418784963e-01  8.6860045719054935e-01  8.5363873183860794e-01  8.2603189808948307e-01  7.8265806167075214e-01  7.1887723225893208e-01  6.3018217297801971e-01  5.1682939874470590e-01  3.8869593066001340e-01  2.6527894291692183e-01  1.6621160296506352e-01  9.8755650893583513e-02  5.7654134430599586e-02  3.3838832918188705e-02  2.0279527013773304e-02  1.2526964077421909e-02  8.0010188150556726e-03  5.2870878377864767e-03  3.6093791900716123e-03  2.5386776352843859e-03  1.8341192797712877e-03  1.3568030430682583e-03  1.0246531136163905e-03  7.8780163665247312e-04  6.1513158215318210e-04  4.8673059796868504e-04  3.8954231736417605e-04  3.1481264231604116e-04  2.5654630134324584e-04  2.1055579755310667e-04  1.7386245530801909e-04  1.4431010257483833e-04  1.2031334528335282e-04  1.0068839706799260e-04  8.4539330795777080e-05  7.1179145147752979e-05  6.0074906274935903e-05  5.0808775592487721e-05  4.3049965789636518e-05  3.6534298278291328e-05  3.1049234227941805e-05  2.6422559644654202e-05  2.2513958181334416e-05  1.9208508955722344e-05  1.6411669654330864e-05  1.4045457303022315e-05  1.2045304126771200e-05  1.0357746000400535e-05  8.9384175240120358e-06  7.7506170229739762e-06  6.7640045503202908e-06  5.9537210206330655e-06  5.2995197203454372e-06  4.7852422708258044e-06  4.3982314021382314e-06  4.1291115554266493e-06  3.9713772519876035e-06  3.9213794659792105e-06  1.1824824641682765e-02  1.1700560783238676e-02  1.1353081717597536e-02  1.0861831176575090e-02  1.0348948503937314e-02  9.7565287122575641e-03  9.1618462164149306e-03  8.6019444119301708e-03  8.0958708783580354e-03  7.6539680253872753e-03  7.2800277883297449e-03  6.9761193770802674e-03  6.7437855195050028e-03  6.5843051878704010e-03  6.4987154150016905e-03  6.4879117468154609e-03  6.5526196362924284e-03  6.6936174944880206e-03  6.9123193384523071e-03  7.2117618274198563e-03  7.5980413713623938e-03  8.08237652147