<?xml version="1.0"?>
<VTKFile type="UnstructuredGrid"  version="0.1"  >
<UnstructuredGrid>
<Piece  NumberOfPoints="5151" NumberOfCells="10000">
<Points>
<DataArray  type="Float64"  NumberOfComponents="3"  format="ascii">0 0 0  0.01 0 0  0.02 0 0  0.03 0 0  0.04 0 0  0.05 0 0  0.06 0 0  0.07000000000000001 0 0  0.08 0 0  0.09 0 0  0.1 0 0  0.11 0 0  0.12 0 0  0.13 0 0  0.14 0 0  0.15 0 0  0.16 0 0  0.17 0 0  0.18 0 0  0.19 0 0  0.2 0 0  0.21 0 0  0.22 0 0  0.23 0 0  0.24 0 0  0.25 0 0  0.26 0 0  0.27 0 0  0.28 0 0  0.29 0 0  0.3 0 0  0.31 0 0  0.32 0 0  0.33 0 0  0.34 0 0  0.35 0 0  0.36 0 0  0.37 0 0  0.38 0 0  0.39 0 0  0.4 0 0  0.41 0 0  0.42 0 0  0.43 0 0  0.44 0 0  0.45 0 0  0.46 0 0  0.47 0 0  0.48 0 0  0.49 0 0  0.5 0 0  0.51 0 0  0.52 0 0  0.53 0 0  0.54 0 0  0.55 0 0  0.5600000000000001 0 0  0.57 0 0  0.58 0 0  0.59 0 0  0.6 0 0  0.61 0 0  0.62 0 0  0.63 0 0  0.64 0 0  0.65 0 0  0.66 0 0  0.67 0 0  0.68 0 0  0.6899999999999999 0 0  0.7 0 0  0.71 0 0  0.72 0 0  0.73 0 0  0.74 0 0  0.75 0 0  0.76 0 0  0.77 0 0  0.78 0 0  0.79 0 0  0.8 0 0  0.8100000000000001 0 0  0.82 0 0  0.83 0 0  0.84 0 0  0.85 0 0  0.86 0 0  0.87 0 0  0.88 0 0  0.89 0 0  0.9 0 0  0.91 0 0  0.92 0 0  0.93 0 0  0.9399999999999999 0 0  0.95 0 0  0.96 0 0  0.97 0 0  0.98 0 0  0.99 0 0  1 0 0  0 0.01 0  0.01 0.01 0  0.02 0.01 0  0.03 0.01 0  0.04 0.01 0  0.05 0.01 0  0.06 0.01 0  0.07000000000000001 0.01 0  0.08 0.01 0  0.09 0.01 0  0.1 0.01 0  0.11 0.01 0  0.12 0.01 0  0.13 0.01 0  0.14 0.01 0  0.15 0.01 0  0.16 0.01 0  0.17 0.01 0  0.18 0.01 0  0.19 0.01 0  0.2 0.01 0  0.21 0.01 0  0.22 0.01 0  0.23 0.01 0  0.24 0.01 0  0.25 0.01 0  0.26 0.01 0  0.27 0.01 0  0.28 0.01 0  0.29 0.01 0  0.3 0.01 0  0.31 0.01 0  0.32 0.01 0  0.33 0.01 0  0.34 0.01 0  0.35 0.01 0  0.36 0.01 0  0.37 0.01 0  0.38 0.01 0  0.39 0.01 0  0.4 0.01 0  0.41 0.01 0  0.42 0.01 0  0.43 0.01 0  0.44 0.01 0  0.45 0.01 0  0.46 0.01 0  0.47 0.01 0  0.48 0.01 0  0.49 0.01 0  0.5 0.01 0  0.51 0.01 0  0.52 0.01 0  0.53 0.01 0  0.54 0.01 0  0.55 0.01 0  0.5600000000000001 0.01 0  0.57 0.01 0  0.58 0.01 0  0.59 0.01 0  0.6 0.01 0  0.61 0.01 0  0.62 0.01 0  0.63 0.01 0  0.64 0.01 0  0.65 0.01 0  0.66 0.01 0  0.67 0.01 0  0.68 0.01 0  0.6899999999999999 0.01 0  0.7 0.01 0  0.71 0.01 0  0.72 0.01 0  0.73 0.01 0  0.74 0.01 0  0.75 0.01 0  0.76 0.01 0  0.77 0.01 0  0.78 0.01 0  0.79 0.01 0  0.8 0.01 0  0.8100000000000001 0.01 0  0.82 0.01 0  0.83 0.01 0  0.84 0.01 0  0.85 0.01 0  0.86 0.01 0  0.87 0.01 0  0.88 0.01 0  0.89 0.01 0  0.9 0.01 0  0.91 0.01 0  0.92 0.01 0  0.93 0.01 0  0.9399999999999999 0.01 0  0.95 0.01 0  0.96 0.01 0  0.97 0.01 0  0.98 0.01 0  0.99 0.01 0  1 0.01 0  0 0.02 0  0.01 0.02 0  0.02 0.02 0  0.03 0.02 0  0.04 0.02 0  0.05 0.02 0  0.06 0.02 0  0.07000000000000001 0.02 0  0.08 0.02 0  0.09 0.02 0  0.1 0.02 0  0.11 0.02 0  0.12 0.02 0  0.13 0.02 0  0.14 0.02 0  0.15 0.02 0  0.16 0.02 0  0.17 0.02 0  0.18 0.02 0  0.19 0.02 0  0.2 0.02 0  0.21 0.02 0  0.22 0.02 0  0.23 0.02 0  0.24 0.02 0  0.25 0.02 0  0.26 0.02 0  0.27 0.02 0  0.28 0.02 0  0.29 0.02 0  0.3 0.02 0  0.31 0.02 0  0.32 0.02 0  0.33 0.02 0  0.34 0.02 0  0.35 0.02 0  0.36 0.02 0  0.37 0.02 0  0.38 0.02 0  0.39 0.02 0  0.4 0.02 0  0.41 0.02 0  0.42 0.02 0  0.43 0.02 0  0.44 0.02 0  0.45 0.02 0  0.46 0.02 0  0.47 0.02 0  0.48 0.02 0  0.49 0.02 0  0.5 0.02 0  0.51 0.02 0  0.52 0.02 0  0.53 0.02 0  0.54 0.02 0  0.55 0.02 0  0.5600000000000001 0.02 0  0.57 0.02 0  0.58 0.02 0  0.59 0.02 0  0.6 0.02 0  0.61 0.02 0  0.62 0.02 0  0.63 0.02 0  0.64 0.02 0  0.65 0.02 0  0.66 0.02 0  0.67 0.02 0  0.68 0.02 0  0.6899999999999999 0.02 0  0.7 0.02 0  0.71 0.02 0  0.72 0.02 0  0.73 0.02 0  0.74 0.02 0  0.75 0.02 0  0.76 0.02 0  0.77 0.02 0  0.78 0.02 0  0.79 0.02 0  0.8 0.02 0  0.8100000000000001 0.02 0  0.82 0.02 0  0.83 0.02 0  0.84 0.02 0  0.85 0.02 0  0.86 0.02 0  0.87 0.02 0  0.88 0.02 0  0.89 0.02 0  0.9 0.02 0  0.91 0.02 0  0.92 0.02 0  0.93 0.02 0  0.9399999999999999 0.02 0  0.95 0.02 0  0.96 0.02 0  0.97 0.02 0  0.98 0.02 0  0.99 0.02 0  1 0.02 0  0 0.03 0  0.01 0.03 0  0.02 0.03 0  0.03 0.03 0  0.04 0.03 0  0.05 0.03 0  0.06 0.03 0  0.07000000000000001 0.03 0  0.08 0.03 0  0.09 0.03 0  0.1 0.03 0  0.11 0.03 0  0.12 0.03 0  0.13 0.03 0  0.14 0.03 0  0.15 0.03 0  0.16 0.03 0  0.17 0.03 0  0.18 0.03 0  0.19 0.03 0  0.2 0.03 0  0.21 0.03 0  0.22 0.03 0  0.23 0.03 0  0.24 0.03 0  0.25 0.03 0  0.26 0.03 0  0.27 0.03 0  0.28 0.03 0  0.29 0.03 0  0.3 0.03 0  0.31 0.03 0  0.32 0.03 0  0.33 0.03 0  0.34 0.03 0  0.35 0.03 0  0.36 0.03 0  0.37 0.03 0  0.38 0.03 0  0.39 0.03 0  0.4 0.03 0  0.41 0.03 0  0.42 0.03 0  0.43 0.03 0  0.44 0.03 0  0.45 0.03 0  0.46 0.03 0  0.47 0.03 0  0.48 0.03 0  0.49 0.03 0  0.5 0.03 0  0.51 0.03 0  0.52 0.03 0  0.53 0.03 0  0.54 0.03 0  0.55 0.03 0  0.5600000000000001 0.03 0  0.57 0.03 0  0.58 0.03 0  0.59 0.03 0  0.6 0.03 0  0.61 0.03 0  0.62 0.03 0  0.63 0.03 0  0.64 0.03 0  0.65 0.03 0  0.66 0.03 0  0.67 0.03 0  0.68 0.03 0  0.6899999999999999 0.03 0  0.7 0.03 0  0.71 0.03 0  0.72 0.03 0  0.73 0.03 0  0.74 0.03 0  0.75 0.03 0  0.76 0.03 0  0.77 0.03 0  0.78 0.03 0  0.79 0.03 0  0.8 0.03 0  0.8100000000000001 0.03 0  0.82 0.03 0  0.83 0.03 0  0.84 0.03 0  0.85 0.03 0  0.86 0.03 0  0.87 0.03 0  0.88 0.03 0  0.89 0.03 0  0.9 0.03 0  0.91 0.03 0  0.92 0.03 0  0.93 0.03 0  0.9399999999999999 0.03 0  0.95 0.03 0  0.96 0.03 0  0.97 0.03 0  0.98 0.03 0  0.99 0.03 0  1 0.03 0  0 0.04 0  0.01 0.04 0  0.02 0.04 0  0.03 0.04 0  0.04 0.04 0  0.05 0.04 0  0.06 0.04 0  0.07000000000000001 0.04 0  0.08 0.04 0  0.09 0.04 0  0.1 0.04 0  0.11 0.04 0  0.12 0.04 0  0.13 0.04 0  0.14 0.04 0  0.15 0.04 0  0.16 0.04 0  0.17 0.04 0  0.18 0.04 0  0.19 0.04 0  0.2 0.04 0  0.21 0.04 0  0.22 0.04 0  0.23 0.04 0  0.24 0.04 0  0.25 0.04 0  0.26 0.04 0  0.27 0.04 0  0.28 0.04 0  0.29 0.04 0  0.3 0.04 0  0.31 0.04 0  0.32 0.04 0  0.33 0.04 0  0.34 0.04 0  0.35 0.04 0  0.36 0.04 0  0.37 0.04 0  0.38 0.04 0  0.39 0.04 0  0.4 0.04 0  0.41 0.04 0  0.42 0.04 0  0.43 0.04 0  0.44 0.04 0  0.45 0.04 0  0.46 0.04 0  0.47 0.04 0  0.48 0.04 0  0.49 0.04 0  0.5 0.04 0  0.51 0.04 0  0.52 0.04 0  0.53 0.04 0  0.54 0.04 0  0.55 0.04 0  0.5600000000000001 0.04 0  0.57 0.04 0  0.58 0.04 0  0.59 0.04 0  0.6 0.04 0  0.61 0.04 0  0.62 0.04 0  0.63 0.04 0  0.64 0.04 0  0.65 0.04 0  0.66 0.04 0  0.67 0.04 0  0.68 0.04 0  0.6899999999999999 0.04 0  0.7 0.04 0  0.71 0.04 0  0.72 0.04 0  0.73 0.04 0  0.74 0.04 0  0.75 0.04 0  0.76 0.04 0  0.77 0.04 0  0.78 0.04 0  0.79 0.04 0  0.8 0.04 0  0.8100000000000001 0.04 0  0.82 0.04 0  0.83 0.04 0  0.84 0.04 0  0.85 0.04 0  0.86 0.04 0  0.87 0.04 0  0.88 0.04 0  0.89 0.04 0  0.9 0.04 0  0.91 0.04 0  0.92 0.04 0  0.93 0.04 0  0.9399999999999999 0.04 0  0.95 0.04 0  0.96 0.04 0  0.97 0.04 0  0.98 0.04 0  0.99 0.04 0  1 0.04 0  0 0.05 0  0.01 0.05 0  0.02 0.05 0  0.03 0.05 0  0.04 0.05 0  0.05 0.05 0  0.06 0.05 0  0.07000000000000001 0.05 0  0.08 0.05 0  0.09 0.05 0  0.1 0.05 0  0.11 0.05 0  0.12 0.05 0  0.13 0.05 0  0.14 0.05 0  0.15 0.05 0  0.16 0.05 0  0.17 0.05 0  0.18 0.05 0  0.19 0.05 0  0.2 0.05 0  0.21 0.05 0  0.22 0.05 0  0.23 0.05 0  0.24 0.05 0  0.25 0.05 0  0.26 0.05 0  0.27 0.05 0  0.28 0.05 0  0.29 0.05 0  0.3 0.05 0  0.31 0.05 0  0.32 0.05 0  0.33 0.05 0  0.34 0.05 0  0.35 0.05 0  0.36 0.05 0  0.37 0.05 0  0.38 0.05 0  0.39 0.05 0  0.4 0.05 0  0.41 0.05 0  0.42 0.05 0  0.43 0.05 0  0.44 0.05 0  0.45 0.05 0  0.46 0.05 0  0.47 0.05 0  0.48 0.05 0  0.49 0.05 0  0.5 0.05 0  0.51 0.05 0  0.52 0.05 0  0.53 0.05 0  0.54 0.05 0  0.55 0.05 0  0.5600000000000001 0.05 0  0.57 0.05 0  0.58 0.05 0  0.59 0.05 0  0.6 0.05 0  0.61 0.05 0  0.62 0.05 0  0.63 0.05 0  0.64 0.05 0  0.65 0.05 0  0.66 0.05 0  0.67 0.05 0  0.68 0.05 0  0.6899999999999999 0.05 0  0.7 0.05 0  0.71 0.05 0  0.72 0.05 0  0.73 0.05 0  0.74 0.05 0  0.75 0.05 0  0.76 0.05 0  0.77 0.05 0  0.78 0.05 0  0.79 0.05 0  0.8 0.05 0  0.8100000000000001 0.05 0  0.82 0.05 0  0.83 0.05 0  0.84 0.05 0  0.85 0.05 0  0.86 0.05 0  0.87 0.05 0  0.88 0.05 0  0.89 0.05 0  0.9 0.05 0  0.91 0.05 0  0.92 0.05 0  0.93 0.05 0  0.9399999999999999 0.05 0  0.95 0.05 0  0.96 0.05 0  0.97 0.05 0  0.98 0.05 0  0.99 0.05 0  1 0.05 0  0 0.06 0  0.01 0.06 0  0.02 0.06 0  0.03 0.06 0  0.04 0.06 0  0.05 0.06 0  0.06 0.06 0  0.07000000000000001 0.06 0  0.08 0.06 0  0.09 0.06 0  0.1 0.06 0  0.11 0.06 0  0.12 0.06 0  0.13 0.06 0  0.14 0.06 0  0.15 0.06 0  0.16 0.06 0  0.17 0.06 0  0.18 0.06 0  0.19 0.06 0  0.2 0.06 0  0.21 0.06 0  0.22 0.06 0  0.23 0.06 0  0.24 0.06 0  0.25 0.06 0  0.26 0.06 0  0.27 0.06 0  0.28 0.06 0  0.29 0.06 0  0.3 0.06 0  0.31 0.06 0  0.32 0.06 0  0.33 0.06 0  0.34 0.06 0  0.35 0.06 0  0.36 0.06 0  0.37 0.06 0  0.38 0.06 0  0.39 0.06 0  0.4 0.06 0  0.41 0.06 0  0.42 0.06 0  0.43 0.06 0  0.44 0.06 0  0.45 0.06 0  0.46 0.06 0  0.47 0.06 0  0.48 0.06 0  0.49 0.06 0  0.5 0.06 0  0.51 0.06 0  0.52 0.06 0  0.53 0.06 0  0.54 0.06 0  0.55 0.06 0  0.5600000000000001 0.06 0  0.57 0.06 0  0.58 0.06 0  0.59 0.06 0  0.6 0.06 0  0.61 0.06 0  0.62 0.06 0  0.63 0.06 0  0.64 0.06 0  0.65 0.06 0  0.66 0.06 0  0.67 0.06 0  0.68 0.06 0  0.6899999999999999 0.06 0  0.7 0.06 0  0.71 0.06 0  0.72 0.06 0  0.73 0.06 0  0.74 0.06 0  0.75 0.06 0  0.76 0.06 0  0.77 0.06 0  0.78 0.06 0  0.79 0.06 0  0.8 0.06 0  0.8100000000000001 0.06 0  0.82 0.06 0  0.83 0.06 0  0.84 0.06 0  0.85 0.06 0  0.86 0.06 0  0.87 0.06 0  0.88 0.06 0  0.89 0.06 0  0.9 0.06 0  0.91 0.06 0  0.92 0.06 0  0.93 0.06 0  0.9399999999999999 0.06 0  0.95 0.06 0  0.96 0.06 0  0.97 0.06 0  0.98 0.06 0  0.99 0.06 0  1 0.06 0  0 0.07000000000000001 0  0.01 0.07000000000000001 0  0.02 0.07000000000000001 0  0.03 0.07000000000000001 0  0.04 0.07000000000000001 0  0.05 0.07000000000000001 0  0.06 0.07000000000000001 0  0.07000000000000001 0.07000000000000001 0  0.08 0.07000000000000001 0  0.09 0.07000000000000001 0  0.1 0.07000000000000001 0  0.11 0.07000000000000001 0  0.12 0.07000000000000001 0  0.13 0.07000000000000001 0  0.14 0.07000000000000001 0  0.15 0.07000000000000001 0  0.16 0.07000000000000001 0  0.17 0.07000
[...]
<PointData  Scalars="rho_bar"> 
<DataArray  type="Float64"  Name="rho_bar"  format="ascii">7.5632100329064433e-01  7.5474323311946301e-01  7.5263673271718479e-01  7.4965025427573229e-01  7.4571361185964291e-01  7.4084461788525680e-01  7.3510052428053507e-01  7.2856276614848670e-01  7.2133463075084303e-01  7.1354318315889542e-01  7.0534665949626851e-01  6.9694035028760948e-01  6.8855961288098011e-01  6.8046012286718616e-01  6.7286862662735603e-01  6.6595730279578114e-01  6.5983173995635980e-01  6.5451868108929612e-01  6.4995721851448462e-01  6.4599280783867274e-01  6.4238488769183477e-01  6.3882749576849007e-01  6.3498176384830585e-01  6.3051337704050836e-01  6.2513523975034013e-01  6.1865602614728021e-01  6.1104588052773046e-01  6.0249234347932712e-01  5.9334851140436062e-01  5.8403108215902644e-01  5.7495873384744256e-01  5.6648627332679435e-01  5.5879072522949380e-01  5.5182678211956304e-01  5.4533421623384881e-01  5.3886532782702257e-01  5.3188308974470377e-01  5.2391864253595877e-01  5.1463845292549426e-01  5.0386538490757316e-01  4.9157076576466124e-01  4.7777100856880494e-01  4.6236028300811394e-01  4.4516004710701201e-01  4.2601026497846994e-01  4.0481662488022596e-01  3.8160046484607901e-01  3.5661777237420306e-01  3.3045445998477879e-01  3.0391516121817630e-01  2.7780544705455773e-01  2.5275931820249542e-01  2.2915647810686665e-01  2.0717750244089836e-01  1.8687867831210470e-01  1.6824367769266527e-01  1.5121519713133419e-01  1.3571362202403461e-01  1.2164754354021978e-01  1.0891981916816650e-01  9.7431326202863641e-02  8.7083536025009428e-02  7.7780473337872705e-02  6.9430024666845169e-02  6.1944943143883949e-02  5.5243301924385278e-02  4.9248914435332337e-02  4.3891347859811525e-02  3.9106010081133659e-02  3.4833892662114979e-02  3.1021453077220915e-02  2.7620245355937122e-02  2.4586665741774795e-02  2.1881519542843803e-02  1.9469711183191435e-02  1.7319824823919191e-02  1.5403823546381448e-02  1.3696654894984461e-02  1.2175989541139921e-02  1.0821903817904965e-02  9.6166491657501164e-03  8.5444029154100355e-03  7.5910763844121033e-03  6.7441273384181632e-03  5.9924067453706624e-03  5.3260097598345846e-03  4.7361558725916809e-03  4.2150795288594138e-03  3.7559258380020126e-03  3.3526734835673767e-03  3.0000451603416586e-03  2.6934488395266515e-03  2.4289071369215150e-03  2.2030119091273749e-03  2.0128702287505428e-03  1.8560838149213968e-03  1.7307078676371023e-03  1.6352615838541196e-03  1.5687719914745017e-03  1.5310944892438683e-03  1.5240718338306646e-03  7.4965269121550981e-01  7.4880545739634408e-01  7.4684623200763511e-01  7.4385268867945997e-01  7.3985272026277638e-01  7.3489175441207533e-01  7.2903755838218387e-01  7.2237859503441593e-01  7.1502258634139293e-01  7.0710083457643569e-01  6.9877556745363001e-01  6.9024662047888730e-01  6.8175145206026777e-01  6.7355034324645879e-01  6.6587829131669207e-01  6.5891506469443384e-01  6.5277119829284280e-01  6.4747807211076236e-01  6.4297666744951743e-01  6.3911157673059871e-01  6.3563692338435152e-01  6.3223986431129531e-01  6.2857513091131223e-01  6.2430565666856241e-01  6.1914546266984838e-01  6.1290947318352273e-01  6.0557051154327002e-01  5.9730599098464121e-01  5.8846234439120471e-01  5.7945027149224415e-01  5.7067397126728980e-01  5.6248094836222062e-01  5.5505533625245496e-01  5.4835869173059026e-01  5.4213736409954350e-01  5.3595570202139786e-01  5.2928530278471242e-01  5.2166576586751767e-01  5.1277483710768024e-01  5.0244356374898813e-01  4.9062911379609780e-01  4.7732745357818035e-01  4.6242741877296129e-01  4.4574405106472048e-01  4.2711278637388650e-01  4.0643942419613671e-01  3.8373698213037422e-01  3.5922672400583600e-01  3.3343489162922352e-01  3.0713727353910619e-01  2.8114021887368479e-01  2.5609560450307262e-01  2.3241105940084467e-01  2.1029081233021371e-01  1.8981043098707570e-01  1.7096939594411689e-01  1.5372308086584699e-01  1.3800170086412636e-01  1.2372105977803352e-01  1.1078891288884382e-01  9.9109146685928101e-02  8.8584843459216758e-02  7.9120568882049533e-02  7.0624112006096876e-02  6.3007590131103963e-02  5.6188246163514248e-02  5.0088785508626200e-02  4.4637695795189912e-02  3.9769202189105263e-02  3.5423256636393501e-02  3.1545257006804252e-02  2.8085857626886434e-02  2.5000589300430087e-02  2.2249540197521997e-02  1.9796926835503541e-02  1.7610775032729009e-02  1.5662510932004270e-02  1.3926653923534087e-02  1.2380459674233050e-02  1.1003664274396332e-02  9.7782023277653129e-03  8.6879824396380104e-03  7.7186690712770884e-03  6.8575082515465848e-03  6.0931585806877683e-03  5.4155496141073643e-03  4.8157540679482063e-03  4.2858741156530681e-03  3.8189471091657433e-03  3.4088475319659630e-03  3.0502179463977965e-03  2.7383888271398558e-03  2.4693234058858551e-03  2.2395541422634072e-03  2.0461487821207395e-03  1.8866607750710460e-03  1.7591066674155530e-03  1.6619365264107203e-03  1.5940252301389205e-03  1.5545928655251700e-03  1.5428031107155725e-03  7.3196408805048241e-01  7.3127068630713676e-01  7.2933312042794451e-01  7.2622740300492017e-01  7.2201939707520457e-01  7.1678149251112422e-01  7.1060267281393508e-01  7.0358828235281101e-01  6.9586051744867694e-01  6.8756083231965992e-01  6.7886110395093680e-01  6.6997299668006083e-01  6.6114680080347354e-01  6.5265774308235625e-01  6.4476341952625549e-01  6.3766309965151202e-01  6.3148232602430265e-01  6.2626422574208884e-01  6.2195769930058231e-01  6.1840346913822741e-01  6.1533999554304741e-01  6.1243166116392633e-01  6.0931350237025383e-01  6.0563751226418294e-01  6.0111855862582386e-01  5.9558298718078850e-01  5.8901989380736153e-01  5.8160452113359606e-01  5.7366261912716809e-01  5.6557901479755557e-01  5.5772469452103579e-01  5.5041543597107401e-01  5.4384036347654285e-01  5.3797541291476891e-01  5.3258224309653113e-01  5.2724906921514980e-01  5.2148072370901255e-01  5.1485289732785966e-01  5.0708184086705577e-01  4.9801919378688886e-01  4.8760704088652301e-01  4.7577849605160405e-01  4.6238572178295101e-01  4.4722327946879431e-01  4.3011354443375133e-01  4.1095183209888142e-01  3.8972453111114880e-01  3.6658620009808451e-01  3.4194711134998884e-01  3.1646905544497972e-01  2.9092497587479943e-01  2.6599388214150738e-01  2.4214825971794329e-01  2.1966379242569689e-01  1.9867853785082948e-01  1.7924415347925918e-01  1.6135788165511103e-01  1.4498268349671029e-01  1.3005848149617452e-01  1.1650958443914626e-01  1.0425029176543830e-01  9.3189370065193122e-02  8.3233796919426895e-02  7.4291442782897149e-02  6.6272991313372331e-02  5.9093194973356064e-02  5.2671746161620056e-02  4.6933756768356601e-02  4.1810098108886966e-02  3.7237396036226431e-02  3.3157999464803717e-02  2.9519719270278241e-02  2.6275551679129615e-02  2.3383290548475648e-02  2.0805156613372445e-02  1.8507378210134411e-02  1.6459831608246659e-02  1.4635634581806587e-02  1.3010838299517324e-02  1.1564095161253765e-02  1.0276392800811300e-02  9.1307928892411360e-03  8.1122161138711471e-03  7.2072470124963182e-03  6.4039622694344791e-03  5.6917745911487976e-03  5.0613029230121226e-03  4.5042538648614279e-03  4.0133132708659080e-03  3.5820569443404523e-03  3.2048599976905903e-03  2.8768293165380068e-03  2.5937310302245145e-03  2.3519342544050569e-03  2.1483602041285025e-03  1.9804395081550693e-03  1.8460763344320722e-03  1.7436005088103741e-03  1.6717317447904549e-03  1.6294882847072707e-03  1.6159934029980683e-03  7.0214086332324699e-01  7.0146588744277838e-01  6.9943515783184584e-01  6.9610012591850012e-01  6.9154230605581135e-01  6.8586073947525250e-01  6.7917282463275519e-01  6.7161047425822473e-01  6.6331857555358908e-01  6.5445468609890123e-01  6.4519950622744282e-01  6.3577430882990527e-01  6.2644951955013550e-01  6.1753505066336223e-01  6.0932800792325359e-01  6.0205666592150742e-01  5.9586354313669332e-01  5.9081010216928942e-01  5.8686053773715086e-01  5.8385354714296467e-01  5.8150355489164429e-01  5.7943894504835081e-01  5.7726302090675541e-01  5.7461239055009938e-01  5.7120310605634106e-01  5.6687501056104372e-01  5.6163683933092079e-01  5.5566119710429973e-01  5.4924002348881829e-01  5.4271306247528672e-01  5.3640398662015054e-01  5.3058467575276302e-01  5.2543287095694180e-01  5.2094628789665498e-01  5.1691064742396187e-01  5.1295467739966272e-01  5.0864731652636108e-01  5.0363058607341804e-01  4.9767223399699873e-01  4.9064438280608424e-01  4.8244926647060843e-01  4.7295627494895737e-01  4.6196784172626515e-01  4.4924979277836635e-01  4.3459677697765386e-01  4.1787646934076067e-01  3.9902742643548827e-01  3.7811845632971292e-01  3.5542531606721223e-01  3.3145073815426995e-01  3.0685333501193079e-01  2.8230315854381288e-01  2.5834802710729965e-01  2.3537583268523227e-01  2.1363184886915515e-01  1.9326062639172614e-01  1.7433521679645883e-01  1.5687971860490627e-01  1.4087968388667479e-01  1.2629142889279291e-01  1.1304975996328238e-01  1.0107535012587043e-01  9.0280842897253855e-02  8.0575496871888946e-02  7.1868347412532160e-02  6.4070478315129437e-02  5.7096650662820755e-02  5.0866453788496566e-02  4.5304993050358039e-02  4.0343322124306039e-02  3.5918495657839417e-02  3.1973490690797302e-02  2.8456913436518599e-02  2.5322651045482161e-02  2.2529449299714531e-02  2.0040486875441497e-02  1.7822923639770300e-02  1.5847514824387940e-02  1.4088202585366980e-02  1.2521794696005060e-02  1.1127634412860101e-02  9.8873357851191300e-03  8.7845357016706274e-03  7.8046825772915499e-03  6.9348472823783308e-03  6.1635600948954199e-03  5.4806600756748735e-03  4.8771709845443515e-03  4.3451839480597616e-03  3.8777540154593146e-03  3.4688095641514927e-03  3.1130676626861960e-03  2.8059628865562155e-03  2.5435825075559690e-03  2.3226040723522000e-03  2.1402590223964838e-03  1.9942673679902651e-03  1.8828218931667242e-03  1.8045092940653965e-03  1.7582831188219551e-03  1.7434117541131648e-03  6.5921719376860599e-01  6.5853650774711403e-01  6.5635033278440624e-01  6.5270305609162671e-01  6.4769584590625384e-01  6.4146202642086592e-01  6.3415802719628533e-01  6.2595013359559371e-01  6.1701143471157338e-01  6.0751832713506471e-01  5.9765728593702028e-01  5.8764863819875224e-01  5.7778195773932972e-01  5.6842045724737555e-01  5.5992475135834563e-01  5.5255315041455144e-01  5.4645595217320886e-01  5.4170868061007771e-01  5.3830207854816503e-01  5.3608152925140562e-01  5.3474290145535652e-01  5.3387601422564801e-01  5.3304866929296335e-01  5.3187951502136943e-01  5.3009318903333658e-01  5.2753379060840222e-01  5.2421561780751147e-01  5.2028991596410612e-01  5.1600011267803669e-01  5.1162734675352006e-01  5.0744239053640827e-01  5.0367210411056373e-01  5.0047065794030687e-01  4.9785727354332732e-01  4.9565621087783468e-01  4.9355012645278373e-01  4.9120411218351118e-01  4.8834484459465816e-01  4.8479404022409472e-01  4.8041750437227565e-01  4.7508371429142648e-01  4.6861280646133086e-01  4.6076592655910509e-01  4.5127733946276150e-01  4.3990267978289138e-01  4.2645714261620538e-01  4.1080977778823807e-01  3.9292554770318083e-01  3.7294380469913069e-01  3.5120672197018266e-01  3.2821753032094464e-01  3.0455530600227887e-01  2.8078729942773722e-01  2.5740894510214846e-01  2.3480600921213821e-01  2.1326035816926045e-01  1.9296158131131852e-01  1.7403261849525947e-01  1.5653450257886595e-01  1.4047790935780508e-01  1.2583397445856290e-01  1.1254554318103781e-01  1.0053759972015994e-01  8.9724468986274619e-02  8.0014955295220971e-02  7.1316200691750750e-02  6.3536627859850689e-02  5.6588181108088338e-02  5.0387872304659118e-02  4.4858677725096038e-02  3.9930016882036290e-02  3.5537789918863756e-02  3.1624207269709000e-02  2.8137427053460024e-02  2.5031114219776326e-02  2.2263947484562747e-02  1.9799138807415514e-02  1.7603938412955867e-02  1.5649221413557166e-02  1.3909065557506921e-02  1.2360414268310979e-02  1.0982750327482388e-02  9.7578279032171419e-03  8.6694290240248821e-03  7.7031552039223032e-03  6.8462389499745835e-03  6.0873855427932824e-03  5.4166210671207768e-03  4.8251699328801679e-03  4.3053331026678835e-03  3.8503871724364612e-03  3.4544888628969760e-03  3.1125930868418942e-03  2.8203767536302150e-03  2.5741770828893399e-03  2.3709289937105349e-03  2.2081276395177121e-03  2.0837603536928138e-03  1.9962937647639888e-03  1.9446112692777556e-03  1.9280306103363243e-03  6.0283521666411555e-01  6.0217568449600012e-01  5.9983494221035316e-01  5.9586775646553769e-01  5.9040479731950468e-01  5.8362842400444703e-01  5.7574554052177895e-01  5.6696339308211097e-01  5.5748681281852053e-01  5.4751503736407858e-01  5.3723492456918687e-01  5.2685047541471819e-01  5.1664863082375334e-01  5.0704777637685983e-01  4.9849035537629977e-01  4.9125950699223281e-01  4.8549474531825421e-01  4.8126185992378379e-01  4.7857475949039024e-01  4.7730266765286833e-01  4.7716056977353660e-01  4.7773778570250675e-01  4.7858785743973392e-01  4.7930064554240170e-01  4.7960244489255949e-01  4.7933237735644335e-01  4.7847131762138023e-01  4.7712512628217774e-01  4.7547638582768809e-01  4.7374316952191897e-01  4.7214175831384203e-01  4.7086096092431318e-01  4.7003367091686421e-01  4.6969239838616089e-01  4.6971193714064952e-01  4.6984707392818476e-01  4.6986037663750685e-01  4.6956621020762285e-01  4.6881990607552898e-01  4.6748526370650245e-01  4.6541839371227184e-01  4.6242298552308880e-01  4.5823314653864772e-01  4.5255749680748963e-01  4.4511240735549146e-01  4.3563622071017105e-01  4.2390214037786944e-01  4.0975499447706332e-01  3.9319415305196104e-01  3.7441417254986842e-01  3.5376306254470186e-01  3.3169431037465891e-01  3.0871470812012991e-01  2.8534159146270660e-01  2.6206802856053840e-01  2.3933318960497987e-01  2.1748274645571844e-01  1.9678765786794072e-01  1.7742504370524662e-01  1.5949372379745458e-01  1.4302619059085428e-01  1.2800557889274189e-01  1.1438224568779856e-01  1.0208430090543191e-01  9.1025159283021240e-02  8.1109819914678749e-02  7.2240138691969977e-02  6.4318917897102090e-02  5.7252861763843546e-02  5.0954447210645203e-02  4.5342925587302227e-02  4.0344737825298294e-02  3.5893457062561931e-02  3.1929487884567759e-02  2.8399585978316717e-02  2.5256319085345497e-02  2.2457489421498153e-02  1.9965591666736053e-02  1.7747280272601269e-02  1.5772922195331465e-02  1.4016163594530036e-02  1.2453579796326598e-02  1.1064347284021444e-02  9.8299743204678866e-03  8.7340547189162336e-03  7.7620594681112303e-03  6.9011445531304083e-03  6.1399906945856916e-03  5.4686440562127150e-03  4.8783915529570770e-03  4.3616303613482404e-03  3.9117654193114287e-03  3.5231071086256663e-03  3.1907881691534573e-03  2.9106849483501204e-03  2.6793551735573881e-03  2.4939761257221928e-03  2.3523035958665896e-03  2.2526208438271543e-03  2.1937202266357390e-03  2.1748927274086853e-03  5.3419335390535716e-01  5.3361894569338175e-01  5.3121245775959769e-01  5.2704921791332404e-01  5.2129604829609466e-01  5.1419444750339360e-01  5.0600836452620312e-01  4.9698314922045045e-01  4.8735286526979149e-01  4.7734462158790486e-01  4.6715298324222670e-01  4.5695864051615659e-01  4.4701763276165885e-01  4.3773686259401950e-01  4.2960924323765337e-01  4.2293278037732457e-01  4.1783260620562007e-01  4.1435524038868626e-01  4.1250419061034010e-01  4.1218229278080071e-01  4.1317037805796580e-01  4.1514476865057576e-01  4.1771831257641034e-01  4.2047252141484193e-01  4.2308441794271562e-01  4.2536074047134242e-01  4.2723367721323008e-01  4.2874479910003432e-01  4.3000884395021327e-01  4.3117881975277089e-01  4.3241829054631364e-01  4.3387978394051024e-01  4.3568138879410251e-01  4.3786420567401751e-01  4.4035639240523466e-01  4.4299159576595126e-01  4.4560771014648842e-01  4.4807262849853774e-01  4.5027335120635581e-01  4.5209499059027120e-01  4.5341258196503742e-01  4.5405068153787098e-01  4.5373929037547533e-01  4.5217066417682800e-01  4.4903985809217462e-01  4.4401035035141834e-01  4.3672916260050987e-01  4.2690394576983060e-01  4.1438613103446625e-01  3.9923573371154319e-01  3.8166139316693687e-01  3.6198364836983721e-01  3.4060716030871124e-01  3.1799252530779959e-01  2.9464679892877499e-01  2.7109771406575534e-01  2.4783656860547154e-01  2.2531689819928372e-01  2.0387977417724990e-01  1.8376049265575739e-01  1.6509330811711506e-01  1.4793231802066759e-01  1.3227849080382123e-01  1.1809185814536421e-01  1.0530190030375948e-01  9.3817634457040819e-02  8.3536734493543277e-02  7.4352939928813297e-02  6.6161327739985898e-02  5.8861812101315129e-02  5.2361131416482326e-02  4.6573803203289944e-02  4.1422405557471814e-02  3.6837351160701519e-02  3.2756451480420085e-02  2.9124308205535285e-02  2.5891662677620789e-02  2.3014751182150871e-02  2.0454702982426812e-02  1.8176976849651527e-02  1.6150891105870209e-02  1.4349174872513058e-02  1.2747615012691097e-02  1.1324721135287196e-02  1.0061451859156020e-02  8.9409614894412417e-03  7.9483857005032219e-03  7.0706385763008315e-03  6.2962436942024039e-03  5.6151629543907391e-03  5.0186631673672932e-03  4.4991739988957001e-03  4.0501800211408083e-03  3.6661121048523243e-03  3.3422602959581205e-03  3.0746938904916542e-03  2.8601990955654964e-03  2.6962179802234626e-03  2.5808165812784638e-03  2.5126352491937078e-03  2.4909053118255687e-03  4.5720334599278406e-01  4.5675218687409425e-01  4.5445132886224393e-01  4.5038911420605987e-01  4.4475151459618756e-01  4.3781845295716099e-01  4.2989255325366987e-01  4.2124268186627650e-01  4.1211201750234788e-01  4.0274450231658465e-01  3.9335087289285703e-01  3.8410722893815297e-01  3.7523547131798046e-01  3.6706656243159130e-01  3.6000264095753676e-01  3.5432944618390311e-01  3.5017538325533626e-01  3.4758806153643090e-01  3.4656973374049133e-01  3.4705865876626180e-01  3.4891638104901723e-01  3.5193570530865659e-01  3.5584970569384972e-01  3.6032665070068648e-01  3.6501724746032888e-01  3.6966315575689235e-01  3.7413510269380268e-01  3.7840499262103389e-01  3.8251433533469709e-01  3.8654998749933889e-01  3.9062200817369802e-01  3.9484590173991629e-01  3.9931937147588403e-01  4.0408647608934728e-01  4.0911802663386493e-01  4.1431165361725258e-01  4.1955353637736564e-01  4.2474390624475422e-01  4.2979552949449340e-01  4.3462806409828525e-01  4.3915672364187275e-01  4.4325304194450443e-01  4.4668541175817544e-01  4.4914692348230584e-01  4.5033457993055603e-01  4.4987225551194499e-01  4.4728838887415878e-01  4.4214343445980225e-01  4.3412779102354943e-01  4.2317156194425554e-01  4.0936761571066943e-01  3.9291384375516702e-01  3.7409166119250803e-01  3.5324810176060895e-01  3.3081203931213282e-01  3.0729922016026107e-01  2.8326886662755296e-01  2.5930470696221480e-01  2.3591909271030209e-01  2.1352935967532080e-01  1.9243040859325267e-01  1.7279735137491795e-01  1.5472737196411387e-01  1.3824690515107740e-01  1.2332465622324572e-01  1.0988790901526913e-01  9.7838023890149853e-02  8.7063250923969313e-02  7.7448058647028348e-02  6.8879139318334059e-02  6.1249126376686232e-02  5.4458565587540184e-02  4.8416739842152848e-02  4.3041807612909884e-02  3.8260424465976099e-02  3.4007164727837040e-02  3.0223809097221107e-02  2.6858609301101743e-02  2.3865592132032289e-02  2.1203921149296364e-02  1.8837309613524748e-02  1.6733541614658204e-02  1.4864013107437235e-02  1.3203374033886776e-02  1.1729182381529089e-02  1.0421621282972474e-02  9.2632300933944752e-03  8.2386761258539196e-03  7.3345325227549274e-03  6.5390937277912996e-03  5.8421854259654675e-03  5.2350179411171805e-03  4.7100320855136416e-03  4.2607813776367959e-03  3.8818195360991159e-03  3.5686087048410527e-03  3.3174389813990556e-03  3.1253723690613210e-03  2.9901784594789298e-03  2.9103150285652089e-03  2.8849030723996348e-03  3.7877048576548517e-01  3.7835620353833888e-01  3.7630611865088520e-01  3.7269680654510318e-01  3.6769097310030568e-01  3.6154659983041687e-01  3.5454771560206744e-01  3.4695678879618841e-01  3.3900822679356152e-01  3.3092755785089628e-01  3.2291960072757314e-01  3.1516185194825447e-01  3.0784973093201490e-01  3.0123500885860344e-01  2.9560201385976814e-01  2.9117652248651210e-01  2.8808750237725206e-01  2.8639620690299228e-01  2.8612115114153047e-01  2.8723832337667377e-01  2.8967864381584096e-01  2.93330909366