<?xml version="1.0"?>
<VTKFile type="UnstructuredGrid"  version="0.1"  >
<UnstructuredGrid>
<Piece  NumberOfPoints="5151" NumberOfCells="10000">
<Points>
<DataArray  type="Float64"  NumberOfComponents="3"  format="ascii">0 0 0  0.01 0 0  0.02 0 0  0.03 0 0  0.04 0 0  0.05 0 0  0.06 0 0  0.07000000000000001 0 0  0.08 0 0  0.09 0 0  0.1 0 0  0.11 0 0  0.12 0 0  0.13 0 0  0.14 0 0  0.15 0 0  0.16 0 0  0.17 0 0  0.18 0 0  0.19 0 0  0.2 0 0  0.21 0 0  0.22 0 0  0.23 0 0  0.24 0 0  0.25 0 0  0.26 0 0  0.27 0 0  0.28 0 0  0.29 0 0  0.3 0 0  0.31 0 0  0.32 0 0  0.33 0 0  0.34 0 0  0.35 0 0  0.36 0 0  0.37 0 0  0.38 0 0  0.39 0 0  0.4 0 0  0.41 0 0  0.42 0 0  0.43 0 0  0.44 0 0  0.45 0 0  0.46 0 0  0.47 0 0  0.48 0 0  0.49 0 0  0.5 0 0  0.51 0 0  0.52 0 0  0.53 0 0  0.54 0 0  0.55 0 0  0.5600000000000001 0 0  0.57 0 0  0.58 0 0  0.59 0 0  0.6 0 0  0.61 0 0  0.62 0 0  0.63 0 0  0.64 0 0  0.65 0 0  0.66 0 0  0.67 0 0  0.68 0 0  0.6899999999999999 0 0  0.7 0 0  0.71 0 0  0.72 0 0  0.73 0 0  0.74 0 0  0.75 0 0  0.76 0 0  0.77 0 0  0.78 0 0  0.79 0 0  0.8 0 0  0.8100000000000001 0 0  0.82 0 0  0.83 0 0  0.84 0 0  0.85 0 0  0.86 0 0  0.87 0 0  0.88 0 0  0.89 0 0  0.9 0 0  0.91 0 0  0.92 0 0  0.93 0 0  0.9399999999999999 0 0  0.95 0 0  0.96 0 0  0.97 0 0  0.98 0 0  0.99 0 0  1 0 0  0 0.01 0  0.01 0.01 0  0.02 0.01 0  0.03 0.01 0  0.04 0.01 0  0.05 0.01 0  0.06 0.01 0  0.07000000000000001 0.01 0  0.08 0.01 0  0.09 0.01 0  0.1 0.01 0  0.11 0.01 0  0.12 0.01 0  0.13 0.01 0  0.14 0.01 0  0.15 0.01 0  0.16 0.01 0  0.17 0.01 0  0.18 0.01 0  0.19 0.01 0  0.2 0.01 0  0.21 0.01 0  0.22 0.01 0  0.23 0.01 0  0.24 0.01 0  0.25 0.01 0  0.26 0.01 0  0.27 0.01 0  0.28 0.01 0  0.29 0.01 0  0.3 0.01 0  0.31 0.01 0  0.32 0.01 0  0.33 0.01 0  0.34 0.01 0  0.35 0.01 0  0.36 0.01 0  0.37 0.01 0  0.38 0.01 0  0.39 0.01 0  0.4 0.01 0  0.41 0.01 0  0.42 0.01 0  0.43 0.01 0  0.44 0.01 0  0.45 0.01 0  0.46 0.01 0  0.47 0.01 0  0.48 0.01 0  0.49 0.01 0  0.5 0.01 0  0.51 0.01 0  0.52 0.01 0  0.53 0.01 0  0.54 0.01 0  0.55 0.01 0  0.5600000000000001 0.01 0  0.57 0.01 0  0.58 0.01 0  0.59 0.01 0  0.6 0.01 0  0.61 0.01 0  0.62 0.01 0  0.63 0.01 0  0.64 0.01 0  0.65 0.01 0  0.66 0.01 0  0.67 0.01 0  0.68 0.01 0  0.6899999999999999 0.01 0  0.7 0.01 0  0.71 0.01 0  0.72 0.01 0  0.73 0.01 0  0.74 0.01 0  0.75 0.01 0  0.76 0.01 0  0.77 0.01 0  0.78 0.01 0  0.79 0.01 0  0.8 0.01 0  0.8100000000000001 0.01 0  0.82 0.01 0  0.83 0.01 0  0.84 0.01 0  0.85 0.01 0  0.86 0.01 0  0.87 0.01 0  0.88 0.01 0  0.89 0.01 0  0.9 0.01 0  0.91 0.01 0  0.92 0.01 0  0.93 0.01 0  0.9399999999999999 0.01 0  0.95 0.01 0  0.96 0.01 0  0.97 0.01 0  0.98 0.01 0  0.99 0.01 0  1 0.01 0  0 0.02 0  0.01 0.02 0  0.02 0.02 0  0.03 0.02 0  0.04 0.02 0  0.05 0.02 0  0.06 0.02 0  0.07000000000000001 0.02 0  0.08 0.02 0  0.09 0.02 0  0.1 0.02 0  0.11 0.02 0  0.12 0.02 0  0.13 0.02 0  0.14 0.02 0  0.15 0.02 0  0.16 0.02 0  0.17 0.02 0  0.18 0.02 0  0.19 0.02 0  0.2 0.02 0  0.21 0.02 0  0.22 0.02 0  0.23 0.02 0  0.24 0.02 0  0.25 0.02 0  0.26 0.02 0  0.27 0.02 0  0.28 0.02 0  0.29 0.02 0  0.3 0.02 0  0.31 0.02 0  0.32 0.02 0  0.33 0.02 0  0.34 0.02 0  0.35 0.02 0  0.36 0.02 0  0.37 0.02 0  0.38 0.02 0  0.39 0.02 0  0.4 0.02 0  0.41 0.02 0  0.42 0.02 0  0.43 0.02 0  0.44 0.02 0  0.45 0.02 0  0.46 0.02 0  0.47 0.02 0  0.48 0.02 0  0.49 0.02 0  0.5 0.02 0  0.51 0.02 0  0.52 0.02 0  0.53 0.02 0  0.54 0.02 0  0.55 0.02 0  0.5600000000000001 0.02 0  0.57 0.02 0  0.58 0.02 0  0.59 0.02 0  0.6 0.02 0  0.61 0.02 0  0.62 0.02 0  0.63 0.02 0  0.64 0.02 0  0.65 0.02 0  0.66 0.02 0  0.67 0.02 0  0.68 0.02 0  0.6899999999999999 0.02 0  0.7 0.02 0  0.71 0.02 0  0.72 0.02 0  0.73 0.02 0  0.74 0.02 0  0.75 0.02 0  0.76 0.02 0  0.77 0.02 0  0.78 0.02 0  0.79 0.02 0  0.8 0.02 0  0.8100000000000001 0.02 0  0.82 0.02 0  0.83 0.02 0  0.84 0.02 0  0.85 0.02 0  0.86 0.02 0  0.87 0.02 0  0.88 0.02 0  0.89 0.02 0  0.9 0.02 0  0.91 0.02 0  0.92 0.02 0  0.93 0.02 0  0.9399999999999999 0.02 0  0.95 0.02 0  0.96 0.02 0  0.97 0.02 0  0.98 0.02 0  0.99 0.02 0  1 0.02 0  0 0.03 0  0.01 0.03 0  0.02 0.03 0  0.03 0.03 0  0.04 0.03 0  0.05 0.03 0  0.06 0.03 0  0.07000000000000001 0.03 0  0.08 0.03 0  0.09 0.03 0  0.1 0.03 0  0.11 0.03 0  0.12 0.03 0  0.13 0.03 0  0.14 0.03 0  0.15 0.03 0  0.16 0.03 0  0.17 0.03 0  0.18 0.03 0  0.19 0.03 0  0.2 0.03 0  0.21 0.03 0  0.22 0.03 0  0.23 0.03 0  0.24 0.03 0  0.25 0.03 0  0.26 0.03 0  0.27 0.03 0  0.28 0.03 0  0.29 0.03 0  0.3 0.03 0  0.31 0.03 0  0.32 0.03 0  0.33 0.03 0  0.34 0.03 0  0.35 0.03 0  0.36 0.03 0  0.37 0.03 0  0.38 0.03 0  0.39 0.03 0  0.4 0.03 0  0.41 0.03 0  0.42 0.03 0  0.43 0.03 0  0.44 0.03 0  0.45 0.03 0  0.46 0.03 0  0.47 0.03 0  0.48 0.03 0  0.49 0.03 0  0.5 0.03 0  0.51 0.03 0  0.52 0.03 0  0.53 0.03 0  0.54 0.03 0  0.55 0.03 0  0.5600000000000001 0.03 0  0.57 0.03 0  0.58 0.03 0  0.59 0.03 0  0.6 0.03 0  0.61 0.03 0  0.62 0.03 0  0.63 0.03 0  0.64 0.03 0  0.65 0.03 0  0.66 0.03 0  0.67 0.03 0  0.68 0.03 0  0.6899999999999999 0.03 0  0.7 0.03 0  0.71 0.03 0  0.72 0.03 0  0.73 0.03 0  0.74 0.03 0  0.75 0.03 0  0.76 0.03 0  0.77 0.03 0  0.78 0.03 0  0.79 0.03 0  0.8 0.03 0  0.8100000000000001 0.03 0  0.82 0.03 0  0.83 0.03 0  0.84 0.03 0  0.85 0.03 0  0.86 0.03 0  0.87 0.03 0  0.88 0.03 0  0.89 0.03 0  0.9 0.03 0  0.91 0.03 0  0.92 0.03 0  0.93 0.03 0  0.9399999999999999 0.03 0  0.95 0.03 0  0.96 0.03 0  0.97 0.03 0  0.98 0.03 0  0.99 0.03 0  1 0.03 0  0 0.04 0  0.01 0.04 0  0.02 0.04 0  0.03 0.04 0  0.04 0.04 0  0.05 0.04 0  0.06 0.04 0  0.07000000000000001 0.04 0  0.08 0.04 0  0.09 0.04 0  0.1 0.04 0  0.11 0.04 0  0.12 0.04 0  0.13 0.04 0  0.14 0.04 0  0.15 0.04 0  0.16 0.04 0  0.17 0.04 0  0.18 0.04 0  0.19 0.04 0  0.2 0.04 0  0.21 0.04 0  0.22 0.04 0  0.23 0.04 0  0.24 0.04 0  0.25 0.04 0  0.26 0.04 0  0.27 0.04 0  0.28 0.04 0  0.29 0.04 0  0.3 0.04 0  0.31 0.04 0  0.32 0.04 0  0.33 0.04 0  0.34 0.04 0  0.35 0.04 0  0.36 0.04 0  0.37 0.04 0  0.38 0.04 0  0.39 0.04 0  0.4 0.04 0  0.41 0.04 0  0.42 0.04 0  0.43 0.04 0  0.44 0.04 0  0.45 0.04 0  0.46 0.04 0  0.47 0.04 0  0.48 0.04 0  0.49 0.04 0  0.5 0.04 0  0.51 0.04 0  0.52 0.04 0  0.53 0.04 0  0.54 0.04 0  0.55 0.04 0  0.5600000000000001 0.04 0  0.57 0.04 0  0.58 0.04 0  0.59 0.04 0  0.6 0.04 0  0.61 0.04 0  0.62 0.04 0  0.63 0.04 0  0.64 0.04 0  0.65 0.04 0  0.66 0.04 0  0.67 0.04 0  0.68 0.04 0  0.6899999999999999 0.04 0  0.7 0.04 0  0.71 0.04 0  0.72 0.04 0  0.73 0.04 0  0.74 0.04 0  0.75 0.04 0  0.76 0.04 0  0.77 0.04 0  0.78 0.04 0  0.79 0.04 0  0.8 0.04 0  0.8100000000000001 0.04 0  0.82 0.04 0  0.83 0.04 0  0.84 0.04 0  0.85 0.04 0  0.86 0.04 0  0.87 0.04 0  0.88 0.04 0  0.89 0.04 0  0.9 0.04 0  0.91 0.04 0  0.92 0.04 0  0.93 0.04 0  0.9399999999999999 0.04 0  0.95 0.04 0  0.96 0.04 0  0.97 0.04 0  0.98 0.04 0  0.99 0.04 0  1 0.04 0  0 0.05 0  0.01 0.05 0  0.02 0.05 0  0.03 0.05 0  0.04 0.05 0  0.05 0.05 0  0.06 0.05 0  0.07000000000000001 0.05 0  0.08 0.05 0  0.09 0.05 0  0.1 0.05 0  0.11 0.05 0  0.12 0.05 0  0.13 0.05 0  0.14 0.05 0  0.15 0.05 0  0.16 0.05 0  0.17 0.05 0  0.18 0.05 0  0.19 0.05 0  0.2 0.05 0  0.21 0.05 0  0.22 0.05 0  0.23 0.05 0  0.24 0.05 0  0.25 0.05 0  0.26 0.05 0  0.27 0.05 0  0.28 0.05 0  0.29 0.05 0  0.3 0.05 0  0.31 0.05 0  0.32 0.05 0  0.33 0.05 0  0.34 0.05 0  0.35 0.05 0  0.36 0.05 0  0.37 0.05 0  0.38 0.05 0  0.39 0.05 0  0.4 0.05 0  0.41 0.05 0  0.42 0.05 0  0.43 0.05 0  0.44 0.05 0  0.45 0.05 0  0.46 0.05 0  0.47 0.05 0  0.48 0.05 0  0.49 0.05 0  0.5 0.05 0  0.51 0.05 0  0.52 0.05 0  0.53 0.05 0  0.54 0.05 0  0.55 0.05 0  0.5600000000000001 0.05 0  0.57 0.05 0  0.58 0.05 0  0.59 0.05 0  0.6 0.05 0  0.61 0.05 0  0.62 0.05 0  0.63 0.05 0  0.64 0.05 0  0.65 0.05 0  0.66 0.05 0  0.67 0.05 0  0.68 0.05 0  0.6899999999999999 0.05 0  0.7 0.05 0  0.71 0.05 0  0.72 0.05 0  0.73 0.05 0  0.74 0.05 0  0.75 0.05 0  0.76 0.05 0  0.77 0.05 0  0.78 0.05 0  0.79 0.05 0  0.8 0.05 0  0.8100000000000001 0.05 0  0.82 0.05 0  0.83 0.05 0  0.84 0.05 0  0.85 0.05 0  0.86 0.05 0  0.87 0.05 0  0.88 0.05 0  0.89 0.05 0  0.9 0.05 0  0.91 0.05 0  0.92 0.05 0  0.93 0.05 0  0.9399999999999999 0.05 0  0.95 0.05 0  0.96 0.05 0  0.97 0.05 0  0.98 0.05 0  0.99 0.05 0  1 0.05 0  0 0.06 0  0.01 0.06 0  0.02 0.06 0  0.03 0.06 0  0.04 0.06 0  0.05 0.06 0  0.06 0.06 0  0.07000000000000001 0.06 0  0.08 0.06 0  0.09 0.06 0  0.1 0.06 0  0.11 0.06 0  0.12 0.06 0  0.13 0.06 0  0.14 0.06 0  0.15 0.06 0  0.16 0.06 0  0.17 0.06 0  0.18 0.06 0  0.19 0.06 0  0.2 0.06 0  0.21 0.06 0  0.22 0.06 0  0.23 0.06 0  0.24 0.06 0  0.25 0.06 0  0.26 0.06 0  0.27 0.06 0  0.28 0.06 0  0.29 0.06 0  0.3 0.06 0  0.31 0.06 0  0.32 0.06 0  0.33 0.06 0  0.34 0.06 0  0.35 0.06 0  0.36 0.06 0  0.37 0.06 0  0.38 0.06 0  0.39 0.06 0  0.4 0.06 0  0.41 0.06 0  0.42 0.06 0  0.43 0.06 0  0.44 0.06 0  0.45 0.06 0  0.46 0.06 0  0.47 0.06 0  0.48 0.06 0  0.49 0.06 0  0.5 0.06 0  0.51 0.06 0  0.52 0.06 0  0.53 0.06 0  0.54 0.06 0  0.55 0.06 0  0.5600000000000001 0.06 0  0.57 0.06 0  0.58 0.06 0  0.59 0.06 0  0.6 0.06 0  0.61 0.06 0  0.62 0.06 0  0.63 0.06 0  0.64 0.06 0  0.65 0.06 0  0.66 0.06 0  0.67 0.06 0  0.68 0.06 0  0.6899999999999999 0.06 0  0.7 0.06 0  0.71 0.06 0  0.72 0.06 0  0.73 0.06 0  0.74 0.06 0  0.75 0.06 0  0.76 0.06 0  0.77 0.06 0  0.78 0.06 0  0.79 0.06 0  0.8 0.06 0  0.8100000000000001 0.06 0  0.82 0.06 0  0.83 0.06 0  0.84 0.06 0  0.85 0.06 0  0.86 0.06 0  0.87 0.06 0  0.88 0.06 0  0.89 0.06 0  0.9 0.06 0  0.91 0.06 0  0.92 0.06 0  0.93 0.06 0  0.9399999999999999 0.06 0  0.95 0.06 0  0.96 0.06 0  0.97 0.06 0  0.98 0.06 0  0.99 0.06 0  1 0.06 0  0 0.07000000000000001 0  0.01 0.07000000000000001 0  0.02 0.07000000000000001 0  0.03 0.07000000000000001 0  0.04 0.07000000000000001 0  0.05 0.07000000000000001 0  0.06 0.07000000000000001 0  0.07000000000000001 0.07000000000000001 0  0.08 0.07000000000000001 0  0.09 0.07000000000000001 0  0.1 0.07000000000000001 0  0.11 0.07000000000000001 0  0.12 0.07000000000000001 0  0.13 0.07000000000000001 0  0.14 0.07000000000000001 0  0.15 0.07000000000000001 0  0.16 0.07000000000000001 0  0.17 0.07000
[...]
<PointData  Scalars="rho"> 
<DataArray  type="Float64"  Name="rho"  format="ascii">9.8843697098773076e-01  9.8319873917034095e-01  9.7917260607412193e-01  9.7516817303213077e-01  9.7342333207591858e-01  9.7536100596789588e-01  9.8251999053718586e-01  9.8924732277911021e-01  9.9302121058994963e-01  9.9354271449698328e-01  9.9470063265598474e-01  9.9551260415646281e-01  9.9612086951877310e-01  9.9952767284692612e-01  9.9803073432869793e-01  9.9810603105335505e-01  9.9779295955351877e-01  9.9744980147823714e-01  9.9719210820038229e-01  9.9711415169077888e-01  9.9797400378840440e-01  9.9830896372513600e-01  9.9809834831153810e-01  9.9857957070349779e-01  9.9915237520616795e-01  9.9889095091213709e-01  9.9926317106038443e-01  9.9967734551230314e-01  1.0000000000000000e+00  1.0000000000000000e+00  9.9998609994441323e-01  1.0000000000000000e+00  1.0000000000000000e+00  9.9988937081515006e-01  9.9980366920686170e-01  9.9253803927829687e-01  7.2830716876561741e-01  5.7741866899838246e-01  2.3512338294151794e-01  3.3202520105560648e-05  6.3572676157832328e-05  2.9121544952526628e-05  2.7201730050678753e-05  2.5115962004256050e-05  2.7526756076526410e-05  2.4973647400082253e-05  1.5817603280097828e-05  1.4313836280650344e-05  3.8127474729756790e-05  3.4625190413381109e-05  3.1487944079752171e-05  2.8642909887702131e-05  2.6027476962919959e-05  2.3594932935919041e-05  1.7904835063346603e-05  1.6736844349345745e-05  2.8555211921860513e-05  2.8210122719099496e-05  3.3928144486699885e-05  3.0708537902454124e-05  2.5606971099508693e-05  1.9703420268141618e-05  1.3754374911052084e-05  8.2385658354747984e-06  5.0610910598511237e-06  4.3641180241011014e-06  3.7540003300282656e-06  3.2223120273466564e-06  2.7607909264767087e-06  2.8113531079168189e-06  2.4013848099408370e-06  2.0486606793823847e-06  1.7458407302201678e-06  1.4863364757069798e-06  1.2642875495342683e-06  8.9543506344459104e-07  7.6042036736784802e-07  6.4523274846981008e-07  5.4701122050485234e-07  4.6328490412951923e-07  3.9192474377621748e-07  3.3110495509820608e-07  2.7926186438479681e-07  2.3506415240768552e-07  1.9737537872201057e-07  1.6523253081786460e-07  1.3781733658704637e-07  1.1444237707067827e-07  9.4524460169875377e-08  7.7573420294948722e-08  6.3176358146153852e-08  5.0991559634187569e-08  4.0735881924148144e-08  3.2173238801837740e-08  2.5114456757902141e-08  1.9399294195709892e-08  1.4907849848548834e-08  1.1541133439234598e-08  9.2391350817129418e-09  7.9530555892684727e-09  2.5433603325297977e-09  9.8378682871108258e-01  9.7168775845846445e-01  9.6694500019938556e-01  9.6118017419700474e-01  9.5900946487118011e-01  9.6003209592301431e-01  9.7294841070479299e-01  9.7892230009060888e-01  9.8890640082973102e-01  9.8987768089001371e-01  9.9190336707126336e-01  9.9038605331100393e-01  9.9436978497966300e-01  9.9946415108005326e-01  9.9545971498677743e-01  9.9764533909582420e-01  9.9714300423940427e-01  9.9656596061899394e-01  9.9610789495770535e-01  9.9593106296783163e-01  9.9623662090919973e-01  9.9765689725717355e-01  9.9732693371047554e-01  9.9803600178331209e-01  9.9888391095925488e-01  9.9825726896942746e-01  9.9866527303958375e-01  9.9916589882084328e-01  1.0000000000000000e+00  1.0000000000000000e+00  9.9824759415632447e-01  9.9967037961628191e-01  9.9939668903119538e-01  9.9964982096552657e-01  1.0000000000000000e+00  9.9681115005840937e-01  9.7623430741968231e-01  7.1115611204976026e-01  3.7297431323782576e-01  6.8207715354185833e-05  6.5381244760889077e-05  6.0677050203711456e-05  5.6441599324954354e-05  5.2060361426553162e-05  5.7024421513970444e-05  3.6197352503678773e-05  3.2743747537989925e-05  2.4892151817923038e-05  7.8969416444892889e-05  7.1769503579909377e-05  6.5330557881631434e-05  5.9493482484385345e-05  5.4122564228460470e-05  4.1258844374373600e-05  3.7309173445208775e-05  6.7871524222420370e-05  8.4391455581829734e-05  7.4673167696004511e-05  8.5314983378941838e-05  7.5286789844609839e-05  6.2150365083619009e-05  4.7931385272814559e-05  3.4048933809189008e-05  2.1392003525028222e-05  1.0582468188200336e-05  9.1254534633569096e-06  7.8498525285268780e-06  6.7381463677738765e-06  5.7730983457922520e-06  5.8788491933054727e-06  5.0215689266312755e-06  4.2839950914037790e-06  3.6507836303462916e-06  3.1081596219093705e-06  2.6438687592918097e-06  1.8725783856011894e-06  1.5902915877944575e-06  1.3494682557561015e-06  1.1441253989404439e-06  9.6909203580458132e-07  8.1991735280868832e-07  6.9277812344359699e-07  5.8440750658024942e-07  4.9201543418796189e-07  4.1322986709359412e-07  3.4602998281314784e-07  2.8871020941549747e-07  2.3982577281523227e-07  1.9816078923580052e-07  1.6268568966330048e-07  1.3254105837441513e-07  1.0700657481345380e-07  8.5486203701791887e-08  6.7491769076285709e-08  5.2614585815047469e-08  4.0530906323986725e-08  3.0971209637682564e-08  2.3741344978709848e-08  1.8689916245702305e-08  1.5726069139402261e-08  7.4670456063635596e-09  9.8545706612647788e-01  9.7306161589439710e-01  9.6383005203308336e-01  9.5653144967511672e-01  9.4922514205359954e-01  9.4838680919263496e-01  9.5750595588189757e-01  9.7075667105390895e-01  9.8223979729207977e-01  9.8851693282924935e-01  9.9128447458968705e-01  9.9174417788409652e-01  9.9463215945533845e-01  9.9786283793697439e-01  9.9563579333354524e-01  9.9574247800620153e-01  9.9711130329707787e-01  9.9622883951093932e-01  9.9555813732756526e-01  9.9529280866007763e-01  9.9563611820350961e-01  9.9723150050819220e-01  9.9704342885238073e-01  9.9785307075983376e-01  9.9878661551967374e-01  9.9797110418377022e-01  9.9842611670968806e-01  1.0000000000000000e+00  1.0000000000000000e+00  1.0000000000000000e+00  1.0000000000000000e+00  1.0000000000000000e+00  1.0000000000000000e+00  1.0000000000000000e+00  9.9968840038541851e-01  9.9956867893502355e-01  9.8935034456937865e-01  8.1342314090715528e-01  6.6374143132604457e-01  2.0748571946165587e-01  8.8960346657327710e-05  6.8870723214331910e-05  7.5442753900245509e-05  6.8598388244419520e-05  4.3386210128732368e-05  3.9071127397610838e-05  2.9570563416063488e-05  2.6723526041675356e-05  8.4815348902110566e-05  7.7200439286559120e-05  7.0413496430248897e-05  6.4244360064329308e-05  4.9164611723015049e-05  4.4653069332439062e-05  5.3633041805998489e-05  1.0447430319114141e-04  1.1561886584451564e-04  1.1488200333343095e-04  1.0440483972779491e-04  8.8768964229101038e-05  7.0906307425998126e-05  5.2936113494226037e-05  3.6227823039746644e-05  2.1542066657659178e-05  1.1258259350570431e-05  9.6935276198267880e-06  8.3272291796432925e-06  7.1393052811715915e-06  6.1102915897846046e-06  6.2163905122231599e-06  5.3055406713713038e-06  4.5230317226270935e-06  3.8521118656384893e-06  3.2778209023173515e-06  2.7869103925414437e-06  1.9731118196382194e-06  1.6750938134590836e-06  1.4209945729235906e-06  1.2044280942893334e-06  1.0198896706532273e-06  8.6264894034570917e-07  7.2865329974204640e-07  6.1443946354999871e-07  5.1706005517819925e-07  4.3400706947390304e-07  3.6315348146305697e-07  3.0269677076106176e-07  2.5111893864665942e-07  2.0713832278316816e-07  1.6967643135858594e-07  1.3782797022234173e-07  1.1083926105526035e-07  8.8082417073119257e-08  6.9041896688763382e-08  5.3297293946560974e-08  4.0498691690054225e-08  3.0373477869898119e-08  2.2708903788043605e-08  1.7360002497239596e-08  1.4211487390472746e-08  6.7700198104041662e-09  9.9657319312026693e-01  9.8142216564855922e-01  9.5669891589243561e-01  9.4472956834371780e-01  9.2354558935731057e-01  9.1881447290780327e-01  9.0590471783912785e-01  9.3043005441318083e-01  9.4504267094087935e-01  9.6915748219264730e-01  9.8887063490925275e-01  9.8882874307740842e-01  9.9215175530450961e-01  9.9799412768864082e-01  9.9566166994643146e-01  9.9521577682921492e-01  9.9686447256398247e-01  9.9548766446891412e-01  9.9448190591722052e-01  9.9410102330764416e-01  9.9439163002699438e-01  9.9541677906210835e-01  9.9559347279368426e-01  9.9755675564302138e-01  9.9843931801511188e-01  9.9893649920047900e-01  9.9797634413727276e-01  1.0000000000000000e+00  1.0000000000000000e+00  1.0000000000000000e+00  1.0000000000000000e+00  1.0000000000000000e+00  1.0000000000000000e+00  8.9949888890668295e-01  8.5991294084670611e-01  1.0000000000000000e+00  9.2406692117209899e-01  9.8187938183866630e-01  7.5258514498846230e-01  5.4711902694095715e-01  2.8771703093428092e-01  3.4410549400829172e-04  2.2004800537126705e-04  2.3577069676637718e-04  1.3506511694629932e-04  7.6728900818696602e-05  5.3366636152747583e-05  6.5523714270480492e-05  1.1380914063131857e-04  8.6585524572172740e-05  7.9247557881900719e-05  7.2532573827665766e-05  5.5635001411379333e-05  7.2594015263319271e-05  1.0421648479137426e-04  1.6955294773423986e-04  1.7052861511057096e-04  1.5878577517056976e-04  1.3711976667635481e-04  1.1151502358306480e-04  8.5386551450402891e-05  6.0956494205406142e-05  3.9451812601608248e-05  2.1369405620543956e-05  1.2422504133621578e-05  1.0672093142836270e-05  9.1495707254250293e-06  7.8304307114803038e-06  7.9658435022400175e-06  6.7981332938205985e-06  5.7950689408070735e-06  4.9352004845937983e-06  4.1993477033841800e-06  3.5705139817244975e-06  2.5281215065653774e-06  2.1466393675950844e-06  1.8215060219572114e-06  1.5445160566077654e-06  1.3085928058831573e-06  1.1076555265856193e-06  9.3649470634804014e-07  7.9065949090784358e-07  6.6635609572851479e-07  5.6035894844195216e-07  4.6993226389617291e-07  3.9275787146538593e-07  3.2687651556195738e-07  2.7063604642096277e-07  2.2264640610621135e-07  1.8173955256996469e-07  1.4693600418421431e-07  1.1741958062106440e-07  9.2513077379291101e-08  7.1657301445772712e-08  5.4395290120697091e-08  4.0353300157988142e-08  2.9235837591529557e-08  2.0819987586047938e-08  1.4938247321799457e-08  1.1480369819397943e-08  5.4714199977335604e-09  9.7788596817076123e-01  9.6037778088893777e-01  9.1556123588883576e-01  8.8718934111274128e-01  7.7707621683494965e-01  5.0432020184340676e-01  3.6407194242753382e-01  2.3915328456384388e-01  2.5868312405816614e-02  1.3289575725971780e-03  2.9854812023398240e-03  2.9278057600424120e-02  5.7119347482173219e-02  7.4071126642793708e-02  1.5674033537296256e-01  2.4307991378655081e-01  5.0704297125563613e-01  5.7729271876232391e-01  6.8342563573830051e-01  7.1685372469639375e-01  7.6696642848518770e-01  8.9587045571062351e-01  7.5733656248655123e-01  9.1326311384082837e-01  8.4358679229590372e-01  9.9579685174700572e-01  9.8574269532521885e-01  9.8414169994933398e-01  8.5060838444858977e-01  7.6511440767834893e-01  7.2399829474154709e-01  7.0062339673891583e-01  6.3263844044282080e-01  6.1741060839032869e-01  6.4486768001427730e-01  6.6636695404275625e-01  8.4720956466945307e-01  9.9997805621644942e-01  9.9784917281603092e-01  9.8241522094227174e-01  7.6794749567241893e-01  4.6220231021467695e-01  2.9633604861263163e-01  4.5155453603604011e-04  1.8213785577183116e-04  1.7889052261098852e-04  1.4523971684527072e-04  1.4396945414048575e-04  1.3129591197529882e-04  1.2046513092929512e-04  1.1081873556006243e-04  8.5567505868490505e-05  1.4521430140312174e-04  1.5525128545996707e-04  1.8299626461666061e-04  2.6905303269565283e-04  2.1235788584773250e-04  2.2315212143520215e-04  1.8392302369863773e-04  1.4312278566994019e-04  1.0473945307311348e-04  7.0980687094566344e-05  4.2719768131595164e-05  1.9965405442875412e-05  1.4112439645153633e-05  1.2092025949879497e-05  1.0342654064653069e-05  8.8331498589689739e-06  8.9694914786116773e-06  7.6424037519324364e-06  6.5056782896444105e-06  5.5336696133979757e-06  4.7036795327479456e-06  3.3297965071932980e-06  2.8270607811220371e-06  2.3989070330248998e-06  2.0344191513245128e-06  1.7241922402698100e-06  1.4601501286345278e-06  1.2353788734619328e-06  1.0439759981712309e-06  8.8091364791765608e-07  7.4191873324659514e-07  6.2336713370340266e-07  5.2219002515155132e-07  4.3579423816369466e-07  3.6199065069572820e-07  2.9893720810822464e-07  2.4508494308546039e-07  1.9913500841443876e-07  1.6000023232061335e-07  1.2677553869398967e-07  9.8710766884343823e-08  7.5185428909498092e-08  5.5692984386305849e-08  3.9821004122966987e-08  2.7246146861587625e-08  1.7718629393559978e-08  1.1064217924493866e-08  7.1437318036352047e-09  3.3865512652454681e-09  9.1890720232673334e-02  1.9148788493292185e-02  2.5043256979036116e-03  1.0919989492096645e-03  6.0293258831523727e-04  3.3586092202457437e-04  1.7207470721011174e-04  1.4913211551878424e-04  2.8632787437961592e-04  6.9043949607160669e-04  1.4186999380044584e-03  1.0812458852286591e-02  3.3705010537759511e-02  3.5060157356651966e-02  4.0127811508754899e-02  2.2611978610449116e-02  1.9523620660573421e-02  2.4361928023754760e-02  1.2136173166424768e-02  2.0611768923207842e-03  5.8348731912151791e-03  1.1159465168469542e-02  1.9937927061567929e-02  2.3166840898465154e-02  3.4279837059120598e-02  3.4362875729975366e-02  3.3487215950372996e-02  2.8861436104033321e-02  1.5239867593571299e-02  2.0101288166291656e-02  2.1455144149887515e-02  1.6619028040656476e-02  2.2654933324323345e-02  7.1410443405631990e-02  3.8027952433367701e-01  5.9727063461085561e-01  5.9960411707603800e-01  6.4290773181507255e-01  9.7799331262611700e-01  9.9931424484658826e-01  9.9928876872272354e-01  9.9592737720124214e-01  6.9627065101562979e-01  5.2106321052686477e-01  5.5382450754770250e-04  2.8871456693667325e-04  1.8621380550567547e-04  1.6902825074614292e-04  1.5508704816599126e-04  1.4325231869563706e-04  1.1142248801845210e-04  2.2177300091313326e-04  2.6786650101371772e-04  2.7916554224373640e-04  2.9838278382576116e-04  4.1101701443529932e-04  3.6990983493122997e-04  3.0979863575028203e-04  2.4475671622210647e-04  1.8246071714603243e-04  1.2737704425660822e-04  9.7625308634543501e-05  5.3411292551000414e-05  2.2965608612333495e-05  1.9657848405779209e-05  1.6797463768239610e-05  1.1943836925007073e-05  1.2117749531277887e-05  1.0316712201872876e-05  8.7759592465676587e-06  7.4600539947826353e-06  6.3377084597429366e-06  4.4845746916927832e-06  3.8062413714359364e-06  3.2291389323597924e-06  2.7383423648754560e-06  2.3210092910184410e-06  1.9661275216680357e-06  1.6642831338413828e-06  1.4074485302261869e-06  1.1887938095656222e-06  1.0025202671121724e-06  8.4371360558143325e-07  7.0821610532476337e-07  5.9251575195033752e-07  4.9364903790482201e-07  4.0912173910704782e-07  3.3683523322974589e-07  2.7503047206263249e-07  2.2223193568441054e-07  1.7720922022468553e-07  1.3893782123078054e-07  1.0656839742664532e-07  7.9402183109206344e-08  5.6865053921881729e-08  3.8496143143429828e-08  2.3925510873080707e-08  1.2884897134993027e-08  5.1604864658396161e-09  6.0955797395016407e-10  2.3567112206779654e-10  1.0042223317717829e-03  1.6393591739508799e-03  1.0778586123225671e-03  6.4341416254713962e-04  4.2635503883108397e-04  2.4729456734089568e-04  1.4611137494805295e-04  1.4790837865664446e-04  2.6146679361593758e-04  4.7692964320706900e-04  1.6061967248209676e-03  3.4022008490707722e-03  1.7387842363210611e-02  2.3674730811473272e-02  2.5337660975278828e-02  2.2604095555745420e-02  1.8876323744585415e-02  1.0532238900504061e-02  3.4164792839984099e-03  1.6305320482100933e-03  1.4712206727648018e-03  1.5573687603589197e-03  8.8815480998813631e-03  1.5272946690166265e-02  1.6699661639063824e-02  1.7025720587855921e-02  1.5097562838417617e-02  1.2064868541250410e-02  1.9128021337020541e-03  2.7059810022258828e-03  3.4062349132441667e-03  4.1682263796880724e-03  4.5792490220685263e-03  5.1982629738032381e-03  2.6191960562134825e-03  2.8015726994585852e-03  2.5769237526536298e-01  5.0207978060544678e-01  6.3739460517444435e-01  9.6356464911531658e-01  9.9991791661859009e-01  9.9961350605573041e-01  9.9760494941236177e-01  9.8034756017969682e-01  9.1075663841893295e-01  7.4916786035659422e-01  6.8373322416164409e-02  5.2457309122281746e-04  2.4313614944338765e-04  2.4988689701415577e-04  4.0260921200611650e-04  4.0307241118054635e-04  5.0059789120472111e-04  5.5435253413483720e-04  4.6179324646372514e-04  6.0486980384600643e-04  5.2151135061966286e-04  4.1954495758889744e-04  3.8182972348467737e-04  2.7244481914763313e-04  1.8070692127147243e-04  1.0750738492357470e-04  5.1252435410730701e-05  2.7138246608767502e-05  2.3160398824252847e-05  1.9738628966453183e-05  1.6670209834697623e-05  1.4178386691433691e-05  1.2049974772425903e-05  1.0234817420788730e-05  8.6887850392724077e-06  7.3733220063200978e-06  5.2124313930319206e-06  4.4204777646166718e-06  3.1231260078513950e-06  2.6469694452866243e-06  2.2425029065459431e-06  2.2786000392561482e-06  1.9280233244490570e-06  1.6298187650141449e-06  1.3759698848778102e-06  1.1596903898226478e-06  9.7524530036015820e-07  8.1779334386529669e-07  6.8325466340105788e-07  5.6819385054227001e-07  4.6972205131206502e-07  3.8541632113007219e-07  3.1324433462343622e-07  2.5150889701157802e-07  1.9879191788792300e-07  1.5391701428298083e-07  1.1590983270675602e-07  8.3967529068689131e-08  5.7436573379410085e-08  3.5785129766232374e-08  1.8596678228459471e-08  5.5514510602110717e-09  0.0000000000000000e+00  0.0000000000000000e+00  0.0000000000000000e+00  4.3858497893685351e-04  8.8572308080347843e-04  6.9919602229179148e-04  4.8041901415657879e-04  3.4754985154458870e-04  2.3894259776794500e-04  1.8117255730646856e-04  1.9134094240488774e-04  2.7518287376702787e-04  4.2599850631351506e-04  1.2973884124871660e-03  2.1455733130169535e-03  1.0541793973049666e-02  1.7819040316532087e-02  1.6075868823047738e-02  1.6167389725095682e-02  1.2719359968996863e-02  6.9624284470405813e-03  2.4014894741094736e-03  2.0629112354808325e-03  2.0157972420924214e-03  2.8642994959603963e-03  7.0842496216181085e-03  9.4909919390320282e-03  1.0488594360297728e-02  1.0715627100986998e-02  9.7692741959146782e-03  7.4039017295737756e-03  1.6689258078683995e-03  2.1887645086128876e-03  2.3054892998102990e-03  4.4290009633913621e-03  3.7690062751774109e-03  1.3913601310328412e-03  9.7995077573370453e-04  1.3887282127664185e-03  2.0855845035432068e-03  1.6907178344469295e-03  4.1897926414154496e-01  6.1491606195137427e-01  9.4523675428044007e-01  9.9970318588121121e-01  9.9966414756405775e-01  9.9774350001263623e-01  9.6771251961779459e-01  9.3140595443732721e-01  8.7246114417022613e-01  8.0245500256157531e-01  5.8876782887230994e-01  5.6664505767624074e-01  5.6048264986311436e-01  4.7591171122589471e-01  4.8275700032615672e-02  6.3276139222798904e-04  4.6319754201126030e-04  1.0472093385721427e-03  8.5529551488981682e-04  6.6105890287502644e-04  4.8029717127368732e-04  3.2664806631939894e-04  2.0418585758648960e-04  1.1070312630751671e-04  4.1583630421280776e-05  3.2368312838508359e-05  2.7549343621206660e-05  2.3424182435157396e-05  1.9742627661258239e-05  1.6761923203614726e-05  1.4223931483107784e-05  1.2065416457899765e-05  1.0231370252162086e-05  7.2284513300875398e-06  6.1271825943463871e-06  4.3273966573962229e-06  3.6668956022747677e-06  3.1064980081655384e-06  2.6308703642282361e-06  2.2269789166345901e-06  2.2605177192724856e-06  1.9102377639348231e-06  1.6120375924552836e-06  1.3579010423959381e-06  1.1410677536740707e-06  9.5584587263861094e-07  7.9744554048363792e-07  6.6184277821505311e-07  5.4565906835647592e-07  4.4606221559504837e-07  3.6068462845835211e-07  2.8754631277342702e-07  2.2500015697095953e-07  1.7167704669207940e-07  1.2644684872893636e-07  8.8380567230159002e-08  5.6717517456783779e-08  3.0847456113749852e-08  1.0285064199465547e-08  0.0000000000000000e+00  0.0000000000000000e+00  0.0000000000000000e+00  0.0000000000000000e+00  2.7632198681401700e-04  5.7741049781275748e-04  4.4075004809531181e-04  3.6482500696732715e-04  2.8448808501650827e-04  2.2005177690620590e-04  1.8877958977080782e-04  2.0196907852768374e-04  2.6327656085758705e-04  3.6804864351402516e-04  9.9434392894679033e-04  1.6138747672838562e-03  7.5648778253933034e-03  7.2290093609694442e-03  9.3251983114113132e-03  9.6057948141353468e-03  7.4765493932426406e-03  2.9810149794032457e-03  2.0677260986848981e-03  1.9003742128374586e-03  2.2772554731057834e-03  2.4587714296156297e-0