<?xml version="1.0"?>
<VTKFile type="UnstructuredGrid"  version="0.1"  >
<UnstructuredGrid>
<Piece  NumberOfPoints="5151" NumberOfCells="10000">
<Points>
<DataArray  type="Float64"  NumberOfComponents="3"  format="ascii">0 0 0  0.01 0 0  0.02 0 0  0.03 0 0  0.04 0 0  0.05 0 0  0.06 0 0  0.07000000000000001 0 0  0.08 0 0  0.09 0 0  0.1 0 0  0.11 0 0  0.12 0 0  0.13 0 0  0.14 0 0  0.15 0 0  0.16 0 0  0.17 0 0  0.18 0 0  0.19 0 0  0.2 0 0  0.21 0 0  0.22 0 0  0.23 0 0  0.24 0 0  0.25 0 0  0.26 0 0  0.27 0 0  0.28 0 0  0.29 0 0  0.3 0 0  0.31 0 0  0.32 0 0  0.33 0 0  0.34 0 0  0.35 0 0  0.36 0 0  0.37 0 0  0.38 0 0  0.39 0 0  0.4 0 0  0.41 0 0  0.42 0 0  0.43 0 0  0.44 0 0  0.45 0 0  0.46 0 0  0.47 0 0  0.48 0 0  0.49 0 0  0.5 0 0  0.51 0 0  0.52 0 0  0.53 0 0  0.54 0 0  0.55 0 0  0.5600000000000001 0 0  0.57 0 0  0.58 0 0  0.59 0 0  0.6 0 0  0.61 0 0  0.62 0 0  0.63 0 0  0.64 0 0  0.65 0 0  0.66 0 0  0.67 0 0  0.68 0 0  0.6899999999999999 0 0  0.7 0 0  0.71 0 0  0.72 0 0  0.73 0 0  0.74 0 0  0.75 0 0  0.76 0 0  0.77 0 0  0.78 0 0  0.79 0 0  0.8 0 0  0.8100000000000001 0 0  0.82 0 0  0.83 0 0  0.84 0 0  0.85 0 0  0.86 0 0  0.87 0 0  0.88 0 0  0.89 0 0  0.9 0 0  0.91 0 0  0.92 0 0  0.93 0 0  0.9399999999999999 0 0  0.95 0 0  0.96 0 0  0.97 0 0  0.98 0 0  0.99 0 0  1 0 0  0 0.01 0  0.01 0.01 0  0.02 0.01 0  0.03 0.01 0  0.04 0.01 0  0.05 0.01 0  0.06 0.01 0  0.07000000000000001 0.01 0  0.08 0.01 0  0.09 0.01 0  0.1 0.01 0  0.11 0.01 0  0.12 0.01 0  0.13 0.01 0  0.14 0.01 0  0.15 0.01 0  0.16 0.01 0  0.17 0.01 0  0.18 0.01 0  0.19 0.01 0  0.2 0.01 0  0.21 0.01 0  0.22 0.01 0  0.23 0.01 0  0.24 0.01 0  0.25 0.01 0  0.26 0.01 0  0.27 0.01 0  0.28 0.01 0  0.29 0.01 0  0.3 0.01 0  0.31 0.01 0  0.32 0.01 0  0.33 0.01 0  0.34 0.01 0  0.35 0.01 0  0.36 0.01 0  0.37 0.01 0  0.38 0.01 0  0.39 0.01 0  0.4 0.01 0  0.41 0.01 0  0.42 0.01 0  0.43 0.01 0  0.44 0.01 0  0.45 0.01 0  0.46 0.01 0  0.47 0.01 0  0.48 0.01 0  0.49 0.01 0  0.5 0.01 0  0.51 0.01 0  0.52 0.01 0  0.53 0.01 0  0.54 0.01 0  0.55 0.01 0  0.5600000000000001 0.01 0  0.57 0.01 0  0.58 0.01 0  0.59 0.01 0  0.6 0.01 0  0.61 0.01 0  0.62 0.01 0  0.63 0.01 0  0.64 0.01 0  0.65 0.01 0  0.66 0.01 0  0.67 0.01 0  0.68 0.01 0  0.6899999999999999 0.01 0  0.7 0.01 0  0.71 0.01 0  0.72 0.01 0  0.73 0.01 0  0.74 0.01 0  0.75 0.01 0  0.76 0.01 0  0.77 0.01 0  0.78 0.01 0  0.79 0.01 0  0.8 0.01 0  0.8100000000000001 0.01 0  0.82 0.01 0  0.83 0.01 0  0.84 0.01 0  0.85 0.01 0  0.86 0.01 0  0.87 0.01 0  0.88 0.01 0  0.89 0.01 0  0.9 0.01 0  0.91 0.01 0  0.92 0.01 0  0.93 0.01 0  0.9399999999999999 0.01 0  0.95 0.01 0  0.96 0.01 0  0.97 0.01 0  0.98 0.01 0  0.99 0.01 0  1 0.01 0  0 0.02 0  0.01 0.02 0  0.02 0.02 0  0.03 0.02 0  0.04 0.02 0  0.05 0.02 0  0.06 0.02 0  0.07000000000000001 0.02 0  0.08 0.02 0  0.09 0.02 0  0.1 0.02 0  0.11 0.02 0  0.12 0.02 0  0.13 0.02 0  0.14 0.02 0  0.15 0.02 0  0.16 0.02 0  0.17 0.02 0  0.18 0.02 0  0.19 0.02 0  0.2 0.02 0  0.21 0.02 0  0.22 0.02 0  0.23 0.02 0  0.24 0.02 0  0.25 0.02 0  0.26 0.02 0  0.27 0.02 0  0.28 0.02 0  0.29 0.02 0  0.3 0.02 0  0.31 0.02 0  0.32 0.02 0  0.33 0.02 0  0.34 0.02 0  0.35 0.02 0  0.36 0.02 0  0.37 0.02 0  0.38 0.02 0  0.39 0.02 0  0.4 0.02 0  0.41 0.02 0  0.42 0.02 0  0.43 0.02 0  0.44 0.02 0  0.45 0.02 0  0.46 0.02 0  0.47 0.02 0  0.48 0.02 0  0.49 0.02 0  0.5 0.02 0  0.51 0.02 0  0.52 0.02 0  0.53 0.02 0  0.54 0.02 0  0.55 0.02 0  0.5600000000000001 0.02 0  0.57 0.02 0  0.58 0.02 0  0.59 0.02 0  0.6 0.02 0  0.61 0.02 0  0.62 0.02 0  0.63 0.02 0  0.64 0.02 0  0.65 0.02 0  0.66 0.02 0  0.67 0.02 0  0.68 0.02 0  0.6899999999999999 0.02 0  0.7 0.02 0  0.71 0.02 0  0.72 0.02 0  0.73 0.02 0  0.74 0.02 0  0.75 0.02 0  0.76 0.02 0  0.77 0.02 0  0.78 0.02 0  0.79 0.02 0  0.8 0.02 0  0.8100000000000001 0.02 0  0.82 0.02 0  0.83 0.02 0  0.84 0.02 0  0.85 0.02 0  0.86 0.02 0  0.87 0.02 0  0.88 0.02 0  0.89 0.02 0  0.9 0.02 0  0.91 0.02 0  0.92 0.02 0  0.93 0.02 0  0.9399999999999999 0.02 0  0.95 0.02 0  0.96 0.02 0  0.97 0.02 0  0.98 0.02 0  0.99 0.02 0  1 0.02 0  0 0.03 0  0.01 0.03 0  0.02 0.03 0  0.03 0.03 0  0.04 0.03 0  0.05 0.03 0  0.06 0.03 0  0.07000000000000001 0.03 0  0.08 0.03 0  0.09 0.03 0  0.1 0.03 0  0.11 0.03 0  0.12 0.03 0  0.13 0.03 0  0.14 0.03 0  0.15 0.03 0  0.16 0.03 0  0.17 0.03 0  0.18 0.03 0  0.19 0.03 0  0.2 0.03 0  0.21 0.03 0  0.22 0.03 0  0.23 0.03 0  0.24 0.03 0  0.25 0.03 0  0.26 0.03 0  0.27 0.03 0  0.28 0.03 0  0.29 0.03 0  0.3 0.03 0  0.31 0.03 0  0.32 0.03 0  0.33 0.03 0  0.34 0.03 0  0.35 0.03 0  0.36 0.03 0  0.37 0.03 0  0.38 0.03 0  0.39 0.03 0  0.4 0.03 0  0.41 0.03 0  0.42 0.03 0  0.43 0.03 0  0.44 0.03 0  0.45 0.03 0  0.46 0.03 0  0.47 0.03 0  0.48 0.03 0  0.49 0.03 0  0.5 0.03 0  0.51 0.03 0  0.52 0.03 0  0.53 0.03 0  0.54 0.03 0  0.55 0.03 0  0.5600000000000001 0.03 0  0.57 0.03 0  0.58 0.03 0  0.59 0.03 0  0.6 0.03 0  0.61 0.03 0  0.62 0.03 0  0.63 0.03 0  0.64 0.03 0  0.65 0.03 0  0.66 0.03 0  0.67 0.03 0  0.68 0.03 0  0.6899999999999999 0.03 0  0.7 0.03 0  0.71 0.03 0  0.72 0.03 0  0.73 0.03 0  0.74 0.03 0  0.75 0.03 0  0.76 0.03 0  0.77 0.03 0  0.78 0.03 0  0.79 0.03 0  0.8 0.03 0  0.8100000000000001 0.03 0  0.82 0.03 0  0.83 0.03 0  0.84 0.03 0  0.85 0.03 0  0.86 0.03 0  0.87 0.03 0  0.88 0.03 0  0.89 0.03 0  0.9 0.03 0  0.91 0.03 0  0.92 0.03 0  0.93 0.03 0  0.9399999999999999 0.03 0  0.95 0.03 0  0.96 0.03 0  0.97 0.03 0  0.98 0.03 0  0.99 0.03 0  1 0.03 0  0 0.04 0  0.01 0.04 0  0.02 0.04 0  0.03 0.04 0  0.04 0.04 0  0.05 0.04 0  0.06 0.04 0  0.07000000000000001 0.04 0  0.08 0.04 0  0.09 0.04 0  0.1 0.04 0  0.11 0.04 0  0.12 0.04 0  0.13 0.04 0  0.14 0.04 0  0.15 0.04 0  0.16 0.04 0  0.17 0.04 0  0.18 0.04 0  0.19 0.04 0  0.2 0.04 0  0.21 0.04 0  0.22 0.04 0  0.23 0.04 0  0.24 0.04 0  0.25 0.04 0  0.26 0.04 0  0.27 0.04 0  0.28 0.04 0  0.29 0.04 0  0.3 0.04 0  0.31 0.04 0  0.32 0.04 0  0.33 0.04 0  0.34 0.04 0  0.35 0.04 0  0.36 0.04 0  0.37 0.04 0  0.38 0.04 0  0.39 0.04 0  0.4 0.04 0  0.41 0.04 0  0.42 0.04 0  0.43 0.04 0  0.44 0.04 0  0.45 0.04 0  0.46 0.04 0  0.47 0.04 0  0.48 0.04 0  0.49 0.04 0  0.5 0.04 0  0.51 0.04 0  0.52 0.04 0  0.53 0.04 0  0.54 0.04 0  0.55 0.04 0  0.5600000000000001 0.04 0  0.57 0.04 0  0.58 0.04 0  0.59 0.04 0  0.6 0.04 0  0.61 0.04 0  0.62 0.04 0  0.63 0.04 0  0.64 0.04 0  0.65 0.04 0  0.66 0.04 0  0.67 0.04 0  0.68 0.04 0  0.6899999999999999 0.04 0  0.7 0.04 0  0.71 0.04 0  0.72 0.04 0  0.73 0.04 0  0.74 0.04 0  0.75 0.04 0  0.76 0.04 0  0.77 0.04 0  0.78 0.04 0  0.79 0.04 0  0.8 0.04 0  0.8100000000000001 0.04 0  0.82 0.04 0  0.83 0.04 0  0.84 0.04 0  0.85 0.04 0  0.86 0.04 0  0.87 0.04 0  0.88 0.04 0  0.89 0.04 0  0.9 0.04 0  0.91 0.04 0  0.92 0.04 0  0.93 0.04 0  0.9399999999999999 0.04 0  0.95 0.04 0  0.96 0.04 0  0.97 0.04 0  0.98 0.04 0  0.99 0.04 0  1 0.04 0  0 0.05 0  0.01 0.05 0  0.02 0.05 0  0.03 0.05 0  0.04 0.05 0  0.05 0.05 0  0.06 0.05 0  0.07000000000000001 0.05 0  0.08 0.05 0  0.09 0.05 0  0.1 0.05 0  0.11 0.05 0  0.12 0.05 0  0.13 0.05 0  0.14 0.05 0  0.15 0.05 0  0.16 0.05 0  0.17 0.05 0  0.18 0.05 0  0.19 0.05 0  0.2 0.05 0  0.21 0.05 0  0.22 0.05 0  0.23 0.05 0  0.24 0.05 0  0.25 0.05 0  0.26 0.05 0  0.27 0.05 0  0.28 0.05 0  0.29 0.05 0  0.3 0.05 0  0.31 0.05 0  0.32 0.05 0  0.33 0.05 0  0.34 0.05 0  0.35 0.05 0  0.36 0.05 0  0.37 0.05 0  0.38 0.05 0  0.39 0.05 0  0.4 0.05 0  0.41 0.05 0  0.42 0.05 0  0.43 0.05 0  0.44 0.05 0  0.45 0.05 0  0.46 0.05 0  0.47 0.05 0  0.48 0.05 0  0.49 0.05 0  0.5 0.05 0  0.51 0.05 0  0.52 0.05 0  0.53 0.05 0  0.54 0.05 0  0.55 0.05 0  0.5600000000000001 0.05 0  0.57 0.05 0  0.58 0.05 0  0.59 0.05 0  0.6 0.05 0  0.61 0.05 0  0.62 0.05 0  0.63 0.05 0  0.64 0.05 0  0.65 0.05 0  0.66 0.05 0  0.67 0.05 0  0.68 0.05 0  0.6899999999999999 0.05 0  0.7 0.05 0  0.71 0.05 0  0.72 0.05 0  0.73 0.05 0  0.74 0.05 0  0.75 0.05 0  0.76 0.05 0  0.77 0.05 0  0.78 0.05 0  0.79 0.05 0  0.8 0.05 0  0.8100000000000001 0.05 0  0.82 0.05 0  0.83 0.05 0  0.84 0.05 0  0.85 0.05 0  0.86 0.05 0  0.87 0.05 0  0.88 0.05 0  0.89 0.05 0  0.9 0.05 0  0.91 0.05 0  0.92 0.05 0  0.93 0.05 0  0.9399999999999999 0.05 0  0.95 0.05 0  0.96 0.05 0  0.97 0.05 0  0.98 0.05 0  0.99 0.05 0  1 0.05 0  0 0.06 0  0.01 0.06 0  0.02 0.06 0  0.03 0.06 0  0.04 0.06 0  0.05 0.06 0  0.06 0.06 0  0.07000000000000001 0.06 0  0.08 0.06 0  0.09 0.06 0  0.1 0.06 0  0.11 0.06 0  0.12 0.06 0  0.13 0.06 0  0.14 0.06 0  0.15 0.06 0  0.16 0.06 0  0.17 0.06 0  0.18 0.06 0  0.19 0.06 0  0.2 0.06 0  0.21 0.06 0  0.22 0.06 0  0.23 0.06 0  0.24 0.06 0  0.25 0.06 0  0.26 0.06 0  0.27 0.06 0  0.28 0.06 0  0.29 0.06 0  0.3 0.06 0  0.31 0.06 0  0.32 0.06 0  0.33 0.06 0  0.34 0.06 0  0.35 0.06 0  0.36 0.06 0  0.37 0.06 0  0.38 0.06 0  0.39 0.06 0  0.4 0.06 0  0.41 0.06 0  0.42 0.06 0  0.43 0.06 0  0.44 0.06 0  0.45 0.06 0  0.46 0.06 0  0.47 0.06 0  0.48 0.06 0  0.49 0.06 0  0.5 0.06 0  0.51 0.06 0  0.52 0.06 0  0.53 0.06 0  0.54 0.06 0  0.55 0.06 0  0.5600000000000001 0.06 0  0.57 0.06 0  0.58 0.06 0  0.59 0.06 0  0.6 0.06 0  0.61 0.06 0  0.62 0.06 0  0.63 0.06 0  0.64 0.06 0  0.65 0.06 0  0.66 0.06 0  0.67 0.06 0  0.68 0.06 0  0.6899999999999999 0.06 0  0.7 0.06 0  0.71 0.06 0  0.72 0.06 0  0.73 0.06 0  0.74 0.06 0  0.75 0.06 0  0.76 0.06 0  0.77 0.06 0  0.78 0.06 0  0.79 0.06 0  0.8 0.06 0  0.8100000000000001 0.06 0  0.82 0.06 0  0.83 0.06 0  0.84 0.06 0  0.85 0.06 0  0.86 0.06 0  0.87 0.06 0  0.88 0.06 0  0.89 0.06 0  0.9 0.06 0  0.91 0.06 0  0.92 0.06 0  0.93 0.06 0  0.9399999999999999 0.06 0  0.95 0.06 0  0.96 0.06 0  0.97 0.06 0  0.98 0.06 0  0.99 0.06 0  1 0.06 0  0 0.07000000000000001 0  0.01 0.07000000000000001 0  0.02 0.07000000000000001 0  0.03 0.07000000000000001 0  0.04 0.07000000000000001 0  0.05 0.07000000000000001 0  0.06 0.07000000000000001 0  0.07000000000000001 0.07000000000000001 0  0.08 0.07000000000000001 0  0.09 0.07000000000000001 0  0.1 0.07000000000000001 0  0.11 0.07000000000000001 0  0.12 0.07000000000000001 0  0.13 0.07000000000000001 0  0.14 0.07000000000000001 0  0.15 0.07000000000000001 0  0.16 0.07000000000000001 0  0.17 0.07000
[...]
<PointData  Scalars="rho_bar"> 
<DataArray  type="Float64"  Name="rho_bar"  format="ascii">9.9405999599522721e-01  9.9723205805097492e-01  9.9651468443248603e-01  9.9770505936667875e-01  9.9896466491078029e-01  1.0004993992814795e+00  1.0018883165275221e+00  1.0028465827480597e+00  1.0032071027307030e+00  1.0029351508069211e+00  1.0020821092383438e+00  1.0007635891462563e+00  9.9919173971590347e-01  9.9770670275839146e-01  9.9667968722870937e-01  9.9630076847348392e-01  9.9648846490765597e-01  9.9701643101273818e-01  9.9767401242467280e-01  9.9833035433063733e-01  9.9892997723298305e-01  9.9946004431367985e-01  9.9991732982537462e-01  1.0002975622420727e+00  1.0006006852051390e+00  1.0008340267284819e+00  1.0010042975002322e+00  1.0010991673941028e+00  1.0010763070437592e+00  1.0008716500284325e+00  1.0004631320282664e+00  1.0000184048648884e+00  9.9982972071891307e-01  9.9991585200609900e-01  1.0000287042018146e+00  9.9996974002544570e-01  9.9993449028283410e-01  1.0017917544336041e+00  9.8601296380608994e-01  1.0685216761811425e+00  6.5569197972902904e-01  -3.8547564767995122e-03  -8.0534292687466081e-04  8.7043332637137675e-04  -5.1300110178918811e-05  -1.7627174220652962e-05  -5.6074867381628875e-05  7.4135604077524436e-06  1.3305127151122387e-05  2.3280252488952889e-06  -2.7370711139036263e-06  -6.5565735765480690e-07  5.5549050492836069e-07  4.4373735203229835e-08  -1.0563674227140324e-07  2.1405267701767552e-08  1.0270013585729991e-08  -7.2459019236025038e-09  1.4016857711018413e-09  4.7925552529984954e-10  -4.3686509447041956e-10  1.5125429029598474e-10  -1.6916611974898730e-11  -1.1297365253619767e-11  8.8123312077486465e-12  -3.3612795921825141e-12  9.6093890310811511e-13  -5.7462082378187977e-14  -7.4709877052861277e-15  6.5180548803287715e-14  4.5805746077321118e-15  2.3558067071202333e-14  1.1974222943654345e-14  1.1752412290806456e-14  9.0360666551440830e-15  7.5599305773938541e-15  6.2329895690431524e-15  5.1511055244691213e-15  4.2882117705443361e-15  3.5897166348018130e-15  3.0143162682734031e-15  2.5222812775516185e-15  2.1212287105713114e-15  1.7895440044769004e-15  1.5240905948878575e-15  1.2843343453558578e-15  1.0671362162167605e-15  9.1969881788061213e-16  7.7860694747272090e-16  6.6133250356187480e-16  5.7885426436990243e-16  4.9486940104577486e-16  4.2467580645977911e-16  3.7271397806042214e-16  3.3985380441591925e-16  2.6503717947118170e-16  2.8703026268997235e-16  2.1132064768174483e-16  2.2249560142073121e-16  2.2200349882692702e-16  2.2210272352970039e-16  1.0150446596437821e+00  1.0056156889498824e+00  1.0071979970291758e+00  1.0055556071925145e+00  1.0033114845345295e+00  1.0003519505659904e+00  9.9730065835495096e-01  9.9483926223377506e-01  9.9344581225978745e-01  9.9332331815214903e-01  9.9445440192709045e-01  9.9667889216918992e-01  9.9968015746405459e-01  1.0028963231099017e+00  1.0055543135610809e+00  1.0070267487026137e+00  1.0072117473560738e+00  1.0064683272323973e+00  1.0052634323016079e+00  1.0039445375923872e+00  1.0026942093270088e+00  1.0015719482358418e+00  1.0005889577807319e+00  9.9975425719548905e-01  9.9907462744381925e-01  9.9854282111995118e-01  9.9814136444931645e-01  9.9787049084164059e-01  9.9778502394719537e-01  9.9799549267002063e-01  9.9861586700717153e-01  9.9954663765752361e-01  1.0002492981139335e+00  1.0002923996237785e+00  1.0000289745736211e+00  9.9994003031275647e-01  1.0001658708535999e+00  9.9914093607805565e-01  1.0024501719349865e+00  1.0027770760167110e+00  8.4071096984096505e-01  -3.0511438020947981e-02  1.4385348520360877e-02  -1.5502160992756802e-03  -2.0211847418976300e-04  -3.4855378530498156e-05  1.4586230594680161e-04  2.8232568027050309e-05  -2.8919947948125167e-05  -1.5821112862161684e-05  3.5670666610272620e-06  3.8128918393322598e-06  -7.5323378480141227e-07  -6.0681132147541423e-07  2.4910805658879148e-07  3.5072180100242719e-08  -5.1527355577985756e-08  1.3676714698608021e-08  2.2457645759143978e-09  -3.0561504713195577e-09  1.1424833599652107e-09  -1.4325266197935416e-10  -8.1200482293049161e-11  6.3533509137033108e-11  -2.4545160879055435e-11  6.1583907821825890e-12  -4.4888991441103841e-13  -3.5101046068891789e-13  3.2518103783579446e-13  -9.4831156703539191e-14  6.4518048531871199e-14  5.8065194462522288e-15  1.7246549399941708e-14  1.0976678502802204e-14  9.4737875001693504e-15  7.7285543500967780e-15  6.3607572860014701e-15  5.2727985106440973e-15  4.3944244621363120e-15  3.6593937012383813e-15  3.0713177288912840e-15  2.5757011470047664e-15  2.1704382054240638e-15  1.8227176853538351e-15  1.5449195012560768e-15  1.3139534981718391e-15  1.1054640241256111e-15  9.4594235673786542e-16  8.0882878962138975e-16  6.7179916395561496e-16  5.8116731521160516e-16  5.0119605418942359e-16  4.2892458086990206e-16  3.7554727206371831e-16  3.2983041356411499e-16  2.8220476634065645e-16  2.8597281175055544e-16  2.2880911231627427e-16  2.2613025525328691e-16  2.2198849678040361e-16  2.2196947381381979e-16  9.4674578024666223e-01  9.7828668515487172e-01  9.7353438935017411e-01  9.7727055469407409e-01  9.8335579992345612e-01  9.9255832373998842e-01  1.0031603001007559e+00  1.0127935258649845e+00  1.0194008316263807e+00  1.0218608422488433e+00  1.0199703989398250e+00  1.0140886190452634e+00  1.0049950539444230e+00  9.9411200152223367e-01  9.8378220022886576e-01  9.7664791778199989e-01  9.7406448163278136e-01  9.7542203993482202e-01  9.7913031717118992e-01  9.8373475950856371e-01  9.8832403690444237e-01  9.9251508491823570e-01  9.9622399864931688e-01  9.9942545308272690e-01  1.0020870099343007e+00  1.0042073976736976e+00  1.0058376575465011e+00  1.0070264357017025e+00  1.0076931789771566e+00  1.0075341819601802e+00  1.0061280615161898e+00  1.0032877718631426e+00  1.0000765242816856e+00  9.9873329480732298e-01  9.9948227087427810e-01  1.0001606422658067e+00  9.9999742367450462e-01  1.0000035124980975e+00  1.0007186371986534e+00  9.9339613884649081e-01  1.0033600169440107e+00  1.7941183376482711e-01  3.5923457158885046e-03  -4.1064971502205432e-03  1.2766083675101927e-03  8.6072214079962539e-04  -5.0810269069918878e-04  -2.8380114475918492e-04  4.6738600900048834e-05  9.3807564876634663e-05  1.0885613358721242e-05  -1.9854958188584476e-05  -2.4376334436402117e-06  3.8534711843020317e-06  -3.0734138369166380e-07  -5.5385582919437900e-07  2.3028472212514893e-07  -1.4409044332662010e-09  -3.4308558045449509e-08  1.6086238369057062e-08  -3.0024949443631057e-09  -6.8601981327334865e-10  7.7557733863107385e-10  -3.3936872802073848e-10  9.4513311340948801e-11  -1.2823944418615407e-11  -3.4417926574903692e-12  3.5522659309770349e-12  -1.6165888191635037e-12  6.3632583460564192e-13  -1.6113776671939252e-13  6.9241829510225624e-14  4.1568649416787033e-15  1.4563057734527885e-14  9.9810416066119472e-15  8.2017587031702028e-15  6.8730849461509804e-15  5.6105692017136813e-15  4.6852281959138221e-15  3.8970126941601038e-15  3.2589777480281593e-15  2.7319904817663909e-15  2.2868505644293218e-15  1.9258602153797747e-15  1.6298639812661341e-15  1.3760475515404004e-15  1.1788925196477650e-15  9.8878448179731805e-16  8.5121328710442144e-16  7.1981529623603291e-16  6.1667577785703457e-16  5.2547267234217669e-16  4.5649442805902721e-16  4.0320300975523231e-16  3.3937160780556669e-16  3.1483625621482157e-16  2.6748023498559443e-16  2.7756336993340811e-16  2.0576612175147325e-16  2.1737374763009276e-16  2.2263170147316211e-16  1.1614004314901445e+00  1.0847356114324773e+00  1.0921178523830486e+00  1.0836454387590084e+00  1.0644926382698312e+00  1.0316468782030626e+00  9.8806538557927526e-01  9.4193986596360091e-01  9.0304577295946464e-01  8.7976680710657840e-01  8.7662557080622761e-01  8.9397346590242066e-01  9.2867413762672968e-01  9.7475474446808053e-01  1.0232820127063389e+00  1.0631438608997792e+00  1.0857702586412294e+00  1.0902677919240213e+00  1.0818998781408418e+00  1.0670321836185224e+00  1.0503784448013489e+00  1.0344443914743044e+00  1.0200516833229532e+00  1.0073866764934019e+00  9.9661087780329916e-01  9.8782796461329192e-01  9.8096032648280451e-01  9.7577964251332017e-01  9.7228378163535334e-01  9.7116738794242663e-01  9.7389998464920846e-01  9.8180941615302586e-01  9.9403533327419136e-01  1.0036460621172589e+00  1.0038231980414825e+00  1.0000433144205620e+00  9.9951914978431555e-01  1.0001880606915363e+00  9.9965572781882173e-01  1.0001498748779971e+00  1.0044250939037727e+00  7.9503532672928201e-01  9.8799155655845215e-03  1.1443941868793966e-02  4.2710571197369859e-03  -6.3044776466404029e-03  6.7687201034508809e-04  1.6941044152696001e-03  2.9797737685210150e-04  -3.8724947089802890e-04  -1.8834544594710498e-04  6.1375334840779196e-05  4.1941064094219533e-05  -1.4367996886659537e-05  -4.6456577385773106e-06  3.5486916916863076e-06  -4.3228737836823707e-07  -3.7748878782138735e-07  2.2809541058667393e-07  -5.2768087246823354e-08  -5.6046826051961362e-09  1.0146032244291329e-08  -4.7946731916536088e-09  1.3956685289988584e-09  -2.0893394208710239e-10  -4.2987520396915161e-11  4.8588846122513956e-11  -2.3424644247814339e-11  8.6619425366361500e-12  -2.6088941526493938e-12  7.3101847641321554e-13  -1.3561431442102075e-13  4.5372739603920997e-14  1.2398290015030662e-14  1.0123532726764626e-14  1.0226317219811634e-14  7.2150602624892562e-15  6.4278171499289537e-15  5.1337975579074719e-15  4.3263481968177321e-15  3.5834474050968760e-15  3.0132632281912632e-15  2.5307549545657572e-15  2.1073566935042450e-15  1.7831922118675293e-15  1.5148850276853265e-15  1.2838437061537581e-15  1.0740956710116333e-15  9.1541984387697034e-16  7.7255696924501804e-16  6.6434946046619316e-16  5.7776500385116424e-16  4.9617955963532902e-16  4.3052367927716939e-16  3.7507366257200094e-16  3.3100649103551436e-16  2.9596093460061073e-16  2.6924952512193248e-16  2.8701645736813019e-16  2.5572511043490144e-16  2.2805108762665712e-16  2.3943456544575337e-01  3.2725875832007334e-01  2.9183288902322252e-01  2.3337037837866476e-01  1.6289454562523850e-01  9.0269442534987851e-02  2.7060206709789716e-02  -2.0528758876270713e-02  -5.0922779700205492e-02  -6.6073900265101390e-02  -6.9709861080565996e-02  -6.3811141999662369e-02  -4.7252317746305235e-02  -1.5995924584333746e-02  3.5693834908957944e-02  1.1258630600536060e-01  2.1537559129109923e-01  3.3723452313494851e-01  4.6608977268998641e-01  5.8909817856084834e-01  6.9771825555739542e-01  7.8884201800871112e-01  8.6382162863661704e-01  9.2593011689784332e-01  9.7714377692652077e-01  1.0185308923314855e+00  1.0508993299863232e+00  1.0755481052646474e+00  1.0935186792742912e+00  1.1039514031050510e+00  1.1027768593610237e+00  1.0840843451535456e+00  1.0458701548579277e+00  1.0000838358228545e+00  9.8083481884524770e-01  9.9402921106003406e-01  1.0025425829429633e+00  9.9979731378270087e-01  9.9967573911126739e-01  1.0006298011035855e+00  9.9385218465936453e-01  1.0180285787165682e+00  7.9717937270438022e-01  8.5009109637706387e-02  -4.4405729593163974e-02  2.4519941679944635e-02  6.9866851446885505e-03  -6.6897703642479003e-03  -3.6406836193377994e-03  7.8661846070148152e-04  1.2875846424952380e-03  6.3914778969298934e-05  -2.7671823538871445e-04  3.8154692880561446e-07  4.7123651707575549e-05  -1.1973444103662296e-05  -3.3783797607796811e-06  3.1249508929450913e-06  -8.8446553919935216e-07  -1.8008039152960833e-08  1.3039261329737150e-07  -6.7203528915505283e-08  2.0427473236549356e-08  -3.2836727404892793e-09  -5.1870677723208626e-10  6.6716282233230062e-10  -3.2881366012590293e-10  1.2117113078967627e-10  -3.7125182191372748e-11  9.8777262073374927e-12  -2.1693517484418034e-12  4.0901255696657590e-13  -3.4162941445905427e-15  -1.5830418347470433e-15  2.6128707091376555e-14  5.2553687249307517e-15  1.0956947726092072e-14  6.5021236558089597e-15  6.1872958162184889e-15  4.8508758718325708e-15  4.1090725960986370e-15  3.4064250577715647e-15  2.8602593449057376e-15  2.3980774202915218e-15  2.0217241518840997e-15  1.6987205943966593e-15  1.4311413242106450e-15  1.2100365859151716e-15  1.0226947746960040e-15  8.7522995296847770e-16  7.6169799221056437e-16  6.4345990679842106e-16  5.5176364534650365e-16  4.7946118510554593e-16  4.2458292288228905e-16  3.7287334270955170e-16  3.3075202929008423e-16  3.1481781783946662e-16  2.7233310841674769e-16  2.6860720848138221e-16  2.8961590149035774e-16  -1.5430519407739939e-02  -6.4534283195513201e-02  -6.9918735025835996e-02  -5.8716983691324685e-02  -4.4998347482379131e-02  -2.8480714994422496e-02  -1.2030940886105478e-02  1.7329383258059526e-03  1.1523635142136284e-02  1.7208666398143137e-02  1.9515300739361915e-02  1.9244936029743795e-02  1.6539717394265501e-02  1.0769103813458360e-02  7.6451123200012825e-04  -1.4545262842501844e-02  -3.5206171055687380e-02  -5.9231696365793347e-02  -8.2641921657946690e-02  -1.0080818233166242e-01  -1.0998957189639078e-01  -1.0811602678394522e-01  -9.4897050294075525e-02  -7.1133682899541348e-02  -3.8468353563058631e-02  9.6705668639554402e-04  4.5198883845627771e-02  9.3837160354407242e-02  1.4999694566343025e-01  2.2166724002612970e-01  3.2182573735346437e-01  4.6626200611497887e-01  6.6142958143989194e-01  8.8196228437041380e-01  1.0484812321822639e+00  1.0508078921252610e+00  9.9333667338067932e-01  9.9635010338930563e-01  1.0020041490439733e+00  9.9866813425546386e-01  1.0016368213621714e+00  9.9354362439213473e-01  1.0052989772729564e+00  1.0005350305581926e+00  5.0117072266686902e-01  -1.3906127510682690e-02  -6.3347324900423829e-02  1.2452734808296140e-02  2.2415759855368610e-02  3.4164907498965141e-03  -5.6781304365529127e-03  -2.3187114200801263e-03  1.0522272979323326e-03  4.4070932721352110e-04  -2.4090967200376292e-04  -1.1206740018290287e-05  4.0405332563899193e-05  -1.4400894260194095e-05  7.2454648850150828e-07  1.6249788022561803e-06  -9.3806873188388845e-07  2.9934923972192251e-07  -5.1464546820385078e-08  -5.9515346520320302e-09  9.1509607858241553e-09  -4.6047335222639069e-09  1.7038182136224689e-09  -5.2316148746336266e-10  1.3807295437096758e-10  -3.0787613059468647e-11  5.3588579473653196e-12  -3.0733396861583365e-13  -2.3107800530620017e-13  1.9653217434784002e-13  -6.1464606869446809e-14  4.2685911734145857e-14  4.1383932858555525e-16  1.1881525175221305e-14  6.0382276628547243e-15  6.0865506599261809e-15  4.7109627198241683e-15  3.9996295028571137e-15  3.3136758493877723e-15  2.7848782733663865e-15  2.3275451306203293e-15  1.9563742198842097e-15  1.6541470776575554e-15  1.4004101230214374e-15  1.1892460881030550e-15  1.0110943537998476e-15  8.6020435470697610e-16  7.1775157654395816e-16  6.4073906405086702e-16  5.5437355100261857e-16  4.8229782413004998e-16  4.2600595982292403e-16  3.7941263463020770e-16  3.4436635715222661e-16  3.3330312400258561e-16  3.2288847419313249e-16  3.0955066183904895e-16  -8.4376629643584107e-04  1.1241167196384719e-02  1.9246289945213761e-02  1.7495885672007792e-02  1.3985696950043210e-02  9.9140318755029152e-03  5.3864417457719907e-03  1.2697076842565539e-03  -1.9103467411315603e-03  -3.9724805680640954e-03  -5.0146481898294707e-03  -5.2698073157610359e-03  -4.8789882018379820e-03  -3.7739501178909556e-03  -1.6986521788116932e-03  1.6744381213067651e-03  6.5317911330735187e-03  1.2635671396867181e-02  1.9166178470392804e-02  2.4924133590490075e-02  2.8758293522521360e-02  2.9890254818895758e-02  2.8036764186233853e-02  2.3312884975727460e-02  1.6095906476344714e-02  6.9609607308505368e-03  -3.4398326133929808e-03  -1.4629947767684641e-02  -2.6699695586198710e-02  -4.0562790223944267e-02  -5.7688087193510741e-02  -7.8682327919731301e-02  -9.7815852218309463e-02  -8.7051184843071366e-02  3.6897333379033274e-02  4.1025591952791335e-01  9.0841206291778120e-01  1.0259086887838176e+00  9.8715653183466667e-01  1.0029141944707600e+00  9.9877768358601726e-01  1.0005525844353116e+00  1.0007945217937664e+00  9.8616554068887918e-01  1.0345446785657615e+00  1.0048796436644856e+00  5.8542733604992758e-01  9.6095870312202028e-02  -8.7389926088537587e-02  -4.6762962585278324e-02  1.3313696261309188e-02  1.7747959959792135e-02  -5.3011936686868692e-04  -3.6862576025614826e-03  5.0830144750980152e-04  4.6042759437700320e-04  -2.2776853811126734e-04  2.6312076118871468e-05  1.9221215167255111e-05  -1.3031751026859391e-05  4.3983104739962895e-06  -8.0644980456833555e-07  -6.3235810876331218e-08  1.2543091417073970e-07  -6.4537451292516925e-08  2.3998036808665775e-08  -7.3684646017367975e-09  1.9377849964779612e-09  -4.3133919906775854e-10  7.3966097116849982e-11  -4.6120123871513454e-12  -3.5672546933803220e-12  2.4798181959494318e-12  -1.0571009792075226e-12  4.3138510842862742e-13  -1.2531209259431763e-13  5.8833499162025247e-14  -3.4354062151899232e-15  1.2544571351790556e-14  5.8722528081577852e-15  6.0076295801491896e-15  4.6616814012544894e-15  3.9604643895917492e-15  3.2660343113154283e-15  2.7530858305929941e-15  2.3050903880899556e-15  1.9430862516233934e-15  1.6255436917089582e-15  1.3775647205162749e-15  1.1759965442177346e-15  9.9595506261723914e-16  8.6144494815919184e-16  7.1481006010424478e-16  6.3394574581281807e-16  5.4688937728960598e-16  4.9138835202395211e-16  4.3705636518339765e-16  3.9765218742740420e-16  3.7676983640519871e-16  3.5776557632601375e-16  3.5569577867308060e-16  5.6484672564651882e-04  -1.2279888616482284e-03  -4.3761555280820725e-03  -5.1272162835742504e-03  -4.2357253329443935e-03  -3.2203371127754649e-03  -2.0516711202957162e-03  -8.6746753162167921e-04  1.2150552094857051e-04  8.2484302135937858e-04  1.2344388443426134e-03  1.4012710571717571e-03  1.3817057555764469e-03  1.1870173473559475e-03  7.7136213191382865e-04  5.1058902737397399e-05  -1.0514675455973160e-03  -2.5376848808342876e-03  -4.2653770825611236e-03  -5.9524269263785713e-03  -7.2704334547715500e-03  -7.9531261167161849e-03  -7.8581292339017644e-03  -6.9673911011965536e-03  -5.3500434883505263e-03  -3.1361671323791203e-03  -4.9585247612793891e-04  2.4088421980365329e-03  5.5149614644113814e-03  8.9601377573570191e-03  1.3086057719215690e-02  1.8310326181257795e-02  2.4293074285584429e-02  2.7658865581403232e-02  1.7154051048872538e-02  -3.8397609561069211e-02  -2.3282386571352190e-02  5.6714786179619492e-01  1.0281027240531473e+00  9.8920250765758622e-01  1.0012855593616126e+00  9.9984848869373355e-01  9.9920077411008945e-01  1.0025557745677973e+00  9.9735632079386527e-01  9.8291633065888151e-01  1.0286176807694540e+00  1.0648829375688351e+00  8.6243996913516430e-01  4.4633513776908501e-01  6.0745257846927678e-02  -8.0886304618637592e-02  -2.6370550956557829e-02  1.7297296465412004e-02  3.4223587891309359e-03  -3.4358375271292580e-03  6.4640409303321693e-04  2.0452533086280186e-04  -1.7980699556718774e-04  6.4885971003923330e-05  -1.2661992012981093e-05  -5.7586356628798500e-07  1.7184405313726666e-06  -9.0580503287779773e-07  3.3844495399784502e-07  -1.0383187434430889e-07  2.7211896295114388e-08  -6.0312693831245818e-09  1.0265331035162856e-09  -6.3372724704304308e-11  -5.0568882590257500e-11  3.4095654600014304e-11  -1.5019377643579419e-11  5.7406794322770114e-12  -1.9438400347958245e-12  6.5815588063265915e-13  -1.7770322629761016e-13  6.9268344990209308e-14  -4.7387971644743821e-15  1.2480073517547402e-14  6.0582050517402662e-15  5.9394474624216408e-15  4.7018126356842091e-15  3.9405494754808366e-15  3.2737900403306912e-15  2.7491385570190814e-15  2.3063234661672674e-15  1.9409897400475471e-15  1.6327703839703669e-15  1.3854477448311789e-15  1.1804037223798298e-15  1.0133499374966063e-15  8.5768708740759862e-16  7.4721500792224485e-16  6.5619097348484732e-16  5.7320205067910881e-16  5.1506460278818399e-16  4.6402956993831803e-16  4.3760540130500763e-16  4.1733772543533295e-16  4.1381405865987513e-16  -1.0990378152684566e-04  1.0668659532528445e-05  7.7288539571299369e-04  1.3533756274847206e-03  1.2809895245106053e-03  1.0004435758867250e-03  7.1012146692495451e-04  3.8792119709929896e-04  9.1448462730488091e-05  -1.3675840563473943e-04  -2.8500628373362880e-04  -3.6021748128277809e-04  -3.7868815314325011e-04  -3.505800789474