<?xml version="1.0"?>
<VTKFile type="UnstructuredGrid"  version="0.1"  >
<UnstructuredGrid>
<Piece  NumberOfPoints="5151" NumberOfCells="10000">
<Points>
<DataArray  type="Float64"  NumberOfComponents="3"  format="ascii">0 0 0  0.01 0 0  0.02 0 0  0.03 0 0  0.04 0 0  0.05 0 0  0.06 0 0  0.07000000000000001 0 0  0.08 0 0  0.09 0 0  0.1 0 0  0.11 0 0  0.12 0 0  0.13 0 0  0.14 0 0  0.15 0 0  0.16 0 0  0.17 0 0  0.18 0 0  0.19 0 0  0.2 0 0  0.21 0 0  0.22 0 0  0.23 0 0  0.24 0 0  0.25 0 0  0.26 0 0  0.27 0 0  0.28 0 0  0.29 0 0  0.3 0 0  0.31 0 0  0.32 0 0  0.33 0 0  0.34 0 0  0.35 0 0  0.36 0 0  0.37 0 0  0.38 0 0  0.39 0 0  0.4 0 0  0.41 0 0  0.42 0 0  0.43 0 0  0.44 0 0  0.45 0 0  0.46 0 0  0.47 0 0  0.48 0 0  0.49 0 0  0.5 0 0  0.51 0 0  0.52 0 0  0.53 0 0  0.54 0 0  0.55 0 0  0.5600000000000001 0 0  0.57 0 0  0.58 0 0  0.59 0 0  0.6 0 0  0.61 0 0  0.62 0 0  0.63 0 0  0.64 0 0  0.65 0 0  0.66 0 0  0.67 0 0  0.68 0 0  0.6899999999999999 0 0  0.7 0 0  0.71 0 0  0.72 0 0  0.73 0 0  0.74 0 0  0.75 0 0  0.76 0 0  0.77 0 0  0.78 0 0  0.79 0 0  0.8 0 0  0.8100000000000001 0 0  0.82 0 0  0.83 0 0  0.84 0 0  0.85 0 0  0.86 0 0  0.87 0 0  0.88 0 0  0.89 0 0  0.9 0 0  0.91 0 0  0.92 0 0  0.93 0 0  0.9399999999999999 0 0  0.95 0 0  0.96 0 0  0.97 0 0  0.98 0 0  0.99 0 0  1 0 0  0 0.01 0  0.01 0.01 0  0.02 0.01 0  0.03 0.01 0  0.04 0.01 0  0.05 0.01 0  0.06 0.01 0  0.07000000000000001 0.01 0  0.08 0.01 0  0.09 0.01 0  0.1 0.01 0  0.11 0.01 0  0.12 0.01 0  0.13 0.01 0  0.14 0.01 0  0.15 0.01 0  0.16 0.01 0  0.17 0.01 0  0.18 0.01 0  0.19 0.01 0  0.2 0.01 0  0.21 0.01 0  0.22 0.01 0  0.23 0.01 0  0.24 0.01 0  0.25 0.01 0  0.26 0.01 0  0.27 0.01 0  0.28 0.01 0  0.29 0.01 0  0.3 0.01 0  0.31 0.01 0  0.32 0.01 0  0.33 0.01 0  0.34 0.01 0  0.35 0.01 0  0.36 0.01 0  0.37 0.01 0  0.38 0.01 0  0.39 0.01 0  0.4 0.01 0  0.41 0.01 0  0.42 0.01 0  0.43 0.01 0  0.44 0.01 0  0.45 0.01 0  0.46 0.01 0  0.47 0.01 0  0.48 0.01 0  0.49 0.01 0  0.5 0.01 0  0.51 0.01 0  0.52 0.01 0  0.53 0.01 0  0.54 0.01 0  0.55 0.01 0  0.5600000000000001 0.01 0  0.57 0.01 0  0.58 0.01 0  0.59 0.01 0  0.6 0.01 0  0.61 0.01 0  0.62 0.01 0  0.63 0.01 0  0.64 0.01 0  0.65 0.01 0  0.66 0.01 0  0.67 0.01 0  0.68 0.01 0  0.6899999999999999 0.01 0  0.7 0.01 0  0.71 0.01 0  0.72 0.01 0  0.73 0.01 0  0.74 0.01 0  0.75 0.01 0  0.76 0.01 0  0.77 0.01 0  0.78 0.01 0  0.79 0.01 0  0.8 0.01 0  0.8100000000000001 0.01 0  0.82 0.01 0  0.83 0.01 0  0.84 0.01 0  0.85 0.01 0  0.86 0.01 0  0.87 0.01 0  0.88 0.01 0  0.89 0.01 0  0.9 0.01 0  0.91 0.01 0  0.92 0.01 0  0.93 0.01 0  0.9399999999999999 0.01 0  0.95 0.01 0  0.96 0.01 0  0.97 0.01 0  0.98 0.01 0  0.99 0.01 0  1 0.01 0  0 0.02 0  0.01 0.02 0  0.02 0.02 0  0.03 0.02 0  0.04 0.02 0  0.05 0.02 0  0.06 0.02 0  0.07000000000000001 0.02 0  0.08 0.02 0  0.09 0.02 0  0.1 0.02 0  0.11 0.02 0  0.12 0.02 0  0.13 0.02 0  0.14 0.02 0  0.15 0.02 0  0.16 0.02 0  0.17 0.02 0  0.18 0.02 0  0.19 0.02 0  0.2 0.02 0  0.21 0.02 0  0.22 0.02 0  0.23 0.02 0  0.24 0.02 0  0.25 0.02 0  0.26 0.02 0  0.27 0.02 0  0.28 0.02 0  0.29 0.02 0  0.3 0.02 0  0.31 0.02 0  0.32 0.02 0  0.33 0.02 0  0.34 0.02 0  0.35 0.02 0  0.36 0.02 0  0.37 0.02 0  0.38 0.02 0  0.39 0.02 0  0.4 0.02 0  0.41 0.02 0  0.42 0.02 0  0.43 0.02 0  0.44 0.02 0  0.45 0.02 0  0.46 0.02 0  0.47 0.02 0  0.48 0.02 0  0.49 0.02 0  0.5 0.02 0  0.51 0.02 0  0.52 0.02 0  0.53 0.02 0  0.54 0.02 0  0.55 0.02 0  0.5600000000000001 0.02 0  0.57 0.02 0  0.58 0.02 0  0.59 0.02 0  0.6 0.02 0  0.61 0.02 0  0.62 0.02 0  0.63 0.02 0  0.64 0.02 0  0.65 0.02 0  0.66 0.02 0  0.67 0.02 0  0.68 0.02 0  0.6899999999999999 0.02 0  0.7 0.02 0  0.71 0.02 0  0.72 0.02 0  0.73 0.02 0  0.74 0.02 0  0.75 0.02 0  0.76 0.02 0  0.77 0.02 0  0.78 0.02 0  0.79 0.02 0  0.8 0.02 0  0.8100000000000001 0.02 0  0.82 0.02 0  0.83 0.02 0  0.84 0.02 0  0.85 0.02 0  0.86 0.02 0  0.87 0.02 0  0.88 0.02 0  0.89 0.02 0  0.9 0.02 0  0.91 0.02 0  0.92 0.02 0  0.93 0.02 0  0.9399999999999999 0.02 0  0.95 0.02 0  0.96 0.02 0  0.97 0.02 0  0.98 0.02 0  0.99 0.02 0  1 0.02 0  0 0.03 0  0.01 0.03 0  0.02 0.03 0  0.03 0.03 0  0.04 0.03 0  0.05 0.03 0  0.06 0.03 0  0.07000000000000001 0.03 0  0.08 0.03 0  0.09 0.03 0  0.1 0.03 0  0.11 0.03 0  0.12 0.03 0  0.13 0.03 0  0.14 0.03 0  0.15 0.03 0  0.16 0.03 0  0.17 0.03 0  0.18 0.03 0  0.19 0.03 0  0.2 0.03 0  0.21 0.03 0  0.22 0.03 0  0.23 0.03 0  0.24 0.03 0  0.25 0.03 0  0.26 0.03 0  0.27 0.03 0  0.28 0.03 0  0.29 0.03 0  0.3 0.03 0  0.31 0.03 0  0.32 0.03 0  0.33 0.03 0  0.34 0.03 0  0.35 0.03 0  0.36 0.03 0  0.37 0.03 0  0.38 0.03 0  0.39 0.03 0  0.4 0.03 0  0.41 0.03 0  0.42 0.03 0  0.43 0.03 0  0.44 0.03 0  0.45 0.03 0  0.46 0.03 0  0.47 0.03 0  0.48 0.03 0  0.49 0.03 0  0.5 0.03 0  0.51 0.03 0  0.52 0.03 0  0.53 0.03 0  0.54 0.03 0  0.55 0.03 0  0.5600000000000001 0.03 0  0.57 0.03 0  0.58 0.03 0  0.59 0.03 0  0.6 0.03 0  0.61 0.03 0  0.62 0.03 0  0.63 0.03 0  0.64 0.03 0  0.65 0.03 0  0.66 0.03 0  0.67 0.03 0  0.68 0.03 0  0.6899999999999999 0.03 0  0.7 0.03 0  0.71 0.03 0  0.72 0.03 0  0.73 0.03 0  0.74 0.03 0  0.75 0.03 0  0.76 0.03 0  0.77 0.03 0  0.78 0.03 0  0.79 0.03 0  0.8 0.03 0  0.8100000000000001 0.03 0  0.82 0.03 0  0.83 0.03 0  0.84 0.03 0  0.85 0.03 0  0.86 0.03 0  0.87 0.03 0  0.88 0.03 0  0.89 0.03 0  0.9 0.03 0  0.91 0.03 0  0.92 0.03 0  0.93 0.03 0  0.9399999999999999 0.03 0  0.95 0.03 0  0.96 0.03 0  0.97 0.03 0  0.98 0.03 0  0.99 0.03 0  1 0.03 0  0 0.04 0  0.01 0.04 0  0.02 0.04 0  0.03 0.04 0  0.04 0.04 0  0.05 0.04 0  0.06 0.04 0  0.07000000000000001 0.04 0  0.08 0.04 0  0.09 0.04 0  0.1 0.04 0  0.11 0.04 0  0.12 0.04 0  0.13 0.04 0  0.14 0.04 0  0.15 0.04 0  0.16 0.04 0  0.17 0.04 0  0.18 0.04 0  0.19 0.04 0  0.2 0.04 0  0.21 0.04 0  0.22 0.04 0  0.23 0.04 0  0.24 0.04 0  0.25 0.04 0  0.26 0.04 0  0.27 0.04 0  0.28 0.04 0  0.29 0.04 0  0.3 0.04 0  0.31 0.04 0  0.32 0.04 0  0.33 0.04 0  0.34 0.04 0  0.35 0.04 0  0.36 0.04 0  0.37 0.04 0  0.38 0.04 0  0.39 0.04 0  0.4 0.04 0  0.41 0.04 0  0.42 0.04 0  0.43 0.04 0  0.44 0.04 0  0.45 0.04 0  0.46 0.04 0  0.47 0.04 0  0.48 0.04 0  0.49 0.04 0  0.5 0.04 0  0.51 0.04 0  0.52 0.04 0  0.53 0.04 0  0.54 0.04 0  0.55 0.04 0  0.5600000000000001 0.04 0  0.57 0.04 0  0.58 0.04 0  0.59 0.04 0  0.6 0.04 0  0.61 0.04 0  0.62 0.04 0  0.63 0.04 0  0.64 0.04 0  0.65 0.04 0  0.66 0.04 0  0.67 0.04 0  0.68 0.04 0  0.6899999999999999 0.04 0  0.7 0.04 0  0.71 0.04 0  0.72 0.04 0  0.73 0.04 0  0.74 0.04 0  0.75 0.04 0  0.76 0.04 0  0.77 0.04 0  0.78 0.04 0  0.79 0.04 0  0.8 0.04 0  0.8100000000000001 0.04 0  0.82 0.04 0  0.83 0.04 0  0.84 0.04 0  0.85 0.04 0  0.86 0.04 0  0.87 0.04 0  0.88 0.04 0  0.89 0.04 0  0.9 0.04 0  0.91 0.04 0  0.92 0.04 0  0.93 0.04 0  0.9399999999999999 0.04 0  0.95 0.04 0  0.96 0.04 0  0.97 0.04 0  0.98 0.04 0  0.99 0.04 0  1 0.04 0  0 0.05 0  0.01 0.05 0  0.02 0.05 0  0.03 0.05 0  0.04 0.05 0  0.05 0.05 0  0.06 0.05 0  0.07000000000000001 0.05 0  0.08 0.05 0  0.09 0.05 0  0.1 0.05 0  0.11 0.05 0  0.12 0.05 0  0.13 0.05 0  0.14 0.05 0  0.15 0.05 0  0.16 0.05 0  0.17 0.05 0  0.18 0.05 0  0.19 0.05 0  0.2 0.05 0  0.21 0.05 0  0.22 0.05 0  0.23 0.05 0  0.24 0.05 0  0.25 0.05 0  0.26 0.05 0  0.27 0.05 0  0.28 0.05 0  0.29 0.05 0  0.3 0.05 0  0.31 0.05 0  0.32 0.05 0  0.33 0.05 0  0.34 0.05 0  0.35 0.05 0  0.36 0.05 0  0.37 0.05 0  0.38 0.05 0  0.39 0.05 0  0.4 0.05 0  0.41 0.05 0  0.42 0.05 0  0.43 0.05 0  0.44 0.05 0  0.45 0.05 0  0.46 0.05 0  0.47 0.05 0  0.48 0.05 0  0.49 0.05 0  0.5 0.05 0  0.51 0.05 0  0.52 0.05 0  0.53 0.05 0  0.54 0.05 0  0.55 0.05 0  0.5600000000000001 0.05 0  0.57 0.05 0  0.58 0.05 0  0.59 0.05 0  0.6 0.05 0  0.61 0.05 0  0.62 0.05 0  0.63 0.05 0  0.64 0.05 0  0.65 0.05 0  0.66 0.05 0  0.67 0.05 0  0.68 0.05 0  0.6899999999999999 0.05 0  0.7 0.05 0  0.71 0.05 0  0.72 0.05 0  0.73 0.05 0  0.74 0.05 0  0.75 0.05 0  0.76 0.05 0  0.77 0.05 0  0.78 0.05 0  0.79 0.05 0  0.8 0.05 0  0.8100000000000001 0.05 0  0.82 0.05 0  0.83 0.05 0  0.84 0.05 0  0.85 0.05 0  0.86 0.05 0  0.87 0.05 0  0.88 0.05 0  0.89 0.05 0  0.9 0.05 0  0.91 0.05 0  0.92 0.05 0  0.93 0.05 0  0.9399999999999999 0.05 0  0.95 0.05 0  0.96 0.05 0  0.97 0.05 0  0.98 0.05 0  0.99 0.05 0  1 0.05 0  0 0.06 0  0.01 0.06 0  0.02 0.06 0  0.03 0.06 0  0.04 0.06 0  0.05 0.06 0  0.06 0.06 0  0.07000000000000001 0.06 0  0.08 0.06 0  0.09 0.06 0  0.1 0.06 0  0.11 0.06 0  0.12 0.06 0  0.13 0.06 0  0.14 0.06 0  0.15 0.06 0  0.16 0.06 0  0.17 0.06 0  0.18 0.06 0  0.19 0.06 0  0.2 0.06 0  0.21 0.06 0  0.22 0.06 0  0.23 0.06 0  0.24 0.06 0  0.25 0.06 0  0.26 0.06 0  0.27 0.06 0  0.28 0.06 0  0.29 0.06 0  0.3 0.06 0  0.31 0.06 0  0.32 0.06 0  0.33 0.06 0  0.34 0.06 0  0.35 0.06 0  0.36 0.06 0  0.37 0.06 0  0.38 0.06 0  0.39 0.06 0  0.4 0.06 0  0.41 0.06 0  0.42 0.06 0  0.43 0.06 0  0.44 0.06 0  0.45 0.06 0  0.46 0.06 0  0.47 0.06 0  0.48 0.06 0  0.49 0.06 0  0.5 0.06 0  0.51 0.06 0  0.52 0.06 0  0.53 0.06 0  0.54 0.06 0  0.55 0.06 0  0.5600000000000001 0.06 0  0.57 0.06 0  0.58 0.06 0  0.59 0.06 0  0.6 0.06 0  0.61 0.06 0  0.62 0.06 0  0.63 0.06 0  0.64 0.06 0  0.65 0.06 0  0.66 0.06 0  0.67 0.06 0  0.68 0.06 0  0.6899999999999999 0.06 0  0.7 0.06 0  0.71 0.06 0  0.72 0.06 0  0.73 0.06 0  0.74 0.06 0  0.75 0.06 0  0.76 0.06 0  0.77 0.06 0  0.78 0.06 0  0.79 0.06 0  0.8 0.06 0  0.8100000000000001 0.06 0  0.82 0.06 0  0.83 0.06 0  0.84 0.06 0  0.85 0.06 0  0.86 0.06 0  0.87 0.06 0  0.88 0.06 0  0.89 0.06 0  0.9 0.06 0  0.91 0.06 0  0.92 0.06 0  0.93 0.06 0  0.9399999999999999 0.06 0  0.95 0.06 0  0.96 0.06 0  0.97 0.06 0  0.98 0.06 0  0.99 0.06 0  1 0.06 0  0 0.07000000000000001 0  0.01 0.07000000000000001 0  0.02 0.07000000000000001 0  0.03 0.07000000000000001 0  0.04 0.07000000000000001 0  0.05 0.07000000000000001 0  0.06 0.07000000000000001 0  0.07000000000000001 0.07000000000000001 0  0.08 0.07000000000000001 0  0.09 0.07000000000000001 0  0.1 0.07000000000000001 0  0.11 0.07000000000000001 0  0.12 0.07000000000000001 0  0.13 0.07000000000000001 0  0.14 0.07000000000000001 0  0.15 0.07000000000000001 0  0.16 0.07000000000000001 0  0.17 0.07000
[...]
<PointData  Scalars="rho"> 
<DataArray  type="Float64"  Name="rho"  format="ascii">9.9122822403374855e-01  9.8887497203548269e-01  9.8573837419065458e-01  9.8471621308678259e-01  9.8435855978621734e-01  9.8663748955710551e-01  9.8796762025543250e-01  9.9340149870353700e-01  9.9531790922637098e-01  9.9822040429160463e-01  9.9956062934318768e-01  1.0000000000000000e+00  1.0000000000000000e+00  1.0000000000000000e+00  1.0000000000000000e+00  1.0000000000000000e+00  1.0000000000000000e+00  1.0000000000000000e+00  1.0000000000000000e+00  1.0000000000000000e+00  1.0000000000000000e+00  1.0000000000000000e+00  1.0000000000000000e+00  1.0000000000000000e+00  1.0000000000000000e+00  1.0000000000000000e+00  1.0000000000000000e+00  1.0000000000000000e+00  1.0000000000000000e+00  1.0000000000000000e+00  1.0000000000000000e+00  1.0000000000000000e+00  1.0000000000000000e+00  1.0000000000000000e+00  9.9996734130313203e-01  9.9438086605376896e-01  7.3634714350060226e-01  5.9240777206613038e-01  2.6014945462334810e-01  3.8895954282671010e-04  3.6799683713882142e-04  3.3279597829056622e-04  2.9951374636009163e-04  2.6885742493211868e-04  2.4069251921288675e-04  2.1533242260497225e-04  1.9294956127576774e-04  1.7344436342604403e-04  1.5651196421139448e-04  1.4174388729632943e-04  1.2871468805360570e-04  1.1703957797784006e-04  1.0640590746150093e-04  9.6583511365697352e-05  8.7420564187636035e-05  7.8830118341363878e-05  7.0772740060521551e-05  6.3238940880676559e-05  5.6234079139657756e-05  2.5414616363000248e-05  2.3959034165544941e-05  2.1897281415769845e-05  1.9522392394579839e-05  1.7049220766288218e-05  1.4626733473375030e-05  1.2351260199767961e-05  4.2308870747815826e-06  3.4728550306504548e-06  4.0321397681213639e-06  3.4562039232304548e-06  2.9576174986225133e-06  2.5272822364070479e-06  2.1568401177712709e-06  1.8387023436583612e-06  1.5660473690880894e-06  2.7199911886504870e-06  2.3134046076111364e-06  1.9666009955770580e-06  1.6711375942101313e-06  1.4196687361524037e-06  1.2058269395610242e-06  1.0241174971691695e-06  8.6981100616645164e-07  7.3885423758302299e-07  1.0676493041497324e-06  1.2964614128648088e-06  1.1027023827661748e-06  6.5712129693378891e-07  5.6013035764636581e-07  4.7831752046531095e-07  4.0948947539850311e-07  3.5180815520025516e-07  2.1261467278009178e-07  1.8479661911425416e-07  1.9449151666927738e-07  1.7262947476340756e-07  1.5560144671388953e-07  1.4297247992681859e-07  1.3443437984475765e-07  1.2981903543556478e-07  4.2868225212879814e-08  9.8893749206196002e-01  9.8428398540316375e-01  9.8023255176780366e-01  9.7837140348781304e-01  9.7730384046100227e-01  9.7749118216401776e-01  9.8161687722043756e-01  9.8496015816163673e-01  9.9236554636252883e-01  9.9631623646350487e-01  9.9899149134881871e-01  9.9996427870077698e-01  1.0000000000000000e+00  1.0000000000000000e+00  1.0000000000000000e+00  1.0000000000000000e+00  1.0000000000000000e+00  1.0000000000000000e+00  1.0000000000000000e+00  1.0000000000000000e+00  1.0000000000000000e+00  1.0000000000000000e+00  1.0000000000000000e+00  1.0000000000000000e+00  1.0000000000000000e+00  1.0000000000000000e+00  1.0000000000000000e+00  1.0000000000000000e+00  1.0000000000000000e+00  1.0000000000000000e+00  1.0000000000000000e+00  1.0000000000000000e+00  1.0000000000000000e+00  1.0000000000000000e+00  1.0000000000000000e+00  9.9775253700433464e-01  9.8484685432346697e-01  7.2890609448855370e-01  4.0347823411704048e-01  1.6612745551329011e-03  7.6955729620528115e-04  6.9879691086494728e-04  6.2664826625542867e-04  5.6128153550272719e-04  5.0178068793165051e-04  4.4843208360497469e-04  4.0151374608958902e-04  3.6077932111639198e-04  3.2554592346950762e-04  2.9491200909749336e-04  2.6794581716278179e-04  2.4380984876672579e-04  2.2182678299501328e-04  2.0150154602886812e-04  1.8251113316051967e-04  1.6467472107841065e-04  1.4791485419331522e-04  1.3221896530449698e-04  1.1760588105364539e-04  5.3509964900110819e-05  5.0269709251622062e-05  4.5868629939668762e-05  4.0871218191200624e-05  3.5696627838469377e-05  3.0638642191328483e-05  2.5889359931927456e-05  8.8750242336070243e-06  7.2905964740195807e-06  5.9087166447069071e-06  7.2299883338778058e-06  6.1867108970107527e-06  5.2862908238436109e-06  4.5112286591940671e-06  3.8456365038900648e-06  3.2752322273899385e-06  5.6883423657446424e-06  4.8378395759775097e-06  4.1124291285360300e-06  3.4944382082161188e-06  2.9684874727611729e-06  2.5212528676850647e-06  2.1412282995168305e-06  1.8185205580196817e-06  1.5446412684537420e-06  2.2318608871252841e-06  2.7099229880122968e-06  2.3046242886652541e-06  1.3731217231378590e-06  1.1701555974684143e-06  9.9888744828899904e-07  8.5472945060604206e-07  7.3382559451636172e-07  4.4306829204286580e-07  3.8460500550683332e-07  4.0409268610035690e-07  3.5787262408629614e-07  3.2166055290117050e-07  2.9452095517253287e-07  2.7576289166091364e-07  2.6490913589095493e-07  1.3007972380524250e-07  9.8872702739177598e-01  9.8388269207746681e-01  9.7914105610608815e-01  9.7615291725732245e-01  9.7120570930279237e-01  9.7051096707100948e-01  9.7569799532045232e-01  9.7929304336518030e-01  9.8568235148846017e-01  9.9501291205282738e-01  9.9888787659552647e-01  1.0000000000000000e+00  1.0000000000000000e+00  1.0000000000000000e+00  1.0000000000000000e+00  1.0000000000000000e+00  1.0000000000000000e+00  1.0000000000000000e+00  1.0000000000000000e+00  1.0000000000000000e+00  1.0000000000000000e+00  1.0000000000000000e+00  1.0000000000000000e+00  1.0000000000000000e+00  1.0000000000000000e+00  1.0000000000000000e+00  1.0000000000000000e+00  1.0000000000000000e+00  1.0000000000000000e+00  1.0000000000000000e+00  1.0000000000000000e+00  1.0000000000000000e+00  1.0000000000000000e+00  1.0000000000000000e+00  1.0000000000000000e+00  9.9988939327354009e-01  9.9264028666013115e-01  8.2553053255981923e-01  6.8458952350223046e-01  2.4004876840104028e-01  1.0090664968201712e-03  9.4432234140688035e-04  6.8311221036737103e-04  6.0682920659898892e-04  5.3935808366761709e-04  4.8031612424276197e-04  4.2942672532706702e-04  3.8597619205729954e-04  3.4884132826758951e-04  3.1675485981377935e-04  2.8852195866598467e-04  2.6313680143073658e-04  2.3983320912131833e-04  2.1808913390841206e-04  1.9759842429316839e-04  1.7822122102177930e-04  1.5992946059357514e-04  1.4275762239322130e-04  9.1720896694095464e-05  6.1255293106109339e-05  5.6555225367459086e-05  5.0871770371839943e-05  4.4784479133951519e-05  3.8706651763382873e-05  3.2914630298101882e-05  1.1351155297466076e-05  9.3793723781806195e-06  7.6463072923592366e-06  8.9403525651587803e-06  7.6547490982104197e-06  6.5438548125180590e-06  5.5866381501040280e-06  4.7638993694989092e-06  4.0582991980350591e-06  3.4543248852174533e-06  5.9963470094130364e-06  5.0975874129301292e-06  4.3316520548902506e-06  3.6796078945006976e-06  3.1250224638413955e-06  2.6536876644259498e-06  2.2533644055528506e-06  1.9135397889459680e-06  1.6252170612025917e-06  3.3544930136578115e-06  2.8509949280312353e-06  2.4245130450912077e-06  1.4445063031905689e-06  1.2309405117318280e-06  1.0507247880102259e-06  8.9902580266070019e-07  7.7179011067498328e-07  4.6593931585320893e-07  4.0440588890022044e-07  4.2483321550115307e-07  3.7617902771600387e-07  3.3805405520485251e-07  3.0946758983311193e-07  2.8967532230412931e-07  2.7814908056203070e-07  1.3575072829031361e-07  9.8805520464963581e-01  9.8288776482532569e-01  9.7595043344724586e-01  9.6753782363531293e-01  9.5291917253132108e-01  9.5040847141612850e-01  9.3403989276395893e-01  9.4443270229656651e-01  9.5320074344629580e-01  9.7265982516039251e-01  9.9506236891837441e-01  9.9979830680192550e-01  1.0000000000000000e+00  1.0000000000000000e+00  1.0000000000000000e+00  1.0000000000000000e+00  1.0000000000000000e+00  1.0000000000000000e+00  1.0000000000000000e+00  1.0000000000000000e+00  1.0000000000000000e+00  1.0000000000000000e+00  1.0000000000000000e+00  1.0000000000000000e+00  1.0000000000000000e+00  1.0000000000000000e+00  1.0000000000000000e+00  1.0000000000000000e+00  1.0000000000000000e+00  1.0000000000000000e+00  1.0000000000000000e+00  9.9366752285904780e-01  1.0000000000000000e+00  8.9006381794887901e-01  8.5485673312408661e-01  1.0000000000000000e+00  9.2419136596916773e-01  9.8528088098274291e-01  7.6376967491407477e-01  5.6466378287220087e-01  3.2606209801671315e-01  1.0398046232623188e-03  9.5152035087022282e-04  6.8568484987092796e-04  6.0350359068485392e-04  5.3444072195249406e-04  4.7691421919718888e-04  4.2911462069580722e-04  3.8901313219227927e-04  3.5465504712336874e-04  3.2438701255769965e-04  2.9692189354359568e-04  2.7135311048716824e-04  2.4712806267876072e-04  2.2398821846611510e-04  2.0188048323185642e-04  1.8087338771833979e-04  1.1918453963272799e-04  8.0271109546814387e-05  7.4514666417248667e-05  6.7266402859519997e-05  5.9365072509394226e-05  2.5189278627432374e-05  2.1455555583977448e-05  1.5124943522827008e-05  1.2518577115322534e-05  1.0223881795972876e-05  8.2394761774898560e-06  9.8111606193192126e-06  8.3869505128306034e-06  7.1595420095900483e-06  6.1044690497884229e-06  5.1995861912088035e-06  4.4250525444049715e-06  7.6800736344208257e-06  6.5277098558823085e-06  5.5457822833640824e-06  4.7099940656321481e-06  3.9992437547505329e-06  3.3952816113499078e-06  2.8823823369207519e-06  2.4470376282665652e-06  2.0776794628874316e-06  3.0007222174955057e-06  3.6415312102308323e-06  3.0947676404900813e-06  1.8421860662027970e-06  1.5678640945948141e-06  1.3359764994842432e-06  1.1402837504249550e-06  9.7553872817166637e-07  8.3733979315124826e-07  5.0540846188255036e-07  4.3855117897713372e-07  4.6056661520081563e-07  4.0768422943159902e-07  3.6623598585143018e-07  3.3514522811875109e-07  3.1360237224251610e-07  3.0103641688813980e-07  1.4619984361074560e-07  9.7296384585242035e-01  9.6933108995139960e-01  9.4570315275136396e-01  9.1989364719121980e-01  8.1704409220574037e-01  5.4651969526010502e-01  4.0519841717611965e-01  2.7311195892426626e-01  4.1254395810966550e-02  7.1766047260977972e-04  5.1649528504421019e-04  7.5279406712647527e-04  1.3668109463853101e-02  3.1178318513044732e-02  1.2105014847728647e-01  2.1136233206283803e-01  4.8217506547652644e-01  5.5892997746810125e-01  6.6957831839599713e-01  7.0499801265757056e-01  7.5487985219467946e-01  8.8130140652088895e-01  7.4004095063507791e-01  8.9272980889888631e-01  8.2144743931075470e-01  1.0000000000000000e+00  9.6850187850168779e-01  9.6640560945819143e-01  8.3940278229087806e-01  7.5132725156210323e-01  7.1461502606785710e-01  6.8680034109338728e-01  6.1563124564688143e-01  5.9930811339919066e-01  6.3239590653726641e-01  6.6032540693774167e-01  8.4499818852528508e-01  9.9993367279872181e-01  9.9910419815518892e-01  9.8886361192170891e-01  7.8217559431788708e-01  4.8165871097023444e-01  3.2548847918102181e-01  7.8846655043719564e-04  6.9429922560142849e-04  6.1172900723291315e-04  5.4494577176453652e-04  4.9157346248325268e-04  4.4787961455184879e-04  4.1072992091649500e-04  3.7780654434446459e-04  3.4743864092696367e-04  3.1854811331038342e-04  2.9057787570518125e-04  2.6338931034055533e-04  2.3709634413583065e-04  1.6424488612651670e-04  1.1130562054057386e-04  1.0361259304785835e-04  4.5861761140956171e-05  4.0451349498880997e-05  3.4987294909779555e-05  2.9760943525585586e-05  2.0953103535427306e-05  1.7324025696267304e-05  1.4136962389139511e-05  1.1386259489121128e-05  1.2962876951492991e-05  1.1075666547512234e-05  9.4500612174080511e-06  8.0534522586085240e-06  6.8563194200003300e-06  5.8322203067730611e-06  4.9576593592451106e-06  8.5957486133588334e-06  7.2996497556351448e-06  6.1970516604275101e-06  5.2599010581542587e-06  4.4639489524315009e-06  3.7883108018989958e-06  3.2150587452278613e-06  2.7288475905197924e-06  2.3165754423477092e-06  4.7791138944672999e-06  4.0594855893935967e-06  3.4497865435124935e-06  2.0534192852150728e-06  1.7475499567232526e-06  1.4889734675406053e-06  1.2707278513535705e-06  1.0869613452504884e-06  6.5294074580628201e-07  5.6284868358873737e-07  5.8586379600842929e-07  5.1251377873475785e-07  4.5345526710219725e-07  4.0715434052525594e-07  3.7241435698175476e-07  3.4833789085779988e-07  3.3430032309363963e-07  1.6170896204686245e-07  1.1091287367252332e-01  3.4688931321362956e-02  5.9931837009205720e-04  5.9247073459917305e-04  5.8682359463190328e-04  5.8424303623311430e-04  5.8535869469692088e-04  5.9026138428835365e-04  5.9856202046951917e-04  6.0956714779577539e-04  6.2363151267333849e-04  4.4875350177768860e-04  7.4905744143690832e-04  2.7782653646414453e-03  1.0957909649249874e-02  1.3877886290725684e-02  1.3311479716411648e-02  1.0883363271335447e-02  5.5218102671130862e-03  3.1687750468634699e-04  2.6640782624381873e-03  3.9076210030805549e-03  5.9107512774969184e-03  4.8159239293380498e-03  1.2917075962087108e-02  1.3633344121270196e-02  1.5542936713517384e-02  1.5859761418648546e-02  1.3353042735599287e-02  1.3054464987540523e-02  1.1195185749874466e-02  1.1049844165338489e-02  1.1604714660637987e-02  6.2856799612277969e-02  3.6989061630730191e-01  5.9038875628425613e-01  5.9301749003592008e-01  6.4001553713017312e-01  9.7648053236870380e-01  9.9953309883100239e-01  9.9921290804798779e-01  9.9878681402727776e-01  7.0648220217666036e-01  5.3915121342338657e-01  7.7409766540050397e-04  7.0081019820143471e-04  6.3203689130664198e-04  5.7515744265840708e-04  5.2834013725475799e-04  4.8832082890442946e-04  4.5231622172281185e-04  4.1821061749176938e-04  3.8474301641516046e-04  3.5141441125145632e-04  2.2490445441143670e-04  2.3338609308931022e-04  7.8181860845798483e-05  7.3076718363492162e-05  6.6071503387148451e-05  5.8213543131506316e-05  5.0242292995620195e-05  3.5807995306391380e-05  2.9936865899271464e-05  2.4695625948309959e-05  2.0113403892175020e-05  1.6173422568432485e-05  1.2833491076862414e-05  1.4984214073904034e-05  1.2774676826564615e-05  1.0878249793704616e-05  9.2542602243434975e-06  7.8663187572258712e-06  6.6821441178388512e-06  1.1578183096213590e-05  9.8263733953396863e-06  8.3373667977770661e-06  7.0728141738564976e-06  5.9996075695266054e-06  5.0892679945588870e-06  4.3173748836319044e-06  3.6630469238430591e-06  3.1084751030787787e-06  4.4872525588086677e-06  5.4428187124911486e-06  4.6230403815407182e-06  2.7500107366421131e-06  2.3383511384625295e-06  1.9899498332081478e-06  1.6953746155236671e-06  1.4466906266048435e-06  1.2372399627784795e-06  7.4301380613456550e-07  6.4026770535005065e-07  6.6615542788847812e-07  5.8245237425337123e-07  5.1503802957390562e-07  4.6217423519192244e-07  4.2250262483946251e-07  3.9500967869344574e-07  3.7899416765796631e-07  1.8275547682375323e-07  2.3479090617669457e-04  4.8916446272552374e-04  4.8664424311114222e-04  4.8124040603952380e-04  4.7560240919639589e-04  4.7150535573723280e-04  4.6992944148695464e-04  4.7132178197890429e-04  4.7570889029095346e-04  4.8285552974959502e-04  4.9263756647924034e-04  3.5331917673908311e-04  4.1844294968260268e-04  6.9569089483626965e-04  5.5767353584818252e-03  5.8131003823897655e-03  4.9301305405113497e-03  2.6710180045777265e-03  5.4652097354423253e-04  2.3688437775777136e-04  2.1929304978018390e-04  4.7084696952576054e-04  1.7820999978250592e-03  2.7614554361895783e-03  2.1475746304259816e-03  2.3207877943346414e-03  2.1790672114216122e-03  1.5488206678217408e-03  1.5941982715604159e-03  1.6280237528250128e-03  1.6435487878801178e-03  1.8012176362186901e-03  1.7688642193952437e-03  1.7422580621165916e-03  5.8414804615787943e-04  6.1472387324438768e-04  2.5559561762235006e-01  4.9907493351571353e-01  6.3442414673880798e-01  9.6160682268622688e-01  9.9959146998195925e-01  9.9947338089931881e-01  9.9903903941395211e-01  9.8817671477162550e-01  9.2612912984881368e-01  7.7240172165910637e-01  9.7800284254593250e-02  6.5556064682551212e-04  6.1860552497818987e-04  5.8325750800493391e-04  5.4881295038249436e-04  5.1287474208135272e-04  4.7434964716715233e-04  3.1501848723865673e-04  3.3408482055500720e-04  1.1349893772221980e-04  1.0692085134957261e-04  9.6999867272242165e-05  8.5477480368032076e-05  6.1862305007607765e-05  5.2354129552112026e-05  4.3652997239835721e-05  3.5923488807940713e-05  2.9200192843615261e-05  2.3444553755938793e-05  1.8581353165263798e-05  1.4520408793249820e-05  1.7588191379113727e-05  1.4962825314630033e-05  1.2717340760595448e-05  1.0800487008560300e-05  9.1669103854003511e-06  1.5870918538098571e-05  1.3459533003302738e-05  1.1412026845016343e-05  9.6748957942941204e-06  8.2020216165393373e-06  6.9537810700053011e-06  5.8962456517139404e-06  5.0004452911899485e-06  4.2417043562498981e-06  3.5990500648157043e-06  7.4215070545034217e-06  6.3011796833860183e-06  3.7464814752312475e-06  3.1837296967007989e-06  2.7071420232800994e-06  2.3037276945540569e-06  1.9625563593983099e-06  1.6744504180596793e-06  1.4317136418438060e-06  8.5953784470227750e-07  7.4037482620981185e-07  7.6991731754708319e-07  6.7277108577445321e-07  5.9450754855048242e-07  5.3311972202047564e-07  4.8704558397159256e-07  4.5511745285734598e-07  4.3653470366742058e-07  2.1000015666800791e-07  1.8262822165036394e-04  3.8025230121587953e-04  3.7844793153786347e-04  3.7544402973280894e-04  3.7231268435433543e-04  3.7007849200993673e-04  3.6943835407867364e-04  3.7076033072619435e-04  3.7413939729662328e-04  3.7948646391363332e-04  3.8662924144375647e-04  2.7665643867027043e-04  2.9165744602824089e-04  5.7125861018892928e-04  1.9243783779663106e-03  3.7184844380759910e-03  3.3449965808659775e-03  1.5415164184268148e-03  7.7183965301986081e-04  1.6124471469772841e-04  1.5036833753966880e-04  4.6575361912808437e-04  9.7232190548585649e-04  1.4073056830150499e-03  1.2471355929145039e-03  1.1914553289523013e-03  1.0554352800751917e-03  1.1001187663193003e-03  1.5531036129201809e-03  1.5105650495429968e-03  1.3790347776256250e-03  1.7528153176391409e-03  1.7133289718539225e-03  4.4859996131469510e-04  2.8368719560096080e-04  2.1499243009122978e-04  4.7216449251016640e-04  2.4607986596725885e-04  4.1793837875237283e-01  6.0987295701824940e-01  9.4116635039066299e-01  9.9966078742033482e-01  9.9948277229745752e-01  9.9928849985136481e-01  9.7609425151758500e-01  9.4213795706211823e-01  8.8641170496814137e-01  8.1779171245417082e-01  6.0401589142253176e-01  5.8091626199952873e-01  5.7176859594893503e-01  4.8652195651784252e-01  5.3993981072917051e-02  1.7069471010634709e-04  1.6766577190144465e-04  1.5762268019981138e-04  1.4343909373465709e-04  1.0639983288610275e-04  9.1597865636103268e-05  7.7342265956915134e-05  6.4324134195817371e-05  5.2818858109694360e-05  4.2867342695270261e-05  3.4389512054756905e-05  2.7250838073647510e-05  2.1300290225353488e-05  2.4543931049112422e-05  2.0858247942353798e-05  1.7710113579521092e-05  1.5026154743023232e-05  1.2741651613680676e-05  2.2040544047458803e-05  1.8676201660437419e-05  1.5822752132837052e-05  1.3404493740020901e-05  1.1356271575868313e-05  9.6221760407131283e-06  8.1544059004229719e-06  6.9121937232679901e-06  5.8608653652119096e-06  4.9709930040628981e-06  8.6074448140334943e-06  8.6971452864050193e-06  7.3845403719028501e-06  4.3908545888279685e-06  3.7315062150332858e-06  3.1730162571729044e-06  2.7001485920069273e-06  2.3001085347861915e-06  1.9621591896475369e-06  1.1741173606672928e-06  1.0066326812993839e-06  1.0400117643305185e-06  9.0073821631097347e-07  7.8655153652309650e-07  6.9452878289586661e-07  6.2233167518169987e-07  5.6813488222155472e-07  5.3058114095394252e-07  5.0873675083387842e-07  2.4429943144766389e-07  1.4198031691899503e-04  2.9559895629898992e-04  2.9442108741468899e-04  2.9276868917737793e-04  2.9113613770033583e-04  2.9008525451624368e-04  2.9006028150131805e-04  2.9133191077667677e-04  2.9400252858082231e-04  2.9803958680744931e-04  3.0330641374921630e-04  2.1668083666586980e-04  3.1888240483881377e-04  2.7775138463296243e-04  4.0092955547613857e-04  1.8180673258707813e-03  1.5072148300243535e-03  3.5278958758207230e-04  6.5595519321522090e-04  3.3145337565400064e-04  5.1680207500905161e-04  5.4881358418887739e-0