<?xml version="1.0"?>
<VTKFile type="UnstructuredGrid"  version="0.1"  >
<UnstructuredGrid>
<Piece  NumberOfPoints="5151" NumberOfCells="10000">
<Points>
<DataArray  type="Float64"  NumberOfComponents="3"  format="ascii">0 0 0  0.01 0 0  0.02 0 0  0.03 0 0  0.04 0 0  0.05 0 0  0.06 0 0  0.07000000000000001 0 0  0.08 0 0  0.09 0 0  0.1 0 0  0.11 0 0  0.12 0 0  0.13 0 0  0.14 0 0  0.15 0 0  0.16 0 0  0.17 0 0  0.18 0 0  0.19 0 0  0.2 0 0  0.21 0 0  0.22 0 0  0.23 0 0  0.24 0 0  0.25 0 0  0.26 0 0  0.27 0 0  0.28 0 0  0.29 0 0  0.3 0 0  0.31 0 0  0.32 0 0  0.33 0 0  0.34 0 0  0.35 0 0  0.36 0 0  0.37 0 0  0.38 0 0  0.39 0 0  0.4 0 0  0.41 0 0  0.42 0 0  0.43 0 0  0.44 0 0  0.45 0 0  0.46 0 0  0.47 0 0  0.48 0 0  0.49 0 0  0.5 0 0  0.51 0 0  0.52 0 0  0.53 0 0  0.54 0 0  0.55 0 0  0.5600000000000001 0 0  0.57 0 0  0.58 0 0  0.59 0 0  0.6 0 0  0.61 0 0  0.62 0 0  0.63 0 0  0.64 0 0  0.65 0 0  0.66 0 0  0.67 0 0  0.68 0 0  0.6899999999999999 0 0  0.7 0 0  0.71 0 0  0.72 0 0  0.73 0 0  0.74 0 0  0.75 0 0  0.76 0 0  0.77 0 0  0.78 0 0  0.79 0 0  0.8 0 0  0.8100000000000001 0 0  0.82 0 0  0.83 0 0  0.84 0 0  0.85 0 0  0.86 0 0  0.87 0 0  0.88 0 0  0.89 0 0  0.9 0 0  0.91 0 0  0.92 0 0  0.93 0 0  0.9399999999999999 0 0  0.95 0 0  0.96 0 0  0.97 0 0  0.98 0 0  0.99 0 0  1 0 0  0 0.01 0  0.01 0.01 0  0.02 0.01 0  0.03 0.01 0  0.04 0.01 0  0.05 0.01 0  0.06 0.01 0  0.07000000000000001 0.01 0  0.08 0.01 0  0.09 0.01 0  0.1 0.01 0  0.11 0.01 0  0.12 0.01 0  0.13 0.01 0  0.14 0.01 0  0.15 0.01 0  0.16 0.01 0  0.17 0.01 0  0.18 0.01 0  0.19 0.01 0  0.2 0.01 0  0.21 0.01 0  0.22 0.01 0  0.23 0.01 0  0.24 0.01 0  0.25 0.01 0  0.26 0.01 0  0.27 0.01 0  0.28 0.01 0  0.29 0.01 0  0.3 0.01 0  0.31 0.01 0  0.32 0.01 0  0.33 0.01 0  0.34 0.01 0  0.35 0.01 0  0.36 0.01 0  0.37 0.01 0  0.38 0.01 0  0.39 0.01 0  0.4 0.01 0  0.41 0.01 0  0.42 0.01 0  0.43 0.01 0  0.44 0.01 0  0.45 0.01 0  0.46 0.01 0  0.47 0.01 0  0.48 0.01 0  0.49 0.01 0  0.5 0.01 0  0.51 0.01 0  0.52 0.01 0  0.53 0.01 0  0.54 0.01 0  0.55 0.01 0  0.5600000000000001 0.01 0  0.57 0.01 0  0.58 0.01 0  0.59 0.01 0  0.6 0.01 0  0.61 0.01 0  0.62 0.01 0  0.63 0.01 0  0.64 0.01 0  0.65 0.01 0  0.66 0.01 0  0.67 0.01 0  0.68 0.01 0  0.6899999999999999 0.01 0  0.7 0.01 0  0.71 0.01 0  0.72 0.01 0  0.73 0.01 0  0.74 0.01 0  0.75 0.01 0  0.76 0.01 0  0.77 0.01 0  0.78 0.01 0  0.79 0.01 0  0.8 0.01 0  0.8100000000000001 0.01 0  0.82 0.01 0  0.83 0.01 0  0.84 0.01 0  0.85 0.01 0  0.86 0.01 0  0.87 0.01 0  0.88 0.01 0  0.89 0.01 0  0.9 0.01 0  0.91 0.01 0  0.92 0.01 0  0.93 0.01 0  0.9399999999999999 0.01 0  0.95 0.01 0  0.96 0.01 0  0.97 0.01 0  0.98 0.01 0  0.99 0.01 0  1 0.01 0  0 0.02 0  0.01 0.02 0  0.02 0.02 0  0.03 0.02 0  0.04 0.02 0  0.05 0.02 0  0.06 0.02 0  0.07000000000000001 0.02 0  0.08 0.02 0  0.09 0.02 0  0.1 0.02 0  0.11 0.02 0  0.12 0.02 0  0.13 0.02 0  0.14 0.02 0  0.15 0.02 0  0.16 0.02 0  0.17 0.02 0  0.18 0.02 0  0.19 0.02 0  0.2 0.02 0  0.21 0.02 0  0.22 0.02 0  0.23 0.02 0  0.24 0.02 0  0.25 0.02 0  0.26 0.02 0  0.27 0.02 0  0.28 0.02 0  0.29 0.02 0  0.3 0.02 0  0.31 0.02 0  0.32 0.02 0  0.33 0.02 0  0.34 0.02 0  0.35 0.02 0  0.36 0.02 0  0.37 0.02 0  0.38 0.02 0  0.39 0.02 0  0.4 0.02 0  0.41 0.02 0  0.42 0.02 0  0.43 0.02 0  0.44 0.02 0  0.45 0.02 0  0.46 0.02 0  0.47 0.02 0  0.48 0.02 0  0.49 0.02 0  0.5 0.02 0  0.51 0.02 0  0.52 0.02 0  0.53 0.02 0  0.54 0.02 0  0.55 0.02 0  0.5600000000000001 0.02 0  0.57 0.02 0  0.58 0.02 0  0.59 0.02 0  0.6 0.02 0  0.61 0.02 0  0.62 0.02 0  0.63 0.02 0  0.64 0.02 0  0.65 0.02 0  0.66 0.02 0  0.67 0.02 0  0.68 0.02 0  0.6899999999999999 0.02 0  0.7 0.02 0  0.71 0.02 0  0.72 0.02 0  0.73 0.02 0  0.74 0.02 0  0.75 0.02 0  0.76 0.02 0  0.77 0.02 0  0.78 0.02 0  0.79 0.02 0  0.8 0.02 0  0.8100000000000001 0.02 0  0.82 0.02 0  0.83 0.02 0  0.84 0.02 0  0.85 0.02 0  0.86 0.02 0  0.87 0.02 0  0.88 0.02 0  0.89 0.02 0  0.9 0.02 0  0.91 0.02 0  0.92 0.02 0  0.93 0.02 0  0.9399999999999999 0.02 0  0.95 0.02 0  0.96 0.02 0  0.97 0.02 0  0.98 0.02 0  0.99 0.02 0  1 0.02 0  0 0.03 0  0.01 0.03 0  0.02 0.03 0  0.03 0.03 0  0.04 0.03 0  0.05 0.03 0  0.06 0.03 0  0.07000000000000001 0.03 0  0.08 0.03 0  0.09 0.03 0  0.1 0.03 0  0.11 0.03 0  0.12 0.03 0  0.13 0.03 0  0.14 0.03 0  0.15 0.03 0  0.16 0.03 0  0.17 0.03 0  0.18 0.03 0  0.19 0.03 0  0.2 0.03 0  0.21 0.03 0  0.22 0.03 0  0.23 0.03 0  0.24 0.03 0  0.25 0.03 0  0.26 0.03 0  0.27 0.03 0  0.28 0.03 0  0.29 0.03 0  0.3 0.03 0  0.31 0.03 0  0.32 0.03 0  0.33 0.03 0  0.34 0.03 0  0.35 0.03 0  0.36 0.03 0  0.37 0.03 0  0.38 0.03 0  0.39 0.03 0  0.4 0.03 0  0.41 0.03 0  0.42 0.03 0  0.43 0.03 0  0.44 0.03 0  0.45 0.03 0  0.46 0.03 0  0.47 0.03 0  0.48 0.03 0  0.49 0.03 0  0.5 0.03 0  0.51 0.03 0  0.52 0.03 0  0.53 0.03 0  0.54 0.03 0  0.55 0.03 0  0.5600000000000001 0.03 0  0.57 0.03 0  0.58 0.03 0  0.59 0.03 0  0.6 0.03 0  0.61 0.03 0  0.62 0.03 0  0.63 0.03 0  0.64 0.03 0  0.65 0.03 0  0.66 0.03 0  0.67 0.03 0  0.68 0.03 0  0.6899999999999999 0.03 0  0.7 0.03 0  0.71 0.03 0  0.72 0.03 0  0.73 0.03 0  0.74 0.03 0  0.75 0.03 0  0.76 0.03 0  0.77 0.03 0  0.78 0.03 0  0.79 0.03 0  0.8 0.03 0  0.8100000000000001 0.03 0  0.82 0.03 0  0.83 0.03 0  0.84 0.03 0  0.85 0.03 0  0.86 0.03 0  0.87 0.03 0  0.88 0.03 0  0.89 0.03 0  0.9 0.03 0  0.91 0.03 0  0.92 0.03 0  0.93 0.03 0  0.9399999999999999 0.03 0  0.95 0.03 0  0.96 0.03 0  0.97 0.03 0  0.98 0.03 0  0.99 0.03 0  1 0.03 0  0 0.04 0  0.01 0.04 0  0.02 0.04 0  0.03 0.04 0  0.04 0.04 0  0.05 0.04 0  0.06 0.04 0  0.07000000000000001 0.04 0  0.08 0.04 0  0.09 0.04 0  0.1 0.04 0  0.11 0.04 0  0.12 0.04 0  0.13 0.04 0  0.14 0.04 0  0.15 0.04 0  0.16 0.04 0  0.17 0.04 0  0.18 0.04 0  0.19 0.04 0  0.2 0.04 0  0.21 0.04 0  0.22 0.04 0  0.23 0.04 0  0.24 0.04 0  0.25 0.04 0  0.26 0.04 0  0.27 0.04 0  0.28 0.04 0  0.29 0.04 0  0.3 0.04 0  0.31 0.04 0  0.32 0.04 0  0.33 0.04 0  0.34 0.04 0  0.35 0.04 0  0.36 0.04 0  0.37 0.04 0  0.38 0.04 0  0.39 0.04 0  0.4 0.04 0  0.41 0.04 0  0.42 0.04 0  0.43 0.04 0  0.44 0.04 0  0.45 0.04 0  0.46 0.04 0  0.47 0.04 0  0.48 0.04 0  0.49 0.04 0  0.5 0.04 0  0.51 0.04 0  0.52 0.04 0  0.53 0.04 0  0.54 0.04 0  0.55 0.04 0  0.5600000000000001 0.04 0  0.57 0.04 0  0.58 0.04 0  0.59 0.04 0  0.6 0.04 0  0.61 0.04 0  0.62 0.04 0  0.63 0.04 0  0.64 0.04 0  0.65 0.04 0  0.66 0.04 0  0.67 0.04 0  0.68 0.04 0  0.6899999999999999 0.04 0  0.7 0.04 0  0.71 0.04 0  0.72 0.04 0  0.73 0.04 0  0.74 0.04 0  0.75 0.04 0  0.76 0.04 0  0.77 0.04 0  0.78 0.04 0  0.79 0.04 0  0.8 0.04 0  0.8100000000000001 0.04 0  0.82 0.04 0  0.83 0.04 0  0.84 0.04 0  0.85 0.04 0  0.86 0.04 0  0.87 0.04 0  0.88 0.04 0  0.89 0.04 0  0.9 0.04 0  0.91 0.04 0  0.92 0.04 0  0.93 0.04 0  0.9399999999999999 0.04 0  0.95 0.04 0  0.96 0.04 0  0.97 0.04 0  0.98 0.04 0  0.99 0.04 0  1 0.04 0  0 0.05 0  0.01 0.05 0  0.02 0.05 0  0.03 0.05 0  0.04 0.05 0  0.05 0.05 0  0.06 0.05 0  0.07000000000000001 0.05 0  0.08 0.05 0  0.09 0.05 0  0.1 0.05 0  0.11 0.05 0  0.12 0.05 0  0.13 0.05 0  0.14 0.05 0  0.15 0.05 0  0.16 0.05 0  0.17 0.05 0  0.18 0.05 0  0.19 0.05 0  0.2 0.05 0  0.21 0.05 0  0.22 0.05 0  0.23 0.05 0  0.24 0.05 0  0.25 0.05 0  0.26 0.05 0  0.27 0.05 0  0.28 0.05 0  0.29 0.05 0  0.3 0.05 0  0.31 0.05 0  0.32 0.05 0  0.33 0.05 0  0.34 0.05 0  0.35 0.05 0  0.36 0.05 0  0.37 0.05 0  0.38 0.05 0  0.39 0.05 0  0.4 0.05 0  0.41 0.05 0  0.42 0.05 0  0.43 0.05 0  0.44 0.05 0  0.45 0.05 0  0.46 0.05 0  0.47 0.05 0  0.48 0.05 0  0.49 0.05 0  0.5 0.05 0  0.51 0.05 0  0.52 0.05 0  0.53 0.05 0  0.54 0.05 0  0.55 0.05 0  0.5600000000000001 0.05 0  0.57 0.05 0  0.58 0.05 0  0.59 0.05 0  0.6 0.05 0  0.61 0.05 0  0.62 0.05 0  0.63 0.05 0  0.64 0.05 0  0.65 0.05 0  0.66 0.05 0  0.67 0.05 0  0.68 0.05 0  0.6899999999999999 0.05 0  0.7 0.05 0  0.71 0.05 0  0.72 0.05 0  0.73 0.05 0  0.74 0.05 0  0.75 0.05 0  0.76 0.05 0  0.77 0.05 0  0.78 0.05 0  0.79 0.05 0  0.8 0.05 0  0.8100000000000001 0.05 0  0.82 0.05 0  0.83 0.05 0  0.84 0.05 0  0.85 0.05 0  0.86 0.05 0  0.87 0.05 0  0.88 0.05 0  0.89 0.05 0  0.9 0.05 0  0.91 0.05 0  0.92 0.05 0  0.93 0.05 0  0.9399999999999999 0.05 0  0.95 0.05 0  0.96 0.05 0  0.97 0.05 0  0.98 0.05 0  0.99 0.05 0  1 0.05 0  0 0.06 0  0.01 0.06 0  0.02 0.06 0  0.03 0.06 0  0.04 0.06 0  0.05 0.06 0  0.06 0.06 0  0.07000000000000001 0.06 0  0.08 0.06 0  0.09 0.06 0  0.1 0.06 0  0.11 0.06 0  0.12 0.06 0  0.13 0.06 0  0.14 0.06 0  0.15 0.06 0  0.16 0.06 0  0.17 0.06 0  0.18 0.06 0  0.19 0.06 0  0.2 0.06 0  0.21 0.06 0  0.22 0.06 0  0.23 0.06 0  0.24 0.06 0  0.25 0.06 0  0.26 0.06 0  0.27 0.06 0  0.28 0.06 0  0.29 0.06 0  0.3 0.06 0  0.31 0.06 0  0.32 0.06 0  0.33 0.06 0  0.34 0.06 0  0.35 0.06 0  0.36 0.06 0  0.37 0.06 0  0.38 0.06 0  0.39 0.06 0  0.4 0.06 0  0.41 0.06 0  0.42 0.06 0  0.43 0.06 0  0.44 0.06 0  0.45 0.06 0  0.46 0.06 0  0.47 0.06 0  0.48 0.06 0  0.49 0.06 0  0.5 0.06 0  0.51 0.06 0  0.52 0.06 0  0.53 0.06 0  0.54 0.06 0  0.55 0.06 0  0.5600000000000001 0.06 0  0.57 0.06 0  0.58 0.06 0  0.59 0.06 0  0.6 0.06 0  0.61 0.06 0  0.62 0.06 0  0.63 0.06 0  0.64 0.06 0  0.65 0.06 0  0.66 0.06 0  0.67 0.06 0  0.68 0.06 0  0.6899999999999999 0.06 0  0.7 0.06 0  0.71 0.06 0  0.72 0.06 0  0.73 0.06 0  0.74 0.06 0  0.75 0.06 0  0.76 0.06 0  0.77 0.06 0  0.78 0.06 0  0.79 0.06 0  0.8 0.06 0  0.8100000000000001 0.06 0  0.82 0.06 0  0.83 0.06 0  0.84 0.06 0  0.85 0.06 0  0.86 0.06 0  0.87 0.06 0  0.88 0.06 0  0.89 0.06 0  0.9 0.06 0  0.91 0.06 0  0.92 0.06 0  0.93 0.06 0  0.9399999999999999 0.06 0  0.95 0.06 0  0.96 0.06 0  0.97 0.06 0  0.98 0.06 0  0.99 0.06 0  1 0.06 0  0 0.07000000000000001 0  0.01 0.07000000000000001 0  0.02 0.07000000000000001 0  0.03 0.07000000000000001 0  0.04 0.07000000000000001 0  0.05 0.07000000000000001 0  0.06 0.07000000000000001 0  0.07000000000000001 0.07000000000000001 0  0.08 0.07000000000000001 0  0.09 0.07000000000000001 0  0.1 0.07000000000000001 0  0.11 0.07000000000000001 0  0.12 0.07000000000000001 0  0.13 0.07000000000000001 0  0.14 0.07000000000000001 0  0.15 0.07000000000000001 0  0.16 0.07000000000000001 0  0.17 0.07000
[...]
<PointData  Scalars="rho"> 
<DataArray  type="Float64"  Name="rho"  format="ascii">9.8647726693070159e-01  9.8040482803967344e-01  9.7601005497771809e-01  9.7148587089258664e-01  9.6910818277637334e-01  9.7066747920898433e-01  9.7773411408878397e-01  9.8484199866897482e-01  9.8934571016369843e-01  9.9090438176145113e-01  9.9333913437519494e-01  9.9512919056406868e-01  9.9616890652358736e-01  9.9969395231533675e-01  9.9844497648890473e-01  9.9854996813304209e-01  9.9816985948904180e-01  9.9772023730228687e-01  9.9729912149957611e-01  9.9720695890473010e-01  9.9767626853016322e-01  9.9809630467690791e-01  9.9823853851372291e-01  9.9888380962321177e-01  9.9971969409792250e-01  9.9970516843588419e-01  9.9982890217371267e-01  9.9999939416546690e-01  1.0000000000000000e+00  1.0000000000000000e+00  1.0000000000000000e+00  1.0000000000000000e+00  9.9983560403028493e-01  9.9978592943272060e-01  9.9934677259995064e-01  9.9056293663891326e-01  7.2542221404607232e-01  5.7228483637699512e-01  2.1888364007646569e-01  6.1466444691566844e-04  5.4762645050093880e-04  4.6236431338477255e-04  3.8249825608884923e-04  3.1715982508636844e-04  2.6220071103998690e-04  2.1658101667281022e-04  1.7906342838775209e-04  1.4837798181624486e-04  1.2333090039646279e-04  1.0286806766512522e-04  8.6098939897243993e-05  7.2293473873360128e-05  6.0866042481728499e-05  5.6385752945524434e-05  4.9819164996656724e-05  4.2563278796569427e-05  3.6303313902665587e-05  2.9740216492888581e-05  2.5353138327081071e-05  2.1608742426794583e-05  1.8413868430483464e-05  1.7464964295477097e-05  1.4922505798437378e-05  1.2746876641783221e-05  1.0886891408314622e-05  9.2979084501488969e-06  7.9411262556344659e-06  6.7829303135809003e-06  5.7943356255178240e-06  4.9504155778779193e-06  5.9024370742754543e-06  5.0468744539948905e-06  4.3138575962049356e-06  3.6860010119480979e-06  3.1483330299700279e-06  3.3289923458844230e-06  2.8403872562452295e-06  1.9480811545176465e-06  1.6608498067537226e-06  1.4152095329263267e-06  1.2052384812201560e-06  1.0258645906880168e-06  8.7273656282521601e-07  7.4212765445832265e-07  6.3083673505178475e-07  5.3612025285526105e-07  4.5562245035114253e-07  3.8732666616324960e-07  3.2950322282736174e-07  2.8067532250217245e-07  2.3958250004343023e-07  2.0515533177341855e-07  1.7648767367164505e-07  1.5282005312083104e-07  1.3352019944787624e-07  1.1807140646503378e-07  1.0605858985891717e-07  9.7162130411316461e-08  9.1152279389461396e-08  8.7901274774411296e-08  2.9016109727342412e-08  9.8125565584824426e-01  9.6749221659770146e-01  9.6212174986988341e-01  9.5556379364175714e-01  9.5229787409564537e-01  9.5278084463279655e-01  9.6565956529619423e-01  9.7190035024788179e-01  9.8291930310359976e-01  9.8535637000936382e-01  9.8945941389462100e-01  9.8981996009272666e-01  9.9443655209626525e-01  9.9974309825915886e-01  9.9612571604324651e-01  9.9846475556582925e-01  9.9786502633275231e-01  9.9711937168451181e-01  9.9639872152607123e-01  9.9622584793953928e-01  9.9599435520292090e-01  9.9758843216492754e-01  9.9781344100040692e-01  9.9887070619039586e-01  9.9950821095635345e-01  9.9951619225768806e-01  9.9998843119746406e-01  1.0000000000000000e+00  1.0000000000000000e+00  1.0000000000000000e+00  1.0000000000000000e+00  1.0000000000000000e+00  1.0000000000000000e+00  1.0000000000000000e+00  1.0000000000000000e+00  9.9632480842739446e-01  9.7248339839544728e-01  7.0576622053565319e-01  3.6209984150258323e-01  1.2111096156118726e-03  1.1197312290392690e-03  9.4671697532693901e-04  7.8934987049259311e-04  6.5496336218972954e-04  5.4184267274298605e-04  4.4786600807207545e-04  3.7382300210771360e-04  3.0726000761993957e-04  2.5558952972070054e-04  2.1335382701758988e-04  1.7871986383243495e-04  1.5018512465211315e-04  1.2871520242848698e-04  1.2137209284848190e-04  1.0368636441867710e-04  8.8641245157325004e-05  7.9344355336139261e-05  6.1999516894719695e-05  5.2872654118842368e-05  4.5077091799685538e-05  3.8421690569614571e-05  3.6450090427127034e-05  3.1149718469464826e-05  2.6612631165576765e-05  2.2732759499410539e-05  1.9417461528919365e-05  1.6586082426893697e-05  1.4168725389874309e-05  1.2105032909095943e-05  1.0343116502093599e-05  1.2334728415833135e-05  1.0547744464209874e-05  9.0165331224368721e-06  7.7048424101643843e-06  6.5814442515071753e-06  6.9596471423042292e-06  5.9384778359588804e-06  4.0731224975600266e-06  3.4727278604451214e-06  2.9592144528812627e-06  2.5202257318078982e-06  2.1451650801197080e-06  1.8249539305088888e-06  1.5518000809707487e-06  1.3190236266225429e-06  1.1208849932298894e-06  9.5246617796843279e-07  8.0954576383648075e-07  6.8851035984843145e-07  5.8626600223961654e-07  5.0017715341458336e-07  4.2800053371556697e-07  3.6783892062010815e-07  3.1809464944726949e-07  2.7744013910883188e-07  2.4478278028910386e-07  2.1924309278816235e-07  2.0013209105617313e-07  1.8693800647365593e-07  1.7930435721797853e-07  8.8014391553652709e-08  9.8321812032648026e-01  9.6919339475830790e-01  9.5908422723605757e-01  9.5063176063271204e-01  9.4177965771258898e-01  9.4000825416369582e-01  9.4882087225722112e-01  9.6243020372766031e-01  9.7519077448371771e-01  9.8320910309956022e-01  9.8861904224203634e-01  9.9118740088517687e-01  9.9502966513014679e-01  9.9827466178239199e-01  9.9656349432213998e-01  9.9672300960691529e-01  9.9798660106266546e-01  9.9680864468228980e-01  9.9577556649309273e-01  9.9549180988470276e-01  9.9516257850639067e-01  9.9696614209110557e-01  9.9753252369608414e-01  9.9879326708980487e-01  9.9941737255122287e-01  9.9945199140052043e-01  9.9874325584445600e-01  1.0000000000000000e+00  1.0000000000000000e+00  1.0000000000000000e+00  1.0000000000000000e+00  1.0000000000000000e+00  1.0000000000000000e+00  1.0000000000000000e+00  1.0000000000000000e+00  9.9952834819099567e-01  9.8725581093973835e-01  8.0982756069150252e-01  6.5763168645599557e-01  1.9621142169493927e-01  1.1583705396905097e-03  9.9512904046203713e-04  8.2479565579173159e-04  6.8087456423985865e-04  5.6534608155746433e-04  4.6680513548344189e-04  3.8638571535950985e-04  3.2098442694207817e-04  2.6775657981923436e-04  2.2136208413165950e-04  1.8586188374782029e-04  1.5655261926300946e-04  1.3455592009911581e-04  1.2763619027033064e-04  1.0920218818036784e-04  9.3452105447425760e-05  7.6581725044808945e-05  6.5340654820910326e-05  5.5724932028392687e-05  4.7504958862827989e-05  4.5015070486460163e-05  3.8473343713908940e-05  3.2870065384803632e-05  2.8076656812850907e-05  2.3980081511622865e-05  2.0481462661246085e-05  1.7494791077063653e-05  1.4945611585240860e-05  1.2769785970335147e-05  1.5230774330105030e-05  1.3026691519014768e-05  1.1137988146283520e-05  9.5199745877312670e-06  8.1341238816348447e-06  8.6058721488770334e-06  7.3454088649757226e-06  5.5968123265871967e-06  4.2975902193050584e-06  3.6633703444974713e-06  3.1209532592789832e-06  2.6572893141370935e-06  2.2611964023845461e-06  1.9230793698931618e-06  1.6347123087561041e-06  1.3890288925268485e-06  1.1799659195945467e-06  1.0023154677655082e-06  8.5161387108889902e-07  7.2403375554459318e-07  6.1630294726493341e-07  5.2562855561471841e-07  4.4963709673735531e-07  3.8631908235264569e-07  3.3398544733135330e-07  2.9122900039460191e-07  2.5689383970445557e-07  2.3004665215429058e-07  2.0995403623325252e-07  1.9606135704588782e-07  1.8797504411932186e-07  9.1724348662045094e-08  9.9477188682749196e-01  9.7815824366711290e-01  9.5204038324532647e-01  9.3827634380764535e-01  9.1488066991276706e-01  9.0888673747500637e-01  8.9640744193300326e-01  9.2102481228449073e-01  9.3542194371138310e-01  9.6236180486591449e-01  9.8505731340993086e-01  9.8816155076362566e-01  9.9230630203070813e-01  9.9863855424856129e-01  9.9699771670002257e-01  9.9643566766452230e-01  9.9784636265940130e-01  9.9605031028992486e-01  9.9462400858593125e-01  9.9407379501678739e-01  9.9442379859658769e-01  9.9488407787575417e-01  9.9605290409112801e-01  9.9865262010892897e-01  9.9928406922190771e-01  9.9968365282928051e-01  9.9853482013265915e-01  1.0000000000000000e+00  1.0000000000000000e+00  1.0000000000000000e+00  1.0000000000000000e+00  1.0000000000000000e+00  1.0000000000000000e+00  9.0501241433357538e-01  8.6391541081340950e-01  1.0000000000000000e+00  9.2404795704560072e-01  9.7993319610484997e-01  7.4929173216948519e-01  5.4210159563636928e-01  2.8113161234781764e-01  1.0498045291013746e-03  8.8803027161622316e-04  7.2875218091127602e-04  5.9792754745532917e-04  4.9237419640284273e-04  4.0744058175235448e-04  3.3908000580768448e-04  2.8372280907546936e-04  2.3855293536881339e-04  2.0139533281439344e-04  1.7056087979822548e-04  1.6161503888401690e-04  1.3856612690449940e-04  1.1881382918889002e-04  9.4171931332385293e-05  8.3342949840638681e-05  7.1129166028732730e-05  6.0658738633581776e-05  5.7476213349141939e-05  4.9124570944225552e-05  4.1965233989142260e-05  3.5838926207298809e-05  3.0603534451104661e-05  2.6133515204933259e-05  2.2319030922715886e-05  1.9064716299483384e-05  1.6288275895526217e-05  1.9445555027875542e-05  1.6632527811857666e-05  1.4222520105069177e-05  1.2158247233980394e-05  1.0390334286124815e-05  8.8763592662869821e-06  9.3898425029928612e-06  8.0122377029331752e-06  6.1034724813972319e-06  4.6857096458090393e-06  3.9929767798141328e-06  3.4005510825548548e-06  2.8942000635233441e-06  2.4617164749896880e-06  2.0926300439130273e-06  1.7779472144026679e-06  1.5099471785536254e-06  1.2819928718471797e-06  1.0883857651160367e-06  9.2423329983230491e-07  7.8534385718432928e-07  6.6813023219387206e-07  5.6953162119083520e-07  4.8694577734931499e-07  4.1817101548038576e-07  3.6135699600228869e-07  3.1496238068072709e-07  2.7772054495406026e-07  2.4860802692128580e-07  2.2682064513332743e-07  2.1174977322982349e-07  2.0296520964448684e-07  9.8565660257583746e-08  9.7601511444383415e-01  9.5718472592873471e-01  9.1050740090509319e-01  8.7953367538172389e-01  7.6645412836183857e-01  4.9342913315596570e-01  3.5137855086489334e-01  2.2606832476072916e-01  1.4162045147307430e-02  1.5693498561651910e-04  1.5816677262778416e-04  2.6874243334623196e-02  5.6962860168210699e-02  7.4593668259185286e-02  1.5805413061587961e-01  2.4451066559597284e-01  5.0790937764213628e-01  5.7743870564325261e-01  6.8313039545609766e-01  7.1629863447853792e-01  7.6653367927581839e-01  8.9443313488220866e-01  7.5750646565540092e-01  9.1412479238827515e-01  8.4561527634908240e-01  9.9821079123628464e-01  9.8919852013950005e-01  9.9092722842032765e-01  8.5973089710086270e-01  7.7834938349630556e-01  7.4574744778354130e-01  7.2808197119477902e-01  6.6553110493677503e-01  6.4690085888066140e-01  6.5238246707767100e-01  6.7202751010005368e-01  8.4895279373628707e-01  1.0000000000000000e+00  9.9675879804650391e-01  9.7995018587075988e-01  7.6449862150290460e-01  4.5809495803482808e-01  2.9213019831142373e-01  7.7102631871494838e-04  6.4179643683866412e-04  5.2731527776115792e-04  4.4233841870136218e-04  3.6479410788113332e-04  3.0682710831277143e-04  2.5942415015016060e-04  2.2024599815031898e-04  2.0895784246298526e-04  1.7983573384701336e-04  1.5474426300426242e-04  1.2303728075713216e-04  1.0509420838824551e-04  9.3255850604168766e-05  7.9590158075532660e-05  7.5486475561180674e-05  6.4518377208728914e-05  5.5102766081994799e-05  4.7042414099346218e-05  4.0155675988888703e-05  3.4278869481357511e-05  2.9267299314644284e-05  2.4994750272264151e-05  2.1352121554548313e-05  2.5535586150297853e-05  2.1839975169843166e-05  1.8675409515148940e-05  1.5965915941192569e-05  1.3646097437862420e-05  1.1659850474071921e-05  1.2341855547930321e-05  1.0532845327682133e-05  8.0241987679711813e-06  6.1612933122030212e-06  5.2517447038759279e-06  4.4735575213180577e-06  3.8081022392014077e-06  3.2394143830153826e-06  2.7538041140708578e-06  2.3395123763332416e-06  1.9864366454293949e-06  1.6858875492094385e-06  1.4303948811381257e-06  1.2135348059289809e-06  1.0297925302630498e-06  8.7443793937521434e-07  7.4342361957572477e-07  6.3329582506779782e-07  5.4111828805521930e-07  4.6440790257805756e-07  4.0107855345022520e-07  3.4939330171172382e-07  3.0792498300976580e-07  2.7552126524938286e-07  2.5127672409350708e-07  2.3450905980585682e-07  2.2474234722604070e-07  1.0871744245148124e-07  8.8313510297399381e-02  1.3709130756638170e-02  3.6277635076944830e-04  1.2681045939525257e-04  1.1162805305300125e-04  9.8430494092113257e-05  9.0037774055313938e-05  8.8782778042628091e-05  9.5911219154570302e-05  1.1106447334454941e-04  1.8870802408904239e-04  6.5783556614213102e-03  3.2340768595249411e-02  3.4984075654245800e-02  4.0147123864607281e-02  2.2807049444381323e-02  1.9276175994581597e-02  2.1751233923079951e-02  1.0730935397314340e-02  1.3648186285350572e-03  5.1546157599284704e-03  1.0015045468005310e-02  1.7409727542567800e-02  2.2878009383765600e-02  3.4387317147012014e-02  3.4263200967635299e-02  3.4137047324616386e-02  3.0839769913639074e-02  1.8592414602702199e-02  2.8907031556961293e-02  3.6387886659088160e-02  3.9259107512030732e-02  5.5096864502683397e-02  9.7724334727482751e-02  3.8968871064267124e-01  6.0577050605394667e-01  6.0685396186956575e-01  6.4650615587512317e-01  9.7912683727427030e-01  9.9924496928714057e-01  9.9846741430908725e-01  9.9473108643073849e-01  6.9452084767326028e-01  5.1813938032368545e-01  1.0057535946621505e-03  5.6655965605097126e-04  4.7372258261224663e-04  3.9919253215647094e-04  3.3804322427968884e-04  2.8786836411256653e-04  2.7379136503507683e-04  2.3692419911611732e-04  2.0501027197964482e-04  1.6376376699295603e-04  1.4034194529733755e-04  1.1999108684763605e-04  1.0672351627973057e-04  1.0140568974234867e-04  8.6679647498847320e-05  7.4004899282250396e-05  6.3145967148146948e-05  5.3871274099400783e-05  4.5963575068755006e-05  3.9227112496968469e-05  3.3489948448009282e-05  2.8603338705386150e-05  3.4290891711346505e-05  2.9322583287101163e-05  2.5071439193164659e-05  2.1433925603344309e-05  1.8321095362465855e-05  1.5656781174771971e-05  1.6584989911472972e-05  1.4155925024611834e-05  1.0784515170288379e-05  9.1982231235922433e-06  7.0613553303883335e-06  6.0165813111780927e-06  5.1226953086668076e-06  4.3583599173639013e-06  3.7052900152116560e-06  3.1477840729427210e-06  2.6723471070915779e-06  2.2673648043440367e-06  1.9228395188999666e-06  1.6301620425901421e-06  1.3819267408549238e-06  1.1717676552464091e-06  9.9422411277865892e-07  8.4462208157456159e-07  7.1897338323514802e-07  6.1388899220792356e-07  5.2650385235295244e-07  4.5441255707921279e-07  3.9561448683774687e-07  3.4846532377070726e-07  3.1164059705794293e-07  2.8409907164416223e-07  2.6506066088578373e-07  2.5398378715464331e-07  1.2248671370200608e-07  1.0639196608976124e-04  1.8509761372673090e-04  1.2948263009287012e-04  1.0158222473170422e-04  9.1520367889121840e-05  8.2884629303744817e-05  7.7728924513523136e-05  7.7522991828944462e-05  8.2892912743552321e-05  1.1065754942593766e-04  1.5348000644679121e-04  4.2062149339661955e-04  1.5557299046348918e-02  2.1619687324588105e-02  2.4864222623587388e-02  2.2192181103899162e-02  1.6850115729074702e-02  9.4508761668160388e-03  1.9946207832929066e-03  8.8199179414483067e-04  7.4210645395185839e-04  1.0172127219817222e-03  7.8495576141170195e-03  1.2852803640332443e-02  1.6111295816045115e-02  1.6735236534194245e-02  1.3117162425941530e-02  1.0846694865299657e-02  2.5941951317932752e-03  4.6704516160468298e-03  7.3439409222705821e-03  9.9270855632492272e-03  8.8656224317578778e-03  9.8065538475829214e-03  8.2132969871106781e-03  6.4060764100799189e-03  2.6229504189248970e-01  5.0760065081400996e-01  6.4117841246923923e-01  9.6546920953878645e-01  1.0000000000000000e+00  9.9912472379720652e-01  9.9693595452655626e-01  9.7896835681378724e-01  9.0863246901308237e-01  7.4617954696701361e-01  6.0343027485006764e-02  4.3419956790950715e-04  3.7471372323961169e-04  3.2358664141558628e-04  3.1416749881217452e-04  2.7428274610956420e-04  2.2078241756778039e-04  1.9013706592925245e-04  1.6311599677756270e-04  1.3949172404074982e-04  1.3861352701434159e-04  1.1852135052791812e-04  1.0114653079435047e-04  8.6235423570631440e-05  7.3506376552955318e-05  6.2669697251937522e-05  5.3453272766122465e-05  4.5615598885012900e-05  5.4780413631919759e-05  4.6830208584003772e-05  4.0033884276675810e-05  3.4224176343707333e-05  2.9257124714985455e-05  2.5009347688912909e-05  2.1375400441966249e-05  2.2663168732286325e-05  1.9346454077379112e-05  1.4738484550861895e-05  1.2574017743425300e-05  1.0721083060400979e-05  8.2290751948333586e-06  7.0084804701166665e-06  5.9641379718854128e-06  5.0712341775813674e-06  4.3084744928154731e-06  3.6575566592822546e-06  3.1027208827870131e-06  2.6303860574466040e-06  2.2288416721088561e-06  1.8879935117043861e-06  1.5991461684887436e-06  1.3548224114550426e-06  1.1486040414080692e-06  9.7499800406708919e-07  8.2931883510281622e-07  7.0758629941062121e-07  6.0643829076019504e-07  5.2305486331518443e-07  4.5509186980087366e-07  4.0062669666504394e-07  3.5810910776331233e-07  3.2632593942826189e-07  3.0436653417897482e-07  2.9160541836525289e-07  1.4030136221694684e-07  4.8167703984886954e-05  8.9828761414356052e-05  8.4255550375677811e-05  7.9008969416552539e-05  7.3266871892065964e-05  6.8466929041894269e-05  6.5888237709487107e-05  6.6449100006457271e-05  7.0557461763228615e-05  9.1742542666208048e-05  1.3336665532727961e-04  2.2090829448550837e-04  8.3407829226515174e-03  1.6749564735835658e-02  1.4210337997337034e-02  1.4296188322756052e-02  1.0597380490629631e-02  6.0030358282809814e-03  1.2042398361049365e-03  7.4257192091476939e-04  6.6651080318712102e-04  1.6173997411161143e-03  3.9750910786692170e-03  7.0303256815320032e-03  9.6035399400590752e-03  1.0077055646305882e-02  8.8209672574651021e-03  7.5691966727255830e-03  2.2139144670677885e-03  2.9511397976095320e-03  3.6147260824903275e-03  6.1858796589518428e-03  5.7280333043117984e-03  3.3516788587931042e-03  2.8006584852597817e-03  2.7568865837855755e-03  3.3402928393223511e-03  4.1543942254000489e-03  4.2307678885548627e-01  6.1852775379018299e-01  9.4692832210822142e-01  9.9998638193038325e-01  9.9924798220605993e-01  9.9656520252698799e-01  9.6588037156225148e-01  9.2943425668112856e-01  8.6808993797860989e-01  7.9748412439167338e-01  5.8352765744371937e-01  5.5988655561932987e-01  5.5412843614994611e-01  4.6964656168323499e-01  4.2320154060979172e-02  2.2307149859143212e-04  2.1113275489587812e-04  1.8130597802146659e-04  1.6424215037834903e-04  1.4011356090481953e-04  1.1931616375456090e-04  1.0156296768493934e-04  8.6490963177210021e-05  7.3711284466729889e-05  8.8667165828435236e-05  7.5756248503864226e-05  6.4732186519287282e-05  5.5319635435936715e-05  4.7282041720161687e-05  4.0416574596020274e-05  3.4549805290467133e-05  2.9533814785584102e-05  3.1346303546995890e-05  2.6763012362922014e-05  2.2841297555731055e-05  1.7399337589628053e-05  1.4840432646156030e-05  1.1394403331507984e-05  9.7079703543256849e-06  8.2640602869008131e-06  7.0286139819552504e-06  5.9724346677002848e-06  5.0704377095671335e-06  4.3010168875419689e-06  3.6455356246261726e-06  3.0879012356559809e-06  2.6142160815714932e-06  2.2124831562309311e-06  1.8723583137822857e-06  1.5849390609648746e-06  1.3425837614618662e-06  1.1387523965833913e-06  9.6786911547926878e-07  8.2520158544919172e-07  7.0675592610275669e-07  6.0918547495383857e-07  5.2971288934698095e-07  4.6606101562122710e-07  4.1639866043522041e-07  3.7929103431940140e-07  3.5366758225127506e-07  3.3879039119212869e-07  1.6272026910773660e-07  3.2415085375575696e-05  6.6782909027293148e-05  7.5970609407369476e-05  6.1733660462757266e-05  5.8539747206978911e-05  5.6005882307061650e-05  5.4920285839035976e-05  5.5859288547474327e-05  6.9645161788581692e-05  7.5423823233323998e-05  1.1287510170939689e-04  1.1616977944846464e-04  5.2723720176289903e-03  6.0732569843697584e-03  7.3153004489525430e-03  7.8109338164564068e-03  5.4742460327261754e-03  2.1228173622323300e-03  1.0842508531361270e-03  8.5726265344163871e-04  1.2401002950384692e-03  1.5061098591340547e-0