<?xml version="1.0"?>
<VTKFile type="UnstructuredGrid"  version="0.1"  >
<UnstructuredGrid>
<Piece  NumberOfPoints="5151" NumberOfCells="10000">
<Points>
<DataArray  type="Float64"  NumberOfComponents="3"  format="ascii">0 0 0  0.01 0 0  0.02 0 0  0.03 0 0  0.04 0 0  0.05 0 0  0.06 0 0  0.07000000000000001 0 0  0.08 0 0  0.09 0 0  0.1 0 0  0.11 0 0  0.12 0 0  0.13 0 0  0.14 0 0  0.15 0 0  0.16 0 0  0.17 0 0  0.18 0 0  0.19 0 0  0.2 0 0  0.21 0 0  0.22 0 0  0.23 0 0  0.24 0 0  0.25 0 0  0.26 0 0  0.27 0 0  0.28 0 0  0.29 0 0  0.3 0 0  0.31 0 0  0.32 0 0  0.33 0 0  0.34 0 0  0.35 0 0  0.36 0 0  0.37 0 0  0.38 0 0  0.39 0 0  0.4 0 0  0.41 0 0  0.42 0 0  0.43 0 0  0.44 0 0  0.45 0 0  0.46 0 0  0.47 0 0  0.48 0 0  0.49 0 0  0.5 0 0  0.51 0 0  0.52 0 0  0.53 0 0  0.54 0 0  0.55 0 0  0.5600000000000001 0 0  0.57 0 0  0.58 0 0  0.59 0 0  0.6 0 0  0.61 0 0  0.62 0 0  0.63 0 0  0.64 0 0  0.65 0 0  0.66 0 0  0.67 0 0  0.68 0 0  0.6899999999999999 0 0  0.7 0 0  0.71 0 0  0.72 0 0  0.73 0 0  0.74 0 0  0.75 0 0  0.76 0 0  0.77 0 0  0.78 0 0  0.79 0 0  0.8 0 0  0.8100000000000001 0 0  0.82 0 0  0.83 0 0  0.84 0 0  0.85 0 0  0.86 0 0  0.87 0 0  0.88 0 0  0.89 0 0  0.9 0 0  0.91 0 0  0.92 0 0  0.93 0 0  0.9399999999999999 0 0  0.95 0 0  0.96 0 0  0.97 0 0  0.98 0 0  0.99 0 0  1 0 0  0 0.01 0  0.01 0.01 0  0.02 0.01 0  0.03 0.01 0  0.04 0.01 0  0.05 0.01 0  0.06 0.01 0  0.07000000000000001 0.01 0  0.08 0.01 0  0.09 0.01 0  0.1 0.01 0  0.11 0.01 0  0.12 0.01 0  0.13 0.01 0  0.14 0.01 0  0.15 0.01 0  0.16 0.01 0  0.17 0.01 0  0.18 0.01 0  0.19 0.01 0  0.2 0.01 0  0.21 0.01 0  0.22 0.01 0  0.23 0.01 0  0.24 0.01 0  0.25 0.01 0  0.26 0.01 0  0.27 0.01 0  0.28 0.01 0  0.29 0.01 0  0.3 0.01 0  0.31 0.01 0  0.32 0.01 0  0.33 0.01 0  0.34 0.01 0  0.35 0.01 0  0.36 0.01 0  0.37 0.01 0  0.38 0.01 0  0.39 0.01 0  0.4 0.01 0  0.41 0.01 0  0.42 0.01 0  0.43 0.01 0  0.44 0.01 0  0.45 0.01 0  0.46 0.01 0  0.47 0.01 0  0.48 0.01 0  0.49 0.01 0  0.5 0.01 0  0.51 0.01 0  0.52 0.01 0  0.53 0.01 0  0.54 0.01 0  0.55 0.01 0  0.5600000000000001 0.01 0  0.57 0.01 0  0.58 0.01 0  0.59 0.01 0  0.6 0.01 0  0.61 0.01 0  0.62 0.01 0  0.63 0.01 0  0.64 0.01 0  0.65 0.01 0  0.66 0.01 0  0.67 0.01 0  0.68 0.01 0  0.6899999999999999 0.01 0  0.7 0.01 0  0.71 0.01 0  0.72 0.01 0  0.73 0.01 0  0.74 0.01 0  0.75 0.01 0  0.76 0.01 0  0.77 0.01 0  0.78 0.01 0  0.79 0.01 0  0.8 0.01 0  0.8100000000000001 0.01 0  0.82 0.01 0  0.83 0.01 0  0.84 0.01 0  0.85 0.01 0  0.86 0.01 0  0.87 0.01 0  0.88 0.01 0  0.89 0.01 0  0.9 0.01 0  0.91 0.01 0  0.92 0.01 0  0.93 0.01 0  0.9399999999999999 0.01 0  0.95 0.01 0  0.96 0.01 0  0.97 0.01 0  0.98 0.01 0  0.99 0.01 0  1 0.01 0  0 0.02 0  0.01 0.02 0  0.02 0.02 0  0.03 0.02 0  0.04 0.02 0  0.05 0.02 0  0.06 0.02 0  0.07000000000000001 0.02 0  0.08 0.02 0  0.09 0.02 0  0.1 0.02 0  0.11 0.02 0  0.12 0.02 0  0.13 0.02 0  0.14 0.02 0  0.15 0.02 0  0.16 0.02 0  0.17 0.02 0  0.18 0.02 0  0.19 0.02 0  0.2 0.02 0  0.21 0.02 0  0.22 0.02 0  0.23 0.02 0  0.24 0.02 0  0.25 0.02 0  0.26 0.02 0  0.27 0.02 0  0.28 0.02 0  0.29 0.02 0  0.3 0.02 0  0.31 0.02 0  0.32 0.02 0  0.33 0.02 0  0.34 0.02 0  0.35 0.02 0  0.36 0.02 0  0.37 0.02 0  0.38 0.02 0  0.39 0.02 0  0.4 0.02 0  0.41 0.02 0  0.42 0.02 0  0.43 0.02 0  0.44 0.02 0  0.45 0.02 0  0.46 0.02 0  0.47 0.02 0  0.48 0.02 0  0.49 0.02 0  0.5 0.02 0  0.51 0.02 0  0.52 0.02 0  0.53 0.02 0  0.54 0.02 0  0.55 0.02 0  0.5600000000000001 0.02 0  0.57 0.02 0  0.58 0.02 0  0.59 0.02 0  0.6 0.02 0  0.61 0.02 0  0.62 0.02 0  0.63 0.02 0  0.64 0.02 0  0.65 0.02 0  0.66 0.02 0  0.67 0.02 0  0.68 0.02 0  0.6899999999999999 0.02 0  0.7 0.02 0  0.71 0.02 0  0.72 0.02 0  0.73 0.02 0  0.74 0.02 0  0.75 0.02 0  0.76 0.02 0  0.77 0.02 0  0.78 0.02 0  0.79 0.02 0  0.8 0.02 0  0.8100000000000001 0.02 0  0.82 0.02 0  0.83 0.02 0  0.84 0.02 0  0.85 0.02 0  0.86 0.02 0  0.87 0.02 0  0.88 0.02 0  0.89 0.02 0  0.9 0.02 0  0.91 0.02 0  0.92 0.02 0  0.93 0.02 0  0.9399999999999999 0.02 0  0.95 0.02 0  0.96 0.02 0  0.97 0.02 0  0.98 0.02 0  0.99 0.02 0  1 0.02 0  0 0.03 0  0.01 0.03 0  0.02 0.03 0  0.03 0.03 0  0.04 0.03 0  0.05 0.03 0  0.06 0.03 0  0.07000000000000001 0.03 0  0.08 0.03 0  0.09 0.03 0  0.1 0.03 0  0.11 0.03 0  0.12 0.03 0  0.13 0.03 0  0.14 0.03 0  0.15 0.03 0  0.16 0.03 0  0.17 0.03 0  0.18 0.03 0  0.19 0.03 0  0.2 0.03 0  0.21 0.03 0  0.22 0.03 0  0.23 0.03 0  0.24 0.03 0  0.25 0.03 0  0.26 0.03 0  0.27 0.03 0  0.28 0.03 0  0.29 0.03 0  0.3 0.03 0  0.31 0.03 0  0.32 0.03 0  0.33 0.03 0  0.34 0.03 0  0.35 0.03 0  0.36 0.03 0  0.37 0.03 0  0.38 0.03 0  0.39 0.03 0  0.4 0.03 0  0.41 0.03 0  0.42 0.03 0  0.43 0.03 0  0.44 0.03 0  0.45 0.03 0  0.46 0.03 0  0.47 0.03 0  0.48 0.03 0  0.49 0.03 0  0.5 0.03 0  0.51 0.03 0  0.52 0.03 0  0.53 0.03 0  0.54 0.03 0  0.55 0.03 0  0.5600000000000001 0.03 0  0.57 0.03 0  0.58 0.03 0  0.59 0.03 0  0.6 0.03 0  0.61 0.03 0  0.62 0.03 0  0.63 0.03 0  0.64 0.03 0  0.65 0.03 0  0.66 0.03 0  0.67 0.03 0  0.68 0.03 0  0.6899999999999999 0.03 0  0.7 0.03 0  0.71 0.03 0  0.72 0.03 0  0.73 0.03 0  0.74 0.03 0  0.75 0.03 0  0.76 0.03 0  0.77 0.03 0  0.78 0.03 0  0.79 0.03 0  0.8 0.03 0  0.8100000000000001 0.03 0  0.82 0.03 0  0.83 0.03 0  0.84 0.03 0  0.85 0.03 0  0.86 0.03 0  0.87 0.03 0  0.88 0.03 0  0.89 0.03 0  0.9 0.03 0  0.91 0.03 0  0.92 0.03 0  0.93 0.03 0  0.9399999999999999 0.03 0  0.95 0.03 0  0.96 0.03 0  0.97 0.03 0  0.98 0.03 0  0.99 0.03 0  1 0.03 0  0 0.04 0  0.01 0.04 0  0.02 0.04 0  0.03 0.04 0  0.04 0.04 0  0.05 0.04 0  0.06 0.04 0  0.07000000000000001 0.04 0  0.08 0.04 0  0.09 0.04 0  0.1 0.04 0  0.11 0.04 0  0.12 0.04 0  0.13 0.04 0  0.14 0.04 0  0.15 0.04 0  0.16 0.04 0  0.17 0.04 0  0.18 0.04 0  0.19 0.04 0  0.2 0.04 0  0.21 0.04 0  0.22 0.04 0  0.23 0.04 0  0.24 0.04 0  0.25 0.04 0  0.26 0.04 0  0.27 0.04 0  0.28 0.04 0  0.29 0.04 0  0.3 0.04 0  0.31 0.04 0  0.32 0.04 0  0.33 0.04 0  0.34 0.04 0  0.35 0.04 0  0.36 0.04 0  0.37 0.04 0  0.38 0.04 0  0.39 0.04 0  0.4 0.04 0  0.41 0.04 0  0.42 0.04 0  0.43 0.04 0  0.44 0.04 0  0.45 0.04 0  0.46 0.04 0  0.47 0.04 0  0.48 0.04 0  0.49 0.04 0  0.5 0.04 0  0.51 0.04 0  0.52 0.04 0  0.53 0.04 0  0.54 0.04 0  0.55 0.04 0  0.5600000000000001 0.04 0  0.57 0.04 0  0.58 0.04 0  0.59 0.04 0  0.6 0.04 0  0.61 0.04 0  0.62 0.04 0  0.63 0.04 0  0.64 0.04 0  0.65 0.04 0  0.66 0.04 0  0.67 0.04 0  0.68 0.04 0  0.6899999999999999 0.04 0  0.7 0.04 0  0.71 0.04 0  0.72 0.04 0  0.73 0.04 0  0.74 0.04 0  0.75 0.04 0  0.76 0.04 0  0.77 0.04 0  0.78 0.04 0  0.79 0.04 0  0.8 0.04 0  0.8100000000000001 0.04 0  0.82 0.04 0  0.83 0.04 0  0.84 0.04 0  0.85 0.04 0  0.86 0.04 0  0.87 0.04 0  0.88 0.04 0  0.89 0.04 0  0.9 0.04 0  0.91 0.04 0  0.92 0.04 0  0.93 0.04 0  0.9399999999999999 0.04 0  0.95 0.04 0  0.96 0.04 0  0.97 0.04 0  0.98 0.04 0  0.99 0.04 0  1 0.04 0  0 0.05 0  0.01 0.05 0  0.02 0.05 0  0.03 0.05 0  0.04 0.05 0  0.05 0.05 0  0.06 0.05 0  0.07000000000000001 0.05 0  0.08 0.05 0  0.09 0.05 0  0.1 0.05 0  0.11 0.05 0  0.12 0.05 0  0.13 0.05 0  0.14 0.05 0  0.15 0.05 0  0.16 0.05 0  0.17 0.05 0  0.18 0.05 0  0.19 0.05 0  0.2 0.05 0  0.21 0.05 0  0.22 0.05 0  0.23 0.05 0  0.24 0.05 0  0.25 0.05 0  0.26 0.05 0  0.27 0.05 0  0.28 0.05 0  0.29 0.05 0  0.3 0.05 0  0.31 0.05 0  0.32 0.05 0  0.33 0.05 0  0.34 0.05 0  0.35 0.05 0  0.36 0.05 0  0.37 0.05 0  0.38 0.05 0  0.39 0.05 0  0.4 0.05 0  0.41 0.05 0  0.42 0.05 0  0.43 0.05 0  0.44 0.05 0  0.45 0.05 0  0.46 0.05 0  0.47 0.05 0  0.48 0.05 0  0.49 0.05 0  0.5 0.05 0  0.51 0.05 0  0.52 0.05 0  0.53 0.05 0  0.54 0.05 0  0.55 0.05 0  0.5600000000000001 0.05 0  0.57 0.05 0  0.58 0.05 0  0.59 0.05 0  0.6 0.05 0  0.61 0.05 0  0.62 0.05 0  0.63 0.05 0  0.64 0.05 0  0.65 0.05 0  0.66 0.05 0  0.67 0.05 0  0.68 0.05 0  0.6899999999999999 0.05 0  0.7 0.05 0  0.71 0.05 0  0.72 0.05 0  0.73 0.05 0  0.74 0.05 0  0.75 0.05 0  0.76 0.05 0  0.77 0.05 0  0.78 0.05 0  0.79 0.05 0  0.8 0.05 0  0.8100000000000001 0.05 0  0.82 0.05 0  0.83 0.05 0  0.84 0.05 0  0.85 0.05 0  0.86 0.05 0  0.87 0.05 0  0.88 0.05 0  0.89 0.05 0  0.9 0.05 0  0.91 0.05 0  0.92 0.05 0  0.93 0.05 0  0.9399999999999999 0.05 0  0.95 0.05 0  0.96 0.05 0  0.97 0.05 0  0.98 0.05 0  0.99 0.05 0  1 0.05 0  0 0.06 0  0.01 0.06 0  0.02 0.06 0  0.03 0.06 0  0.04 0.06 0  0.05 0.06 0  0.06 0.06 0  0.07000000000000001 0.06 0  0.08 0.06 0  0.09 0.06 0  0.1 0.06 0  0.11 0.06 0  0.12 0.06 0  0.13 0.06 0  0.14 0.06 0  0.15 0.06 0  0.16 0.06 0  0.17 0.06 0  0.18 0.06 0  0.19 0.06 0  0.2 0.06 0  0.21 0.06 0  0.22 0.06 0  0.23 0.06 0  0.24 0.06 0  0.25 0.06 0  0.26 0.06 0  0.27 0.06 0  0.28 0.06 0  0.29 0.06 0  0.3 0.06 0  0.31 0.06 0  0.32 0.06 0  0.33 0.06 0  0.34 0.06 0  0.35 0.06 0  0.36 0.06 0  0.37 0.06 0  0.38 0.06 0  0.39 0.06 0  0.4 0.06 0  0.41 0.06 0  0.42 0.06 0  0.43 0.06 0  0.44 0.06 0  0.45 0.06 0  0.46 0.06 0  0.47 0.06 0  0.48 0.06 0  0.49 0.06 0  0.5 0.06 0  0.51 0.06 0  0.52 0.06 0  0.53 0.06 0  0.54 0.06 0  0.55 0.06 0  0.5600000000000001 0.06 0  0.57 0.06 0  0.58 0.06 0  0.59 0.06 0  0.6 0.06 0  0.61 0.06 0  0.62 0.06 0  0.63 0.06 0  0.64 0.06 0  0.65 0.06 0  0.66 0.06 0  0.67 0.06 0  0.68 0.06 0  0.6899999999999999 0.06 0  0.7 0.06 0  0.71 0.06 0  0.72 0.06 0  0.73 0.06 0  0.74 0.06 0  0.75 0.06 0  0.76 0.06 0  0.77 0.06 0  0.78 0.06 0  0.79 0.06 0  0.8 0.06 0  0.8100000000000001 0.06 0  0.82 0.06 0  0.83 0.06 0  0.84 0.06 0  0.85 0.06 0  0.86 0.06 0  0.87 0.06 0  0.88 0.06 0  0.89 0.06 0  0.9 0.06 0  0.91 0.06 0  0.92 0.06 0  0.93 0.06 0  0.9399999999999999 0.06 0  0.95 0.06 0  0.96 0.06 0  0.97 0.06 0  0.98 0.06 0  0.99 0.06 0  1 0.06 0  0 0.07000000000000001 0  0.01 0.07000000000000001 0  0.02 0.07000000000000001 0  0.03 0.07000000000000001 0  0.04 0.07000000000000001 0  0.05 0.07000000000000001 0  0.06 0.07000000000000001 0  0.07000000000000001 0.07000000000000001 0  0.08 0.07000000000000001 0  0.09 0.07000000000000001 0  0.1 0.07000000000000001 0  0.11 0.07000000000000001 0  0.12 0.07000000000000001 0  0.13 0.07000000000000001 0  0.14 0.07000000000000001 0  0.15 0.07000000000000001 0  0.16 0.07000000000000001 0  0.17 0.07000
[...]
<PointData  Scalars="rho_bar"> 
<DataArray  type="Float64"  Name="rho_bar"  format="ascii">9.8758226584999598e-01  9.8722432961104523e-01  9.8641920799877880e-01  9.8555520640319327e-01  9.8438272979775687e-01  9.8291638363490108e-01  9.8112577425882308e-01  9.7901237304292021e-01  9.7662660720401218e-01  9.7410141870277700e-01  9.7166556050661212e-01  9.6961802893028248e-01  9.6826117247495669e-01  9.6781299038200352e-01  9.6833554025327118e-01  9.6971255945774004e-01  9.7169964890728200e-01  9.7401406714215344e-01  9.7641344104178618e-01  9.7873004885197845e-01  9.8087115104629419e-01  9.8280096071625456e-01  9.8452042203156986e-01  9.8604834315144307e-01  9.8741006915736507e-01  9.8863331581830272e-01  9.8974719966046754e-01  9.9077871861456246e-01  9.9174603323195776e-01  9.9264889861780570e-01  9.9346457396395182e-01  9.9415921120931239e-01  9.9470546812208749e-01  9.9507238070199699e-01  9.9518616730220211e-01  9.9488162089194476e-01  9.9377684908632424e-01  9.9086286257618861e-01  9.8235267429089479e-01  9.5525368961152779e-01  8.5082293149412958e-01  5.4716548017672140e-01  2.2977485727119373e-01  8.2929278741940615e-02  3.2040244502791707e-02  1.3805898410697159e-02  6.5887625899680880e-03  3.4281902252759257e-03  1.9152598861369892e-03  1.1354922769392958e-03  7.0557101907294537e-04  4.5511085207657444e-04  3.0304118735905529e-04  2.0736421278093282e-04  1.4521380676710719e-04  1.0379516856292103e-04  7.5588524057577534e-05  5.5988281797634401e-05  4.2120410576723969e-05  3.2144702153582079e-05  2.4855284103319241e-05  1.9449646682133376e-05  1.5384977639544352e-05  1.2288344396578440e-05  9.9002678361594824e-06  8.0376065090715943e-06  6.5695452648005988e-06  5.4014022481584673e-06  4.4638748142992094e-06  3.7055689173300510e-06  3.0879732395704470e-06  2.5818835622572728e-06  2.1649262092389746e-06  1.8197762461405856e-06  1.5328862427215997e-06  1.2935703114219761e-06  1.0933229899535516e-06  9.2531970427338832e-07  7.8404493137916759e-07  6.6501629162484911e-07  5.6456361258165191e-07  4.7967204640817794e-07  4.0784738749559531e-07  3.4702692168680831e-07  2.9549043753834492e-07  2.5180627436309784e-07  2.1477488888669429e-07  1.8339496978607871e-07  1.5682509714991648e-07  1.3436146382734574e-07  1.1541284074084791e-07  9.9486473531364299e-08  8.6169515476354294e-08  7.5120518398874340e-08  6.6056822908913955e-08  5.8749936250979647e-08  5.3016452862975247e-08  4.8716069545404571e-08  4.5748064144868549e-08  4.4063935359790121e-08  4.3701194506442731e-08  9.8630751235949188e-01  9.8505074744196397e-01  9.8453592763054665e-01  9.8331178991132984e-01  9.8159572017585806e-01  9.7927819744304501e-01  9.7635297968205415e-01  9.7289652127178494e-01  9.6908913140978936e-01  9.6521658681836320e-01  9.6164948197394717e-01  9.5880420558128654e-01  9.5707666808935743e-01  9.5674618881276796e-01  9.5786697439289448e-01  9.6022098445500759e-01  9.6339741308457161e-01  9.6694668304006171e-01  9.7050217951886930e-01  9.7382817110256992e-01  9.7680863017257735e-01  9.7941357191860745e-01  9.8166304515575997e-01  9.8359994312070209e-01  9.8527261782455555e-01  9.8672647873007058e-01  9.8800054128240777e-01  9.8912923308107215e-01  9.9014298503411113e-01  9.9107111778853774e-01  9.9194370259685805e-01  9.9277786535485368e-01  9.9353806590733806e-01  9.9411887225729878e-01  9.9438335124461052e-01  9.9416487429894929e-01  9.9311218222351527e-01  9.9020655258184131e-01  9.8214322428022505e-01  9.5643393549898115e-01  8.6175344084774241e-01  5.9260680704318802e-01  2.6345492401148063e-01  9.7303504153240239e-02  3.8118721827713198e-02  1.6335573029249900e-02  7.7264118637318377e-03  3.9900380676361064e-03  2.2177329016396844e-03  1.3024913120124103e-03  7.9982496486533995e-04  5.1120385161626774e-04  3.3765935572489965e-04  2.2891790518038429e-04  1.5886859460880856e-04  1.1265034176720922e-04  8.1411067595331415e-05  5.9872789799319328e-05  4.4756980467643194e-05  3.3961677199252521e-05  2.6126981744167996e-05  2.0353968015385304e-05  1.6037822842956185e-05  1.2766732619982471e-05  1.0255823838240200e-05  8.3054848994242321e-06  6.7739312952306905e-06  5.5592107885964474e-06  4.5870429112071087e-06  3.8026732540217512e-06  3.1652236567521661e-06  2.6438472221308810e-06  2.2149970926040954e-06  1.8605056306723467e-06  1.5662153629628882e-06  1.3209876576463562e-06  1.1159832482299112e-06  9.4412581795494340e-07  7.9971121980332042e-07  6.7810815048322471e-07  5.7553693079410330e-07  4.8889077956403500e-07  4.1561141356936267e-07  3.5357690616074337e-07  3.0102741836424428e-07  2.5649312671874780e-07  2.1874954246148134e-07  1.8677027917692406e-07  1.5969722711458739e-07  1.3680987285462946e-07  1.1750649291472434e-07  1.0128267142959994e-07  8.7718672879429000e-08  7.6464769662120598e-08  6.7234281052538415e-08  5.9792923315944358e-08  5.3954106174893816e-08  4.9572537071941186e-08  4.6541871163881158e-08  4.4787775786905111e-08  4.4255539313689154e-08  9.6581563311417651e-01  9.6844879929032068e-01  9.6624970953614508e-01  9.6402151686475934e-01  9.6093286892740348e-01  9.5712827742725648e-01  9.5258089891181985e-01  9.4724738741788483e-01  9.4112334906301975e-01  9.3440040492562371e-01  9.2759478784564453e-01  9.2156398795699668e-01  9.1732442357374444e-01  9.1570294165601784e-01  9.1701145999225941e-01  9.2088000233453871e-01  9.2647305499406096e-01  9.3286886944444725e-01  9.3935497050213856e-01  9.4549783132179444e-01  9.5109633017147532e-01  9.5610163303714479e-01  9.6055478466505728e-01  9.6453505905488079e-01  9.6811335204147975e-01  9.7134943858465961e-01  9.7431359284096031e-01  9.7709565489218331e-01  9.7978113430765634e-01  9.8240774670005027e-01  9.8491909588083193e-01  9.8715030157198735e-01  9.8892070248074881e-01  9.9018402793273463e-01  9.9098776059088145e-01  9.9122531989443885e-01  9.9048557861841935e-01  9.8781968822564692e-01  9.8048623747242236e-01  9.5909343674285508e-01  8.9040247992017862e-01  6.9257125847758017e-01  3.7769386665579507e-01  1.5683251871163728e-01  6.3172867264576701e-02  2.6862549997639640e-02  1.2597844181363588e-02  6.3942374974429303e-03  3.4342394783534488e-03  1.9520092245091686e-03  1.1730880297187100e-03  7.3168495807677733e-04  4.6842679203986417e-04  3.0869028080779913e-04  2.0896501960220742e-04  1.4446148925404044e-04  1.0193382470088084e-04  7.3382736153314125e-05  5.3789294556217236e-05  4.0103359894463568e-05  3.0377778445808421e-05  2.3345128935678009e-05  1.8178081366493222e-05  1.4322985659092043e-05  1.1404903388633968e-05  9.1663432905087787e-06  7.4276840539130894e-06  6.0619646229578845e-06  4.9781796550259561e-06  4.1101916460644918e-06  3.4093238201218941e-06  2.8392843862827472e-06  2.3726875356914029e-06  1.9886236788943529e-06  1.6709483660785759e-06  1.4070750743408817e-06  1.1870882695565548e-06  1.0031088550619992e-06  8.4882335746865301e-07  7.1913837509956597e-07  6.0991435427683478e-07  5.1776963606504124e-07  4.3992412195156386e-07  3.7408741361804037e-07  3.1835970430751461e-07  2.7116463268740241e-07  2.3118702977327381e-07  1.9733109512853204e-07  1.6867923566656922e-07  1.4446533461498669e-07  1.2404774356114119e-07  1.0689129799691298e-07  9.2549436540616354e-08  8.0652177284816476e-08  7.0894290293506398e-08  6.3027945824000705e-08  5.6854283320145686e-08  5.2218289408499540e-08  4.9002589005552066e-08  4.7124409481838041e-08  4.6523346013662943e-08  9.3296149499801617e-01  9.2195776504615290e-01  9.1979242671009698e-01  9.1264619659032242e-01  9.0134078777140525e-01  8.8494889245097863e-01  8.6296228070462422e-01  8.3553231960132679e-01  8.0392092848516949e-01  7.7075306004265154e-01  7.3958181309771709e-01  7.1438202018037256e-01  6.9871493761275139e-01  6.9501177780066803e-01  7.0407292069286376e-01  7.2410656630039461e-01  7.5115515861376936e-01  7.8079760312383439e-01  8.0970720522860196e-01  8.3592111906059008e-01  8.5863944260436176e-01  8.7779533947291810e-01  8.9377589428088167e-01  9.0714045492255679e-01  9.1831953258500432e-01  9.2768496843877091e-01  9.3554489996906320e-01  9.4224889513822607e-01  9.4811577765996469e-01  9.5342983622010335e-01  9.5846416477754814e-01  9.6355172819306067e-01  9.6896890065230301e-01  9.7447168565450892e-01  9.7913622590534755e-01  9.8209278265003774e-01  9.8307222265954475e-01  9.8167237280045916e-01  9.7608961762721669e-01  9.6082321551129979e-01  9.1939757168836111e-01  8.1031119588209810e-01  5.8344234305944875e-01  3.1357995235619762e-01  1.3989589703303146e-01  6.1947771303846877e-02  2.8543977903709886e-02  1.3733224223568206e-02  7.1556179451048845e-03  3.9875319039243224e-03  2.2761008516447830e-03  1.3311623175053470e-03  8.1532237809752502e-04  5.1636162510493386e-04  3.3263677614636422e-04  2.1971904929954467e-04  1.4907121323346541e-04  1.0327222323022332e-04  7.3124020231519720e-05  5.2891245668989972e-05  3.8991434156685246e-05  2.9266752195573461e-05  2.2329067730228167e-05  1.7286943978428167e-05  1.3559552196931489e-05  1.0758905734967769e-05  8.6232100185304921e-06  6.9723504032041503e-06  5.6805207279003990e-06  4.6584781951606086e-06  3.8419293429619147e-06  3.1838944547477926e-06  2.6495538694102094e-06  2.2127578739768634e-06  1.8536234632411910e-06  1.5568490466145386e-06  1.3105353457919893e-06  1.1053291067064599e-06  9.3381283357825036e-07  7.9005367597003722e-07  6.6927155285526836e-07  5.6758741096176382e-07  4.8183662129129268e-07  4.0942167527667146e-07  3.4820444426305512e-07  2.9641434228208655e-07  2.5258409731419707e-07  2.1549150430743993e-07  1.8411998684434818e-07  1.5762008308088147e-07  1.3528405923398609e-07  1.1652122055886911e-07  1.0084055431766991e-07  8.7834797028401237e-08  7.7169215040789341e-08  6.8571073557950792e-08  6.1821957376522926e-08  5.6750867616379996e-08  5.3229256341762325e-08  5.1164952280938078e-08  5.0502099389940054e-08  6.0883157831926571e-01  6.1943064750107002e-01  6.0229587607825996e-01  5.7269639750942070e-01  5.3238172300882836e-01  4.8341939135341405e-01  4.2946601858877054e-01  3.7440096322719540e-01  3.2222135697307280e-01  2.7679872888355606e-01  2.4063701387480324e-01  2.1509517055011970e-01  2.0071870590253510e-01  1.9752457804752102e-01  2.0566829748392565e-01  2.2514913638058881e-01  2.5496048914561492e-01  2.9265502108880637e-01  3.3552870163759257e-01  3.8093881876970515e-01  4.2676518835259897e-01  4.7141094590166716e-01  5.1416125367163190e-01  5.5543174387307492e-01  5.9509046228642137e-01  6.3279879141280915e-01  6.6804606326520033e-01  7.0169812027769574e-01  7.3533086194610342e-01  7.7054561376575204e-01  8.0791479311479952e-01  8.4622434007248437e-01  8.8219191679851183e-01  9.1179019533958572e-01  9.3356837775874579e-01  9.4918241037880235e-01  9.5987857243138219e-01  9.6543707852864624e-01  9.6557314808866745e-01  9.5879375493554775e-01  9.3962799596884339e-01  8.9435803502030109e-01  7.9507194198841147e-01  6.0852826633688462e-01  3.7155000453680775e-01  1.8581402038231568e-01  8.7291315829966937e-02  4.2971152097129241e-02  2.1710664186921622e-02  1.0902418424658743e-02  5.7255518781578457e-03  3.2440700500751458e-03  1.8758204111703992e-03  1.0836317007610274e-03  6.5101328774707832e-04  4.0604996511352145e-04  2.5764670482149923e-04  1.6834564698313962e-04  1.1336351797962132e-04  7.8195414225914399e-05  5.5351136782322054e-05  4.0107592144886253e-05  2.9677372640918398e-05  2.2387356453796771e-05  1.7175362934502283e-05  1.3374603890739570e-05  1.0550856377575074e-05  8.4171747319556662e-06  6.7802523953021768e-06  5.5071921689163608e-06  4.5050936240582937e-06  3.7078276973140899e-06  3.0675687917322880e-06  2.5491761065117951e-06  2.1264553045782228e-06  1.7796134644374455e-06  1.4935012015532368e-06  1.2563903723158941e-06  1.0591009046486143e-06  8.9437910800580523e-07  7.5644189233714420e-07  6.4064283581954070e-07  5.4322207652692753e-07  4.6111967454691411e-07  3.9183027447629374e-07  3.3329557812156818e-07  2.8381503816419523e-07  2.4198274533613005e-07  2.0663031153516953e-07  1.7678780150655921e-07  1.5164742011861973e-07  1.3053798019314091e-07  1.1290187945617579e-07  9.8278258073232481e-08  8.6287691577568489e-08  7.6622363996440946e-08  6.9034935864876343e-08  6.3332787114233904e-08  5.9370391058058779e-08  5.7047032111795648e-08  5.6303057131355606e-08  1.2156014647581251e-01  1.1725907382213969e-01  1.0704154346930254e-01  9.3381017098311411e-02  7.6750507869380036e-02  6.0262617762169325e-02  4.5946429751615191e-02  3.4860480066236189e-02  2.7179476739933265e-02  2.2483555589540499e-02  1.9994627709267871e-02  1.8964253489808524e-02  1.8863031916260892e-02  1.9413112451396559e-02  2.0555892679589897e-02  2.2378591544025720e-02  2.5095306931202096e-02  2.9006278590573340e-02  3.4434782990020528e-02  4.1621920475688086e-02  5.0695442434167515e-02  6.1671445130839483e-02  7.4538317493095196e-02  8.9525483268568073e-02  1.0683708656581989e-01  1.2657510508610004e-01  1.4872321488936374e-01  1.7397080267816517e-01  2.0427474662098796e-01  2.4300638269406788e-01  2.9491552807879651e-01  3.6569649557135220e-01  4.6013182550364129e-01  5.7658179495362194e-01  6.9997714425548752e-01  8.0501029068486740e-01  8.7578622394713823e-01  9.1716941815422559e-01  9.3979927373770267e-01  9.4949686437494007e-01  9.4902508570456545e-01  9.3753393778310856e-01  9.0897405422364730e-01  8.4968488226333194e-01  7.3336130411324552e-01  5.4674548341736018e-01  3.3704792081138879e-01  1.7487125281133348e-01  8.3772115131400093e-02  4.1789027668438748e-02  2.1816893355182242e-02  1.1037448896662042e-02  5.5270348429122722e-03  2.9738140003552180e-03  1.6606763698666625e-03  9.2302133613618930e-04  5.3650061360196219e-04  3.2563409023088043e-04  2.0239124889659730e-04  1.3086742018645603e-04  8.7502771027876165e-05  6.0253313355456011e-05  4.2744182369998541e-05  3.1090435622995754e-05  2.3134325486833943e-05  1.7557927821460820e-05  1.3554908356645587e-05  1.0619842921037272e-05  8.4255517848184421e-06  6.7568449312101022e-06  5.4683902244314220e-06  4.4601988612611785e-06  3.6620417159062258e-06  3.0237029823589310e-06  2.5086437105276528e-06  2.0898552873213421e-06  1.7470740732517573e-06  1.4648878571843701e-06  1.2314308136833723e-06  1.0374602812801746e-06  8.7570450845718199e-07  7.4038881098659941e-07  6.2688968570724768e-07  5.3147835040767414e-07  4.5112871324440160e-07  3.8336999409198667e-07  3.2617788081615543e-07  2.7788423420042843e-07  2.3711307348170003e-07  2.0272422713213829e-07  1.7377354165186052e-07  1.4947754216877983e-07  1.2918810819639385e-07  1.1236965324989131e-07  9.8583485006907636e-08  8.7471951733993725e-08  7.8750466596638729e-08  7.2195250255538179e-08  6.7640462115201772e-08  6.4970017460509977e-08  6.4118134129739482e-08  1.3328293438850827e-02  1.0980099852857424e-02  1.1656016264392589e-02  1.1412233680881453e-02  1.1226746866792189e-02  1.1205839174327683e-02  1.1057842101366145e-02  1.0672078575287890e-02  1.0014604470501587e-02  9.1557700639032270e-03  8.2367481803129593e-03  7.4148551518790837e-03  6.8115174793976696e-03  6.4990802894124792e-03  6.5083406354861225e-03  6.8442059120164354e-03  7.4847316269320121e-03  8.3657957438189046e-03  9.3900433712985256e-03  1.0460190122003490e-02  1.1506186190754416e-02  1.2497050904236888e-02  1.3449265474925295e-02  1.4410141986980063e-02  1.5446013525412774e-02  1.6665014675742038e-02  1.8258209081616419e-02  2.0547535438453449e-02  2.4036032797569374e-02  2.9593214912334277e-02  3.8875146969655411e-02  5.5181598485931273e-02  8.5100438939787804e-02  1.4098432988964343e-01  2.4176224025984366e-01  4.0196149755072658e-01  6.0039254440603007e-01  7.7199119152315621e-01  8.7547318858127543e-01  9.2648201288357601e-01  9.4891328122306440e-01  9.5615232041684517e-01  9.5355336806035929e-01  9.4074437480938533e-01  9.1311342538174678e-01  8.5937918875211450e-01  7.5740957239258000e-01  5.9291534497174347e-01  3.9248617200253277e-01  2.1576399993461723e-01  1.0333146112649222e-01  4.8375081501915849e-02  2.3866308626545086e-02  1.1562829173702724e-02  5.3934816054964294e-03  2.6995998484326666e-03  1.4215015737204378e-03  7.5440092577588392e-04  4.2713346191415987e-04  2.5298934501737585e-04  1.5548246447566192e-04  1.0034484653680168e-04  6.7080223969519337e-05  4.6467649717189135e-05  3.3191294612063120e-05  2.4338314752986332e-05  1.8263003669680710e-05  1.3972354803046177e-05  1.0868790323396670e-05  8.5739122939213294e-06  6.8443583688642767e-06  5.5187833686151672e-06  4.4878640541658483e-06  3.6758348393649495e-06  3.0291266564612891e-06  2.5091360562575126e-06  2.0875670649754856e-06  1.7433432811067029e-06  1.4605370612729139e-06  1.2269545703928518e-06  1.0331454150597211e-06  8.7170750302248476e-07  7.3678684450557407e-07  6.2371294347121957e-07  5.2873199044606419e-07  4.4880679160220253e-07  3.8146468452008937e-07  3.2468511287760028e-07  2.7680752204586743e-07  2.3646561917371469e-07  2.0253065777735168e-07  1.7407109938729791e-07  1.5031699952128269e-07  1.3063552131111148e-07  1.1450738358521986e-07  1.0151239998595793e-07  9.1313639305315018e-08  8.3649989681950750e-08  7.8324737087025959e-08  7.5204640427102899e-08  7.4212207034822252e-08  2.7323585524999536e-03  3.4306642474085545e-03  3.3949539722506416e-03  2.8568202420580584e-03  2.4224001057800040e-03  1.8761718508996440e-03  1.3385264876343112e-03  9.0622619056069645e-04  6.1662493789135190e-04  4.7445133708221249e-04  4.5143768527280016e-04  5.0345170086863952e-04  5.8883764331512409e-04  6.7921251700449575e-04  7.6036357864104004e-04  8.2839305194835954e-04  8.8615867947361914e-04  9.4484117981949011e-04  1.0254212559836651e-03  1.1533668011060854e-03  1.3511170620579013e-03  1.6347282359338085e-03  2.0133178525541524e-03  2.4940542785387267e-03  3.0890124646894882e-03  3.8156819578439205e-03  4.6962546996092824e-03  5.7687602473808506e-03  7.1198191278423134e-03  8.9282468783513525e-03  1.1525474146171302e-02  1.5527211904737864e-02  2.2173469471796107e-02  3.4267487472961052e-02  5.8954308460909349e-02  1.1523707731080676e-01  2.4467532225881397e-01  4.7760182310812788e-01  7.3024054341333189e-01  8.7862227042314789e-01  9.3968190258703488e-01  9.6261755986287134e-01  9.7027297477500785e-01  9.7041696601641469e-01  9.6461171274570034e-01  9.5116258995759018e-01  9.2634159772837132e-01  8.8216957972654630e-01  8.0070973363587716e-01  6.6175031951570940e-01  4.7174732361540656e-01  2.7660686693309461e-01  1.3185073033570610e-01  5.6062304684354101e-02  2.4659658254342465e-02  1.0903458041912012e-02  4.6955430623354137e-03  2.2219232400074234e-03  1.1054097298683547e-03  5.7046050004931691e-04  3.2021672840135736e-04  1.8741860727155996e-04  1.1610958358131086e-04  7.5436971065645687e-05  5.0984807612065201e-05  3.5767347795613196e-05  2.5850700430630134e-05  1.9181881234078312e-05  1.4546803684610582e-05  1.1237254133492590e-05  8.8159316384391929e-06  7.0067567144335918e-06  5.6299748477837945e-06  4.5654597676734497e-06  3.7309946655073117e-06  3.0690521535343189e-06  2.5385518767149763e-06  2.1096188427554332e-06  1.7601534771777516e-06  1.4735570739253032e-06  1.2371901681902983e-06  1.0413047667352083e-06  8.7829784626668382e-07  7.4218015728992464e-07  6.2819000114748614e-07  5.3251246540928853e-07  4.5206975866560412e-07  3.8436322091591426e-07  3.2735601614287512e-07  2.7937872455705168e-07  2.3906169810387233e-07  2.0527682773173837e-07  1.7709742198640098e-07  1.5376143302738109e-07  1.3464764881349142e-07  1.1925187370191013e-07  1.0717309000169751e-07  9.8097599044158061e-08  9.1793901343010008e-08  8.8101096887274722e-08  8.6929460763644775e-08  7.4776099374961123e-04  6.0570053457645291e-04  4.5207940992625525e-04  4.8288557073990364e-04  5.3492741524974175e-04  5.6933240867343730e-04  6.2531556363730066e-04  6.6904659985595708e-04  6.8816292661796072e-04  6.8018224684902829e-04  6.4993348143476412e-04  6.0844210977760514e-04  5.6795210263741618e-04  5.3813043475407351e-04  5.2469889576277676e-04  5.3003228568634139e-04  5.5425462760888263e-04  5.9542562556833467e-04  6.4894402629765257e-04  7.0824613194331841e-04  7.6706882883090688e-04  8.21374217814