<?xml version="1.0"?>
<VTKFile type="UnstructuredGrid"  version="0.1"  >
<UnstructuredGrid>
<Piece  NumberOfPoints="5151" NumberOfCells="10000">
<Points>
<DataArray  type="Float64"  NumberOfComponents="3"  format="ascii">0 0 0  0.01 0 0  0.02 0 0  0.03 0 0  0.04 0 0  0.05 0 0  0.06 0 0  0.07000000000000001 0 0  0.08 0 0  0.09 0 0  0.1 0 0  0.11 0 0  0.12 0 0  0.13 0 0  0.14 0 0  0.15 0 0  0.16 0 0  0.17 0 0  0.18 0 0  0.19 0 0  0.2 0 0  0.21 0 0  0.22 0 0  0.23 0 0  0.24 0 0  0.25 0 0  0.26 0 0  0.27 0 0  0.28 0 0  0.29 0 0  0.3 0 0  0.31 0 0  0.32 0 0  0.33 0 0  0.34 0 0  0.35 0 0  0.36 0 0  0.37 0 0  0.38 0 0  0.39 0 0  0.4 0 0  0.41 0 0  0.42 0 0  0.43 0 0  0.44 0 0  0.45 0 0  0.46 0 0  0.47 0 0  0.48 0 0  0.49 0 0  0.5 0 0  0.51 0 0  0.52 0 0  0.53 0 0  0.54 0 0  0.55 0 0  0.5600000000000001 0 0  0.57 0 0  0.58 0 0  0.59 0 0  0.6 0 0  0.61 0 0  0.62 0 0  0.63 0 0  0.64 0 0  0.65 0 0  0.66 0 0  0.67 0 0  0.68 0 0  0.6899999999999999 0 0  0.7 0 0  0.71 0 0  0.72 0 0  0.73 0 0  0.74 0 0  0.75 0 0  0.76 0 0  0.77 0 0  0.78 0 0  0.79 0 0  0.8 0 0  0.8100000000000001 0 0  0.82 0 0  0.83 0 0  0.84 0 0  0.85 0 0  0.86 0 0  0.87 0 0  0.88 0 0  0.89 0 0  0.9 0 0  0.91 0 0  0.92 0 0  0.93 0 0  0.9399999999999999 0 0  0.95 0 0  0.96 0 0  0.97 0 0  0.98 0 0  0.99 0 0  1 0 0  0 0.01 0  0.01 0.01 0  0.02 0.01 0  0.03 0.01 0  0.04 0.01 0  0.05 0.01 0  0.06 0.01 0  0.07000000000000001 0.01 0  0.08 0.01 0  0.09 0.01 0  0.1 0.01 0  0.11 0.01 0  0.12 0.01 0  0.13 0.01 0  0.14 0.01 0  0.15 0.01 0  0.16 0.01 0  0.17 0.01 0  0.18 0.01 0  0.19 0.01 0  0.2 0.01 0  0.21 0.01 0  0.22 0.01 0  0.23 0.01 0  0.24 0.01 0  0.25 0.01 0  0.26 0.01 0  0.27 0.01 0  0.28 0.01 0  0.29 0.01 0  0.3 0.01 0  0.31 0.01 0  0.32 0.01 0  0.33 0.01 0  0.34 0.01 0  0.35 0.01 0  0.36 0.01 0  0.37 0.01 0  0.38 0.01 0  0.39 0.01 0  0.4 0.01 0  0.41 0.01 0  0.42 0.01 0  0.43 0.01 0  0.44 0.01 0  0.45 0.01 0  0.46 0.01 0  0.47 0.01 0  0.48 0.01 0  0.49 0.01 0  0.5 0.01 0  0.51 0.01 0  0.52 0.01 0  0.53 0.01 0  0.54 0.01 0  0.55 0.01 0  0.5600000000000001 0.01 0  0.57 0.01 0  0.58 0.01 0  0.59 0.01 0  0.6 0.01 0  0.61 0.01 0  0.62 0.01 0  0.63 0.01 0  0.64 0.01 0  0.65 0.01 0  0.66 0.01 0  0.67 0.01 0  0.68 0.01 0  0.6899999999999999 0.01 0  0.7 0.01 0  0.71 0.01 0  0.72 0.01 0  0.73 0.01 0  0.74 0.01 0  0.75 0.01 0  0.76 0.01 0  0.77 0.01 0  0.78 0.01 0  0.79 0.01 0  0.8 0.01 0  0.8100000000000001 0.01 0  0.82 0.01 0  0.83 0.01 0  0.84 0.01 0  0.85 0.01 0  0.86 0.01 0  0.87 0.01 0  0.88 0.01 0  0.89 0.01 0  0.9 0.01 0  0.91 0.01 0  0.92 0.01 0  0.93 0.01 0  0.9399999999999999 0.01 0  0.95 0.01 0  0.96 0.01 0  0.97 0.01 0  0.98 0.01 0  0.99 0.01 0  1 0.01 0  0 0.02 0  0.01 0.02 0  0.02 0.02 0  0.03 0.02 0  0.04 0.02 0  0.05 0.02 0  0.06 0.02 0  0.07000000000000001 0.02 0  0.08 0.02 0  0.09 0.02 0  0.1 0.02 0  0.11 0.02 0  0.12 0.02 0  0.13 0.02 0  0.14 0.02 0  0.15 0.02 0  0.16 0.02 0  0.17 0.02 0  0.18 0.02 0  0.19 0.02 0  0.2 0.02 0  0.21 0.02 0  0.22 0.02 0  0.23 0.02 0  0.24 0.02 0  0.25 0.02 0  0.26 0.02 0  0.27 0.02 0  0.28 0.02 0  0.29 0.02 0  0.3 0.02 0  0.31 0.02 0  0.32 0.02 0  0.33 0.02 0  0.34 0.02 0  0.35 0.02 0  0.36 0.02 0  0.37 0.02 0  0.38 0.02 0  0.39 0.02 0  0.4 0.02 0  0.41 0.02 0  0.42 0.02 0  0.43 0.02 0  0.44 0.02 0  0.45 0.02 0  0.46 0.02 0  0.47 0.02 0  0.48 0.02 0  0.49 0.02 0  0.5 0.02 0  0.51 0.02 0  0.52 0.02 0  0.53 0.02 0  0.54 0.02 0  0.55 0.02 0  0.5600000000000001 0.02 0  0.57 0.02 0  0.58 0.02 0  0.59 0.02 0  0.6 0.02 0  0.61 0.02 0  0.62 0.02 0  0.63 0.02 0  0.64 0.02 0  0.65 0.02 0  0.66 0.02 0  0.67 0.02 0  0.68 0.02 0  0.6899999999999999 0.02 0  0.7 0.02 0  0.71 0.02 0  0.72 0.02 0  0.73 0.02 0  0.74 0.02 0  0.75 0.02 0  0.76 0.02 0  0.77 0.02 0  0.78 0.02 0  0.79 0.02 0  0.8 0.02 0  0.8100000000000001 0.02 0  0.82 0.02 0  0.83 0.02 0  0.84 0.02 0  0.85 0.02 0  0.86 0.02 0  0.87 0.02 0  0.88 0.02 0  0.89 0.02 0  0.9 0.02 0  0.91 0.02 0  0.92 0.02 0  0.93 0.02 0  0.9399999999999999 0.02 0  0.95 0.02 0  0.96 0.02 0  0.97 0.02 0  0.98 0.02 0  0.99 0.02 0  1 0.02 0  0 0.03 0  0.01 0.03 0  0.02 0.03 0  0.03 0.03 0  0.04 0.03 0  0.05 0.03 0  0.06 0.03 0  0.07000000000000001 0.03 0  0.08 0.03 0  0.09 0.03 0  0.1 0.03 0  0.11 0.03 0  0.12 0.03 0  0.13 0.03 0  0.14 0.03 0  0.15 0.03 0  0.16 0.03 0  0.17 0.03 0  0.18 0.03 0  0.19 0.03 0  0.2 0.03 0  0.21 0.03 0  0.22 0.03 0  0.23 0.03 0  0.24 0.03 0  0.25 0.03 0  0.26 0.03 0  0.27 0.03 0  0.28 0.03 0  0.29 0.03 0  0.3 0.03 0  0.31 0.03 0  0.32 0.03 0  0.33 0.03 0  0.34 0.03 0  0.35 0.03 0  0.36 0.03 0  0.37 0.03 0  0.38 0.03 0  0.39 0.03 0  0.4 0.03 0  0.41 0.03 0  0.42 0.03 0  0.43 0.03 0  0.44 0.03 0  0.45 0.03 0  0.46 0.03 0  0.47 0.03 0  0.48 0.03 0  0.49 0.03 0  0.5 0.03 0  0.51 0.03 0  0.52 0.03 0  0.53 0.03 0  0.54 0.03 0  0.55 0.03 0  0.5600000000000001 0.03 0  0.57 0.03 0  0.58 0.03 0  0.59 0.03 0  0.6 0.03 0  0.61 0.03 0  0.62 0.03 0  0.63 0.03 0  0.64 0.03 0  0.65 0.03 0  0.66 0.03 0  0.67 0.03 0  0.68 0.03 0  0.6899999999999999 0.03 0  0.7 0.03 0  0.71 0.03 0  0.72 0.03 0  0.73 0.03 0  0.74 0.03 0  0.75 0.03 0  0.76 0.03 0  0.77 0.03 0  0.78 0.03 0  0.79 0.03 0  0.8 0.03 0  0.8100000000000001 0.03 0  0.82 0.03 0  0.83 0.03 0  0.84 0.03 0  0.85 0.03 0  0.86 0.03 0  0.87 0.03 0  0.88 0.03 0  0.89 0.03 0  0.9 0.03 0  0.91 0.03 0  0.92 0.03 0  0.93 0.03 0  0.9399999999999999 0.03 0  0.95 0.03 0  0.96 0.03 0  0.97 0.03 0  0.98 0.03 0  0.99 0.03 0  1 0.03 0  0 0.04 0  0.01 0.04 0  0.02 0.04 0  0.03 0.04 0  0.04 0.04 0  0.05 0.04 0  0.06 0.04 0  0.07000000000000001 0.04 0  0.08 0.04 0  0.09 0.04 0  0.1 0.04 0  0.11 0.04 0  0.12 0.04 0  0.13 0.04 0  0.14 0.04 0  0.15 0.04 0  0.16 0.04 0  0.17 0.04 0  0.18 0.04 0  0.19 0.04 0  0.2 0.04 0  0.21 0.04 0  0.22 0.04 0  0.23 0.04 0  0.24 0.04 0  0.25 0.04 0  0.26 0.04 0  0.27 0.04 0  0.28 0.04 0  0.29 0.04 0  0.3 0.04 0  0.31 0.04 0  0.32 0.04 0  0.33 0.04 0  0.34 0.04 0  0.35 0.04 0  0.36 0.04 0  0.37 0.04 0  0.38 0.04 0  0.39 0.04 0  0.4 0.04 0  0.41 0.04 0  0.42 0.04 0  0.43 0.04 0  0.44 0.04 0  0.45 0.04 0  0.46 0.04 0  0.47 0.04 0  0.48 0.04 0  0.49 0.04 0  0.5 0.04 0  0.51 0.04 0  0.52 0.04 0  0.53 0.04 0  0.54 0.04 0  0.55 0.04 0  0.5600000000000001 0.04 0  0.57 0.04 0  0.58 0.04 0  0.59 0.04 0  0.6 0.04 0  0.61 0.04 0  0.62 0.04 0  0.63 0.04 0  0.64 0.04 0  0.65 0.04 0  0.66 0.04 0  0.67 0.04 0  0.68 0.04 0  0.6899999999999999 0.04 0  0.7 0.04 0  0.71 0.04 0  0.72 0.04 0  0.73 0.04 0  0.74 0.04 0  0.75 0.04 0  0.76 0.04 0  0.77 0.04 0  0.78 0.04 0  0.79 0.04 0  0.8 0.04 0  0.8100000000000001 0.04 0  0.82 0.04 0  0.83 0.04 0  0.84 0.04 0  0.85 0.04 0  0.86 0.04 0  0.87 0.04 0  0.88 0.04 0  0.89 0.04 0  0.9 0.04 0  0.91 0.04 0  0.92 0.04 0  0.93 0.04 0  0.9399999999999999 0.04 0  0.95 0.04 0  0.96 0.04 0  0.97 0.04 0  0.98 0.04 0  0.99 0.04 0  1 0.04 0  0 0.05 0  0.01 0.05 0  0.02 0.05 0  0.03 0.05 0  0.04 0.05 0  0.05 0.05 0  0.06 0.05 0  0.07000000000000001 0.05 0  0.08 0.05 0  0.09 0.05 0  0.1 0.05 0  0.11 0.05 0  0.12 0.05 0  0.13 0.05 0  0.14 0.05 0  0.15 0.05 0  0.16 0.05 0  0.17 0.05 0  0.18 0.05 0  0.19 0.05 0  0.2 0.05 0  0.21 0.05 0  0.22 0.05 0  0.23 0.05 0  0.24 0.05 0  0.25 0.05 0  0.26 0.05 0  0.27 0.05 0  0.28 0.05 0  0.29 0.05 0  0.3 0.05 0  0.31 0.05 0  0.32 0.05 0  0.33 0.05 0  0.34 0.05 0  0.35 0.05 0  0.36 0.05 0  0.37 0.05 0  0.38 0.05 0  0.39 0.05 0  0.4 0.05 0  0.41 0.05 0  0.42 0.05 0  0.43 0.05 0  0.44 0.05 0  0.45 0.05 0  0.46 0.05 0  0.47 0.05 0  0.48 0.05 0  0.49 0.05 0  0.5 0.05 0  0.51 0.05 0  0.52 0.05 0  0.53 0.05 0  0.54 0.05 0  0.55 0.05 0  0.5600000000000001 0.05 0  0.57 0.05 0  0.58 0.05 0  0.59 0.05 0  0.6 0.05 0  0.61 0.05 0  0.62 0.05 0  0.63 0.05 0  0.64 0.05 0  0.65 0.05 0  0.66 0.05 0  0.67 0.05 0  0.68 0.05 0  0.6899999999999999 0.05 0  0.7 0.05 0  0.71 0.05 0  0.72 0.05 0  0.73 0.05 0  0.74 0.05 0  0.75 0.05 0  0.76 0.05 0  0.77 0.05 0  0.78 0.05 0  0.79 0.05 0  0.8 0.05 0  0.8100000000000001 0.05 0  0.82 0.05 0  0.83 0.05 0  0.84 0.05 0  0.85 0.05 0  0.86 0.05 0  0.87 0.05 0  0.88 0.05 0  0.89 0.05 0  0.9 0.05 0  0.91 0.05 0  0.92 0.05 0  0.93 0.05 0  0.9399999999999999 0.05 0  0.95 0.05 0  0.96 0.05 0  0.97 0.05 0  0.98 0.05 0  0.99 0.05 0  1 0.05 0  0 0.06 0  0.01 0.06 0  0.02 0.06 0  0.03 0.06 0  0.04 0.06 0  0.05 0.06 0  0.06 0.06 0  0.07000000000000001 0.06 0  0.08 0.06 0  0.09 0.06 0  0.1 0.06 0  0.11 0.06 0  0.12 0.06 0  0.13 0.06 0  0.14 0.06 0  0.15 0.06 0  0.16 0.06 0  0.17 0.06 0  0.18 0.06 0  0.19 0.06 0  0.2 0.06 0  0.21 0.06 0  0.22 0.06 0  0.23 0.06 0  0.24 0.06 0  0.25 0.06 0  0.26 0.06 0  0.27 0.06 0  0.28 0.06 0  0.29 0.06 0  0.3 0.06 0  0.31 0.06 0  0.32 0.06 0  0.33 0.06 0  0.34 0.06 0  0.35 0.06 0  0.36 0.06 0  0.37 0.06 0  0.38 0.06 0  0.39 0.06 0  0.4 0.06 0  0.41 0.06 0  0.42 0.06 0  0.43 0.06 0  0.44 0.06 0  0.45 0.06 0  0.46 0.06 0  0.47 0.06 0  0.48 0.06 0  0.49 0.06 0  0.5 0.06 0  0.51 0.06 0  0.52 0.06 0  0.53 0.06 0  0.54 0.06 0  0.55 0.06 0  0.5600000000000001 0.06 0  0.57 0.06 0  0.58 0.06 0  0.59 0.06 0  0.6 0.06 0  0.61 0.06 0  0.62 0.06 0  0.63 0.06 0  0.64 0.06 0  0.65 0.06 0  0.66 0.06 0  0.67 0.06 0  0.68 0.06 0  0.6899999999999999 0.06 0  0.7 0.06 0  0.71 0.06 0  0.72 0.06 0  0.73 0.06 0  0.74 0.06 0  0.75 0.06 0  0.76 0.06 0  0.77 0.06 0  0.78 0.06 0  0.79 0.06 0  0.8 0.06 0  0.8100000000000001 0.06 0  0.82 0.06 0  0.83 0.06 0  0.84 0.06 0  0.85 0.06 0  0.86 0.06 0  0.87 0.06 0  0.88 0.06 0  0.89 0.06 0  0.9 0.06 0  0.91 0.06 0  0.92 0.06 0  0.93 0.06 0  0.9399999999999999 0.06 0  0.95 0.06 0  0.96 0.06 0  0.97 0.06 0  0.98 0.06 0  0.99 0.06 0  1 0.06 0  0 0.07000000000000001 0  0.01 0.07000000000000001 0  0.02 0.07000000000000001 0  0.03 0.07000000000000001 0  0.04 0.07000000000000001 0  0.05 0.07000000000000001 0  0.06 0.07000000000000001 0  0.07000000000000001 0.07000000000000001 0  0.08 0.07000000000000001 0  0.09 0.07000000000000001 0  0.1 0.07000000000000001 0  0.11 0.07000000000000001 0  0.12 0.07000000000000001 0  0.13 0.07000000000000001 0  0.14 0.07000000000000001 0  0.15 0.07000000000000001 0  0.16 0.07000000000000001 0  0.17 0.07000
[...]
<PointData  Scalars="rho_bar"> 
<DataArray  type="Float64"  Name="rho_bar"  format="ascii">9.9506243392675575e-01  9.9770726543488542e-01  9.9714106092196597e-01  9.9812374961897421e-01  9.9913176359898737e-01  1.0003621296381362e+00  1.0014831792400498e+00  1.0022565005824717e+00  1.0025354896005596e+00  1.0022913286747055e+00  1.0015717092003278e+00  1.0004782234547358e+00  9.9919018519209390e-01  9.9798177882889461e-01  9.9714219247100178e-01  9.9681918252324597e-01  9.9695397036231137e-01  9.9737476932748648e-01  9.9791778273046672e-01  9.9847571815399661e-01  9.9899546915174608e-01  9.9945753001419746e-01  9.9985452785817974e-01  1.0001833190904015e+00  1.0004466972451362e+00  1.0006535466306585e+00  1.0008116852221769e+00  1.0009131498227335e+00  1.0009227884595082e+00  1.0007791237684041e+00  1.0004487732688307e+00  1.0000620254474093e+00  9.9987278769034260e-01  9.9992364921925592e-01  1.0000151905711139e+00  9.9998039235709757e-01  9.9994241296353104e-01  1.0012726883986758e+00  9.8996011917669569e-01  1.0472560700708780e+00  7.1365971032201159e-01  2.4166747370773307e-02  4.4363922472686392e-04  7.3274523975533985e-04  -1.9000941128073298e-05  1.2377114001694314e-05  -5.3739299640751781e-05  3.0252341713761481e-06  1.1038586153667077e-05  2.8566634683359470e-06  -2.0387463114761600e-06  -7.1416551189677476e-07  4.2214425381751799e-07  7.4401851220243689e-08  -8.6621048418830112e-08  1.1716400991759686e-08  1.0591108338687333e-08  -5.6052074175613500e-09  7.9216520541118053e-10  5.7022446504966088e-10  -3.4371240236707636e-10  1.2040455388289345e-10  5.6701240994294259e-12  -5.6905450377366288e-12  1.2268654429662867e-11  9.1548342717939636e-13  3.2169377810079882e-12  1.9970482718565231e-12  1.5027596260168093e-12  1.2602741912294850e-12  9.5859213019893867e-13  7.8626134105632954e-13  6.3135673127177779e-13  5.1657454645079578e-13  4.2377543222689866e-13  3.4986655915239404e-13  2.9010433170791553e-13  2.4148247196075184e-13  2.0169742003645153e-13  1.6889093574279457e-13  1.4180987722701430e-13  1.1927986753439379e-13  1.0050900117822905e-13  8.4849626569984597e-14  7.1724239645462764e-14  6.0718062892615944e-14  5.1470001416680111e-14  4.3671173099463958e-14  3.7134534296517396e-14  3.1640044449151938e-14  2.7066268975672500e-14  2.3209430189449996e-14  1.9995855234869398e-14  1.7369544201543188e-14  1.5194877114238645e-14  1.3468313477855020e-14  1.2091186396814999e-14  1.1084279964732482e-14  1.0390983168685453e-14  9.9695968846040564e-15  9.9097466073651308e-15  1.0122967305545476e+00  1.0044040120714643e+00  1.0056262107964757e+00  1.0041962961811954e+00  1.0023302563992329e+00  9.9989335426983117e-01  9.9735474982902650e-01  9.9527210642304798e-01  9.9407188628734611e-01  9.9394901924625068e-01  9.9489840657872386e-01  9.9678412776669323e-01  9.9932887310858876e-01  1.0020537226311632e+00  1.0043292147540808e+00  1.0056540502069624e+00  1.0059334109017108e+00  1.0054323389809410e+00  1.0045102786914990e+00  1.0034456396923306e+00  1.0024003082091499e+00  1.0014446309621596e+00  1.0006047214740690e+00  9.9989365052859480e-01  9.9931415527509160e-01  9.9885509251090743e-01  9.9849760868883419e-01  9.9823799255833601e-01  9.9811842860999056e-01  9.9823750798709621e-01  9.9871569805686589e-01  9.9949845705349538e-01  1.0001392620370488e+00  1.0002364425278691e+00  1.0000364598391542e+00  9.9995260581537815e-01  1.0001079267127528e+00  9.9939277485238798e-01  1.0016123277593743e+00  1.0007375842919328e+00  8.5733359027190637e-01  2.8540114158812736e-02  9.9660361629614284e-03  -7.6356600902028140e-04  -4.0067547131154762e-05  -9.7037932834071624e-05  1.2477462009174514e-04  3.4771620573528061e-05  -2.0908878352861937e-05  -1.4651507296403956e-05  1.7588885514129926e-06  3.3563994469898377e-06  -3.7534969392634608e-07  -5.5730609032285286e-07  1.7307054575744682e-07  4.7146363623351872e-08  -4.2478350207264890e-08  8.6381780125087442e-09  3.0486772268288953e-09  -2.5753962782513811e-09  8.4380018448922581e-10  -2.9174829901743368e-11  -7.8636208833563753e-11  6.1322985357142660e-11  -1.3498353002922929e-11  7.4825600900376056e-12  2.8284555725566758e-12  1.6233221474362717e-12  1.8819850120599174e-12  1.1629026455957113e-12  1.0359237969240235e-12  7.9534363034798418e-13  6.5178244951036610e-13  5.2920792881881515e-13  4.3420161945071844e-13  3.5806850551414353e-13  2.9662637563985106e-13  2.4676012847271153e-13  2.0595992561443638e-13  1.7239348055418952e-13  1.4467381153065058e-13  1.2164372679077315e-13  1.0247478285790372e-13  8.6467806502789737e-14  7.3082367306013470e-14  6.1837122607135820e-14  5.2397069430935932e-14  4.4483767215139440e-14  3.7820554341045122e-14  3.2247453627126143e-14  2.7530972272228201e-14  2.3617179954166791e-14  2.0359437936232357e-14  1.7664747595711829e-14  1.5463357221910321e-14  1.3689712809558969e-14  1.2310724222000722e-14  1.1279696060184379e-14  1.0555125239133559e-14  1.0154271066099334e-14  1.0052752727115366e-14  9.5522344685142457e-01  9.8176798193858161e-01  9.7803097423902996e-01  9.8131932317482629e-01  9.8628577011268781e-01  9.9360335464423466e-01  1.0020286437655281e+00  1.0097419538767789e+00  1.0150317567623866e+00  1.0169326756861785e+00  1.0152893630842839e+00  1.0104240889134894e+00  1.0029929918616909e+00  9.9417393014679689e-01  9.8584181617071487e-01  9.8004412587917211e-01  9.7784063442619662e-01  9.7880539147259815e-01  9.8174007271564834e-01  9.8552139234598068e-01  9.8940571967692847e-01  9.9302498729529221e-01  9.9624688231825564e-01  9.9901716950842845e-01  1.0013117817532624e+00  1.0031493117147556e+00  1.0045909522683611e+00  1.0056925572278286e+00  1.0064012746899929e+00  1.0064676594386246e+00  1.0054851435395604e+00  1.0031891069744430e+00  1.0004008948360337e+00  9.9905035948978915e-01  9.9952096700415582e-01  1.0000944590826035e+00  1.0000012194473595e+00  9.9998843138142013e-01  1.0003636705098387e+00  9.9491183046454523e-01  9.8707172467886262e-01  2.6331767360365943e-01  -7.1310123910014566e-04  4.5289758262665516e-04  1.4873862548055096e-04  9.6453198132438224e-04  -3.5241807763472597e-04  -2.7108064959595519e-04  1.4688179730922457e-05  7.8193984230151347e-05  1.5524575638177278e-05  -1.5388029781448062e-05  -3.2922466212361465e-06  3.0768732983692696e-06  -8.6407720343728397e-09  -4.9818955947785362e-07  1.6436636703028499e-07  1.4950238868101096e-08  -3.0923899552338946e-08  1.2197255168652186e-08  -1.5111076131602734e-09  -8.6979918453421762e-10  6.9871369743392237e-10  -2.5475035464363080e-10  6.8547942255714614e-11  3.8438673614881796e-13  -1.8714057817050683e-12  5.7261564298840971e-12  3.8269509597131575e-13  1.8786257215705480e-12  9.6325329312242381e-13  9.0984814540018649e-13  6.9811517538989156e-13  5.7238404975189786e-13  4.6716328275066656e-13  3.8379190139659466e-13  3.1735141338945126e-13  2.6329439564350179e-13  2.1939449569579114e-13  1.8333794989395617e-13  1.5364112709074258e-13  1.2905958239366456e-13  1.0860631183196461e-13  9.1560502332677198e-14  7.7337277760070328e-14  6.5397818508324883e-14  5.5389508054958587e-14  4.6971991954593547e-14  3.9935645302528397e-14  3.4022881158175146e-14  2.9046622531646612e-14  2.4913016322165500e-14  2.1463495588139858e-14  1.8626737404923047e-14  1.6295290556010869e-14  1.4418142813199233e-14  1.2966828427349642e-14  1.1874945437491492e-14  1.1118365501582670e-14  1.0664802325102260e-14  1.0516513319315165e-14  1.1285814148960960e+00  1.0633359547817054e+00  1.0680897631297908e+00  1.0588836846753706e+00  1.0408452185762462e+00  1.0116577301792093e+00  9.7339062932042097e-01  9.3240426315278202e-01  8.9720639475311170e-01  8.7574178911783163e-01  8.7252376636738449e-01  8.8807172694059089e-01  9.1954783348045910e-01  9.6137835656747428e-01  1.0054040645989362e+00  1.0420785211704477e+00  1.0643183091658701e+00  1.0711905622779743e+00  1.0667536468548788e+00  1.0560824763547869e+00  1.0430726684313494e+00  1.0300252691359029e+00  1.0179514291123846e+00  1.0072581282308994e+00  9.9817055536643062e-01  9.9074739774096809e-01  9.8486654972142740e-01  9.8028914458886329e-01  9.7696710233817641e-01  9.7544286780466372e-01  9.7700222180192087e-01  9.8309982390393558e-01  9.9339007550838343e-01  1.0021272609161045e+00  1.0031227800142468e+00  1.0002093943281196e+00  9.9958714194100573e-01  1.0000830739248683e+00  9.9967582200812033e-01  9.9968553836142704e-01  9.9808175245207775e-01  8.0747567992041658e-01  7.3835554095973893e-02  7.3323451485152336e-03  6.0333527714493667e-03  -5.1214882876826403e-03  1.5964245605217162e-05  1.4414691317095355e-03  3.7833185863649636e-04  -2.8316662529929499e-04  -1.7926466754957800e-04  3.6704111735084516e-05  3.8472821488776885e-05  -9.3069231611790757e-06  -4.8843701681108719e-06  2.7586314906757513e-06  -1.3728187287441459e-07  -3.6623455754494207e-07  1.7909085827030591e-07  -3.1197867964020089e-08  -9.3469204979208703e-09  9.2214161872422716e-09  -3.7541371107551354e-09  9.5603201692605990e-10  -6.9235565268604018e-11  -6.0706748796073477e-11  5.0965680813347309e-11  -1.7297604099371554e-11  8.9964927595706163e-12  -3.0739846992493883e-13  1.7521442721908037e-12  9.1721529815847615e-13  8.1309223103621359e-13  6.4951569102633919e-13  5.2315964642211110e-13  4.3077564413683459e-13  3.5314861271920657e-13  2.9253409339260699e-13  2.4278897390862705e-13  2.0243920225949457e-13  1.6924596777537755e-13  1.4189917659293290e-13  1.1922233145140493e-13  1.0038536878383458e-13  8.4660988947607514e-14  7.1526867076698991e-14  6.0513293870770939e-14  5.1300106709802319e-14  4.3568376516933565e-14  3.7086693167364122e-14  3.1646026636134839e-14  2.7123022374446871e-14  2.3355730873234290e-14  2.0251340935445575e-14  1.7700389067491596e-14  1.5678239911187039e-14  1.4071599651935280e-14  1.2871831949549511e-14  1.2054290715326709e-14  1.1557245001044656e-14  1.1413800161726448e-14  2.4586887832701868e-01  3.2378736552360604e-01  2.9471595974412429e-01  2.4553876201181901e-01  1.8388803245644111e-01  1.1796899892884453e-01  5.8818384426051036e-02  1.2946536759153141e-02  -1.7524762746499105e-02  -3.3431918859528252e-02  -3.7379097028970056e-02  -3.0906593867141723e-02  -1.3077120650009540e-02  1.9601777277408236e-02  7.2242466641467495e-02  1.4904843055748390e-01  2.4966213192451925e-01  3.6594483975987557e-01  4.8617188572285075e-01  5.9973847577154527e-01  7.0028695737363511e-01  7.8546564150510700e-01  8.5603070864971442e-01  9.1432937731492692e-01  9.6193747215920034e-01  1.0001233544779933e+00  1.0300736111138564e+00  1.0533289770363836e+00  1.0711217162334830e+00  1.0830405975930810e+00  1.0857660161498055e+00  1.0737183405709081e+00  1.0434789603722587e+00  1.0042691365779284e+00  9.8520853170019673e-01  9.9408260859941833e-01  1.0016232775121303e+00  9.9984712877718918e-01  9.9956608041476336e-01  1.0000597394373858e+00  9.9458001525295836e-01  1.0036061653105459e+00  8.0320539683560099e-01  1.5016776734457146e-01  -3.4977201570935909e-02  1.8062511530146517e-02  8.2842558967942109e-03  -4.8482637356075508e-03  -3.4738868588190669e-03  3.2657877769292021e-04  1.0876223576689104e-03  1.4302457575976078e-04  -2.2178114368587391e-04  -1.7468773477445175e-05  4.0056929636129054e-05  -7.2212694420465628e-06  -3.7807273770308686e-06  2.5554750494621479e-06  -5.7462598150877456e-07  -8.4235026051225880e-08  1.2160135918723016e-07  -5.3567899815198244e-08  1.4106123635943604e-08  -1.3529753483728282e-09  -8.5417438630030688e-10  6.5978246044268925e-10  -2.7787677641134733e-10  1.0008538534341790e-10  -2.4720371957831358e-11  8.6785045278984825e-12  3.0738145442530200e-13  1.3498245765537411e-12  9.9471564669341653e-13  7.3321802973677056e-13  6.3005907009684725e-13  4.9387721649837370e-13  4.1053901159659379e-13  3.3548765708651808e-13  2.7816641725673196e-13  2.3080341042568249e-13  1.9245457823367299e-13  1.6090077705692267e-13  1.3489310259244378e-13  1.1334805349643177e-13  9.5444365591882373e-14  8.0513916113787030e-14  6.8041675169773533e-14  5.7614219498628702e-14  4.8876370465804384e-14  4.1567551423331519e-14  3.5444468660104507e-14  3.0344440915015486e-14  2.6112187568190594e-14  2.2618700287586690e-14  1.9780056398706440e-14  1.7485830932506755e-14  1.5692339805699907e-14  1.4346862861678592e-14  1.3425425569049827e-14  1.2869808114532775e-14  1.2701265659852000e-14  -1.4712065249173442e-02  -5.8928678800529807e-02  -6.4035642953477537e-02  -5.5515630177058753e-02  -4.4881290409107183e-02  -3.1337806980124061e-02  -1.7203459747858637e-02  -4.8991593494710339e-03  4.2244366400988652e-03  9.7931232040815060e-03  1.2172870295243636e-02  1.1921277454447128e-02  9.1622582082578168e-03  3.4229230379986173e-03  -6.1949477044535286e-03  -2.0445976335177720e-02  -3.8981484943572467e-02  -5.9384147852002654e-02  -7.7638801175800257e-02  -8.9736877234895721e-02  -9.2832513743015183e-02  -8.5698023374265589e-02  -6.8716139562776862e-02  -4.2994136936004457e-02  -1.0084605483127076e-02  2.8301455561211643e-02  7.0692572298255971e-02  1.1700738323741773e-01  1.7029351191549100e-01  2.3789838810803268e-01  3.3133854463552564e-01  4.6436033092087564e-01  6.4455157335912339e-01  8.5320302044676211e-01  1.0164829180310362e+00  1.0383192368844429e+00  9.9569910147839036e-01  9.9592244494346693e-01  1.0011413740020421e+00  9.9864248114492327e-01  1.0005181142064739e+00  9.9419812907532035e-01  9.9888583125647556e-01  9.7629895106878439e-01  5.3451060989465127e-01  3.7817648956426420e-02  -5.3662107212051634e-02  5.2287520436404330e-03  1.9241785686878680e-02  4.6545902939086883e-03  -4.2363473168610284e-03  -2.2727997110585235e-03  6.9840410803298470e-04  4.3375444681835934e-04  -1.7565836217172764e-04  -2.5552123180284480e-05  3.4819577038745359e-05  -1.0056321736031234e-05  -4.0371806321207437e-07  1.5733905376140965e-06  -7.6007735632319035e-07  2.1018260531210657e-07  -2.3638763767212001e-08  -1.1142265776945916e-08  9.0446529529932576e-09  -3.9643558995299291e-09  1.3649953894960488e-09  -3.8158955200500276e-10  9.6720869787298753e-11  -1.4941731748742371e-11  3.8505449402416327e-12  2.0395676972205139e-12  7.5980344118564894e-13  1.1433487810349666e-12  6.6751082039708524e-13  6.2829336857110085e-13  4.7809035514995292e-13  4.0086330603011779e-13  3.2653159119278283e-13  2.7078479625788906e-13  2.2455729186870498e-13  1.8718880564996579e-13  1.5645983066249982e-13  1.3115458154712752e-13  1.1020357121125307e-13  9.2796680932312722e-14  7.8290445129552016e-14  6.6193640215854603e-14  5.6091328260464975e-14  4.7637919748297515e-14  4.0595803518305801e-14  3.4716392284014099e-14  2.9846818247448228e-14  2.5820064635257689e-14  2.2558994164791338e-14  1.9918368561473746e-14  1.7871703761394371e-14  1.6328372177457679e-14  1.5263677802457816e-14  1.4631947027338375e-14  1.4444423968796791e-14  -6.7295677282120769e-04  1.0457571008977715e-02  1.7628827660371757e-02  1.6292669461105427e-02  1.3592490388267620e-02  1.0333666974796993e-02  6.5186156969064060e-03  2.9024176246691433e-03  -2.4300106538297662e-06  -1.9727033082469789e-03  -3.0208040787749460e-03  -3.2922011588645567e-03  -2.8920729918235546e-03  -1.7725808865263948e-03  2.6356979491981396e-04  3.4665992588724334e-03  7.9318671106937012e-03  1.3307352391901131e-02  1.8702896184407781e-02  2.3008237472582269e-02  2.5298939459436155e-02  2.5047680146693327e-02  2.2190370411070443e-02  1.6988774077688985e-02  9.8601187295969638e-03  1.3144836219117712e-03  -8.1224017736228737e-03  -1.8073732802691173e-02  -2.8610162785242355e-02  -4.0417006055260295e-02  -5.4421162437525511e-02  -7.0277304552151670e-02  -8.1469248359456237e-02  -6.1512178317982398e-02  6.4962511102943474e-02  4.1576263379587941e-01  8.7350890744647924e-01  1.0118607327037039e+00  9.8835967834826077e-01  1.0013980335006167e+00  9.9870571789773910e-01  9.9998192650218432e-01  9.9989598533215640e-01  9.8852503522414570e-01  1.0215467759649730e+00  9.8046912258106123e-01  6.0279303935532447e-01  1.4180997016006000e-01  -5.8285318589541162e-02  -4.3823916373692741e-02  7.0122822203178134e-03  1.5260521190713344e-02  8.3486579066223941e-04  -3.0707247435513077e-03  1.9400253302801263e-04  4.3161632757940301e-04  -1.6961441442876339e-04  7.5117311308233580e-06  1.9701288457340174e-05  -1.0753916123895729e-05  3.1450147326823651e-06  -4.0181709726407632e-07  -1.4192021249428723e-07  1.2500457769008759e-07  -5.5865930171619976e-08  1.9166221130187854e-08  -5.4404155875618981e-09  1.3139432797319925e-09  -2.4151690146756761e-10  2.9000405173387481e-11  9.7513784504129791e-12  -4.0243600722024470e-12  4.3967406362401378e-12  9.1435247641584402e-14  1.3227069634850782e-12  6.1777198842521488e-13  6.3569663596490817e-13  4.7244969422354747e-13  3.9794842469680280e-13  3.2364464966341421e-13  2.6816284342963868e-13  2.2232634034455127e-13  1.8520738044613867e-13  1.5476386299269601e-13  1.2968684199942849e-13  1.0896289571727312e-13  9.1759794115295130e-14  7.7427669878828019e-14  6.5505289340881602e-14  5.5573936674055108e-14  4.7285601900344713e-14  4.0386793717494516e-14  3.4683398442321205e-14  2.9988039776380286e-14  2.6150882186914605e-14  2.3074100255804775e-14  2.0682861928122445e-14  1.8881023830798858e-14  1.7644411192081871e-14  1.6903715595192659e-14  1.6662480728431393e-14  5.1313148156790730e-04  -1.1658401023602338e-03  -4.0252786542154277e-03  -4.7174468365688439e-03  -4.0164493868293794e-03  -3.2252062416504405e-03  -2.2643206001986133e-03  -1.2450448642385085e-03  -3.5944199142715180e-04  2.9690443037852363e-04  6.9807747553564598e-04  8.7007897898104211e-04  8.5170431049081969e-04  6.5250104342235555e-04  2.3794460795513906e-04  -4.5693163526377945e-04  -1.4873912498808218e-03  -2.8265571598922721e-03  -4.3038859634747474e-03  -5.6377845863696671e-03  -6.5448041920454147e-03  -6.8256571349071061e-03  -6.4022974250145283e-03  -5.3068228491672271e-03  -3.6337419381709921e-03  -1.5086628776601872e-03  9.2682238335044156e-04  3.5451378450117926e-03  6.2993442155522099e-03  9.3014129773653434e-03  1.2807670701665556e-02  1.7055995154545915e-02  2.1527351174926043e-02  2.3151664412931788e-02  1.2593034211921476e-02  -3.0817622605236464e-02  1.5628867193185986e-02  5.6189465303369512e-01  1.0031003116152954e+00  9.8993867223346921e-01  1.0005650919359144e+00  9.9966118717977259e-01  9.9927109358273902e-01  1.0016739053381805e+00  9.9739417959740706e-01  9.8623612540860006e-01  1.0204710025605748e+00  1.0381289966753910e+00  8.4701399435818248e-01  4.6210364640744317e-01  9.7258485964415609e-02  -5.6469961439901149e-02  -2.6428311168647647e-02  1.2557132048250428e-02  4.0143504262190200e-03  -2.7413755844727574e-03  3.3928276114667693e-04  2.3226695388937305e-04  -1.5166243944655290e-04  4.7294064826676719e-05  -6.7460655467994346e-06  -1.7680972194342721e-06  1.7308728546063403e-06  -7.8695305060288363e-07  2.7048323916758321e-07  -7.6855900454548523e-08  1.8363752800484210e-08  -3.4365478300265957e-09  3.5561711356281906e-10  1.0440995631059272e-10  -8.0764481438791756e-11  4.2468574743704428e-11  -1.3248736095023631e-11  6.9454388928390729e-12  -5.4006555280193962e-13  1.4854150336009094e-12  5.9374222380800510e-13  6.4421007766425372e-13  4.7545719796996345e-13  3.9931126433938444e-13  3.2507354356373686e-13  2.6883634219619120e-13  2.2284211254124238e-13  1.8550843339564520e-13  1.5497081272197883e-13  1.2983655456175265e-13  1.0907826939175005e-13  9.1878125725490875e-14  7.7573811589125281e-14  6.5696731461209360e-14  5.5803886127534518e-14  4.7605941560301998e-14  4.0834209241638547e-14  3.5243546403850255e-14  3.0726511083549031e-14  2.7079923596138505e-14  2.4236259144319633e-14  2.2120758076133680e-14  2.0639497820021839e-14  1.9767588711715657e-14  1.9500419461805954e-14  -1.0208694781831951e-04  1.6671379333329525e-05  7.1672332218155059e-04  1.2419901842377619e-03  1.1919634470020082e-03  9.7192488067930312e-04  7.4029721099803372e-04  4.6883422938770388e-04  2.0854357588175773e-04  5.7651613730565796e-08  -1.4152085362720453e-04  -2.1705740233180843e-04  -2.3671144192807569e-04  -2.0797500425040699e-04  -1.2750979040082310e-