<?xml version="1.0"?>
<VTKFile type="UnstructuredGrid"  version="0.1"  >
<UnstructuredGrid>
<Piece  NumberOfPoints="639" NumberOfCells="1175">
<Points>
<DataArray  type="Float64"  NumberOfComponents="3"  format="ascii">1.321739130434783 0 0  1.338260869565217 0 0  1.338260869565217 0.01666666666666667 0  1.354782608695652 0 0  1.354782608695652 0.01666666666666667 0  1.371304347826087 0 0  1.371304347826087 0.01666666666666667 0  1.387826086956522 0 0  1.387826086956522 0.01666666666666667 0  1.404347826086957 0 0  1.404347826086957 0.01666666666666667 0  1.420869565217391 0 0  1.420869565217391 0.01666666666666667 0  1.437391304347826 0 0  1.437391304347826 0.01666666666666667 0  1.453913043478261 0 0  1.453913043478261 0.01666666666666667 0  1.470434782608696 0 0  1.470434782608696 0.01666666666666667 0  1.486956521739131 0 0  1.486956521739131 0.01666666666666667 0  1.503478260869565 0 0  1.503478260869565 0.01666666666666667 0  1.52 0 0  1.52 0.01666666666666667 0  1.536521739130435 0 0  1.536521739130435 0.01666666666666667 0  1.55304347826087 0 0  1.55304347826087 0.01666666666666667 0  1.569565217391304 0 0  1.569565217391304 0.01666666666666667 0  1.586086956521739 0 0  1.586086956521739 0.01666666666666667 0  1.602608695652174 0 0  1.602608695652174 0.01666666666666667 0  1.619130434782609 0 0  1.619130434782609 0.01666666666666667 0  1.635652173913043 0 0  1.635652173913043 0.01666666666666667 0  1.652173913043478 0 0  1.652173913043478 0.01666666666666667 0  1.668695652173913 0 0  1.668695652173913 0.01666666666666667 0  1.685217391304348 0 0  1.685217391304348 0.01666666666666667 0  1.701739130434782 0 0  1.701739130434782 0.01666666666666667 0  1.718260869565217 0 0  1.718260869565217 0.01666666666666667 0  1.734782608695652 0 0  1.734782608695652 0.01666666666666667 0  1.751304347826087 0 0  1.751304347826087 0.01666666666666667 0  1.767826086956522 0 0  1.767826086956522 0.01666666666666667 0  1.784347826086957 0 0  1.784347826086957 0.01666666666666667 0  1.800869565217391 0 0  1.800869565217391 0.01666666666666667 0  1.817391304347826 0 0  1.817391304347826 0.01666666666666667 0  1.833913043478261 0 0  1.833913043478261 0.01666666666666667 0  1.850434782608696 0 0  1.850434782608696 0.01666666666666667 0  1.86695652173913 0 0  1.86695652173913 0.01666666666666667 0  1.883478260869565 0 0  1.883478260869565 0.01666666666666667 0  1.354782608695652 0.03333333333333333 0  1.371304347826087 0.03333333333333333 0  1.387826086956522 0.03333333333333333 0  1.404347826086957 0.03333333333333333 0  1.420869565217391 0.03333333333333333 0  1.437391304347826 0.03333333333333333 0  1.453913043478261 0.03333333333333333 0  1.470434782608696 0.03333333333333333 0  1.486956521739131 0.03333333333333333 0  1.503478260869565 0.03333333333333333 0  1.52 0.03333333333333333 0  1.536521739130435 0.03333333333333333 0  1.55304347826087 0.03333333333333333 0  1.569565217391304 0.03333333333333333 0  1.586086956521739 0.03333333333333333 0  1.602608695652174 0.03333333333333333 0  1.619130434782609 0.03333333333333333 0  1.635652173913043 0.03333333333333333 0  1.652173913043478 0.03333333333333333 0  1.668695652173913 0.03333333333333333 0  1.685217391304348 0.03333333333333333 0  1.701739130434782 0.03333333333333333 0  1.718260869565217 0.03333333333333333 0  1.734782608695652 0.03333333333333333 0  1.751304347826087 0.03333333333333333 0  1.767826086956522 0.03333333333333333 0  1.784347826086957 0.03333333333333333 0  1.800869565217391 0.03333333333333333 0  1.817391304347826 0.03333333333333333 0  1.833913043478261 0.03333333333333333 0  1.850434782608696 0.03333333333333333 0  1.86695652173913 0.03333333333333333 0  1.883478260869565 0.03333333333333333 0  1.371304347826087 0.05 0  1.387826086956522 0.05 0  1.404347826086957 0.05 0  1.420869565217391 0.05 0  1.437391304347826 0.05 0  1.453913043478261 0.05 0  1.470434782608696 0.05 0  1.486956521739131 0.05 0  1.503478260869565 0.05 0  1.52 0.05 0  1.536521739130435 0.05 0  1.55304347826087 0.05 0  1.569565217391304 0.05 0  1.586086956521739 0.05 0  1.602608695652174 0.05 0  1.619130434782609 0.05 0  1.635652173913043 0.05 0  1.652173913043478 0.05 0  1.668695652173913 0.05 0  1.685217391304348 0.05 0  1.701739130434782 0.05 0  1.718260869565217 0.05 0  1.734782608695652 0.05 0  1.751304347826087 0.05 0  1.767826086956522 0.05 0  1.784347826086957 0.05 0  1.800869565217391 0.05 0  1.817391304347826 0.05 0  1.833913043478261 0.05 0  1.850434782608696 0.05 0  1.86695652173913 0.05 0  1.883478260869565 0.05 0  1.387826086956522 0.06666666666666667 0  1.404347826086957 0.06666666666666667 0  1.420869565217391 0.06666666666666667 0  1.437391304347826 0.06666666666666667 0  1.453913043478261 0.06666666666666667 0  1.470434782608696 0.06666666666666667 0  1.486956521739131 0.06666666666666667 0  1.503478260869565 0.06666666666666667 0  1.52 0.06666666666666667 0  1.536521739130435 0.06666666666666667 0  1.55304347826087 0.06666666666666667 0  1.569565217391304 0.06666666666666667 0  1.586086956521739 0.06666666666666667 0  1.602608695652174 0.06666666666666667 0  1.619130434782609 0.06666666666666667 0  1.635652173913043 0.06666666666666667 0  1.652173913043478 0.06666666666666667 0  1.668695652173913 0.06666666666666667 0  1.685217391304348 0.06666666666666667 0  1.701739130434782 0.06666666666666667 0  1.718260869565217 0.06666666666666667 0  1.734782608695652 0.06666666666666667 0  1.751304347826087 0.06666666666666667 0  1.767826086956522 0.06666666666666667 0  1.784347826086957 0.06666666666666667 0  1.800869565217391 0.06666666666666667 0  1.817391304347826 0.06666666666666667 0  1.833913043478261 0.06666666666666667 0  1.850434782608696 0.06666666666666667 0  1.86695652173913 0.06666666666666667 0  1.883478260869565 0.06666666666666667 0  1.404347826086957 0.08333333333333333 0  1.420869565217391 0.08333333333333333 0  1.437391304347826 0.08333333333333333 0  1.453913043478261 0.08333333333333333 0  1.470434782608696 0.08333333333333333 0  1.486956521739131 0.08333333333333333 0  1.503478260869565 0.08333333333333333 0  1.52 0.08333333333333333 0  1.536521739130435 0.08333333333333333 0  1.55304347826087 0.08333333333333333 0  1.569565217391304 0.08333333333333333 0  1.586086956521739 0.08333333333333333 0  1.602608695652174 0.08333333333333333 0  1.619130434782609 0.08333333333333333 0  1.635652173913043 0.08333333333333333 0  1.652173913043478 0.08333333333333333 0  1.668695652173913 0.08333333333333333 0  1.685217391304348 0.08333333333333333 0  1.701739130434782 0.08333333333333333 0  1.718260869565217 0.08333333333333333 0  1.734782608695652 0.08333333333333333 0  1.751304347826087 0.08333333333333333 0  1.767826086956522 0.08333333333333333 0  1.784347826086957 0.08333333333333333 0  1.800869565217391 0.08333333333333333 0  1.817391304347826 0.08333333333333333 0  1.833913043478261 0.08333333333333333 0  1.850434782608696 0.08333333333333333 0  1.86695652173913 0.08333333333333333 0  1.883478260869565 0.08333333333333333 0  1.420869565217391 0.1 0  1.437391304347826 0.1 0  1.453913043478261 0.1 0  1.470434782608696 0.1 0  1.486956521739131 0.1 0  1.503478260869565 0.1 0  1.52 0.1 0  1.536521739130435 0.1 0  1.55304347826087 0.1 0  1.569565217391304 0.1 0  1.586086956521739 0.1 0  1.602608695652174 0.1 0  1.619130434782609 0.1 0  1.635652173913043 0.1 0  1.652173913043478 0.1 0  1.668695652173913 0.1 0  1.685217391304348 0.1 0  1.701739130434782 0.1 0  1.718260869565217 0.1 0  1.734782608695652 0.1 0  1.751304347826087 0.1 0  1.767826086956522 0.1 0  1.784347826086957 0.1 0  1.800869565217391 0.1 0  1.817391304347826 0.1 0  1.833913043478261 0.1 0  1.850434782608696 0.1 0  1.86695652173913 0.1 0  1.883478260869565 0.1 0  1.437391304347826 0.1166666666666667 0  1.453913043478261 0.1166666666666667 0  1.470434782608696 0.1166666666666667 0  1.486956521739131 0.1166666666666667 0  1.503478260869565 0.1166666666666667 0  1.52 0.1166666666666667 0  1.536521739130435 0.1166666666666667 0  1.55304347826087 0.1166666666666667 0  1.569565217391304 0.1166666666666667 0  1.586086956521739 0.1166666666666667 0  1.602608695652174 0.1166666666666667 0  1.619130434782609 0.1166666666666667 0  1.635652173913043 0.1166666666666667 0  1.652173913043478 0.1166666666666667 0  1.668695652173913 0.1166666666666667 0  1.685217391304348 0.1166666666666667 0  1.701739130434782 0.1166666666666667 0  1.718260869565217 0.1166666666666667 0  1.734782608695652 0.1166666666666667 0  1.751304347826087 0.1166666666666667 0  1.767826086956522 0.1166666666666667 0  1.784347826086957 0.1166666666666667 0  1.800869565217391 0.1166666666666667 0  1.817391304347826 0.1166666666666667 0  1.833913043478261 0.1166666666666667 0  1.850434782608696 0.1166666666666667 0  1.86695652173913 0.1166666666666667 0  1.883478260869565 0.1166666666666667 0  1.453913043478261 0.1333333333333333 0  1.470434782608696 0.1333333333333333 0  1.486956521739131 0.1333333333333333 0  1.503478260869565 0.1333333333333333 0  1.52 0.1333333333333333 0  1.536521739130435 0.1333333333333333 0  1.55304347826087 0.1333333333333333 0  1.569565217391304 0.1333333333333333 0  1.586086956521739 0.1333333333333333 0  1.602608695652174 0.1333333333333333 0  1.619130434782609 0.1333333333333333 0  1.635652173913043 0.1333333333333333 0  1.652173913043478 0.1333333333333333 0  1.668695652173913 0.1333333333333333 0  1.685217391304348 0.1333333333333333 0  1.701739130434782 0.1333333333333333 0  1.718260869565217 0.1333333333333333 0  1.734782608695652 0.1333333333333333 0  1.751304347826087 0.1333333333333333 0  1.767826086956522 0.1333333333333333 0  1.784347826086957 0.1333333333333333 0  1.800869565217391 0.1333333333333333 0  1.817391304347826 0.1333333333333333 0  1.833913043478261 0.1333333333333333 0  1.850434782608696 0.1333333333333333 0  1.86695652173913 0.1333333333333333 0  1.883478260869565 0.1333333333333333 0  1.470434782608696 0.15 0  1.486956521739131 0.15 0  1.503478260869565 0.15 0  1.52 0.15 0  1.5365217391304
[...]
<CellData  Scalars="rho_bar"> 
<DataArray  type="Float64"  Name="rho_bar"  format="ascii">7.3052921934398429e-01   7.2799974245565446e-01   7.2296199779023806e-01   7.2541051898154296e-01   7.2036057417827293e-01   7.2280670529642754e-01   7.1772038414543127e-01   7.2022440274153054e-01   7.1508326943521638e-01   7.1768690074258334e-01   7.1247972628205647e-01   7.1520097658276249e-01   7.0992412435805063e-01   7.1275756396157730e-01   7.0741395362184178e-01   7.1033553064391319e-01   7.0493180484514106e-01   7.0790988490113460e-01   7.0245364827783219e-01   7.0545633476683234e-01   6.9995494209415154e-01   7.0295351572880060e-01   6.9741436439958215e-01   7.0038079211503479e-01   6.9481179795280246e-01   6.9771930462542853e-01   6.9212788352025134e-01   6.9495589737627073e-01   6.8934654644161752e-01   6.9208947299609691e-01   6.8646218514649915e-01   6.8913129986259147e-01   6.8348261732077209e-01   6.8610119875697662e-01   6.8042690063439848e-01   6.8301844984803761e-01   6.7731708358510290e-01   6.7989193348013022e-01   6.7416870452160493e-01   6.7670792633591792e-01   6.7097887436720993e-01   6.7341978729202756e-01   6.6771580297080402e-01   6.6994031983221591e-01   6.6430977619347908e-01   6.6614911940927712e-01   6.6065483388484214e-01   6.6193912051082859e-01   6.5663504274755080e-01   6.5733491102164865e-01   6.5220761972731356e-01   6.5255152572900543e-01   6.4750759546017478e-01   6.4783858421019835e-01   6.4278954213538042e-01   6.4335710035820992e-01   6.3824780532081793e-01   6.3920532816296405e-01   6.3399783198236404e-01   6.3544141298050094e-01   6.3011359610751017e-01   6.3208169713376861e-01   6.2663047759101498e-01   6.2909254467038589e-01   6.2353531007831742e-01   6.2640325533832919e-01   6.2076790364310042e-01   6.9835206855591947e-01   6.9562659354976308e-01   6.7833782411778876e-01   6.9283953189593639e-01   6.7548008185862429e-01   6.9003948058600073e-01   6.7256842003445927e-01   6.8726133957634927e-01   6.6965024442921373e-01   6.8452114218549587e-01   6.6675503443500872e-01   6.8181385415292317e-01   6.6388873382378333e-01   6.7912016983968770e-01   6.6103785014415006e-01   6.7641709844474773e-01   6.5818040438469438e-01   6.7368574804327908e-01   6.5529822922015046e-01   6.7090988502337523e-01   6.5237794197316901e-01   6.6807206634512917e-01   6.4940609149080486e-01   6.6515198206797399e-01   6.4636379760986851e-01   6.6213504718209582e-01   6.4323272939018361e-01   6.5902138498816210e-01   6.4000696793938072e-01   6.5582814291342117e-01   6.3670059520568090e-01   6.5258246160361311e-01   6.3334242109753480e-01   6.4931264007789913e-01   6.2996671784823699e-01   6.4603643972455826e-01   6.2660131290752119e-01   6.4275085554377609e-01   6.2325727747122783e-01   6.3942135605489869e-01   6.1991812598090335e-01   6.3597665704967887e-01   6.1653305265211245e-01   6.3231324636791331e-01   6.1301585711561213e-01   6.2833308499384277e-01   6.0926643339767661e-01   6.2402609540681775e-01   6.0522785249195854e-01   6.1953196097003571e-01   6.0096160379554653e-01   6.1505676219995620e-01   5.9663887751564049e-01   6.1075937160058280e-01   5.9242479285649308e-01   6.0674083064675222e-01   5.8842980715267901e-01   6.0307569816481554e-01   5.8473817330207745e-01   5.9980298742745342e-01   5.8141234365790884e-01   5.9690003797905178e-01   5.7846292704823954e-01   5.9429444727920311e-01   5.7583458246084718e-01   6.2895292140063341e-01   6.2587992006532656e-01   5.9640134262059441e-01   6.2270424699464189e-01   5.9314337756395497e-01   6.1948879097835030e-01   5.8979063664588727e-01   6.1627250235196607e-01   5.8640301260355909e-01   6.1306194555403304e-01   5.8300662375074985e-01   6.0984000516029535e-01   5.7959332315772083e-01   6.0659030191045615e-01   5.7614576742792378e-01   6.0330725808674657e-01   5.7265928366778140e-01   5.9999171335195212e-01   5.6914199303425528e-01   5.9663588217315267e-01   5.6559765130676787e-01   5.9321769334651098e-01   5.6201127039192766e-01   5.8971709161879970e-01   5.5835749896454889e-01   5.8613808547715140e-01   5.5462992096232178e-01   5.8250995284127360e-01   5.5085378638792404e-01   5.7887738540529854e-01   5.4707727742329038e-01   5.7528664940411056e-01   5.4335525607032187e-01   5.7177470885731874e-01   5.3973699103818462e-01   5.6835854888512016e-01   5.3625514484227743e-01   5.6502773577004650e-01   5.3291862087388786e-01   5.6173744534433212e-01   5.2970490826718264e-01   5.5840637835531737e-01   5.2655358792031348e-01   5.5494332186198336e-01   5.2337468421838151e-01   5.5130952595230753e-01   5.2009670063834434e-01   5.4755402702809108e-01   5.1671491980523454e-01   5.4378473731735621e-01   5.1329374283459972e-01   5.4011056868432539e-01   5.0992025702891586e-01   5.3661668783240679e-01   5.0667185381004154e-01   5.3337876624237490e-01   5.0361545969893950e-01   5.3046558902083885e-01   5.0082325118768267e-01   5.2788466360203035e-01   4.9833747280205964e-01   5.2557243784313135e-01   4.9612420885132635e-01   5.2574271391983318e-01   5.2229874368779206e-01   4.8475695776942457e-01   5.1870538516561771e-01   4.8116740916246881e-01   5.1504076906433405e-01   4.7744842525654901e-01   5.1133181600058830e-01   4.7365770614577607e-01   5.0756263393554368e-01   4.6979479472452024e-01   5.0372499307506668e-01   4.6584388296137191e-01   4.9983888389820447e-01   4.6182216003723009e-01   4.9593799733109689e-01   4.5777384883890709e-01   4.9203772926185846e-01   4.5373659628084911e-01   4.8811380805014259e-01   4.4970484795442262e-01   4.8413640751747838e-01   4.4564285259379421e-01   4.8011424258045088e-01   4.4154110760112425e-01   4.7609543261654347e-01   4.3744118206286664e-01   4.7214725749625641e-01   4.3341368296950833e-01   4.6833888843733590e-01   4.2953607170657127e-01   4.6472864061167540e-01   4.2587742537316198e-01   4.6135684860536974e-01   4.2249099592053013e-01   4.5824004801184232e-01   4.1940872869641410e-01   4.5536531172387718e-01   4.1663713341768643e-01   4.5267467027069325e-01   4.1414334112941570e-01   4.5007341073845614e-01   4.1184407078160024e-01   4.4749190694320917e-01   4.0964573036693219e-01   4.4490848898102686e-01   4.0749503797683251e-01   4.4233639222252130e-01   4.0537385661161973e-01   4.3981402108489953e-01   4.0329128379181189e-01   4.3738522178694350e-01   4.0127469166675428e-01   4.3509722880608959e-01   3.9935643000012494e-01   4.3300684536049078e-01   3.9757736087860435e-01   4.3114152008047252e-01   3.9597615639836392e-01   4.2946110243531455e-01   3.9453948205987471e-01   4.0615797425868111e-01   4.0258914096278436e-01   3.6584537501856440e-01   3.9884584212099761e-01   3.6224842907836596e-01   3.9498767586667127e-01   3.5849299087952674e-01   3.9100152258261028e-01   3.5459546874770964e-01   3.8688355006753344e-01   3.5053975597721937e-01   3.8268211510795297e-01   3.4636019092770248e-01   3.7847201570757882e-01   3.4213739829748185e-01   3.7430573641402515e-01   3.3794948638385897e-01   3.7016910124362595e-01   3.3381775488103815e-01   3.6602125924728157e-01   3.2970483522044702e-01   3.6187436444961163e-01   3.2559753088563986e-01   3.5779358524363536e-01   3.2154888914245439e-01   3.5386422525324113e-01   3.1764454207878068e-01   3.5016952910607846e-01   3.1397192678917635e-01   3.4678003510730782e-01   3.1060740452739455e-01   3.4374838249564837e-01   3.0761026276340597e-01   3.4110718007267282e-01   3.0502105895061837e-01   3.3886429232706267e-01   3.0285855609528428e-01   3.3698574220154692e-01   3.0111014938309710e-01   3.3538237743694743e-01   2.9971133843161202e-01   3.3396077545446579e-01   2.9856279586213474e-01   3.3265938200598305e-01   2.9758698548130541e-01   3.3143400780601001e-01   2.9672803279390708e-01   3.3026546768273518e-01   2.9594527437101270e-01   3.2915524513515881e-01   2.9522304993038279e-01   3.2811392932445510e-01   2.9455794579396111e-01   3.2716030721979988e-01   2.9395387819066915e-01   3.2630313044662296e-01   2.9341580595632832e-01   3.2551522144217487e-01   2.9292748319622819e-01   2.9691152486682981e-01   2.9353321214943301e-01   2.6510217760169114e-01   2.8994591699917416e-01   2.6173511112571096e-01   2.8616280560565155e-01   2.5814876035277295e-01   2.8218549690075201e-01   2.5434552587186143e-01   2.7807680726949030e-01   2.5036760947618075e-01   2.7393622306478160e-01   2.4630996849108011e-01   2.6984792529553980e-01   2.4227185527891262e-01   2.6583161212936984e-01   2.3830953698984483e-01   2.6185864342472853e-01   2.3441639266789038e-01   2.5794074752594276e-01   2.3058593534276312e-01   2.5414700001371782e-01   2.2687054026053510e-01   2.5056443586698873e-01   2.2335259672471217e-01   2.4727444618310157e-01   2.2011318148097114e-01   2.4434391866753513e-01   2.1722060384892478e-01   2.4182267820567521e-01   2.1472703447472097e-01   2.3974237478506788e-01   2.1266729550253707e-01   2.3811388750816781e-01   2.1105764317440734e-01   2.3691712329743178e-01   2.0989063094596577e-01   2.3608761639810630e-01   2.0912451044323119e-01   2.3553919922410885e-01   2.0868384886779376e-01   2.3520017234422885e-01   2.0849406567874759e-01   2.3501015983903328e-01   2.0849405543591590e-01   2.3492066172403109e-01   2.0862726380265131e-01   2.3490113504063190e-01   2.0885148693480568e-01   2.3493174547512213e-01   2.0913670284115998e-01   2.3499810547753988e-01   2.0945883224913023e-01   2.3508240513979078e-01   2.0979531486457054e-01   2.3515233736240937e-01   2.1011567655743876e-01   2.1524596236366575e-01   2.1208767965443057e-01   1.9363955079845402e-01   2.0866180488666228e-01   1.9041580681397768e-01   2.0500097609514178e-01   1.8692900354237371e-01   2.0117342249387007e-01   1.8323792645478337e-01   1.9728059959327793e-01   1.7943756525122762e-01   1.9341595051053342e-01   1.7562780777046555e-01   1.8963217235770027e-01   1.7188287128979585e-01   1.8594021304588459e-01   1.6823663910225345e-01   1.8236192816823313e-01   1.6470797847165003e-01   1.7895746649514424e-01   1.6134499117052306e-01   1.7580103934721450e-01   1.5821616625512955e-01   1.7296048540282719e-01   1.5538735057504247e-01   1.7049034149957010e-01   1.5291317861272630e-01   1.6842975151183606e-01   1.5083397397797765e-01   1.6680197494785914e-01   1.4917513012481137e-01   1.6561299712450311e-01   1.4794649085289985e-01   1.6484753196953988e-01   1.4714056255378588e-01   1.6446396854471079e-01   1.4672908547355640e-01   1.6440246638719325e-01   1.4666353261221257e-01   1.6460277832725381e-01   1.4688808059912095e-01   1.6500777493942526e-01   1.4734901884260543e-01   1.6556237075381386e-01   1.4799133035728732e-01   1.6621969431811112e-01   1.4876322127249150e-01   1.6694102966833332e-01   1.4962036760709407e-01   1.6769159479226461e-01   1.5052313598642003e-01   1.6843584038401066e-01   1.5143296246285987e-01   1.6913361509948244e-01   1.5230888079519850e-01   1.6207073579353137e-01   1.5891523812399699e-01   1.4857954043539034e-01   1.5548603493372032e-01   1.4527769085158657e-01   1.5186876458987988e-01   1.4174621581649136e-01   1.4816344262425843e-01   1.3808551479845832e-01   1.4446413579939738e-01   1.3439584278106728e-01   1.4084056219398361e-01   1.3075985193669157e-01   1.3733688200685229e-01   1.2723608563415709e-01   1.3399350943348207e-01   1.2386856941861193e-01   1.3086428973677888e-01   1.2070725833022163e-01   1.2800885823577451e-01   1.1780908689322084e-01   1.2548075245583129e-01   1.1522691169746441e-01   1.2332207396706756e-01   1.1300358292791844e-01   1.2156162558256059e-01   1.1116947316521458e-01   1.2021460298348398e-01   1.0974190540685806e-01   1.1928263057317025e-01   1.0872556691896687e-01   1.1875288599764379e-01   1.0811265173385624e-01   1.1859726407852376e-01   1.0788245497405088e-01   1.1877579574724469e-01   1.0800219731900110e-01   1.1924339956113815e-01   1.0843172902418180e-01   1.1995183703585402e-01   1.0912716441746154e-01   1.2084891996453483e-01   1.1003969410463280e-01   1.2188303592323607e-01   1.1111728606263550e-01   1.2300694638913347e-01   1.1231014456702298e-01   1.2417591906006432e-01   1.1357123594817202e-01   1.2534493195402210e-01   1.1485389710166315e-01   1.2646725847281856e-01   1.1611007803041005e-01   1.3066011230569619e-01   1.2727551094537176e-01   1.2272077616823160e-01   1.2367478299541687e-01   1.1913845323875570e-01   1.1996798907774368e-01   1.1540485507156496e-01   1.1625594786513384e-01   1.1163013023409306e-01   1.1262101004472365e-01   1.0790839168385294e-01   1.0912644571356123e-01   1.0431383967812320e-01   1.0582660761120252e-01   1.0090620816712717e-01   1.0277529355874127e-01   9.7740522321187545e-02   1.0002427384931206e-01   9.4869307975282952e-02   9.7617975431152054e-02   9.2338424418171430e-02   9.5589996524256801e-02   9.0183537728442301e-02   9.3961555675373024e-02   8.8428191549733928e-02   9.2741743836670873e-02   8.7083684160640440e-02   9.1928856274737472e-02   8.6150480871308333e-02   9.1511462780016706e-02   8.5620071103899797e-02   9.1468598744389687e-02   8.5475666855167221e-02   9.1771038794735318e-02   8.5692514368786207e-02   9.2383427975268523e-02   8.6239164484848391e-02   9.3264983657887823e-02   8.7078553073490744e-02   9.4368749522612635e-02   8.8167444072406773e-02   9.5643918243163678e-02   8.9456794409689247e-02   9.7039771769712804e-02   9.0895294808378907e-02   9.8506304411354190e-02   9.2431695322172561e-02   9.9992671974881320e-02   9.4013964448899229e-02   1.0144618654146682e-01   9.5588126015067623e-02   1.1415182062872566e-01   1.1033340883624705e-01   1.0978354149851659e-01   1.0638758382608587e-01   1.0573222570929887e-01   1.0243204254270119e-01   1.0163042715200507e-01   9.8564635122207866e-02   9.7590210905191543e-02   9.4862840684761876e-02   9.3700974239841250e-02   9.1391047227441458e-02   9.0034085870650038e-02   8.8206387205611927e-02   8.6650777020669048e-02   8.5358885973805518e-02   8.3604426958228201e-02   8.2889162251574569e-02   8.0938956166599754e-02   8.0826135024198567e-02   7.8686679161206002e-02   7.9185889552725472e-02   7.6866880013352373e-02   7.7972334661580434e-02   7.5485856969521828e-02   7.7180350002211170e-02   7.4539681394596907e-02   7.6798448955551019e-02   7.4018044396816043e-02   7.6809020842948578e-02   7.3905683675907829e-02   7.7188070229295469e-02   7.4181589186480240e-02   7.7905443607381428e-02   7.4818646293984659e-02   7.8924679702241790e-02   7.5783452120581449e-02   8.0202564143658867e-02   7.7035879265224066e-02   8.1689991154082958e-02   7.8528973141908945e-02   8.3334431098110409e-02   8.0210676990951413e-02   8.5081389420709044e-02   8.2025787009976744e-02   8.6874641955693332e-02   8.3916789450245652e-02   8.8655113210822770e-02   8.5823457217808236e-02   1.0738550726176918e-01   1.0295301070180433e-01   1.0512694686608577e-01   9.8509540151079253e-02   1.0045512340533430e-01   9.4174504371472165e-02   9.5860509758965748e-02   9.0040366545088207e-02   9.1451321895999652e-02   8.6181436443917236e-02   8.7311057959342617e-02   8.2660623709423703e-02   8.3508716901133775e-02   7.9530113813387066e-02   8.0101856503202132e-02   7.6830001375482765e-02   7.7135399418010106e-02   7.4587028368773747e-02   7.4640479849520450e-02   7.2813842703969497e-02   7.2633733011302784e-02   7.1509627708107384e-02   7.1117440054050560e-02   7.0664756181651744e-02   7.0082680371051989e-02   7.0266146991491349e-02   6.9515855226923884e-02   7.0297175281296503e-02   6.9401332410610181e-02   7.0736076252466237e-02   6.9719392885478182e-02   7.1554993957137478e-02   7.0444569798825823e-02   7.2719445275922709e-02   7.1544912961288121e-02   7.4187664139210213e-02   7.2981261925133462e-02   7.5910640960872036e-02   7.4706724066455676e-02   7.7833211035998121e-02   7.6667038153971703e-02   7.9895627036399561e-02   7.8802003812869142e-02   8.2034784286551837e-02   8.1046942269138306e-02   8.4184204584500016e-02   8.3333710616053186e-02   1.0643258346038735e-01   1.0128503156039463e-01   1.0509013350655790e-01   9.6271586662617537e-02   9.9749926677601908e-02   9.1504702100446381e-02   9.4636732812983751e-02   8.7070650156815976e-02   8.9849948847839131e-02   8.3040174366446201e-02   8.5468345324892794e-02   7.9469694387708179e-02   8.1555358990014148e-02   7.6400393213110082e-02   7.8158216680341966e-02   7.3857566720871806e-02   7.5307364544734440e-02   7.1851237458557454e-02   7.3017046191070176e-02   7.0377122410752696e-02   7.1286706167733943e-02   6.9421004276632559e-02   7.0103665018710681e-02   6.8966399593682351e-02   6.9450125945016039e-02   6.8995733251879965e-02   6.9308188705007115e-02   6.9487315523186224e-02   6.9657329732186246e-02   7.0413628805142972e-02   7.0471782128411015e-02   7.1740312179394999e-02   7.1719247453780804e-02   7.3425291835370735e-02   7.3359933048306694e-02   7.5417831650769318e-02   7.5345322498589662e-02   7.7658687132027893e-02   7.7617570580902781e-02   8.0081338626134493e-02   8.0110180598473912e-02   8.2613891065661693e-02   8.2749817444805265e-02   8.5180048854562707e-02   8.5457940617531439e-02   1.0789660626976386e-01   1.0208426613286824e-01   1.0642444175102876e-01   9.6566741670119152e-02   1.0053468789906210e-01   9.1447086982620482e-02   9.5030998342070364e-02   8.6805382995694444e-02   9.0004508715688505e-02   8.2702945061255556e-02   8.5525061322578186e-02   7.9182075751577666e-02   8.1641956122196796e-02   7.6266685722014713e-02   7.8384873209934841e-02   7.3963935886403834e-02   7.5765475715305924e-02   7.2267155222770593e-02   7.3780602109042484e-02   7.1159490091467381e-02   7.2415705100965455e-02   7.0620844659846388e-02   7.1650114275398066e-02   7.0630782148740162e-02   7.1462530996653062e-02   7.1165905861117762e-02   7.1829996489015349e-02   7.2197362643702231e-02   7.2724885978343701e-02   7.3689491213436292e-02   7.4113254658894206e-02   7.5598421634899146e-02   7.5953318718027032e-02   7.7870612625162469e-02   7.8193913060014983e-02   8.0441989125189836e-02   8.0773044895497068e-02   8.3238860288274194e-02   8.3618027547675639e-02   8.6179750931865390e-02   8.6646974944350891e-02   8.9177031528339376e-02   8.9770725306314664e-02   1.0872763815969284e-01   1.0249834507554999e-01   1.0634221109649042e-01   9.6724970693017859e-02   1.0021723639592910e-01   9.1498711041656827e-02   9.4629733161515753e-02   8.6885360569450454e-02   8.9655701153835435e-02   8.2927843377768401e-02   8.5345992580844354e-02   7.9648434973513454e-02   8.1729129314396257e-02   7.7051890084647551e-02   7.8814741612392353e-02   7.5129380711724023e-02   7.6597460156461780e-02   7.3862935753147313e-02   7.5061570729049606e-02   7.3230300824412092e-02   7.4185237717277489e-02   7.3207976569415398e-02   7.3944597941612525e-02   7.3769865222578709e-02   7.4313904070069034e-02   7.4884988425281102e-02   7.5263298992989724e-02   7.6515485944630202e-02   7.6756689786551285e-02   7.8614885124966824e-02   7.8749837541721976e-02   8.1126294154557771e-02   8.1188479801018870e-02   8.3981353141937304e-02   8.4006996686613475e-02   8.7100421376045831e-02   8.7127995946538028e-02   9.0394185813156100e-02   9.0463402628111450e-02   9.3765106125105357e-02   9.3915934616074920e-02   1.0669425767327002e-01   1.0047477333154102e-01   1.0310535654980837e-01   9.4847198565783289e-02   9.7198438254301606e-02   8.9881220050481853e-02   9.1940821675792248e-02   8.5619914090070540e-02   8.7384223387838494e-02   8.2084177939130587e-02   8.3556216012213594e-02   7.9277079832756406e-02   8.0464953135946288e-02   7.7188622261633005e-02   7.8104064951588156e-02   7.5800260323564059e-02   7.6457313387793990e-02   7.5089042669935352e-02   7.5502809631148887e-02   7.5029657854474560e-02   7.5215746675680414e-02   7.5594102808955954e-02   7.5568939039501515e-02   7.6749649948944440e-02   7.6531187672176565e-02   7.8456612650065885e-02   7.8065078971063545e-02   8.0666029153596899e-02   8.0124467606735320e-02   8.3318186571095160e-02   8.2652737935081766e-02   8.6341768997476170e-02   8.5581874945590219e-02   8.9654002040320410e-02   8.8832454174086889e-02   9.3161396943982289e-02   9.2314048134518406e-02   9.6760925638616477e-02   9.5926196753746223e-02   9.9559238058452931e-02   1.01044505