<?xml version="1.0"?>
<VTKFile type="UnstructuredGrid"  version="0.1"  >
<UnstructuredGrid>
<Piece  NumberOfPoints="607" NumberOfCells="1112">
<Points>
<DataArray  type="Float64"  NumberOfComponents="3"  format="ascii">0.4130434782608696 0 0  0.4295652173913043 0 0  0.4295652173913043 0.01666666666666667 0  0.4460869565217391 0 0  0.4460869565217391 0.01666666666666667 0  0.4626086956521739 0 0  0.4626086956521739 0.01666666666666667 0  0.4791304347826086 0 0  0.4791304347826086 0.01666666666666667 0  0.4956521739130435 0 0  0.4956521739130435 0.01666666666666667 0  0.5121739130434783 0 0  0.5121739130434783 0.01666666666666667 0  0.528695652173913 0 0  0.528695652173913 0.01666666666666667 0  0.5452173913043478 0 0  0.5452173913043478 0.01666666666666667 0  0.5617391304347825 0 0  0.5617391304347825 0.01666666666666667 0  0.5782608695652174 0 0  0.5782608695652174 0.01666666666666667 0  0.5947826086956521 0 0  0.5947826086956521 0.01666666666666667 0  0.6113043478260869 0 0  0.6113043478260869 0.01666666666666667 0  0.6278260869565218 0 0  0.6278260869565218 0.01666666666666667 0  0.6443478260869565 0 0  0.6443478260869565 0.01666666666666667 0  0.6608695652173913 0 0  0.6608695652173913 0.01666666666666667 0  0.677391304347826 0 0  0.677391304347826 0.01666666666666667 0  0.6939130434782609 0 0  0.6939130434782609 0.01666666666666667 0  0.7104347826086956 0 0  0.7104347826086956 0.01666666666666667 0  0.4460869565217391 0.03333333333333333 0  0.4626086956521739 0.03333333333333333 0  0.4791304347826086 0.03333333333333333 0  0.4956521739130435 0.03333333333333333 0  0.5121739130434783 0.03333333333333333 0  0.528695652173913 0.03333333333333333 0  0.5452173913043478 0.03333333333333333 0  0.5617391304347825 0.03333333333333333 0  0.5782608695652174 0.03333333333333333 0  0.5947826086956521 0.03333333333333333 0  0.6113043478260869 0.03333333333333333 0  0.6278260869565218 0.03333333333333333 0  0.6443478260869565 0.03333333333333333 0  0.6608695652173913 0.03333333333333333 0  0.677391304347826 0.03333333333333333 0  0.6939130434782609 0.03333333333333333 0  0.7104347826086956 0.03333333333333333 0  0.4626086956521739 0.05 0  0.4791304347826086 0.05 0  0.4956521739130435 0.05 0  0.5121739130434783 0.05 0  0.528695652173913 0.05 0  0.5452173913043478 0.05 0  0.5617391304347825 0.05 0  0.5782608695652174 0.05 0  0.5947826086956521 0.05 0  0.6113043478260869 0.05 0  0.6278260869565218 0.05 0  0.6443478260869565 0.05 0  0.6608695652173913 0.05 0  0.677391304347826 0.05 0  0.6939130434782609 0.05 0  0.7104347826086956 0.05 0  0.7269565217391304 0.05 0  0.4791304347826086 0.06666666666666667 0  0.4956521739130435 0.06666666666666667 0  0.5121739130434783 0.06666666666666667 0  0.528695652173913 0.06666666666666667 0  0.5452173913043478 0.06666666666666667 0  0.5617391304347825 0.06666666666666667 0  0.5782608695652174 0.06666666666666667 0  0.5947826086956521 0.06666666666666667 0  0.6113043478260869 0.06666666666666667 0  0.6278260869565218 0.06666666666666667 0  0.6443478260869565 0.06666666666666667 0  0.6608695652173913 0.06666666666666667 0  0.677391304347826 0.06666666666666667 0  0.6939130434782609 0.06666666666666667 0  0.7104347826086956 0.06666666666666667 0  0.7269565217391304 0.06666666666666667 0  0.7434782608695653 0.06666666666666667 0  0.4956521739130435 0.08333333333333333 0  0.5121739130434783 0.08333333333333333 0  0.528695652173913 0.08333333333333333 0  0.5452173913043478 0.08333333333333333 0  0.5617391304347825 0.08333333333333333 0  0.5782608695652174 0.08333333333333333 0  0.5947826086956521 0.08333333333333333 0  0.6113043478260869 0.08333333333333333 0  0.6278260869565218 0.08333333333333333 0  0.6443478260869565 0.08333333333333333 0  0.6608695652173913 0.08333333333333333 0  0.677391304347826 0.08333333333333333 0  0.6939130434782609 0.08333333333333333 0  0.7104347826086956 0.08333333333333333 0  0.7269565217391304 0.08333333333333333 0  0.7434782608695653 0.08333333333333333 0  0.7599999999999999 0.08333333333333333 0  0.5121739130434783 0.1 0  0.528695652173913 0.1 0  0.5452173913043478 0.1 0  0.5617391304347825 0.1 0  0.5782608695652174 0.1 0  0.5947826086956521 0.1 0  0.6113043478260869 0.1 0  0.6278260869565218 0.1 0  0.6443478260869565 0.1 0  0.6608695652173913 0.1 0  0.677391304347826 0.1 0  0.6939130434782609 0.1 0  0.7104347826086956 0.1 0  0.7269565217391304 0.1 0  0.7434782608695653 0.1 0  0.7599999999999999 0.1 0  0.7765217391304348 0.1 0  0.528695652173913 0.1166666666666667 0  0.5452173913043478 0.1166666666666667 0  0.5617391304347825 0.1166666666666667 0  0.5782608695652174 0.1166666666666667 0  0.5947826086956521 0.1166666666666667 0  0.6113043478260869 0.1166666666666667 0  0.6278260869565218 0.1166666666666667 0  0.6443478260869565 0.1166666666666667 0  0.6608695652173913 0.1166666666666667 0  0.677391304347826 0.1166666666666667 0  0.6939130434782609 0.1166666666666667 0  0.7104347826086956 0.1166666666666667 0  0.7269565217391304 0.1166666666666667 0  0.7434782608695653 0.1166666666666667 0  0.7599999999999999 0.1166666666666667 0  0.7765217391304348 0.1166666666666667 0  0.7930434782608695 0.1166666666666667 0  0.5452173913043478 0.1333333333333333 0  0.5617391304347825 0.1333333333333333 0  0.5782608695652174 0.1333333333333333 0  0.5947826086956521 0.1333333333333333 0  0.6113043478260869 0.1333333333333333 0  0.6278260869565218 0.1333333333333333 0  0.6443478260869565 0.1333333333333333 0  0.6608695652173913 0.1333333333333333 0  0.677391304347826 0.1333333333333333 0  0.6939130434782609 0.1333333333333333 0  0.7104347826086956 0.1333333333333333 0  0.7269565217391304 0.1333333333333333 0  0.7434782608695653 0.1333333333333333 0  0.7599999999999999 0.1333333333333333 0  0.7765217391304348 0.1333333333333333 0  0.7930434782608695 0.1333333333333333 0  0.8095652173913043 0.1333333333333333 0  0.5617391304347825 0.15 0  0.5782608695652174 0.15 0  0.5947826086956521 0.15 0  0.6113043478260869 0.15 0  0.6278260869565218 0.15 0  0.6443478260869565 0.15 0  0.6608695652173913 0.15 0  0.677391304347826 0.15 0  0.6939130434782609 0.15 0  0.7104347826086956 0.15 0  0.7269565217391304 0.15 0  0.7434782608695653 0.15 0  0.7599999999999999 0.15 0  0.7765217391304348 0.15 0  0.7930434782608695 0.15 0  0.8095652173913043 0.15 0  0.8260869565217391 0.15 0  0.5782608695652174 0.1666666666666667 0  0.5947826086956521 0.1666666666666667 0  0.6113043478260869 0.1666666666666667 0  0.6278260869565218 0.1666666666666667 0  0.6443478260869565 0.1666666666666667 0  0.6608695652173913 0.1666666666666667 0  0.677391304347826 0.1666666666666667 0  0.6939130434782609 0.1666666666666667 0  0.7104347826086956 0.1666666666666667 0  0.7269565217391304 0.1666666666666667 0  0.7434782608695653 0.1666666666666667 0  0.7599999999999999 0.1666666666666667 0  0.7765217391304348 0.1666666666666667 0  0.7930434782608695 0.1666666666666667 0  0.8095652173913043 0.1666666666666667 0  0.8260869565217391 0.1666666666666667 0  0.8426086956521739 0.1666666666666667 0  0.5947826086956521 0.1833333333333333 0  0.5782608695652174 0.1833333333333333 0  0.6113043478260869 0.1833333333333333 0  0.6278260869565218 0.1833333333333333 0  0.6443478260869565 0.1833333333333333 0  0.6608695652173913 0.1833333333333333 0  0.677391304347826 0.1833333333333333 0  0.6939130434782609 0.1833333333333333 0  0.7104347826086956 0.1833333333333333 0  0.7269565217391304 0.1833333333333333 0  0.7434782608695653 0.1833333333333333 0  0.7599999999999999 0.1833333333333333 0  0.7765217391304348 0.1833333333333333 0  0.7930434782608695 0.1833333333333333 0  0.8095652173913043 0.1833333333333333 0  0.8260869565217391 0.1833333333333333 0  0.8426086956521739 0.1833333333333333 0  0.8591304347826086 0.1833333333333333 0  0.5947826086956521 0.2 0  0.5782608695652174 0.2 0  0.6113043478260869 0.2 0  0.6278260869565218 0.2 0  0.6443478260869565 0.2 0  0.6608695652173913 0.2 0  0.677391304347826 0.2 0  0.6939130434782609 0.2 0  0.7104347826086956 0.2 0  0.7269565217391304 0.2 0  0.7434782608695653 0.2 0  0.7599999999999999 0.2 0  0.7765217391304348 0.2 0  0.7930434782608695 0.2 0  0.8095652173913043 0.2 0  0.8260869565217391 0.2 0  0.8426086956521739 0.2 0  0.8591304347826086 0.2 0  0.8756521739130434 0.2 0  0.5947826086956521 0.2166666666666667 0  0.5782608695652174 0.2166666666666667 0  0.6113043478260869 0.2166666666666667 0  0.6278260869565218 0.2166666666666667 0  0.6443478260869565 0.2166666666666667 0  0.6608695652173913 0.2166666666666667 0  0.677391304347826 0.2166666666666667 0  0.6939130434782609 0.2166666666666667 0  0.7104347826086956 0.2166666666666667 0  0.7269565217391304 0.2166666666666667 0  0.7434782608695653 0.2166666666666667 0  0.7599999999999999 0.2166666666666667 0  0.7765217391304348 0.2166666666666667 0  0.7930434782608695 0.2166666666666667 0  0.8095652173913043 0.2166666666666667 0  0.8260869565217391 0.2166666666666667 0  0.8426086956521739 0.2166666666666667 0  0.8591304347826086 0.2166666666666667 0  0.8756521739130434 0.2166666666666667 0  0.8921739130434783 0.2166666666666667 0  0.5947826086956521 0.2333333333333333 0  0.5782608695652174 0.2333333333333333 0  0.6113043478260869 0.2333333333333333 0  0.6278260869565218 0.2333333333333333 0  0.6443478260869565 0.2333333333333333 0  0.6608695652173913 0.2333333333333333 0  0.677391304347826 0.2333333333333333 0  0.6939130434782609 0.2333333333333333 0  0.7104347826086956 0.2333333333333333 0  0.7269565217391304 0.2333333333333333 0  0.7434782608695653 0.2333333333333333 0  0.7599999999999999 0.2333333333333333 0  0.7765217391304348 0.2333333333333333 0  0.7930434782608695 0.2333333333333333 0  0.8095652173913043 0.2333333333333333 0  0.8260869565217391 0.2333333333333333 0  0.8426086956521739 0.2333333333333333 0  0.8591304347826086 0.2333333333333333 0  0.8756521739130434 0.2333333333333333 0  0.8921739130434783 0.2333333333333333 0  0.908695652173913 0.2333333333333333 0  0.5947826086956521 0.25 0  0.6113043478260869 0.25 0  0.6278260869565218 0.25 0  0.6443
[...]
<PointData  Vectors="Displacement"> 
<DataArray  type="Float64"  Name="Displacement"  NumberOfComponents="3" format="ascii">8.7331058327800741e-05 5.6014028339276291e-04 0.0000000000000000e+00  8.7009380808675249e-05 5.8401861787148353e-04 0.0000000000000000e+00  6.3358163803098024e-05 5.8400618890997271e-04 0.0000000000000000e+00  8.6684662511989319e-05 6.0700217899814642e-04 0.0000000000000000e+00  6.3845973081087288e-05 6.0700907901419790e-04 0.0000000000000000e+00  8.6414587463923064e-05 6.2913808375788822e-04 0.0000000000000000e+00  6.4281247769695877e-05 6.2914305607589336e-04 0.0000000000000000e+00  8.6279576685098226e-05 6.5052598377627019e-04 0.0000000000000000e+00  6.4712552531357229e-05 6.5050638946153997e-04 0.0000000000000000e+00  8.6385316902442188e-05 6.7129015179539413e-04 0.0000000000000000e+00  6.5208202914827901e-05 6.7121108257136555e-04 0.0000000000000000e+00  8.6860738448005915e-05 6.9160843618558702e-04 0.0000000000000000e+00  6.5857551132748532e-05 6.9142371426999789e-04 0.0000000000000000e+00  8.7826623292002059e-05 7.1174962130441028e-04 0.0000000000000000e+00  6.6748922964377660e-05 7.1141614933163525e-04 0.0000000000000000e+00  8.9340788367116850e-05 7.3207973115382125e-04 0.0000000000000000e+00  6.7930581274644461e-05 7.3157826697558366e-04 0.0000000000000000e+00  9.1349198570789391e-05 7.5300841269330650e-04 0.0000000000000000e+00  6.9381813916647152e-05 7.5235630986282402e-04 0.0000000000000000e+00  9.3657744134589629e-05 7.7490661049091608e-04 0.0000000000000000e+00  7.0999581097532305e-05 7.7416487024795468e-04 0.0000000000000000e+00  9.6027544114978057e-05 7.9782986282749750e-04 0.0000000000000000e+00  7.2738285038524515e-05 7.9704599217207521e-04 0.0000000000000000e+00  9.8321843788551355e-05 8.2152581688806276e-04 0.0000000000000000e+00  7.4662404495240184e-05 8.2063194139031775e-04 0.0000000000000000e+00  1.0034995286358861e-04 8.4569369461045347e-04 0.0000000000000000e+00  7.6970707897630098e-05 8.4472181058992536e-04 0.0000000000000000e+00  1.0223197541596239e-04 8.6837332124502383e-04 0.0000000000000000e+00  8.0566203768907605e-05 8.6737337502427775e-04 0.0000000000000000e+00  1.0407138378597494e-04 8.8875932787938264e-04 0.0000000000000000e+00  8.4705661149548245e-05 8.8776816538749053e-04 0.0000000000000000e+00  1.0586205922337751e-04 9.0674865996117173e-04 0.0000000000000000e+00  8.8867898322146489e-05 9.0584115119317127e-04 0.0000000000000000e+00  1.0752466852868594e-04 9.2233021854182869e-04 0.0000000000000000e+00  9.2746042074974035e-05 9.2167837818231781e-04 0.0000000000000000e+00  1.0919539043348670e-04 9.3599409895201238e-04 0.0000000000000000e+00  9.5680527190441210e-05 9.3535755533915048e-04 0.0000000000000000e+00  4.1091418390229346e-05 6.0684281958511995e-04 0.0000000000000000e+00  4.2113542842174797e-05 6.2903282216354782e-04 0.0000000000000000e+00  4.2966218707227162e-05 6.5044445015431619e-04 0.0000000000000000e+00  4.3691212935388579e-05 6.7115757860552712e-04 0.0000000000000000e+00  4.4374541486698232e-05 6.9130283505601997e-04 0.0000000000000000e+00  4.5125446479876561e-05 7.1114587351490325e-04 0.0000000000000000e+00  4.6020748876296549e-05 7.3112113908557741e-04 0.0000000000000000e+00  4.7046305824343656e-05 7.5174831712075544e-04 0.0000000000000000e+00  4.8042368884720172e-05 7.7356993307251421e-04 0.0000000000000000e+00  4.8944072380825635e-05 7.9647245999331481e-04 0.0000000000000000e+00  5.0155835860182701e-05 8.2004233370622888e-04 0.0000000000000000e+00  5.1392117484514405e-05 8.4390911767273972e-04 0.0000000000000000e+00  5.6742876256145700e-05 8.6618006761505020e-04 0.0000000000000000e+00  6.4115461819456190e-05 8.8634109264030658e-04 0.0000000000000000e+00  7.0768673702488989e-05 9.0439217147306726e-04 0.0000000000000000e+00  7.7064365913838230e-05 9.2033502272597571e-04 0.0000000000000000e+00  8.2734515623346250e-05 9.3437218419823809e-04 0.0000000000000000e+00  2.0257347114324581e-05 6.2887215296581541e-04 0.0000000000000000e+00  2.1464645496900150e-05 6.5043072336754795e-04 0.0000000000000000e+00  2.2334454104077803e-05 6.7123847403750239e-04 0.0000000000000000e+00  2.2964905455844321e-05 6.9134167256292044e-04 0.0000000000000000e+00  2.3512817315908472e-05 7.1097378359856293e-04 0.0000000000000000e+00  2.4121468492042254e-05 7.3064952456660239e-04 0.0000000000000000e+00  2.4813995714815698e-05 7.5105783641442661e-04 0.0000000000000000e+00  2.5267686362349162e-05 7.7301672895347924e-04 0.0000000000000000e+00  2.5567504602839681e-05 7.9601063598019862e-04 0.0000000000000000e+00  2.6107887639655459e-05 8.1960589471993480e-04 0.0000000000000000e+00  2.7953270661653119e-05 8.4314879657729626e-04 0.0000000000000000e+00  3.4791942486534542e-05 8.5749208516451103e-04 0.0000000000000000e+00  4.2610354846917902e-05 8.7506374329032245e-04 0.0000000000000000e+00  5.0086803403132718e-05 8.9231105077250048e-04 0.0000000000000000e+00  5.6923132648761167e-05 9.0819515341081616e-04 0.0000000000000000e+00  6.2947793886231458e-05 9.2281562460617625e-04 0.0000000000000000e+00  6.7918809489877347e-05 9.3671578699412185e-04 0.0000000000000000e+00  6.2037973841463184e-07 6.5051187923516459e-04 0.0000000000000000e+00  1.6157865154346790e-06 6.7154010698541216e-04 0.0000000000000000e+00  2.1594003411327130e-06 6.9163757081598990e-04 0.0000000000000000e+00  2.4725900316779827e-06 7.1095877594226772e-04 0.0000000000000000e+00  2.7715709861356238e-06 7.3008947646817292e-04 0.0000000000000000e+00  3.2698490287786477e-06 7.4999414092022517e-04 0.0000000000000000e+00  3.5933138899633605e-06 7.7220926927714479e-04 0.0000000000000000e+00  3.5483933125940946e-06 7.9524764696936698e-04 0.0000000000000000e+00  7.2844392966698865e-06 8.1299113590241562e-04 0.0000000000000000e+00  1.2540714138455465e-05 8.3241427795857051e-04 0.0000000000000000e+00  1.9059829207297757e-05 8.4766548669293340e-04 0.0000000000000000e+00  2.5503785180087330e-05 8.6398127558578303e-04 0.0000000000000000e+00  3.2283049281605525e-05 8.8046236085360604e-04 0.0000000000000000e+00  3.8988682868261713e-05 8.9621775228685622e-04 0.0000000000000000e+00  4.5272630115046535e-05 9.1115544996709687e-04 0.0000000000000000e+00  5.0930139285547799e-05 9.2556002377768682e-04 0.0000000000000000e+00  5.5900374934461763e-05 9.3962522577090276e-04 0.0000000000000000e+00  -1.8006295999247265e-05 6.7212422168030689e-04 0.0000000000000000e+00  -1.7484473820954322e-05 6.9227668045347061e-04 0.0000000000000000e+00  -1.7318729793950219e-05 7.1114251625004066e-04 0.0000000000000000e+00  -1.7183946560581847e-05 7.2937987455664569e-04 0.0000000000000000e+00  -1.6716746981310578e-05 7.4783228409700236e-04 0.0000000000000000e+00  -1.6121439380884883e-05 7.6912718507164788e-04 0.0000000000000000e+00  -1.2971020372050514e-05 7.8757632187676451e-04 0.0000000000000000e+00  -8.2509301940215427e-06 8.0470625962350431e-04 0.0000000000000000e+00  -2.9182127901912853e-06 8.2208495405047095e-04 0.0000000000000000e+00  3.2221488440133011e-06 8.3767090374065620e-04 0.0000000000000000e+00  9.4044917126124759e-06 8.5341223365333248e-04 0.0000000000000000e+00  1.5859501750232076e-05 8.6912587171645108e-04 0.0000000000000000e+00  2.2472825337568235e-05 8.8449238097511199e-04 0.0000000000000000e+00  2.8967143523386459e-05 8.9942131425160496e-04 0.0000000000000000e+00  3.5127715763921133e-05 9.1404123667855510e-04 0.0000000000000000e+00  4.0838687887889483e-05 9.2850237367362665e-04 0.0000000000000000e+00  4.6040657270995002e-05 9.4302339568241942e-04 0.0000000000000000e+00  -3.5489168705329443e-05 6.9337768715757163e-04 0.0000000000000000e+00  -3.5371049594723345e-05 7.1163169067716531e-04 0.0000000000000000e+00  -3.5360674440979370e-05 7.2868151050565707e-04 0.0000000000000000e+00  -3.4981350063786988e-05 7.4524216409189395e-04 0.0000000000000000e+00  -3.4078435040199883e-05 7.6320188040001594e-04 0.0000000000000000e+00  -2.9367250072602917e-05 7.7909950599182114e-04 0.0000000000000000e+00  -2.4100259472172026e-05 7.9593342745602129e-04 0.0000000000000000e+00  -1.8549636456267224e-05 8.1238059277291444e-04 0.0000000000000000e+00  -1.2526891918458942e-05 8.2773296028072828e-04 0.0000000000000000e+00  -6.2925804252538610e-06 8.4292365285834083e-04 0.0000000000000000e+00  2.1230337634691071e-07 8.5798278315429356e-04 0.0000000000000000e+00  6.9260897196485208e-06 8.7286104730495634e-04 0.0000000000000000e+00  1.3677090507210219e-05 8.8757199527344382e-04 0.0000000000000000e+00  2.0284760566232089e-05 9.0219906194072047e-04 0.0000000000000000e+00  2.6618189314216327e-05 9.1685061591841705e-04 0.0000000000000000e+00  3.2595419277339134e-05 9.3167982309786562e-04 0.0000000000000000e+00  3.8193168650222495e-05 9.4686906440662882e-04 0.0000000000000000e+00  -5.1189099825279926e-05 7.1253331466605558e-04 0.0000000000000000e+00  -5.1136882905058376e-05 7.2829035714045147e-04 0.0000000000000000e+00  -5.1051890687016048e-05 7.4252165651008002e-04 0.0000000000000000e+00  -5.0428830063491356e-05 7.5412699376116769e-04 0.0000000000000000e+00  -4.5388205680953362e-05 7.6972293977933316e-04 0.0000000000000000e+00  -3.9951106156170691e-05 7.8704730553359021e-04 0.0000000000000000e+00  -3.4216543092745674e-05 8.0293149011519366e-04 0.0000000000000000e+00  -2.8060018586923039e-05 8.1781845588462074e-04 0.0000000000000000e+00  -2.1613651040551809e-05 8.3238521166646316e-04 0.0000000000000000e+00  -1.4878369544663693e-05 8.4679855538477371e-04 0.0000000000000000e+00  -7.9079813971751424e-06 8.6114170365144847e-04 0.0000000000000000e+00  -8.2500043347643160e-07 8.7551621260178753e-04 0.0000000000000000e+00  6.2267842756295158e-06 8.9000913251129033e-04 0.0000000000000000e+00  1.3125011537279457e-05 9.0470155933252555e-04 0.0000000000000000e+00  1.9781855912060274e-05 9.1969460392274003e-04 0.0000000000000000e+00  2.6151405236210935e-05 9.3509607648941068e-04 0.0000000000000000e+00  3.2232401637755524e-05 9.5095754574523242e-04 0.0000000000000000e+00  -6.4237159584690001e-05 7.2836340723078869e-04 0.0000000000000000e+00  -6.4027270547574986e-05 7.4111543931510207e-04 0.0000000000000000e+00  -6.3940700230535205e-05 7.5117922443769677e-04 0.0000000000000000e+00  -6.4422495325458547e-05 7.5885336951195563e-04 0.0000000000000000e+00  -5.6620333948934969e-05 7.7828613945543157e-04 0.0000000000000000e+00  -4.9964681215979057e-05 7.9359476944248532e-04 0.0000000000000000e+00  -4.3313618636111451e-05 8.0784565747698016e-04 0.0000000000000000e+00  -3.6501787686713024e-05 8.2171928065849509e-04 0.0000000000000000e+00  -2.9442547006609025e-05 8.3544762882192120e-04 0.0000000000000000e+00  -2.2134222745844964e-05 8.4919743204135603e-04 0.0000000000000000e+00  -1.4669124561112258e-05 8.6315838676957160e-04 0.0000000000000000e+00  -7.1691664493616387e-06 8.7742524256793138e-04 0.0000000000000000e+00  2.5671664216961616e-07 8.9205649099622123e-04 0.0000000000000000e+00  7.5220204215591489e-06 9.0711688778411501e-04 0.0000000000000000e+00  1.4563297405808940e-05 9.2267310753544045e-04 0.0000000000000000e+00  2.1342804810114416e-05 9.3874469436500477e-04 0.0000000000000000e+00  2.7840626703162731e-05 9.5527721121419916e-04 0.0000000000000000e+00  -7.4754976539494745e-05 7.4049741086841623e-04 0.0000000000000000e+00  -7.4410958830920369e-05 7.5016972508965452e-04 0.0000000000000000e+00  -7.4292312249628226e-05 7.5825663754860659e-04 0.0000000000000000e+00  -7.0640164106448213e-05 7.7026266725413765e-04 0.0000000000000000e+00  -6.4357311808373128e-05 7.8429517978768958e-04 0.0000000000000000e+00  -5.7662996969008262e-05 7.9778172481411846e-04 0.0000000000000000e+00  -5.0690563827916611e-05 8.1090057202779712e-04 0.0000000000000000e+00  -4.3393649235408845e-05 8.2387294454161410e-04 0.0000000000000000e+00  -3.5763986394483010e-05 8.3693973485685286e-04 0.0000000000000000e+00  -2.7916993074577190e-05 8.5042266140564747e-04 0.0000000000000000e+00  -1.9983399791336641e-05 8.6440179495073078e-04 0.0000000000000000e+00  -1.2065560480589066e-05 8.7890284898134278e-04 0.0000000000000000e+00  -4.2478358260289570e-06 8.9396626633473015e-04 0.0000000000000000e+00  3.3890894500889625e-06 9.0964543833026439e-04 0.0000000000000000e+00  1.0775905468141251e-05 9.2594307513199213e-04 0.0000000000000000e+00  1.7862079782224487e-05 9.4279778361316307e-04 0.0000000000000000e+00  2.4611328955813393e-05 9.6012351880275836e-04 0.0000000000000000e+00  -8.3355838704864162e-05 7.4962383369539390e-04 0.0000000000000000e+00  -8.3241827753799204e-05 7.5734456622693011e-04 0.0000000000000000e+00  -8.3418166900633389e-05 7.6312790035590653e-04 0.0000000000000000e+00  -7.7694484549161949e-05 7.7536557429832317e-04 0.0000000000000000e+00  -7.1175529932750455e-05 7.8782575362786641e-04 0.0000000000000000e+00  -6.4194509647807628e-05 8.0002935477389847e-04 0.0000000000000000e+00  -5.6752779259113307e-05 8.1208807920419624e-04 0.0000000000000000e+00  -4.8830125739769432e-05 8.2431008324231373e-04 0.0000000000000000e+00  -4.0618481379060883e-05 8.3725373948865113e-04 0.0000000000000000e+00  -3.2279588853163957e-05 8.5090246406175664e-04 0.0000000000000000e+00  -2.3907059661254524e-05 8.6522163558443101e-04 0.0000000000000000e+00  -1.5579969322810736e-05 8.8023880454263541e-04 0.0000000000000000e+00  -7.4015188160635629e-06 8.9602630430887700e-04 0.0000000000000000e+00  5.2444143737779149e-07 9.1257667231149176e-04 0.0000000000000000e+00  8.1209504591013244e-06 9.2980240438266329e-04 0.0000000000000000e+00  1.5341356952408445e-05 9.4759102263712309e-04 0.0000000000000000e+00  2.2163870401219105e-05 9.6584487224748051e-04 0.0000000000000000e+00  -9.0392292906357858e-05 7.5690328107371038e-04 0.0000000000000000e+00  -9.0672074014400459e-05 7.4950260330739437e-04 0.0000000000000000e+00  -9.0421821280756097e-05 7.6258604337929527e-04 0.0000000000000000e+00  -9.0709060959961351e-05 7.6649434294052683e-04 0.0000000000000000e+00  -8.4031115911723127e-05 7.7801438831729363e-04 0.0000000000000000e+00  -7.7045083560386792e-05 7.8918636297699784e-04 0.0000000000000000e+00  -6.9548844328362101e-05 8.0011002457681599e-04 0.0000000000000000e+00  -6.1360988856057607e-05 8.1122423825739486e-04 0.0000000000000000e+00  -5.2815711603522799e-05 8.2360130002135995e-04 0.0000000000000000e+00  -4.4116528015934655e-05 8.3689960494727001e-04 0.0000000000000000e+00  -3.5329509140232897e-05 8.5098845574042826e-04 0.0000000000000000e+00  -2.6520908787801018e-05 8.6590683502562281e-04 0.0000000000000000e+00  -1.7832495772746849e-05 8.8180083357634886e-04 0.0000000000000000e+00  -9.4156950449935516e-06 8.9864971956181276e-04 0.0000000000000000e+00  -1.3735362841643510e-06 9.1631130189608566e-04 0.0000000000000000e+00  6.2423750573043273e-06 9.3462361803335451e-04 0.0000000000000000e+00  1.3417511619998652e-05 9.5345097480350734e-04 0.0000000000000000e+00  2.0161214121469635e-05 9.7269744217424482e-04 0.0000000000000000e+00  -9.6094875606088143e-05 7.5685881201811183e-04 0.0000000000000000e+00  -9.6739061759387694e-05 7.4966038252264504e-04 0.0000000000000000e+00  -9.5727213483254837e-05 7.6235395954014960e-04 0.0000000000000000e+00  -9.5722439649068076e-05 7.6614848152613008e-04 0.0000000000000000e+00  -9.5939873024170226e-05 7.6827616536754824e-04 0.0000000000000000e+00  -8.8977131287200307e-05 7.7850791506293981e-04 0.0000000000000000e+00  -8.1724095097574162e-05 7.8799790105838353e-04 0.0000000000000000e+00  -7.3384708853929778e-05 7.9752883958186457e-04 0.0000000000000000e+00  -6.4570834712681895e-05 8.0942279644405965e-04 0.0000000000000000e+00  -5.5573205766352983e-05 8.2237920142526897e-04 0.0000000000000000e+00  -4.6406964988365578e-05 8.3617219929958469e-04 0.0000000000000000e+00  -3.7117586135620011e-05 8.5091085819304253e-04 0.0000000000000000e+00  -2.7922611153781802e-05 8.6692444838228208e-04 0.0000000000000000e+00  -1.9045664614688253e-05 8.8415044210347871e-04 0.0000000000000000e+00  -1.0614026001649175e-05 9.0234035130880535e-04 0.0000000000000000e+00  -2.6745390144778725e-06 9.2125632795757133e-04 0.0000000000000000e+00  4.7738328457019273e-06 9.4071541203250757e-04 0.0000000000000000e+00  1.1757575920648302e-05 9.6059474782100526e-04 0.0000000000000000e+00  1.8313474517816203e-05 9.8082603496577351e-04 0.0000000000000000e+00  -1.0058814921057099e-04 7.5704227678020063e-04 0.0000000000000000e+00  -1.0196844182867870e-04 7.4977138830463919e-04 0.0000000000000000e+00  -9.9533304371362502e-05 7.6237081214886309e-04 0.0000000000000000e+00  -9.8939450531811764e-05 7.6595647854454853e-04 0.0000000000000000e+00  -9.8797093401671024e-05 7.6803866678877173e-04 0.0000000000000000e+00  -9.8961934680785559e-05 7.6852121550471106e-04 0.0000000000000000e+00  -9.2994066730905589e-05 7.7612587657146408e-04 0.0000000000000000e+00  -8.5168923019889641e-05 7.8289045811738187e-04 0.0000000000000000e+00  -7.6096871867289300e-05 7.9468893273838164e-04 0.0000000000000000e+00  -6.6791933994079361e-05 8.0734214744311963e-04 0.0000000000000000e+00  -5.7234090997929984e-05 8.2072783980165556e-04 0.0000000000000000e+00  -4.7412457554818510e-05 8.3513874407252519e-04 0.0000000000000000e+00  -3.7680096335483053e-05 8.5131703559407986e-04 0.0000000000000000e+00  -2.8362485042940705e-05 8.6905608734708692e-04 0.0000000000000000e+00  -1.9596530686310807e-05 8.8790714863807424e-04 0.0000000000000000e+00  -1.1406324190980421e-05 9.0753027294515327e-04 0.0000000000000000e+00  -3.7639090887162913e-06 9.2769079203648371e-04 0.0000000000000000e+00  3.3812585674897098e-06 9.4824223280168111e-04 0.0000000000000000e+00  1.0084215433574861e-05 9.6911140221248905e-04 0.0000000000000000e+00  1.6393811121268235e-05 9.9027843204830515e-04 0.0000000000000000e+00  -1.0283169447489597e-04 7.5740160089094821e-04 0.0000000000000000e+00  -9.9944857644494896e-05 7.4027313453732893e-04 0.0000000000000000e+00  -1.0145739270704149e-04 7.6263416847142018e-04 0.0000000000000000e+00  -1.0051426585889599e-04 7.6590538530397676e-04 0.0000000000000000e+00  -9.9853023769867687e-05 7.6792607334127071e-04 0.0000000000000000e+00  -9.9561558217145987e-05 7.6848766513070484e-04 0.0000000000000000e+00  -9.9551281130450458e-05 7.6759640859640839e-04 0.0000000000000000e+00  -9.9550988392030487e-05 7.6590526144959222e-04 0.0000000000000000e+00  -8.8084209431906773e-05 7.7928172394859795e-04 0.0000000000000000e+00  -7.7898680915320403e-05 7.9178459311294571e-04 0.0000000000000000e+00  -6.7840803123475466e-05 8.0459434455941762e-04 0.0000000000000000e+00  -5.7398186681035188e-05 8.1839210028841237e-04 0.0000000000000000e+00  -4.7088945839570782e-05 8.3486023121526296e-04 0.0000000000000000e+00  -3.7362662274127729e-05 8.5334468907334474e-04 0.0000000000000000e+00  -2.8327938147646307e-05 8.7304011475725736e-04 0.0000000000000000e+00  -1.9963328981713180e-05 8.9349806342514280e-04 0.0000000000000000e+00  -1.2205059386609885e-05 9.1443881619456522e-04 0.0000000000000000e+00  -4.9734197341874538e-06 9.3570094959197420e-04 0.0000000000000000e+00  1.8079740703219547e-06 9.5721802541071739e-04 0.0000000000000000e+00  8.2006805671015428e-06 9.7898751558828817e-04 0.0000000000000000e+00  1.4247891786635861e-05 1.0010424155612488e-03 0.0000000000000000e+00  -9.9690115806285069e-05 7.4678100385699422e-04 0.0000000000000000e+00  -1.0175727787059361e-04 7.6309841629399388e-04 0.0000000000000000e+00  -1.0084346543351506e-04 7.6598892270716566e-04 0.0000000000000000e+00  -9.9664058070788873e-05 7.6793613674413575e-04 0.0000000000000000e+00  -9.8774200753814492e-05 7.6843774617976377e-04 0.0000000000000000e+00  -9.8220882890064190e-05 7.6758770768077739e-04 0.0000000000000000e+00  -9.7976941038134093e-05 7.6582756326535727e-04 0.0000000000000000e+00  -9.7815114274328997e-05 7.6335161627748337e-04 0.0000000000000000e+00  -8.7577477956377809e-05 7.7591005427722853e-04 0.0000000000000000e+00  -7.7767045692635984e-05 7.8783125483751948e-04 0.0000000000000000e+00  -6.6951576934642695e-05 8.0035806842587113e-04 0.0000000000000000e+00  -5.6139197128545691e-05 8.1741219439684465e-04 0.0000000000000000e+00  -4.6083873384110435e-05 8.3701729449313844e-04 0.0000000000000000e+00  -3.6852086043654141e-05 8.5778681704841691e-04 0.000000000