<?xml version="1.0"?>
<VTKFile type="UnstructuredGrid"  version="0.1"  >
<UnstructuredGrid>
<Piece  NumberOfPoints="640" NumberOfCells="1175">
<Points>
<DataArray  type="Float64"  NumberOfComponents="3"  format="ascii">2.577391304347826 0 0  2.593913043478261 0 0  2.593913043478261 0.01666666666666667 0  2.577391304347826 0.01666666666666667 0  2.610434782608696 0 0  2.610434782608696 0.01666666666666667 0  2.62695652173913 0 0  2.62695652173913 0.01666666666666667 0  2.643478260869565 0 0  2.643478260869565 0.01666666666666667 0  2.66 0 0  2.66 0.01666666666666667 0  2.676521739130435 0 0  2.676521739130435 0.01666666666666667 0  2.693043478260869 0 0  2.693043478260869 0.01666666666666667 0  2.709565217391304 0 0  2.709565217391304 0.01666666666666667 0  2.726086956521739 0 0  2.726086956521739 0.01666666666666667 0  2.742608695652174 0 0  2.742608695652174 0.01666666666666667 0  2.759130434782609 0 0  2.759130434782609 0.01666666666666667 0  2.775652173913044 0 0  2.775652173913044 0.01666666666666667 0  2.792173913043478 0 0  2.792173913043478 0.01666666666666667 0  2.808695652173913 0 0  2.808695652173913 0.01666666666666667 0  2.825217391304347 0 0  2.825217391304347 0.01666666666666667 0  2.841739130434783 0 0  2.841739130434783 0.01666666666666667 0  2.858260869565217 0 0  2.858260869565217 0.01666666666666667 0  2.874782608695652 0 0  2.874782608695652 0.01666666666666667 0  2.891304347826087 0 0  2.891304347826087 0.01666666666666667 0  2.907826086956522 0 0  2.907826086956522 0.01666666666666667 0  2.924347826086957 0 0  2.924347826086957 0.01666666666666667 0  2.940869565217391 0 0  2.940869565217391 0.01666666666666667 0  2.957391304347826 0 0  2.957391304347826 0.01666666666666667 0  2.973913043478261 0 0  2.973913043478261 0.01666666666666667 0  2.593913043478261 0.03333333333333333 0  2.610434782608696 0.03333333333333333 0  2.62695652173913 0.03333333333333333 0  2.643478260869565 0.03333333333333333 0  2.66 0.03333333333333333 0  2.676521739130435 0.03333333333333333 0  2.693043478260869 0.03333333333333333 0  2.709565217391304 0.03333333333333333 0  2.726086956521739 0.03333333333333333 0  2.742608695652174 0.03333333333333333 0  2.759130434782609 0.03333333333333333 0  2.775652173913044 0.03333333333333333 0  2.792173913043478 0.03333333333333333 0  2.808695652173913 0.03333333333333333 0  2.825217391304347 0.03333333333333333 0  2.841739130434783 0.03333333333333333 0  2.858260869565217 0.03333333333333333 0  2.874782608695652 0.03333333333333333 0  2.891304347826087 0.03333333333333333 0  2.907826086956522 0.03333333333333333 0  2.924347826086957 0.03333333333333333 0  2.940869565217391 0.03333333333333333 0  2.957391304347826 0.03333333333333333 0  2.973913043478261 0.03333333333333333 0  2.610434782608696 0.05 0  2.62695652173913 0.05 0  2.643478260869565 0.05 0  2.66 0.05 0  2.676521739130435 0.05 0  2.693043478260869 0.05 0  2.709565217391304 0.05 0  2.726086956521739 0.05 0  2.742608695652174 0.05 0  2.759130434782609 0.05 0  2.775652173913044 0.05 0  2.792173913043478 0.05 0  2.808695652173913 0.05 0  2.825217391304347 0.05 0  2.841739130434783 0.05 0  2.858260869565217 0.05 0  2.874782608695652 0.05 0  2.891304347826087 0.05 0  2.907826086956522 0.05 0  2.924347826086957 0.05 0  2.940869565217391 0.05 0  2.957391304347826 0.05 0  2.973913043478261 0.05 0  2.990434782608696 0.05 0  2.62695652173913 0.06666666666666667 0  2.643478260869565 0.06666666666666667 0  2.66 0.06666666666666667 0  2.676521739130435 0.06666666666666667 0  2.693043478260869 0.06666666666666667 0  2.709565217391304 0.06666666666666667 0  2.726086956521739 0.06666666666666667 0  2.742608695652174 0.06666666666666667 0  2.759130434782609 0.06666666666666667 0  2.775652173913044 0.06666666666666667 0  2.792173913043478 0.06666666666666667 0  2.808695652173913 0.06666666666666667 0  2.825217391304347 0.06666666666666667 0  2.841739130434783 0.06666666666666667 0  2.858260869565217 0.06666666666666667 0  2.874782608695652 0.06666666666666667 0  2.891304347826087 0.06666666666666667 0  2.907826086956522 0.06666666666666667 0  2.924347826086957 0.06666666666666667 0  2.940869565217391 0.06666666666666667 0  2.957391304347826 0.06666666666666667 0  2.973913043478261 0.06666666666666667 0  2.990434782608696 0.06666666666666667 0  2.643478260869565 0.08333333333333333 0  2.66 0.08333333333333333 0  2.676521739130435 0.08333333333333333 0  2.693043478260869 0.08333333333333333 0  2.709565217391304 0.08333333333333333 0  2.726086956521739 0.08333333333333333 0  2.742608695652174 0.08333333333333333 0  2.759130434782609 0.08333333333333333 0  2.775652173913044 0.08333333333333333 0  2.792173913043478 0.08333333333333333 0  2.808695652173913 0.08333333333333333 0  2.825217391304347 0.08333333333333333 0  2.841739130434783 0.08333333333333333 0  2.858260869565217 0.08333333333333333 0  2.874782608695652 0.08333333333333333 0  2.891304347826087 0.08333333333333333 0  2.907826086956522 0.08333333333333333 0  2.924347826086957 0.08333333333333333 0  2.940869565217391 0.08333333333333333 0  2.957391304347826 0.08333333333333333 0  2.973913043478261 0.08333333333333333 0  2.990434782608696 0.08333333333333333 0  3.006956521739131 0.08333333333333333 0  2.66 0.1 0  2.676521739130435 0.1 0  2.693043478260869 0.1 0  2.709565217391304 0.1 0  2.726086956521739 0.1 0  2.742608695652174 0.1 0  2.759130434782609 0.1 0  2.775652173913044 0.1 0  2.792173913043478 0.1 0  2.808695652173913 0.1 0  2.825217391304347 0.1 0  2.841739130434783 0.1 0  2.858260869565217 0.1 0  2.874782608695652 0.1 0  2.891304347826087 0.1 0  2.907826086956522 0.1 0  2.924347826086957 0.1 0  2.940869565217391 0.1 0  2.957391304347826 0.1 0  2.973913043478261 0.1 0  2.990434782608696 0.1 0  3.006956521739131 0.1 0  2.676521739130435 0.1166666666666667 0  2.693043478260869 0.1166666666666667 0  2.709565217391304 0.1166666666666667 0  2.726086956521739 0.1166666666666667 0  2.742608695652174 0.1166666666666667 0  2.759130434782609 0.1166666666666667 0  2.775652173913044 0.1166666666666667 0  2.792173913043478 0.1166666666666667 0  2.808695652173913 0.1166666666666667 0  2.825217391304347 0.1166666666666667 0  2.841739130434783 0.1166666666666667 0  2.858260869565217 0.1166666666666667 0  2.874782608695652 0.1166666666666667 0  2.891304347826087 0.1166666666666667 0  2.907826086956522 0.1166666666666667 0  2.924347826086957 0.1166666666666667 0  2.940869565217391 0.1166666666666667 0  2.957391304347826 0.1166666666666667 0  2.973913043478261 0.1166666666666667 0  2.990434782608696 0.1166666666666667 0  3.006956521739131 0.1166666666666667 0  3.023478260869565 0.1166666666666667 0  2.693043478260869 0.1333333333333333 0  2.709565217391304 0.1333333333333333 0  2.726086956521739 0.1333333333333333 0  2.742608695652174 0.1333333333333333 0  2.759130434782609 0.1333333333333333 0  2.775652173913044 0.1333333333333333 0  2.792173913043478 0.1333333333333333 0  2.808695652173913 0.1333333333333333 0  2.825217391304347 0.1333333333333333 0  2.841739130434783 0.1333333333333333 0  2.858260869565217 0.1333333333333333 0  2.874782608695652 0.1333333333333333 0  2.891304347826087 0.1333333333333333 0  2.907826086956522 0.1333333333333333 0  2.924347826086957 0.1333333333333333 0  2.940869565217391 0.1333333333333333 0  2.957391304347826 0.1333333333333333 0  2.973913043478261 0.1333333333333333 0  2.990434782608696 0.1333333333333333 0  3.006956521739131 0.1333333333333333 0  3.023478260869565 0.1333333333333333 0  2.726086956521739 0.15 0  2.742608695652174 0.15 0  2.759130434782609 0.15 0  2.775652173913044 0.15 0  2.792173913043478 0.15 0  2.808695652173913 0.15 0  2.825217391304347 0.15 0  2.841739130434783 0.15 0  2.858260869565217 0.15 0  2.874782608695652 0.15 0  2.891304347826087 0.15 0  2.907826086956522 0.15 0  2.924347826086957 0.15 0  2.940869565217391 0.15 0  2.957391304347826 0.15 0  2.973913043478261 0.15 0  2.990434782608696 0.15 0  3.006956521739131 0.15 0  3.023478260869565 0.15 0  3.04 0.15 0  2.742608695652174 0.1666666666666667 0  2.759130434782609 0.1666666666666667 0  2.775652173913044 0.1666666666666667 0  2.792173913043478 0.1666666666666667 0  2.808695652173913 0.1666666666666667 0  2.825217391304347 0.1666666666666667 0  2.841739130434783 0.1666666666666667 0  2.858260869565217 0.1666666666666667 0  2.874782608695652 0.1666666666666667 0  2.891304347826087 0.1666666666666667 0  2.907826086956522 0.1666666666666667 0  2.924347826086957 0.1666666666666667 0  2.940869565217391 0.1666666666666667 0  2.957391304347826 0.1666666666666667 0  2.973913043478261 0.1666666666666667 0  2.990434782608696 0.1666666666666667 0  3.006956521739131 0.1666666666666667 0  3.023478260869565 0.1666666666666667 0  3.04 0.1666666666666667 0  3.056521739130435 0.1666666666666667 0  2.759130434782609 0.1833333333333333 0  2.775652173913044 0.1833333333333333 0  2.792173913043478 0.1833333333333333 0  2.808695652173913 0.1833333333333333 0  2.825217391304347 0.1833333333333333 0  2.841739130434783 0.1833333333333333 0  2.858260869565217 0.1833333333333333 0  2.874782608695652 0.1833333333333333 0  2.891304347826087 0.1833333333333333 0  2.907826086956522 0.1833333333333333 0  2.924347826086957 0.1833333333333333 0  2.940869565217391 0.1833333333333333 0  2.957391304347826 0.1833333333333333 0  2.973913043478261 0.1833333333333333 0  2.990434782608696 0.1833333333333333 0  3.006956521739131 0.1833333333333333 0  3.023478260869565 0.1833333333333333 0  3.04 0.1833333333333333 0  3.056521739130435 0.1833333333333333 0  3.073043478260869 0.1833333333333333 0  2.775652173913044 0.2 0  2.792173913043478 0.2 0  2.808695652173913 0.2 0  2.825217391304347 0.2 0  2.841739130434783 0.2 0  2.858260869565217 0.2 0  2.874782608695652 0.2 0  2.891304347826087 0.2 0  2.907826086956522 0.2 0  2.924347826086957 0.2 0  2.940869565217391 0.2 0  2.957391304347826 0.2 0  2.973913043478261 0.2 0  2.990434782608696 0.2 0  3.006956521739131 0.2 0  3.023478260869565 0.2 0  3.04 0.2 0  3.056521739130435 0.
[...]
<CellData  Scalars="rho"> 
<DataArray  type="Float64"  Name="rho"  format="ascii">7.2895032214371525e-01   7.1054486645185699e-01   7.3027754961706182e-01   7.1047532522153367e-01   7.2673565386560823e-01   7.0992171621495637e-01   8.5029755742300495e-01   7.0662598776644348e-01   8.4007090643150695e-01   8.2234108555781937e-01   8.2924233737796982e-01   8.1152908656552514e-01   8.4759769603418267e-01   8.0147916411634068e-01   8.3818514119765009e-01   8.1958951956585291e-01   8.2990280363226054e-01   8.1094266411315397e-01   8.0477278269776376e-01   7.8597665997333910e-01   8.0063300146055560e-01   7.8213887457091313e-01   7.9600097023207472e-01   7.7813316680692990e-01   7.9010914322316927e-01   7.7310928410974233e-01   7.8248551322981252e-01   7.6644202332431366e-01   7.7342434090646939e-01   7.5826782014582583e-01   7.8235013211540816e-01   7.4873153208840959e-01   7.7525894425450992e-01   7.5928349703082976e-01   7.4434622110276516e-01   7.2957998772539812e-01   7.3979648157424038e-01   7.2432303279407007e-01   7.3814762737269912e-01   7.2368686665797299e-01   7.2491487714962199e-01   7.0965301098533740e-01   7.0846766885008816e-01   6.9613494176741986e-01   7.0877558534827756e-01   6.9342081415240331e-01   7.0439068725659759e-01   6.9715154324888484e-01   6.4691258365755766e-01   6.4697471679448126e-01   6.0223684330558080e-01   6.4640298035766630e-01   5.9917988997931604e-01   6.4440759305343609e-01   5.9777973629722370e-01   6.3893028007185948e-01   5.9458232667319399e-01   6.3435799342005894e-01   5.8920765133722164e-01   7.2330361609738358e-01   5.8514107314759578e-01   7.3835116330173767e-01   6.0120684634174770e-01   7.1410786647951552e-01   5.8420350534386034e-01   7.1089169461593382e-01   6.5834507742057102e-01   7.0820556870702678e-01   6.5250884130343045e-01   7.0511855649473576e-01   6.5062791023822875e-01   6.9821204142032467e-01   6.4769988686600555e-01   6.9497775080670632e-01   6.4326044453911735e-01   6.8740609693983024e-01   6.3712353761572693e-01   6.7891858562727569e-01   6.3198271876921475e-01   6.7027145405716138e-01   6.2448342393025436e-01   6.6433687400103592e-01   6.1930359117594258e-01   6.6131116213073871e-01   6.1660497173496454e-01   6.5414069116407703e-01   6.1177142686853914e-01   6.4547192336730219e-01   6.0420839125014147e-01   6.3639485015842800e-01   5.9876730691757152e-01   6.4481121042418665e-01   6.0312089150867498e-01   6.4846055570593264e-01   6.0447149184876492e-01   5.0107940354480984e-01   5.0050176763711351e-01   4.4382421013942619e-01   4.9663665893794262e-01   4.4196070217398692e-01   4.9126942799576784e-01   4.3652928586829925e-01   4.8731305848457390e-01   4.3185967948458975e-01   4.8149915963798845e-01   4.3153427827908075e-01   4.8280154150480953e-01   4.3124548431184706e-01   4.8321290810797285e-01   4.2973990806890855e-01   4.8391395694996009e-01   4.3100683326591693e-01   4.8538800374233754e-01   4.3297608851958252e-01   4.8759773859856476e-01   4.3476136249696351e-01   4.8761299986704421e-01   4.3511997486492399e-01   4.8474285371172599e-01   4.3479964919234826e-01   4.8292191939957563e-01   4.3246781585293903e-01   4.7924388021833769e-01   4.2938509756704174e-01   4.7538216970590208e-01   4.2626859152462765e-01   5.0533692053490065e-01   4.2471922094777337e-01   5.0223583896608848e-01   4.2256633352660239e-01   5.0868789403563353e-01   4.3050898402371668e-01   5.0572677990304438e-01   4.5232421567209613e-01   5.1677771448191046e-01   4.6368768658937254e-01   4.4610470557101184e-01   4.1057422760106260e-01   4.5135945356970308e-01   4.1042675863347711e-01   4.1170466738415745e-01   3.2803937274930334e-01   3.2612391971584120e-01   2.7285917131035897e-01   3.2379431605493009e-01   2.7157329212745090e-01   3.3003725284069624e-01   2.7045367395958542e-01   3.2525734476466323e-01   2.6865653680677903e-01   3.2565164442990685e-01   2.7409161164535023e-01   3.2672250448227619e-01   2.8077442119165180e-01   3.2956313852462221e-01   2.8227743613963702e-01   3.3442509759561717e-01   2.8581558754984121e-01   3.3648408653967488e-01   2.8980111960236082e-01   3.3573144101291569e-01   2.9050133416021356e-01   3.3691822034771834e-01   2.9387303273493098e-01   3.3730031395814608e-01   2.9571853264521369e-01   3.3685063629629852e-01   2.9607634490616397e-01   3.3632309272971095e-01   2.9627917975243984e-01   3.3466592733288197e-01   2.9697233830121383e-01   3.4454928905097371e-01   3.0806335912326710e-01   3.5097629355683979e-01   3.1294288502284423e-01   3.1656491029924078e-01   2.8592141203771138e-01   3.2391160318854001e-01   2.9185390131979255e-01   3.3264903738383228e-01   2.9645162005505293e-01   3.3841965328270612e-01   2.9908609994385782e-01   3.4376231110771605e-01   3.0739693757780800e-01   1.7132852625319078e-01   1.6472502909434517e-01   1.3337104036434916e-01   1.5937648817145703e-01   1.2630828739591754e-01   1.5601166131166855e-01   1.2114488163504281e-01   1.5500500101822537e-01   1.1832867885990886e-01   1.6242038137147327e-01   1.1799702561260295e-01   1.6593786078937955e-01   1.1964535994135132e-01   1.7595223637561938e-01   1.2078692920697767e-01   1.7955685919315692e-01   1.3218385781982117e-01   1.9039901909352835e-01   1.4545259070609090e-01   1.9922714974915304e-01   1.5229311763172682e-01   2.0250752773951003e-01   1.6372221488972830e-01   2.0638642597978599e-01   1.6755903424555615e-01   2.0902433000891291e-01   1.6137823382605446e-01   1.9806111793041528e-01   1.7606647658700122e-01   2.1134389650463706e-01   1.8650909512158656e-01   2.3540235375664900e-01   1.8830416551927306e-01   2.4106085962515322e-01   1.9981061023201616e-01   2.4882214264788555e-01   2.0956367873628695e-01   2.5424101861686121e-01   2.3924932874441737e-01   2.6860234366606472e-01   2.4934787602339140e-01   2.6592966714508176e-01   2.5950847023674678e-01   2.6067467587764981e-01   7.4844972118298936e-02   6.5646241540963740e-02   8.6130451719706486e-02   5.8689481846720980e-02   7.6675109117010309e-02   5.4289088030046333e-02   6.9685099826208532e-02   5.2489081879234852e-02   6.1438312078729421e-02   4.9860425288451853e-02   5.6368882410679978e-02   5.2553482635922938e-02   5.7027372172087830e-02   7.3847572506076570e-02   6.0620402945465862e-02   7.8674774671240927e-02   6.4251193642180890e-02   1.0087101013353614e-01   7.1204548627055428e-02   1.0745427100997883e-01   8.1021273118367862e-02   1.0642355716340317e-01   8.5886071053142457e-02   1.2229155444118250e-01   9.4039744476598533e-02   1.3359739076075355e-01   1.1640332224645671e-01   1.3986281467027836e-01   1.2326262125580911e-01   1.5272963037013379e-01   1.3018288761479005e-01   1.6263526017906821e-01   1.4656786671581765e-01   1.7872201108301650e-01   1.5837749251266028e-01   1.9294398376159533e-01   1.7919629112564750e-01   2.0925963233800884e-01   1.9641975094858380e-01   2.5027635958083988e-01   2.1648078312025210e-01   2.6717713383172909e-01   2.4228849826061954e-01   9.7064300026324796e-02   8.7976102120588609e-02   9.9783708966126733e-02   8.3827022505117241e-02   9.1253088929666173e-02   5.6172144799836975e-02   8.6294164532582818e-02   5.2032324199331265e-02   5.3813441018196725e-02   5.0942117320721306e-02   2.6427774519336551e-02   3.3375881562113172e-02   2.9187997594773155e-02   3.7885461421983388e-02   3.0539348644491076e-02   4.2183279913543807e-02   3.5550349989572100e-02   4.8075456095075901e-02   4.0442817701800443e-02   7.0871668040728322e-02   4.7463277122440681e-02   8.2051930213630941e-02   7.4707416258771767e-02   9.2580033651053023e-02   8.3627280411674693e-02   1.1530820573139620e-01   1.0945325024166018e-01   1.3004267901806180e-01   1.2457023280175965e-01   1.4789749342181419e-01   1.4269420381930392e-01   1.6975211949524102e-01   1.6023596472166121e-01   1.8897470980478537e-01   1.8647647608993898e-01   2.0957800646522004e-01   2.0589749856693798e-01   2.3280126364591516e-01   2.4668737286050582e-01   2.8088166999276676e-01   2.7970800995024303e-01   3.1688574858843244e-01   1.2031717429227361e-01   7.6820592148019604e-02   1.0184130266348710e-02   6.8989492060206076e-02   0.0000000000000000e+00   6.2884492906598310e-02   0.0000000000000000e+00   3.0094048469284325e-02   7.0283677731085584e-02   2.7644799903872721e-02   3.6808107968867118e-02   3.0494398698291427e-02   3.7383472520957306e-02   3.3309417426604301e-02   3.8680859044089792e-02   3.9125798282550944e-02   4.3618200146742787e-02   5.0219652494542799e-02   5.3797454220069839e-02   7.6905465373952528e-02   8.0501331072040286e-02   9.1862007062345902e-02   9.3510060459464611e-02   1.2197635476344987e-01   1.2638790155625226e-01   1.4349372028014343e-01   1.4446036803273932e-01   1.6142112758087696e-01   1.6826140134030040e-01   1.8506223246863154e-01   1.9271899268773532e-01   2.1291422673884386e-01   2.2030056996184871e-01   2.4491797830233245e-01   2.5308187066058452e-01   2.8000965121187743e-01   2.8963574388872543e-01   3.2520738465381371e-01   3.3402893321990307e-01   3.7289130152089356e-01   3.8387352456057394e-01   3.1226357013300531e-02   1.9488937862257971e-02   4.7626189657038791e-02   1.4419942841807485e-02   3.8777275740289274e-02   0.0000000000000000e+00   5.2255662643485069e-04   0.0000000000000000e+00   0.0000000000000000e+00   0.0000000000000000e+00   0.0000000000000000e+00   0.0000000000000000e+00   5.4951397605368033e-03   5.8971222406087082e-04   1.4576634177692139e-02   1.0559932017261404e-01   4.6785848389139524e-02   1.2940830101255529e-01   7.1823711020842146e-02   1.5728677229957691e-01   1.6733683209514325e-01   1.8470368197142970e-01   1.9160246506385209e-01   2.0994394699433766e-01   2.2095756573364497e-01   2.4087110272753756e-01   2.5268085905056614e-01   2.7498158303571230e-01   2.8798946973345729e-01   3.1635306041497480e-01   3.2960287602239940e-01   3.5930377220161314e-01   3.7379789496125126e-01   4.0512073891006306e-01   4.1894753252360312e-01   4.5665856893258494e-01   4.6968973444276563e-01   5.1523159139835861e-01   9.2083378322691756e-02   4.9279716446550256e-02   7.6869872153618027e-02   3.8953313744323946e-02   6.4068297018542497e-02   3.6090687417648704e-02   5.5769033607664865e-02   3.7019257651999385e-02   5.6380329138486437e-02   4.5164457159168912e-02   6.2332306391375915e-02   5.7827689229627610e-02   7.3906566408303093e-02   9.3946253753560721e-02   1.0850410280550916e-01   1.3210302125214513e-01   1.3953350927860891e-01   1.5748265323199795e-01   1.7453256968354111e-01   1.9145071407104966e-01   2.0683486690848238e-01   2.2334911355908962e-01   2.4025963765591565e-01   3.1196030991801588e-01   2.8261817174325882e-01   3.5601644317594688e-01   3.7127833848302966e-01   4.0217816592203187e-01   4.1647270742520726e-01   4.4752956102285624e-01   4.6079356496078966e-01   4.9078003811404564e-01   5.0292991613682703e-01   5.6007171392341670e-01   5.6660270028692661e-01   5.9687288493983648e-01   6.0459281176967838e-01   6.2758498790659190e-01   1.0822685452091130e-01   9.4611242241633545e-02   1.2586647719881972e-01   8.9719019481223211e-02   1.1907716330384224e-01   9.3553467083780012e-02   1.2280677110728747e-01   1.0389182713768251e-01   1.3035394245150111e-01   1.2019484056520841e-01   1.4548878425967948e-01   1.7099702769697603e-01   1.8533075169889135e-01   2.0971555418394300e-01   2.3913029455176041e-01   2.4101465991108731e-01   2.7119391850041519e-01   2.8264587844773975e-01   2.9797075602012507e-01   3.2510709421353201e-01   3.4333562230390297e-01   3.7294185565388482e-01   3.9018896734797132e-01   4.1684494839936215e-01   4.4669394763516429e-01   4.8766882434459263e-01   5.0388513529178069e-01   5.2514879879183696e-01   5.3487970189376111e-01   5.8301426857803518e-01   5.8487497501211616e-01   6.1040848427265448e-01   6.1108927801400648e-01   6.3299021610057316e-01   6.2787059125756717e-01   6.3752673754248201e-01   6.3502892504213759e-01   6.2359738906259610e-01   1.2942898804950898e-01   1.2748241999534313e-01   1.3407803585619257e-01   1.3532069582721257e-01   1.3962387850783395e-01   1.5067586618245407e-01   1.5692019715473815e-01   1.8264778820734459e-01   1.8248258284861207e-01   2.2644870631022920e-01   2.3197792367949507e-01   2.8356100191206923e-01   2.9216074782205681e-01   3.2188918541388906e-01   3.3345528580370970e-01   3.6866154943230378e-01   3.7347375336010719e-01   4.2019937648138367e-01   4.3162560310153464e-01   4.7534868572184835e-01   4.7449025390762123e-01   5.2707061667515021e-01   5.2997157652964588e-01   5.6849308984591107e-01   5.7165857935880260e-01   5.8379789441640184e-01   5.8586456125678388e-01   6.1548923862099303e-01   5.8779861342220874e-01   6.2195123554980025e-01   6.1588462669248378e-01   6.2183400119204435e-01   6.1452961428678354e-01   6.1294711670269109e-01   6.0180537961232705e-01   5.9064806306961815e-01   5.5513930385699772e-01   5.2490020723604847e-01   1.5379102833316127e-01   1.6618080230581234e-01   1.6913669624866434e-01   1.8833149619396752e-01   1.8985307363452006e-01   2.3855717397417614e-01   2.4027007278840568e-01   2.8101864855608022e-01   2.8212667007796238e-01   3.4399444531645706e-01   3.6307726282670971e-01   4.1038426466484701e-01   4.1426839928502868e-01   4.6469381002781018e-01   4.7049272532986447e-01   5.1201621521360130e-01   5.4326645588461675e-01   5.6275714201662408e-01   5.6434110248985869e-01   6.0385801716397070e-01   6.0424293840577348e-01   6.0793919307591726e-01   6.0552112736695585e-01   6.0461901842599086e-01   6.1210181235099170e-01   5.8880031276222156e-01   5.8618886912445889e-01   5.7363775134962469e-01   5.6768606135249622e-01   5.5468400746781876e-01   5.4667148820637190e-01   5.3137128852557214e-01   5.2498594206095983e-01   5.1000214323413462e-01   4.9692828886516988e-01   4.8162468981624229e-01   4.7057358690486917e-01   4.3724580835621368e-01   1.9700633355784480e-01   2.2660092309311164e-01   2.3837663584042948e-01   2.8592591103777049e-01   2.8620192995674365e-01   3.5023731606060471e-01   3.4617826566143439e-01   4.1972667879613884e-01   4.2377382822378984e-01   4.6710820070431741e-01   4.6939715707622232e-01   5.4820918055232426e-01   5.4900261983676457e-01   6.0404606734961763e-01   6.0614290931505166e-01   6.3855279557280398e-01   6.4501058906339326e-01   6.2460989722701099e-01   6.2613679041377834e-01   6.0536432585323396e-01   6.1545199836579190e-01   5.7914393672377373e-01   5.7481261221012936e-01   5.5672470108585015e-01   5.5041967289112304e-01   5.3196069254013256e-01   5.2349029694516414e-01   5.0753834007068155e-01   4.9868366186305918e-01   4.8378069165544491e-01   4.5812646786304972e-01   4.5126160909670210e-01   4.3341880305705832e-01   4.1676974630830532e-01   4.0387517623184216e-01   3.7754542354674780e-01   3.7076139971849054e-01   3.3647852457567651e-01   2.8978349490100708e-01   3.4641032940855454e-01   3.3979593563196997e-01   4.1821628311400860e-01   4.1859688579000903e-01   4.8088274319227131e-01   4.7218408159890563e-01   5.2644365582314212e-01   5.3060575371682861e-01   6.0557232544764927e-01   6.0405855205205150e-01   6.4376352603556530e-01   6.4266614760856589e-01   6.2861351739713878e-01   6.5274647814346343e-01   6.1391760076622304e-01   6.1076889274300328e-01   5.6933742594013736e-01   5.6478854143170909e-01   5.3361373008535851e-01   5.3272548990748947e-01   5.0164983076815739e-01   5.0085613910408888e-01   4.7334717189201181e-01   4.7153776328960401e-01   4.3641918107270966e-01   4.2964018715390706e-01   4.1281857648368514e-01   4.0324708021791672e-01   3.9419007177835425e-01   3.8782339714336339e-01   3.6814456284201380e-01   3.6381920480322144e-01   3.3175202757208005e-01   3.3126202712402308e-01   2.9460933450056709e-01   2.9814820087169258e-01   2.1907907548415714e-01   4.0853891087155442e-01   4.7869763175586982e-01   4.8201740198898058e-01   5.2230727118506370e-01   5.2795236313833371e-01   5.7865826168430767e-01   5.6953897680812171e-01   6.4051048672502597e-01   6.4238753566138196e-01   6.5120614767760232e-01   6.4884252829922517e-01   6.1327755847466225e-01   6.1194904379908110e-01   5.8006377107566143e-01   5.7815105884254536e-01   5.1718168282320143e-01   5.2165115656697358e-01   4.9430601054866374e-01   4.9052576769144557e-01   4.6181814664215864e-01   4.5835162998301654e-01   4.2323602518045217e-01   4.1994445508719386e-01   3.9524473568551982e-01   3.8599856771645058e-01   3.6500204379729828e-01   3.6077302114428988e-01   3.4519807356761190e-01   3.0669034564323372e-01   2.9112413170888968e-01   2.8349164785933112e-01   2.6213952517851069e-01   2.5792111662959843e-01   2.2881235664187324e-01   2.2668148658123730e-01   1.6017342404035737e-01   1.6202937467082942e-01   1.2477542144352838e-01   5.3864677029797647e-01   5.7365147708591668e-01   5.7665322122117224e-01   5.9859888904221503e-01   6.0314990252831413e-01   6.3918966254286280e-01   6.0393224424364700e-01   5.6991419805350629e-01   5.7316167111103500e-01   5.4722768294710122e-01   5.4793259427122454e-01   5.1771139550566037e-01   5.1823717399961367e-01   4.8878720533470243e-01   4.8691677761661600e-01   4.4882557487309416e-01   4.4780190276054271e-01   4.1243710795934502e-01   4.0998372178743342e-01   3.8095635629140628e-01   3.7817757788534456e-01   3.2938628548474497e-01   3.2584236325214810e-01   2.9101399880630330e-01   2.8450035838243037e-01   2.6513678929636308e-01   2.6028336518064277e-01   2.4474065491497163e-01   2.4290490134871112e-01   1.9465961561349512e-01   1.8869233006807140e-01   1.6526165127579337e-01   1.6207274792070478e-01   1.2872238913680958e-01   1.2946173990500365e-01   9.0231973891457692e-02   9.3775080331162247e-02   5.9033606090371560e-02   6.0509618324339165e-01   6.1267968216495794e-01   6.1761440690643166e-01   5.8290113675417476e-01   5.9324916465465405e-01   5.5797829345567951e-01   5.6311829870878283e-01   5.2692951537714661e-01   5.3191791009758382e-01   4.8722183894446464e-01   4.8478745593031564e-01   4.3992547504172086e-01   4.3825722894127145e-01   3.9777286200729167e-01   3.9737844677315876e-01   3.6184588624360686e-01   3.6027404222257176e-01   3.1086805347955843e-01   3.0761197860995337e-01   2.7977695040334499e-01   2.6204748344747858e-01   2.4680133594300313e-01   2.3930377749640952e-01   1.9716552918344465e-01   1.8811793259064127e-01   1.7252508999667299e-01   1.6308395220497671e-01   1.4868094915400931e-01   1.4295881484522882e-01   1.2231785009357365e-01   1.1887123016267016e-01   9.3157944251263461e-02   9.2272576409830664e-02   6.0054193460560214e-02   6.1216238827483546e-02   3.0822369627190292e-02   2.7905999912006162e-02   0.0000000000000000e+00   5.9261603599177815e-01   5.6694476175724817e-01   5.9297228202083929e-01   5.3032895245583889e-01   5.3658779735205375e-01   4.9235723572574419e-01   4.9183385610503116e-01   4.4188612019293488e-01   4.3423837183042507e-01   4.0084865437527034e-01   3.8841215190617040e-01   3.5846023097141466e-01   3.5210587544472277e-01   2.9852043652913257e-01   2.9170392284843172e-01   2.6223061996591557e-01   2.5273867227182917e-01   2.1527183991255155e-01   2.0392037725380452e-01   1.6625907711121879e-01   1.4529015560223316e-01   1.4154085417174861e-01   1.2657087114605090e-01   1.1402743807328156e-01   9.8526351039328025e-02   9.1336793905297253e-02   7.5578620943449026e-02   7.0246003053371933e-02   5.4907942366684601e-02   4.1577375271881760e-02   2.8750115350859046e-02   1.3248461983538420e-02   2.3705282787749864e-03   0.0000000000000000e+00   0.0000000000000000e+00   0.0000000000000000e+00   0.0000000000000000e+00   0.0000000000000000e+00   5.3742447014132633e-01   4.9008278908580738e-01   4.6953226538130682e-01   4.1976780716714024e-01   4.2176261922318692e-01   3.6861509824473720e-01   3.5693460344284428e-01   3.0985939518363181e-01   2.9772740756993027e-01   2.6869124269162914e-01   2.4867026798216030e-01   2.2372577251149461e-01   2.0806072755710114e-01   1.7710536245540776e-01   1.5949536626587441e-01   1.1366745858618221e-01   1.2086741364165779e-01   8.0588451330775468e-02   6.1069227540556610e-02   6.0293271497838440e-02   3.0622270210818765e-02   3.7474636989595578e-02   1.4953677962356011