<?xml version="1.0"?>
<VTKFile type="UnstructuredGrid"  version="0.1"  >
<UnstructuredGrid>
<Piece  NumberOfPoints="640" NumberOfCells="1181">
<Points>
<DataArray  type="Float64"  NumberOfComponents="3"  format="ascii">2.973913043478261 0 0  2.990434782608696 0 0  2.990434782608696 0.01666666666666667 0  2.973913043478261 0.01666666666666667 0  3.006956521739131 0 0  3.006956521739131 0.01666666666666667 0  3.023478260869565 0 0  3.023478260869565 0.01666666666666667 0  3.04 0 0  3.04 0.01666666666666667 0  3.056521739130435 0 0  3.056521739130435 0.01666666666666667 0  3.073043478260869 0 0  3.073043478260869 0.01666666666666667 0  3.089565217391304 0 0  3.089565217391304 0.01666666666666667 0  3.106086956521739 0 0  3.106086956521739 0.01666666666666667 0  3.122608695652174 0 0  3.122608695652174 0.01666666666666667 0  3.139130434782609 0 0  3.139130434782609 0.01666666666666667 0  3.155652173913043 0 0  3.155652173913043 0.01666666666666667 0  3.172173913043478 0 0  3.172173913043478 0.01666666666666667 0  3.188695652173913 0 0  3.188695652173913 0.01666666666666667 0  3.205217391304347 0 0  3.205217391304347 0.01666666666666667 0  3.221739130434782 0 0  3.221739130434782 0.01666666666666667 0  3.238260869565217 0 0  3.238260869565217 0.01666666666666667 0  2.990434782608696 0.03333333333333333 0  2.973913043478261 0.03333333333333333 0  3.006956521739131 0.03333333333333333 0  3.023478260869565 0.03333333333333333 0  3.04 0.03333333333333333 0  3.056521739130435 0.03333333333333333 0  3.073043478260869 0.03333333333333333 0  3.089565217391304 0.03333333333333333 0  3.106086956521739 0.03333333333333333 0  3.122608695652174 0.03333333333333333 0  3.139130434782609 0.03333333333333333 0  3.155652173913043 0.03333333333333333 0  3.172173913043478 0.03333333333333333 0  3.188695652173913 0.03333333333333333 0  3.205217391304347 0.03333333333333333 0  3.221739130434782 0.03333333333333333 0  3.238260869565217 0.03333333333333333 0  3.254782608695652 0.03333333333333333 0  2.990434782608696 0.05 0  3.006956521739131 0.05 0  3.023478260869565 0.05 0  3.04 0.05 0  3.056521739130435 0.05 0  3.073043478260869 0.05 0  3.089565217391304 0.05 0  3.106086956521739 0.05 0  3.122608695652174 0.05 0  3.139130434782609 0.05 0  3.155652173913043 0.05 0  3.172173913043478 0.05 0  3.188695652173913 0.05 0  3.205217391304347 0.05 0  3.221739130434782 0.05 0  3.238260869565217 0.05 0  3.254782608695652 0.05 0  3.271304347826087 0.05 0  3.006956521739131 0.06666666666666667 0  2.990434782608696 0.06666666666666667 0  3.023478260869565 0.06666666666666667 0  3.04 0.06666666666666667 0  3.056521739130435 0.06666666666666667 0  3.073043478260869 0.06666666666666667 0  3.089565217391304 0.06666666666666667 0  3.106086956521739 0.06666666666666667 0  3.122608695652174 0.06666666666666667 0  3.139130434782609 0.06666666666666667 0  3.155652173913043 0.06666666666666667 0  3.172173913043478 0.06666666666666667 0  3.188695652173913 0.06666666666666667 0  3.205217391304347 0.06666666666666667 0  3.221739130434782 0.06666666666666667 0  3.238260869565217 0.06666666666666667 0  3.254782608695652 0.06666666666666667 0  3.271304347826087 0.06666666666666667 0  3.287826086956521 0.06666666666666667 0  3.006956521739131 0.08333333333333333 0  3.023478260869565 0.08333333333333333 0  3.04 0.08333333333333333 0  3.056521739130435 0.08333333333333333 0  3.073043478260869 0.08333333333333333 0  3.089565217391304 0.08333333333333333 0  3.106086956521739 0.08333333333333333 0  3.122608695652174 0.08333333333333333 0  3.139130434782609 0.08333333333333333 0  3.155652173913043 0.08333333333333333 0  3.172173913043478 0.08333333333333333 0  3.188695652173913 0.08333333333333333 0  3.205217391304347 0.08333333333333333 0  3.221739130434782 0.08333333333333333 0  3.238260869565217 0.08333333333333333 0  3.254782608695652 0.08333333333333333 0  3.271304347826087 0.08333333333333333 0  3.287826086956521 0.08333333333333333 0  3.304347826086957 0.08333333333333333 0  3.023478260869565 0.1 0  3.006956521739131 0.1 0  3.04 0.1 0  3.056521739130435 0.1 0  3.073043478260869 0.1 0  3.089565217391304 0.1 0  3.106086956521739 0.1 0  3.122608695652174 0.1 0  3.139130434782609 0.1 0  3.155652173913043 0.1 0  3.172173913043478 0.1 0  3.188695652173913 0.1 0  3.205217391304347 0.1 0  3.221739130434782 0.1 0  3.238260869565217 0.1 0  3.254782608695652 0.1 0  3.271304347826087 0.1 0  3.287826086956521 0.1 0  3.304347826086957 0.1 0  3.320869565217391 0.1 0  3.023478260869565 0.1166666666666667 0  3.04 0.1166666666666667 0  3.056521739130435 0.1166666666666667 0  3.073043478260869 0.1166666666666667 0  3.089565217391304 0.1166666666666667 0  3.106086956521739 0.1166666666666667 0  3.122608695652174 0.1166666666666667 0  3.139130434782609 0.1166666666666667 0  3.155652173913043 0.1166666666666667 0  3.172173913043478 0.1166666666666667 0  3.188695652173913 0.1166666666666667 0  3.205217391304347 0.1166666666666667 0  3.221739130434782 0.1166666666666667 0  3.238260869565217 0.1166666666666667 0  3.254782608695652 0.1166666666666667 0  3.271304347826087 0.1166666666666667 0  3.287826086956521 0.1166666666666667 0  3.304347826086957 0.1166666666666667 0  3.320869565217391 0.1166666666666667 0  3.337391304347826 0.1166666666666667 0  3.04 0.1333333333333333 0  3.023478260869565 0.1333333333333333 0  3.056521739130435 0.1333333333333333 0  3.073043478260869 0.1333333333333333 0  3.089565217391304 0.1333333333333333 0  3.106086956521739 0.1333333333333333 0  3.122608695652174 0.1333333333333333 0  3.139130434782609 0.1333333333333333 0  3.155652173913043 0.1333333333333333 0  3.172173913043478 0.1333333333333333 0  3.188695652173913 0.1333333333333333 0  3.205217391304347 0.1333333333333333 0  3.221739130434782 0.1333333333333333 0  3.238260869565217 0.1333333333333333 0  3.254782608695652 0.1333333333333333 0  3.271304347826087 0.1333333333333333 0  3.287826086956521 0.1333333333333333 0  3.304347826086957 0.1333333333333333 0  3.320869565217391 0.1333333333333333 0  3.337391304347826 0.1333333333333333 0  3.353913043478261 0.1333333333333333 0  3.04 0.15 0  3.056521739130435 0.15 0  3.073043478260869 0.15 0  3.089565217391304 0.15 0  3.106086956521739 0.15 0  3.122608695652174 0.15 0  3.139130434782609 0.15 0  3.155652173913043 0.15 0  3.172173913043478 0.15 0  3.188695652173913 0.15 0  3.205217391304347 0.15 0  3.221739130434782 0.15 0  3.238260869565217 0.15 0  3.254782608695652 0.15 0  3.271304347826087 0.15 0  3.287826086956521 0.15 0  3.304347826086957 0.15 0  3.320869565217391 0.15 0  3.337391304347826 0.15 0  3.353913043478261 0.15 0  3.370434782608696 0.15 0  3.056521739130435 0.1666666666666667 0  3.073043478260869 0.1666666666666667 0  3.089565217391304 0.1666666666666667 0  3.106086956521739 0.1666666666666667 0  3.122608695652174 0.1666666666666667 0  3.139130434782609 0.1666666666666667 0  3.155652173913043 0.1666666666666667 0  3.172173913043478 0.1666666666666667 0  3.188695652173913 0.1666666666666667 0  3.205217391304347 0.1666666666666667 0  3.221739130434782 0.1666666666666667 0  3.238260869565217 0.1666666666666667 0  3.254782608695652 0.1666666666666667 0  3.271304347826087 0.1666666666666667 0  3.287826086956521 0.1666666666666667 0  3.304347826086957 0.1666666666666667 0  3.320869565217391 0.1666666666666667 0  3.337391304347826 0.1666666666666667 0  3.353913043478261 0.1666666666666667 0  3.370434782608696 0.1666666666666667 0  3.386956521739131 0.1666666666666667 0  3.073043478260869 0.1833333333333333 0  3.089565217391304 0.1833333333333333 0  3.106086956521739 0.1833333333333333 0  3.122608695652174 0.1833333333333333 0  3.139130434782609 0.1833333333333333 0  3.155652173913043 0.1833333333333333 0  3.172173913043478 0.1833333333333333 0  3.188695652173913 0.1833333333333333 0  3.205217391304347 0.1833333333333333 0  3.221739130434782 0.1833333333333333 0  3.238260869565217 0.1833333333333333 0  3.254782608695652 0.1833333333333333 0  3.271304347826087 0.1833333333333333 0  3.287826086956521 0.1833333333333333 0  3.304347826086957 0.1833333333333333 0  3.320869565217391 0.1833333333333333 0  3.337391304347826 0.1833333333333333 0  3.353913043478261 0.1833333333333333 0  3.370434782608696 0.1833333333333333 0  3.386956521739131 0.1833333333333333 0  3.403478260869565 0.1833333333333333 0  3.089565217391304 0.2 0  3.106086956521739 0.2 0  3.122608695652174 0.2 0  3.139130434782609 0.2 0  3.155652173913043 0.2 0  3.172173913043478 0.2 0  3.188695652173913 0.2 0  3.205217391304347 0.2 0  3.221739130434782 0.2 0  3.238260869565217 0.2 0  3.254782608695652 0.2 0  3.271304347826087 0.2 0  3.287826086956521 0.2 0  3.304347826086957 0.2 0  3.320869565217391 0.2 0  3.337391304347826 0.2 0  3.353913043478261 0.2 0  3.370434782608696 0.2 0  3.386956521739131 0.2 0  3.403478260869565 0.2 0  3.419999999999999 0.2 0  3.106086956521739 0.2166666666666667 0  3.122608695652174 0.2166666666666667 0  3.139130434782609 0.2166666666666667 0  3.155652173913043 0.2166666666666667 0  3.172173913043478 0.2166666666666667 0  3.188695652173913 0.2166666666666667 0  3.205217391304347 0.2166666666666667 0  3.221739130434782 0.2166666666666667 0  3.238260869565217 0.2166666666666667 0  3.254782608695652 0.2166666666666667 0  3.271304347826087 0.2166666666666667 0  3.287826086956521 0.2166666666666667 0  3.304347826086957 0.2166666666666667 0  3.320869565217391 0.2166666666666667 0  3.337391304347826 0.2166666666666667 0  3.353913043478261 0.2166666666666667 0  3.370434782608696 0.2166666666666667 0  3.386956521739131 0.2166666666666667 0  3.403478260869565 0.2166666666666667 0  3.419999999999999 0.2166666666666667 0  3.436521739130435 0.2166666666666667 0  3.122608695652174 0.2333333333333333 0  3.139130434782609 0.2333333333333333 0  3.155652173913043 0.2333333333333333 0  3.172173913043478 0.2333333333333333 0  3.188695652173913 0.2333333333333333 0  3.205217391304347 0.2333333333333333 0  3.221739130434782 0.2333333333333333 0  3.238260869565217 0.2333333333333333 0  3.254782
[...]
<CellData  Scalars="rho_bar"> 
<DataArray  type="Float64"  Name="rho_bar"  format="ascii">9.9999999477959678e-01   9.9999994915736212e-01   9.9999998981641214e-01   9.9999987090322007e-01   9.9999999339246226e-01   9.9999986086744497e-01   9.9999999896190517e-01   9.9999995819713472e-01   9.9999999994914701e-01   9.9999999679754592e-01   9.9999999999744948e-01   9.9999999989543820e-01   9.9999999999825306e-01   9.9999999999113498e-01   9.9999999894960367e-01   9.9999999983239551e-01   9.9319236242972553e-01   9.9997816047257004e-01   1.1792397810172863e-03   3.1236310646774401e-01   1.8892295135704740e-12   3.6653526787796173e-09   0.0000000000000000e+00   9.2518585385429728e-17   0.0000000000000000e+00   0.0000000000000000e+00   0.0000000000000000e+00   0.0000000000000000e+00   0.0000000000000000e+00   0.0000000000000000e+00   0.0000000000000000e+00   0.0000000000000000e+00   6.6666020167775442e-01   3.2790328258129453e-01   6.6619858743897065e-01   3.1779526982149481e-01   6.6673125897478414e-01   3.1431030966180867e-01   6.7944064222114875e-01   3.2847342171591704e-01   9.7320051652307438e-01   3.7021686573611312e-01   9.9998493530850019e-01   8.5110491137031330e-01   9.9999998683289615e-01   9.9994585626822707e-01   9.9999999726648403e-01   9.9999995681123266e-01   9.9994516408140177e-01   9.9999990568859809e-01   3.9193230583015731e-01   9.9504447076135605e-01   8.1516138940769979e-08   1.4274868674841377e-02   2.4933758761373305e-14   5.2890856879391403e-09   0.0000000000000000e+00   7.0961754990624578e-15   0.0000000000000000e+00   0.0000000000000000e+00   0.0000000000000000e+00   0.0000000000000000e+00   0.0000000000000000e+00   0.0000000000000000e+00   0.0000000000000000e+00   1.3806362534711055e-10   8.5986625227481753e-11   2.7487271718011168e-14   2.5629004474225781e-10   6.2403785842472345e-14   9.4326753075080222e-09   1.1144881314114248e-12   7.5465055640507491e-06   3.2411873185367313e-10   8.1532461750610616e-02   2.7579015478285127e-06   9.8639897424285650e-01   2.3188076346647865e-01   9.9999980028308622e-01   9.9879746514641865e-01   9.9999995133318842e-01   9.9999998826377234e-01   9.9976210355405215e-01   9.9999997581261024e-01   5.8492317568055796e-01   9.9978111421347637e-01   1.5856080121031658e-02   6.4728566633941198e-01   2.5679331966399483e-07   5.8321581136775935e-02   3.3095008215392836e-12   2.2520940467970116e-06   1.8503717077085938e-17   2.6712724624881428e-11   0.0000000000000000e+00   8.3266726846886741e-17   0.0000000000000000e+00   0.0000000000000000e+00   0.0000000000000000e+00   0.0000000000000000e+00   0.0000000000000000e+00   0.0000000000000000e+00   0.0000000000000000e+00   0.0000000000000000e+00   0.0000000000000000e+00   1.1102230246251564e-16   0.0000000000000000e+00   1.9699330130092580e-10   2.4628447429601387e-14   2.1238274067352614e-02   1.3771424175847607e-05   9.9933487699624346e-01   8.1544032543405331e-01   9.9999999874606504e-01   9.9999999289964570e-01   9.9999999995452593e-01   9.9999999999678535e-01   9.9999999401573691e-01   9.9999999999219158e-01   9.9998219455821324e-01   9.9999999793126548e-01   8.9951258648985466e-01   9.9999587775193277e-01   3.6066516245440411e-01   9.8026706588438028e-01   1.5273797398052968e-02   6.5060185198996057e-01   5.1078647080500999e-08   8.7097766238098298e-02   5.7824115865893572e-15   1.9691495233472206e-07   0.0000000000000000e+00   8.0768725041480123e-15   0.0000000000000000e+00   0.0000000000000000e+00   0.0000000000000000e+00   0.0000000000000000e+00   0.0000000000000000e+00   0.0000000000000000e+00   0.0000000000000000e+00   0.0000000000000000e+00   7.4165673602522010e-13   1.8235413179468196e-14   5.1829324865269762e-03   8.5055454624653276e-05   9.8992209366061046e-01   8.3970348032787701e-01   9.9999999975276588e-01   9.9999999829468122e-01   9.9999999999994305e-01   9.9999999999987932e-01   9.9999999999995681e-01   9.9999999999996947e-01   9.9999999999942712e-01   9.9999999999988309e-01   9.9999999997208489e-01   9.9999999999902056e-01   9.9999999521588068e-01   9.9999999997522337e-01   9.9999355827273895e-01   9.9999999726728439e-01   8.6724502193093744e-01   9.9999685942849825e-01   2.5892596168395304e-01   9.0524608876926593e-01   4.4125477881758641e-07   2.6773648598796279e-01   1.5173048003210472e-15   2.7266558449978717e-07   5.3660779523549220e-16   0.0000000000000000e+00   0.0000000000000000e+00   0.0000000000000000e+00   0.0000000000000000e+00   0.0000000000000000e+00   0.0000000000000000e+00   1.2891937998619577e-08   1.8192735651290093e-09   3.9762621019043060e-01   2.5760742794333963e-01   9.9977939277819527e-01   9.9869107598905249e-01   9.9999999981100374e-01   9.9999999919494365e-01   9.9999999966172093e-01   9.9999999791701866e-01   9.9999999400052453e-01   9.9999988021356656e-01   9.9999999083656721e-01   9.9999933219026460e-01   9.9999999889953373e-01   9.9999979191993449e-01   9.9999999991821575e-01   9.9999999276253448e-01   9.9999999997565892e-01   9.9999999977351339e-01   9.9999999959408459e-01   9.9999999996002031e-01   9.9999948480975132e-01   9.9999999950552942e-01   9.3092219359567419e-01   9.9999934615041963e-01   1.3874526418937680e-01   9.0031369773566605e-01   4.4218381548925354e-09   7.6010311757347293e-02   7.5823993380315824e-10   0.0000000000000000e+00   0.0000000000000000e+00   0.0000000000000000e+00   1.3306551231255048e-10   8.0884243747192373e-11   6.8578780804389797e-02   4.7600155362918055e-02   7.4779330108704734e-01   7.2535475980580133e-01   9.9999955846877564e-01   9.9999927873537209e-01   9.9998576389127258e-01   9.9996827805552324e-01   7.3446166158858317e-01   6.6816231348299349e-01   6.6328588330959759e-01   3.2961609019670640e-01   6.4995925676024924e-01   1.2511779561429279e-01   6.6474327262561994e-01   1.6426086726975855e-01   8.2030333285289747e-01   3.3233868094207381e-01   9.9996276885900914e-01   6.8900615994264558e-01   9.9999998189776784e-01   9.9986934529223470e-01   9.9999999972024267e-01   9.9999996475813113e-01   9.9999999841894749e-01   9.9999999953518204e-01   9.9999441847761983e-01   9.9999999727183408e-01   6.7517259868537460e-01   9.9998784839099941e-01   5.6460188159695990e-04   5.4365134225723044e-01   5.2799259157521046e-05   1.7935923117088726e-10   2.9420457736684114e-10   6.2527705925906715e-02   7.8892475555550456e-02   6.8213404801447597e-01   6.8528563076935012e-01   9.9999650343598956e-01   9.9999684032242364e-01   9.9995332316551977e-01   9.9996073226091331e-01   5.8868064031994305e-01   5.9263961773609153e-01   2.0227950119472977e-03   4.0916013398848794e-04   1.4628446694716264e-09   2.5647141817704746e-11   9.4303268897514658e-13   1.4988010832439611e-15   6.7736187029746962e-12   2.5905203907920311e-16   3.1204526990125103e-08   4.1392815101441251e-14   3.2457485823356729e-03   1.0553144839479478e-09   5.3709304606635566e-01   4.3485372838542036e-04   9.9533105449293025e-01   4.0821063119135825e-01   9.9999977618511582e-01   9.9268675132533857e-01   9.9999999821659769e-01   9.9999970691589957e-01   9.9999996004214398e-01   9.9999999726370881e-01   9.9848846644534028e-01   9.9999991391495446e-01   2.8102557912125209e-01   9.9408179507337890e-01   8.8229958870974012e-02   1.8763517187634354e-01   7.3077839231990149e-01   7.5296534829353934e-01   9.9999881679275526e-01   9.9999908963288775e-01   9.9999712335118329e-01   9.9999793719795815e-01   6.2513756119245978e-01   6.6340299093781452e-01   3.2262191563571058e-04   6.6422426233691168e-04   6.0359125105454340e-14   3.1881904523819068e-14   0.0000000000000000e+00   0.0000000000000000e+00   0.0000000000000000e+00   0.0000000000000000e+00   0.0000000000000000e+00   0.0000000000000000e+00   0.0000000000000000e+00   0.0000000000000000e+00   0.0000000000000000e+00   0.0000000000000000e+00   9.8832053652131435e-13   0.0000000000000000e+00   1.1435058636544145e-05   3.7796617687509598e-13   3.6750535961119496e-01   8.6347111404871929e-06   9.9489784579200369e-01   3.9190753170836418e-01   9.9999982196643744e-01   9.9599064433304718e-01   9.9999999126111994e-01   9.9999983246186142e-01   9.9999086508264190e-01   9.9999998477983010e-01   6.6099735220330924e-01   9.9996844269218599e-01   3.6503128987770173e-01   9.9999985367276767e-01   9.9999954302522709e-01   9.9999957538245299e-01   6.8923348060138168e-01   6.9655391266105882e-01   1.1501950456453060e-02   2.7077070301083923e-02   2.1173803451309442e-13   4.5567253674031828e-13   0.0000000000000000e+00   0.0000000000000000e+00   0.0000000000000000e+00   0.0000000000000000e+00   0.0000000000000000e+00   0.0000000000000000e+00   0.0000000000000000e+00   0.0000000000000000e+00   0.0000000000000000e+00   0.0000000000000000e+00   0.0000000000000000e+00   0.0000000000000000e+00   0.0000000000000000e+00   0.0000000000000000e+00   0.0000000000000000e+00   0.0000000000000000e+00   1.6020518245341004e-13   0.0000000000000000e+00   2.2283350037631079e-05   3.1850448204788029e-13   4.5271731087556200e-01   8.2316310128310866e-05   9.9991498711192706e-01   6.3028868901748825e-01   9.9999996431805238e-01   9.9995618500902861e-01   9.9999956776567001e-01   9.9999996302415206e-01   9.3918046602682581e-01   9.9999881999574380e-01   7.7847796482774634e-01   6.8821892421427544e-01   7.8595330889019016e-02   7.1964572779040906e-02   8.4893481133718751e-12   1.2694539863744579e-11   0.0000000000000000e+00   0.0000000000000000e+00   0.0000000000000000e+00   0.0000000000000000e+00   0.0000000000000000e+00   0.0000000000000000e+00   0.0000000000000000e+00   0.0000000000000000e+00   0.0000000000000000e+00   0.0000000000000000e+00   0.0000000000000000e+00   0.0000000000000000e+00   0.0000000000000000e+00   0.0000000000000000e+00   0.0000000000000000e+00   0.0000000000000000e+00   0.0000000000000000e+00   0.0000000000000000e+00   0.0000000000000000e+00   0.0000000000000000e+00   0.0000000000000000e+00   0.0000000000000000e+00   3.6249697688006664e-11   0.0000000000000000e+00   1.3150766368702327e-02   3.5003453839147858e-10   9.2691582749572243e-01   8.5201498605443862e-02   9.9999930264903403e-01   9.7550640475243688e-01   9.9999990606684686e-01   9.9999957782837146e-01   9.9895699792905990e-01   9.9999980689754897e-01   9.9316795487370146e-01   6.8536565311916328e-12   0.0000000000000000e+00   0.0000000000000000e+00   0.0000000000000000e+00   0.0000000000000000e+00   0.0000000000000000e+00   0.0000000000000000e+00   0.0000000000000000e+00   0.0000000000000000e+00   0.0000000000000000e+00   0.0000000000000000e+00   0.0000000000000000e+00   0.0000000000000000e+00   0.0000000000000000e+00   0.0000000000000000e+00   0.0000000000000000e+00   0.0000000000000000e+00   0.0000000000000000e+00   0.0000000000000000e+00   0.0000000000000000e+00   0.0000000000000000e+00   0.0000000000000000e+00   0.0000000000000000e+00   0.0000000000000000e+00   0.0000000000000000e+00   0.0000000000000000e+00   0.0000000000000000e+00   3.1456319031046099e-16   0.0000000000000000e+00   1.8483131149401213e-06   5.6158781328955838e-15   4.0217932680491741e-01   4.5345395319742091e-05   9.9997727263866754e-01   6.6916992499006223e-01   9.9999992555989525e-01   9.9999185192187556e-01   9.9994493852594390e-01   9.9999989927832134e-01   9.9972458057685132e-01   0.0000000000000000e+00   0.0000000000000000e+00   0.0000000000000000e+00   0.0000000000000000e+00   0.0000000000000000e+00   0.0000000000000000e+00   0.0000000000000000e+00   0.0000000000000000e+00   0.0000000000000000e+00   0.0000000000000000e+00   0.0000000000000000e+00   0.0000000000000000e+00   0.0000000000000000e+00   0.0000000000000000e+00   0.0000000000000000e+00   0.0000000000000000e+00   0.0000000000000000e+00   0.0000000000000000e+00   0.0000000000000000e+00   0.0000000000000000e+00   0.0000000000000000e+00   0.0000000000000000e+00   0.0000000000000000e+00   0.0000000000000000e+00   0.0000000000000000e+00   0.0000000000000000e+00   0.0000000000000000e+00   0.0000000000000000e+00   0.0000000000000000e+00   5.3028928470588700e-10   0.0000000000000000e+00   1.7120778286274352e-01   2.4967178269275081e-08   9.9906564139382004e-01   4.7409630142185433e-01   9.9999983977744256e-01   9.9978686345878276e-01   9.9999453258323778e-01   9.9999986881542324e-01   9.9998224905306343e-01   0.0000000000000000e+00   0.0000000000000000e+00   0.0000000000000000e+00   0.0000000000000000e+00   0.0000000000000000e+00   0.0000000000000000e+00   0.0000000000000000e+00   0.0000000000000000e+00   0.0000000000000000e+00   0.0000000000000000e+00   0.0000000000000000e+00   0.0000000000000000e+00   0.0000000000000000e+00   0.0000000000000000e+00   0.0000000000000000e+00   0.0000000000000000e+00   0.0000000000000000e+00   0.0000000000000000e+00   0.0000000000000000e+00   0.0000000000000000e+00   0.0000000000000000e+00   0.0000000000000000e+00   0.0000000000000000e+00   0.0000000000000000e+00   0.0000000000000000e+00   0.0000000000000000e+00   0.0000000000000000e+00   0.0000000000000000e+00   0.0000000000000000e+00   3.7956674840226390e-13   0.0000000000000000e+00   2.2241315590330693e-03   2.1639458743412849e-11   9.4798634956733741e-01   5.9554859091581591e-02   9.9999925241032772e-01   9.9042966272438648e-01   9.9999929613321781e-01   9.9999961568051865e-01   9.9999859334871666e-01   0.0000000000000000e+00   0.0000000000000000e+00   0.0000000000000000e+00   0.0000000000000000e+00   0.0000000000000000e+00   0.0000000000000000e+00   0.0000000000000000e+00   0.0000000000000000e+00   0.0000000000000000e+00   0.0000000000000000e+00   0.0000000000000000e+00   0.0000000000000000e+00   0.0000000000000000e+00   0.0000000000000000e+00   0.0000000000000000e+00   0.0000000000000000e+00   0.0000000000000000e+00   0.0000000000000000e+00   0.0000000000000000e+00   0.0000000000000000e+00   0.0000000000000000e+00   0.0000000000000000e+00   0.0000000000000000e+00   0.0000000000000000e+00   0.0000000000000000e+00   0.0000000000000000e+00   0.0000000000000000e+00   0.0000000000000000e+00   0.0000000000000000e+00   3.2381504884900393e-16   0.0000000000000000e+00   8.4886462701494469e-06   1.7865338837926476e-14   5.1116694337903401e-01   3.9668491684763380e-04   9.9999397250653665e-01   7.5081635961718507e-01   9.9999986496629234e-01   9.9999800765113134e-01   9.9999982702411216e-01   0.0000000000000000e+00   0.0000000000000000e+00   0.0000000000000000e+00   0.0000000000000000e+00   0.0000000000000000e+00   0.0000000000000000e+00   0.0000000000000000e+00   0.0000000000000000e+00   0.0000000000000000e+00   0.0000000000000000e+00   0.0000000000000000e+00   0.0000000000000000e+00   0.0000000000000000e+00   0.0000000000000000e+00   0.0000000000000000e+00   0.0000000000000000e+00   0.0000000000000000e+00   0.0000000000000000e+00   0.0000000000000000e+00   0.0000000000000000e+00   0.0000000000000000e+00   0.0000000000000000e+00   0.0000000000000000e+00   0.0000000000000000e+00   0.0000000000000000e+00   0.0000000000000000e+00   0.0000000000000000e+00   0.0000000000000000e+00   0.0000000000000000e+00   0.0000000000000000e+00   0.0000000000000000e+00   1.7929498089911768e-08   1.8503717077085944e-17   3.1690987052110758e-01   1.2036295009657896e-06   9.9992462293303619e-01   6.4735740188208291e-01   9.9999993263339648e-01   9.9998266105954892e-01   9.9999994367703804e-01   0.0000000000000000e+00   0.0000000000000000e+00   0.0000000000000000e+00   0.0000000000000000e+00   0.0000000000000000e+00   0.0000000000000000e+00   0.0000000000000000e+00   0.0000000000000000e+00   0.0000000000000000e+00   0.0000000000000000e+00   0.0000000000000000e+00   0.0000000000000000e+00   0.0000000000000000e+00   0.0000000000000000e+00   0.0000000000000000e+00   0.0000000000000000e+00   0.0000000000000000e+00   0.0000000000000000e+00   0.0000000000000000e+00   0.0000000000000000e+00   0.0000000000000000e+00   0.0000000000000000e+00   0.0000000000000000e+00   0.0000000000000000e+00   0.0000000000000000e+00   0.0000000000000000e+00   0.0000000000000000e+00   0.0000000000000000e+00   0.0000000000000000e+00   0.0000000000000000e+00   0.0000000000000000e+00   4.7861390776541641e-11   0.0000000000000000e+00   7.7189768318742177e-02   3.4911103637587835e-09   9.9778149365038971e-01   3.7259132688397717e-01   9.9999986406505204e-01   9.9956832888744185e-01   9.9999991886107675e-01   0.0000000000000000e+00   0.0000000000000000e+00   0.0000000000000000e+00   0.0000000000000000e+00   0.0000000000000000e+00   0.0000000000000000e+00   0.0000000000000000e+00   0.0000000000000000e+00   0.0000000000000000e+00   0.0000000000000000e+00   0.0000000000000000e+00   0.0000000000000000e+00   0.0000000000000000e+00   0.0000000000000000e+00   0.0000000000000000e+00   0.0000000000000000e+00   0.0000000000000000e+00   0.0000000000000000e+00   0.0000000000000000e+00   0.0000000000000000e+00   0.0000000000000000e+00   0.0000000000000000e+00   0.0000000000000000e+00   0.0000000000000000e+00   0.0000000000000000e+00   0.0000000000000000e+00   0.0000000000000000e+00   0.0000000000000000e+00   0.0000000000000000e+00   0.0000000000000000e+00   0.0000000000000000e+00   8.3174208261501307e-14   0.0000000000000000e+00   6.2422976429296617e-04   4.0943544850809596e-12   8.1807723540408717e-01   1.5247156396297083e-02   9.9999863167912351e-01   9.4012747489865811e-01   9.9999939245159541e-01   0.0000000000000000e+00   0.0000000000000000e+00   0.0000000000000000e+00   0.0000000000000000e+00   0.0000000000000000e+00   0.0000000000000000e+00   0.0000000000000000e+00   0.0000000000000000e+00   0.0000000000000000e+00   0.0000000000000000e+00   0.0000000000000000e+00   0.0000000000000000e+00   0.0000000000000000e+00   0.0000000000000000e+00   0.0000000000000000e+00   0.0000000000000000e+00   0.0000000000000000e+00   0.0000000000000000e+00   0.0000000000000000e+00   0.0000000000000000e+00   0.0000000000000000e+00   0.0000000000000000e+00   0.0000000000000000e+00   0.0000000000000000e+00   0.0000000000000000e+00   0.0000000000000000e+00   0.0000000000000000e+00   0.0000000000000000e+00   0.0000000000000000e+00   0.0000000000000000e+00   0.0000000000000000e+00   3.7007434154171876e-17   0.0000000000000000e+00   5.3236915742438374e-07   1.1934897514720431e-15   3.5904906214235666e-01   1.2931718796136785e-05   9.9994812876700645e-01   6.5207688186840618e-01   9.9998501155592501e-01   0.0000000000000000e+00   0.0000000000000000e+00   0.0000000000000000e+00   0.0000000000000000e+00   0.0000000000000000e+00   0.0000000000000000e+00   0.0000000000000000e+00   0.0000000000000000e+00   0.0000000000000000e+00   0.0000000000000000e+00   0.0000000000000000e+00   0.0000000000000000e+00   0.0000000000000000e+00   0.0000000000000000e+00   0.0000000000000000e+00   0.0000000000000000e+00   0.0000000000000000e+00   0.0000000000000000e+00   0.0000000000000000e+00   0.0000000000000000e+00   0.0000000000000000e+00   0.0000000000000000e+00   0.0000000000000000e+00   0.0000000000000000e+00   0.0000000000000000e+00   0.0000000000000000e+00   0.0000000000000000e+00   0.0000000000000000e+00   0.0000000000000000e+00   0.0000000000000000e+00   0.0000000000000000e+00   0.0000000000000000e+00   0.0000000000000000e+00   1.0201108476456017e-10   0.0000000000000000e+00   5.6342342731991346e-02   2.4753814461172157e-09   9.9455265196009390e-01   2.6344538512200966e-01   9.9914540393112494e-01   0.0000000000000000e+00   0.0000000000000000e+00   0.0000000000000000e+00   0.0000000000000000e+00   0.0000000000000000e+00   0.0000000000000000e+00   0.0000000000000000e+00   0.0000000000000000e+00   0.0000000000000000e+00   0.0000000000000000e+00   0.0000000000000000e+00   0.0000000000000000e+00   0.0000000000000000e+00   0.0000000000000000e+00   0.0000000000000000e+00   0.0000000000000000e+00   0.0000000000000000e+00   0.0000000000000000e+00   0.0000000000000000e+00   0.0000000000000000e+00   0.0000000000000000e+00   0.0000000000000000e+00   0.0000000000000000e+00   0.0000000000000000e+00   0.0000000000000000e+00   0.0000000000000000e+00   0.0000000000000000e+00   0.0000000000000000e+00   0.0000000000000000e+00   0.0000000000000000e+00   0.0000000000000000e+00   0.0000000000000000e+00   0.00000000