<?xml version="1.0"?>
<VTKFile type="UnstructuredGrid"  version="0.1"  >
<UnstructuredGrid>
<Piece  NumberOfPoints="629" NumberOfCells="1162">
<Points>
<DataArray  type="Float64"  NumberOfComponents="3"  format="ascii">0.7104347826086956 0 0  0.7269565217391304 0 0  0.7269565217391304 0.01666666666666667 0  0.7104347826086956 0.01666666666666667 0  0.7434782608695653 0 0  0.7434782608695653 0.01666666666666667 0  0.7599999999999999 0 0  0.7599999999999999 0.01666666666666667 0  0.7765217391304348 0 0  0.7765217391304348 0.01666666666666667 0  0.7930434782608695 0 0  0.7930434782608695 0.01666666666666667 0  0.8095652173913043 0 0  0.8095652173913043 0.01666666666666667 0  0.8260869565217391 0 0  0.8260869565217391 0.01666666666666667 0  0.8426086956521739 0 0  0.8426086956521739 0.01666666666666667 0  0.8591304347826086 0 0  0.8591304347826086 0.01666666666666667 0  0.8756521739130434 0 0  0.8756521739130434 0.01666666666666667 0  0.8921739130434783 0 0  0.8921739130434783 0.01666666666666667 0  0.908695652173913 0 0  0.908695652173913 0.01666666666666667 0  0.9252173913043478 0 0  0.9252173913043478 0.01666666666666667 0  0.9417391304347826 0 0  0.9417391304347826 0.01666666666666667 0  0.9582608695652173 0 0  0.9582608695652173 0.01666666666666667 0  0.9747826086956521 0 0  0.9747826086956521 0.01666666666666667 0  0.991304347826087 0 0  0.991304347826087 0.01666666666666667 0  1.007826086956522 0 0  1.007826086956522 0.01666666666666667 0  1.024347826086957 0 0  1.024347826086957 0.01666666666666667 0  0.7269565217391304 0.03333333333333333 0  0.7104347826086956 0.03333333333333333 0  0.7434782608695653 0.03333333333333333 0  0.7599999999999999 0.03333333333333333 0  0.7765217391304348 0.03333333333333333 0  0.7930434782608695 0.03333333333333333 0  0.8095652173913043 0.03333333333333333 0  0.8260869565217391 0.03333333333333333 0  0.8426086956521739 0.03333333333333333 0  0.8591304347826086 0.03333333333333333 0  0.8756521739130434 0.03333333333333333 0  0.8921739130434783 0.03333333333333333 0  0.908695652173913 0.03333333333333333 0  0.9252173913043478 0.03333333333333333 0  0.9417391304347826 0.03333333333333333 0  0.9582608695652173 0.03333333333333333 0  0.9747826086956521 0.03333333333333333 0  0.991304347826087 0.03333333333333333 0  1.007826086956522 0.03333333333333333 0  1.024347826086957 0.03333333333333333 0  1.040869565217391 0.03333333333333333 0  0.7269565217391304 0.05 0  0.7434782608695653 0.05 0  0.7599999999999999 0.05 0  0.7765217391304348 0.05 0  0.7930434782608695 0.05 0  0.8095652173913043 0.05 0  0.8260869565217391 0.05 0  0.8426086956521739 0.05 0  0.8591304347826086 0.05 0  0.8756521739130434 0.05 0  0.8921739130434783 0.05 0  0.908695652173913 0.05 0  0.9252173913043478 0.05 0  0.9417391304347826 0.05 0  0.9582608695652173 0.05 0  0.9747826086956521 0.05 0  0.991304347826087 0.05 0  1.007826086956522 0.05 0  1.024347826086957 0.05 0  1.040869565217391 0.05 0  1.057391304347826 0.05 0  0.7434782608695653 0.06666666666666667 0  0.7599999999999999 0.06666666666666667 0  0.7765217391304348 0.06666666666666667 0  0.7930434782608695 0.06666666666666667 0  0.8095652173913043 0.06666666666666667 0  0.8260869565217391 0.06666666666666667 0  0.8426086956521739 0.06666666666666667 0  0.8591304347826086 0.06666666666666667 0  0.8756521739130434 0.06666666666666667 0  0.8921739130434783 0.06666666666666667 0  0.908695652173913 0.06666666666666667 0  0.9252173913043478 0.06666666666666667 0  0.9417391304347826 0.06666666666666667 0  0.9582608695652173 0.06666666666666667 0  0.9747826086956521 0.06666666666666667 0  0.991304347826087 0.06666666666666667 0  1.007826086956522 0.06666666666666667 0  1.024347826086957 0.06666666666666667 0  1.040869565217391 0.06666666666666667 0  1.057391304347826 0.06666666666666667 0  1.073913043478261 0.06666666666666667 0  0.7599999999999999 0.08333333333333333 0  0.7765217391304348 0.08333333333333333 0  0.7930434782608695 0.08333333333333333 0  0.8095652173913043 0.08333333333333333 0  0.8260869565217391 0.08333333333333333 0  0.8426086956521739 0.08333333333333333 0  0.8591304347826086 0.08333333333333333 0  0.8756521739130434 0.08333333333333333 0  0.8921739130434783 0.08333333333333333 0  0.908695652173913 0.08333333333333333 0  0.9252173913043478 0.08333333333333333 0  0.9417391304347826 0.08333333333333333 0  0.9582608695652173 0.08333333333333333 0  0.9747826086956521 0.08333333333333333 0  0.991304347826087 0.08333333333333333 0  1.007826086956522 0.08333333333333333 0  1.024347826086957 0.08333333333333333 0  1.040869565217391 0.08333333333333333 0  1.057391304347826 0.08333333333333333 0  1.073913043478261 0.08333333333333333 0  1.090434782608696 0.08333333333333333 0  0.7765217391304348 0.1 0  0.7930434782608695 0.1 0  0.8095652173913043 0.1 0  0.8260869565217391 0.1 0  0.8426086956521739 0.1 0  0.8591304347826086 0.1 0  0.8756521739130434 0.1 0  0.8921739130434783 0.1 0  0.908695652173913 0.1 0  0.9252173913043478 0.1 0  0.9417391304347826 0.1 0  0.9582608695652173 0.1 0  0.9747826086956521 0.1 0  0.991304347826087 0.1 0  1.007826086956522 0.1 0  1.024347826086957 0.1 0  1.040869565217391 0.1 0  1.057391304347826 0.1 0  1.073913043478261 0.1 0  1.090434782608696 0.1 0  1.10695652173913 0.1 0  0.7930434782608695 0.1166666666666667 0  0.8095652173913043 0.1166666666666667 0  0.8260869565217391 0.1166666666666667 0  0.8426086956521739 0.1166666666666667 0  0.8591304347826086 0.1166666666666667 0  0.8756521739130434 0.1166666666666667 0  0.8921739130434783 0.1166666666666667 0  0.908695652173913 0.1166666666666667 0  0.9252173913043478 0.1166666666666667 0  0.9417391304347826 0.1166666666666667 0  0.9582608695652173 0.1166666666666667 0  0.9747826086956521 0.1166666666666667 0  0.991304347826087 0.1166666666666667 0  1.007826086956522 0.1166666666666667 0  1.024347826086957 0.1166666666666667 0  1.040869565217391 0.1166666666666667 0  1.057391304347826 0.1166666666666667 0  1.073913043478261 0.1166666666666667 0  1.090434782608696 0.1166666666666667 0  1.10695652173913 0.1166666666666667 0  1.123478260869565 0.1166666666666667 0  0.8095652173913043 0.1333333333333333 0  0.8260869565217391 0.1333333333333333 0  0.8426086956521739 0.1333333333333333 0  0.8591304347826086 0.1333333333333333 0  0.8756521739130434 0.1333333333333333 0  0.8921739130434783 0.1333333333333333 0  0.908695652173913 0.1333333333333333 0  0.9252173913043478 0.1333333333333333 0  0.9417391304347826 0.1333333333333333 0  0.9582608695652173 0.1333333333333333 0  0.9747826086956521 0.1333333333333333 0  0.991304347826087 0.1333333333333333 0  1.007826086956522 0.1333333333333333 0  1.024347826086957 0.1333333333333333 0  1.040869565217391 0.1333333333333333 0  1.057391304347826 0.1333333333333333 0  1.073913043478261 0.1333333333333333 0  1.090434782608696 0.1333333333333333 0  1.10695652173913 0.1333333333333333 0  1.123478260869565 0.1333333333333333 0  1.14 0.1333333333333333 0  0.8260869565217391 0.15 0  0.8426086956521739 0.15 0  0.8591304347826086 0.15 0  0.8756521739130434 0.15 0  0.8921739130434783 0.15 0  0.908695652173913 0.15 0  0.9252173913043478 0.15 0  0.9417391304347826 0.15 0  0.9582608695652173 0.15 0  0.9747826086956521 0.15 0  0.991304347826087 0.15 0  1.007826086956522 0.15 0  1.024347826086957 0.15 0  1.040869565217391 0.15 0  1.057391304347826 0.15 0  1.073913043478261 0.15 0  1.090434782608696 0.15 0  1.10695652173913 0.15 0  1.123478260869565 0.15 0  1.14 0.15 0  1.156521739130435 0.15 0  0.8426086956521739 0.1666666666666667 0  0.8591304347826086 0.1666666666666667 0  0.8756521739130434 0.1666666666666667 0  0.8921739130434783 0.1666666666666667 0  0.908695652173913 0.1666666666666667 0  0.9252173913043478 0.1666666666666667 0  0.9417391304347826 0.1666666666666667 0  0.9582608695652173 0.1666666666666667 0  0.9747826086956521 0.1666666666666667 0  0.991304347826087 0.1666666666666667 0  1.007826086956522 0.1666666666666667 0  1.024347826086957 0.1666666666666667 0  1.040869565217391 0.1666666666666667 0  1.057391304347826 0.1666666666666667 0  1.073913043478261 0.1666666666666667 0  1.090434782608696 0.1666666666666667 0  1.10695652173913 0.1666666666666667 0  1.123478260869565 0.1666666666666667 0  1.14 0.1666666666666667 0  1.156521739130435 0.1666666666666667 0  1.17304347826087 0.1666666666666667 0  0.8591304347826086 0.1833333333333333 0  0.8756521739130434 0.1833333333333333 0  0.8921739130434783 0.1833333333333333 0  0.908695652173913 0.1833333333333333 0  0.9252173913043478 0.1833333333333333 0  0.9417391304347826 0.1833333333333333 0  0.9582608695652173 0.1833333333333333 0  0.9747826086956521 0.1833333333333333 0  0.991304347826087 0.1833333333333333 0  1.007826086956522 0.1833333333333333 0  1.024347826086957 0.1833333333333333 0  1.040869565217391 0.1833333333333333 0  1.057391304347826 0.1833333333333333 0  1.073913043478261 0.1833333333333333 0  1.090434782608696 0.1833333333333333 0  1.10695652173913 0.1833333333333333 0  1.123478260869565 0.1833333333333333 0  1.14 0.1833333333333333 0  1.156521739130435 0.1833333333333333 0  1.17304347826087 0.1833333333333333 0  1.189565217391304 0.1833333333333333 0  0.8756521739130434 0.2 0  0.8921739130434783 0.2 0  0.908695652173913 0.2 0  0.9252173913043478 0.2 0  0.9417391304347826 0.2 0  0.9582608695652173 0.2 0  0.9747826086956521 0.2 0  0.991304347826087 0.2 0  1.007826086956522 0.2 0  1.024347826086957 0.2 0  1.040869565217391 0.2 0  1.057391304347826 0.2 0  1.073913043478261 0.2 0  1.090434782608696 0.2 0  1.10695652173913 0.2 0  1.123478260869565 0.2 0  1.14 0.2 0  1.156521739130435 0.2 0  1.17304347826087 0.2 0  1.189565217391304 0.2 0  1.206086956521739 0.2 0  0.8921739130434783 0.2166666666666667 0  0.908695652173913 0.2166666666666667 0  0.9252173913043478 0.2166666666666667 0  0.9417391304347826 0.2166666666666667 0  0.9582608695652173 0.2166666666666667 0  0.9747826086956521 0.2166666666666667 0  0.991304347826087 0.2166666666666667 0  1.007826086956522 0.2166666666666667 0  1.02434782608
[...]
<PointData  Vectors="Displacement"> 
<DataArray  type="Float64"  Name="Displacement"  NumberOfComponents="3" format="ascii">1.0919539043348670e-04 9.3599409895201238e-04 0.0000000000000000e+00  1.1104538053084012e-04 9.4861763199664427e-04 0.0000000000000000e+00  9.8209848821466207e-05 9.4796469045363440e-04 0.0000000000000000e+00  9.5680527190441210e-05 9.3535755533915048e-04 0.0000000000000000e+00  1.1308399392976506e-04 9.6091284915481847e-04 0.0000000000000000e+00  1.0043228032118374e-04 9.6024030777952464e-04 0.0000000000000000e+00  1.1525858980826961e-04 9.7332580565168060e-04 0.0000000000000000e+00  1.0246137041085143e-04 9.7263600811297636e-04 0.0000000000000000e+00  1.1750845750261231e-04 9.8606904345915404e-04 0.0000000000000000e+00  1.0440433707794604e-04 9.8537371523831747e-04 0.0000000000000000e+00  1.1979326743372897e-04 9.9920424729370836e-04 0.0000000000000000e+00  1.0631269544740651e-04 9.9850724725594124e-04 0.0000000000000000e+00  1.2209415768940299e-04 1.0127490574308882e-03 0.0000000000000000e+00  1.0820783456786630e-04 1.0120511824843281e-03 0.0000000000000000e+00  1.2440359584156373e-04 1.0267110918083186e-03 0.0000000000000000e+00  1.1009803721441782e-04 1.0260124917113645e-03 0.0000000000000000e+00  1.2671875096479632e-04 1.0410955490736595e-03 0.0000000000000000e+00  1.1198639812450669e-04 1.0403962527833148e-03 0.0000000000000000e+00  1.2903857217968435e-04 1.0559069055611581e-03 0.0000000000000000e+00  1.1387407346047306e-04 1.0552069172479366e-03 0.0000000000000000e+00  1.3136265840039011e-04 1.0711493511703228e-03 0.0000000000000000e+00  1.1576151578668839e-04 1.0704486686212364e-03 0.0000000000000000e+00  1.3369084069440843e-04 1.0868269142710069e-03 0.0000000000000000e+00  1.1764892772049566e-04 1.0861255355055458e-03 0.0000000000000000e+00  1.3602303058292945e-04 1.1029434900502472e-03 0.0000000000000000e+00  1.1953642210627738e-04 1.1022414208170738e-03 0.0000000000000000e+00  1.3835917268286679e-04 1.1195028458491302e-03 0.0000000000000000e+00  1.2142406278073647e-04 1.1188001018883559e-03 0.0000000000000000e+00  1.4069924242400642e-04 1.1365086696092453e-03 0.0000000000000000e+00  1.2331185827179394e-04 1.1358052654455535e-03 0.0000000000000000e+00  1.4304324957068864e-04 1.1539646804312831e-03 0.0000000000000000e+00  1.2519976655328457e-04 1.1532606152762472e-03 0.0000000000000000e+00  1.4539122271278084e-04 1.1718747207722020e-03 0.0000000000000000e+00  1.2708773684576492e-04 1.1711699759383086e-03 0.0000000000000000e+00  1.4774318031665929e-04 1.1902427448370648e-03 0.0000000000000000e+00  1.2897576319075192e-04 1.1895372884866144e-03 0.0000000000000000e+00  1.5009910838875048e-04 1.2090727170328006e-03 0.0000000000000000e+00  1.3086391911056738e-04 1.2083665010222770e-03 0.0000000000000000e+00  1.5245894955039243e-04 1.2283684911259622e-03 0.0000000000000000e+00  1.3275238240285768e-04 1.2276614307685885e-03 0.0000000000000000e+00  8.6362831388094624e-05 9.4724496980831208e-04 0.0000000000000000e+00  8.2734515623346250e-05 9.3437218419823809e-04 0.0000000000000000e+00  8.8411137426648109e-05 9.5962946808986498e-04 0.0000000000000000e+00  8.9928263579876889e-05 9.7203486579836419e-04 0.0000000000000000e+00  9.1399063145005538e-05 9.8479300443618978e-04 0.0000000000000000e+00  9.2868464998077592e-05 9.9794003957283275e-04 0.0000000000000000e+00  9.4335080232399755e-05 1.0114903045694880e-03 0.0000000000000000e+00  9.5797784835280564e-05 1.0254545003885061e-03 0.0000000000000000e+00  9.7256311972296770e-05 1.0398397621531421e-03 0.0000000000000000e+00  9.8710679923714155e-05 1.0546513880742992e-03 0.0000000000000000e+00  1.0016099353018869e-04 1.0698938764505037e-03 0.0000000000000000e+00  1.0160739795798585e-04 1.0855713676361863e-03 0.0000000000000000e+00  1.0305006960695406e-04 1.1016878114609382e-03 0.0000000000000000e+00  1.0448919041702145e-04 1.1182470374712691e-03 0.0000000000000000e+00  1.0592482136285037e-04 1.1352527889941359e-03 0.0000000000000000e+00  1.0735680122161459e-04 1.1527087803326688e-03 0.0000000000000000e+00  1.0878487341437858e-04 1.1706187905418009e-03 0.0000000000000000e+00  1.1020892512408826e-04 1.1889866966748376e-03 0.0000000000000000e+00  1.1162910069541915e-04 1.2078163849070633e-03 0.0000000000000000e+00  1.1304578098123147e-04 1.2271115863240279e-03 0.0000000000000000e+00  1.1445960726049773e-04 1.2468756878119950e-03 0.0000000000000000e+00  6.7918809489877347e-05 9.3671578699412185e-04 0.0000000000000000e+00  7.1851635814037677e-05 9.5011214655292249e-04 0.0000000000000000e+00  7.5006319163730567e-05 9.6338238532142726e-04 0.0000000000000000e+00  7.7639798684670571e-05 9.7720643154013327e-04 0.0000000000000000e+00  7.9924777965332321e-05 9.9260088283302972e-04 0.0000000000000000e+00  8.1549479580518054e-05 1.0086781838356631e-03 0.0000000000000000e+00  8.2537917186671189e-05 1.0238218955698508e-03 0.0000000000000000e+00  8.3461506250874032e-05 1.0386295049428862e-03 0.0000000000000000e+00  8.4474980536433235e-05 1.0536015141057958e-03 0.0000000000000000e+00  8.5573589672374191e-05 1.0688975108517002e-03 0.0000000000000000e+00  8.6771761562330450e-05 1.0845617121479137e-03 0.0000000000000000e+00  8.8115075610803201e-05 1.1006027443203502e-03 0.0000000000000000e+00  8.9635030613380705e-05 1.1170304794442768e-03 0.0000000000000000e+00  9.1258525530434504e-05 1.1339020450605742e-03 0.0000000000000000e+00  9.2829941704051410e-05 1.1512996115146498e-03 0.0000000000000000e+00  9.4275975869643111e-05 1.1692378187335500e-03 0.0000000000000000e+00  9.5718303503136069e-05 1.1876531436242471e-03 0.0000000000000000e+00  9.7461022428598781e-05 1.2064679850050852e-03 0.0000000000000000e+00  9.9872169727761693e-05 1.2256331041348310e-03 0.0000000000000000e+00  1.0314808629644805e-04 1.2451555526194807e-03 0.0000000000000000e+00  1.0699668943968041e-04 1.2651529161721842e-03 0.0000000000000000e+00  5.5900374934461763e-05 9.3962522577090276e-04 0.0000000000000000e+00  6.0189429375937897e-05 9.5363692295280674e-04 0.0000000000000000e+00  6.3866422624154261e-05 9.6807103494740048e-04 0.0000000000000000e+00  6.7087284607439900e-05 9.8343224778427532e-04 0.0000000000000000e+00  7.0061825626718555e-05 9.9934765358404825e-04 0.0000000000000000e+00  7.2812675566303996e-05 1.0149497760041115e-03 0.0000000000000000e+00  7.5270672973116811e-05 1.0302888339550097e-03 0.0000000000000000e+00  7.7531967425272866e-05 1.0457194478559315e-03 0.0000000000000000e+00  7.9690531552468346e-05 1.0614307027022464e-03 0.0000000000000000e+00  8.1804388285720801e-05 1.0774887682186009e-03 0.0000000000000000e+00  8.3909952476650529e-05 1.0939189164501436e-03 0.0000000000000000e+00  8.6021901376546016e-05 1.1107509233736585e-03 0.0000000000000000e+00  8.8130222105932670e-05 1.1280453407761706e-03 0.0000000000000000e+00  9.0220349627668166e-05 1.1458574304924326e-03 0.0000000000000000e+00  9.2309863740506866e-05 1.1641710344710112e-03 0.0000000000000000e+00  9.4465999308752173e-05 1.1829051290603223e-03 0.0000000000000000e+00  9.6790637859390537e-05 1.2019786794068158e-03 0.0000000000000000e+00  9.9374805825204972e-05 1.2213694896972735e-03 0.0000000000000000e+00  1.0223146618379483e-04 1.2411533773875366e-03 0.0000000000000000e+00  1.0524777573821828e-04 1.2615097895043983e-03 0.0000000000000000e+00  1.0822889150501720e-04 1.2825916346562479e-03 0.0000000000000000e+00  4.6040657270995002e-05 9.4302339568241942e-04 0.0000000000000000e+00  5.0741974893229621e-05 9.5790569432586882e-04 0.0000000000000000e+00  5.5047698596815084e-05 9.7339257607077366e-04 0.0000000000000000e+00  5.9119978690350971e-05 9.8929161747446891e-04 0.0000000000000000e+00  6.3002395713112876e-05 1.0051891625887598e-03 0.0000000000000000e+00  6.6614273880128235e-05 1.0210432279066110e-03 0.0000000000000000e+00  6.9946049525746945e-05 1.0370041579027898e-03 0.0000000000000000e+00  7.3055707388800474e-05 1.0532105877484256e-03 0.0000000000000000e+00  7.6003009429548353e-05 1.0697398651239340e-03 0.0000000000000000e+00  7.8830002007314280e-05 1.0866342774317613e-03 0.0000000000000000e+00  8.1562507204021990e-05 1.1039315383173376e-03 0.0000000000000000e+00  8.4218288088222371e-05 1.1216779051036307e-03 0.0000000000000000e+00  8.6820127513350382e-05 1.1399049965552656e-03 0.0000000000000000e+00  8.9402463833415302e-05 1.1585955861820618e-03 0.0000000000000000e+00  9.2004264880387286e-05 1.1776922796184731e-03 0.0000000000000000e+00  9.4655930483804462e-05 1.1971437668131157e-03 0.0000000000000000e+00  9.7366110665114973e-05 1.2169509854766905e-03 0.0000000000000000e+00  1.0011202671958811e-04 1.2371919210158295e-03 0.0000000000000000e+00  1.0284430561381809e-04 1.2580038593115195e-03 0.0000000000000000e+00  1.0551138328890182e-04 1.2794871736598891e-03 0.0000000000000000e+00  1.0807871812391408e-04 1.3016066543797119e-03 0.0000000000000000e+00  3.8193168650222495e-05 9.4686906440662882e-04 0.0000000000000000e+00  4.3457728594119120e-05 9.6253302570109122e-04 0.0000000000000000e+00  4.8470604470936049e-05 9.7856558541281223e-04 0.0000000000000000e+00  5.3254306642781908e-05 9.9476341119947732e-04 0.0000000000000000e+00  5.7761828754730510e-05 1.0110807282766353e-03 0.0000000000000000e+00  6.1968433489580712e-05 1.0275722565939790e-03 0.0000000000000000e+00  6.5894575807329066e-05 1.0443134651601132e-03 0.0000000000000000e+00  6.9581063722615519e-05 1.0613657925731693e-03 0.0000000000000000e+00  7.3067362912888282e-05 1.0787737959269128e-03 0.0000000000000000e+00  7.6385799354442807e-05 1.0965752986173837e-03 0.0000000000000000e+00  7.9565132587304500e-05 1.1148056079789905e-03 0.0000000000000000e+00  8.2636101132242161e-05 1.1334847037798761e-03 0.0000000000000000e+00  8.5630504729993889e-05 1.1526022927491914e-03 0.0000000000000000e+00  8.8572486746989955e-05 1.1721264317016459e-03 0.0000000000000000e+00  9.1470307678659599e-05 1.1920328746262178e-03 0.0000000000000000e+00  9.4314707054738562e-05 1.2123342389766807e-03 0.0000000000000000e+00  9.7084832732258550e-05 1.2330917602180736e-03 0.0000000000000000e+00  9.9761042187635461e-05 1.2543946513304785e-03 0.0000000000000000e+00  1.0233770191984262e-04 1.2762992023521039e-03 0.0000000000000000e+00  1.0482147774611982e-04 1.2987754302100629e-03 0.0000000000000000e+00  1.0721731182290888e-04 1.3217246092947130e-03 0.0000000000000000e+00  3.2232401637755524e-05 9.5095754574523242e-04 0.0000000000000000e+00  3.8046262265888797e-05 9.6721242026102168e-04 0.0000000000000000e+00  4.3591112935658617e-05 9.8374726549562319e-04 0.0000000000000000e+00  4.8836085934508571e-05 1.0005174148303656e-03 0.0000000000000000e+00  5.3761232126907786e-05 1.0175318514233126e-03 0.0000000000000000e+00  5.8372954170697677e-05 1.0348226568745510e-03 0.0000000000000000e+00  6.2696744537920287e-05 1.0524273354297765e-03 0.0000000000000000e+00  6.6765001529792313e-05 1.0703814405278306e-03 0.0000000000000000e+00  7.0609906667935731e-05 1.0887176828827045e-03 0.0000000000000000e+00  7.4262273824396657e-05 1.1074642162474384e-03 0.0000000000000000e+00  7.7752105852129860e-05 1.1266370333355017e-03 0.0000000000000000e+00  8.1105884316592505e-05 1.1462340077626641e-03 0.0000000000000000e+00  8.4340586505022929e-05 1.1662419155617912e-03 0.0000000000000000e+00  8.7459736022252047e-05 1.1866540214790370e-03 0.0000000000000000e+00  9.0455488859813796e-05 1.2074864298560512e-03 0.0000000000000000e+00  9.3316659585992323e-05 1.2287819555129530e-03 0.0000000000000000e+00  9.6039394420088583e-05 1.2505932520881877e-03 0.0000000000000000e+00  9.8633615102738603e-05 1.2729464655693997e-03 0.0000000000000000e+00  1.0111800756043802e-04 1.2958130038458260e-03 0.0000000000000000e+00  1.0350787532921891e-04 1.3191179177988179e-03 0.0000000000000000e+00  1.0580956568451684e-04 1.3427683244590159e-03 0.0000000000000000e+00  2.7840626703162731e-05 9.5527721121419916e-04 0.0000000000000000e+00  3.4035228657696844e-05 9.7218745614584799e-04 0.0000000000000000e+00  3.9900760823604741e-05 9.8942320893511716e-04 0.0000000000000000e+00  4.5422958083153184e-05 1.0069647063787558e-03 0.0000000000000000e+00  5.0605653926761869e-05 1.0248144111062400e-03 0.0000000000000000e+00  5.5467528297688124e-05 1.0429884222621078e-03 0.0000000000000000e+00  6.0035383641533211e-05 1.0615099076756571e-03 0.0000000000000000e+00  6.4338546810838057e-05 1.0804044013477815e-03 0.0000000000000000e+00  6.8405949995259765e-05 1.0996951878182919e-03 0.0000000000000000e+00  7.2264433496223372e-05 1.1193976738501628e-03 0.0000000000000000e+00  7.5936021901758943e-05 1.1395166271357198e-03 0.0000000000000000e+00  7.9434476378909382e-05 1.1600508555138266e-03 0.0000000000000000e+00  8.2764015992873010e-05 1.1810031402523921e-03 0.0000000000000000e+00  8.5922278423969977e-05 1.2023885561468915e-03 0.0000000000000000e+00  8.8906937524069776e-05 1.2242345015012310e-03 0.0000000000000000e+00  9.1722939762556091e-05 1.2465685463492976e-03 0.0000000000000000e+00  9.4385612697637361e-05 1.2693973215206966e-03 0.0000000000000000e+00  9.6916285154937903e-05 1.2926916451650712e-03 0.0000000000000000e+00  9.9333825722365733e-05 1.3163906604773880e-03 0.0000000000000000e+00  1.0164978947282563e-04 1.3404168897257164e-03 0.0000000000000000e+00  1.0386934128067460e-04 1.3646884157661498e-03 0.0000000000000000e+00  2.4611328955813393e-05 9.6012351880275836e-04 0.0000000000000000e+00  3.0999268041718533e-05 9.7785041628457880e-04 0.0000000000000000e+00  3.7017003012249272e-05 9.9593416393049914e-04 0.0000000000000000e+00  4.2670956733453301e-05 1.0143544182880616e-03 0.0000000000000000e+00  4.7979069802036664e-05 1.0331100596100156e-03 0.0000000000000000e+00  5.2965843312410082e-05 1.0522131571235481e-03 0.0000000000000000e+00  5.7658028482631919e-05 1.0716828203886305e-03 0.0000000000000000e+00  6.2081689011430312e-05 1.0915392780872491e-03 0.0000000000000000e+00  6.6260137821935673e-05 1.1117987084202779e-03 0.0000000000000000e+00  7.0211912580219084e-05 1.1324709954434080e-03 0.0000000000000000e+00  7.3949126218081620e-05 1.1535620744833163e-03 0.0000000000000000e+00  7.7477634519950597e-05 1.1750790300195540e-03 0.0000000000000000e+00  8.0799886905016425e-05 1.1970338327330842e-03 0.0000000000000000e+00  8.3919737312793008e-05 1.2194419149908831e-03 0.0000000000000000e+00  8.6846997805394951e-05 1.2423139890703685e-03 0.0000000000000000e+00  8.9598852538750836e-05 1.2656439941098111e-03 0.0000000000000000e+00  9.2196654870320687e-05 1.2894013208744218e-03 0.0000000000000000e+00  9.4660352759783940e-05 1.3135330462359525e-03 0.0000000000000000e+00  9.7004719390641453e-05 1.3379721510389355e-03 0.0000000000000000e+00  9.9238862047257512e-05 1.3626450497570336e-03 0.0000000000000000e+00  1.0136753263804120e-04 1.3874759940362140e-03 0.0000000000000000e+00  2.2163870401219105e-05 9.6584487224748051e-04 0.0000000000000000e+00  2.8586701872535898e-05 9.8449462463107845e-04 0.0000000000000000e+00  3.4622476532271476e-05 1.0035006207406794e-03 0.0000000000000000e+00  4.0292535152511077e-05 1.0228486002381021e-03 0.0000000000000000e+00  4.5622082254775668e-05 1.0425428099415301e-03 0.0000000000000000e+00  5.0636616169631059e-05 1.0625984929127801e-03 0.0000000000000000e+00  5.5359613888976298e-05 1.0830349285872874e-03 0.0000000000000000e+00  5.9811068066042054e-05 1.1038699556165244e-03 0.0000000000000000e+00  6.4006484874685606e-05 1.1251172264353433e-03 0.0000000000000000e+00  6.7956540353670904e-05 1.1467866493099217e-03 0.0000000000000000e+00  7.1668038305868940e-05 1.1688865510132208e-03 0.0000000000000000e+00  7.5146418759161030e-05 1.1914250076515765e-03 0.0000000000000000e+00  7.8399155709128187e-05 1.2144081874630906e-03 0.0000000000000000e+00  8.1438573447515644e-05 1.2378351420937309e-03 0.0000000000000000e+00  8.4282438518077743e-05 1.2616911024614914e-03 0.0000000000000000e+00  8.6951721885010375e-05 1.2859435749298315e-03 0.0000000000000000e+00  8.9466912688475266e-05 1.3105438068613160e-03 0.0000000000000000e+00  9.1845137605688643e-05 1.3354315619719590e-03 0.0000000000000000e+00  9.4099024482915527e-05 1.3605398662682622e-03 0.0000000000000000e+00  9.6236774123461085e-05 1.3857981552150059e-03 0.0000000000000000e+00  9.8262645295456679e-05 1.4111335128412295e-03 0.0000000000000000e+00  2.0161214121469635e-05 9.7269744217424482e-04 0.0000000000000000e+00  2.6496086903397823e-05 9.9230691800687265e-04 0.0000000000000000e+00  3.2450129406301168e-05 1.0122565144880672e-03 0.0000000000000000e+00  3.8051555968212717e-05 1.0325471415625607e-03 0.0000000000000000e+00  4.3325832225556395e-05 1.0531939145565561e-03 0.0000000000000000e+00  4.8294285879851268e-05 1.0742178345093331e-03 0.0000000000000000e+00  5.2973698075187400e-05 1.0956395461480305e-03 0.0000000000000000e+00  5.7376471850034814e-05 1.1174758300555910e-03 0.0000000000000000e+00  6.1511350815136192e-05 1.1397387288891679e-03 0.0000000000000000e+00  6.5384895083416914e-05 1.1624360880008698e-03 0.0000000000000000e+00  6.9003702510729863e-05 1.1855718125293887e-03 0.0000000000000000e+00  7.2376870667176688e-05 1.2091445587038058e-03 0.0000000000000000e+00  7.5517788181613457e-05 1.2331446852563140e-03 0.0000000000000000e+00  7.8444359700659879e-05 1.2575507768524412e-03 0.0000000000000000e+00  8.1177444331712536e-05 1.2823279742834653e-03 0.0000000000000000e+00  8.3738329159374470e-05 1.3074292490199595e-03 0.0000000000000000e+00  8.6146455331903514e-05 1.3327985171203319e-03 0.0000000000000000e+00  8.8417971859755464e-05 1.3583738311545197e-03 0.0000000000000000e+00  9.0564960371845236e-05 1.3840896060902112e-03 0.0000000000000000e+00  9.2594981895856155e-05 1.4098774303138416e-03 0.0000000000000000e+00  9.4510737735334696e-05 1.4356653232049635e-03 0.0000000000000000e+00  1.8313474517816203e-05 9.8082603496577351e-04 0.0000000000000000e+00  2.4478924740976348e-05 1.0013837058282125e-03 0.0000000000000000e+00  3.0286696566024327e-05 1.0222711565334693e-03 0.0000000000000000e+00  3.5762848737712118e-05 1.0435081453503870e-03 0.0000000000000000e+00  4.0926577186954265e-05 1.0651206968936161e-03 0.0000000000000000e+00  4.5791147620357225e-05 1.0871338523482928e-03 0.0000000000000000e+00  5.0365333553674539e-05 1.1095674967682959e-03 0.0000000000000000e+00  5.4655099365209086e-05 1.1324348005454701e-03 0.0000000000000000e+00  5.8665506975859814e-05 1.1557420984516710e-03 0.0000000000000000e+00  6.2402774315898119e-05 1.1794889147773611e-03 0.0000000000000000e+00  6.5876173344989815e-05 1.2036672809173584e-03 0.0000000000000000e+00  6.9099254793984072e-05 1.2282602844346311e-03 0.0000000000000000e+00  7.2089939342311272e-05 1.2532406383413081e-03 0.0000000000000000e+00  7.4869416120839220e-05 1.2785704246409606e-03 0.0000000000000000e+00  7.7460323525813162e-05 1.3042024991046892e-03 0.0000000000000000e+00  7.9884864514457807e-05 1.3300829185590040e-03 0.0000000000000000e+00  8.2163186486751462e-05 1.3561533889567196e-03 0.0000000000000000e+00  8.4311994428105453e-05 1.3823529798072482e-03 0.0000000000000000e+00  8.6343257603049064e-05 1.4086186145142576e-03 0.0000000000000000e+00  8.8262942185898992e-05 1.4348840468817977e-03 0.0000000000000000e+00  9.0069901353879861e-05 1.4610771705984942e-03 0.0000000000000000e+00  1.6393811121268235e-05 9.9027843204830515e-04 0.0000000000000000e+00  2.2348064991444559e-05 1.0117567365103698e-03 0.0000000000000000e+00  2.7973478598819668e-05 1.0335765590485399e-03 0.0000000000000000e+00  3.3286496291886018e-05 1.0557728626947366e-03 0.0000000000000000e+00  3.8296053853020182e-05 1.0783770360766167e-03 0.0000000000000000e+00  4.3006402894094465e-05 1.1014123894324422e-03 0.0000000000000000e+00  4.7419727833624358e-05 1.1248925953814906e-03 0.0000000000000000e+00  5.1538448145218458e-05 1.1488216824658735e-03 0.0000000000000000e+00  5.5367204844385825e-05 1.1731944047116230e-03 0.0000000000000000e+00  5.8914429278260839e-05 1.1979963306153656e-03 0.0000000000000000e+00  6.2193269127946171e-05 1.2232036268243606e-03 0.0000000000000000e+00  6.5221664197427992e-05 1.2487830195965209e-03 0.0000000000000000e+00  6.8021572621528934e-05 1.2746925434102508e-03 0.0000000000000000e+