<?xml version="1.0"?>
<VTKFile type="UnstructuredGrid"  version="0.1"  >
<UnstructuredGrid>
<Piece  NumberOfPoints="640" NumberOfCells="1181">
<Points>
<DataArray  type="Float64"  NumberOfComponents="3"  format="ascii">2.973913043478261 0 0  2.990434782608696 0 0  2.990434782608696 0.01666666666666667 0  2.973913043478261 0.01666666666666667 0  3.006956521739131 0 0  3.006956521739131 0.01666666666666667 0  3.023478260869565 0 0  3.023478260869565 0.01666666666666667 0  3.04 0 0  3.04 0.01666666666666667 0  3.056521739130435 0 0  3.056521739130435 0.01666666666666667 0  3.073043478260869 0 0  3.073043478260869 0.01666666666666667 0  3.089565217391304 0 0  3.089565217391304 0.01666666666666667 0  3.106086956521739 0 0  3.106086956521739 0.01666666666666667 0  3.122608695652174 0 0  3.122608695652174 0.01666666666666667 0  3.139130434782609 0 0  3.139130434782609 0.01666666666666667 0  3.155652173913043 0 0  3.155652173913043 0.01666666666666667 0  3.172173913043478 0 0  3.172173913043478 0.01666666666666667 0  3.188695652173913 0 0  3.188695652173913 0.01666666666666667 0  3.205217391304347 0 0  3.205217391304347 0.01666666666666667 0  3.221739130434782 0 0  3.221739130434782 0.01666666666666667 0  3.238260869565217 0 0  3.238260869565217 0.01666666666666667 0  2.990434782608696 0.03333333333333333 0  2.973913043478261 0.03333333333333333 0  3.006956521739131 0.03333333333333333 0  3.023478260869565 0.03333333333333333 0  3.04 0.03333333333333333 0  3.056521739130435 0.03333333333333333 0  3.073043478260869 0.03333333333333333 0  3.089565217391304 0.03333333333333333 0  3.106086956521739 0.03333333333333333 0  3.122608695652174 0.03333333333333333 0  3.139130434782609 0.03333333333333333 0  3.155652173913043 0.03333333333333333 0  3.172173913043478 0.03333333333333333 0  3.188695652173913 0.03333333333333333 0  3.205217391304347 0.03333333333333333 0  3.221739130434782 0.03333333333333333 0  3.238260869565217 0.03333333333333333 0  3.254782608695652 0.03333333333333333 0  2.990434782608696 0.05 0  3.006956521739131 0.05 0  3.023478260869565 0.05 0  3.04 0.05 0  3.056521739130435 0.05 0  3.073043478260869 0.05 0  3.089565217391304 0.05 0  3.106086956521739 0.05 0  3.122608695652174 0.05 0  3.139130434782609 0.05 0  3.155652173913043 0.05 0  3.172173913043478 0.05 0  3.188695652173913 0.05 0  3.205217391304347 0.05 0  3.221739130434782 0.05 0  3.238260869565217 0.05 0  3.254782608695652 0.05 0  3.271304347826087 0.05 0  3.006956521739131 0.06666666666666667 0  2.990434782608696 0.06666666666666667 0  3.023478260869565 0.06666666666666667 0  3.04 0.06666666666666667 0  3.056521739130435 0.06666666666666667 0  3.073043478260869 0.06666666666666667 0  3.089565217391304 0.06666666666666667 0  3.106086956521739 0.06666666666666667 0  3.122608695652174 0.06666666666666667 0  3.139130434782609 0.06666666666666667 0  3.155652173913043 0.06666666666666667 0  3.172173913043478 0.06666666666666667 0  3.188695652173913 0.06666666666666667 0  3.205217391304347 0.06666666666666667 0  3.221739130434782 0.06666666666666667 0  3.238260869565217 0.06666666666666667 0  3.254782608695652 0.06666666666666667 0  3.271304347826087 0.06666666666666667 0  3.287826086956521 0.06666666666666667 0  3.006956521739131 0.08333333333333333 0  3.023478260869565 0.08333333333333333 0  3.04 0.08333333333333333 0  3.056521739130435 0.08333333333333333 0  3.073043478260869 0.08333333333333333 0  3.089565217391304 0.08333333333333333 0  3.106086956521739 0.08333333333333333 0  3.122608695652174 0.08333333333333333 0  3.139130434782609 0.08333333333333333 0  3.155652173913043 0.08333333333333333 0  3.172173913043478 0.08333333333333333 0  3.188695652173913 0.08333333333333333 0  3.205217391304347 0.08333333333333333 0  3.221739130434782 0.08333333333333333 0  3.238260869565217 0.08333333333333333 0  3.254782608695652 0.08333333333333333 0  3.271304347826087 0.08333333333333333 0  3.287826086956521 0.08333333333333333 0  3.304347826086957 0.08333333333333333 0  3.023478260869565 0.1 0  3.006956521739131 0.1 0  3.04 0.1 0  3.056521739130435 0.1 0  3.073043478260869 0.1 0  3.089565217391304 0.1 0  3.106086956521739 0.1 0  3.122608695652174 0.1 0  3.139130434782609 0.1 0  3.155652173913043 0.1 0  3.172173913043478 0.1 0  3.188695652173913 0.1 0  3.205217391304347 0.1 0  3.221739130434782 0.1 0  3.238260869565217 0.1 0  3.254782608695652 0.1 0  3.271304347826087 0.1 0  3.287826086956521 0.1 0  3.304347826086957 0.1 0  3.320869565217391 0.1 0  3.023478260869565 0.1166666666666667 0  3.04 0.1166666666666667 0  3.056521739130435 0.1166666666666667 0  3.073043478260869 0.1166666666666667 0  3.089565217391304 0.1166666666666667 0  3.106086956521739 0.1166666666666667 0  3.122608695652174 0.1166666666666667 0  3.139130434782609 0.1166666666666667 0  3.155652173913043 0.1166666666666667 0  3.172173913043478 0.1166666666666667 0  3.188695652173913 0.1166666666666667 0  3.205217391304347 0.1166666666666667 0  3.221739130434782 0.1166666666666667 0  3.238260869565217 0.1166666666666667 0  3.254782608695652 0.1166666666666667 0  3.271304347826087 0.1166666666666667 0  3.287826086956521 0.1166666666666667 0  3.304347826086957 0.1166666666666667 0  3.320869565217391 0.1166666666666667 0  3.337391304347826 0.1166666666666667 0  3.04 0.1333333333333333 0  3.023478260869565 0.1333333333333333 0  3.056521739130435 0.1333333333333333 0  3.073043478260869 0.1333333333333333 0  3.089565217391304 0.1333333333333333 0  3.106086956521739 0.1333333333333333 0  3.122608695652174 0.1333333333333333 0  3.139130434782609 0.1333333333333333 0  3.155652173913043 0.1333333333333333 0  3.172173913043478 0.1333333333333333 0  3.188695652173913 0.1333333333333333 0  3.205217391304347 0.1333333333333333 0  3.221739130434782 0.1333333333333333 0  3.238260869565217 0.1333333333333333 0  3.254782608695652 0.1333333333333333 0  3.271304347826087 0.1333333333333333 0  3.287826086956521 0.1333333333333333 0  3.304347826086957 0.1333333333333333 0  3.320869565217391 0.1333333333333333 0  3.337391304347826 0.1333333333333333 0  3.353913043478261 0.1333333333333333 0  3.04 0.15 0  3.056521739130435 0.15 0  3.073043478260869 0.15 0  3.089565217391304 0.15 0  3.106086956521739 0.15 0  3.122608695652174 0.15 0  3.139130434782609 0.15 0  3.155652173913043 0.15 0  3.172173913043478 0.15 0  3.188695652173913 0.15 0  3.205217391304347 0.15 0  3.221739130434782 0.15 0  3.238260869565217 0.15 0  3.254782608695652 0.15 0  3.271304347826087 0.15 0  3.287826086956521 0.15 0  3.304347826086957 0.15 0  3.320869565217391 0.15 0  3.337391304347826 0.15 0  3.353913043478261 0.15 0  3.370434782608696 0.15 0  3.056521739130435 0.1666666666666667 0  3.073043478260869 0.1666666666666667 0  3.089565217391304 0.1666666666666667 0  3.106086956521739 0.1666666666666667 0  3.122608695652174 0.1666666666666667 0  3.139130434782609 0.1666666666666667 0  3.155652173913043 0.1666666666666667 0  3.172173913043478 0.1666666666666667 0  3.188695652173913 0.1666666666666667 0  3.205217391304347 0.1666666666666667 0  3.221739130434782 0.1666666666666667 0  3.238260869565217 0.1666666666666667 0  3.254782608695652 0.1666666666666667 0  3.271304347826087 0.1666666666666667 0  3.287826086956521 0.1666666666666667 0  3.304347826086957 0.1666666666666667 0  3.320869565217391 0.1666666666666667 0  3.337391304347826 0.1666666666666667 0  3.353913043478261 0.1666666666666667 0  3.370434782608696 0.1666666666666667 0  3.386956521739131 0.1666666666666667 0  3.073043478260869 0.1833333333333333 0  3.089565217391304 0.1833333333333333 0  3.106086956521739 0.1833333333333333 0  3.122608695652174 0.1833333333333333 0  3.139130434782609 0.1833333333333333 0  3.155652173913043 0.1833333333333333 0  3.172173913043478 0.1833333333333333 0  3.188695652173913 0.1833333333333333 0  3.205217391304347 0.1833333333333333 0  3.221739130434782 0.1833333333333333 0  3.238260869565217 0.1833333333333333 0  3.254782608695652 0.1833333333333333 0  3.271304347826087 0.1833333333333333 0  3.287826086956521 0.1833333333333333 0  3.304347826086957 0.1833333333333333 0  3.320869565217391 0.1833333333333333 0  3.337391304347826 0.1833333333333333 0  3.353913043478261 0.1833333333333333 0  3.370434782608696 0.1833333333333333 0  3.386956521739131 0.1833333333333333 0  3.403478260869565 0.1833333333333333 0  3.089565217391304 0.2 0  3.106086956521739 0.2 0  3.122608695652174 0.2 0  3.139130434782609 0.2 0  3.155652173913043 0.2 0  3.172173913043478 0.2 0  3.188695652173913 0.2 0  3.205217391304347 0.2 0  3.221739130434782 0.2 0  3.238260869565217 0.2 0  3.254782608695652 0.2 0  3.271304347826087 0.2 0  3.287826086956521 0.2 0  3.304347826086957 0.2 0  3.320869565217391 0.2 0  3.337391304347826 0.2 0  3.353913043478261 0.2 0  3.370434782608696 0.2 0  3.386956521739131 0.2 0  3.403478260869565 0.2 0  3.419999999999999 0.2 0  3.106086956521739 0.2166666666666667 0  3.122608695652174 0.2166666666666667 0  3.139130434782609 0.2166666666666667 0  3.155652173913043 0.2166666666666667 0  3.172173913043478 0.2166666666666667 0  3.188695652173913 0.2166666666666667 0  3.205217391304347 0.2166666666666667 0  3.221739130434782 0.2166666666666667 0  3.238260869565217 0.2166666666666667 0  3.254782608695652 0.2166666666666667 0  3.271304347826087 0.2166666666666667 0  3.287826086956521 0.2166666666666667 0  3.304347826086957 0.2166666666666667 0  3.320869565217391 0.2166666666666667 0  3.337391304347826 0.2166666666666667 0  3.353913043478261 0.2166666666666667 0  3.370434782608696 0.2166666666666667 0  3.386956521739131 0.2166666666666667 0  3.403478260869565 0.2166666666666667 0  3.419999999999999 0.2166666666666667 0  3.436521739130435 0.2166666666666667 0  3.122608695652174 0.2333333333333333 0  3.139130434782609 0.2333333333333333 0  3.155652173913043 0.2333333333333333 0  3.172173913043478 0.2333333333333333 0  3.188695652173913 0.2333333333333333 0  3.205217391304347 0.2333333333333333 0  3.221739130434782 0.2333333333333333 0  3.238260869565217 0.2333333333333333 0  3.254782
[...]
<CellData  Scalars="rho_bar"> 
<DataArray  type="Float64"  Name="rho_bar"  format="ascii">7.9049092473361404e-01   7.7040142865269545e-01   7.7949989775811657e-01   7.5663110857664961e-01   7.8172475126372476e-01   7.5752223101223282e-01   7.9234119599624131e-01   7.6981624680183791e-01   8.0409298054565648e-01   7.8567402683212195e-01   8.1119782797285578e-01   7.9804485019687998e-01   8.0980774260764898e-01   8.0239858196948077e-01   7.9664729475145524e-01   7.9563212578424081e-01   7.6743088813169857e-01   7.7435933663249057e-01   7.1496124350275092e-01   7.3317617432134652e-01   6.2735151053379490e-01   6.6264490557706579e-01   4.9139985739082875e-01   5.4941864165574816e-01   3.1400236179168567e-01   3.8814359677499277e-01   1.4918492278180029e-01   2.1152658715353614e-01   5.2322090858088269e-02   8.4101850201355632e-02   1.5108743482459556e-02   2.5938303185180263e-02   6.4473428506176422e-01   5.4189722520256378e-01   6.4980721033789757e-01   5.5256463671414557e-01   6.7213962486828382e-01   5.8300234941629714e-01   7.0402222562225103e-01   6.2727047551370230e-01   7.3515808024886908e-01   6.7369672176183859e-01   7.5800794162026541e-01   7.1195206816394774e-01   7.6876148822086743e-01   7.3646107472648059e-01   7.6557241663566111e-01   7.4543212182438467e-01   7.4647545505623136e-01   7.3832616442672694e-01   7.0743201277754775e-01   7.1363292873246853e-01   6.4027518547617723e-01   6.6669878368838831e-01   5.3279715914203962e-01   5.8796807896079728e-01   3.7968871755945949e-01   4.6582620014624326e-01   2.1023535870943538e-01   3.0455146036006259e-01   8.5107655203100804e-02   1.4958568930140662e-01   2.6504868729842070e-02   5.4005585481703207e-02   1.5762292946597527e-02   3.1097604941887785e-01   3.5149838648035409e-01   2.3115630300625295e-01   4.1331881524399239e-01   2.8983632625300815e-01   4.8949288221767034e-01   3.6996165575225970e-01   5.6551415728819510e-01   4.6044974702358898e-01   6.2763763927622707e-01   5.4388205176688220e-01   6.6922908005373194e-01   6.0717209974144981e-01   6.9017762149973716e-01   6.4669305286895873e-01   6.9304773623626181e-01   6.6528039146244655e-01   6.7960957995177662e-01   6.6726197411747079e-01   6.4808133566752846e-01   6.5461587119849474e-01   5.9099124776885326e-01   6.2413040645215234e-01   4.9592095353599913e-01   5.6583436582066060e-01   3.5625154921948499e-01   4.6505686813945329e-01   1.9798373457662391e-01   3.1783249919819140e-01   7.9456830832319358e-02   1.6225482165439523e-01   2.4215445476090267e-02   5.9289583954622117e-02   1.7002480466040727e-02   1.1034939117914379e-01   6.1915630939738051e-02   1.6616903374710387e-01   9.9992050925436365e-02   2.4876893880861237e-01   1.6393643926324955e-01   3.4974566331266221e-01   2.5514428906800968e-01   4.4798142514001527e-01   3.5853433100951981e-01   5.2483216414487255e-01   4.5029121928577143e-01   5.7518359776453976e-01   5.1650857470047062e-01   6.0436407909967671e-01   5.5858186782190367e-01   6.2034194354351813e-01   5.8563675218074107e-01   6.2786034080635456e-01   6.0604496865945623e-01   6.2496472963355854e-01   6.2200260275883068e-01   6.0201481700045767e-01   6.2748112438435644e-01   5.4201078491869259e-01   6.0873295751901590e-01   4.2612461098656662e-01   5.4480542231257689e-01   2.6180095761348787e-01   4.1525460670334496e-01   1.1285252592109619e-01   2.3786190153930284e-01   3.4619148567488364e-02   9.3176139771726896e-02   2.6518116493991793e-02   3.3243616406607800e-02   6.3693080924674905e-02   3.9406520141550987e-02   1.2016528677175790e-01   8.0068240049402481e-02   2.0595608011748964e-01   1.5037603079090359e-01   3.0472282092560327e-01   2.4313417266015958e-01   3.9001538368358479e-01   3.3230884339813416e-01   4.4877607105374984e-01   3.9659851074275054e-01   4.8654922319821237e-01   4.3583887358604956e-01   5.1701673772782297e-01   4.6417319112696726e-01   5.5152333456060765e-01   4.9734492132532548e-01   5.9244029697045586e-01   5.4371911076490154e-01   6.3120886635824602e-01   5.9927254985456313e-01   6.5143096414293233e-01   6.4860711948215233e-01   6.3218754505667440e-01   6.7140652372741760e-01   5.4822317847579816e-01   6.4592494921464971e-01   3.8383183991555758e-01   5.4612326897901864e-01   1.8801482200612762e-01   3.6059428439647645e-01   6.0874073771352614e-02   1.6059285598630119e-01   4.7679240737115457e-02   3.6844825737187781e-02   2.6013971381700973e-02   8.1137257565321183e-02   6.0955010330712441e-02   1.5491546370362994e-01   1.2555773967304501e-01   2.4147038414868946e-01   2.0986614866215073e-01   3.0977854449041320e-01   2.8119085554837642e-01   3.4519720393520437e-01   3.1617674775812932e-01   3.5785909118839171e-01   3.2008181038271860e-01   3.6894607028169069e-01   3.1532674239323577e-01   3.9740812041227114e-01   3.2454932293376820e-01   4.5365211279275053e-01   3.6327766224333591e-01   5.3458918365284369e-01   4.3768733113746311e-01   6.2033503907723542e-01   5.3792226549945432e-01   6.8275953751074003e-01   6.3512323038523799e-01   6.9961060803635489e-01   6.9778523584022267e-01   6.5149720719867243e-01   7.0668924398091304e-01   5.1267077490980473e-01   6.4349618208312009e-01   2.9400293442895259e-01   4.8237862891452427e-01   1.0772652107224943e-01   2.5289741830377238e-01   8.4188173047700002e-02   3.8167117908284226e-02   8.9724093701514740e-02   7.8449236632844907e-02   1.6981176567598030e-01   1.5805391796506357e-01   2.4718456798762953e-01   2.4179275500974234e-01   2.8403030413309016e-01   2.8431865299692932e-01   2.7347159969368534e-01   2.7024963485366299e-01   2.3904731283391242e-01   2.2241026440241846e-01   2.0991478683242987e-01   1.7570392356526110e-01   2.0370259242191929e-01   1.5060702116789243e-01   2.2990745805141546e-01   1.5324009741101030e-01   2.9742465996838768e-01   1.8934263737138152e-01   4.0905038101932933e-01   2.7001274130160774e-01   5.4286564240033197e-01   3.9885735128116112e-01   6.5379323448272320e-01   5.4585371351105549e-01   7.0913463766484242e-01   6.5831243301202547e-01   6.9655760135560352e-01   7.0655524116305679e-01   5.9762777904025122e-01   6.8115920655499074e-01   3.9706629478459987e-01   5.6224620910613143e-01   1.7257236857381364e-01   3.4536072183149202e-01   1.3554821556321342e-01   1.4761463634006955e-01   1.4632553897925860e-01   2.4492217053946982e-01   2.5326185109509192e-01   3.0236004444413966e-01   3.2239627006159033e-01   2.8727793600149643e-01   3.1142328860619134e-01   2.1778702216460818e-01   2.3279137499756891e-01   1.4237470575654790e-01   1.4105753095115348e-01   9.2679016992879601e-02   7.9532171816420028e-02   7.0025102541525081e-02   5.0248928508137641e-02   6.7598340405961271e-02   4.0662431507067630e-02   8.5089518642546352e-02   4.4281110724670981e-02   1.3296185549004308e-01   6.3797115592796730e-02   2.3041831629479187e-01   1.1295755061799119e-01   3.8201451476139425e-01   2.1521601591830358e-01   5.4336044304585462e-01   3.7508294229541200e-01   6.5208461515014582e-01   5.3967898727947516e-01   6.8353137884963666e-01   6.4391762859789270e-01   6.2937011461768544e-01   6.6571999854492536e-01   4.7174175215157654e-01   5.9547133839403210e-01   2.4497235572259440e-01   4.1910967991178355e-01   1.9687554120396700e-01   2.7463058013827452e-01   3.6699229412678686e-01   3.9355270205827370e-01   3.7005305272765077e-01   4.0629877158860989e-01   2.8077441687593252e-01   3.1668386418827682e-01   1.5832763807140507e-01   1.7833532888477474e-01   7.2514014774827940e-02   7.5823731372536618e-02   3.3056590300604337e-02   2.9849740490075480e-02   1.8378591769700074e-02   1.3831836660245104e-02   1.3949229584508980e-02   8.7101634044036164e-03   1.4843209789608859e-02   7.7630348103145232e-03   2.1649187296048429e-02   9.6637272402175928e-03   4.0876520381443369e-02   1.6202531541507442e-02   9.0070809924804471e-02   3.4420125300322235e-02   1.9749628219565032e-01   8.3143452014102073e-02   3.6539368849029025e-01   1.9307095220887205e-01   5.2990999866767030e-01   3.6445878383884089e-01   6.2224999009537818e-01   5.2668904858619037e-01   6.2124602658576844e-01   6.1060255890764126e-01   5.1624184729386258e-01   5.9577075334567886e-01   3.1517153901873191e-01   4.7144654701151922e-01   2.6249620708928373e-01   4.6923114932233362e-01   3.8813901838391918e-01   4.2294662823509216e-01   2.2907522272052361e-01   2.5970356360364966e-01   9.3193478276950459e-02   1.0636759728140692e-01   3.0280818617059939e-02   3.2388124918208208e-02   1.0267341477621296e-02   9.6932438527940357e-03   4.5120492941588585e-03   3.6571563689858280e-03   2.8176017025457085e-03   1.9520185891696207e-03   2.5079234150297927e-03   1.4889221556174917e-03   3.0916944864793888e-03   1.5743454930230514e-03   5.1109464114536480e-03   2.2337336577782523e-03   1.0913133399414592e-02   4.1426455007078219e-03   2.8233524973734998e-02   9.7381577703350205e-03   7.8466061986695035e-02   2.7289886236449047e-02   1.9579925470930737e-01   8.0357202477297052e-02   3.7411294928998451e-01   2.0519628976907073e-01   5.2845868455873335e-01   3.8724804853554895e-01   5.8949473979862843e-01   5.3307121174791305e-01   5.4024441369021936e-01   5.7843113917081546e-01   3.7880378690509209e-01   5.0806190860931399e-01   3.2814919057058761e-01   3.1136072151398669e-01   1.3637989016565197e-01   1.5017458461315655e-01   4.0564805214925059e-02   4.4977512886160836e-02   1.0351937496143866e-02   1.0950668858642130e-02   3.0169735277055833e-03   2.9135456810249327e-03   1.2022620514675370e-03   1.0375219797665641e-03   6.8757067485001125e-04   5.2773230282553043e-04   5.4983184186251967e-04   3.7529158294935083e-04   5.8952573869223447e-04   3.5691396389206305e-04   8.2087864446956629e-04   4.3751135527427020e-04   1.4588717137325187e-03   6.7685296964895719e-04   3.2769649876231892e-03   1.3127694850266227e-03   9.1042762866955940e-03   3.1887954108679884e-03   2.9216055258650852e-02   9.5315888176095258e-03   9.3136614972585616e-02   3.2535249767712437e-02   2.3855349067645387e-01   1.0674103517904533e-01   4.2642208099404927e-01   2.6680677433818456e-01   5.4769279385889913e-01   4.5190963368398029e-01   5.5260222796458847e-01   5.5378734735316992e-01   4.3475443639051636e-01   5.3401575668886647e-01   3.9056447517021403e-01   5.3621128555756979e-02   1.2944323592222924e-02   1.3589863879230498e-02   3.0782949898352134e-03   3.1570545717094947e-03   9.1015205211916869e-04   8.8211027770404831e-04   3.7461273493734202e-04   3.3682867626153257e-04   2.1556479834113816e-04   1.7850909345807855e-04   1.6626356102128793e-04   1.2637650921740924e-04   1.6439386928595746e-04   1.1430180969015779e-04   2.0177683398745210e-04   1.2754939093557728e-04   3.0247144238960733e-04   1.7191381499501548e-04   5.5365036677773518e-04   2.7817953248402707e-04   1.2521978816433024e-03   5.4535613141275697e-04   3.5350427354667955e-03   1.3208360685635651e-03   1.2151932661961667e-02   4.0064918306770021e-03   4.5495913905743215e-02   1.4741203578988653e-02   1.4845530273015725e-01   5.7265586115984049e-02   3.3588096929673322e-01   1.8139313885820274e-01   5.0314676106446377e-01   3.7774131806873884e-01   5.5707425095389118e-01   5.2510221008398283e-01   4.8201172594514646e-01   5.5070545354194300e-01   4.4621475244408165e-01   3.3698763777348247e-03   8.8851146388905621e-04   8.8185313885483783e-04   3.0253153652653531e-04   2.9177665863399250e-04   1.3930110071399277e-04   1.2830444052653285e-04   8.4895739534989365e-05   7.3915006520263143e-05   6.5786331331442219e-05   5.3793142911862809e-05   6.2531984739318573e-05   4.7812884920259813e-05   7.0954707695073345e-05   5.0521411527387728e-05   9.4527875229182258e-05   6.2250934456791062e-05   1.4734602721037628e-04   8.8645102804990882e-05   2.7182198930380142e-04   1.4650055289865943e-04   6.0855502300482601e-04   2.8633341504849335e-04   1.7032700096847647e-03   6.8290774755442555e-04   5.9929451850662830e-03   2.0526767450492721e-03   2.4537145566490677e-02   7.7555327975337230e-03   9.4745066393420035e-02   3.3124810709916991e-02   2.6175832483245204e-01   1.2436389363047691e-01   4.5618873164722135e-01   3.1100234324585674e-01   5.5281288239287452e-01   4.9021756666123079e-01   5.1823655524173651e-01   5.5631820757807515e-01   4.9094197532063266e-01   2.7966151956822764e-04   1.1592273899235328e-04   1.1130100072533907e-04   6.1146100285978998e-05   5.7155156311626346e-05   4.0044479678006372e-05   3.6015534143617954e-05   3.1691751577537448e-05   2.7197367786901243e-05   2.9622662708394013e-05   2.4130828674331921e-05   3.2067295853511913e-05   2.4718238261344061e-05   3.9597913512870411e-05   2.8780249110889328e-05   5.5378720155113986e-05   3.7687468546994437e-05   8.8102504811265765e-05   5.5414008963653294e-05   1.6237316859185803e-04   9.2442099136241351e-05   3.5795386116639096e-04   1.7921311654866125e-04   9.8219537167531265e-04   4.1889544991544325e-04   3.4332531801838646e-03   1.2300886353589443e-03   1.4538520392721630e-02   4.6057408751075659e-03   6.2038174040024208e-02   2.0370876721954510e-02   2.0024822053185554e-01   8.5097714283570214e-02   4.0334236054689376e-01   2.4839948177584273e-01   5.3635384994583579e-01   4.4492389363266660e-01   5.4064631966799082e-01   5.4787450961669593e-01   5.2171430277228392e-01   5.1847732422451722e-05   3.0941069464867371e-05   2.9241321962366618e-05   2.1668620733725644e-05   1.9934448118607416e-05   1.7582472957697449e-05   1.5606629812032492e-05   1.6346302687352070e-05   1.3918555111644182e-05   1.7199086437109141e-05   1.4007344859502320e-05   2.0223460242903619e-05   1.5724718908555405e-05   2.6333984161566993e-05   1.9482876544919003e-05   3.7918656027607284e-05   2.6496418980046809e-05   6.0928232955625476e-05   3.9674752937113997e-05   1.1162297826722333e-04   6.6315744768047409e-05   2.4132055005477972e-04   1.2697923989540551e-04   6.4271435743914823e-04   2.8925835636293089e-04   2.1773607754270023e-03   8.1874074904192482e-04   9.1260407881655053e-03   2.9521661464204981e-03   4.0751422069235654e-02   1.2919174866965404e-02   1.4775181886157149e-01   5.7074172475441470e-02   3.4240948009692884e-01   1.8935247059238725e-01   5.0509716627806367e-01   3.8795804985647631e-01   5.4834829004110419e-01   5.2452952579550549e-01   5.3877721947346413e-01   1.7638914950429270e-05   1.3073063518251656e-05   1.2257449713535393e-05   1.0872266422872682e-05   9.9179435277586988e-06   1.0114715298598231e-05   8.9230185287078826e-06   1.0456477649627647e-05   8.8918055824419338e-06   1.1895273748832186e-05   9.7365567494898110e-06   1.4752181887252061e-05   1.1604528429485215e-05   1.9847007723565936e-05   1.4946929511819902e-05   2.9036811451761227e-05   2.0773252752618896e-05   4.6738905050911370e-05   3.1342084520987742e-05   8.4637324123168378e-05   5.2119788370911847e-05   1.7832419815370080e-04   9.7992015522964011e-05   4.5597346491436290e-04   2.1595976073528352e-04   1.4674357163161592e-03   5.8214021824366487e-04   5.8979990509278437e-03   1.9811608070457770e-03   2.6476934193718681e-02   8.3199506298014848e-03   1.0431292451669673e-01   3.7421029111473901e-02   2.7695254259286545e-01   1.3749313818663067e-01   4.6044372049008853e-01   3.2400193606996236e-01   5.4371421866268166e-01   4.8915230662319642e-01   5.4600376269055928e-01   8.7012480402318494e-06   7.4156641465976048e-06   6.9570141092454675e-06   6.9323710417329073e-06   6.3342746070888652e-06   7.0866858509456805e-06   6.2819403450117527e-06   7.8664365041064746e-06   6.7511621021171368e-06   9.4038407096359217e-06   7.8033762738761992e-06   1.2033577283366380e-05   9.6345170300704748e-06   1.6461898698124867e-05   1.2661754329818965e-05   2.4196399409722076e-05   1.7739763930503109e-05   3.8697192086350189e-05   2.6703594392909693e-05   6.8798347124910712e-05   4.3846565883689794e-05   1.4029524717158945e-04   8.0425442007637499e-05   3.4149219333132289e-04   1.7038355500930335e-04   1.0316852635713423e-03   4.3424633820525970e-04   3.9043017838560627e-03   1.3811101958560263e-03   1.7146244074198874e-02   5.4712037181652521e-03   7.1258118397675846e-02   2.4360260638229863e-02   2.1447457802900666e-01   9.6376978685234913e-02   4.0761164274368827e-01   2.6057443119694462e-01   5.3153972300942431e-01   4.4682716515648152e-01   5.4823480775803857e-01   5.6428801965472523e-06   5.3215558950380815e-06   5.0706015468341467e-06   5.4007977198830436e-06   5.0234947666132952e-06   5.8713565940255517e-06   5.3134744897639451e-06   6.7960405682893901e-06   5.9704666393470993e-06   8.3325544088649835e-06   7.0918638251099561e-06   1.0796123324707960e-05   8.8770874105965339e-06   1.4805349382077731e-05   1.1707664170203630e-05   2.1630420690426466e-05   1.6329466477047367e-05   3.4091143259701095e-05   2.4291601728556269e-05   5.9126237676593633e-05   3.9100257832539541e-05   1.1612237117452847e-04   6.9602579676348076e-05   2.6809611945207584e-04   1.4128164499059649e-04   7.5772723733281912e-04   3.3996375635826208e-04   2.6786347496599115e-03   1.0087612883151811e-03   1.1288384075912263e-02   3.7363639320575452e-03   4.8068195320667223e-02   1.6092751802985510e-02   1.6103392909110487e-01   6.6489192587361620e-02   3.5273174334558666e-01   2.0384658671356487e-01   5.1548177938318518e-01   4.0190767908654018e-01   5.4700952893082955e-01   4.7094174562638643e-06   4.7577668154077778e-06   4.6898215162136701e-06   5.0712918134170594e-06   4.8891138002379811e-06   5.6842724423200206e-06   5.3404060414524849e-06   6.6813304459962074e-06   6.0987553470826406e-06   8.2243194497583002e-06   7.2730462347693739e-06   1.0610531503855010e-05   9.0605124570884621e-06   1.4399438616614832e-05   1.1819328836405940e-05   2.0704639419312641e-05   1.6227172947811246e-05   3.1923375258997628e-05   2.3651873558145963e-05   5.3752271192530187e-05   3.7096580068717647e-05   1.0146524900462067e-04   6.3876676005889758e-05   2.2237521304009823e-04   1.2420036106337021e-04   5.8909142208038575e-04   2.8284578960755089e-04   1.9386560709069107e-03   7.8441847168736890e-04   7.7111038409861813e-03   2.6993354513566684e-03   3.2716439632041620e-02   1.1020898837480144e-02   1.1914028389340051e-01   4.6151585932154043e-02   3.0010343909116566e-01   1.5710382039417078e-01   4.9541264436548965e-01   3.5650267794712814e-01   5.3980333058497121e-01   4.9877830073831687e-06   5.2199287886553905e-06   5.3916884797900461e-06   5.6681883095721386e-06   5.7353600837037382e-06   6.3843110678283699e-06   6.3035343274861126e-06   7.4635015023569722e-06   7.1642970329307829e-06   9.0715264869975973e-06   8.4354669915136062e-06   1.1499566800287948e-05   1.0318716506238467e-05   1.5279722278048200e-05   1.3168554002112336e-05   2.1444327223670113e-05   1.7639206568236276e-05   3.2156813556167165e-05   2.5019869880452862e-05   5.2402184312452349e-05   3.8067181148138942e-05   9.5062645098487004e-05   6.3289240415006909e-05   1.9827310507803715e-04   1.1798376512325158e-04   4.9346187218788458e-04   2.5492705171376782e-04   1.5066331476223565e-03   6.6130008136044938e-04   5.5820058801232296e-03   2.1035044459948356e-03   2.3042637703930339e-02   8.0248687381960018e-03   8.8617073091866505e-02   3.3160037557102881e-02   2.5243116044306502e-01   1.2146410474414669e-01   4.6932555005767707e-01   3.1232703659023253e-01   5.2254974682868127e-01   6.4756528738776940e-06   6.8437936862849120e-06   7.4385063867815684e-06   7.4208967542222702e-06   7.9202835151951791e-06   8.2719206867208024e-06   8.6357154934303007e-06   9.5049370817294745e-06   9.6674033798782695e-06   1.1299433321776635e-05   1.1149894948505792e-05   1.3961868131208617e-05   1.3306046397801946e-05   1.8040130740734614e-05   1.6518857850975985e-05   2.4575170319699355e-05   2.1481508317494745e-05   3.5698636146506155e-05   2.9532594857684715e-05   5.6187508159599194e-05   4.3467447880367602e-05   9.7955485883199187e-05   6.9691832359534007e-05   1.9463611773522967e-04   1.2457510967705119e-04   4.5521745771451804e-04   2.5551468794159749e-04   1.2873641402366958e-03   6.2012741557414416e-04   4.4137663977125551e-03   1.8223486909059452e-03   1.7392950660686603e-02   6.45050280