<?xml version="1.0"?>
<VTKFile type="UnstructuredGrid"  version="0.1"  >
<UnstructuredGrid>
<Piece  NumberOfPoints="629" NumberOfCells="1162">
<Points>
<DataArray  type="Float64"  NumberOfComponents="3"  format="ascii">0.7104347826086956 0 0  0.7269565217391304 0 0  0.7269565217391304 0.01666666666666667 0  0.7104347826086956 0.01666666666666667 0  0.7434782608695653 0 0  0.7434782608695653 0.01666666666666667 0  0.7599999999999999 0 0  0.7599999999999999 0.01666666666666667 0  0.7765217391304348 0 0  0.7765217391304348 0.01666666666666667 0  0.7930434782608695 0 0  0.7930434782608695 0.01666666666666667 0  0.8095652173913043 0 0  0.8095652173913043 0.01666666666666667 0  0.8260869565217391 0 0  0.8260869565217391 0.01666666666666667 0  0.8426086956521739 0 0  0.8426086956521739 0.01666666666666667 0  0.8591304347826086 0 0  0.8591304347826086 0.01666666666666667 0  0.8756521739130434 0 0  0.8756521739130434 0.01666666666666667 0  0.8921739130434783 0 0  0.8921739130434783 0.01666666666666667 0  0.908695652173913 0 0  0.908695652173913 0.01666666666666667 0  0.9252173913043478 0 0  0.9252173913043478 0.01666666666666667 0  0.9417391304347826 0 0  0.9417391304347826 0.01666666666666667 0  0.9582608695652173 0 0  0.9582608695652173 0.01666666666666667 0  0.9747826086956521 0 0  0.9747826086956521 0.01666666666666667 0  0.991304347826087 0 0  0.991304347826087 0.01666666666666667 0  1.007826086956522 0 0  1.007826086956522 0.01666666666666667 0  1.024347826086957 0 0  1.024347826086957 0.01666666666666667 0  0.7269565217391304 0.03333333333333333 0  0.7104347826086956 0.03333333333333333 0  0.7434782608695653 0.03333333333333333 0  0.7599999999999999 0.03333333333333333 0  0.7765217391304348 0.03333333333333333 0  0.7930434782608695 0.03333333333333333 0  0.8095652173913043 0.03333333333333333 0  0.8260869565217391 0.03333333333333333 0  0.8426086956521739 0.03333333333333333 0  0.8591304347826086 0.03333333333333333 0  0.8756521739130434 0.03333333333333333 0  0.8921739130434783 0.03333333333333333 0  0.908695652173913 0.03333333333333333 0  0.9252173913043478 0.03333333333333333 0  0.9417391304347826 0.03333333333333333 0  0.9582608695652173 0.03333333333333333 0  0.9747826086956521 0.03333333333333333 0  0.991304347826087 0.03333333333333333 0  1.007826086956522 0.03333333333333333 0  1.024347826086957 0.03333333333333333 0  1.040869565217391 0.03333333333333333 0  0.7269565217391304 0.05 0  0.7434782608695653 0.05 0  0.7599999999999999 0.05 0  0.7765217391304348 0.05 0  0.7930434782608695 0.05 0  0.8095652173913043 0.05 0  0.8260869565217391 0.05 0  0.8426086956521739 0.05 0  0.8591304347826086 0.05 0  0.8756521739130434 0.05 0  0.8921739130434783 0.05 0  0.908695652173913 0.05 0  0.9252173913043478 0.05 0  0.9417391304347826 0.05 0  0.9582608695652173 0.05 0  0.9747826086956521 0.05 0  0.991304347826087 0.05 0  1.007826086956522 0.05 0  1.024347826086957 0.05 0  1.040869565217391 0.05 0  1.057391304347826 0.05 0  0.7434782608695653 0.06666666666666667 0  0.7599999999999999 0.06666666666666667 0  0.7765217391304348 0.06666666666666667 0  0.7930434782608695 0.06666666666666667 0  0.8095652173913043 0.06666666666666667 0  0.8260869565217391 0.06666666666666667 0  0.8426086956521739 0.06666666666666667 0  0.8591304347826086 0.06666666666666667 0  0.8756521739130434 0.06666666666666667 0  0.8921739130434783 0.06666666666666667 0  0.908695652173913 0.06666666666666667 0  0.9252173913043478 0.06666666666666667 0  0.9417391304347826 0.06666666666666667 0  0.9582608695652173 0.06666666666666667 0  0.9747826086956521 0.06666666666666667 0  0.991304347826087 0.06666666666666667 0  1.007826086956522 0.06666666666666667 0  1.024347826086957 0.06666666666666667 0  1.040869565217391 0.06666666666666667 0  1.057391304347826 0.06666666666666667 0  1.073913043478261 0.06666666666666667 0  0.7599999999999999 0.08333333333333333 0  0.7765217391304348 0.08333333333333333 0  0.7930434782608695 0.08333333333333333 0  0.8095652173913043 0.08333333333333333 0  0.8260869565217391 0.08333333333333333 0  0.8426086956521739 0.08333333333333333 0  0.8591304347826086 0.08333333333333333 0  0.8756521739130434 0.08333333333333333 0  0.8921739130434783 0.08333333333333333 0  0.908695652173913 0.08333333333333333 0  0.9252173913043478 0.08333333333333333 0  0.9417391304347826 0.08333333333333333 0  0.9582608695652173 0.08333333333333333 0  0.9747826086956521 0.08333333333333333 0  0.991304347826087 0.08333333333333333 0  1.007826086956522 0.08333333333333333 0  1.024347826086957 0.08333333333333333 0  1.040869565217391 0.08333333333333333 0  1.057391304347826 0.08333333333333333 0  1.073913043478261 0.08333333333333333 0  1.090434782608696 0.08333333333333333 0  0.7765217391304348 0.1 0  0.7930434782608695 0.1 0  0.8095652173913043 0.1 0  0.8260869565217391 0.1 0  0.8426086956521739 0.1 0  0.8591304347826086 0.1 0  0.8756521739130434 0.1 0  0.8921739130434783 0.1 0  0.908695652173913 0.1 0  0.9252173913043478 0.1 0  0.9417391304347826 0.1 0  0.9582608695652173 0.1 0  0.9747826086956521 0.1 0  0.991304347826087 0.1 0  1.007826086956522 0.1 0  1.024347826086957 0.1 0  1.040869565217391 0.1 0  1.057391304347826 0.1 0  1.073913043478261 0.1 0  1.090434782608696 0.1 0  1.10695652173913 0.1 0  0.7930434782608695 0.1166666666666667 0  0.8095652173913043 0.1166666666666667 0  0.8260869565217391 0.1166666666666667 0  0.8426086956521739 0.1166666666666667 0  0.8591304347826086 0.1166666666666667 0  0.8756521739130434 0.1166666666666667 0  0.8921739130434783 0.1166666666666667 0  0.908695652173913 0.1166666666666667 0  0.9252173913043478 0.1166666666666667 0  0.9417391304347826 0.1166666666666667 0  0.9582608695652173 0.1166666666666667 0  0.9747826086956521 0.1166666666666667 0  0.991304347826087 0.1166666666666667 0  1.007826086956522 0.1166666666666667 0  1.024347826086957 0.1166666666666667 0  1.040869565217391 0.1166666666666667 0  1.057391304347826 0.1166666666666667 0  1.073913043478261 0.1166666666666667 0  1.090434782608696 0.1166666666666667 0  1.10695652173913 0.1166666666666667 0  1.123478260869565 0.1166666666666667 0  0.8095652173913043 0.1333333333333333 0  0.8260869565217391 0.1333333333333333 0  0.8426086956521739 0.1333333333333333 0  0.8591304347826086 0.1333333333333333 0  0.8756521739130434 0.1333333333333333 0  0.8921739130434783 0.1333333333333333 0  0.908695652173913 0.1333333333333333 0  0.9252173913043478 0.1333333333333333 0  0.9417391304347826 0.1333333333333333 0  0.9582608695652173 0.1333333333333333 0  0.9747826086956521 0.1333333333333333 0  0.991304347826087 0.1333333333333333 0  1.007826086956522 0.1333333333333333 0  1.024347826086957 0.1333333333333333 0  1.040869565217391 0.1333333333333333 0  1.057391304347826 0.1333333333333333 0  1.073913043478261 0.1333333333333333 0  1.090434782608696 0.1333333333333333 0  1.10695652173913 0.1333333333333333 0  1.123478260869565 0.1333333333333333 0  1.14 0.1333333333333333 0  0.8260869565217391 0.15 0  0.8426086956521739 0.15 0  0.8591304347826086 0.15 0  0.8756521739130434 0.15 0  0.8921739130434783 0.15 0  0.908695652173913 0.15 0  0.9252173913043478 0.15 0  0.9417391304347826 0.15 0  0.9582608695652173 0.15 0  0.9747826086956521 0.15 0  0.991304347826087 0.15 0  1.007826086956522 0.15 0  1.024347826086957 0.15 0  1.040869565217391 0.15 0  1.057391304347826 0.15 0  1.073913043478261 0.15 0  1.090434782608696 0.15 0  1.10695652173913 0.15 0  1.123478260869565 0.15 0  1.14 0.15 0  1.156521739130435 0.15 0  0.8426086956521739 0.1666666666666667 0  0.8591304347826086 0.1666666666666667 0  0.8756521739130434 0.1666666666666667 0  0.8921739130434783 0.1666666666666667 0  0.908695652173913 0.1666666666666667 0  0.9252173913043478 0.1666666666666667 0  0.9417391304347826 0.1666666666666667 0  0.9582608695652173 0.1666666666666667 0  0.9747826086956521 0.1666666666666667 0  0.991304347826087 0.1666666666666667 0  1.007826086956522 0.1666666666666667 0  1.024347826086957 0.1666666666666667 0  1.040869565217391 0.1666666666666667 0  1.057391304347826 0.1666666666666667 0  1.073913043478261 0.1666666666666667 0  1.090434782608696 0.1666666666666667 0  1.10695652173913 0.1666666666666667 0  1.123478260869565 0.1666666666666667 0  1.14 0.1666666666666667 0  1.156521739130435 0.1666666666666667 0  1.17304347826087 0.1666666666666667 0  0.8591304347826086 0.1833333333333333 0  0.8756521739130434 0.1833333333333333 0  0.8921739130434783 0.1833333333333333 0  0.908695652173913 0.1833333333333333 0  0.9252173913043478 0.1833333333333333 0  0.9417391304347826 0.1833333333333333 0  0.9582608695652173 0.1833333333333333 0  0.9747826086956521 0.1833333333333333 0  0.991304347826087 0.1833333333333333 0  1.007826086956522 0.1833333333333333 0  1.024347826086957 0.1833333333333333 0  1.040869565217391 0.1833333333333333 0  1.057391304347826 0.1833333333333333 0  1.073913043478261 0.1833333333333333 0  1.090434782608696 0.1833333333333333 0  1.10695652173913 0.1833333333333333 0  1.123478260869565 0.1833333333333333 0  1.14 0.1833333333333333 0  1.156521739130435 0.1833333333333333 0  1.17304347826087 0.1833333333333333 0  1.189565217391304 0.1833333333333333 0  0.8756521739130434 0.2 0  0.8921739130434783 0.2 0  0.908695652173913 0.2 0  0.9252173913043478 0.2 0  0.9417391304347826 0.2 0  0.9582608695652173 0.2 0  0.9747826086956521 0.2 0  0.991304347826087 0.2 0  1.007826086956522 0.2 0  1.024347826086957 0.2 0  1.040869565217391 0.2 0  1.057391304347826 0.2 0  1.073913043478261 0.2 0  1.090434782608696 0.2 0  1.10695652173913 0.2 0  1.123478260869565 0.2 0  1.14 0.2 0  1.156521739130435 0.2 0  1.17304347826087 0.2 0  1.189565217391304 0.2 0  1.206086956521739 0.2 0  0.8921739130434783 0.2166666666666667 0  0.908695652173913 0.2166666666666667 0  0.9252173913043478 0.2166666666666667 0  0.9417391304347826 0.2166666666666667 0  0.9582608695652173 0.2166666666666667 0  0.9747826086956521 0.2166666666666667 0  0.991304347826087 0.2166666666666667 0  1.007826086956522 0.2166666666666667 0  1.02434782608
[...]
<PointData  Vectors="Displacement"> 
<DataArray  type="Float64"  Name="Displacement"  NumberOfComponents="3" format="ascii">9.3990500352882241e-05 6.7299867159957907e-04 0.0000000000000000e+00  9.5829126425787313e-05 6.8821742391891861e-04 0.0000000000000000e+00  8.0455776518093873e-05 6.8761014479700486e-04 0.0000000000000000e+00  7.8581296050981106e-05 6.7238945824008272e-04 0.0000000000000000e+00  9.7684591360351863e-05 7.0343152464934634e-04 0.0000000000000000e+00  8.2290968951543133e-05 7.0282211864342503e-04 0.0000000000000000e+00  9.9552732578413809e-05 7.1870029611576013e-04 0.0000000000000000e+00  8.4100385755119848e-05 7.1809012735234081e-04 0.0000000000000000e+00  1.0142836656883588e-04 7.3404636456249925e-04 0.0000000000000000e+00  8.5898062518966454e-05 7.3343546765771502e-04 0.0000000000000000e+00  1.0330709702869850e-04 7.4948170114046413e-04 0.0000000000000000e+00  8.7689668317174802e-05 7.4887069671211173e-04 0.0000000000000000e+00  1.0518525906466058e-04 7.6501039106562747e-04 0.0000000000000000e+00  8.9477695721529497e-05 7.6439985772079003e-04 0.0000000000000000e+00  1.0706030668097704e-04 7.8063144758238072e-04 0.0000000000000000e+00  9.1263533257972010e-05 7.8002171196846020e-04 0.0000000000000000e+00  1.0893070555698776e-04 7.9634132503130970e-04 0.0000000000000000e+00  9.3047997948391572e-05 7.9573253897835810e-04 0.0000000000000000e+00  1.1079557507296666e-04 8.1213527551402096e-04 0.0000000000000000e+00  9.4831565855314361e-05 8.1152750535312560e-04 0.0000000000000000e+00  1.1265436754342088e-04 8.2800791433804274e-04 0.0000000000000000e+00  9.6614523923967856e-05 8.2740119892171316e-04 0.0000000000000000e+00  1.1450666324722513e-04 8.4395337435054377e-04 0.0000000000000000e+00  9.8397061842008389e-05 8.4334776622283598e-04 0.0000000000000000e+00  1.1635208401861508e-04 8.5996526841104900e-04 0.0000000000000000e+00  1.0017930498090941e-04 8.5936086122658255e-04 0.0000000000000000e+00  1.1819034432514719e-04 8.7603663839045591e-04 0.0000000000000000e+00  1.0196130810753891e-04 8.7543353610951247e-04 0.0000000000000000e+00  1.2002140925987949e-04 8.9216014643526270e-04 0.0000000000000000e+00  1.0374307835400696e-04 8.9155836271154925e-04 0.0000000000000000e+00  1.2184552669610884e-04 9.0832870371916434e-04 0.0000000000000000e+00  1.0552459065412523e-04 9.0772813697578923e-04 0.0000000000000000e+00  1.2366302767538855e-04 9.2453596968215649e-04 0.0000000000000000e+00  1.0730581135360666e-04 9.2393647611753731e-04 0.0000000000000000e+00  1.2547404448019135e-04 9.4077625752559291e-04 0.0000000000000000e+00  1.0908673931257990e-04 9.4017773674139960e-04 0.0000000000000000e+00  1.2727835268641855e-04 9.5704392980805182e-04 0.0000000000000000e+00  1.1086747007330479e-04 9.5644634346170397e-04 0.0000000000000000e+00  1.2907534293155103e-04 9.7333274451982441e-04 0.0000000000000000e+00  1.1264822957382859e-04 9.7273611927470565e-04 0.0000000000000000e+00  6.5187224724811321e-05 6.8700976186073556e-04 0.0000000000000000e+00  6.3226515137042527e-05 6.7175327368401651e-04 0.0000000000000000e+00  6.6974857920822504e-05 7.0223432956343344e-04 0.0000000000000000e+00  6.8683147837942591e-05 7.1750525076681813e-04 0.0000000000000000e+00  7.0385547280127207e-05 7.3285190665057598e-04 0.0000000000000000e+00  7.2082252945681984e-05 7.4828851583935252e-04 0.0000000000000000e+00  7.3776003060373061e-05 7.6381863996166849e-04 0.0000000000000000e+00  7.5470365331596132e-05 7.7944080357815189e-04 0.0000000000000000e+00  7.7167667522891076e-05 7.9515139691774348e-04 0.0000000000000000e+00  7.8869237138154470e-05 8.1094576025346726e-04 0.0000000000000000e+00  8.0575891661707205e-05 8.2681860970579757e-04 0.0000000000000000e+00  8.2288269231848657e-05 8.4276418710518201e-04 0.0000000000000000e+00  8.4006977729713362e-05 8.5877626136061111e-04 0.0000000000000000e+00  8.5732551205503426e-05 8.7484801224843394e-04 0.0000000000000000e+00  8.7465166172286370e-05 8.9097196151365738e-04 0.0000000000000000e+00  8.9204429357299465e-05 9.0714078160029508e-04 0.0000000000000000e+00  9.0949671592857742e-05 9.2334801466634425e-04 0.0000000000000000e+00  9.2700529090351369e-05 9.3958801503339347e-04 0.0000000000000000e+00  9.4457322038435341e-05 9.5585515366798516e-04 0.0000000000000000e+00  9.6221073168173681e-05 9.7214317418376861e-04 0.0000000000000000e+00  9.7993406269480143e-05 9.8844473552517093e-04 0.0000000000000000e+00  4.9797091835988336e-05 6.8635677469868340e-04 0.0000000000000000e+00  5.1618128321485517e-05 7.0163917422270950e-04 0.0000000000000000e+00  5.3324630119975220e-05 7.1693699202882665e-04 0.0000000000000000e+00  5.5025148224476939e-05 7.3228931344707429e-04 0.0000000000000000e+00  5.6599502799185673e-05 7.4772757977514706e-04 0.0000000000000000e+00  5.8156407039436380e-05 7.6325725869857779e-04 0.0000000000000000e+00  5.9732340909580157e-05 7.7887878820089517e-04 0.0000000000000000e+00  6.1326943173156589e-05 7.9458826764404564e-04 0.0000000000000000e+00  6.2936448861949002e-05 8.1038108141196245e-04 0.0000000000000000e+00  6.4558569598367795e-05 8.2625205267588143e-04 0.0000000000000000e+00  6.6192700631509548e-05 8.4219547337327559e-04 0.0000000000000000e+00  6.7839864687065831e-05 8.5820512407775622e-04 0.0000000000000000e+00  6.9503106775748144e-05 8.7427427065595324e-04 0.0000000000000000e+00  7.1186371636110184e-05 8.9039575441657325e-04 0.0000000000000000e+00  7.2887356854627603e-05 9.0656238442534027e-04 0.0000000000000000e+00  7.4599063885650102e-05 9.2276763648756785e-04 0.0000000000000000e+00  7.6315769786775586e-05 9.3900563040387182e-04 0.0000000000000000e+00  7.8037360701428156e-05 9.5527056162231965e-04 0.0000000000000000e+00  7.9766508625524587e-05 9.7155601220719244e-04 0.0000000000000000e+00  8.1507134753079942e-05 9.8785450098328245e-04 0.0000000000000000e+00  8.3265615387140873e-05 1.0041570754613287e-03 0.0000000000000000e+00  4.2490303904257142e-05 6.9317483645399490e-04 0.0000000000000000e+00  4.4955104392712931e-05 7.0848030450849236e-04 0.0000000000000000e+00  4.7330351956609706e-05 7.2385849984816912e-04 0.0000000000000000e+00  4.9623896102629690e-05 7.3936521903772803e-04 0.0000000000000000e+00  5.1850018414007122e-05 7.5497966182378211e-04 0.0000000000000000e+00  5.4026775369292928e-05 7.7070899805130354e-04 0.0000000000000000e+00  5.6162806601760504e-05 7.8655405085168817e-04 0.0000000000000000e+00  5.8261588609704241e-05 8.0250815443725493e-04 0.0000000000000000e+00  6.0325673225779285e-05 8.1856224400897145e-04 0.0000000000000000e+00  6.2358032192238690e-05 8.3470676680167701e-04 0.0000000000000000e+00  6.4362214035679091e-05 8.5093226181977061e-04 0.0000000000000000e+00  6.6342012505649425e-05 8.6722955926749003e-04 0.0000000000000000e+00  6.8300687891560723e-05 8.8359020057184707e-04 0.0000000000000000e+00  7.0239863766022144e-05 9.0000709755681677e-04 0.0000000000000000e+00  7.2159557503365153e-05 9.1647325023902102e-04 0.0000000000000000e+00  7.4059639045609673e-05 9.3298083276355161e-04 0.0000000000000000e+00  7.5941268711982661e-05 9.4952118979642526e-04 0.0000000000000000e+00  7.7807225629865441e-05 9.6608542911269014e-04 0.0000000000000000e+00  7.9661699608376651e-05 9.8266386450454081e-04 0.0000000000000000e+00  8.1510296476709472e-05 9.9924522879469256e-04 0.0000000000000000e+00  8.3359965008755318e-05 1.0158162228178170e-03 0.0000000000000000e+00  3.6810121374186629e-05 6.9954198210329499e-04 0.0000000000000000e+00  3.9789083477437515e-05 7.1495995808715002e-04 0.0000000000000000e+00  4.2671741145294345e-05 7.3053534632801849e-04 0.0000000000000000e+00  4.5463012802005077e-05 7.4626246478654652e-04 0.0000000000000000e+00  4.8164388149252101e-05 7.6213732357323740e-04 0.0000000000000000e+00  5.0780151442188967e-05 7.7815475431111496e-04 0.0000000000000000e+00  5.3315106503553569e-05 7.9430454211839121e-04 0.0000000000000000e+00  5.5774187569189223e-05 8.1057389474386763e-04 0.0000000000000000e+00  5.8162729173933531e-05 8.2694974521521842e-04 0.0000000000000000e+00  6.0486331807712379e-05 8.4341981131253526e-04 0.0000000000000000e+00  6.2750435981159033e-05 8.5997297805556891e-04 0.0000000000000000e+00  6.4959836619343328e-05 8.7659950132038130e-04 0.0000000000000000e+00  6.7118412437215433e-05 8.9329100244211481e-04 0.0000000000000000e+00  6.9229282473230689e-05 9.1003936448665783e-04 0.0000000000000000e+00  7.1295168953922156e-05 9.2683570683788335e-04 0.0000000000000000e+00  7.3318855102732903e-05 9.4367016429178371e-04 0.0000000000000000e+00  7.5303567218921552e-05 9.6053219515787212e-04 0.0000000000000000e+00  7.7253216430183644e-05 9.7741037908683371e-04 0.0000000000000000e+00  7.9172364360856408e-05 9.9429197592391179e-04 0.0000000000000000e+00  8.1065903617066030e-05 1.0111628182761226e-03 0.0000000000000000e+00  8.2938472497176568e-05 1.0280080757420211e-03 0.0000000000000000e+00  3.2418137455359005e-05 7.0563886854454019e-04 0.0000000000000000e+00  3.5796863368370653e-05 7.2129654334345450e-04 0.0000000000000000e+00  3.9063980488565727e-05 7.3715506763539823e-04 0.0000000000000000e+00  4.2213379153032915e-05 7.5320199897295102e-04 0.0000000000000000e+00  4.5243794376297300e-05 7.6942215729654717e-04 0.0000000000000000e+00  4.8158186239555016e-05 7.8579824227607690e-04 0.0000000000000000e+00  5.0961996180122498e-05 8.0231228158050762e-04 0.0000000000000000e+00  5.3662001359008103e-05 8.1894726058107028e-04 0.0000000000000000e+00  5.6265479971039575e-05 8.3568806276580960e-04 0.0000000000000000e+00  5.8779511277259998e-05 8.5252171191563069e-04 0.0000000000000000e+00  6.1210476935534609e-05 8.6943720790978133e-04 0.0000000000000000e+00  6.3563871892833432e-05 8.8642502546861846e-04 0.0000000000000000e+00  6.5844403753359144e-05 9.0347606919032356e-04 0.0000000000000000e+00  6.8056166104064856e-05 9.2058071677669198e-04 0.0000000000000000e+00  7.0202854023933945e-05 9.3772838929009623e-04 0.0000000000000000e+00  7.2288042742706506e-05 9.5490753739122132e-04 0.0000000000000000e+00  7.4315460039307005e-05 9.7210553734338389e-04 0.0000000000000000e+00  7.6289076032321390e-05 9.8930853922545871e-04 0.0000000000000000e+00  7.8212983670181729e-05 1.0065015219535949e-03 0.0000000000000000e+00  8.0091213486952620e-05 1.0236687174467610e-03 0.0000000000000000e+00  8.1927765790155806e-05 1.0407938912985080e-03 0.0000000000000000e+00  2.9028497726313791e-05 7.1168885556416707e-04 0.0000000000000000e+00  3.2695192631658432e-05 7.2769732345329683e-04 0.0000000000000000e+00  3.6221769960370002e-05 7.4393978815815332e-04 0.0000000000000000e+00  3.9602669057845230e-05 7.6038940761891918e-04 0.0000000000000000e+00  4.2838796974663123e-05 7.7701940645306629e-04 0.0000000000000000e+00  4.5935488945415243e-05 7.9380491031634623e-04 0.0000000000000000e+00  4.8900542340097354e-05 8.1072418557533805e-04 0.0000000000000000e+00  5.1742664012882378e-05 8.2775911854853943e-04 0.0000000000000000e+00  5.4470366265707954e-05 8.4489499485118809e-04 0.0000000000000000e+00  5.7091302705769047e-05 8.6211982151098050e-04 0.0000000000000000e+00  5.9612017170658976e-05 8.7942336328112735e-04 0.0000000000000000e+00  6.2037996904773578e-05 8.9679597057424254e-04 0.0000000000000000e+00  6.4373850284841724e-05 9.1422758082777182e-04 0.0000000000000000e+00  6.6623542520473467e-05 9.3170713972696680e-04 0.0000000000000000e+00  6.8790681836188960e-05 9.4922239011181677e-04 0.0000000000000000e+00  7.0878803729933310e-05 9.6675978345364428e-04 0.0000000000000000e+00  7.2891541993461929e-05 9.8430447728361072e-04 0.0000000000000000e+00  7.4832656011904945e-05 1.0018404720681133e-03 0.0000000000000000e+00  7.6705991756434346e-05 1.0193508616979942e-03 0.0000000000000000e+00  7.8515485128078269e-05 1.0368178373970497e-03 0.0000000000000000e+00  8.0265112044624221e-05 1.0542218129285970e-03 0.0000000000000000e+00  2.6381623039853887e-05 7.1792091648736585e-04 0.0000000000000000e+00  3.0220848892018676e-05 7.3438339071557851e-04 0.0000000000000000e+00  3.3891104349971112e-05 7.5108875038171620e-04 0.0000000000000000e+00  3.7392149223693498e-05 7.6799886132906156e-04 0.0000000000000000e+00  4.0729680568534439e-05 7.8508058653090562e-04 0.0000000000000000e+00  4.3912707451525200e-05 8.0230685398601626e-04 0.0000000000000000e+00  4.6951381480822522e-05 8.1965654797573758e-04 0.0000000000000000e+00  4.9855490038478853e-05 8.3711356370507427e-04 0.0000000000000000e+00  5.2633609616084151e-05 8.5466543149447492e-04 0.0000000000000000e+00  5.5292808661541502e-05 8.7230180444325064e-04 0.0000000000000000e+00  5.7838729534435714e-05 8.9001300072282603e-04 0.0000000000000000e+00  6.0275863838581851e-05 9.0778885429548893e-04 0.0000000000000000e+00  6.2607909012971360e-05 9.2561800913623638e-04 0.0000000000000000e+00  6.4838146951952267e-05 9.4348761047280633e-04 0.0000000000000000e+00  6.6969785358731825e-05 9.6138324107436859e-04 0.0000000000000000e+00  6.9006190895268176e-05 9.7928902322780916e-04 0.0000000000000000e+00  7.0950988042620800e-05 9.9718783797573228e-04 0.0000000000000000e+00  7.2808050813255620e-05 1.0150615656191418e-03 0.0000000000000000e+00  7.4581415453808084e-05 1.0328911208854930e-03 0.0000000000000000e+00  7.6275039103614414e-05 1.0506560642673146e-03 0.0000000000000000e+00  7.7892243509084362e-05 1.0683342187261969e-03 0.0000000000000000e+00  2.4228701225603909e-05 7.2456160098615145e-04 0.0000000000000000e+00  2.8130681585170363e-05 7.4155082799601680e-04 0.0000000000000000e+00  3.1841644121546948e-05 7.5876736418468798e-04 0.0000000000000000e+00  3.5368762493458480e-05 7.7616878939287175e-04 0.0000000000000000e+00  3.8722970283034988e-05 7.9372250369512604e-04 0.0000000000000000e+00  4.1916169395921338e-05 8.1140480915925072e-04 0.0000000000000000e+00  4.4959373628536172e-05 8.2919894866401839e-04 0.0000000000000000e+00  4.7861753373684537e-05 8.4709280587747415e-04 0.0000000000000000e+00  5.0630385551919561e-05 8.6507670365136926e-04 0.0000000000000000e+00  5.3270471160913151e-05 8.8314153170828303e-04 0.0000000000000000e+00  5.5785797891114089e-05 9.0127737655351365e-04 0.0000000000000000e+00  5.8179287057965133e-05 9.1947271048865777e-04 0.0000000000000000e+00  6.0453521552718933e-05 9.3771406432861847e-04 0.0000000000000000e+00  6.2611183477143717e-05 9.5598603890912422e-04 0.0000000000000000e+00  6.4655349296018728e-05 9.7427153588091969e-04 0.0000000000000000e+00  6.6589622525365427e-05 9.9255210529884349e-04 0.0000000000000000e+00  6.8418110300103491e-05 1.0108082920022023e-03 0.0000000000000000e+00  7.0145246645356957e-05 1.0290198294475314e-03 0.0000000000000000e+00  7.1775425291336920e-05 1.0471655949055574e-03 0.0000000000000000e+00  7.3312406286517605e-05 1.0652235378021274e-03 0.0000000000000000e+00  7.4758632126099760e-05 1.0831708676355188e-03 0.0000000000000000e+00  2.2331856563121779e-05 7.3180499134466702e-04 0.0000000000000000e+00  2.6199935613399660e-05 7.4935554381927341e-04 0.0000000000000000e+00  2.9866832735500085e-05 7.6709939880597396e-04 0.0000000000000000e+00  3.3346517282475164e-05 7.8499884312423945e-04 0.0000000000000000e+00  3.6653175998531697e-05 8.0302866993944529e-04 0.0000000000000000e+00  3.9799075063184648e-05 8.2117276587252252e-04 0.0000000000000000e+00  4.2793634723055685e-05 8.3942060077805156e-04 0.0000000000000000e+00  4.5643376337527178e-05 8.5776418032387769e-04 0.0000000000000000e+00  4.8352413395370359e-05 8.7619566395383350e-04 0.0000000000000000e+00  5.0923206909985246e-05 8.9470574791018157e-04 0.0000000000000000e+00  5.3357373396610660e-05 9.1328279589174299e-04 0.0000000000000000e+00  5.5656407756089483e-05 9.3191258059670116e-04 0.0000000000000000e+00  5.7822243717525141e-05 9.5057844824743168e-04 0.0000000000000000e+00  5.9857614360897218e-05 9.6926174043310948e-04 0.0000000000000000e+00  6.1766203090280424e-05 9.8794233640835268e-04 0.0000000000000000e+00  6.3552588755945341e-05 1.0065991909274667e-03 0.0000000000000000e+00  6.5221985133040293e-05 1.0252107497166897e-03 0.0000000000000000e+00  6.6779763976041750e-05 1.0437551806317623e-03 0.0000000000000000e+00  6.8230775467966725e-05 1.0622104851502321e-03 0.0000000000000000e+00  6.9578581387454865e-05 1.0805545389114910e-03 0.0000000000000000e+00  7.0824807001550652e-05 1.0987648356108881e-03 0.0000000000000000e+00  2.0469903663349668e-05 7.3979430112853866e-04 0.0000000000000000e+00  2.4228702680923796e-05 7.5790271951334709e-04 0.0000000000000000e+00  2.7789968499002900e-05 7.7616374948972144e-04 0.0000000000000000e+00  3.1170858134194192e-05 7.9455266151235804e-04 0.0000000000000000e+00  3.4384906119215828e-05 8.1305601690188434e-04 0.0000000000000000e+00  3.7441346118173682e-05 8.3166659909280770e-04 0.0000000000000000e+00  4.0345462710547362e-05 8.5037938144091776e-04 0.0000000000000000e+00  4.3099528345869254e-05 8.6918858512532039e-04 0.0000000000000000e+00  4.5703977087934494e-05 8.8808584201863726e-04 0.0000000000000000e+00  4.8158549624302724e-05 9.0705935951449553e-04 0.0000000000000000e+00  5.0463248054394138e-05 9.2609384950630559e-04 0.0000000000000000e+00  5.2619031704172679e-05 9.4517095090647439e-04 0.0000000000000000e+00  5.4628240544713508e-05 9.6426992645077614e-04 0.0000000000000000e+00  5.6494755423020915e-05 9.8336847361325027e-04 0.0000000000000000e+00  5.8223906147717484e-05 1.0024435251915138e-03 0.0000000000000000e+00  5.9822130924781261e-05 1.0214719357395565e-03 0.0000000000000000e+00  6.1296387637958547e-05 1.0404309824631130e-03 0.0000000000000000e+00  6.2653341337358983e-05 1.0592986522143277e-03 0.0000000000000000e+00  6.3898414144170906e-05 1.0780536472030405e-03 0.0000000000000000e+00  6.5034844515398748e-05 1.0966748997599380e-03 0.0000000000000000e+00  6.6062920351769316e-05 1.1151403707173341e-03 0.0000000000000000e+00  1.8450826363155060e-05 7.4860970927096056e-04 0.0000000000000000e+00  2.2052280337685762e-05 7.6724504459535633e-04 0.0000000000000000e+00  2.5470890735406310e-05 7.8600052871868366e-04 0.0000000000000000e+00  2.8721347154039620e-05 8.0486835903581836e-04 0.0000000000000000e+00  3.1812062959143486e-05 8.2384692894438912e-04 0.0000000000000000e+00  3.4746209153420883e-05 8.4293574853425482e-04 0.0000000000000000e+00  3.7523307126444929e-05 8.6213195469095458e-04 0.0000000000000000e+00  4.0140965319563683e-05 8.8142834881327619e-04 0.0000000000000000e+00  4.2596436212296810e-05 9.0081275776168832e-04 0.0000000000000000e+00  4.4887823262736695e-05 9.2026831971951054e-04 0.0000000000000000e+00  4.7014903857735376e-05 9.3977429869185271e-04 0.0000000000000000e+00  4.8979599781490200e-05 9.5930715168072794e-04 0.0000000000000000e+00  5.0786135317840752e-05 9.7884168089230417e-04 0.0000000000000000e+00  5.2440906647257128e-05 9.9835215982983653e-04 0.0000000000000000e+00  5.3952067308759404e-05 1.0178133421454836e-03 0.0000000000000000e+00  5.5328827648981545e-05 1.0372012691829884e-03 0.0000000000000000e+00  5.6580480996961570e-05 1.0564937909831775e-03 0.0000000000000000e+00  5.7715207491282401e-05 1.0756706670131822e-03 0.0000000000000000e+00  5.8738763542585684e-05 1.0947130032026289e-03 0.0000000000000000e+00  5.9653232235701542e-05 1.1136017449524750e-03 0.0000000000000000e+00  6.0456033337739360e-05 1.1323151625881292e-03 0.0000000000000000e+00  1.6125928700506731e-05 7.5827027613303019e-04 0.0000000000000000e+00  1.9549382948371553e-05 7.7739461324620169e-04 0.0000000000000000e+00  2.2808280674504237e-05 7.9662729909353526e-04 0.0000000000000000e+00  2.5909248281278073e-05 8.1597522877541325e-04 0.0000000000000000e+00  2.8852186227410328e-05 8.3544426900272306e-04 0.0000000000000000e+00  3.1632759866448495e-05 8.5503530979681860e-04 0.0000000000000000e+00  3.4244856781889847e-05 8.7474236145476702e-04 0.0000000000000000e+00  3.6682615279521944e-05 8.9455237629702540e-04 0.0000000000000000e+00  3.8941869507845199e-05 9.1444613147718512e-04 0.0000000000000000e+00  4.1021057444340685e-05 9.3439959660634704e-04 0.0000000000000000e+00  4.2921701457892258e-05 9.5438546540947060e-04 0.0000000000000000e+00  4.4648546398718673e-05 9.7437470922724623e-04 0.0000000000000000e+00  4.6209392237194233e-05 9.9433807955859950e-04 0.0000000000000000e+