<?xml version="1.0"?>
<VTKFile type="UnstructuredGrid"  version="0.1"  >
<UnstructuredGrid>
<Piece  NumberOfPoints="608" NumberOfCells="1117">
<Points>
<DataArray  type="Float64"  NumberOfComponents="3"  format="ascii">0.08260869565217391 0 0  0.09913043478260869 0 0  0.09913043478260869 0.01666666666666667 0  0.1156521739130435 0 0  0.1156521739130435 0.01666666666666667 0  0.1321739130434783 0 0  0.1321739130434783 0.01666666666666667 0  0.148695652173913 0 0  0.148695652173913 0.01666666666666667 0  0.1652173913043478 0 0  0.1652173913043478 0.01666666666666667 0  0.1817391304347826 0 0  0.1817391304347826 0.01666666666666667 0  0.1982608695652174 0 0  0.1982608695652174 0.01666666666666667 0  0.2147826086956522 0 0  0.2147826086956522 0.01666666666666667 0  0.2313043478260869 0 0  0.2313043478260869 0.01666666666666667 0  0.2478260869565218 0 0  0.2478260869565218 0.01666666666666667 0  0.2643478260869565 0 0  0.2643478260869565 0.01666666666666667 0  0.2808695652173913 0 0  0.2808695652173913 0.01666666666666667 0  0.2973913043478261 0 0  0.2973913043478261 0.01666666666666667 0  0.3139130434782609 0 0  0.3139130434782609 0.01666666666666667 0  0.3304347826086956 0 0  0.3304347826086956 0.01666666666666667 0  0.3469565217391304 0 0  0.3469565217391304 0.01666666666666667 0  0.3634782608695652 0 0  0.3634782608695652 0.01666666666666667 0  0.3799999999999999 0 0  0.3799999999999999 0.01666666666666667 0  0.3965217391304348 0 0  0.3965217391304348 0.01666666666666667 0  0.4130434782608696 0 0  0.4130434782608696 0.01666666666666667 0  0.4295652173913043 0.01666666666666667 0  0.1156521739130435 0.03333333333333333 0  0.1321739130434783 0.03333333333333333 0  0.148695652173913 0.03333333333333333 0  0.1652173913043478 0.03333333333333333 0  0.1817391304347826 0.03333333333333333 0  0.1982608695652174 0.03333333333333333 0  0.2147826086956522 0.03333333333333333 0  0.2313043478260869 0.03333333333333333 0  0.2478260869565218 0.03333333333333333 0  0.2643478260869565 0.03333333333333333 0  0.2808695652173913 0.03333333333333333 0  0.2973913043478261 0.03333333333333333 0  0.3139130434782609 0.03333333333333333 0  0.3304347826086956 0.03333333333333333 0  0.3469565217391304 0.03333333333333333 0  0.3634782608695652 0.03333333333333333 0  0.3799999999999999 0.03333333333333333 0  0.3965217391304348 0.03333333333333333 0  0.4130434782608696 0.03333333333333333 0  0.4295652173913043 0.03333333333333333 0  0.4460869565217391 0.03333333333333333 0  0.1321739130434783 0.05 0  0.148695652173913 0.05 0  0.1652173913043478 0.05 0  0.1817391304347826 0.05 0  0.1982608695652174 0.05 0  0.2147826086956522 0.05 0  0.2313043478260869 0.05 0  0.2478260869565218 0.05 0  0.2643478260869565 0.05 0  0.2808695652173913 0.05 0  0.2973913043478261 0.05 0  0.3139130434782609 0.05 0  0.3304347826086956 0.05 0  0.3469565217391304 0.05 0  0.3634782608695652 0.05 0  0.3799999999999999 0.05 0  0.3965217391304348 0.05 0  0.4130434782608696 0.05 0  0.4295652173913043 0.05 0  0.4460869565217391 0.05 0  0.4626086956521739 0.05 0  0.148695652173913 0.06666666666666667 0  0.1652173913043478 0.06666666666666667 0  0.1817391304347826 0.06666666666666667 0  0.1982608695652174 0.06666666666666667 0  0.2147826086956522 0.06666666666666667 0  0.2313043478260869 0.06666666666666667 0  0.2478260869565218 0.06666666666666667 0  0.2643478260869565 0.06666666666666667 0  0.2808695652173913 0.06666666666666667 0  0.2973913043478261 0.06666666666666667 0  0.3139130434782609 0.06666666666666667 0  0.3304347826086956 0.06666666666666667 0  0.3469565217391304 0.06666666666666667 0  0.3634782608695652 0.06666666666666667 0  0.3799999999999999 0.06666666666666667 0  0.3965217391304348 0.06666666666666667 0  0.4130434782608696 0.06666666666666667 0  0.4295652173913043 0.06666666666666667 0  0.4460869565217391 0.06666666666666667 0  0.4626086956521739 0.06666666666666667 0  0.4791304347826086 0.06666666666666667 0  0.1652173913043478 0.08333333333333333 0  0.1817391304347826 0.08333333333333333 0  0.1982608695652174 0.08333333333333333 0  0.2147826086956522 0.08333333333333333 0  0.2313043478260869 0.08333333333333333 0  0.2478260869565218 0.08333333333333333 0  0.2643478260869565 0.08333333333333333 0  0.2808695652173913 0.08333333333333333 0  0.2973913043478261 0.08333333333333333 0  0.3139130434782609 0.08333333333333333 0  0.3304347826086956 0.08333333333333333 0  0.3469565217391304 0.08333333333333333 0  0.3634782608695652 0.08333333333333333 0  0.3799999999999999 0.08333333333333333 0  0.3965217391304348 0.08333333333333333 0  0.4130434782608696 0.08333333333333333 0  0.4295652173913043 0.08333333333333333 0  0.4460869565217391 0.08333333333333333 0  0.4626086956521739 0.08333333333333333 0  0.4791304347826086 0.08333333333333333 0  0.4956521739130435 0.08333333333333333 0  0.1817391304347826 0.1 0  0.1982608695652174 0.1 0  0.2147826086956522 0.1 0  0.2313043478260869 0.1 0  0.2478260869565218 0.1 0  0.2643478260869565 0.1 0  0.2808695652173913 0.1 0  0.2973913043478261 0.1 0  0.3139130434782609 0.1 0  0.3304347826086956 0.1 0  0.3469565217391304 0.1 0  0.3634782608695652 0.1 0  0.3799999999999999 0.1 0  0.3965217391304348 0.1 0  0.4130434782608696 0.1 0  0.4295652173913043 0.1 0  0.4460869565217391 0.1 0  0.4626086956521739 0.1 0  0.4791304347826086 0.1 0  0.4956521739130435 0.1 0  0.5121739130434783 0.1 0  0.1982608695652174 0.1166666666666667 0  0.2147826086956522 0.1166666666666667 0  0.2313043478260869 0.1166666666666667 0  0.2478260869565218 0.1166666666666667 0  0.2643478260869565 0.1166666666666667 0  0.2808695652173913 0.1166666666666667 0  0.2973913043478261 0.1166666666666667 0  0.3139130434782609 0.1166666666666667 0  0.3304347826086956 0.1166666666666667 0  0.3469565217391304 0.1166666666666667 0  0.3634782608695652 0.1166666666666667 0  0.3799999999999999 0.1166666666666667 0  0.3965217391304348 0.1166666666666667 0  0.4130434782608696 0.1166666666666667 0  0.4295652173913043 0.1166666666666667 0  0.4460869565217391 0.1166666666666667 0  0.4626086956521739 0.1166666666666667 0  0.4791304347826086 0.1166666666666667 0  0.4956521739130435 0.1166666666666667 0  0.5121739130434783 0.1166666666666667 0  0.528695652173913 0.1166666666666667 0  0.2147826086956522 0.1333333333333333 0  0.2313043478260869 0.1333333333333333 0  0.2478260869565218 0.1333333333333333 0  0.2643478260869565 0.1333333333333333 0  0.2808695652173913 0.1333333333333333 0  0.2973913043478261 0.1333333333333333 0  0.3139130434782609 0.1333333333333333 0  0.3304347826086956 0.1333333333333333 0  0.3469565217391304 0.1333333333333333 0  0.3634782608695652 0.1333333333333333 0  0.3799999999999999 0.1333333333333333 0  0.3965217391304348 0.1333333333333333 0  0.4130434782608696 0.1333333333333333 0  0.4295652173913043 0.1333333333333333 0  0.4460869565217391 0.1333333333333333 0  0.4626086956521739 0.1333333333333333 0  0.4791304347826086 0.1333333333333333 0  0.4956521739130435 0.1333333333333333 0  0.5121739130434783 0.1333333333333333 0  0.528695652173913 0.1333333333333333 0  0.5452173913043478 0.1333333333333333 0  0.2313043478260869 0.15 0  0.2478260869565218 0.15 0  0.2643478260869565 0.15 0  0.2808695652173913 0.15 0  0.2973913043478261 0.15 0  0.3139130434782609 0.15 0  0.3304347826086956 0.15 0  0.3469565217391304 0.15 0  0.3634782608695652 0.15 0  0.3799999999999999 0.15 0  0.3965217391304348 0.15 0  0.4130434782608696 0.15 0  0.4295652173913043 0.15 0  0.4460869565217391 0.15 0  0.4626086956521739 0.15 0  0.4791304347826086 0.15 0  0.4956521739130435 0.15 0  0.5121739130434783 0.15 0  0.528695652173913 0.15 0  0.5452173913043478 0.15 0  0.5617391304347825 0.15 0  0.2478260869565218 0.1666666666666667 0  0.2643478260869565 0.1666666666666667 0  0.2808695652173913 0.1666666666666667 0  0.2973913043478261 0.1666666666666667 0  0.3139130434782609 0.1666666666666667 0  0.3304347826086956 0.1666666666666667 0  0.3469565217391304 0.1666666666666667 0  0.3634782608695652 0.1666666666666667 0  0.3799999999999999 0.1666666666666667 0  0.3965217391304348 0.1666666666666667 0  0.4130434782608696 0.1666666666666667 0  0.4295652173913043 0.1666666666666667 0  0.4460869565217391 0.1666666666666667 0  0.4626086956521739 0.1666666666666667 0  0.4791304347826086 0.1666666666666667 0  0.4956521739130435 0.1666666666666667 0  0.5121739130434783 0.1666666666666667 0  0.528695652173913 0.1666666666666667 0  0.5452173913043478 0.1666666666666667 0  0.5617391304347825 0.1666666666666667 0  0.5782608695652174 0.1666666666666667 0  0.2643478260869565 0.1833333333333333 0  0.2808695652173913 0.1833333333333333 0  0.2973913043478261 0.1833333333333333 0  0.3139130434782609 0.1833333333333333 0  0.3304347826086956 0.1833333333333333 0  0.3469565217391304 0.1833333333333333 0  0.3634782608695652 0.1833333333333333 0  0.3799999999999999 0.1833333333333333 0  0.3965217391304348 0.1833333333333333 0  0.4130434782608696 0.1833333333333333 0  0.4295652173913043 0.1833333333333333 0  0.4460869565217391 0.1833333333333333 0  0.4626086956521739 0.1833333333333333 0  0.4791304347826086 0.1833333333333333 0  0.4956521739130435 0.1833333333333333 0  0.5121739130434783 0.1833333333333333 0  0.528695652173913 0.1833333333333333 0  0.5452173913043478 0.1833333333333333 0  0.5617391304347825 0.1833333333333333 0  0.5782608695652174 0.1833333333333333 0  0.2808695652173913 0.2 0  0.2973913043478261 0.2 0  0.3139130434782609 0.2 0  0.3304347826086956 0.2 0  0.3469565217391304 0.2 0  0.3634782608695652 0.2 0  0.3799999999999999 0.2 0  0.3965217391304348 0.2 0  0.4130434782608696 0.2 0  0.4295652173913043 0.2 0  0.4460869565217391 0.2 0  0.4626086956521739 0.2 0  0.4791304347826086 0.2 0  0.4956521739130435 0.2 0  0.5121739130434783 0.2 0  0.528695652173913 0.2 0  0.5452173913043478 0.2 0  0.5617391304347825 0.2 0  0.5782608695652174 0.2 0  0.2973913043478261 0.2166666666666667 0  0.3139130434782609 0.2166666666666667 0  0.3304347826086956 0.2166666666666667 0  0.3469565217391304 0.2166666666666667 0  0.36347826086956
[...]
<CellData  Scalars="rho"> 
<DataArray  type="Float64"  Name="rho"  format="ascii">1.0000000000000000e+00   1.0000000000000000e+00   1.0000000000000000e+00   1.0000000000000000e+00   1.0000000000000000e+00   1.0000000000000000e+00   1.0000000000000000e+00   1.0000000000000000e+00   1.0000000000000000e+00   1.0000000000000000e+00   1.0000000000000000e+00   1.0000000000000000e+00   1.0000000000000000e+00   1.0000000000000000e+00   1.0000000000000000e+00   9.9997344162525670e-01   1.0000000000000000e+00   9.9964440886436334e-01   9.9969500629662411e-01   9.9932702594890821e-01   9.9937137833979062e-01   9.9903465491145660e-01   9.9906925786467349e-01   9.9877957011026031e-01   9.9880135910615420e-01   9.9857203134588346e-01   9.9857861070088705e-01   9.9841994705485171e-01   9.9840964295614654e-01   9.9832911480364206e-01   9.9830088020982977e-01   9.9830380817520592e-01   9.9825707360317617e-01   9.9834740417544143e-01   9.9828196855891616e-01   9.9846277771211989e-01   9.9837881107412896e-01   9.9865222414314703e-01   9.9851383428835994e-01   9.7624523196230872e-01   1.0000000000000000e+00   1.0000000000000000e+00   1.0000000000000000e+00   1.0000000000000000e+00   1.0000000000000000e+00   1.0000000000000000e+00   1.0000000000000000e+00   1.0000000000000000e+00   1.0000000000000000e+00   1.0000000000000000e+00   1.0000000000000000e+00   1.0000000000000000e+00   9.9998447486551301e-01   9.9968916246044448e-01   9.9963877577154381e-01   9.9935304303192862e-01   9.9929456160858987e-01   9.9903325004817678e-01   9.9896491674815713e-01   9.9874292183224800e-01   9.9866312645756472e-01   9.9849390491027634e-01   9.9840140246942632e-01   9.9829599334704133e-01   9.9819002102849397e-01   9.9815677517036772e-01   9.9803706586108043e-01   9.9808204760244557e-01   9.8647742634711033e-01   9.9807652667633096e-01   9.7237123057455777e-01   9.8857707188469679e-01   9.5807057143284879e-01   9.7061504532663612e-01   9.4321703459136952e-01   9.5201767488251787e-01   9.2753499691025842e-01   9.3266938188572535e-01   9.1084961877446236e-01   8.9295728208142555e-01   1.0000000000000000e+00   1.0000000000000000e+00   9.2625341816100915e-01   9.7475618470693093e-01   9.5346065209726827e-01   1.0000000000000000e+00   9.2431146483249693e-01   9.8893386999043498e-01   8.9587826145630878e-01   9.6450137535030456e-01   8.7223840696685961e-01   9.4584439960233357e-01   8.5337356423465593e-01   9.2886038815259420e-01   8.3903739552645229e-01   9.1524563287248917e-01   8.2879071543398797e-01   9.0449024542196832e-01   8.2203793449373885e-01   8.9379992096867278e-01   8.1807047659499121e-01   8.8670717908471319e-01   8.1611232640917719e-01   8.8057238048230579e-01   8.1536345727126736e-01   8.7477516257404730e-01   8.1066716532133121e-01   8.6873912339388193e-01   8.0779998386779739e-01   8.6195918514985037e-01   8.0587954684456298e-01   8.5402300353667926e-01   8.0637320971570614e-01   8.4396910848163853e-01   8.0072015770310156e-01   8.3223477726037942e-01   7.9302531350462435e-01   8.2235644820109488e-01   7.8313405669091007e-01   7.7098657812849791e-01   7.3850668170371103e-01   7.0372690951532246e-01   5.7171469256960938e-01   6.7244239035145215e-01   5.3851838167192179e-01   6.4864452804060646e-01   5.1299910526785808e-01   6.3098334057411110e-01   4.9565288656468193e-01   6.2046313361070271e-01   4.8650812340086541e-01   6.1660070121435973e-01   4.8342452292909788e-01   6.1556619572957516e-01   4.8862873082204306e-01   6.2097766888859884e-01   4.9954892443039695e-01   6.3054358022300816e-01   5.1442374475640085e-01   6.4006724696745976e-01   5.3239249057559279e-01   6.5003535584162764e-01   5.4829403414287192e-01   6.6076159256315925e-01   5.6564818814902407e-01   6.6867456007705062e-01   5.8155636423251500e-01   6.7644628995775236e-01   5.9639480729186856e-01   6.8217259365393867e-01   6.0711699680047793e-01   6.8540710811391492e-01   6.1659650215961870e-01   6.8380337441680239e-01   6.2312400851256211e-01   6.8112001872252326e-01   6.2638160353748629e-01   6.7535406106500828e-01   6.2425776516547160e-01   6.2021548830893336e-01   2.5781476934916397e-01   2.2758716935995016e-01   8.3434846409805460e-02   2.0699223658076463e-01   6.1171452247812071e-02   1.9668281171960533e-01   4.9835080749391199e-02   1.9675572362096216e-01   4.9575874809670489e-02   2.0658956025534442e-01   5.9960268402560059e-02   2.2508844235942876e-01   8.0026021683569745e-02   2.5078253962037994e-01   1.0837561323436064e-01   2.8195692985860188e-01   1.3675487817887369e-01   3.1679198973530520e-01   1.7666676023361566e-01   3.5227281060731253e-01   2.1940997874436535e-01   3.8353657696306792e-01   2.6319422008904075e-01   4.1482519190876871e-01   3.0667269601919778e-01   4.4363024554901986e-01   3.4225333842810179e-01   4.6676718302429876e-01   3.7613077153288993e-01   4.8718130964509837e-01   4.0508378850675170e-01   5.0222211042497722e-01   4.2868231692490966e-01   5.1451169046306466e-01   4.4724461948214617e-01   5.2249655050668375e-01   4.6231964904050404e-01   5.2561558869219982e-01   4.7244728738722142e-01   4.7512814596908304e-01   0.0000000000000000e+00   0.0000000000000000e+00   0.0000000000000000e+00   0.0000000000000000e+00   0.0000000000000000e+00   0.0000000000000000e+00   0.0000000000000000e+00   0.0000000000000000e+00   0.0000000000000000e+00   0.0000000000000000e+00   0.0000000000000000e+00   0.0000000000000000e+00   0.0000000000000000e+00   0.0000000000000000e+00   0.0000000000000000e+00   0.0000000000000000e+00   0.0000000000000000e+00   1.6098512445465254e-02   0.0000000000000000e+00   7.1658061609157928e-02   0.0000000000000000e+00   1.2686166026010523e-01   7.5361166713009860e-03   1.8035579525224124e-01   6.7924000720861896e-02   2.3102615497647247e-01   1.2628024758558484e-01   2.7695131801848738e-01   1.8161774933831451e-01   3.1526488110583667e-01   2.3512024378990795e-01   3.4610605667224359e-01   2.7682989684772696e-01   3.7043197067711309e-01   3.0984107481546025e-01   3.8972329256569987e-01   3.3744733267527466e-01   3.9500416079900746e-01   3.5514091413513366e-01   3.6367608438892673e-01   0.0000000000000000e+00   0.0000000000000000e+00   0.0000000000000000e+00   0.0000000000000000e+00   0.0000000000000000e+00   0.0000000000000000e+00   0.0000000000000000e+00   0.0000000000000000e+00   0.0000000000000000e+00   0.0000000000000000e+00   0.0000000000000000e+00   0.0000000000000000e+00   0.0000000000000000e+00   0.0000000000000000e+00   0.0000000000000000e+00   0.0000000000000000e+00   0.0000000000000000e+00   0.0000000000000000e+00   0.0000000000000000e+00   0.0000000000000000e+00   0.0000000000000000e+00   0.0000000000000000e+00   0.0000000000000000e+00   0.0000000000000000e+00   0.0000000000000000e+00   5.7583739609951008e-02   0.0000000000000000e+00   1.2248807431086128e-01   4.4835082945521493e-02   1.8313020067833549e-01   1.1468502968294879e-01   2.3327463587437189e-01   1.7871253575725574e-01   2.7034909704347587e-01   2.2992287528856983e-01   2.9172669408893337e-01   2.6031171432473088e-01   3.0512676035520664e-01   2.8129886378662383e-01   2.9144590768457396e-01   0.0000000000000000e+00   0.0000000000000000e+00   0.0000000000000000e+00   0.0000000000000000e+00   0.0000000000000000e+00   0.0000000000000000e+00   0.0000000000000000e+00   0.0000000000000000e+00   0.0000000000000000e+00   0.0000000000000000e+00   0.0000000000000000e+00   0.0000000000000000e+00   0.0000000000000000e+00   0.0000000000000000e+00   0.0000000000000000e+00   0.0000000000000000e+00   0.0000000000000000e+00   0.0000000000000000e+00   0.0000000000000000e+00   0.0000000000000000e+00   0.0000000000000000e+00   0.0000000000000000e+00   0.0000000000000000e+00   0.0000000000000000e+00   0.0000000000000000e+00   0.0000000000000000e+00   0.0000000000000000e+00   5.0920592547826840e-02   9.6402894267521970e-04   1.3985597874867611e-01   9.0094162316169901e-02   1.8874824246756100e-01   1.4974541069391883e-01   2.2693037775721805e-01   1.9785780226709213e-01   2.7849839599453657e-01   2.5711691185839325e-01   3.6280948410688008e-01   3.5137231351291276e-01   3.7430385295090857e-01   0.0000000000000000e+00   0.0000000000000000e+00   0.0000000000000000e+00   0.0000000000000000e+00   0.0000000000000000e+00   0.0000000000000000e+00   0.0000000000000000e+00   0.0000000000000000e+00   0.0000000000000000e+00   0.0000000000000000e+00   0.0000000000000000e+00   0.0000000000000000e+00   0.0000000000000000e+00   0.0000000000000000e+00   0.0000000000000000e+00   0.0000000000000000e+00   0.0000000000000000e+00   0.0000000000000000e+00   0.0000000000000000e+00   0.0000000000000000e+00   0.0000000000000000e+00   0.0000000000000000e+00   0.0000000000000000e+00   5.4549705404383976e-04   3.8244330049914038e-04   1.8003191358442186e-03   1.4897930786798158e-03   1.0685956161555360e-01   6.6449858883662158e-02   1.6424757162410386e-01   1.3280799499517851e-01   2.0994929826782929e-01   1.8484666267932603e-01   3.1400899370208923e-01   2.8888596667797056e-01   3.6117953216481963e-01   3.4739082068903265e-01   3.8840956342820671e-01   3.8501268122668109e-01   4.0376582682876339e-01   0.0000000000000000e+00   0.0000000000000000e+00   0.0000000000000000e+00   0.0000000000000000e+00   0.0000000000000000e+00   0.0000000000000000e+00   0.0000000000000000e+00   0.0000000000000000e+00   0.0000000000000000e+00   0.0000000000000000e+00   0.0000000000000000e+00   0.0000000000000000e+00   0.0000000000000000e+00   0.0000000000000000e+00   0.0000000000000000e+00   0.0000000000000000e+00   0.0000000000000000e+00   0.0000000000000000e+00   0.0000000000000000e+00   1.1145301486924367e-04   1.0108777517651320e-05   9.4862343569128828e-04   7.3259804365467427e-04   2.1771920813884972e-03   1.8014454412602727e-03   6.0349413597078183e-02   2.2947513612287161e-02   1.2983044039316549e-01   1.1448916189061707e-01   1.8749244271573470e-01   1.7824604802237351e-01   3.0013632176568406e-01   2.8571910515385579e-01   3.6198307346933922e-01   3.5629607751770714e-01   4.0437126210045771e-01   4.0983592433686167e-01   4.2577410840843943e-01   4.5427619478667058e-01   4.6564105500718111e-01   0.0000000000000000e+00   0.0000000000000000e+00   0.0000000000000000e+00   0.0000000000000000e+00   0.0000000000000000e+00   0.0000000000000000e+00   0.0000000000000000e+00   0.0000000000000000e+00   0.0000000000000000e+00   0.0000000000000000e+00   0.0000000000000000e+00   0.0000000000000000e+00   0.0000000000000000e+00   0.0000000000000000e+00   0.0000000000000000e+00   0.0000000000000000e+00   0.0000000000000000e+00   3.7966387872004961e-04   2.4366600907725075e-04   1.1706178940666706e-03   9.1983971511833021e-04   2.3271433153108541e-03   1.9141889693525297e-03   4.4817606790689614e-02   1.0867991484276456e-02   1.2562431894564685e-01   9.3819188610944917e-02   2.1619985109793291e-01   1.7547611937772281e-01   3.0449955527298922e-01   2.7241246174237727e-01   3.9064702331497464e-01   3.6560665947430554e-01   4.5102549022391192e-01   4.3735828097780821e-01   4.8820620880992788e-01   4.8688386043618476e-01   5.0296133812644839e-01   5.1393680768307104e-01   0.0000000000000000e+00   0.0000000000000000e+00   0.0000000000000000e+00   0.0000000000000000e+00   0.0000000000000000e+00   0.0000000000000000e+00   0.0000000000000000e+00   0.0000000000000000e+00   0.0000000000000000e+00   0.0000000000000000e+00   0.0000000000000000e+00   0.0000000000000000e+00   0.0000000000000000e+00   3.0210615264700147e-05   0.0000000000000000e+00   5.1821229532781113e-04   3.6243750941318927e-04   1.2422476028214288e-03   9.7725249201084143e-04   2.2934769559748297e-03   1.8736325789569140e-03   2.8781980201561013e-02   3.1495531437158290e-03   1.1358666846465003e-01   7.6246056180671387e-02   2.0403023834588810e-01   1.6317976309647966e-01   2.9041580818039958e-01   2.4845067027108339e-01   3.7990792476510010e-01   3.4332847352418855e-01   4.5041236533729728e-01   4.2290080214599990e-01   5.0011968747561497e-01   4.8305126465790893e-01   5.2920336789984612e-01   5.2311808462471987e-01   0.0000000000000000e+00   0.0000000000000000e+00   0.0000000000000000e+00   0.0000000000000000e+00   0.0000000000000000e+00   0.0000000000000000e+00   0.0000000000000000e+00   0.0000000000000000e+00   0.0000000000000000e+00   0.0000000000000000e+00   0.0000000000000000e+00   1.1833243706837198e-04   2.3924031865266146e-05   5.5874715449448378e-04   3.9577670467029312e-04   1.2054202676017244e-03   9.4316238430666136e-04   2.1357294406754521e-03   1.7334075487165288e-03   8.9422196324740206e-03   2.8483409319256508e-03   9.3739234480927025e-02   5.9851626205126275e-02   1.8099412779281923e-01   1.4593510785464001e-01   2.6542245414542281e-01   2.3052073206327101e-01   3.4893693110334784e-01   3.1532125556975088e-01   4.2751590567410502e-01   3.9119637400380186e-01   4.8714785211895245e-01   4.5943886622821833e-01   5.2865930614429113e-01   5.1016712620365023e-01   0.0000000000000000e+00   0.0000000000000000e+00   0.0000000000000000e+00   0.0000000000000000e+00   0.0000000000000000e+00   0.0000000000000000e+00   0.0000000000000000e+00   0.0000000000000000e+00   0.0000000000000000e+00   0.0000000000000000e+00   1.3937537308795540e-04   3.8406375984607914e-05   5.3098999776541895e-04   3.6917917307252183e-04   1.1002882461857693e-03   8.5144475543939672e-04   1.9115377946312625e-03   1.5413063633519537e-03   3.0397158355827867e-03   2.5061927911055049e-03   7.6194485761079692e-02   4.0124720920919447e-02   1.6250967719728518e-01   1.2681753460714210e-01   2.4492444496155763e-01   2.0983118493897251e-01   3.2614259093495968e-01   2.9274707563221580e-01   3.9932666761663954e-01   3.6811223483135525e-01   4.5885210407661642e-01   4.2263764967564227e-01   4.9545765466456093e-01   4.7498261174676626e-01   0.0000000000000000e+00   0.0000000000000000e+00   0.0000000000000000e+00   0.0000000000000000e+00   0.0000000000000000e+00   0.0000000000000000e+00   0.0000000000000000e+00   0.0000000000000000e+00   0.0000000000000000e+00   0.0000000000000000e+00   1.1109131857348679e-04   7.0852003284218265e-06   4.5777757577905381e-04   3.0081794374870835e-04   9.5794479622449819e-04   7.2638494486352699e-04   1.6654535410105867e-03   1.3314417469138284e-03   2.6427376709911281e-03   2.1729941202240249e-03   5.8334910988834532e-02   2.3333661774345413e-02   1.4286532540197266e-01   1.0818263746360982e-01   2.2392344384721038e-01   1.9112356127210720e-01   2.9242579357502568e-01   2.6906335779245716e-01   3.6321522294743835e-01   3.3424950162253286e-01   4.2574634257938410e-01   3.9823300845931259e-01   4.7651845342356269e-01   4.5358626881815695e-01   4.9763758673700881e-01   0.0000000000000000e+00   0.0000000000000000e+00   0.0000000000000000e+00   0.0000000000000000e+00   0.0000000000000000e+00   0.0000000000000000e+00   0.0000000000000000e+00   0.0000000000000000e+00   0.0000000000000000e+00   4.4006069018919511e-05   0.0000000000000000e+00   3.5275283645854925e-04   2.0009858422838898e-04   7.9687086506559314e-04   5.8047441574576603e-04   1.4234839831671984e-03   1.1209513846160287e-03   2.2876170330053277e-03   1.8728861120613680e-03   4.2872092061147039e-02   9.2455312188795304e-03   1.2592544372406908e-01   9.2914304535669456e-02   2.0500908637365076e-01   1.7448769412970827e-01   2.8247389617239826e-01   2.5173022993721128e-01   3.4087700393072429e-01   3.1485988094371481e-01   4.0345701250946631e-01   3.7747752745647428e-01   4.5513295072340176e-01   4.3230876302032140e-01   4.9625615298994208e-01   4.7655941312784778e-01   5.1101776755827111e-01   0.0000000000000000e+00   0.0000000000000000e+00   0.0000000000000000e+00   0.0000000000000000e+00   0.0000000000000000e+00   0.0000000000000000e+00   0.0000000000000000e+00   0.0000000000000000e+00   0.0000000000000000e+00   2.1968712013212323e-04   6.7407243541672425e-05   6.2200858312426173e-04   4.1416053147868870e-04   1.1919628181955471e-03   9.0992252284668096e-04   1.9822602413006843e-03   1.6047353092171798e-03   3.0556817444244613e-02   2.5553920304475799e-03   1.1284961622892506e-01   8.3154567439174557e-02   1.9065022479119983e-01   1.6167747193787266e-01   2.6663527966821537e-01   2.3752664743418003e-01   3.3497088039550799e-01   3.0733449212584285e-01   3.9562049553389261e-01   3.7052648321628068e-01   4.3432011066421783e-01   4.2232926037332019e-01   4.7320592777928205e-01   4.6344153550438577e-01   5.0230659884060835e-01   4.8400257811615061e-01   5.0812957773318712e-01   0.0000000000000000e+00   0.0000000000000000e+00   0.0000000000000000e+00   0.0000000000000000e+00   0.0000000000000000e+00   0.0000000000000000e+00   0.0000000000000000e+00   5.2838163529475597e-05   0.0000000000000000e+00   4.2559679115931350e-04   2.1687231479717089e-04   9.5934330144763116e-04   6.8343268475363019e-04   1.7083388651786746e-03   1.3459923229840846e-03   2.2417728818291332e-02   2.2659516768405532e-03   1.0337297355719738e-01   7.2522928435159964e-02   1.7993671618781551e-01   1.5072253026580643e-01   2.5302484980134921e-01   2.2351664045475042e-01   3.1903628336766132e-01   2.9204843663614138e-01   3.7504131867836976e-01   3.5043158067789038e-01   4.1877000896746108e-01   3.9514995943269487e-01   4.5266660307203821e-01   4.3026479532111478e-01   4.7658108021688911e-01   4.5566358387554401e-01   4.9582043241426615e-01   4.7430207045572575e-01   4.8918195139170095e-01   0.0000000000000000e+00   0.0000000000000000e+00   0.0000000000000000e+00   0.0000000000000000e+00   0.0000000000000000e+00   0.0000000000000000e+00   0.0000000000000000e+00   1.8919529259633339e-04   0.0000000000000000e+00   6.9989259862784817e-04   4.1503539698104657e-04   1.4278135596727814e-03   1.0587870696262939e-03   2.1151917625984621e-02   1.9671680503343708e-03   9.6727662943230361e-02   6.6040267314313769e-02   1.7096027004219247e-01   1.4105444852240281e-01   2.3494930378685441e-01   2.0880713888186994e-01   2.9769619744243414e-01   2.7461933901532631e-01   3.4802141399179565e-01   3.3007592887668025e-01   3.8651883188861946e-01   3.6743569732554648e-01   4.1192240658408835e-01   3.9365418100416105e-01   4.2792580993835533e-01   4.0665802781420501e-01   4.3891149349465119e-01   4.1534214258896246e-01   4.5139134830932848e-01   4.2252253147333979e-01   4.3227196261525974e-01   0.0000000000000000e+00   0.0000000000000000e+00   0.0000000000000000e+00   0.0000000000000000e+00   0.0000000000000000e+00   0.0000000000000000e+00   0.0000000000000000e+00   3.7885683496029682e-04   7.1563334269360746e-05   1.0916284936506760e-03   6.9788319265294161e-04   1.1705470565268224e-02   1.5942980254240343e-03   8.1711353292959490e-02   5.5165293495701068e-02   1.5219065463196299e-01   1.2529759943821778e-01   2.1520839113204412e-01   1.8855320075489607e-01   2.7432575853661201e-01   2.4902704944520052e-01   3.2393220515832361e-01   2.9707821291588832e-01   3.5376973319721589e-01   3.2777790511343691e-01   3.6856722818339188e-01   3.4417937130773657e-01   3.7308898517789718e-01   3.4864522194032554e-01   3.7135678721342302e-01   3.4650462549178263e-01   3.7347798446474473e-01   3.4262451633852453e-01   3.8141984194445511e-01   3.4599501477613143e-01   3.5769702989274832e-01   0.0000000000000000e+00   0.0000000000000000e+00   0.0000000000000000e+00   0.0000000000000000e+00   0.0000000000000000e+00   0.0000000000000000e+00   0.0000000000000000e+00   6.5041364116125426e-04   2.2060724865607758e-04   2.0852088508084023e-03   1.0898632127596735e-03   6.8845151125030021e-02   5.0848077717196141e-02   1.2538483756858751e-01   1.0841975055503347e-01   1.8683086375022445e-01   1.5718998768288042e-01   2.4012796641985659e-01   2.1892360466688879e-01   2.7554783988421094e-01   2.5804821177403553e-01   2.9497954188802644e-01   2.7963151064570091e-01   2.9842181962448028e-01   2.8418896997919624e-01   2.9292320762898638e-01   2.7813569999732302e-01   2.8156903476254519e-01   2.6600843301344007e-01   2.7571901099004620e-01   2.5369010909402268e-01   2.7785518970794143e-01   2.5279388141078940e-01   2.9102520168776858e-01   2.6092091888573860e-01   2.7864058834919603e-01   0.0000000000000000