<?xml version="1.0"?>
<VTKFile type="UnstructuredGrid"  version="0.1"  >
<UnstructuredGrid>
<Piece  NumberOfPoints="621" NumberOfCells="1125">
<Points>
<DataArray  type="Float64"  NumberOfComponents="3"  format="ascii">1.883478260869565 0 0  1.9 0 0  1.9 0.01666666666666667 0  1.883478260869565 0.01666666666666667 0  1.916521739130435 0 0  1.916521739130435 0.01666666666666667 0  1.933043478260869 0 0  1.933043478260869 0.01666666666666667 0  1.949565217391304 0 0  1.949565217391304 0.01666666666666667 0  1.966086956521739 0 0  1.966086956521739 0.01666666666666667 0  1.982608695652174 0 0  1.982608695652174 0.01666666666666667 0  1.999130434782608 0 0  1.999130434782608 0.01666666666666667 0  2.015652173913043 0 0  2.015652173913043 0.01666666666666667 0  2.032173913043478 0 0  2.032173913043478 0.01666666666666667 0  2.048695652173913 0 0  2.048695652173913 0.01666666666666667 0  2.065217391304348 0 0  2.065217391304348 0.01666666666666667 0  2.081739130434782 0 0  2.081739130434782 0.01666666666666667 0  2.098260869565217 0 0  2.098260869565217 0.01666666666666667 0  2.114782608695652 0 0  2.114782608695652 0.01666666666666667 0  2.131304347826087 0 0  2.131304347826087 0.01666666666666667 0  2.147826086956522 0 0  2.147826086956522 0.01666666666666667 0  2.164347826086956 0 0  2.164347826086956 0.01666666666666667 0  2.180869565217391 0 0  2.180869565217391 0.01666666666666667 0  2.197391304347826 0 0  2.197391304347826 0.01666666666666667 0  2.213913043478261 0 0  2.213913043478261 0.01666666666666667 0  2.230434782608695 0 0  2.230434782608695 0.01666666666666667 0  2.24695652173913 0 0  2.24695652173913 0.01666666666666667 0  2.263478260869565 0 0  2.263478260869565 0.01666666666666667 0  2.28 0 0  2.28 0.01666666666666667 0  2.296521739130434 0 0  2.296521739130434 0.01666666666666667 0  2.31304347826087 0 0  2.31304347826087 0.01666666666666667 0  2.329565217391304 0 0  2.329565217391304 0.01666666666666667 0  2.346086956521739 0 0  2.346086956521739 0.01666666666666667 0  2.362608695652174 0 0  2.362608695652174 0.01666666666666667 0  2.379130434782609 0 0  2.379130434782609 0.01666666666666667 0  2.395652173913044 0 0  2.395652173913044 0.01666666666666667 0  2.412173913043478 0 0  2.412173913043478 0.01666666666666667 0  2.428695652173913 0 0  2.428695652173913 0.01666666666666667 0  2.445217391304348 0 0  2.445217391304348 0.01666666666666667 0  2.461739130434782 0 0  2.461739130434782 0.01666666666666667 0  2.478260869565217 0 0  2.478260869565217 0.01666666666666667 0  2.494782608695652 0 0  2.494782608695652 0.01666666666666667 0  2.511304347826087 0 0  2.511304347826087 0.01666666666666667 0  2.527826086956522 0 0  2.527826086956522 0.01666666666666667 0  2.544347826086956 0 0  2.544347826086956 0.01666666666666667 0  2.560869565217391 0 0  2.560869565217391 0.01666666666666667 0  2.577391304347826 0 0  2.577391304347826 0.01666666666666667 0  1.916521739130435 0.03333333333333333 0  1.933043478260869 0.03333333333333333 0  1.949565217391304 0.03333333333333333 0  1.966086956521739 0.03333333333333333 0  1.982608695652174 0.03333333333333333 0  1.999130434782608 0.03333333333333333 0  2.015652173913043 0.03333333333333333 0  2.032173913043478 0.03333333333333333 0  2.048695652173913 0.03333333333333333 0  2.065217391304348 0.03333333333333333 0  2.081739130434782 0.03333333333333333 0  2.098260869565217 0.03333333333333333 0  2.114782608695652 0.03333333333333333 0  2.131304347826087 0.03333333333333333 0  2.147826086956522 0.03333333333333333 0  2.164347826086956 0.03333333333333333 0  2.180869565217391 0.03333333333333333 0  2.197391304347826 0.03333333333333333 0  2.213913043478261 0.03333333333333333 0  2.230434782608695 0.03333333333333333 0  2.24695652173913 0.03333333333333333 0  2.263478260869565 0.03333333333333333 0  2.28 0.03333333333333333 0  2.296521739130434 0.03333333333333333 0  2.31304347826087 0.03333333333333333 0  2.329565217391304 0.03333333333333333 0  2.346086956521739 0.03333333333333333 0  2.362608695652174 0.03333333333333333 0  2.379130434782609 0.03333333333333333 0  2.395652173913044 0.03333333333333333 0  2.412173913043478 0.03333333333333333 0  2.428695652173913 0.03333333333333333 0  2.445217391304348 0.03333333333333333 0  2.461739130434782 0.03333333333333333 0  2.478260869565217 0.03333333333333333 0  2.494782608695652 0.03333333333333333 0  2.511304347826087 0.03333333333333333 0  2.527826086956522 0.03333333333333333 0  2.544347826086956 0.03333333333333333 0  2.560869565217391 0.03333333333333333 0  2.577391304347826 0.03333333333333333 0  2.593913043478261 0.03333333333333333 0  1.933043478260869 0.05 0  1.949565217391304 0.05 0  1.966086956521739 0.05 0  1.982608695652174 0.05 0  1.999130434782608 0.05 0  2.015652173913043 0.05 0  2.032173913043478 0.05 0  2.048695652173913 0.05 0  2.065217391304348 0.05 0  2.081739130434782 0.05 0  2.098260869565217 0.05 0  2.114782608695652 0.05 0  2.131304347826087 0.05 0  2.147826086956522 0.05 0  2.164347826086956 0.05 0  2.180869565217391 0.05 0  2.197391304347826 0.05 0  2.213913043478261 0.05 0  2.230434782608695 0.05 0  2.24695652173913 0.05 0  2.263478260869565 0.05 0  2.28 0.05 0  2.296521739130434 0.05 0  2.31304347826087 0.05 0  2.329565217391304 0.05 0  2.346086956521739 0.05 0  2.362608695652174 0.05 0  2.379130434782609 0.05 0  2.395652173913044 0.05 0  2.412173913043478 0.05 0  2.428695652173913 0.05 0  2.445217391304348 0.05 0  2.461739130434782 0.05 0  2.478260869565217 0.05 0  2.494782608695652 0.05 0  2.511304347826087 0.05 0  2.527826086956522 0.05 0  2.544347826086956 0.05 0  2.560869565217391 0.05 0  2.577391304347826 0.05 0  2.593913043478261 0.05 0  2.610434782608696 0.05 0  1.949565217391304 0.06666666666666667 0  1.966086956521739 0.06666666666666667 0  1.982608695652174 0.06666666666666667 0  1.999130434782608 0.06666666666666667 0  2.015652173913043 0.06666666666666667 0  2.032173913043478 0.06666666666666667 0  2.048695652173913 0.06666666666666667 0  2.065217391304348 0.06666666666666667 0  2.081739130434782 0.06666666666666667 0  2.098260869565217 0.06666666666666667 0  2.114782608695652 0.06666666666666667 0  2.131304347826087 0.06666666666666667 0  2.147826086956522 0.06666666666666667 0  2.164347826086956 0.06666666666666667 0  2.180869565217391 0.06666666666666667 0  2.197391304347826 0.06666666666666667 0  2.213913043478261 0.06666666666666667 0  2.230434782608695 0.06666666666666667 0  2.24695652173913 0.06666666666666667 0  2.263478260869565 0.06666666666666667 0  2.28 0.06666666666666667 0  2.296521739130434 0.06666666666666667 0  2.31304347826087 0.06666666666666667 0  2.329565217391304 0.06666666666666667 0  2.346086956521739 0.06666666666666667 0  2.362608695652174 0.06666666666666667 0  2.379130434782609 0.06666666666666667 0  2.395652173913044 0.06666666666666667 0  2.412173913043478 0.06666666666666667 0  2.428695652173913 0.06666666666666667 0  2.445217391304348 0.06666666666666667 0  2.461739130434782 0.06666666666666667 0  2.478260869565217 0.06666666666666667 0  2.494782608695652 0.06666666666666667 0  2.511304347826087 0.06666666666666667 0  2.527826086956522 0.06666666666666667 0  2.544347826086956 0.06666666666666667 0  2.560869565217391 0.06666666666666667 0  2.577391304347826 0.06666666666666667 0  2.593913043478261 0.06666666666666667 0  2.610434782608696 0.06666666666666667 0  2.62695652173913 0.06666666666666667 0  1.966086956521739 0.08333333333333333 0  1.982608695652174 0.08333333333333333 0  1.999130434782608 0.08333333333333333 0  2.015652173913043 0.08333333333333333 0  2.032173913043478 0.08333333333333333 0  2.048695652173913 0.08333333333333333 0  2.065217391304348 0.08333333333333333 0  2.081739130434782 0.08333333333333333 0  2.098260869565217 0.08333333333333333 0  2.114782608695652 0.08333333333333333 0  2.131304347826087 0.08333333333333333 0  2.147826086956522 0.08333333333333333 0  2.164347826086956 0.08333333333333333 0  2.180869565217391 0.08333333333333333 0  2.197391304347826 0.08333333333333333 0  2.213913043478261 0.08333333333333333 0  2.230434782608695 0.08333333333333333 0  2.24695652173913 0.08333333333333333 0  2.263478260869565 0.08333333333333333 0  2.28 0.08333333333333333 0  2.296521739130434 0.08333333333333333 0  2.31304347826087 0.08333333333333333 0  2.329565217391304 0.08333333333333333 0  2.346086956521739 0.08333333333333333 0  2.362608695652174 0.08333333333333333 0  2.379130434782609 0.08333333333333333 0  2.395652173913044 0.08333333333333333 0  2.412173913043478 0.08333333333333333 0  2.428695652173913 0.08333333333333333 0  2.445217391304348 0.08333333333333333 0  2.461739130434782 0.08333333333333333 0  2.478260869565217 0.08333333333333333 0  2.494782608695652 0.08333333333333333 0  2.511304347826087 0.08333333333333333 0  2.527826086956522 0.08333333333333333 0  2.544347826086956 0.08333333333333333 0  2.560869565217391 0.08333333333333333 0  2.577391304347826 0.08333333333333333 0  2.593913043478261 0.08333333333333333 0  2.610434782608696 0.08333333333333333 0  2.62695652173913 0.08333333333333333 0  2.643478260869565 0.08333333333333333 0  1.982608695652174 0.1 0  1.999130434782608 0.1 0  2.015652173913043 0.1 0  2.032173913043478 0.1 0  2.048695652173913 0.1 0  2.065217391304348 0.1 0  2.081739130434782 0.1 0  2.098260869565217 0.1 0  2.114782608695652 0.1 0  2.131304347826087 0.1 0  2.147826086956522 0.1 0  2.164347826086956 0.1 0  2.180869565217391 0.1 0  2.197391304347826 0.1 0  2.213913043478261 0.1 0  2.230434782608695 0.1 0  2.24695652173913 0.1 0  2.263478260869565 0.1 0  2.28 0.1 0  2.296521739130434 0.1 0  2.31304347826087 0.1 0  2.329565217391304 0.1 0  2.346086956521739 0.1 0  2.362608695652174 0.1 0  2.379130434782609 0.1 0  2.395652173913044 0.1 0  2.412173913043478 0.1 0  2.428695652173913 0.1 0  2.445217391304348 0.1 0  2.461739130434782 0.1 0  2.478260869565217 0.1 0  2.494782608695652 0.1 0  2.511304347826087 0.1 0  2.527826086956522 0.1 0  2.544347826086956 0.1 0  2.560869565217391 0.1 0  2.5773
[...]
<CellData  Scalars="rho_bar"> 
<DataArray  type="Float64"  Name="rho_bar"  format="ascii">4.8078436625135562e-01   4.7855054010756687e-01   4.7873281951101104e-01   4.7652343744915354e-01   4.7666706432543959e-01   4.7448148597177153e-01   4.7459380016402081e-01   4.7243109210257517e-01   4.7251918561790063e-01   4.7037833984217842e-01   4.7044883386357006e-01   4.6832855769478893e-01   4.6838835297155279e-01   4.6628707166762329e-01   4.6634252799198950e-01   4.6425866561050300e-01   4.6431518446981768e-01   4.6224728863932180e-01   4.6230867050441005e-01   4.6025544062900509e-01   4.6032420606651703e-01   4.5828450159749506e-01   4.5836207605917850e-01   4.5633459754687794e-01   4.5642367617934382e-01   4.5440627592442845e-01   4.5451356232809653e-01   4.5250244654842808e-01   4.5263943307792393e-01   4.5063009935355347e-01   4.5080681233296921e-01   4.4879629730511217e-01   4.4901633189579776e-01   4.4700368337041035e-01   4.4726338590463977e-01   4.4524924621040957e-01   4.4553982939681874e-01   4.4352593093027376e-01   4.4383501184719376e-01   4.4182378067814981e-01   4.4213745568192653e-01   4.4013167377986490e-01   4.4043530635295725e-01   4.3843797725367906e-01   4.3871747845567988e-01   4.3673154070243492e-01   4.3697488613546315e-01   4.3500242916678789e-01   4.3520453419000321e-01   4.3324518050079147e-01   4.3341123674032161e-01   4.3146207552072674e-01   4.3160160107814627e-01   4.2966070180796639e-01   4.2977542502103994e-01   4.2784422769190417e-01   4.2792546782775914e-01   4.2600758767363300e-01   4.2604045656547884e-01   4.2414037181144137e-01   4.2410835248737594e-01   4.2223071410513563e-01   4.2211761117330537e-01   4.2026695322727681e-01   4.2005842262510534e-01   4.1823900567205863e-01   4.1792262007941000e-01   4.1613849036363249e-01   4.1570356640201644e-01   4.1395886727800768e-01   4.1339453018314620e-01   4.1169399144658159e-01   4.1098801043978450e-01   4.0933704163903734e-01   4.0847579227506420e-01   4.0687985855587211e-01   4.0585177611993417e-01   4.0431501428220951e-01   4.0311602332441937e-01   4.0163928010636302e-01   4.0028143977049785e-01   3.9885993718843760e-01   3.9737410167955239e-01   3.9599867550851897e-01   4.6464802392023563e-01   4.6268230666273769e-01   4.5506150754504227e-01   4.6071487774327402e-01   4.5315506202871797e-01   4.5874997932159239e-01   4.5125272003696326e-01   4.5679180434269018e-01   4.4935766310772085e-01   4.5484421823812959e-01   4.4747290876110674e-01   4.5291075620758486e-01   4.4560135623746083e-01   4.5099366495676352e-01   4.4374484033447292e-01   4.4909404109167728e-01   4.4190408181589214e-01   4.4721152011948800e-01   4.4007828233653951e-01   4.4534518341110657e-01   4.3826587402352613e-01   4.4349469085669641e-01   4.3646521121074189e-01   4.4166379796670407e-01   4.3467764871948222e-01   4.3986074642222495e-01   4.3290983934102556e-01   4.3809217904471137e-01   4.3117031144414436e-01   4.3635859334108279e-01   4.2946202376161402e-01   4.3465555840047726e-01   4.2778204447937052e-01   4.3297491955238865e-01   4.2612325009583146e-01   4.3130673687584248e-01   4.2447641394502633e-01   4.2964036113834575e-01   4.2283137579516855e-01   4.2796550569304670e-01   4.2117847682612347e-01   4.2627223298371925e-01   4.1950842159857255e-01   4.2455228268914591e-01   4.1781301194857345e-01   4.2280225143084765e-01   4.1608689596355480e-01   4.2102812715482207e-01   4.1433284306012474e-01   4.1923851452414002e-01   4.1256038755439728e-01   4.1743397358087381e-01   4.1077454343403341e-01   4.1560692451868592e-01   4.0896998845419336e-01   4.1374674420627089e-01   4.0713675623777867e-01   4.1184234249371066e-01   4.0526413708467268e-01   4.0988377699873851e-01   4.0334258623244684e-01   4.0786275677248818e-01   4.0136406969289712e-01   4.0577354983945846e-01   3.9932321682342437e-01   4.0361195453832688e-01   3.9721684535205243e-01   4.0137356889783127e-01   3.9504239602649066e-01   3.9905154782430047e-01   3.9279485490251692e-01   3.9663713110870158e-01   3.9046609643046792e-01   3.9412197259080084e-01   3.8804638889105519e-01   3.9150294244931833e-01   3.8552881622672586e-01   3.8878935218467803e-01   3.8291557216206967e-01   3.8600709329585270e-01   3.8022579177131388e-01   3.7748993918338336e-01   4.3357195962256156e-01   4.3182589551774248e-01   4.1987420794082198e-01   4.3009177065043974e-01   4.1823539021542172e-01   4.2837017693113555e-01   4.1661217307230775e-01   4.2666214594083646e-01   4.1500417595142569e-01   4.2496800385895261e-01   4.1341070791662765e-01   4.2328721894387755e-01   4.1183036695355557e-01   4.2161771920089741e-01   4.1026024394021005e-01   4.1995645206893795e-01   4.0869639147933701e-01   4.1829974058317254e-01   4.0713408507209309e-01   4.1664488613051548e-01   4.0556924634490010e-01   4.1499292153474338e-01   4.0400016332637323e-01   4.1335150646813046e-01   4.0243127660184697e-01   4.1172831368330332e-01   4.0087097582807463e-01   4.1012447035217447e-01   3.9932321646906360e-01   4.0853533102641582e-01   3.9778495424109367e-01   4.0695344423247665e-01   3.9624971807413428e-01   4.0536983532603738e-01   3.9470927852241994e-01   4.0377619462169767e-01   3.9315579750293939e-01   4.0216527620889131e-01   3.9158288719188988e-01   4.0053094360712826e-01   3.8998582888643202e-01   3.9886781720493869e-01   3.8836065931434011e-01   3.9717350014265945e-01   3.8670488997905184e-01   3.9545296130515101e-01   3.8502027366760916e-01   3.9371593839989222e-01   3.8331519747909637e-01   3.9196393447970052e-01   3.8159495641400898e-01   3.9018981326901503e-01   3.7985479090642998e-01   3.8838440272537095e-01   3.7808610381111685e-01   3.8653963355300669e-01   3.7628170343143402e-01   3.8464849672014434e-01   3.7443567242356202e-01   3.8270630756252605e-01   3.7254394970687577e-01   3.8071201071484723e-01   3.7060590395844223e-01   3.7866766765714560e-01   3.6862535263774748e-01   3.7657410368829336e-01   3.6660671286214513e-01   3.7442682305283304e-01   3.6454948033677148e-01   3.7221557845832776e-01   3.6244521007148245e-01   3.6992876346731240e-01   3.6028115207183781e-01   3.6755712556733783e-01   3.5804475733684910e-01   3.6510188785611497e-01   3.5572960020341277e-01   3.6258352031002089e-01   3.5334536375909037e-01   3.6003226284032769e-01   3.5091903968551785e-01   3.4847659056760077e-01   3.9155062188056244e-01   3.9014392646157386e-01   3.7542901124677863e-01   3.8875988642072651e-01   3.7416594026494593e-01   3.8739517676706320e-01   3.7292655672301606e-01   3.8604614577004770e-01   3.7170599054758530e-01   3.8470778328255695e-01   3.7049800535464888e-01   3.8337391025645950e-01   3.6929519667678501e-01   3.8203738991028674e-01   3.6808903934989712e-01   3.8069144948975814e-01   3.6687124690328876e-01   3.7933057180492924e-01   3.6563465868845507e-01   3.7795285044119781e-01   3.6437494550601118e-01   3.7656215391230830e-01   3.6309237770835717e-01   3.7516478975273199e-01   3.6179195724937135e-01   3.7376205951183455e-01   3.6047662042264150e-01   3.7234990509636534e-01   3.5914383050216686e-01   3.7092180971252720e-01   3.5778788459969912e-01   3.6947109009483992e-01   3.5640282943160945e-01   3.6799264560412831e-01   3.5498397128040271e-01   3.6648434922065709e-01   3.5352999115354566e-01   3.6494603373327800e-01   3.5204244677624402e-01   3.6337853745326371e-01   3.5052454523793330e-01   3.6178287716014301e-01   3.4897920946298272e-01   3.6016214032382127e-01   3.4740888609223980e-01   3.5852095177617621e-01   3.4581612273520662e-01   3.5685883312772687e-01   3.4420112188009766e-01   3.5516967102846497e-01   3.4255826852868027e-01   3.5344855253226398e-01   3.4088275573983351e-01   3.5169287648423780e-01   3.3917367547301014e-01   3.4990036191031709e-01   3.3743117610807288e-01   3.4807030212198409e-01   3.3565523787793927e-01   3.4620877401860850e-01   3.3385123201650108e-01   3.4432804350232643e-01   3.3203324080022434e-01   3.4243876211625379e-01   3.3021798414682801e-01   3.4054002996954985e-01   3.2841211773023449e-01   3.3861908968180421e-01   3.2660645088167212e-01   3.3665983463849836e-01   3.2478308746793205e-01   3.3464619846080507e-01   3.2292355865066596e-01   3.3256651544038612e-01   3.2100987865861247e-01   3.3042829660064427e-01   3.1903588533512162e-01   3.2825612433698326e-01   3.1701746006950482e-01   3.2607131542594314e-01   3.1497777048296344e-01   3.1292822825315614e-01   3.4367784896280068e-01   3.4269417514885286e-01   3.2693925131897189e-01   3.4174011122289860e-01   3.2611949772632298e-01   3.4080685986898673e-01   3.2532698961726153e-01   3.3988414013512652e-01   3.2455011051277971e-01   3.3896015814894170e-01   3.2377542566031631e-01   3.3802303248044163e-01   3.2298901728942836e-01   3.3706194483805640e-01   3.2217786650440927e-01   3.3606853162146133e-01   3.2133146763611725e-01   3.3503770190664728e-01   3.2044234253277054e-01   3.3396891204645857e-01   3.1950701243972390e-01   3.3286392156692318e-01   3.1852528831225851e-01   3.3172239039451351e-01   3.1749695374927434e-01   3.3054025262852743e-01   3.1641850815900413e-01   3.2931231863687044e-01   3.1528488003229338e-01   3.2803475396795873e-01   3.1409218336345496e-01   3.2670729533698467e-01   3.1284027728480157e-01   3.2533402315518339e-01   3.1153388112923813e-01   3.2392278681989461e-01   3.1018254422303038e-01   3.2248246566078642e-01   3.0879805071746780e-01   3.2101967389899300e-01   3.0739059496045207e-01   3.1953642766056750e-01   3.0596446188109422e-01   3.1802902782679615e-01   3.0451607750854759e-01   3.1648865264562837e-01   3.0303481088165041e-01   3.1490910371463365e-01   3.0151058523787605e-01   3.1329254296283271e-01   2.9994366236225672e-01   3.1164594263791928e-01   2.9834394987113044e-01   3.0997242675327347e-01   2.9671968896701850e-01   3.0827362044105733e-01   2.9507323111585410e-01   3.0656309930447340e-01   2.9341372664465648e-01   3.0486859484705514e-01   2.9176907172017896e-01   3.0321645015821996e-01   2.9017475537478538e-01   3.0161128456583264e-01   2.8864899758486545e-01   3.0003398947392207e-01   2.8717898428374433e-01   2.9846283044651423e-01   2.8573824738167219e-01   2.9687462402803938e-01   2.8430213475425992e-01   2.9524058767336581e-01   2.8283909950663066e-01   2.9354904196026405e-01   2.8132121991879500e-01   2.9181515490543830e-01   2.7974976615434038e-01   2.9005794266950374e-01   2.7814440666926621e-01   2.8828163985543048e-01   2.7651511812599772e-01   2.7485628274364043e-01   2.9510399251020458e-01   2.9458266953328005e-01   2.7933074627404009e-01   2.9409240266734976e-01   2.7897697443561409e-01   2.9361651490147422e-01   2.7864658182630581e-01   2.9313663015594094e-01   2.7831929486381790e-01   2.9263461778506339e-01   2.7797417589968082e-01   2.9209500988409309e-01   2.7759268522256059e-01   2.9150586282385571e-01   2.7716011870005564e-01   2.9085884613980206e-01   2.7666582148581015e-01   2.9014900787654868e-01   2.7610237993687853e-01   2.8937371003377632e-01   2.7546532426543879e-01   2.8852931731291820e-01   2.7475054037195851e-01   2.8761012405581754e-01   2.7395206429876073e-01   2.8661059880153372e-01   2.7306317229975047e-01   2.8552957109087590e-01   2.7208093125382837e-01   2.8437235182576492e-01   2.7100966718643660e-01   2.8315078857991627e-01   2.6986168266596700e-01   2.8188177276311138e-01   2.6865551377914282e-01   2.8058343865173596e-01   2.6741268686748593e-01   2.7926837187632397e-01   2.6615081687118730e-01   2.7793867670525224e-01   2.6487673621619767e-01   2.7658158763252599e-01   2.6358111026778608e-01   2.7517516858623969e-01   2.6223977782007613e-01   2.7370990761416103e-01   2.6083320176703212e-01   2.7219839902940696e-01   2.5936804892681786e-01   2.7066272226027599e-01   2.5787092567809344e-01   2.6911233969106468e-01   2.5636216894573105e-01   2.6754491142425163e-01   2.5484148006302459e-01   2.6597860271193435e-01   2.5331485820573024e-01   2.6446066214900121e-01   2.5182420390303584e-01   2.6303980937444932e-01   2.5042974950032454e-01   2.6173022482371761e-01   2.4916699264509024e-01   2.6050155538666869e-01   2.4801903790623250e-01   2.5932037932594915e-01   2.4694238789922479e-01   2.5816029170942828e-01   2.4590658065846654e-01   2.5697488647647748e-01   2.4487181282545062e-01   2.5572758565112602e-01   2.4378587360801765e-01   2.5442279398188178e-01   2.4263156016366075e-01   2.5307927506875438e-01   2.4142618495537374e-01   2.5170083350787287e-01   2.4018165050484672e-01   2.5027735306528054e-01   2.3889153445192304e-01   2.3754887293645013e-01   2.5011689080147737e-01   2.5005517969332886e-01   2.3644202764139105e-01   2.5001707731580941e-01   2.3653596369855351e-01   2.4997608737696267e-01   2.3663852977499761e-01   2.4990634910223988e-01   2.3672021505157215e-01   2.4978683730218551e-01   2.3675548408966532e-01   2.4960213048013705e-01   2.3672565840392160e-01   2.4934040661596882e-01   2.3661690375185060e-01   2.4899291468826770e-01   2.3641838284801209e-01   2.4855350265550835e-01   2.3612211954846271e-01   2.4801543308359109e-01   2.3572116036161417e-01   2.4736911324840541e-01   2.3520562091929817e-01   2.4660580035579582e-01   2.3456416111627570e-01   2.4572517140814265e-01   2.3379184965067965e-01   2.4473860672639294e-01   2.3289717004399907e-01   2.4366667914804854e-01   2.3190074188759174e-01   2.4253723166800004e-01   2.3083197402818958e-01   2.4137747269021409e-01   2.2972273409110489e-01   2.4020415445433524e-01   2.2859597819730149e-01   2.3901835632991969e-01   2.2745769889164441e-01   2.3780196017218871e-01   2.2629547040422626e-01   2.3651850555630424e-01   2.2507546848221283e-01   2.3515039279679828e-01   2.2376544549677388e-01   2.3372288557660068e-01   2.2237638988256769e-01   2.3227991464844289e-01   2.2095672641942316e-01   2.3084201202935814e-01   2.1954599404443542e-01   2.2939679030585752e-01   2.1814182131206483e-01   2.2795537890764966e-01   2.1673503802253463e-01   2.2658204704319510e-01   2.1537129107178152e-01   2.2534915683497181e-01   2.1413223491902500e-01   2.2428507776267095e-01   2.1307154885628721e-01   2.2335293279512369e-01   2.1217634160547852e-01   2.2249923514068551e-01   2.1138643179956959e-01   2.2169183217912661e-01   2.1065670750978291e-01   2.2088205566169702e-01   2.0995010068308306e-01   2.2001218123343422e-01   2.0920589689076169e-01   2.1907059603255533e-01   2.0838762518516110e-01   2.1807450136044471e-01   2.0750506800380475e-01   2.1703123837981006e-01   2.0657226626590131e-01   2.1593378984745717e-01   2.0558787471509360e-01   2.1478276890568307e-01   2.0454878877110855e-01   2.0347478947500355e-01   2.1311760966400564e-01   2.1321648182546446e-01   2.0257940992848134e-01   2.1320991835786471e-01   2.0271742451457508e-01   2.1309018552435338e-01   2.0273856255819503e-01   2.1284839806583333e-01   2.0263496659381339e-01   2.1246919540648834e-01   2.0239249284224570e-01   2.1193614881957248e-01   2.0199100932384134e-01   2.1124739202271581e-01   2.0141976803645803e-01   2.1042051244362092e-01   2.0069060116509810e-01   2.0948482306762081e-01   1.9983266800145855e-01   2.0848085532721947e-01   1.9888635319406453e-01   2.0744605640680319e-01   1.9789618096836278e-01   2.0639631618934787e-01   1.9688788171317911e-01   2.0532569500579265e-01   1.9585924957821380e-01   2.0421389017943059e-01   1.9479156494001751e-01   2.0302584816545399e-01   1.9365755556394043e-01   2.0173476835191062e-01   1.9242501886053798e-01   2.0037121083399800e-01   1.9110139277296623e-01   1.9900036480009275e-01   1.8974820233064124e-01   1.9765965961369927e-01   1.8842396769437167e-01   1.9633493384610196e-01   1.8713534380036359e-01   1.9502007486844572e-01   1.8586136754653321e-01   1.9377566581435662e-01   1.8463121483047873e-01   1.9268636833258054e-01   1.8352701064634139e-01   1.9179155801098333e-01   1.8260978596425953e-01   1.9106082200074351e-01   1.8187608428141003e-01   1.9043075508112101e-01   1.8126837872166354e-01   1.8985528270591673e-01   1.8072902378962072e-01   1.8929138182184854e-01   1.8021882053323487e-01   1.8868446988781187e-01   1.7968927202362900e-01   1.8800899411013622e-01   1.7909978585583650e-01   1.8727352507180781e-01   1.7844838269160518e-01   1.8648696631292375e-01   1.7774585184483915e-01   1.8564986603003969e-01   1.7699628975215714e-01   1.8476870364467829e-01   1.7620419211218208e-01   1.8387450268225039e-01   1.7539104355632967e-01   1.7460272517892050e-01   1.8386762423667197e-01   1.8416885329842592e-01   1.7593977033707672e-01   1.8434221061082676e-01   1.7624885028884776e-01   1.8437991904094489e-01   1.7642280205495375e-01   1.8426003307170558e-01   1.7644501403168289e-01   1.8395470829758076e-01   1.7628463778991615e-01   1.8345575296584851e-01   1.7592012027990134e-01   1.8278797502566194e-01   1.7536511069792352e-01   1.8198706985621413e-01   1.7465668582308969e-01   1.8110217436303672e-01   1.7383947991258356e-01   1.8018339091548777e-01   1.7296833633416844e-01   1.7924585142454777e-01   1.7207566318971690e-01   1.7827233221304950e-01   1.7115176079441652e-01   1.7723729110726258e-01   1.7016885743228097e-01   1.7612197039928729e-01   1.6910829684248777e-01   1.7491324820008161e-01   1.6796260528911738e-01   1.7363465174710127e-01   1.6674024881969310e-01   1.7235378949805383e-01   1.6549394303759574e-01   1.7111819463604330e-01   1.6428390996694106e-01   1.6992462043408360e-01   1.6312669208715552e-01   1.6876144159847642e-01   1.6200767957146722e-01   1.6766722944556764e-01   1.6093958458180180e-01   1.6671277879339091e-01   1.5998098312466755e-01   1.6593777086704978e-01   1.5918377295494007e-01   1.6532328068873398e-01   1.5855048336924249e-01   1.6481551993770355e-01   1.5803901288390676e-01   1.6436358216317362e-01   1.5759648095133386e-01   1.6392585681720970e-01   1.5718108532754327e-01   1.6346225545115645e-01   1.5675576556153159e-01   1.6294882295043392e-01   1.5629104812419115e-01   1.6238441350755062e-01   1.5577885219872020e-01   1.6177509387450656e-01   1.5522380985069717e-01   1.6112643062255752e-01   1.5463156298978592e-01   1.6045097756750029e-01   1.5401221287416372e-01   1.5977862816644692e-01   1.5338874677980988e-01   1.5915672722447988e-01   1.5280206570804952e-01   1.5864205822089170e-01   1.5230484070600567e-01   1.5195601644682297e-01   1.6207967342181773e-01   1.6252614530141329e-01   1.5657242079505596e-01   1.6283268502436762e-01   1.5701589203211036e-01   1.6297480739412731e-01   1.5730617640789965e-01   1.6291503187353001e-01   1.5740683875068190e-01   1.6263541208289575e-01   1.5728703537139355e-01   1.6216180327289770e-01   1.5695439746448911e-01   1.6153578894252979e-01   1.5645040984472053e-01   1.6080194112505033e-01   1.5581526579637672e-01   1.6001535916785842e-01   1.5509830520544626e-01   1.5919854480431678e-01   1.5433992688670525e-01   1.5833328579865100e-01   1.5353684676794896e-01   1.5739309332607435e-01   1.5266461241264476e-01   1.5637078199559806e-01   1.5171043149551114e-01   1.5527672803045683e-01   1.5068486206655679e-01   1.5413548977402394e-01   1.4960880285718406e-01   1.5299552290540105e-01   1.4851766496084751e-01   1.5189802672708860e-01   1.4745569739796463e-01   1.5084874938582601e-01   1.4644058675939786e-01   1.4984440733202414e-01   1.4546967341074463e-01   1.4890881033506073e-01   1.4455382521751231e-01   1.4808730366369591e-01   1.4372944417412598e-01   1.4740850467084568e-01   1.4303072158756844e-01   1.4686231240797129e-01   1.4246137671793002e-01   1.4641043679311361e-01   1.4199368021695360e-01   1.4600920321089664e-01   1.4158689996240445e-01   1.4562043923448614e-01   1.4120297181626593e-01   1.4521476947608675e-01   1.4081159639021926e-01   1.4477582090597130e-01   1.4039349834414558e-01   1.4429920498408239e-01   1.3994153278005328e-01   1.4378718563874923e-01   1.3945586733504128e-01   1.4324665605287409e-01   1.3894144443183420e-01   1.4269268432413801e-01   1.3841006074885012e-01   1.4215390011129614e-01   1.3788489936313431e-01   1.4167265318442884e-01   1.3740295015513507e-01   1.4130016354316302e-01   1.3701154827993306e-01   1.4109104617493784e-01   1.3676169804339877e-01   1.3669933921564015e-01   1.47137723