<?xml version="1.0"?>
<VTKFile type="UnstructuredGrid"  version="0.1"  >
<UnstructuredGrid>
<Piece  NumberOfPoints="607" NumberOfCells="1112">
<Points>
<DataArray  type="Float64"  NumberOfComponents="3"  format="ascii">0.4130434782608696 0 0  0.4295652173913043 0 0  0.4295652173913043 0.01666666666666667 0  0.4460869565217391 0 0  0.4460869565217391 0.01666666666666667 0  0.4626086956521739 0 0  0.4626086956521739 0.01666666666666667 0  0.4791304347826086 0 0  0.4791304347826086 0.01666666666666667 0  0.4956521739130435 0 0  0.4956521739130435 0.01666666666666667 0  0.5121739130434783 0 0  0.5121739130434783 0.01666666666666667 0  0.528695652173913 0 0  0.528695652173913 0.01666666666666667 0  0.5452173913043478 0 0  0.5452173913043478 0.01666666666666667 0  0.5617391304347825 0 0  0.5617391304347825 0.01666666666666667 0  0.5782608695652174 0 0  0.5782608695652174 0.01666666666666667 0  0.5947826086956521 0 0  0.5947826086956521 0.01666666666666667 0  0.6113043478260869 0 0  0.6113043478260869 0.01666666666666667 0  0.6278260869565218 0 0  0.6278260869565218 0.01666666666666667 0  0.6443478260869565 0 0  0.6443478260869565 0.01666666666666667 0  0.6608695652173913 0 0  0.6608695652173913 0.01666666666666667 0  0.677391304347826 0 0  0.677391304347826 0.01666666666666667 0  0.6939130434782609 0 0  0.6939130434782609 0.01666666666666667 0  0.7104347826086956 0 0  0.7104347826086956 0.01666666666666667 0  0.4460869565217391 0.03333333333333333 0  0.4626086956521739 0.03333333333333333 0  0.4791304347826086 0.03333333333333333 0  0.4956521739130435 0.03333333333333333 0  0.5121739130434783 0.03333333333333333 0  0.528695652173913 0.03333333333333333 0  0.5452173913043478 0.03333333333333333 0  0.5617391304347825 0.03333333333333333 0  0.5782608695652174 0.03333333333333333 0  0.5947826086956521 0.03333333333333333 0  0.6113043478260869 0.03333333333333333 0  0.6278260869565218 0.03333333333333333 0  0.6443478260869565 0.03333333333333333 0  0.6608695652173913 0.03333333333333333 0  0.677391304347826 0.03333333333333333 0  0.6939130434782609 0.03333333333333333 0  0.7104347826086956 0.03333333333333333 0  0.4626086956521739 0.05 0  0.4791304347826086 0.05 0  0.4956521739130435 0.05 0  0.5121739130434783 0.05 0  0.528695652173913 0.05 0  0.5452173913043478 0.05 0  0.5617391304347825 0.05 0  0.5782608695652174 0.05 0  0.5947826086956521 0.05 0  0.6113043478260869 0.05 0  0.6278260869565218 0.05 0  0.6443478260869565 0.05 0  0.6608695652173913 0.05 0  0.677391304347826 0.05 0  0.6939130434782609 0.05 0  0.7104347826086956 0.05 0  0.7269565217391304 0.05 0  0.4791304347826086 0.06666666666666667 0  0.4956521739130435 0.06666666666666667 0  0.5121739130434783 0.06666666666666667 0  0.528695652173913 0.06666666666666667 0  0.5452173913043478 0.06666666666666667 0  0.5617391304347825 0.06666666666666667 0  0.5782608695652174 0.06666666666666667 0  0.5947826086956521 0.06666666666666667 0  0.6113043478260869 0.06666666666666667 0  0.6278260869565218 0.06666666666666667 0  0.6443478260869565 0.06666666666666667 0  0.6608695652173913 0.06666666666666667 0  0.677391304347826 0.06666666666666667 0  0.6939130434782609 0.06666666666666667 0  0.7104347826086956 0.06666666666666667 0  0.7269565217391304 0.06666666666666667 0  0.7434782608695653 0.06666666666666667 0  0.4956521739130435 0.08333333333333333 0  0.5121739130434783 0.08333333333333333 0  0.528695652173913 0.08333333333333333 0  0.5452173913043478 0.08333333333333333 0  0.5617391304347825 0.08333333333333333 0  0.5782608695652174 0.08333333333333333 0  0.5947826086956521 0.08333333333333333 0  0.6113043478260869 0.08333333333333333 0  0.6278260869565218 0.08333333333333333 0  0.6443478260869565 0.08333333333333333 0  0.6608695652173913 0.08333333333333333 0  0.677391304347826 0.08333333333333333 0  0.6939130434782609 0.08333333333333333 0  0.7104347826086956 0.08333333333333333 0  0.7269565217391304 0.08333333333333333 0  0.7434782608695653 0.08333333333333333 0  0.7599999999999999 0.08333333333333333 0  0.5121739130434783 0.1 0  0.528695652173913 0.1 0  0.5452173913043478 0.1 0  0.5617391304347825 0.1 0  0.5782608695652174 0.1 0  0.5947826086956521 0.1 0  0.6113043478260869 0.1 0  0.6278260869565218 0.1 0  0.6443478260869565 0.1 0  0.6608695652173913 0.1 0  0.677391304347826 0.1 0  0.6939130434782609 0.1 0  0.7104347826086956 0.1 0  0.7269565217391304 0.1 0  0.7434782608695653 0.1 0  0.7599999999999999 0.1 0  0.7765217391304348 0.1 0  0.528695652173913 0.1166666666666667 0  0.5452173913043478 0.1166666666666667 0  0.5617391304347825 0.1166666666666667 0  0.5782608695652174 0.1166666666666667 0  0.5947826086956521 0.1166666666666667 0  0.6113043478260869 0.1166666666666667 0  0.6278260869565218 0.1166666666666667 0  0.6443478260869565 0.1166666666666667 0  0.6608695652173913 0.1166666666666667 0  0.677391304347826 0.1166666666666667 0  0.6939130434782609 0.1166666666666667 0  0.7104347826086956 0.1166666666666667 0  0.7269565217391304 0.1166666666666667 0  0.7434782608695653 0.1166666666666667 0  0.7599999999999999 0.1166666666666667 0  0.7765217391304348 0.1166666666666667 0  0.7930434782608695 0.1166666666666667 0  0.5452173913043478 0.1333333333333333 0  0.5617391304347825 0.1333333333333333 0  0.5782608695652174 0.1333333333333333 0  0.5947826086956521 0.1333333333333333 0  0.6113043478260869 0.1333333333333333 0  0.6278260869565218 0.1333333333333333 0  0.6443478260869565 0.1333333333333333 0  0.6608695652173913 0.1333333333333333 0  0.677391304347826 0.1333333333333333 0  0.6939130434782609 0.1333333333333333 0  0.7104347826086956 0.1333333333333333 0  0.7269565217391304 0.1333333333333333 0  0.7434782608695653 0.1333333333333333 0  0.7599999999999999 0.1333333333333333 0  0.7765217391304348 0.1333333333333333 0  0.7930434782608695 0.1333333333333333 0  0.8095652173913043 0.1333333333333333 0  0.5617391304347825 0.15 0  0.5782608695652174 0.15 0  0.5947826086956521 0.15 0  0.6113043478260869 0.15 0  0.6278260869565218 0.15 0  0.6443478260869565 0.15 0  0.6608695652173913 0.15 0  0.677391304347826 0.15 0  0.6939130434782609 0.15 0  0.7104347826086956 0.15 0  0.7269565217391304 0.15 0  0.7434782608695653 0.15 0  0.7599999999999999 0.15 0  0.7765217391304348 0.15 0  0.7930434782608695 0.15 0  0.8095652173913043 0.15 0  0.8260869565217391 0.15 0  0.5782608695652174 0.1666666666666667 0  0.5947826086956521 0.1666666666666667 0  0.6113043478260869 0.1666666666666667 0  0.6278260869565218 0.1666666666666667 0  0.6443478260869565 0.1666666666666667 0  0.6608695652173913 0.1666666666666667 0  0.677391304347826 0.1666666666666667 0  0.6939130434782609 0.1666666666666667 0  0.7104347826086956 0.1666666666666667 0  0.7269565217391304 0.1666666666666667 0  0.7434782608695653 0.1666666666666667 0  0.7599999999999999 0.1666666666666667 0  0.7765217391304348 0.1666666666666667 0  0.7930434782608695 0.1666666666666667 0  0.8095652173913043 0.1666666666666667 0  0.8260869565217391 0.1666666666666667 0  0.8426086956521739 0.1666666666666667 0  0.5947826086956521 0.1833333333333333 0  0.5782608695652174 0.1833333333333333 0  0.6113043478260869 0.1833333333333333 0  0.6278260869565218 0.1833333333333333 0  0.6443478260869565 0.1833333333333333 0  0.6608695652173913 0.1833333333333333 0  0.677391304347826 0.1833333333333333 0  0.6939130434782609 0.1833333333333333 0  0.7104347826086956 0.1833333333333333 0  0.7269565217391304 0.1833333333333333 0  0.7434782608695653 0.1833333333333333 0  0.7599999999999999 0.1833333333333333 0  0.7765217391304348 0.1833333333333333 0  0.7930434782608695 0.1833333333333333 0  0.8095652173913043 0.1833333333333333 0  0.8260869565217391 0.1833333333333333 0  0.8426086956521739 0.1833333333333333 0  0.8591304347826086 0.1833333333333333 0  0.5947826086956521 0.2 0  0.5782608695652174 0.2 0  0.6113043478260869 0.2 0  0.6278260869565218 0.2 0  0.6443478260869565 0.2 0  0.6608695652173913 0.2 0  0.677391304347826 0.2 0  0.6939130434782609 0.2 0  0.7104347826086956 0.2 0  0.7269565217391304 0.2 0  0.7434782608695653 0.2 0  0.7599999999999999 0.2 0  0.7765217391304348 0.2 0  0.7930434782608695 0.2 0  0.8095652173913043 0.2 0  0.8260869565217391 0.2 0  0.8426086956521739 0.2 0  0.8591304347826086 0.2 0  0.8756521739130434 0.2 0  0.5947826086956521 0.2166666666666667 0  0.5782608695652174 0.2166666666666667 0  0.6113043478260869 0.2166666666666667 0  0.6278260869565218 0.2166666666666667 0  0.6443478260869565 0.2166666666666667 0  0.6608695652173913 0.2166666666666667 0  0.677391304347826 0.2166666666666667 0  0.6939130434782609 0.2166666666666667 0  0.7104347826086956 0.2166666666666667 0  0.7269565217391304 0.2166666666666667 0  0.7434782608695653 0.2166666666666667 0  0.7599999999999999 0.2166666666666667 0  0.7765217391304348 0.2166666666666667 0  0.7930434782608695 0.2166666666666667 0  0.8095652173913043 0.2166666666666667 0  0.8260869565217391 0.2166666666666667 0  0.8426086956521739 0.2166666666666667 0  0.8591304347826086 0.2166666666666667 0  0.8756521739130434 0.2166666666666667 0  0.8921739130434783 0.2166666666666667 0  0.5947826086956521 0.2333333333333333 0  0.5782608695652174 0.2333333333333333 0  0.6113043478260869 0.2333333333333333 0  0.6278260869565218 0.2333333333333333 0  0.6443478260869565 0.2333333333333333 0  0.6608695652173913 0.2333333333333333 0  0.677391304347826 0.2333333333333333 0  0.6939130434782609 0.2333333333333333 0  0.7104347826086956 0.2333333333333333 0  0.7269565217391304 0.2333333333333333 0  0.7434782608695653 0.2333333333333333 0  0.7599999999999999 0.2333333333333333 0  0.7765217391304348 0.2333333333333333 0  0.7930434782608695 0.2333333333333333 0  0.8095652173913043 0.2333333333333333 0  0.8260869565217391 0.2333333333333333 0  0.8426086956521739 0.2333333333333333 0  0.8591304347826086 0.2333333333333333 0  0.8756521739130434 0.2333333333333333 0  0.8921739130434783 0.2333333333333333 0  0.908695652173913 0.2333333333333333 0  0.5947826086956521 0.25 0  0.6113043478260869 0.25 0  0.6278260869565218 0.25 0  0.6443
[...]
<CellData  Scalars="rho_bar"> 
<DataArray  type="Float64"  Name="rho_bar"  format="ascii">9.1780034920568165e-01   9.1965746013772920e-01   9.1567859046140621e-01   9.2066768595546056e-01   9.1712300290530602e-01   9.2070891051862824e-01   9.1758832881242092e-01   9.1971275052757084e-01   9.1697988842542333e-01   9.1767654566069712e-01   9.1526741910471610e-01   9.1466528178591666e-01   9.1249001179348010e-01   9.1080543732414088e-01   9.0875283991693989e-01   9.0628278419969699e-01   9.0422300977707204e-01   9.0134479973009829e-01   8.9913526839047142e-01   8.9628456668908474e-01   8.9378602062083756e-01   8.9141245991468399e-01   8.8850583298786834e-01   8.8702584080752600e-01   8.8362437233795998e-01   8.8337397181932287e-01   8.7943416638123895e-01   8.8061254545470435e-01   8.7614443679154042e-01   8.7877334715894717e-01   8.7383926989234950e-01   8.7776952618512782e-01   8.7246823707949162e-01   8.7742625303878730e-01   8.7187333550048662e-01   9.0129949395914088e-01   9.0301857035267630e-01   8.9053903323070516e-01   9.0350001669654845e-01   8.9186171397674818e-01   9.0264403608077015e-01   8.9167879473647915e-01   9.0042630288997261e-01   8.8992212163692297e-01   8.9689371114399852e-01   8.8660210993301658e-01   8.9216206606975135e-01   8.8180125851420899e-01   8.8643248473913394e-01   8.7569020044342805e-01   8.8000924045958984e-01   8.6855983787189461e-01   8.7328703814599984e-01   8.6083062991273052e-01   8.6670754244648940e-01   8.5301283590939292e-01   8.6070699395938677e-01   8.4564323227225924e-01   8.5565333166988344e-01   8.3920884005887486e-01   8.5178250844634773e-01   8.3406571949741126e-01   8.4915568398137553e-01   8.3037368091724417e-01   8.4766537587151336e-01   8.2808116170273538e-01   8.4707856926406666e-01   8.2696412153926502e-01   8.5374941023907625e-01   8.5598555840165913e-01   8.2886134484447871e-01   8.5604396247695536e-01   8.3056039987382047e-01   8.5382695568457412e-01   8.2951554655740778e-01   8.4932033280600805e-01   8.2564658002426383e-01   8.4259808014429682e-01   8.1896569832925781e-01   8.3388425070759620e-01   8.0963395596229903e-01   8.2362120017503770e-01   7.9806358978721648e-01   8.1246521094559443e-01   7.8495979401687488e-01   8.0121195233366616e-01   7.7125589670118899e-01   7.9068396109253258e-01   7.5798026053742029e-01   7.8159332451325803e-01   7.4608962019962055e-01   7.7441272297120833e-01   7.3629468025031852e-01   7.6930509167375860e-01   7.2894521398332557e-01   7.6613240895343770e-01   7.2400982690209736e-01   7.6453124133214601e-01   7.2114696191705874e-01   7.1981324965801663e-01   7.5556161153559087e-01   7.5923333584512409e-01   7.0995354924637510e-01   7.5876113202744444e-01   7.1263388023748464e-01   7.5396602172925742e-01   7.1014010315697318e-01   7.4482871653307337e-01   7.0232733140023051e-01   7.3163046829848710e-01   6.8936496017822679e-01   7.1510753382065151e-01   6.7193671600006100e-01   6.9645088035483182e-01   6.5131560656364373e-01   6.7714075117766315e-01   6.2920408954402940e-01   6.5870360426108676e-01   6.0743810713418067e-01   6.4243384907947076e-01   5.8765207336479408e-01   6.2917102604866570e-01   5.7099016962869531e-01   6.1921408291834090e-01   5.5797212582413214e-01   6.1237588758482753e-01   5.4853723148626099e-01   6.0811640401296763e-01   5.4219148016120644e-01   6.0568393878573001e-01   5.3817483539455224e-01   5.3559504426858007e-01   5.9609384683613087e-01   6.0180203417859413e-01   5.3632310130086369e-01   6.0044946261846432e-01   5.3996001454049247e-01   5.9179807227400627e-01   5.3552260839082177e-01   5.7625189089787021e-01   5.2312062383250202e-01   5.5505556902932851e-01   5.0381579574414692e-01   5.3022213475043800e-01   4.7962496951768685e-01   5.0415307563874545e-01   4.5314567444489229e-01   4.7914598075009956e-01   4.2697522843255287e-01   4.5695915030401574e-01   4.0318586921572680e-01   4.3857946486911797e-01   3.8301938167190380e-01   4.2424383204040789e-01   3.6688199273974254e-01   4.1362430126840194e-01   3.5454597702073892e-01   4.0604492853266089e-01   3.4540066492538296e-01   4.0064779513788518e-01   3.3864521198041464e-01   3.9650904449756358e-01   3.3340881389364435e-01   3.2883308356026258e-01   4.1431765324602643e-01   4.2098274139162395e-01   3.6360066434326255e-01   4.1860906511908363e-01   3.6716738492366957e-01   4.0737872364102495e-01   3.6156799192212441e-01   3.8879737201622494e-01   3.4770856585987203e-01   3.6544142457943463e-01   3.2782727574168796e-01   3.4030648275156833e-01   3.0489355104556720e-01   3.1605924567138610e-01   2.8178317651568396e-01   2.9451141154204469e-01   2.6061816997792381e-01   2.7649518677585178e-01   2.4251102536737690e-01   2.6206416963199086e-01   2.2771178323840824e-01   2.5079521054988685e-01   2.1592571012455097e-01   2.4203922810739942e-01   2.0659488240067547e-01   2.3507186035316643e-01   1.9907495169598197e-01   2.2917401881936861e-01   1.9272367606881782e-01   2.2368573691905494e-01   1.8695134138322336e-01   1.8126046933955400e-01   2.7473236551688290e-01   2.8077185893141576e-01   2.4525550102937888e-01   2.7794707101423971e-01   2.4807453286451786e-01   2.6715946827337872e-01   2.4254959767317499e-01   2.5072818181472872e-01   2.3030036461153777e-01   2.3159769585922793e-01   2.1400111820615692e-01   2.1243014777023805e-01   1.9643634367734800e-01   1.9500068914344973e-01   1.7972027227658077e-01   1.8009187798229487e-01   1.6498593214964533e-01   1.6776351633714012e-01   1.5254075151934302e-01   1.5768572769743366e-01   1.4220607789602435e-01   1.4937436788398362e-01   1.3358972982760456e-01   1.4231934543908212e-01   1.2624374352659110e-01   1.3604578779014889e-01   1.1974054440491357e-01   1.3014943973883514e-01   1.1371165377357478e-01   1.2432399688346163e-01   1.0787405676858478e-01   1.0205041594456225e-01   1.9666003002525448e-01   2.0160861650335199e-01   1.8430590060259280e-01   1.9865086173153390e-01   1.8626463321494796e-01   1.8926025119754047e-01   1.8096769671311796e-01   1.7595794004529536e-01   1.7044931943472855e-01   1.6131254936106296e-01   1.5729137353716668e-01   1.4719590645576702e-01   1.4369299367694333e-01   1.3456369899211520e-01   1.3100317972691611e-01   1.2365898207013620e-01   1.1976092610930320e-01   1.1433215399175117e-01   1.0999104115011761e-01   1.0627382894738817e-01   1.0147637900760648e-01   9.9142100432728350e-02   9.3922895130432560e-02   9.2624155491482937e-02   8.7043204932389942e-02   8.6470865317081577e-02   8.0599535860823648e-02   8.0517179026467822e-02   7.4429037954767185e-02   7.4694018400859805e-02   6.8456712692187935e-02   6.2697129717532551e-02   1.6410109861757141e-01   1.6799706664049069e-01   1.6246720521101518e-01   1.6462293985834611e-01   1.6347051407116700e-01   1.5589534303403835e-01   1.5787543591813366e-01   1.4429181883076475e-01   1.4798162517089744e-01   1.3190456019542510e-01   1.3614569368846308e-01   1.2002092883672659e-01   1.2407149997064826e-01   1.0918880764838712e-01   1.1266547002450415e-01   9.9485758720736076e-02   1.0223622967361534e-01   9.0766306940397556e-02   9.2761664513086650e-02   8.2815066598366557e-02   8.4085140895466065e-02   7.5424288789880847e-02   7.6025259570721246e-02   6.8438347523863199e-02   6.8433588599013689e-02   6.1776726863688326e-02   6.1228357205329473e-02   5.5439685367695474e-02   5.4405037793779289e-02   4.9500797261659450e-02   4.8031190680700692e-02   4.2220763605964641e-02   1.6023562586033616e-01   1.6309146590208293e-01   1.6534377883324605e-01   1.5889743118737185e-01   1.6528607717082161e-01   1.4989916115614960e-01   1.5888889886910540e-01   1.3844193139509126e-01   1.4856953299664424e-01   1.2626220108971067e-01   1.3644768310417091e-01   1.1434342273299759e-01   1.2392643764170899e-01   1.0308776108746318e-01   1.1172845530923955e-01   9.2564354820278416e-02   1.0011869394351078e-01   8.2704757392474945e-02   8.9133463670307334e-02   7.3412631800025788e-02   7.8733187350527228e-02   6.4625684170402029e-02   6.8884312547873860e-02   5.6348508676209073e-02   5.9606858725561408e-02   4.8653562224383474e-02   5.0986068553492414e-02   4.1662910622948773e-02   4.3154589717012914e-02   3.5507629790700546e-02   3.6256121392391087e-02   3.0392426694371266e-02   1.7503190084119460e-01   1.7723630391464285e-01   1.7686631137510442e-01   1.8455447067337771e-01   1.7160143516811430e-01   1.8341500491437773e-01   1.6160483058926539e-01   1.7587599762094630e-01   1.4904193137266422e-01   1.6428531194340476e-01   1.3543898832103690e-01   1.5055473092016849e-01   1.2166814207366837e-01   1.3594444059017782e-01   1.0814466339845684e-01   1.2115849990798926e-01   9.5052285720710214e-02   1.0656632148817799e-01   8.2495458350875295e-02   9.2395154373260888e-02   7.0583298944444067e-02   7.8840849953924680e-02   5.9471820503982788e-02   6.6125411467501172e-02   4.9357213853906193e-02   5.4504033131586402e-02   4.0435164860423818e-02   4.4222865665111695e-02   3.2848069326974517e-02   3.5461202733131046e-02   2.6637186723361170e-02   2.8281637282144129e-02   2.2614313364411994e-02   1.9202656305488891e-01   1.9100462054976636e-01   2.0205004073094385e-01   2.0746372131926966e-01   2.0286586742651513e-01   2.1398443180184487e-01   1.9632859429853217e-01   2.1168285721448599e-01   1.8469489831830882e-01   2.0263592274461525e-01   1.6992234927503855e-01   1.8896718510943605e-01   1.5341133578661242e-01   1.7239112212706589e-01   1.3606370701315004e-01   1.5411805458113403e-01   1.1848626383100383e-01   1.3499973650463765e-01   1.0116405943089796e-01   1.1572020857161321e-01   8.4557776384423300e-02   9.6915447946074110e-02   6.9136506337228357e-02   7.9216447225136405e-02   5.5341987388012354e-02   6.3219166128074836e-02   4.3503872947311936e-02   4.9387978480394348e-02   3.3769134997007871e-02   3.7960318227289930e-02   2.6082345448364901e-02   2.8916989957495903e-02   2.0226727755966057e-02   2.2027389970885099e-02   1.6942548721376866e-02   2.0641097047800297e-01   2.0008413570102607e-01   2.2586902084532717e-01   2.2587966000935120e-01   2.3495377260725048e-01   2.4147218138049009e-01   2.3448742390855276e-01   2.4668317569114112e-01   2.2627554734809030e-01   2.4280556868954856e-01   2.1228288838212475e-01   2.3166713666177391e-01   1.9420102097203437e-01   2.1504382534815028e-01   1.7336164055881045e-01   1.9443260622351777e-01   1.5087327647088750e-01   1.7111161913007336e-01   1.2778051368474852e-01   1.4630787699944428e-01   1.0514230204961586e-01   1.2130023918252585e-01   8.4006525053263323e-02   9.7404140050647639e-02   6.5281079778491846e-02   7.5827907886422269e-02   4.9555730488658196e-02   5.7447302206438657e-02   3.7000372748685444e-02   4.2633858100359592e-02   2.7408008106520589e-02   3.1262208684124562e-02   2.0337630586940030e-02   2.2870590143356347e-02   1.5270038747350341e-02   1.6862650007373577e-02   1.2656518227150880e-02   2.1261245099203413e-01   2.0057908353538412e-01   2.4064889372326642e-01   2.3369554983759569e-01   2.5846746263417908e-01   2.5760709571084456e-01   2.6568574447321863e-01   2.7091026690183956e-01   2.6327503505742911e-01   2.7390423127217745e-01   2.5273508455017391e-01   2.6774422119323554e-01   2.3559235831228392e-01   2.5381597577145015e-01   2.1324891455931191e-01   2.3346378636724693e-01   1.8709306677707949e-01   2.0803054299055576e-01   1.5867268064192941e-01   1.7905497600669562e-01   1.2976678257412055e-01   1.4841157786574585e-01   1.0226179868035408e-01   1.1824951370743159e-01   7.7826740858137400e-02   9.0665058405274335e-02   5.7533471207095170e-02   6.7220353022502899e-02   4.1671080699939272e-02   4.8596515863846633e-02   2.9871870396391390e-02   3.4615185705001578e-02   2.1416177833867244e-02   2.4559888166724341e-02   1.5514692566357773e-02   1.7542584299969601e-02   1.1469223812584270e-02   1.2742808965747603e-02   9.4991092280355249e-03   2.0813761073442966e-01   2.4176358298419859e-01   2.2824230679226726e-01   2.6650123702305845e-01   2.5758711259944833e-01   2.8098204577981561e-01   2.7739085449788203e-01   2.8528877276541559e-01   2.8708918613663281e-01   2.8022089982227766e-01   2.8707698159305783e-01   2.6677854050712990e-01   2.7810915787809415e-01   2.4599817741651964e-01   2.6101518384705785e-01   2.1909005670187828e-01   2.3675154921814923e-01   1.8770852307218569e-01   2.0668535855672296e-01   1.5412282078759951e-01   1.7287972696550985e-01   1.2106679011794226e-01   1.3811293622205179e-01   9.1180405263800876e-02   1.0542335562235772e-01   6.6292920344546438e-02   7.7293462263843302e-02   4.7021514104158772e-02   5.4973426887826922e-02   3.2934005345478405e-02   3.8405989084469461e-02   2.3048722168005124e-02   2.6694141860710941e-02   1.6293784441823479e-02   1.8675407898358119e-02   1.1751162925578927e-02   1.3289284932068213e-02   8.7194127835156943e-03   9.7069992300471107e-03   7.3284189552889623e-03   2.2855056763572579e-01   2.5667622344355834e-01   2.4119481675956339e-01   2.7607525117088189e-01   2.6428528316436495e-01   2.8616710409639162e-01   2.7874718626879297e-01   2.8707490151972792e-01   2.8436702114442264e-01   2.7915267217434286e-01   2.8126568984098843e-01   2.6280945045241916e-01   2.6961828858075987e-01   2.3867431967122019e-01   2.4970919291056873e-01   2.0798710216806909e-01   2.2228880099338785e-01   1.7297480774231841e-01   1.8904844925868211e-01   1.3684149334713233e-01   1.5286199560881056e-01   1.0310725297724382e-01   1.1739513537898108e-01   7.4523548288831384e-02   8.6046239988096684e-02   5.2298183800602790e-02   6.0848694837163216e-02   3.6148577569390959e-02   4.2123051613125372e-02   2.4952324524887638e-02   2.8977425631109905e-02   1.7409827479041885e-02   2.0076426249603103e-02   1.2406521427412715e-02   1.4168450434416271e-02   9.1068064813033464e-03   1.0280987122091731e-02   6.9257475759897137e-03   7.7227632143431228e-03   6.0277207603766890e-03   2.3151566600485105e-01   2.5238538567809499e-01   2.3518246096956597e-01   2.6589266862757605e-01   2.5139537400824280e-01   2.7170653890091867e-01   2.6072597384351553e-01   2.6961716381880896e-01   2.6284069607294508e-01   2.5936883336400390e-01   2.5732794348720256e-01   2.4082855747316825e-01   2.4374635648747972e-01   2.1445825404720342e-01   2.2201661826626173e-01   1.8189497166383489e-01   1.9303587679150319e-01   1.4620578669813344e-01   1.5917986057006328e-01   1.1134938002126471e-01   1.2415669742574771e-01   8.0885854287430031e-02   9.1946353327003405e-02   5.6776391382763053e-02   6.5368541306547401e-02   3.9146392512657939e-02   4.5338500669693915e-02   2.6944529772644395e-02   3.1215628307756749e-02   1.8773226120560822e-02   2.1669261459721201e-02   1.3390492152371189e-02   1.5359863599170503e-02   9.8622751093278543e-03   1.1225954962764614e-02   7.5411083277226801e-03   8.5139946564909662e-03   6.0004058152611757e-03   6.7202219656070797e-03   5.5215459533541657e-03   2.1651465852374868e-01   2.3047179232711382e-01   2.1290390198115192e-01   2.3898446357000677e-01   2.2333182290874251e-01   2.4152603113694929e-01   2.2875205322413372e-01   2.3734238870148053e-01   2.2841379018795890e-01   2.2560613213217487e-01   2.2133124281672212e-01   2.0590824407053937e-01   2.0665592284538686e-01   1.7897676761201523e-01   1.8435426821981457e-01   1.4719719732166384e-01   1.5591366636756512e-01   1.1435022538926294e-01   1.2449536650019886e-01   8.4382989988160434e-02   9.4094066908697233e-02   5.9934279817653133e-02   6.8029940104980785e-02   4.1714513316322137e-02   4.7855795742947224e-02   2.8981405377242260e-02   3.3394666009524142e-02   2.0421292412427086e-02   2.3530551679046559e-02   1.4774788213561436e-02   1.6977884313163237e-02   1.1069445189745505e-02   1.2667597705189724e-02   8.6270731531790570e-03   9.8276852420474820e-03   7.0013187261301233e-03   7.9398086738971408e-03   5.9082518621279478e-03   6.6711383332631472e-03   5.8119472917011160e-03   1.8999482276932925e-01   1.9875001547844534e-01   1.8301011265531480e-01   2.0374125171610433e-01   1.8941241297857112e-01   2.0403448408851141e-01   1.9215067014828399e-01   1.9840613821116310e-01   1.9004662788862428e-01   1.8577631978866921e-01   1.8180366412044910e-01   1.6595519739493833e-01   1.6663018169344873e-01   1.4036716977940741e-01   1.4504686311053977e-01   1.1209473123021750e-01   1.1930821659827212e-01   8.4906084436858334e-02   9.2879065154401655e-02   6.1777372353468987e-02   6.9100963798493384e-02   4.3986716260120420e-02   4.9968850332776288e-02   3.1273014582541205e-02   3.5843417682491420e-02   2.2593987671990810e-02   2.5998431874796009e-02   1.6802139627921361e-02   1.9350132757580591e-02   1.2961632959187345e-02   1.4914102525915919e-02   1.0404047987619966e-02   1.1951141483777454e-02   8.6840600812427993e-03   9.9551213696236936e-03   7.5159079482136296e-03   8.5965994371547116e-03   6.7182403850864778e-03   7.6654454362353186e-03   7.0274058732721625e-03   1.6209360936634415e-01   1.6744432698590825e-01   1.5572567980489602e-01   1.6997554684927763e-01   1.5944559081926521e-01   1.6844112722362606e-01   1.6009495852611408e-01   1.6148921599675825e-01   1.5632620835888142e-01   1.4829671859420074e-01   1.4697783778211973e-01   1.2935972039032484e-01   1.3181692584471663e-01   1.0681841171131470e-01   1.1214028660261104e-01   8.3820844958218232e-02   9.0587135861647461e-02   6.3246371095477344e-02   7.0105816119658132e-02   4.6719196364545787e-02   5.2807219267445193e-02   3.4478549586620874e-02   3.9484009554286270e-02   2.5879809508126780e-02   2.9864332197721395e-02   2.0002935541197944e-02   2.3172965578144744e-02   1.6021120799964841e-02   1.8589219421406022e-02   1.3315353835472572e-02   1.5452044549782400e-02   1.1461311043951275e-02   1.3290743656221000e-02   1.0180391968365645e-02   1.1789714780113774e-02   9.2921429889877786e-03   1.0742258051778994e-02   8.6794043371836455e-03   1.0013202977990387e-02   9.5138298870388414e-03   1.4193923073408102e-01   1.4500469581735409e-01   1.3898071726714595e-01   1.4549499197541707e-01   1.4068095822497356e-01   1.4211738185541919e-01   1.3936982657715744e-01   1.3380071492124906e-01   1.3384697726280534e-01   1.2038694077340936e-01   1.2346829437321999e-01   1.0312399676530280e-01   1.0876767551983063e-01   8.4381501779482004e-02   9.1556357899379631e-02   6.6661228040551815e-02   7.4226796997249364e-02   5.1670222507728819e-02   5.8770904065161472e-02   4.0024415034339976e-02   4.6230582359309054e-02   3.1490753363844083e-02   3.6731946866749660e-02   2.5437663920499360e-02   2.9835878455430974e-02   2.1196997254134115e-02   2.4926835968337863e-02   1.8226620990399570e-02   2.1448467542885350e-02   1.6135680668568776e-02   1.8977471682148164e-02   1.4656799280105503e-02   1.7215349017483471e-02   1.3610432410048735e-02   1.5957747442148125e-02   1.2876390949455092e-02   1.5065904579670645e-02   1.2374379581538116e-02   1.4445939100112002e-02   1.4034902413628196e-02   1.3602783687861689e-01   1.3733046852274258e-01   1.3861574335765214e-01   1.3587941663995246e-01   1.3855557737507071e-01   1.3057200717260822e-01   1.3525185364081180e-01   1.2088899042574937e-01   1.2786700133072443e-01   1.0741409231614292e-01   1.1642831139161317e-01   9.1823442288840193e-02   1.0209255033341555e-01   7.6203052758526804e-02   8.6758826456586655e-02   6.2220247188513024e-02   7.2266768962915742e-02   5.0735179535984276e-02   5.9810261837986420e-02   4.1861472664119742e-02   4.9827572562876586e-02   3.5254131251374027e-02   4.2187014546010468e-02   3.0418837123797199e-02   3.6481349092141895e-02   2.6899917685182993e-02   3.2264812130487035e-02   2.4340826851374512e-02   2.9160678536202068e-02   2.2480974395047301e-02   2.6881007598872561e-02   2.1135312326235080e-02   2.5214636569736753e-02   2.0174350171156402e-02   2.4010151973126292e-02   1.9508595502310509e-02   2.3160877575524690e-02   1.9077342364029498e-02   2.2593139842331158e-02   2.2257620672343995e-02   1.5105768548843582e-01   1.5077860186211942e-01   1.6243932035907141e-01   1.4727068690029621e-01   1.6057637403027256e-01   1.3976525955882921e-01   1.5496095314642150e-01   1.2837664142060762e-01   1.45232127