<?xml version="1.0"?>
<VTKFile type="UnstructuredGrid"  version="0.1"  >
<UnstructuredGrid>
<Piece  NumberOfPoints="614" NumberOfCells="1735">
<Points>
<DataArray  type="Float64"  NumberOfComponents="3"  format="ascii">2.792173913043478 0.2166666666666667 0  2.792173913043478 0.2333333333333333 0  2.808695652173913 0.2333333333333333 0  2.445217391304348 0.2333333333333333 0  2.461739130434782 0.2333333333333333 0  2.461739130434782 0.25 0  2.445217391304348 0.25 0  2.478260869565217 0.2333333333333333 0  2.478260869565217 0.25 0  2.494782608695652 0.2333333333333333 0  2.494782608695652 0.25 0  2.511304347826087 0.2333333333333333 0  2.511304347826087 0.25 0  2.527826086956522 0.2333333333333333 0  2.527826086956522 0.25 0  2.544347826086956 0.2333333333333333 0  2.544347826086956 0.25 0  2.560869565217391 0.2333333333333333 0  2.560869565217391 0.25 0  2.577391304347826 0.2333333333333333 0  2.577391304347826 0.25 0  2.593913043478261 0.2333333333333333 0  2.593913043478261 0.25 0  2.610434782608696 0.2333333333333333 0  2.610434782608696 0.25 0  2.62695652173913 0.2333333333333333 0  2.62695652173913 0.25 0  2.643478260869565 0.2333333333333333 0  2.643478260869565 0.25 0  2.66 0.2333333333333333 0  2.66 0.25 0  2.676521739130435 0.2333333333333333 0  2.676521739130435 0.25 0  2.693043478260869 0.2333333333333333 0  2.693043478260869 0.25 0  2.709565217391304 0.2333333333333333 0  2.709565217391304 0.25 0  2.726086956521739 0.2333333333333333 0  2.726086956521739 0.25 0  2.742608695652174 0.2333333333333333 0  2.742608695652174 0.25 0  2.759130434782609 0.2333333333333333 0  2.759130434782609 0.25 0  2.775652173913044 0.2333333333333333 0  2.775652173913044 0.25 0  2.792173913043478 0.25 0  2.808695652173913 0.25 0  2.825217391304347 0.25 0  2.28 0.25 0  2.296521739130434 0.25 0  2.296521739130434 0.2666666666666667 0  2.28 0.2666666666666667 0  2.31304347826087 0.25 0  2.31304347826087 0.2666666666666667 0  2.329565217391304 0.25 0  2.329565217391304 0.2666666666666667 0  2.346086956521739 0.25 0  2.346086956521739 0.2666666666666667 0  2.362608695652174 0.25 0  2.362608695652174 0.2666666666666667 0  2.379130434782609 0.25 0  2.379130434782609 0.2666666666666667 0  2.395652173913044 0.25 0  2.395652173913044 0.2666666666666667 0  2.412173913043478 0.25 0  2.412173913043478 0.2666666666666667 0  2.428695652173913 0.25 0  2.428695652173913 0.2666666666666667 0  2.445217391304348 0.2666666666666667 0  2.461739130434782 0.2666666666666667 0  2.478260869565217 0.2666666666666667 0  2.494782608695652 0.2666666666666667 0  2.511304347826087 0.2666666666666667 0  2.527826086956522 0.2666666666666667 0  2.544347826086956 0.2666666666666667 0  2.560869565217391 0.2666666666666667 0  2.577391304347826 0.2666666666666667 0  2.593913043478261 0.2666666666666667 0  2.610434782608696 0.2666666666666667 0  2.62695652173913 0.2666666666666667 0  2.643478260869565 0.2666666666666667 0  2.66 0.2666666666666667 0  2.676521739130435 0.2666666666666667 0  2.693043478260869 0.2666666666666667 0  2.709565217391304 0.2666666666666667 0  2.726086956521739 0.2666666666666667 0  2.742608695652174 0.2666666666666667 0  2.759130434782609 0.2666666666666667 0  2.775652173913044 0.2666666666666667 0  2.792173913043478 0.2666666666666667 0  2.808695652173913 0.2666666666666667 0  2.825217391304347 0.2666666666666667 0  2.841739130434783 0.2666666666666667 0  2.24695652173913 0.2666666666666667 0  2.263478260869565 0.2666666666666667 0  2.263478260869565 0.2833333333333333 0  2.28 0.2833333333333333 0  2.296521739130434 0.2833333333333333 0  2.31304347826087 0.2833333333333333 0  2.329565217391304 0.2833333333333333 0  2.346086956521739 0.2833333333333333 0  2.362608695652174 0.2833333333333333 0  2.379130434782609 0.2833333333333333 0  2.395652173913044 0.2833333333333333 0  2.412173913043478 0.2833333333333333 0  2.428695652173913 0.2833333333333333 0  2.445217391304348 0.2833333333333333 0  2.461739130434782 0.2833333333333333 0  2.478260869565217 0.2833333333333333 0  2.494782608695652 0.2833333333333333 0  2.511304347826087 0.2833333333333333 0  2.527826086956522 0.2833333333333333 0  2.544347826086956 0.2833333333333333 0  2.560869565217391 0.2833333333333333 0  2.577391304347826 0.2833333333333333 0  2.593913043478261 0.2833333333333333 0  2.610434782608696 0.2833333333333333 0  2.62695652173913 0.2833333333333333 0  2.643478260869565 0.2833333333333333 0  2.66 0.2833333333333333 0  2.676521739130435 0.2833333333333333 0  2.693043478260869 0.2833333333333333 0  2.709565217391304 0.2833333333333333 0  2.726086956521739 0.2833333333333333 0  2.742608695652174 0.2833333333333333 0  2.759130434782609 0.2833333333333333 0  2.775652173913044 0.2833333333333333 0  2.792173913043478 0.2833333333333333 0  2.808695652173913 0.2833333333333333 0  2.825217391304347 0.2833333333333333 0  2.841739130434783 0.2833333333333333 0  2.858260869565217 0.2833333333333333 0  2.28 0.3 0  2.296521739130434 0.3 0  2.31304347826087 0.3 0  2.329565217391304 0.3 0  2.346086956521739 0.3 0  2.362608695652174 0.3 0  2.379130434782609 0.3 0  2.395652173913044 0.3 0  2.412173913043478 0.3 0  2.428695652173913 0.3 0  2.445217391304348 0.3 0  2.461739130434782 0.3 0  2.478260869565217 0.3 0  2.494782608695652 0.3 0  2.511304347826087 0.3 0  2.527826086956522 0.3 0  2.544347826086956 0.3 0  2.560869565217391 0.3 0  2.577391304347826 0.3 0  2.593913043478261 0.3 0  2.610434782608696 0.3 0  2.62695652173913 0.3 0  2.643478260869565 0.3 0  2.66 0.3 0  2.676521739130435 0.3 0  2.693043478260869 0.3 0  2.709565217391304 0.3 0  2.726086956521739 0.3 0  2.742608695652174 0.3 0  2.759130434782609 0.3 0  2.775652173913044 0.3 0  2.792173913043478 0.3 0  2.808695652173913 0.3 0  2.825217391304347 0.3 0  2.841739130434783 0.3 0  2.858260869565217 0.3 0  2.874782608695652 0.3 0  2.296521739130434 0.3166666666666667 0  2.31304347826087 0.3166666666666667 0  2.329565217391304 0.3166666666666667 0  2.346086956521739 0.3166666666666667 0  2.362608695652174 0.3166666666666667 0  2.379130434782609 0.3166666666666667 0  2.395652173913044 0.3166666666666667 0  2.412173913043478 0.3166666666666667 0  2.428695652173913 0.3166666666666667 0  2.445217391304348 0.3166666666666667 0  2.461739130434782 0.3166666666666667 0  2.478260869565217 0.3166666666666667 0  2.494782608695652 0.3166666666666667 0  2.511304347826087 0.3166666666666667 0  2.527826086956522 0.3166666666666667 0  2.544347826086956 0.3166666666666667 0  2.560869565217391 0.3166666666666667 0  2.577391304347826 0.3166666666666667 0  2.593913043478261 0.3166666666666667 0  2.610434782608696 0.3166666666666667 0  2.62695652173913 0.3166666666666667 0  2.643478260869565 0.3166666666666667 0  2.66 0.3166666666666667 0  2.676521739130435 0.3166666666666667 0  2.693043478260869 0.3166666666666667 0  2.709565217391304 0.3166666666666667 0  2.726086956521739 0.3166666666666667 0  2.742608695652174 0.3166666666666667 0  2.759130434782609 0.3166666666666667 0  2.775652173913044 0.3166666666666667 0  2.792173913043478 0.3166666666666667 0  2.808695652173913 0.3166666666666667 0  2.825217391304347 0.3166666666666667 0  2.841739130434783 0.3166666666666667 0  2.858260869565217 0.3166666666666667 0  2.874782608695652 0.3166666666666667 0  2.891304347826087 0.3166666666666667 0  2.31304347826087 0.3333333333333333 0  2.329565217391304 0.3333333333333333 0  2.346086956521739 0.3333333333333333 0  2.362608695652174 0.3333333333333333 0  2.379130434782609 0.3333333333333333 0  2.395652173913044 0.3333333333333333 0  2.412173913043478 0.3333333333333333 0  2.428695652173913 0.3333333333333333 0  2.445217391304348 0.3333333333333333 0  2.461739130434782 0.3333333333333333 0  2.478260869565217 0.3333333333333333 0  2.494782608695652 0.3333333333333333 0  2.511304347826087 0.3333333333333333 0  2.527826086956522 0.3333333333333333 0  2.544347826086956 0.3333333333333333 0  2.560869565217391 0.3333333333333333 0  2.577391304347826 0.3333333333333333 0  2.593913043478261 0.3333333333333333 0  2.610434782608696 0.3333333333333333 0  2.62695652173913 0.3333333333333333 0  2.643478260869565 0.3333333333333333 0  2.66 0.3333333333333333 0  2.676521739130435 0.3333333333333333 0  2.693043478260869 0.3333333333333333 0  2.709565217391304 0.3333333333333333 0  2.726086956521739 0.3333333333333333 0  2.742608695652174 0.3333333333333333 0  2.759130434782609 0.3333333333333333 0  2.775652173913044 0.3333333333333333 0  2.792173913043478 0.3333333333333333 0  2.808695652173913 0.3333333333333333 0  2.825217391304347 0.3333333333333333 0  2.841739130434783 0.3333333333333333 0  2.858260869565217 0.3333333333333333 0  2.874782608695652 0.3333333333333333 0  2.891304347826087 0.3333333333333333 0  2.907826086956522 0.3333333333333333 0  2.329565217391304 0.35 0  2.346086956521739 0.35 0  2.362608695652174 0.35 0  2.379130434782609 0.35 0  2.395652173913044 0.35 0  2.412173913043478 0.35 0  2.428695652173913 0.35 0  2.445217391304348 0.35 0  2.461739130434782 0.35 0  2.478260869565217 0.35 0  2.494782608695652 0.35 0  2.511304347826087 0.35 0  2.527826086956522 0.35 0  2.544347826086956 0.35 0  2.560869565217391 0.35 0  2.577391304347826 0.35 0  2.593913043478261 0.35 0  2.610434782608696 0.35 0  2.62695652173913 0.35 0  2.643478260869565 0.35 0  2.66 0.35 0  2.676521739130435 0.35 0  2.693043478260869 0.35 0  2.709565217391304 0.35 0  2.726086956521739 0.35 0  2.742608695652174 0.35 0  2.759130434782609 0.35 0  2.775652173913044 0.35 0  2.792173913043478 0.35 0  2.808695652173913 0.35 0  2.825217391304347 0.35 0  2.841739130434783 0.35 0  2.858260869565217 0.35 0  2.874782608695652 0.35 0  2.891304347826087 0.35 0  2.907826086956522 0.35 0  2.924347826086957 0.35 0  2.346086956521739 0.3666666666666666 0  2.362608695652174 0.3666666666666666 0  2.379130434782609 0.3666666666666666 0  2.395652173913044 0.3666666666666666 0  2.412173913043478 0.3666666666666666 0  2.428695652173913 0.3666666666666666 0  2.445217391304348 0.3666666666666666 0  2.461739130434782 0.3
[...]
<CellData  Scalars="f">
<DataArray  type="Float64"  Name="f"  format="ascii">0 0 0 0 0 0 0 0 0 0 0 0 0 0 0 0 0 0 0 0 0 0 0 0 0 0 0 0 0 0 0 0 0 0 0 0 0 0 0 0 0 0 0 0 0 0 0 0 0 0 0 0 0 0 0 0 0 0 0 0 0 0 0 0 0 0 0 0 0 0 0 0 0 0 0 0 0 0 0 0 0 0 0 0 0 0 0 0 0 0 0 0 0 0 0 0 0 0 0 0 0 0 0 0 0 0 0 0 0 0 0 0 0 0 0 0 0 0 0 0 0 0 0 0 0 0 0 0 0 0 0 0 0 0 0 0 0 0 0 0 0 0 0 0 0 0 0 0 0 0 0 0 0 0 0 0 0 0 0 0 0 0 0 0 0 0 0 0 0 0 0 0 0 0 0 0 0 0 0 0 0 0 0 0 0 0 0 0 0 0 0 0 0 0 0 0 0 0 0 0 0 0 0 0 0 0 0 0 0 0 0 0 0 0 0 0 0 0 0 0 0 0 0 0 0 0 0 0 0 0 0 0 0 0 0 0 0 0 0 0 0 0 0 0 0 0 0 0 0 0 0 0 0 0 0 0 0 0 0 0 0 0 0 0 0 0 0 0 0 0 0 0 0 0 0 0 0 0 0 0 0 0 0 0 0 0 0 0 0 0 0 0 0 0 0 0 0 0 0 0 0 0 0 0 0 0 0 0 0 0 0 0 0 0 0 0 0 0 0 0 0 0 0 0 0 0 0 0 0 0 0 0 0 0 0 0 0 0 0 0 0 0 0 0 0 0 0 0 0 0 0 0 0 0 0 0 0 0 0 0 0 0 0 0 0 0 0 0 0 0 0 0 0 0 0 0 0 0 0 0 0 0 0 0 0 0 0 0 0 0 0 0 0 0 0 0 0 0 0 0 0 0 0 0 0 0 0 0 0 0 0 0 0 0 0 0 0 0 0 0 0 0 0 0 0 0 0 0 0 0 0 0 0 0 0 0 0 0 0 0 0 0 0 0 0 0 0 0 0 0 0 0 0 0 0 0 0 0 0 0 0 0 0 0 0 0 0 0 0 0 0 0 0 0 0 0 0 0 0 0 0 0 0 0 0 0 0 0 0 0 0 0 0 0 0 0 0 0 0 0 0 0 0 0 0 0 0 0 0 0 0 0 0 0 0 0 0 0 0 0 0 0 0 0 0 0 0 0 0 0 0 0 0 0 0 0 0 0 0 0 0 0 0 0 0 0 0 0 0 0 0 0 0 0 0 0 0 0 0 0 0 0 0 0 0 0 0 0 0 0 0 0 0 0 0 0 0 0 0 0 0 0 0 0 0 0 0 0 0 0 0 0 0 0 0 0 0 0 0 0 0 0 0 0 0 0 0 0 0 0 0 0 0 0 0 0 0 0 0 0 0 0 0 0 0 0 0 0 0 0 0 0 0 0 0 0 0 0 0 0 0 0 0 0 0 0 0 0 0 0 0 0 0 0 0 0 0 0 0 0 0 0 0 0 0 0 0 0 0 0 0 0 0 0 0 0 0 0 0 0 0 0 0 0 0 0 0 0 0 0 0 0 0 0 0 0 0 0 0 0 0 0 0 0 0 0 0 0 0 0 0 0 0 0 0 0 0 0 0 0 0 0 0 0 0 0 0 0 0 0 0 0 0 0 0 0 0 0 0 0 0 0 0 0 0 0 0 0 0 0 0 0 0 0 0 0 0 0 0 0 0 0 0 0 0 0 0 0 0 0 0 0 0 0 0 0 0 0 0 0 0 0 0 0 0 0 0 0 0 0 0 0 0 0 0 0 0 0 0 0 0 0 0 0 0 0 0 0 0 0 0 0 0 0 0 0 0 0 0 0 0 0 0 0 0 0 0 0 0 0 0 0 0 0 0 0 0 0 0 0 0 0 0 0 0 0 0 0 0 0 0 0 0 0 0 0 0 0 0 0 0 0 0 0 0 0 0 0 0 0 0 0 0 0 0 0 0 0 0 0 0 0 0 0 0 0 0 0 0 0 0 0 0 0 0 0 0 0 0 0 0 0 0 0 0 0 0 0 0 0 0 0 0 0 0 0 0 0 0 0 0 0 0 0 0 0 0 0 0 0 0 0 0 0 0 0 0 0 0 0 0 0 0 0 0 0 0 0 0 0 0 0 0 0 0 0 0 0 0 0 0 0 0 0 0 0 0 0 0 0 0 0 0 0 0 0 0 0 0 0 0 0 0 0 0 0 0 0 0 0 0 0 0 0 0 0 0 0 0 0 0 0 0 0 0 0 0 0 0 0 0 0 0 0 0 0 0 0 0 0 0 0 0 0 0 0 0 0 0 0 0 0 0 0 0 0 0 0 0 0 0 0 0 0 0 0 0 0 0 0 0 0 0 0 0 0 0 0 0 0 0 0 0 0 0 0 0 0 0 0 0 0 0 0 0 0 0 0 0 0 0 0 0 0 0 0 0 0 0 0 0 0 0 0 0 0 0 0 0 0 0 0 0 0 0 0 0 0 0 0 0 0 0 0 0 0 0 0 0 0 0 0 0 0 0 0 0 0 0 0 0 0 0 0 0 0 0 0 0 0 0 0 0 0 0 0 0 0 0 0 0 0 0 0 0 0 0 0 0 0 0 0 0 0 0 0 0 0 0 0 0 0 0 0 0 0 0 0 0 0 0 0 0 0 0 0 0 0 0 0 0 0 0 0 0 0 0 0 0 0 0 0 0 0 0 0 0 0 0 0 0 0 0 0 0 0 0 0 0 0 0 0 0 0 0 0 0 0 0 0 0 0 0 0 0 0 0 0 0 0 0 0 0 0 0 0 0 0 0 0 0 0 0 0 0 0 0 0 0 0 0 0 0 0 0 0 0 0 0 0 0 0 0 0 0 0 0 0 0 0 0 0 0 0 0 0 0 0 0 0 0 0 0 0 0 0 0 0 0 0 0 0 0 0 0 0 0 0 0 0 0 0 0 0 0 0 0 0 0 0 0 0 0 0 0 0 0 0 0 0 0 0 0 0 0 0 0 0 0 0 0 0 0 0 0 0 0 0 0 0 0 0 0 0 0 0 0 0 0 0 0 0 0 0 0 0 0 0 0 0 0 0 0 0 0 0 0 0 0 0 0 0 0 0 0 0 0 0 0 0 0 0 0 0 0 0 0 0 0 0 0 0 0 0 0 0 0 0 0 0 0 0 0 0 0 0 0 0 0 0 0 0 0 0 0 0 0 0 0 0 0 0 0 0 0 0 0 0 0 0 0 0 0 0 0 0 0 0 0 0 0 0 0 0 0 0 0 0 0 0 0 0 0 0 0 0 0 0 0 0 0 0 0 0 0 0 0 0 0 0 0 0 0 0 0 0 0 0 0 0 0 0 0 0 0 0 0 0 0 0 0 0 0 0 0 0 0 0 0 0 0 0 0 0 0 0 0 0 0 0 0 0 0 0 0 0 0 0 0 0 0 0 0 0 0 0 0 0 0 0 0 0 0 0 0 0 0 0 0 0 0 0 0 0 0 0 0 0 0 0 0 0 0 0 0 0 0 0 0 0 0 0 0 0 0 0 0 0 0 0 0 0 0 0 0 0 0 0 0 0 0 0 0 0 0 0 0 0 0 0 0 0 0 0 0 0 0 0 0 0 0 0 0 0 0 0 0 0 0 0 0 0 0 0 0 0 0 0 0 0 0 0 0 0 0 0 0 0 0 0 0 0 0 0 0 0 0 0 0 0 0 0 0 0 0 0 0 0 0 0 0 0 0 0 0 0 0 0 0 0 0 0 0 0 0 0 0 0 0 0 0 0 0 0 0 0 0 0 0 0 0 0 0 0 0 0 0 0 0 0 0 0 0 0 0 0 0 0 0 0 0 0 0 0 0 0 0 0 0 0 0 0 0 0 0 0 0 0 0 0 0 0 0 0 0 </DataArray>
</CellData>
</Piece>
</UnstructuredGrid>
</VTKFile>