<?xml version="1.0"?>
<VTKFile type="UnstructuredGrid"  version="0.1"  >
<UnstructuredGrid>
<Piece  NumberOfPoints="28121" NumberOfCells="55200">
<Points>
<DataArray  type="Float64"  NumberOfComponents="3"  format="ascii">0 0 0  0.008260869565217391 0 0  0.01652173913043478 0 0  0.02478260869565217 0 0  0.03304347826086956 0 0  0.04130434782608695 0 0  0.04956521739130434 0 0  0.05782608695652174 0 0  0.06608695652173913 0 0  0.07434782608695652 0 0  0.08260869565217391 0 0  0.0908695652173913 0 0  0.09913043478260869 0 0  0.1073913043478261 0 0  0.1156521739130435 0 0  0.1239130434782609 0 0  0.1321739130434783 0 0  0.1404347826086956 0 0  0.148695652173913 0 0  0.1569565217391304 0 0  0.1652173913043478 0 0  0.1734782608695652 0 0  0.1817391304347826 0 0  0.19 0 0  0.1982608695652174 0 0  0.2065217391304348 0 0  0.2147826086956522 0 0  0.2230434782608696 0 0  0.2313043478260869 0 0  0.2395652173913043 0 0  0.2478260869565218 0 0  0.2560869565217391 0 0  0.2643478260869565 0 0  0.2726086956521739 0 0  0.2808695652173913 0 0  0.2891304347826087 0 0  0.2973913043478261 0 0  0.3056521739130434 0 0  0.3139130434782609 0 0  0.3221739130434783 0 0  0.3304347826086956 0 0  0.338695652173913 0 0  0.3469565217391304 0 0  0.3552173913043478 0 0  0.3634782608695652 0 0  0.3717391304347826 0 0  0.3799999999999999 0 0  0.3882608695652174 0 0  0.3965217391304348 0 0  0.4047826086956521 0 0  0.4130434782608696 0 0  0.4213043478260869 0 0  0.4295652173913043 0 0  0.4378260869565217 0 0  0.4460869565217391 0 0  0.4543478260869565 0 0  0.4626086956521739 0 0  0.4708695652173913 0 0  0.4791304347826086 0 0  0.4873913043478261 0 0  0.4956521739130435 0 0  0.5039130434782608 0 0  0.5121739130434783 0 0  0.5204347826086956 0 0  0.528695652173913 0 0  0.5369565217391304 0 0  0.5452173913043478 0 0  0.5534782608695652 0 0  0.5617391304347825 0 0  0.57 0 0  0.5782608695652174 0 0  0.5865217391304348 0 0  0.5947826086956521 0 0  0.6030434782608696 0 0  0.6113043478260869 0 0  0.6195652173913043 0 0  0.6278260869565218 0 0  0.6360869565217391 0 0  0.6443478260869565 0 0  0.6526086956521739 0 0  0.6608695652173913 0 0  0.6691304347826087 0 0  0.677391304347826 0 0  0.6856521739130435 0 0  0.6939130434782609 0 0  0.7021739130434783 0 0  0.7104347826086956 0 0  0.718695652173913 0 0  0.7269565217391304 0 0  0.7352173913043478 0 0  0.7434782608695653 0 0  0.7517391304347827 0 0  0.7599999999999999 0 0  0.7682608695652173 0 0  0.7765217391304348 0 0  0.7847826086956522 0 0  0.7930434782608695 0 0  0.8013043478260868 0 0  0.8095652173913043 0 0  0.8178260869565217 0 0  0.8260869565217391 0 0  0.8343478260869565 0 0  0.8426086956521739 0 0  0.8508695652173912 0 0  0.8591304347826086 0 0  0.8673913043478261 0 0  0.8756521739130434 0 0  0.8839130434782608 0 0  0.8921739130434783 0 0  0.9004347826086956 0 0  0.908695652173913 0 0  0.9169565217391303 0 0  0.9252173913043478 0 0  0.9334782608695652 0 0  0.9417391304347826 0 0  0.95 0 0  0.9582608695652173 0 0  0.9665217391304347 0 0  0.9747826086956521 0 0  0.9830434782608696 0 0  0.991304347826087 0 0  0.9995652173913042 0 0  1.007826086956522 0 0  1.016086956521739 0 0  1.024347826086957 0 0  1.032608695652174 0 0  1.040869565217391 0 0  1.049130434782609 0 0  1.057391304347826 0 0  1.065652173913043 0 0  1.073913043478261 0 0  1.082173913043478 0 0  1.090434782608696 0 0  1.098695652173913 0 0  1.10695652173913 0 0  1.115217391304348 0 0  1.123478260869565 0 0  1.131739130434783 0 0  1.14 0 0  1.148260869565217 0 0  1.156521739130435 0 0  1.164782608695652 0 0  1.17304347826087 0 0  1.181304347826087 0 0  1.189565217391304 0 0  1.197826086956522 0 0  1.206086956521739 0 0  1.214347826086956 0 0  1.222608695652174 0 0  1.230869565217391 0 0  1.239130434782609 0 0  1.247391304347826 0 0  1.255652173913044 0 0  1.263913043478261 0 0  1.272173913043478 0 0  1.280434782608696 0 0  1.288695652173913 0 0  1.296956521739131 0 0  1.305217391304348 0 0  1.313478260869565 0 0  1.321739130434783 0 0  1.33 0 0  1.338260869565217 0 0  1.346521739130435 0 0  1.354782608695652 0 0  1.36304347826087 0 0  1.371304347826087 0 0  1.379565217391304 0 0  1.387826086956522 0 0  1.396086956521739 0 0  1.404347826086957 0 0  1.412608695652174 0 0  1.420869565217391 0 0  1.429130434782609 0 0  1.437391304347826 0 0  1.445652173913043 0 0  1.453913043478261 0 0  1.462173913043478 0 0  1.470434782608696 0 0  1.478695652173913 0 0  1.486956521739131 0 0  1.495217391304348 0 0  1.503478260869565 0 0  1.511739130434782 0 0  1.52 0 0  1.528260869565217 0 0  1.536521739130435 0 0  1.544782608695652 0 0  1.55304347826087 0 0  1.561304347826087 0 0  1.569565217391304 0 0  1.577826086956522 0 0  1.586086956521739 0 0  1.594347826086957 0 0  1.602608695652174 0 0  1.610869565217391 0 0  1.619130434782609 0 0  1.627391304347826 0 0  1.635652173913043 0 0  1.643913043478261 0 0  1.652173913043478 0 0  1.660434782608696 0 0  1.668695652173913 0 0  1.67695652173913 0 0  1.685217391304348 0 0  1.693478260869565 0 0  1.701739130434782 0 0  1.71 0 0  1.718260869565217 0 0  1.726521739130435 0 0  1.734782608695652 0 0  1.743043478260869 0 0  1.751304347826087 0 0  1.759565217391304 0 0  1.767826086956522 0 0  1.776086956521739 0 0  1.784347826086957 0 0  1.792608695652174 0 0  1.800869565217391 0 0  1.809130434782608 0 0  1.817391304347826 0 0  1.825652173913043 0 0  1.833913043478261 0 0  1.842173913043478 0 0  1.850434782608696 0 0  1.858695652173913 0 0  1.86695652173913 0 0  1.875217391304348 0 0  1.883478260869565 0 0  1.891739130434782 0 0  1.9 0 0  1.908260869565217 0 0  1.916521739130435 0 0  1.924782608695652 0 0  1.933043478260869 0 0  1.941304347826087 0 0  1.949565217391304 0 0  1.957826086956522 0 0  1.966086956521739 0 0  1.974347826086956 0 0  1.982608695652174 0 0  1.990869565217391 0 0  1.999130434782608 0 0  2.007391304347826 0 0  2.015652173913043 0 0  2.023913043478261 0 0  2.032173913043478 0 0  2.040434782608695 0 0  2.048695652173913 0 0  2.05695652173913 0 0  2.065217391304348 0 0  2.073478260869565 0 0  2.081739130434782 0 0  2.09 0 0  2.098260869565217 0 0  2.106521739130435 0 0  2.114782608695652 0 0  2.12304347826087 0 0  2.131304347826087 0 0  2.139565217391304 0 0  2.147826086956522 0 0  2.156086956521739 0 0  2.164347826086956 0 0  2.172608695652174 0 0  2.180869565217391 0 0  2.189130434782609 0 0  2.197391304347826 0 0  2.205652173913043 0 0  2.213913043478261 0 0  2.222173913043478 0 0  2.230434782608695 0 0  2.238695652173913 0 0  2.24695652173913 0 0  2.255217391304348 0 0  2.263478260869565 0 0  2.271739130434783 0 0  2.28 0 0  2.288260869565217 0 0  2.296521739130434 0 0  2.304782608695652 0 0  2.31304347826087 0 0  2.321304347826087 0 0  2.329565217391304 0 0  2.337826086956521 0 0  2.346086956521739 0 0  2.354347826086956 0 0  2.362608695652174 0 0  2.370869565217391 0 0  2.379130434782609 0 0  2.387391304347826 0 0  2.395652173913044 0 0  2.403913043478261 0 0  2.412173913043478 0 0  2.420434782608695 0 0  2.428695652173913 0 0  2.43695652173913 0 0  2.445217391304348 0 0  2.453478260869565 0 0  2.461739130434782 0 0  2.47 0 0  2.478260869565217 0 0  2.486521739130435 0 0  2.494782608695652 0 0  2.503043478260869 0 0  2.511304347826087 0 0  2.519565217391305 0 0  2.527826086956522 0 0  2.536086956521739 0 0  2.544347826086956 0 0  2.552608695652174 0 0  2.560869565217391 0 0  2.569130434782608 0 0  2.577391304347826 0 0  2.585652173913043 0 0  2.593913043478261 0 0  2.602173913043478 0 0  2.610434782608696 0 0  2.618695652173913 0 0  2.62695652173913 0 0  2.635217391304348 0 0  2.643478260869565 0 0  2.651739130434783 0 0  2.66 0 0  2.668260869565217 0 0  2.676521739130435 0 0  2.684782608695652 0 0  2.693043478260869 0 0  2.701304347826087 0 0  2.709565217391304 0 0  2.717826086956522 0 0  2.726086956521739 0 0  2.734347826086956 0 0  2.742608695652174 0 0  2.750869565217391 0 0  2.759130434782609 0 0  2.767391304347826 0 0  2.775652173913044 0 0  2.783913043478261 0 0  2.792173913043478 0 0  2.800434782608696 0 0  2.808695652173913 0 0  2.81695652173913 0 0  2.825217391304347 0 0  2.833478260869565 0 0  2.841739130434783 0 0  2.85 0 0  2.858260869565217 0 0  2.866521739130435 0 0  2.874782608695652 0 0  2.88304347826087 0 0  2.891304347826087 0 0  2.899565217391304 0 0  2.907826086956522 0 0  2.916086956521739 0 0  2.924347826086957 0 0  2.932608695652174 0 0  2.940869565217391 0 0  2.949130434782608 0 0  2.957391304347826 0 0  2.965652173913043 0 0  2.973913043478261 0 0  2.982173913043478 0 0  2.990434782608696 0 0  2.998695652173913 0 0  3.006956521739131 0 0  3.015217391304348 0 0  3.023478260869565 0 0  3.031739130434782 0 0  3.04 0 0  3.048260869565218 0 0  3.056521739130435 0 0  3.064782608695652 0 0  3.073043478260869 0 0  3.081304347826087 0 0  3.089565217391304 0 0  3.097826086956522 0 0  3.106086956521739 0 0  3.114347826086956 0 0  3.122608695652174 0 0  3.130869565217391 0 0  3.139130434782609 0 0  3.147391304347826 0 0  3.155652173913043 0 0  3.163913043478261 0 0  3.172173913043478 0 0  3.180434782608696 0 0  3.188695652173913 0 0  3.19695652173913 0 0  3.205217391304347 0 0  3.213478260869565 0 0  3.221739130434782 0 0  3.23 0 0  3.238260869565217 0 0  3.246521739130435 0 0  3.254782608695652 0 0  3.26304347826087 0 0  3.271304347826087 0 0  3.279565217391304 0 0  3.287826086956521 0 0  3.296086956521739 0 0  3.304347826086957 0 0  3.312608695652174 0 0  3.320869565217391 0 0  3.329130434782608 0 0  3.337391304347826 0 0  3.345652173913043 0 0  3.353913043478261 0 0  3.362173913043478 0 0  3.370434782608696 0 0  3.378695652173913 0 0  3.386956521739131 0 0  3.395217391304348 0 0  3.403478260869565 0 0  3.411739130434782 0 0  3.419999999999999 0 0  3.428260869565217 0 0  3.436521739130435 0 0  3.444782608695652 0 0  3.453043478260869 0 0  3.461304347826087 0 0  3.469565217391304 0 0  3.477826086956522 0 0  3.486086956521739 0 0  3.494347826086956 0 0  3.502608695652174 0 0  3.510869565217391 0 0  3.519130434782609 0 0  3.527391304347826 0 0  3.535652173913043 0 0  3.54391304347826
[...]
<PointData  Scalars="rho_bar"> 
<DataArray  type="Float64"  Name="rho_bar"  format="ascii">9.9999842234589742e-01  9.9999809911121895e-01  9.9999775630609788e-01  9.9999716509738679e-01  9.9999680895110665e-01  9.9999732588168344e-01  9.9999892538404278e-01  9.9999987997437634e-01  9.9999617621661174e-01  9.9998641416346101e-01  9.9998206615577467e-01  1.0000026362293135e+00  1.0000316900895350e+00  9.9999525143477985e-01  9.9987409415354711e-01  9.9981954923746785e-01  9.9998539579118328e-01  1.0002660115992499e+00  1.0004158104127288e+00  1.0003742266968008e+00  1.0002715444918102e+00  1.0001934143196043e+00  1.0001036013665916e+00  9.9995898324050625e-01  9.9979858162385815e-01  9.9970508557343629e-01  9.9971547939180783e-01  9.9979346035540606e-01  9.9987733791608291e-01  9.9993062151764145e-01  9.9995078013910499e-01  9.9995311713629942e-01  9.9995398741737540e-01  9.9996109373041087e-01  9.9997204153038577e-01  9.9998063151871663e-01  9.9998481822025220e-01  9.9998710379635625e-01  9.9998932939902929e-01  9.9999114991324833e-01  9.9999239631512915e-01  9.9999303955385543e-01  9.9999328101294338e-01  9.9999429411625340e-01  9.9999075889819145e-01  9.9999098582540558e-01  1.0000022650194473e+00  9.9996112192591813e-01  9.9991901008748152e-01  1.0000833722376656e+00  1.0002529379700149e+00  9.9992506733122888e-01  9.9917314512140087e-01  9.9849254713717972e-01  9.9805529678557470e-01  9.9775174583046156e-01  9.9752027850367486e-01  9.9737316961735611e-01  9.9732277517618395e-01  9.9735448949929473e-01  9.9743582341700876e-01  9.9753585237322784e-01  9.9763344914108787e-01  9.9771527439132945e-01  9.9777361691944899e-01  9.9780593837547582e-01  9.9781424774374605e-01  9.9780362910707532e-01  9.9778150777765373e-01  9.9775675038591494e-01  9.9773666698443708e-01  9.9772357110928678e-01  9.9771473350610596e-01  9.9770571748469516e-01  9.9769378880929216e-01  9.9767859566306261e-01  9.9766095769704777e-01  9.9764095205289349e-01  9.9761763230140976e-01  9.9759154567263919e-01  9.9756659866233677e-01  9.9754814508591549e-01  9.9754077418592724e-01  9.9754774981482408e-01  9.9757064935282003e-01  9.9760853396699944e-01  9.9765768047986925e-01  9.9771273734402310e-01  9.9776858126384593e-01  9.9782060738437850e-01  9.9786471196485182e-01  9.9789788819015268e-01  9.9791850072564225e-01  9.9792587275710620e-01  9.9791991560929205e-01  9.9790080649313728e-01  9.9786909195420048e-01  9.9782571351178107e-01  9.9777159087920109e-01  9.9770704135770705e-01  9.9763227591405979e-01  9.9754827183132844e-01  9.9745682419883097e-01  9.9736020894073985e-01  9.9726169128568598e-01  9.9716554612215291e-01  9.9707571446427423e-01  9.9699426544051206e-01  9.9692143377754705e-01  9.9685640820919263e-01  9.9679815055314802e-01  9.9674578806929226e-01  9.9669859495172186e-01  9.9665559292133366e-01  9.9661555391862899e-01  9.9657711587394793e-01  9.9653901344729678e-01  9.9650005521950391e-01  9.9645930110388736e-01  9.9641637564414232e-01  9.9637189107107305e-01  9.9632709611448056e-01  9.9628338155602880e-01  9.9624166723565621e-01  9.9620140187594552e-01  9.9616017738081997e-01  9.9611577815265206e-01  9.9606820357752790e-01  9.9602006573295210e-01  9.9597491517723713e-01  9.9593485778006363e-01  9.9590010306824672e-01  9.9587096544699338e-01  9.9584856389986731e-01  9.9583328394798321e-01  9.9582331785495826e-01  9.9581574224564151e-01  9.9580768662057295e-01  9.9579658443670072e-01  9.9578039779638761e-01  9.9575818834586249e-01  9.9573009789937506e-01  9.9569750201904161e-01  9.9566205543501562e-01  9.9562415074870758e-01  9.9558367462178043e-01  9.9554208392667964e-01  9.9550115431012354e-01  9.9546167907300198e-01  9.9542421785579849e-01  9.9538940298195899e-01  9.9535714776950002e-01  9.9532702679077867e-01  9.9529838191001929e-01  9.9527012032462459e-01  9.9524107489464830e-01  9.9521119934282187e-01  9.9518157709646993e-01  9.9515377792121207e-01  9.9512877704788649e-01  9.9510582622919841e-01  9.9508230359225136e-01  9.9505625845498868e-01  9.9502737500577554e-01  9.9499611262693244e-01  9.9496402621031443e-01  9.9493338321034219e-01  9.9490478511587810e-01  9.9487846439075578e-01  9.9485691539428234e-01  9.9484413936167293e-01  9.9484223632048563e-01  9.9485307178710669e-01  9.9488345733442340e-01  9.9493167072145328e-01  9.9497113115109037e-01  9.9496738598353252e-01  9.9487500058881717e-01  9.9472853383459769e-01  9.9492829842307207e-01  9.9592941759409792e-01  9.9737323825482582e-01  9.9849087225653954e-01  9.9914013028562021e-01  9.9952312440090807e-01  9.9972156164907366e-01  9.9983445555266270e-01  9.9989222253542276e-01  9.9981574802300022e-01  9.9977863048219417e-01  1.0000924832599860e+00  1.0002729011552061e+00  9.9936696774247724e-01  9.9793452999594778e-01  9.9775856868538104e-01  9.9891649912875746e-01  9.9953312835385433e-01  9.9849075991560443e-01  9.9645284414628277e-01  9.9508667206215240e-01  9.9557120460349324e-01  9.9710532597330936e-01  9.9825926153261080e-01  9.9887969901307383e-01  9.9929014405214600e-01  9.9946224273052731e-01  9.9952133562433365e-01  9.9973314814913605e-01  9.9927402270984977e-01  9.9814889002449425e-01  9.9880714740336152e-01  9.9964949617795851e-01  9.9495257947711102e-01  9.8405863233357316e-01  9.7112596330527468e-01  9.5982478291648987e-01  9.5238440061304819e-01  9.4945214643322107e-01  9.5010322277918513e-01  9.5282309122190911e-01  9.5634603839068666e-01  9.5987922816773863e-01  9.6302602557865602e-01  9.6563020930548538e-01  9.6766242764868926e-01  9.6915587827575389e-01  9.7017605111344862e-01  9.7081239969886246e-01  9.7118109530212360e-01  9.7141259095325339e-01  9.7162452767649976e-01  9.7189258365324283e-01  9.7224101930967455e-01  9.7265474763189708e-01  9.7310941887216851e-01  9.7359113895027849e-01  9.7409467274764194e-01  9.7461070650525272e-01  9.7512530076788106e-01  9.7562599236989123e-01  9.7611037877033691e-01  9.7658469205190446e-01  9.7705766246648984e-01  9.7753374237349344e-01  9.7801271099910714e-01  9.7849011143514197e-01  9.7896025017470345e-01  9.7941716553024383e-01  9.7985707721850845e-01  9.8027874609823140e-01  9.8068470167337563e-01  9.8108034776307784e-01  9.8147390661786815e-01  9.8187368236539607e-01  9.8228724951702140e-01  9.8272016328864720e-01  9.8317261625095420e-01  9.8363343721635044e-01  9.8408519626059388e-01  9.8451314192217454e-01  9.8490924282379111e-01  9.8527131926639111e-01  9.8560280442764658e-01  9.8590924113404421e-01  9.8619608285638849e-01  9.8646779982075627e-01  9.8672957341191758e-01  9.8698644339968300e-01  9.8724211737863810e-01  9.8749763909995147e-01  9.8775248908136271e-01  9.8800405778728362e-01  9.8824727022040337e-01  9.8847260785859947e-01  9.8866518552675586e-01  9.8880613086801150e-01  9.8887701535070571e-01  9.8885898802942229e-01  9.8872928940554039e-01  9.8845834060165649e-01  9.8801220410786561e-01  9.8736553964420903e-01  9.8653752355773783e-01  9.8566683607004213e-01  9.8509842250157775e-01  9.8527154910058534e-01  9.8629347342416285e-01  9.8792775355779971e-01  9.9024698524513033e-01  9.9324121421370770e-01  9.9597721711536746e-01  9.9766823391110127e-01  9.9855733883704845e-01  9.9906441764889631e-01  9.9933606044363532e-01  9.9943055176826268e-01  9.9948453878508137e-01  9.9958857635023046e-01  9.9895489196627929e-01  9.9778751020213929e-01  9.9855248141256203e-01  9.9751756614656706e-01  9.8531564670619431e-01  9.6102486334994097e-01  9.2690521169532136e-01  8.8486883400497274e-01  8.4717492837114661e-01  8.2566077645462721e-01  8.2075876761436051e-01  8.2665030830760289e-01  8.3747147663045662e-01  8.4928896499367379e-01  8.5997527091617953e-01  8.6855625455379359e-01  8.7469664537764769e-01  8.7839853553113922e-01  8.7985893730180453e-01  8.7940398846485623e-01  8.7747723826164015e-01  8.7462395677921478e-01  8.7145310950221544e-01  8.6855381786515262e-01  8.6639515996017991e-01  8.6524672785659429e-01  8.6516418796811845e-01  8.6601213939084021e-01  8.6752423530568745e-01  8.6937676658909468e-01  8.7128253650271104e-01  8.7305496026986762e-01  8.7463131645023895e-01  8.7605290192523066e-01  8.7743086697606931e-01  8.7889145279390768e-01  8.8053348821683985e-01  8.8240426536896222e-01  8.8450100630579198e-01  8.8677477842510399e-01  8.8915169991851473e-01  8.9155345637687577e-01  8.9392144672107843e-01  8.9622014596729249e-01  8.9843484631570558e-01  9.0055695170747829e-01  9.0257832489046685e-01  9.0448713162079053e-01  9.0627812142400954e-01  9.0796184592443074e-01  9.0957604278976445e-01  9.1118018642632403e-01  9.1284554522107175e-01  9.1463762526628145e-01  9.1661147130430543e-01  9.1880466880371270e-01  9.2122767448653586e-01  9.2384340560133593e-01  9.2655867121403002e-01  9.2922035182801388e-01  9.3162321005792781e-01  9.3352367111129964e-01  9.3468052699510884e-01  9.3491384320754878e-01  9.3416556476784607e-01  9.3251262050986172e-01  9.3014776841749935e-01  9.2738608557303237e-01  9.2472423097103407e-01  9.2288932109279820e-01  9.2283668595874879e-01  9.2561038898728065e-01  9.3184712448311424e-01  9.4102601402046360e-01  9.5148039636870496e-01  9.6135253280357114e-01  9.6925422552281382e-01  9.7434744744821133e-01  9.7640485952066480e-01  9.7516597644901393e-01  9.6927684716483054e-01  9.5433991149213515e-01  9.1562909955287120e-01  8.0861202213368766e-01  5.1016365042768752e-01  1.6321773403071002e-01  3.3084627713317452e-02  6.9180428783651394e-03  1.7131555792042302e-03  4.7482619847538627e-04  1.5931165825128305e-04  5.5061511531026481e-05  2.2040798296228417e-05  9.5713456916942104e-06  4.3440881110391645e-06  2.1968935897236897e-06  1.1718938396814333e-06  6.6568096033041369e-07  4.0384119190843990e-07  2.5610592574560263e-07  1.7049921542281951e-07  1.1775862194094300e-07  8.4031400962899420e-08  6.1618490290099593e-08  4.6210603021708407e-08  3.5315070762665704e-08  2.7410134923249036e-08  2.1550519759221751e-08  1.7124795835036900e-08  1.3728502423529179e-08  1.1086496364423700e-08  9.0073962774520257e-09  7.3551618404713895e-09  6.0312273460642730e-09  4.9628964669883529e-09  4.0957147226997104e-09  3.3882807652318308e-09  2.8087436150728242e-09  2.3322885669857920e-09  1.9394181530640781e-09  1.6146542835476063e-09  1.3456239934495495e-09  1.1223643278765927e-09  9.3681177335848917e-10  7.8240141083479107e-10  6.5377076032428652e-10  5.4651614676026804e-10  4.5701965838920945e-10  3.8229146760681492e-10  3.1986242354231608e-10  2.6768356139656598e-10  2.2405588571484056e-10  1.8756648615326926e-10  1.5703938493921371e-10  1.3149449234682299e-10  1.1011494266368633e-10  9.2218621973114535e-11  7.7236574776285375e-11  6.4693346981320102e-11  5.4191115726148352e-11  4.5397593375969440e-11  3.8034604935282784e-11  3.1869911425783255e-11  2.6708510637971009e-11  2.2387331869959677e-11  1.8770250579614405e-11  1.5743344185610244e-11  1.3211052810702981e-11  1.1093544433935650e-11  9.3241390677251119e-12  7.8473535662649474e-12  6.6164772578949277e-12  5.5928437987113225e-12  4.7443178650013381e-12  4.0442562672243773e-12  3.4707091843770032e-12  3.0056691627602125e-12  2.6346687126078935e-12  2.3462408761942182e-12  2.1315590871858452e-12  1.9843547994286360e-12  1.9013139728227213e-12  1.8841974508865019e-12  9.9999714195970890e-01  9.9999769644093239e-01  9.9999792784769648e-01  9.9999863044402015e-01  9.9999918671440258e-01  9.9999848058152507e-01  9.9999525936173272e-01  9.9999053212036149e-01  9.9999013381452506e-01  1.0000014679732923e+00  1.0000170375059574e+00  9.9999998749001440e-01  9.9992973956260900e-01  9.9990116385625216e-01  1.0000555422955220e+00  1.0002648824138931e+00  1.0001271988635987e+00  9.9954804308790479e-01  9.9897005421374274e-01  9.9875891732780742e-01  9.9879119572501940e-01  9.9881776797197031e-01  9.9884493973033339e-01  9.9902406216994244e-01  9.9937493972481550e-01  9.9973543751566429e-01  9.9993718781563512e-01  9.9995874525245465e-01  9.9989846306470931e-01  9.9985423693211040e-01  9.9986079865775446e-01  9.9990258748937522e-01  9.9994778341330026e-01  9.9997415232802100e-01  9.9997980049699531e-01  9.9997791452989238e-01  9.9997985602001971e-01  9.9998501689029484e-01  9.9998861475953071e-01  9.9999027712953559e-01  9.9999159851406250e-01  9.9999237311135392e-01  9.9999329035628171e-01  9.9999260854767913e-01  9.9999086060212838e-01  9.9999789365994862e-01  9.9997601542625081e-01  9.9996450777857304e-01  1.0000765050726963e+00  9.9995477994614379e-01  9.9937363033619531e-01  9.9924375009733313e-01  1.0001200579995850e+00  1.0011034015566778e+00  1.0014021531941715e+00  1.0011546350478122e+00  1.0007215606676700e+00  1.0002883600223007e+00  9.9991742425390795e-01  9.9962656018327634e-01  9.9942303677435829e-01  9.9930222421836401e-01  9.9924574566602831e-01  9.9923351730159515e-01  9.9925217266699273e-01  9.9929358992402839e-01  9.9935044128232786e-01  9.9941461689963085e-01  9.9947726291414263e-01  9.9952803740905949e-01  9.9955748513745546e-01  9.9956350968698648e-01  9.9955403366885565e-01  9.9954190445405766e-01  9.9953637719944577e-01  9.9953951494100202e-01  9.9954846412171638e-01  9.9956012939822658e-01  9.9957484383724715e-01  9.9959422868833292e-01  9.9961510309078738e-01  9.9962997295188216e-01  9.9963261369217371e-01  9.9962005178888191e-01  9.9959192953645992e-01  9.9955075321762843e-01  9.9950211896066121e-01  9.9945372778120734e-01  9.9941175858404463e-01  9.9937944278272739e-01  9.9935875539896801e-01  9.9935068716764830e-01  9.9935456201771022e-01  9.9936870500240160e-01  9.9939117120384979e-01  9.9942036174376658e-01  9.9945492280578196e-01  9.9949322761925874e-01  9.9953341432308784e-01  9.9957459090632861e-01  9.9961697855552489e-01  9.9966007163824233e-01  9.9970156549148570e-01  9.9973855407406442e-01  9.9976765239134446e-01  9.9978426874836501e-01  9.9978399746077118e-01  9.9976603473000025e-01  9.9973410473781998e-01  9.9969427717380943e-01  9.9965224880484083e-01  9.9961168016592494e-01  9.9957377199054032e-01  9.9953854360291094e-01  9.9950581149924766e-01  9.9947544841180258e-01  9.9944706451682386e-01  9.9942002727240753e-01  9.9939351248021280e-01  9.9936643820673887e-01  9.9933676763779611e-01  9.9930179727819091e-01  9.9925935684655143e-01  9.9920870562489261e-01  9.9915116612607668e-01  9.9909139840487593e-01  9.9903462574137070e-01  9.9898152620592351e-01  9.9892698753904474e-01  9.9886393161968090e-01  9.9878998405544361e-01  9.9871164753748065e-01  9.9863973149326657e-01  9.9858211889944759e-01  9.9854144220805541e-01  9.9851758955850201e-01  9.9850778895248449e-01  9.9850499258756342e-01  9.9849954488978221e-01  9.9848272826320150e-01  9.9844797526443729e-01  9.9839138459268173e-01  9.9831149598165481e-01  9.9820911044451410e-01  9.9808949720158824e-01  9.9796313869552322e-01  9.9783893317747363e-01  9.9772053345809408e-01  9.9760957987586441e-01  9.9750627925714730e-01  9.9740756981858725e-01  9.9730913169978419e-01  9.9720723657974397e-01  9.9709951671271368e-01  9.9698620357828349e-01  9.9687069564157216e-01  9.9675656133573631e-01  9.9664455647362360e-01  9.9653219206220234e-01  9.9641592820281710e-01  9.9629459919011909e-01  9.9617366166299692e-01  9.9606305656787164e-01  9.9597055150832958e-01  9.9589891320618340e-01  9.9584342843593399e-01  9.9578735892178949e-01  9.9570468411873181e-01  9.9556336243299071e-01  9.9532325245239595e-01  9.9493819569533781e-01  9.9436807353146484e-01  9.9359184081965479e-01  9.9261011976827751e-01  9.9146251292586818e-01  9.9030289242155201e-01  9.8943852682329048e-01  9.8931211235072403e-01  9.9044121229370385e-01  9.9281659985568360e-01  9.9525245642981541e-01  9.9675728580632783e-01  9.9783272913844123e-01  9.9883626054489427e-01  9.9941812975885513e-01  9.9967490644161994e-01  9.9980142060304944e-01  9.9979930114087001e-01  9.9987618358412034e-01  1.0001029591996371e+00  9.9981901895656633e-01  9.9888827325169227e-01  9.9913320699476149e-01  1.0013537787217826e+00  1.0022717487767330e+00  9.9886865176601125e-01  9.9324495986057026e-01  9.8931148067274177e-01  9.8879915387719219e-01  9.9142231655584179e-01  9.9465840306284325e-01  9.9635737854041517e-01  9.9743747871243871e-01  9.9855454094645335e-01  9.9913773509429149e-01  9.9934478076970612e-01  9.9957311108956293e-01  9.9937813903171335e-01  9.9888618570499799e-01  1.0000575379891177e+00  9.9915550889237315e-01  9.9083672187780980e-01  9.8135090355648869e-01  9.7438891234599823e-01  9.6402947735404154e-01  9.5013575122768645e-01  9.3837474845729585e-01  9.3206417365015204e-01  9.3086262096093209e-01  9.3281486817297454e-01  9.3613641926533986e-01  9.3973218705140771e-01  9.4304939675445243e-01  9.4586183323968975e-01  9.4810623041778108e-01  9.4979798098043200e-01  9.5099472122006234e-01  9.5178383684441770e-01  9.5226897395850696e-01  9.5256326182177686e-01  9.5277741743765743e-01  9.5300452820005632e-01  9.5329969668948178e-01  9.5367513289949446e-01  9.5411385666601711e-01  9.5459226523035534e-01  9.5509628389733581e-01  9.5561903793755365e-01  9.5615043900413021e-01  9.5667875805567670e-01  9.5719624168633255e-01  9.5770516953614715e-01  9.5821381843516862e-01  9.5873009358526395e-01  9.5925561001664361e-01  9.5978728258237422e-01  9.6031811272088585e-01  9.6084101430486391e-01  9.6134966483234252e-01  9.6184172007813806e-01  9.6231889901868484e-01  9.6278868098876347e-01  9.6326298807625177e-01  9.6375853432499481e-01  9.6429293483667244e-01  9.6487651891013826e-01  9.6549998493546729e-01  9.6613943421676329e-01  9.6676837280222760e-01  9.6736741610413535e-01  9.6792633049105303e-01  9.6844503133446902e-01  9.6892783005831185e-01  9.6938042371258848e-01  9.6980939807541744e-01  9.7022559886099990e-01  9.7064278665215009e-01  9.7107621149018408e-01  9.7153970574739124e-01  9.7204399699735633e-01  9.7259060921356100e-01  9.7316645304604188e-01  9.7374146392661876e-01  9.7427171374522215e-01  9.7470606384333291e-01  9.7499497680638425e-01  9.7508937466207368e-01  9.7493690552394086e-01  9.7448594207510197e-01  9.7370141544488065e-01  9.7258759688797580e-01  9.7121955374715918e-01  9.6977605044804005e-01  9.6856629850346199e-01  9.6800705574656742e-01  9.6862867372900230e-01  9.7128735000918265e-01  9.7693186166734691e-01  9.8467172992903329e-01  9.9119498499252490e-01  9.9475688435018894e-01  9.9673542299847750e-01  9.9811093777727100e-01  9.9884543978490870e-01  9.9917902186942886e-01  9.9934570320723792e-01  9.9943089374226157e-01  9.9912499133897326e-01  9.9874173269202515e-01  9.9970112727805727e-01  9.9767413476111688e-01  9.8727683546209577e-01  9.7759457911202330e-01  9.6479461226476904e-01  9.1972767606476236e-01  8.4568304136297046e-01  7.8277125090325583e-01  7.5256014852940845e-01  7.4951030149541664e-01  7.6163304191000292e-01  7.7974609868979383e-01  7.9834026371308464e-01  8.1467232130881762e-01  8.2763919751394277e-01  8.3695748738029407e-01  8.4273640720367948e-01  8.4526851054565333e-01  8.4495581718012458e-01  8.4232356646755091e-01  8.3807430386677417e-01  8.3311021830004617e-01  8.2843699962637152e-01  8.2489515805126234e-01  8.2296274285767645e-01  8.2271960872610594e-01  8.2394427708369145e-01  8.2622862523772378e-01  8.2907087565300375e-01  8.3199472305081168e-01  8.3469358820492479e-01  8.3705406081294853e-01  8.3912757298967555e-01  8.4107905662782667e-01  8.4311616631466024e-01  8.4539702799380390e-01  8.4799967401606624e-01  8.5092216381777275e-01  8.5410276533684137e-01  8.5743283889716504e-01  8.6079058598778080e-01  8.6407745470486197e-01  8.6724007598823849e-01  8.7025368550966486e-01  8.7311375282403580e-01  8.7581978633869761e-01  8.7837056975184191e-01  8.8076189706966956e-01  8.8300383471995747e-01  8.8512555909918522e-01  8.8718655072878005e-01  8.8927038607578268e-01  8.9146463245659668e-01  8.9383340117650767e-01  8.9641198862317184e-01  8.9919778144594065e-01  9.0215496519602012e-01  9.0519437012502768e-01  9.0816632620328741e-01  9.1088186337668553e-01  9.1313700483915761e-01  9.1472601414975696e-01  9.1545753823474862e-01  9.1517081266398281e-01  9.1379819784449146e-01  9.1143324603522724e-01  9.0834678875610109e-01  9.0496863646473547e-01  9.0199250130212527e-01  9.00467105568