<?xml version="1.0"?>
<VTKFile type="UnstructuredGrid"  version="0.1"  >
<UnstructuredGrid>
<Piece  NumberOfPoints="28121" NumberOfCells="55200">
<Points>
<DataArray  type="Float64"  NumberOfComponents="3"  format="ascii">0 0 0  0.008260869565217391 0 0  0.01652173913043478 0 0  0.02478260869565217 0 0  0.03304347826086956 0 0  0.04130434782608695 0 0  0.04956521739130434 0 0  0.05782608695652174 0 0  0.06608695652173913 0 0  0.07434782608695652 0 0  0.08260869565217391 0 0  0.0908695652173913 0 0  0.09913043478260869 0 0  0.1073913043478261 0 0  0.1156521739130435 0 0  0.1239130434782609 0 0  0.1321739130434783 0 0  0.1404347826086956 0 0  0.148695652173913 0 0  0.1569565217391304 0 0  0.1652173913043478 0 0  0.1734782608695652 0 0  0.1817391304347826 0 0  0.19 0 0  0.1982608695652174 0 0  0.2065217391304348 0 0  0.2147826086956522 0 0  0.2230434782608696 0 0  0.2313043478260869 0 0  0.2395652173913043 0 0  0.2478260869565218 0 0  0.2560869565217391 0 0  0.2643478260869565 0 0  0.2726086956521739 0 0  0.2808695652173913 0 0  0.2891304347826087 0 0  0.2973913043478261 0 0  0.3056521739130434 0 0  0.3139130434782609 0 0  0.3221739130434783 0 0  0.3304347826086956 0 0  0.338695652173913 0 0  0.3469565217391304 0 0  0.3552173913043478 0 0  0.3634782608695652 0 0  0.3717391304347826 0 0  0.3799999999999999 0 0  0.3882608695652174 0 0  0.3965217391304348 0 0  0.4047826086956521 0 0  0.4130434782608696 0 0  0.4213043478260869 0 0  0.4295652173913043 0 0  0.4378260869565217 0 0  0.4460869565217391 0 0  0.4543478260869565 0 0  0.4626086956521739 0 0  0.4708695652173913 0 0  0.4791304347826086 0 0  0.4873913043478261 0 0  0.4956521739130435 0 0  0.5039130434782608 0 0  0.5121739130434783 0 0  0.5204347826086956 0 0  0.528695652173913 0 0  0.5369565217391304 0 0  0.5452173913043478 0 0  0.5534782608695652 0 0  0.5617391304347825 0 0  0.57 0 0  0.5782608695652174 0 0  0.5865217391304348 0 0  0.5947826086956521 0 0  0.6030434782608696 0 0  0.6113043478260869 0 0  0.6195652173913043 0 0  0.6278260869565218 0 0  0.6360869565217391 0 0  0.6443478260869565 0 0  0.6526086956521739 0 0  0.6608695652173913 0 0  0.6691304347826087 0 0  0.677391304347826 0 0  0.6856521739130435 0 0  0.6939130434782609 0 0  0.7021739130434783 0 0  0.7104347826086956 0 0  0.718695652173913 0 0  0.7269565217391304 0 0  0.7352173913043478 0 0  0.7434782608695653 0 0  0.7517391304347827 0 0  0.7599999999999999 0 0  0.7682608695652173 0 0  0.7765217391304348 0 0  0.7847826086956522 0 0  0.7930434782608695 0 0  0.8013043478260868 0 0  0.8095652173913043 0 0  0.8178260869565217 0 0  0.8260869565217391 0 0  0.8343478260869565 0 0  0.8426086956521739 0 0  0.8508695652173912 0 0  0.8591304347826086 0 0  0.8673913043478261 0 0  0.8756521739130434 0 0  0.8839130434782608 0 0  0.8921739130434783 0 0  0.9004347826086956 0 0  0.908695652173913 0 0  0.9169565217391303 0 0  0.9252173913043478 0 0  0.9334782608695652 0 0  0.9417391304347826 0 0  0.95 0 0  0.9582608695652173 0 0  0.9665217391304347 0 0  0.9747826086956521 0 0  0.9830434782608696 0 0  0.991304347826087 0 0  0.9995652173913042 0 0  1.007826086956522 0 0  1.016086956521739 0 0  1.024347826086957 0 0  1.032608695652174 0 0  1.040869565217391 0 0  1.049130434782609 0 0  1.057391304347826 0 0  1.065652173913043 0 0  1.073913043478261 0 0  1.082173913043478 0 0  1.090434782608696 0 0  1.098695652173913 0 0  1.10695652173913 0 0  1.115217391304348 0 0  1.123478260869565 0 0  1.131739130434783 0 0  1.14 0 0  1.148260869565217 0 0  1.156521739130435 0 0  1.164782608695652 0 0  1.17304347826087 0 0  1.181304347826087 0 0  1.189565217391304 0 0  1.197826086956522 0 0  1.206086956521739 0 0  1.214347826086956 0 0  1.222608695652174 0 0  1.230869565217391 0 0  1.239130434782609 0 0  1.247391304347826 0 0  1.255652173913044 0 0  1.263913043478261 0 0  1.272173913043478 0 0  1.280434782608696 0 0  1.288695652173913 0 0  1.296956521739131 0 0  1.305217391304348 0 0  1.313478260869565 0 0  1.321739130434783 0 0  1.33 0 0  1.338260869565217 0 0  1.346521739130435 0 0  1.354782608695652 0 0  1.36304347826087 0 0  1.371304347826087 0 0  1.379565217391304 0 0  1.387826086956522 0 0  1.396086956521739 0 0  1.404347826086957 0 0  1.412608695652174 0 0  1.420869565217391 0 0  1.429130434782609 0 0  1.437391304347826 0 0  1.445652173913043 0 0  1.453913043478261 0 0  1.462173913043478 0 0  1.470434782608696 0 0  1.478695652173913 0 0  1.486956521739131 0 0  1.495217391304348 0 0  1.503478260869565 0 0  1.511739130434782 0 0  1.52 0 0  1.528260869565217 0 0  1.536521739130435 0 0  1.544782608695652 0 0  1.55304347826087 0 0  1.561304347826087 0 0  1.569565217391304 0 0  1.577826086956522 0 0  1.586086956521739 0 0  1.594347826086957 0 0  1.602608695652174 0 0  1.610869565217391 0 0  1.619130434782609 0 0  1.627391304347826 0 0  1.635652173913043 0 0  1.643913043478261 0 0  1.652173913043478 0 0  1.660434782608696 0 0  1.668695652173913 0 0  1.67695652173913 0 0  1.685217391304348 0 0  1.693478260869565 0 0  1.701739130434782 0 0  1.71 0 0  1.718260869565217 0 0  1.726521739130435 0 0  1.734782608695652 0 0  1.743043478260869 0 0  1.751304347826087 0 0  1.759565217391304 0 0  1.767826086956522 0 0  1.776086956521739 0 0  1.784347826086957 0 0  1.792608695652174 0 0  1.800869565217391 0 0  1.809130434782608 0 0  1.817391304347826 0 0  1.825652173913043 0 0  1.833913043478261 0 0  1.842173913043478 0 0  1.850434782608696 0 0  1.858695652173913 0 0  1.86695652173913 0 0  1.875217391304348 0 0  1.883478260869565 0 0  1.891739130434782 0 0  1.9 0 0  1.908260869565217 0 0  1.916521739130435 0 0  1.924782608695652 0 0  1.933043478260869 0 0  1.941304347826087 0 0  1.949565217391304 0 0  1.957826086956522 0 0  1.966086956521739 0 0  1.974347826086956 0 0  1.982608695652174 0 0  1.990869565217391 0 0  1.999130434782608 0 0  2.007391304347826 0 0  2.015652173913043 0 0  2.023913043478261 0 0  2.032173913043478 0 0  2.040434782608695 0 0  2.048695652173913 0 0  2.05695652173913 0 0  2.065217391304348 0 0  2.073478260869565 0 0  2.081739130434782 0 0  2.09 0 0  2.098260869565217 0 0  2.106521739130435 0 0  2.114782608695652 0 0  2.12304347826087 0 0  2.131304347826087 0 0  2.139565217391304 0 0  2.147826086956522 0 0  2.156086956521739 0 0  2.164347826086956 0 0  2.172608695652174 0 0  2.180869565217391 0 0  2.189130434782609 0 0  2.197391304347826 0 0  2.205652173913043 0 0  2.213913043478261 0 0  2.222173913043478 0 0  2.230434782608695 0 0  2.238695652173913 0 0  2.24695652173913 0 0  2.255217391304348 0 0  2.263478260869565 0 0  2.271739130434783 0 0  2.28 0 0  2.288260869565217 0 0  2.296521739130434 0 0  2.304782608695652 0 0  2.31304347826087 0 0  2.321304347826087 0 0  2.329565217391304 0 0  2.337826086956521 0 0  2.346086956521739 0 0  2.354347826086956 0 0  2.362608695652174 0 0  2.370869565217391 0 0  2.379130434782609 0 0  2.387391304347826 0 0  2.395652173913044 0 0  2.403913043478261 0 0  2.412173913043478 0 0  2.420434782608695 0 0  2.428695652173913 0 0  2.43695652173913 0 0  2.445217391304348 0 0  2.453478260869565 0 0  2.461739130434782 0 0  2.47 0 0  2.478260869565217 0 0  2.486521739130435 0 0  2.494782608695652 0 0  2.503043478260869 0 0  2.511304347826087 0 0  2.519565217391305 0 0  2.527826086956522 0 0  2.536086956521739 0 0  2.544347826086956 0 0  2.552608695652174 0 0  2.560869565217391 0 0  2.569130434782608 0 0  2.577391304347826 0 0  2.585652173913043 0 0  2.593913043478261 0 0  2.602173913043478 0 0  2.610434782608696 0 0  2.618695652173913 0 0  2.62695652173913 0 0  2.635217391304348 0 0  2.643478260869565 0 0  2.651739130434783 0 0  2.66 0 0  2.668260869565217 0 0  2.676521739130435 0 0  2.684782608695652 0 0  2.693043478260869 0 0  2.701304347826087 0 0  2.709565217391304 0 0  2.717826086956522 0 0  2.726086956521739 0 0  2.734347826086956 0 0  2.742608695652174 0 0  2.750869565217391 0 0  2.759130434782609 0 0  2.767391304347826 0 0  2.775652173913044 0 0  2.783913043478261 0 0  2.792173913043478 0 0  2.800434782608696 0 0  2.808695652173913 0 0  2.81695652173913 0 0  2.825217391304347 0 0  2.833478260869565 0 0  2.841739130434783 0 0  2.85 0 0  2.858260869565217 0 0  2.866521739130435 0 0  2.874782608695652 0 0  2.88304347826087 0 0  2.891304347826087 0 0  2.899565217391304 0 0  2.907826086956522 0 0  2.916086956521739 0 0  2.924347826086957 0 0  2.932608695652174 0 0  2.940869565217391 0 0  2.949130434782608 0 0  2.957391304347826 0 0  2.965652173913043 0 0  2.973913043478261 0 0  2.982173913043478 0 0  2.990434782608696 0 0  2.998695652173913 0 0  3.006956521739131 0 0  3.015217391304348 0 0  3.023478260869565 0 0  3.031739130434782 0 0  3.04 0 0  3.048260869565218 0 0  3.056521739130435 0 0  3.064782608695652 0 0  3.073043478260869 0 0  3.081304347826087 0 0  3.089565217391304 0 0  3.097826086956522 0 0  3.106086956521739 0 0  3.114347826086956 0 0  3.122608695652174 0 0  3.130869565217391 0 0  3.139130434782609 0 0  3.147391304347826 0 0  3.155652173913043 0 0  3.163913043478261 0 0  3.172173913043478 0 0  3.180434782608696 0 0  3.188695652173913 0 0  3.19695652173913 0 0  3.205217391304347 0 0  3.213478260869565 0 0  3.221739130434782 0 0  3.23 0 0  3.238260869565217 0 0  3.246521739130435 0 0  3.254782608695652 0 0  3.26304347826087 0 0  3.271304347826087 0 0  3.279565217391304 0 0  3.287826086956521 0 0  3.296086956521739 0 0  3.304347826086957 0 0  3.312608695652174 0 0  3.320869565217391 0 0  3.329130434782608 0 0  3.337391304347826 0 0  3.345652173913043 0 0  3.353913043478261 0 0  3.362173913043478 0 0  3.370434782608696 0 0  3.378695652173913 0 0  3.386956521739131 0 0  3.395217391304348 0 0  3.403478260869565 0 0  3.411739130434782 0 0  3.419999999999999 0 0  3.428260869565217 0 0  3.436521739130435 0 0  3.444782608695652 0 0  3.453043478260869 0 0  3.461304347826087 0 0  3.469565217391304 0 0  3.477826086956522 0 0  3.486086956521739 0 0  3.494347826086956 0 0  3.502608695652174 0 0  3.510869565217391 0 0  3.519130434782609 0 0  3.527391304347826 0 0  3.535652173913043 0 0  3.54391304347826
[...]
<PointData  Scalars="rho_bar"> 
<DataArray  type="Float64"  Name="rho_bar"  format="ascii">9.8831432306925737e-01  9.8816351735740360e-01  9.8793050405081773e-01  9.8758123956965616e-01  9.8710094494492917e-01  9.8647830546163695e-01  9.8570154832543266e-01  9.8475708513387994e-01  9.8362934684779624e-01  9.8230057163667539e-01  9.8075111420689509e-01  9.7895964292171500e-01  9.7690413654461172e-01  9.7456296621353922e-01  9.7191734851570377e-01  9.6895447029565307e-01  9.6567269122269106e-01  9.6208789280226104e-01  9.5824174871726453e-01  9.5420979449675880e-01  9.5010822724501864e-01  9.4609465382356672e-01  9.4236092308826935e-01  9.3911470815153486e-01  9.3655324072131474e-01  9.3483308339299043e-01  9.3404548677697496e-01  9.3420276850668960e-01  9.3524010766541732e-01  9.3702955163452006e-01  9.3940305344426478e-01  9.4217619105192818e-01  9.4516888668079635e-01  9.4821801501480463e-01  9.5118263679512705e-01  9.5394176127217400e-01  9.5638815315746484e-01  9.5841829377812737e-01  9.5992070650507333e-01  9.6076039710165084e-01  9.6075905103286785e-01  9.5966604334694194e-01  9.5711770164246135e-01  9.5258603771275130e-01  9.4536372410296776e-01  9.3478374160232169e-01  9.2097175172550738e-01  9.0571832845082600e-01  8.9225126851216308e-01  8.8336160990158030e-01  8.7938928839949981e-01  8.7850061020488435e-01  8.7877311065630848e-01  8.7916940707666391e-01  8.7932736009397905e-01  8.7921388053060145e-01  8.7891407263546750e-01  8.7852481657488624e-01  8.7811374010309629e-01  8.7771295055228482e-01  8.7732979734157246e-01  8.7695810508245142e-01  8.7659092556043716e-01  8.7622844464642369e-01  8.7588067184823137e-01  8.7556323628520449e-01  8.7529310347902811e-01  8.7508457621632085e-01  8.7494859034379946e-01  8.7489143464874564e-01  8.7491536568840200e-01  8.7501764981120400e-01  8.7519082100631929e-01  8.7542149150456017e-01  8.7569129305509585e-01  8.7597799376961527e-01  8.7625896870378939e-01  8.7651309188302284e-01  8.7672372218155359e-01  8.7687969036018154e-01  8.7697760032877103e-01  8.7702196452855885e-01  8.7702471747399768e-01  8.7700096902210944e-01  8.7696530625951830e-01  8.7692825382345541e-01  8.7689634379975323e-01  8.7687186971139108e-01  8.7685475905978383e-01  8.7684302195262109e-01  8.7683425234400358e-01  8.7682555153093278e-01  8.7681461351785583e-01  8.7679916510216971e-01  8.7677786107878453e-01  8.7674944852392456e-01  8.7671350558181727e-01  8.7666972101303975e-01  8.7661844638508546e-01  8.7655992095478696e-01  8.7649488110267759e-01  8.7642369715166868e-01  8.7634709523619314e-01  8.7626526057397836e-01  8.7617862091545551e-01  8.7608722565965080e-01  8.7599141176249884e-01  8.7589113232706106e-01  8.7578669805907683e-01  8.7567804938995020e-01  8.7556563403517307e-01  8.7544963294735978e-01  8.7533083094445485e-01  8.7521004983189354e-01  8.7508888579552468e-01  8.7496910993147936e-01  8.7485345728828712e-01  8.7474489310892645e-01  8.7464740250821416e-01  8.7456500104824819e-01  8.7450220972529091e-01  8.7446280872809556e-01  8.7444951995993836e-01  8.7446190902245491e-01  8.7449535554325386e-01  8.7453864066705778e-01  8.7457434274733659e-01  8.7458037057944438e-01  8.7453661215343925e-01  8.7443120282171527e-01  8.7426530644646194e-01  8.7405182061845332e-01  8.7381095370286321e-01  8.7356276850141013e-01  8.7332351437858402e-01  8.7310337182854303e-01  8.7290800183803940e-01  8.7273950506703790e-01  8.7259871240124509e-01  8.7248568797194870e-01  8.7240108025796281e-01  8.7234531901347900e-01  8.7231881524008958e-01  8.7231989200796667e-01  8.7234397124288388e-01  8.7238126240478775e-01  8.7241662165780998e-01  8.7243014640399297e-01  8.7240188489408099e-01  8.7231575984061915e-01  8.7216316836944141e-01  8.7194256943421544e-01  8.7165945884968699e-01  8.7132447798006973e-01  8.7095267206636440e-01  8.7056058199107622e-01  8.7016333579717819e-01  8.6976952547965358e-01  8.6937905011416183e-01  8.6898166613253447e-01  8.6855912581780892e-01  8.6808658401202332e-01  8.6753504310937568e-01  8.6687162436272247e-01  8.6606092991531380e-01  8.6506578081339147e-01  8.6385163660910225e-01  8.6239210825869483e-01  8.6067875639307323e-01  8.5873134140295915e-01  8.5661197139553069e-01  8.5443992999244167e-01  8.5240622805012978e-01  8.5077686881456693e-01  8.4988552096353209e-01  8.5011719843711664e-01  8.5187389671464686e-01  8.5549132046203646e-01  8.6113117587157861e-01  8.6869846724174560e-01  8.7779487315758931e-01  8.8773762339298212e-01  8.9769015351019377e-01  9.0683840127262050e-01  9.1453713406832182e-01  9.2037625781419374e-01  9.2415823955905785e-01  9.2582807451633031e-01  9.2540610882193719e-01  9.2294652069682293e-01  9.1852990180433136e-01  9.1228341672055191e-01  9.0442211414834905e-01  8.9529579681589322e-01  8.8542213119125934e-01  8.7547860835640012e-01  8.6623635795040455e-01  8.5843116748211390e-01  8.5260935312418074e-01  8.4900407400186928e-01  8.4749747627137040e-01  8.4767833616455313e-01  8.4895317930547354e-01  8.5061964144443214e-01  8.5188636999005540e-01  8.5194069328181943e-01  8.5005439571387675e-01  8.4568179517837927e-01  8.3855434526840233e-01  8.2875705228213314e-01  8.1682564760338972e-01  8.0377063989076591e-01  7.9092621212326486e-01  7.7957730314102081e-01  7.7053603211701371e-01  7.6401747391059693e-01  7.5984577862309088e-01  7.5760727496230496e-01  7.5678652625639831e-01  7.5687650619274149e-01  7.5746503192991177e-01  7.5826965064669127e-01  7.5912840165026163e-01  7.5996716649411111e-01  7.6076568130654343e-01  7.6152780753637905e-01  7.6226361424280786e-01  7.6297824693063232e-01  7.6367017573679352e-01  7.6433177417710352e-01  7.6495562723990829e-01  7.6554076171068797e-01  7.6609539094342816e-01  7.6662825309152138e-01  7.6714231218416917e-01  7.6763202961772725e-01  7.6808924097386067e-01  7.6850865023445114e-01  7.6889196920619907e-01  7.6924604665421736e-01  7.6958183288480420e-01  7.6991081559305596e-01  7.7024351747334163e-01  7.7058602947224231e-01  7.7093875054371652e-01  7.7129313457939164e-01  7.7163199479455136e-01  7.7193033646556741e-01  7.7216350705061287e-01  7.7231685588631971e-01  7.7239564623429458e-01  7.7242536834092723e-01  7.7244570324984363e-01  7.7249862226303168e-01  7.7262146356542183e-01  7.7284154942096572e-01  7.7317601980994188e-01  7.7363066117517687e-01  7.7420116309815534e-01  7.7487248650672269e-01  7.7562049283013101e-01  7.7641156513175202e-01  7.7720566245792733e-01  7.7795850292266366e-01  7.7862701108658872e-01  7.7917230815698491e-01  7.7956477529647605e-01  7.7978767365443413e-01  7.7984221286972821e-01  7.7974738841988434e-01  7.7953866782711301e-01  7.7926029196166802e-01  7.7895394226249137e-01  7.7864310307063811e-01  7.7832483464422153e-01  7.7797092736627171e-01  7.7754453217654762e-01  7.7702280200195251e-01  7.7641596065888951e-01  7.7577000556683828e-01  7.7516582671280632e-01  7.7471583360818475e-01  7.7455236840142150e-01  7.7478887173538025e-01  7.7546531786154338e-01  7.7648674387182537e-01  7.7765397114412238e-01  7.7880905232765707e-01  7.7986150366631679e-01  7.8074895160299884e-01  7.8137910131865329e-01  7.8162485446063179e-01  7.8133803862899665e-01  7.8036671726340812e-01  7.7857203293973598e-01  7.7583396662296633e-01  7.7205822756697084e-01  7.6719097111019274e-01  7.6124162971666942e-01  7.5428597229384908e-01  7.4646851656059487e-01  7.3799616846535598e-01  7.2911689671269642e-01  7.2008405713380375e-01  7.1110216566387341e-01  7.0232389926237260e-01  6.9390492993714115e-01  6.8603298334349383e-01  6.7888948137053162e-01  6.7259245556209390e-01  6.6721921819224095e-01  6.6278141130198576e-01  6.5920498214180778e-01  6.5636563348189692e-01  6.5412623748638321e-01  6.5235219033695002e-01  6.5091857870012582e-01  6.4972533609224259e-01  6.4871576225271743e-01  6.4787837861728126e-01  6.4723497887229176e-01  6.4681468897645367e-01  6.4663292425661056e-01  6.4668396806674944e-01  6.4694493928790631e-01  6.4737653632835424e-01  6.4792314583343869e-01  6.4851421016886102e-01  6.4908240099069936e-01  6.4958292341687673e-01  6.5000190926365053e-01  6.5035196062936529e-01  6.5066505268631669e-01  6.5097871878399860e-01  6.5132578752383730e-01  6.5172672338656745e-01  6.5219035739421394e-01  6.5271518378511129e-01  6.5329447834227228e-01  6.5391900061786645e-01  6.5458111790844831e-01  6.5527346114640672e-01  6.5598941160628832e-01  6.5672184108956611e-01  6.5746497513962854e-01  6.5821417697986551e-01  6.5897012285110057e-01  6.5974071507721777e-01  6.6054344661325459e-01  6.6140106098595064e-01  6.6233532266898831e-01  6.6335469297634764e-01  6.6444524903803093e-01  6.6556113903016423e-01  6.6661919079055398e-01  6.6749455583632744e-01  6.6802605316261687e-01  6.6803308800103234e-01  6.6735524641143829e-01  6.6590023721498526e-01  6.6367509166726224e-01  6.6076487218909530e-01  6.5729358696151718e-01  6.5340408519681903e-01  6.4922739202119406e-01  6.4485383792169382e-01  6.4036158226642648e-01  6.3586888891264604e-01  6.3154041431285801e-01  6.2748625684819115e-01  6.2365059878295526e-01  6.1980360163343851e-01  6.1552165161877126e-01  6.1010197744492900e-01  6.0268846129170939e-01  5.9262948207169952e-01  5.7991009797154724e-01  5.6480172587480948e-01  5.4742568402882330e-01  5.2731301010506215e-01  5.0299920152256439e-01  4.7265689353710638e-01  4.3503724117191395e-01  3.9018178886525073e-01  3.4002972031055756e-01  2.8832134069243065e-01  2.3922357939104255e-01  1.9535869618347418e-01  1.5773568845457789e-01  1.2637710548370221e-01  1.0079915459236588e-01  8.0278658723458671e-02  6.4005911543037960e-02  5.1189395015394157e-02  4.1120998543220093e-02  3.3204874693860673e-02  2.6960179806212722e-02  2.2009356879381835e-02  1.8060856916663794e-02  1.4891534354989999e-02  1.2331183788375673e-02  1.0249885559814279e-02  8.5481313718025181e-03  7.1492845679928911e-03  5.9939310734585891e-03  5.0356595241910929e-03  4.2379300573349545e-03  3.5717433219062864e-03  3.0139051681111425e-03  2.5457248149844481e-03  2.1520359351081780e-03  1.8204538789715857e-03  1.5408069167299838e-03  1.3047003530229284e-03  1.1051720691549335e-03  9.3643068113783128e-04  7.9363796538904066e-04  6.7274522553852642e-04  5.7035316589183359e-04  4.8360333617607215e-04  4.1008748432732977e-04  3.4777469459871505e-04  2.9494922434596235e-04  2.5016155484089842e-04  2.1218454498278733e-04  1.7998071327682640e-04  1.5267065035570824e-04  1.2950997068572148e-04  1.0986736521609020e-04  9.3208143070824264e-05  7.9078807048306375e-05  6.7094975921207499e-05  5.6930533205924413e-05  4.8309190978669627e-05  4.0996478784465767e-05  3.4793735194004739e-05  2.9532416802430716e-05  2.5069590682093061e-05  2.1284103124676928e-05  1.8073178339328891e-05  1.5349740373950880e-05  1.3039887502101575e-05  1.1080997969569651e-05  9.4200427028728993e-06  8.0120996839813679e-06  6.8190790775280402e-06  5.8087610220305470e-06  4.9538938625945986e-06  4.2314801341191074e-06  3.6220579721054264e-06  3.1092601344237406e-06  2.6793423912793422e-06  2.3208220539819447e-06  2.0241211701360209e-06  1.7813504656655045e-06  1.5860831490056801e-06  1.4332055515955538e-06  1.3187712571887842e-06  1.2400189272442895e-06  1.1955934193919336e-06  1.1868121911396430e-06  9.8777336959098905e-01  9.8767822161832963e-01  9.8744977153413649e-01  9.8708842301522637e-01  9.8658671787270724e-01  9.8593465487106202e-01  9.8512004747311810e-01  9.8412850589334799e-01  9.8294312770539760e-01  9.8154466595333711e-01  9.7991150267416538e-01  9.7802022876334327e-01  9.7584619154335539e-01  9.7336509378777492e-01  9.7055500889892821e-01  9.6740020334447507e-01  9.6389614377084154e-01  9.6005698805848660e-01  9.5592437007217557e-01  9.5157757568538470e-01  9.4714119821756282e-01  9.4278755016669147e-01  9.3872827072002618e-01  9.3519473050396928e-01  9.3240726866109269e-01  9.3054132272004997e-01  9.2969840455874075e-01  9.2989167131008454e-01  9.3104742713425770e-01  9.3302242169452321e-01  9.3562932013694666e-01  9.3866474453221560e-01  9.4193170059809928e-01  9.4525436175443933e-01  9.4848279107134403e-01  9.5149078825641631e-01  9.5416809475857611e-01  9.5641036728063189e-01  9.5810618044966989e-01  9.5912216292243113e-01  9.5928290833435059e-01  9.5834407323503989e-01  9.5595420641464790e-01  9.5160958903415227e-01  9.4463707622526438e-01  9.3436425228442455e-01  9.2078234600190745e-01  9.0543091260199227e-01  8.9133169531069967e-01  8.8135476894280185e-01  8.7621636189287500e-01  8.7437305303386237e-01  8.7390407106700507e-01  8.7369464395921703e-01  8.7334704219041270e-01  8.7281586652049914e-01  8.7217824523040666e-01  8.7152224096133679e-01  8.7090286078665313e-01  8.7033884815083007e-01  8.6982484380070346e-01  8.6934401165203634e-01  8.6888054197504883e-01  8.6843084069958110e-01  8.6800411442011083e-01  8.6761742258265029e-01  8.6728838340045145e-01  8.6703203618928104e-01  8.6685894856387746e-01  8.6677556751080420e-01  8.6678335400741724e-01  8.6687951978681455e-01  8.6705564934677204e-01  8.6729738990646232e-01  8.6758386695587086e-01  8.6789043190152393e-01  8.6819128468086970e-01  8.6846323621233124e-01  8.6868720501124430e-01  8.6885088588917259e-01  8.6894980440535519e-01  8.6898933759021746e-01  8.6898319013062164e-01  8.6894958154251190e-01  8.6890478573371643e-01  8.6886071515557717e-01  8.6882365759968694e-01  8.6879600882484764e-01  8.6877689065561869e-01  8.6876413308682809e-01  8.6875456809296536e-01  8.6874531784517239e-01  8.6873342670997067e-01  8.6871683141328782e-01  8.6869365203744919e-01  8.6866296541060051e-01  8.6862398642837313e-01  8.6857672352790805e-01  8.6852123325362818e-01  8.6845818120503948e-01  8.6838798838246145e-01  8.6831149186546042e-01  8.6822905698749353e-01  8.6814129084099934e-01  8.6804828348686813e-01  8.6795039601183877e-01  8.6784763122014208e-01  8.6774031308309385e-01  8.6762835513140346e-01  8.6751208566318960e-01  8.6739152440655443e-01  8.6726724813989775e-01  8.6713970798105289e-01  8.6701006831580796e-01  8.6687964928045391e-01  8.6675069608322908e-01  8.6662570927741001e-01  8.6650827412713394e-01  8.6640225560505268e-01  8.6631246296675324e-01  8.6624357651779360e-01  8.6620031157316479e-01  8.6618576048618268e-01  8.6620054731833673e-01  8.6624003669975291e-01  8.6629295270610507e-01  8.6633944045384081e-01  8.6635404630078128e-01  8.6631210722033603e-01  8.6619949415790443e-01  8.6601721029521861e-01  8.6578142090200205e-01  8.6551600712178745e-01  8.6524465404483708e-01  8.6498485913045409e-01  8.6474762218963563e-01  8.6453798465657750e-01  8.6435787163202149e-01  8.6420733380428683e-01  8.6408658438314223e-01  8.6399590035197993e-01  8.6393640225491153e-01  8.6390855519177023e-01  8.6391164068775883e-01  8.6394109884191372e-01  8.6398722039363685e-01  8.6403306514936951e-01  8.6405625016816479e-01  8.6403315386181911e-01  8.6394590435038299e-01  8.6378468508242445e-01  8.6354862754348027e-01  8.6324373717005176e-01  8.6288226453689554e-01  8.6248077172796456e-01  8.6205877517199114e-01  8.6163381343204692e-01  8.6121679433751752e-01  8.6080752294518692e-01  8.6039509702624006e-01  8.5995899492811700e-01  8.5947251075703046e-01  8.5890422206338379e-01  8.5821955342701350e-01  8.5738025224150238e-01  8.5634635999187081e-01  8.5507898038730779e-01  8.5354817485848966e-01  8.5174202228786422e-01  8.4967902960539132e-01  8.4742168056299738e-01  8.4509489686847661e-01  8.4290220451675879e-01  8.4113106038250030e-01  8.4013984026710087e-01  8.4034458690922620e-01  8.4219008642915916e-01  8.4606004173738325e-01  8.5214511896131917e-01  8.6035549252175136e-01  8.7026813400835390e-01  8.8113378132170872e-01  8.9201928382813955e-01  9.0201467136368263e-01  9.1040094050458931e-01  9.1673023151264654e-01  9.2079849918462009e-01  9.2256085765684392e-01  9.2205019435868141e-01  9.1933030383876713e-01  9.1448750798775391e-01  9.0765606673676169e-01  8.9906472767942935e-01  8.8909260165829185e-01  8.7830815856341071e-01  8.6746405959019723e-01  8.5742386509713686e-01  8.4901690386710926e-01  8.4285968174926085e-01  8.3921637460278287e-01  8.3795222860702967e-01  8.3860113372892908e-01  8.4048527838617426e-01  8.4280553901067112e-01  8.4467712634146996e-01  8.4520779695566028e-01  8.4360157568609506e-01  8.3925297404080113e-01  8.3184249179142045e-01  8.2142704927169341e-01  8.0855747587553950e-01  7.9432456744074331e-01  7.8020481055076985e-01  7.6765189223222163e-01  7.5761347352972597e-01  7.5036154433720625e-01  7.4569830116222213e-01  7.4315420017009914e-01  7.4215050645884562e-01  7.4212384116426511e-01  7.4262326196189876e-01  7.4334956342783698e-01  7.4413557471325820e-01  7.4490951787243476e-01  7.4565387791104742e-01  7.4637536025507101e-01  7.4708407331925597e-01  7.4778448084839788e-01  7.4847178076589205e-01  7.4913523696518491e-01  7.4976238060354206e-01  7.5035089382172326e-01  7.5091070793566339e-01  7.5145350026744706e-01  7.5198206767028219e-01  7.5248912952824920e-01  7.5296272078996518e-01  7.5339643876938622e-01  7.5379134008636328e-01  7.5415578272253669e-01  7.5450146466312329e-01  7.5484167473100328e-01  7.5518768575881323e-01  7.5554727779949271e-01  7.5592102931847316e-01  7.5630092595223064e-01  7.5666745724793794e-01  7.5699220570590664e-01  7.5724435691088643e-01  7.5740524318276159e-01  7.5747913785026311e-01  7.5749625583836466e-01  7.5750211644010501e-01  7.5754485917727443e-01  7.5766485637481584e-01  7.5789210647625038e-01  7.5824424977161597e-01  7.5872784692904949e-01  7.5933772192224880e-01  7.6005851350726450e-01  7.6086400109735219e-01  7.6171877146673306e-01  7.6257873012882660e-01  7.6339622383045136e-01  7.6412384414920276e-01  7.6471958571458110e-01  7.6514994665129488e-01  7.6539626980938180e-01  7.6545881483656597e-01  7.6535930653019457e-01  7.6513754867187700e-01  7.6484665234508620e-01  7.6453727177030217e-01  7.6424017729755678e-01  7.6395333582858038e-01  7.6364424252677821e-01  7.6326736955967722e-01  7.6279571797911039e-01  7.6224259570481212e-01  7.6166411817984836e-01  7.6115253839886055e-01  7.6083271746967240e-01  7.6084438536770438e-01  7.6130619681670575e-01  7.6226306031300128e-01  7.6362761722901151e-01  7.6518517923838725e-01  7.6674935274625688e-01  7.6820133150405312e-01  7.6945961613831815e-01  7.7042528790018927e-01  7.7096744880888368e-01  7.7092989337779616e-01  7.7015086890511730e-01  7.6847739627249145e-01  7.6577405228614293e-01  7.6192791352553946e-01  7.5687053751515854e-01  7.5060577271008333e-01  7.4321923404446044e-01  7.3486529322226490e-01  7.2576069462170678e-01  7.1616193667574601e-01  7.0634319917882393e-01  6.9654424196021636e-01  6.8695771688189933e-01  6.7777393610077397e-01  6.6919464947762686e-01  6.6140667231069628e-01  6.5454100086173594e-01  6.4868580780305463e-01  6.4385839985757354e-01  6.3996977548131495e-01  6.3687854355351348e-01  6.3443379643289366e-01  6.3249251803224960e-01  6.3091721688621361e-01  6.2959694221209739e-01  6.2846837652280785e-01  6.2752184620627194e-01  6.2678494758446135e-01  6.2629380681580160e-01  6.2606394682737454e-01  6.2608766895204493e-01  6.2633872266423996e-01  6.2677705856772048e-01  6.2734345087212817e-01  6.2795994221218110e-01  6.2854873942702494e-01  6.2906101051648888e-01  6.2948220939862820e-01  6.2982824183829944e-01  6.3013505473486287e-01  6.3044575495468325e-01  6.3079532431665997e-01  6.3120575261157541e-01  6.3168460906891177e-01  6.3222963199105486e-01  6.3283189234362613e-01  6.3348163744899300e-01  6.3417030914004546e-01  6.3489150066187638e-01  6.3563765836162256e-01  6.3640218964226203e-01  6.3717839796357545e-01  6.3796130087066760e-01  6.3875002272994996e-01  6.3955318936832684e-01  6.4038930603123445e-01  6.4128543599716747e-01  6.4226748365565778e-01  6.4334929626418280e-01  6.4451984413740626e-01  6.4573620867931136e-01  6.4691509255202351e-01  6.4792950000190153e-01  6.4860915334250147e-01  6.4875857789976810e-01  6.4819825342773041e-01  6.4682650826785892e-01  6.4465834935330490e-01  6.4179873874357229e-01  6.3838606158545042e-01  6.3458593634544191e-01  6.3055433485641377e-01  6.2639424516717934e-01  6.2218792267204770e-01  6.1806846638288038e-01  6.14237531483