<?xml version="1.0"?>
<VTKFile type="UnstructuredGrid"  version="0.1"  >
<UnstructuredGrid>
<Piece  NumberOfPoints="28121" NumberOfCells="55200">
<Points>
<DataArray  type="Float64"  NumberOfComponents="3"  format="ascii">0 0 0  0.008260869565217391 0 0  0.01652173913043478 0 0  0.02478260869565217 0 0  0.03304347826086956 0 0  0.04130434782608695 0 0  0.04956521739130434 0 0  0.05782608695652174 0 0  0.06608695652173913 0 0  0.07434782608695652 0 0  0.08260869565217391 0 0  0.0908695652173913 0 0  0.09913043478260869 0 0  0.1073913043478261 0 0  0.1156521739130435 0 0  0.1239130434782609 0 0  0.1321739130434783 0 0  0.1404347826086956 0 0  0.148695652173913 0 0  0.1569565217391304 0 0  0.1652173913043478 0 0  0.1734782608695652 0 0  0.1817391304347826 0 0  0.19 0 0  0.1982608695652174 0 0  0.2065217391304348 0 0  0.2147826086956522 0 0  0.2230434782608696 0 0  0.2313043478260869 0 0  0.2395652173913043 0 0  0.2478260869565218 0 0  0.2560869565217391 0 0  0.2643478260869565 0 0  0.2726086956521739 0 0  0.2808695652173913 0 0  0.2891304347826087 0 0  0.2973913043478261 0 0  0.3056521739130434 0 0  0.3139130434782609 0 0  0.3221739130434783 0 0  0.3304347826086956 0 0  0.338695652173913 0 0  0.3469565217391304 0 0  0.3552173913043478 0 0  0.3634782608695652 0 0  0.3717391304347826 0 0  0.3799999999999999 0 0  0.3882608695652174 0 0  0.3965217391304348 0 0  0.4047826086956521 0 0  0.4130434782608696 0 0  0.4213043478260869 0 0  0.4295652173913043 0 0  0.4378260869565217 0 0  0.4460869565217391 0 0  0.4543478260869565 0 0  0.4626086956521739 0 0  0.4708695652173913 0 0  0.4791304347826086 0 0  0.4873913043478261 0 0  0.4956521739130435 0 0  0.5039130434782608 0 0  0.5121739130434783 0 0  0.5204347826086956 0 0  0.528695652173913 0 0  0.5369565217391304 0 0  0.5452173913043478 0 0  0.5534782608695652 0 0  0.5617391304347825 0 0  0.57 0 0  0.5782608695652174 0 0  0.5865217391304348 0 0  0.5947826086956521 0 0  0.6030434782608696 0 0  0.6113043478260869 0 0  0.6195652173913043 0 0  0.6278260869565218 0 0  0.6360869565217391 0 0  0.6443478260869565 0 0  0.6526086956521739 0 0  0.6608695652173913 0 0  0.6691304347826087 0 0  0.677391304347826 0 0  0.6856521739130435 0 0  0.6939130434782609 0 0  0.7021739130434783 0 0  0.7104347826086956 0 0  0.718695652173913 0 0  0.7269565217391304 0 0  0.7352173913043478 0 0  0.7434782608695653 0 0  0.7517391304347827 0 0  0.7599999999999999 0 0  0.7682608695652173 0 0  0.7765217391304348 0 0  0.7847826086956522 0 0  0.7930434782608695 0 0  0.8013043478260868 0 0  0.8095652173913043 0 0  0.8178260869565217 0 0  0.8260869565217391 0 0  0.8343478260869565 0 0  0.8426086956521739 0 0  0.8508695652173912 0 0  0.8591304347826086 0 0  0.8673913043478261 0 0  0.8756521739130434 0 0  0.8839130434782608 0 0  0.8921739130434783 0 0  0.9004347826086956 0 0  0.908695652173913 0 0  0.9169565217391303 0 0  0.9252173913043478 0 0  0.9334782608695652 0 0  0.9417391304347826 0 0  0.95 0 0  0.9582608695652173 0 0  0.9665217391304347 0 0  0.9747826086956521 0 0  0.9830434782608696 0 0  0.991304347826087 0 0  0.9995652173913042 0 0  1.007826086956522 0 0  1.016086956521739 0 0  1.024347826086957 0 0  1.032608695652174 0 0  1.040869565217391 0 0  1.049130434782609 0 0  1.057391304347826 0 0  1.065652173913043 0 0  1.073913043478261 0 0  1.082173913043478 0 0  1.090434782608696 0 0  1.098695652173913 0 0  1.10695652173913 0 0  1.115217391304348 0 0  1.123478260869565 0 0  1.131739130434783 0 0  1.14 0 0  1.148260869565217 0 0  1.156521739130435 0 0  1.164782608695652 0 0  1.17304347826087 0 0  1.181304347826087 0 0  1.189565217391304 0 0  1.197826086956522 0 0  1.206086956521739 0 0  1.214347826086956 0 0  1.222608695652174 0 0  1.230869565217391 0 0  1.239130434782609 0 0  1.247391304347826 0 0  1.255652173913044 0 0  1.263913043478261 0 0  1.272173913043478 0 0  1.280434782608696 0 0  1.288695652173913 0 0  1.296956521739131 0 0  1.305217391304348 0 0  1.313478260869565 0 0  1.321739130434783 0 0  1.33 0 0  1.338260869565217 0 0  1.346521739130435 0 0  1.354782608695652 0 0  1.36304347826087 0 0  1.371304347826087 0 0  1.379565217391304 0 0  1.387826086956522 0 0  1.396086956521739 0 0  1.404347826086957 0 0  1.412608695652174 0 0  1.420869565217391 0 0  1.429130434782609 0 0  1.437391304347826 0 0  1.445652173913043 0 0  1.453913043478261 0 0  1.462173913043478 0 0  1.470434782608696 0 0  1.478695652173913 0 0  1.486956521739131 0 0  1.495217391304348 0 0  1.503478260869565 0 0  1.511739130434782 0 0  1.52 0 0  1.528260869565217 0 0  1.536521739130435 0 0  1.544782608695652 0 0  1.55304347826087 0 0  1.561304347826087 0 0  1.569565217391304 0 0  1.577826086956522 0 0  1.586086956521739 0 0  1.594347826086957 0 0  1.602608695652174 0 0  1.610869565217391 0 0  1.619130434782609 0 0  1.627391304347826 0 0  1.635652173913043 0 0  1.643913043478261 0 0  1.652173913043478 0 0  1.660434782608696 0 0  1.668695652173913 0 0  1.67695652173913 0 0  1.685217391304348 0 0  1.693478260869565 0 0  1.701739130434782 0 0  1.71 0 0  1.718260869565217 0 0  1.726521739130435 0 0  1.734782608695652 0 0  1.743043478260869 0 0  1.751304347826087 0 0  1.759565217391304 0 0  1.767826086956522 0 0  1.776086956521739 0 0  1.784347826086957 0 0  1.792608695652174 0 0  1.800869565217391 0 0  1.809130434782608 0 0  1.817391304347826 0 0  1.825652173913043 0 0  1.833913043478261 0 0  1.842173913043478 0 0  1.850434782608696 0 0  1.858695652173913 0 0  1.86695652173913 0 0  1.875217391304348 0 0  1.883478260869565 0 0  1.891739130434782 0 0  1.9 0 0  1.908260869565217 0 0  1.916521739130435 0 0  1.924782608695652 0 0  1.933043478260869 0 0  1.941304347826087 0 0  1.949565217391304 0 0  1.957826086956522 0 0  1.966086956521739 0 0  1.974347826086956 0 0  1.982608695652174 0 0  1.990869565217391 0 0  1.999130434782608 0 0  2.007391304347826 0 0  2.015652173913043 0 0  2.023913043478261 0 0  2.032173913043478 0 0  2.040434782608695 0 0  2.048695652173913 0 0  2.05695652173913 0 0  2.065217391304348 0 0  2.073478260869565 0 0  2.081739130434782 0 0  2.09 0 0  2.098260869565217 0 0  2.106521739130435 0 0  2.114782608695652 0 0  2.12304347826087 0 0  2.131304347826087 0 0  2.139565217391304 0 0  2.147826086956522 0 0  2.156086956521739 0 0  2.164347826086956 0 0  2.172608695652174 0 0  2.180869565217391 0 0  2.189130434782609 0 0  2.197391304347826 0 0  2.205652173913043 0 0  2.213913043478261 0 0  2.222173913043478 0 0  2.230434782608695 0 0  2.238695652173913 0 0  2.24695652173913 0 0  2.255217391304348 0 0  2.263478260869565 0 0  2.271739130434783 0 0  2.28 0 0  2.288260869565217 0 0  2.296521739130434 0 0  2.304782608695652 0 0  2.31304347826087 0 0  2.321304347826087 0 0  2.329565217391304 0 0  2.337826086956521 0 0  2.346086956521739 0 0  2.354347826086956 0 0  2.362608695652174 0 0  2.370869565217391 0 0  2.379130434782609 0 0  2.387391304347826 0 0  2.395652173913044 0 0  2.403913043478261 0 0  2.412173913043478 0 0  2.420434782608695 0 0  2.428695652173913 0 0  2.43695652173913 0 0  2.445217391304348 0 0  2.453478260869565 0 0  2.461739130434782 0 0  2.47 0 0  2.478260869565217 0 0  2.486521739130435 0 0  2.494782608695652 0 0  2.503043478260869 0 0  2.511304347826087 0 0  2.519565217391305 0 0  2.527826086956522 0 0  2.536086956521739 0 0  2.544347826086956 0 0  2.552608695652174 0 0  2.560869565217391 0 0  2.569130434782608 0 0  2.577391304347826 0 0  2.585652173913043 0 0  2.593913043478261 0 0  2.602173913043478 0 0  2.610434782608696 0 0  2.618695652173913 0 0  2.62695652173913 0 0  2.635217391304348 0 0  2.643478260869565 0 0  2.651739130434783 0 0  2.66 0 0  2.668260869565217 0 0  2.676521739130435 0 0  2.684782608695652 0 0  2.693043478260869 0 0  2.701304347826087 0 0  2.709565217391304 0 0  2.717826086956522 0 0  2.726086956521739 0 0  2.734347826086956 0 0  2.742608695652174 0 0  2.750869565217391 0 0  2.759130434782609 0 0  2.767391304347826 0 0  2.775652173913044 0 0  2.783913043478261 0 0  2.792173913043478 0 0  2.800434782608696 0 0  2.808695652173913 0 0  2.81695652173913 0 0  2.825217391304347 0 0  2.833478260869565 0 0  2.841739130434783 0 0  2.85 0 0  2.858260869565217 0 0  2.866521739130435 0 0  2.874782608695652 0 0  2.88304347826087 0 0  2.891304347826087 0 0  2.899565217391304 0 0  2.907826086956522 0 0  2.916086956521739 0 0  2.924347826086957 0 0  2.932608695652174 0 0  2.940869565217391 0 0  2.949130434782608 0 0  2.957391304347826 0 0  2.965652173913043 0 0  2.973913043478261 0 0  2.982173913043478 0 0  2.990434782608696 0 0  2.998695652173913 0 0  3.006956521739131 0 0  3.015217391304348 0 0  3.023478260869565 0 0  3.031739130434782 0 0  3.04 0 0  3.048260869565218 0 0  3.056521739130435 0 0  3.064782608695652 0 0  3.073043478260869 0 0  3.081304347826087 0 0  3.089565217391304 0 0  3.097826086956522 0 0  3.106086956521739 0 0  3.114347826086956 0 0  3.122608695652174 0 0  3.130869565217391 0 0  3.139130434782609 0 0  3.147391304347826 0 0  3.155652173913043 0 0  3.163913043478261 0 0  3.172173913043478 0 0  3.180434782608696 0 0  3.188695652173913 0 0  3.19695652173913 0 0  3.205217391304347 0 0  3.213478260869565 0 0  3.221739130434782 0 0  3.23 0 0  3.238260869565217 0 0  3.246521739130435 0 0  3.254782608695652 0 0  3.26304347826087 0 0  3.271304347826087 0 0  3.279565217391304 0 0  3.287826086956521 0 0  3.296086956521739 0 0  3.304347826086957 0 0  3.312608695652174 0 0  3.320869565217391 0 0  3.329130434782608 0 0  3.337391304347826 0 0  3.345652173913043 0 0  3.353913043478261 0 0  3.362173913043478 0 0  3.370434782608696 0 0  3.378695652173913 0 0  3.386956521739131 0 0  3.395217391304348 0 0  3.403478260869565 0 0  3.411739130434782 0 0  3.419999999999999 0 0  3.428260869565217 0 0  3.436521739130435 0 0  3.444782608695652 0 0  3.453043478260869 0 0  3.461304347826087 0 0  3.469565217391304 0 0  3.477826086956522 0 0  3.486086956521739 0 0  3.494347826086956 0 0  3.502608695652174 0 0  3.510869565217391 0 0  3.519130434782609 0 0  3.527391304347826 0 0  3.535652173913043 0 0  3.54391304347826
[...]
<PointData  Scalars="rho_bar"> 
<DataArray  type="Float64"  Name="rho_bar"  format="ascii">9.9999983704862427e-01  9.9999982685378364e-01  9.9999982694626355e-01  9.9999954780217148e-01  9.9999898792968311e-01  9.9999849286467080e-01  9.9999892893339115e-01  1.0000009261896308e+00  1.0000028857648189e+00  9.9999985250502066e-01  9.9998964266132739e-01  9.9998611335728771e-01  1.0000105957540855e+00  1.0000420112528257e+00  1.0000080957621356e+00  9.9989721887361493e-01  9.9983018000548107e-01  9.9991309178532128e-01  1.0000833923588994e+00  1.0002010876153427e+00  1.0002041923126848e+00  1.0001124224690858e+00  9.9997719256775841e-01  9.9986762631545434e-01  9.9983783051275232e-01  9.9988297567912443e-01  9.9995061784266892e-01  9.9999433223514578e-01  1.0000039383336512e+00  9.9999444176504282e-01  9.9998372028980254e-01  9.9998094850594788e-01  9.9998573421358150e-01  9.9999242230398566e-01  9.9999616133204139e-01  9.9999672773236992e-01  9.9999668242896944e-01  9.9999725426534070e-01  9.9999789678736550e-01  9.9999823301732726e-01  9.9999843129393562e-01  9.9999866067935339e-01  9.9999853954337459e-01  9.9999877708503471e-01  9.9999909754037308e-01  9.9999582949229127e-01  1.0000000036054539e+00  1.0000074426972358e+00  9.9996850862886244e-01  9.9993932885664305e-01  1.0000730716254280e+00  1.0002848087156526e+00  1.0003118336260854e+00  1.0001288119306113e+00  9.9991894790140223e-01  9.9979125992381612e-01  9.9974797919482028e-01  9.9976609655814375e-01  9.9982005573314015e-01  9.9988467804977854e-01  9.9994351569837769e-01  9.9999135402996953e-01  1.0000286750706557e+00  1.0000565441550997e+00  1.0000755586415526e+00  1.0000862072141312e+00  1.0000891966063321e+00  1.0000856641413136e+00  1.0000775759427760e+00  1.0000679789282034e+00  1.0000600348077793e+00  1.0000552609622688e+00  1.0000528806547295e+00  1.0000509425233162e+00  1.0000479415935022e+00  1.0000434014474142e+00  1.0000375381872371e+00  1.0000304948743413e+00  1.0000219078880952e+00  1.0000117720816510e+00  1.0000015468456103e+00  9.9999367785307547e-01  9.9999049454807121e-01  9.9999358800513527e-01  1.0000033605303364e+00  1.0000187803906027e+00  1.0000376037729661e+00  1.0000572190263171e+00  1.0000757042862487e+00  1.0000919218770172e+00  1.0001051256738833e+00  1.0001148769822601e+00  1.0001209949770256e+00  1.0001233959399760e+00  1.0001220098149455e+00  1.0001167041806138e+00  1.0001073155521489e+00  1.0000937449312621e+00  1.0000759063490539e+00  1.0000534271641468e+00  1.0000256682635649e+00  9.9999218617835572e-01  9.9995298747796157e-01  9.9990852671462305e-01  9.9986011855595480e-01  9.9981034185658357e-01  9.9976244139568982e-01  9.9971891415374092e-01  9.9968071258296676e-01  9.9964744059107213e-01  9.9961805775573587e-01  9.9959160124539559e-01  9.9956743106976442e-01  9.9954493128842348e-01  9.9952329128411455e-01  9.9950152133835823e-01  9.9947860518552745e-01  9.9945354971743117e-01  9.9942546292241630e-01  9.9939394427099215e-01  9.9935969221010112e-01  9.9932449533813872e-01  9.9929064647453325e-01  9.9926007736266798e-01  9.9923254604921175e-01  9.9920420154223522e-01  9.9916975141949715e-01  9.9912654333981954e-01  9.9907716446385142e-01  9.9902906635418365e-01  9.9899035032962546e-01  9.9896520447953130e-01  9.9895391149968404e-01  9.9895514201239477e-01  9.9896554569387541e-01  9.9897812537395603e-01  9.9898486819184162e-01  9.9898099600261148e-01  9.9896517490371273e-01  9.9893767145640888e-01  9.9889971205242845e-01  9.9885329231518971e-01  9.9880196098488261e-01  9.9875155762832435e-01  9.9870678328706453e-01  9.9866743937626601e-01  9.9863177209405152e-01  9.9860000710323837e-01  9.9857168948347452e-01  9.9854420352961570e-01  9.9851519813327805e-01  9.9848353366184905e-01  9.9844927856537602e-01  9.9841447239526937e-01  9.9838208994694033e-01  9.9835319942951573e-01  9.9832627909032201e-01  9.9829877340139594e-01  9.9826869100135052e-01  9.9823646877029248e-01  9.9820617965042735e-01  9.9818278106731850e-01  9.9816877998080178e-01  9.9816458745653358e-01  9.9816841554296498e-01  9.9817450622937320e-01  9.9817433052720828e-01  9.9815816383613609e-01  9.9811550356433376e-01  9.9803928499215144e-01  9.9793172483245929e-01  9.9780389319277518e-01  9.9767005698980882e-01  9.9754809268493794e-01  9.9746466465269701e-01  9.9744605493113403e-01  9.9750593102046581e-01  9.9768256223951712e-01  9.9807208795765801e-01  9.9866022616243855e-01  9.9919608011741901e-01  9.9950676833578567e-01  9.9968655911879301e-01  9.9982372725755453e-01  9.9990733434308510e-01  9.9994159778381142e-01  9.9995846477025263e-01  9.9999421715378201e-01  9.9999508633476009e-01  9.9988226471356101e-01  9.9987491725332878e-01  1.0002249752412844e+00  1.0004441916369007e+00  9.9978985178010271e-01  9.9863413791720768e-01  9.9804644142103816e-01  9.9814006105174757e-01  9.9821058540932117e-01  9.9820250850391723e-01  9.9858674917464818e-01  9.9916752021002275e-01  9.9948000633835410e-01  9.9962683279863318e-01  9.9977028917626987e-01  9.9985809567111783e-01  9.9990466550612589e-01  9.9987865296948419e-01  9.9990567419368503e-01  1.0000746721611273e+00  9.9964400376035045e-01  9.9873725498273580e-01  9.9908654442850497e-01  1.0003867459641134e+00  1.0002830629696715e+00  9.9830525339863385e-01  9.9584746191835805e-01  9.9400216742973646e-01  9.9307162938091031e-01  9.9288869816889558e-01  9.9314250316787223e-01  9.9357913794572872e-01  9.9404624259610574e-01  9.9447428559607398e-01  9.9484327831336661e-01  9.9515659217927666e-01  9.9542492212307743e-01  9.9565332191522549e-01  9.9583307825602607e-01  9.9595096096201796e-01  9.9600490728438795e-01  9.9601022466302913e-01  9.9599563268467217e-01  9.9599088676707037e-01  9.9600652157504932e-01  9.9603039060688137e-01  9.9604971543681009e-01  9.9606604788988840e-01  9.9608731841484044e-01  9.9611709171718610e-01  9.9615075185620838e-01  9.9618070244796941e-01  9.9620338343949344e-01  9.9622040472673568e-01  9.9623480999007807e-01  9.9624902728748022e-01  9.9626441265472687e-01  9.9628164435400124e-01  9.9630070138639892e-01  9.9632116530451820e-01  9.9634206770908174e-01  9.9636198244396323e-01  9.9637882170927927e-01  9.9638993460475878e-01  9.9639180819248174e-01  9.9638217627234349e-01  9.9636553056517818e-01  9.9635319394281274e-01  9.9635251630736998e-01  9.9636221968389027e-01  9.9637792550595838e-01  9.9639560482434963e-01  9.9641208966325778e-01  9.9642654646692153e-01  9.9643964463195189e-01  9.9645145535585433e-01  9.9646049855744945e-01  9.9646510490195173e-01  9.9646426382556863e-01  9.9645751224277446e-01  9.9644516862298438e-01  9.9642943173558352e-01  9.9641435241739151e-01  9.9640464022880049e-01  9.9640374995434577e-01  9.9641248930191728e-01  9.9642963633855963e-01  9.9645537499505954e-01  9.9649351071324033e-01  9.9655160032621093e-01  9.9664010614208287e-01  9.9676899671188957e-01  9.9693826647674133e-01  9.9711642926109745e-01  9.9721365278686236e-01  9.9710425128486990e-01  9.9676628595284134e-01  9.9650346944879620e-01  9.9682874298325341e-01  9.9776684039685326e-01  9.9869426814213624e-01  9.9922557110873633e-01  9.9951534189157509e-01  9.9970738885478128e-01  9.9981184352491359e-01  9.9986474638622980e-01  9.9989408416595393e-01  9.9986852068412468e-01  9.9989500667866948e-01  1.0000214747038605e+00  9.9949848257646390e-01  9.9860660185624006e-01  9.9950080096469762e-01  1.0004249857455616e+00  9.9576608101332686e-01  9.8474873156749165e-01  9.7182012266281548e-01  9.6160167603958946e-01  9.5651513647276998e-01  9.5626236648899621e-01  9.5900837815714113e-01  9.6293066577024278e-01  9.6685702851528355e-01  9.7021445950623753e-01  9.7279096570192602e-01  9.7455273447109325e-01  9.7554152859938226e-01  9.7583144747163197e-01  9.7552162729136860e-01  9.7475175668550051e-01  9.7371334681147759e-01  9.7263028429044829e-01  9.7170643734404416e-01  9.7108257015794996e-01  9.7082130437695924e-01  9.7091511348076309e-01  9.7129755452020250e-01  9.7186199317225253e-01  9.7249411598783375e-01  9.7310732216273854e-01  9.7365520676110917e-01  9.7413162715525781e-01  9.7456239837802239e-01  9.7499009534264192e-01  9.7545456580934309e-01  9.7598201382578920e-01  9.7658109227037959e-01  9.7724462738555085e-01  9.7795176090548119e-01  9.7867613747284155e-01  9.7939405506125277e-01  9.8009017367817153e-01  9.8075632776718291e-01  9.8138997254021298e-01  9.8199010074058335e-01  9.8255546561784279e-01  9.8308373215053801e-01  9.8357444860861287e-01  9.8403116835184268e-01  9.8446424366625473e-01  9.8488977209907724e-01  9.8532612000039355e-01  9.8578847224837174e-01  9.8628681905038895e-01  9.8682401054263857e-01  9.8739615522991986e-01  9.8798973002291546e-01  9.8857979553688702e-01  9.8913366277906600e-01  9.8961893361124753e-01  9.9000573623525945e-01  9.9026065969583887e-01  9.9033909272222553e-01  9.9019831743775311e-01  9.8982245191970053e-01  9.8923138307442970e-01  9.8847712700231971e-01  9.8765989228818729e-01  9.8694393448407625e-01  9.8651527792320248e-01  9.8648474383432327e-01  9.8692313665402986e-01  9.8802068590503955e-01  9.8984559635022318e-01  9.9193281041600123e-01  9.9364395845715825e-01  9.9471299249981193e-01  9.9514276012035585e-01  9.9488354174292304e-01  9.9363934012414312e-01  9.9044504375277098e-01  9.8189831200850808e-01  9.5455975537054194e-01  8.5855213748677739e-01  5.1732587967637511e-01  1.5277676691006659e-01  3.3747013117080497e-02  8.3984374316248764e-03  2.3696952950576179e-03  7.6464987063277524e-04  2.8430072964178923e-04  1.0648867849111968e-04  4.7267613742071847e-05  2.1894230086096342e-05  1.0712894120931127e-05  5.8454255404400716e-06  3.2952599989267315e-06  1.9964306381724009e-06  1.2708755542761184e-06  8.4354280862730955e-07  5.8355297467143772e-07  4.1613901184864213e-07  3.0520994786834296e-07  2.2888254073413907e-07  1.7491540004189917e-07  1.3576386475034867e-07  1.0674008353869363e-07  8.4819714084260570e-08  6.7997647268937131e-08  5.4911752908122746e-08  4.4613897981794905e-08  3.6430335030352447e-08  2.9872847793726464e-08  2.4581373418805141e-08  2.0286196570839945e-08  1.6782255196622952e-08  1.3911790503718068e-08  1.1551894525292739e-08  9.6059956720946323e-09  7.9974306711649061e-09  6.6649155951410733e-09  5.5591038721279453e-09  4.6400565265582560e-09  3.8752573683200439e-09  3.2381459582954680e-09  2.7069106640471620e-09  2.2636319022407737e-09  1.8935009989139119e-09  1.5842880658042256e-09  1.3258445708486362e-09  1.1097553880595962e-09  9.2902235280647119e-10  7.7782066846742695e-10  6.5129607543145183e-10  5.4540255515036190e-10  4.5676149550268125e-10  3.8255498415983763e-10  3.2042805883338535e-10  2.6841010946267995e-10  2.2485557390221182e-10  1.8838650287243563e-10  1.5785261764096492e-10  1.3228785617989373e-10  1.1088506724691913e-10  9.2969481767718586e-11  7.7977184577489218e-11  6.5434629615544750e-11  5.4946557133041091e-11  4.6182680650978823e-11  3.8868022603191502e-11  3.2771571696622046e-11  2.7701545164693387e-11  2.3498622385915876e-11  2.0031265618209355e-11  1.7190447523157067e-11  1.4887113941387185e-11  1.3049522712735323e-11  1.1620970170406732e-11  1.0557583131455364e-11  9.8284921149905308e-12  9.4172557591476003e-12  9.3324582794318106e-12  9.9999923271545410e-01  9.9999921358290567e-01  9.9999905330534211e-01  9.9999924660152972e-01  9.9999999614086021e-01  1.0000010598534150e+00  1.0000011889313705e+00  9.9999851313178967e-01  9.9999333027100035e-01  9.9999222788664199e-01  1.0000052613498258e+00  1.0000242972835114e+00  1.0000060408893050e+00  9.9993295048999375e-01  9.9991054173200833e-01  1.0000652925123197e+00  1.0002795900890162e+00  1.0002589356822631e+00  9.9994742680147763e-01  9.9960326294187485e-01  9.9945108407491978e-01  9.9951857035298108e-01  9.9973653095597126e-01  9.9998967797358773e-01  1.0001418927161996e+00  1.0001337196616036e+00  1.0000292947168261e+00  9.9993619536918266e-01  9.9990847204331157e-01  9.9993323289713132e-01  9.9997269701911706e-01  9.9999912177413552e-01  1.0000050827218632e+00  9.9999873688097873e-01  9.9999271819798774e-01  9.9999286804181098e-01  9.9999591426671719e-01  9.9999750263754095e-01  9.9999770025889800e-01  9.9999794564450051e-01  9.9999832677215417e-01  9.9999849484256864e-01  9.9999848143358194e-01  9.9999898577903668e-01  9.9999745971443610e-01  9.9999859063447571e-01  1.0000029385432601e+00  9.9997994347826547e-01  9.9999025710187628e-01  1.0000925834082937e+00  1.0000009005918151e+00  9.9954271249534277e-01  9.9917860424478266e-01  9.9926542126445472e-01  9.9954545756591162e-01  9.9969611335398612e-01  9.9966568016672819e-01  9.9951938363996184e-01  9.9932536911914238e-01  9.9913985128623828e-01  9.9899739045234148e-01  9.9890418186850483e-01  9.9884878361531504e-01  9.9881815551623065e-01  9.9880380239693156e-01  9.9880100845526654e-01  9.9880712676972760e-01  9.9882022609767485e-01  9.9883809961773129e-01  9.9885700024000357e-01  9.9887183925139011e-01  9.9887917059760400e-01  9.9887974365816834e-01  9.9887768836513813e-01  9.9887709663085000e-01  9.9887975136846940e-01  9.9888537585170423e-01  9.9889303083613379e-01  9.9890277491672053e-01  9.9891545541112903e-01  9.9893000879061089e-01  9.9894270898823267e-01  9.9894938505210062e-01  9.9894699892890926e-01  9.9893438198422657e-01  9.9891284480989273e-01  9.9888594561473387e-01  9.9885847290074281e-01  9.9883421956792917e-01  9.9881481802341798e-01  9.9880070585902436e-01  9.9879180968302184e-01  9.9878763951578864e-01  9.9878764765357864e-01  9.9879144067499015e-01  9.9879890889767708e-01  9.9881023250395007e-01  9.9882567919308440e-01  9.9884541660957571e-01  9.9886989868037990e-01  9.9890032240135818e-01  9.9893801663128312e-01  9.9898352553454461e-01  9.9903664286684102e-01  9.9909616997722328e-01  9.9915887482667265e-01  9.9921947655642340e-01  9.9927296471973892e-01  9.9931703161557717e-01  9.9935233148492586e-01  9.9938125257971899e-01  9.9940630287593446e-01  9.9942898023356674e-01  9.9945011583826204e-01  9.9947062662820763e-01  9.9949178429245211e-01  9.9951501455924008e-01  9.9954169674287707e-01  9.9957314172056377e-01  9.9961029439949134e-01  9.9965261409389317e-01  9.9969735150636840e-01  9.9974036841943237e-01  9.9977753953145976e-01  9.9980693174955726e-01  9.9983289032104850e-01  9.9986564867698247e-01  9.9991370661802881e-01  9.9997701402422989e-01  1.0000449362143891e+00  1.0001011303665461e+00  1.0001343163558096e+00  1.0001429046732639e+00  1.0001303282784908e+00  1.0001015643355515e+00  1.0000665279860523e+00  1.0000400347023828e+00  1.0000329478229986e+00  1.0000477166521275e+00  1.0000823591467416e+00  1.0001334119428198e+00  1.0001966383534329e+00  1.0002669411921143e+00  1.0003357375133850e+00  1.0003923834956268e+00  1.0004341906337235e+00  1.0004670221151859e+00  1.0004938673946024e+00  1.0005145503368091e+00  1.0005329036806461e+00  1.0005542518748771e+00  1.0005811361772108e+00  1.0006139090771500e+00  1.0006499892269132e+00  1.0006833279522220e+00  1.0007093813721848e+00  1.0007293506280170e+00  1.0007481857106331e+00  1.0007708231059358e+00  1.0007993008163034e+00  1.0008289511024164e+00  1.0008497745381095e+00  1.0008548660464973e+00  1.0008430391017011e+00  1.0008156870300282e+00  1.0007794654066109e+00  1.0007470141846961e+00  1.0007319253575202e+00  1.0007481020538822e+00  1.0008073058756868e+00  1.0009074879210496e+00  1.0010273629793818e+00  1.0011361377733785e+00  1.0012051411844740e+00  1.0012012323690727e+00  1.0010917850603893e+00  1.0008845356295752e+00  1.0006232199701759e+00  1.0002627410711187e+00  9.9970859403319146e-01  9.9922527703166164e-01  9.9923126502968806e-01  9.9955343402132446e-01  9.9978051059237671e-01  9.9987683443813113e-01  9.9993140107763434e-01  9.9997160143239960e-01  9.9996519503161330e-01  9.9990925006280518e-01  1.0000181979567710e+00  1.0002408918185104e+00  9.9988093456920513e-01  9.9899579807144345e-01  9.9919800638773348e-01  1.0010835920507937e+00  1.0026491323569302e+00  1.0022981086790992e+00  1.0010754832755981e+00  1.0003603610962661e+00  9.9981243223465399e-01  9.9912187215418746e-01  9.9903886692357169e-01  9.9948614872318386e-01  9.9973585494202477e-01  9.9981764000611884e-01  9.9986634176124944e-01  9.9988682741650625e-01  9.9998893439137404e-01  9.9968345047781038e-01  9.9945040285332631e-01  1.0007363127104982e+00  1.0007150036893919e+00  9.9597531705626707e-01  9.8940632671958251e-01  9.8441862972914640e-01  9.8095687797516662e-01  9.7868970324415594e-01  9.7780346293441367e-01  9.7815546332936010e-01  9.7927310164857206e-01  9.8069856507828512e-01  9.8213397035069605e-01  9.8342040135418085e-01  9.8448193745873558e-01  9.8528583295149641e-01  9.8582595291398611e-01  9.8612046297080069e-01  9.8622644527698544e-01  9.8623785349949555e-01  9.8625179416848807e-01  9.8633348408463861e-01  9.8649966468050820e-01  9.8672020722163833e-01  9.8695258772846606e-01  9.8718803587619219e-01  9.8744538725600728e-01  9.8772926425606089e-01  9.8802246229455926e-01  9.8830418206739301e-01  9.8856699580038299e-01  9.8882039057395943e-01  9.8907844816031376e-01  9.8934767960153791e-01  9.8962713308897721e-01  9.8991234916647253e-01  9.9019783488560309e-01  9.9047786834276730e-01  9.9074779246556011e-01  9.9100461942740481e-01  9.9124815072587502e-01  9.9148141535317302e-01  9.9171121106314408e-01  9.9194770082442862e-01  9.9220413613661629e-01  9.9249435435885480e-01  9.9282287363066979e-01  9.9317162568916506e-01  9.9351128041562087e-01  9.9382465916003571e-01  9.9410802979886170e-01  9.9436285994408447e-01  9.9459467305111404e-01  9.9480901587034209e-01  9.9500876748301514e-01  9.9519644703812837e-01  9.9537786461089872e-01  9.9556151080090138e-01  9.9575543282794587e-01  9.9596580598254625e-01  9.9619623051377693e-01  9.9644478691520666e-01  9.9670169634932326e-01  9.9694994585126850e-01  9.9716890092207910e-01  9.9733840820156960e-01  9.9744209585261756e-01  9.9746399433618627e-01  9.9738194819080672e-01  9.9716532587404128e-01  9.9677770364964435e-01  9.9618434849722726e-01  9.9537386146991835e-01  9.9440294940500507e-01  9.9347877187946954e-01  9.9301809488898618e-01  9.9351198398544216e-01  9.9505823280160421e-01  9.9686097368473414e-01  9.9787992904250578e-01  9.9826833652787039e-01  9.9878485011872109e-01  9.9934414167296803e-01  9.9963263309539219e-01  9.9976122946382850e-01  9.9983805484868382e-01  9.9986233476179920e-01  9.9987747673257266e-01  9.9991930012263841e-01  9.9961277969419626e-01  9.9941277383289040e-01  1.0006529296006714e+00  9.9962452508273469e-01  9.9205439682244978e-01  9.8386157383866546e-01  9.7809482029614880e-01  9.6786509700336854e-01  9.5414138783033797e-01  9.4459795582891992e-01  9.4155275793116033e-01  9.4285730618440688e-01  9.4602787171873115e-01  9.4953675540443405e-01  9.5268547439143547e-01  9.5522388129907587e-01  9.5709653132964378e-01  9.5833166888589794e-01  9.5899993784034332e-01  9.5919350210434773e-01  9.5900860261544651e-01  9.5853424469731618e-01  9.5785891641993393e-01  9.5710671380418422e-01  9.5642765946089037e-01  9.5594756972225081e-01  9.5572753865414972e-01  9.5576480851809487e-01  9.5601945910736696e-01  9.5642860776520155e-01  9.5690879968214260e-01  9.5738931692739815e-01  9.5783090336189636e-01  9.5822275107577481e-01  9.5857688772343930e-01  9.5892400471896866e-01  9.5929513896006646e-01  9.5971103650663370e-01  9.6017881293140439e-01  9.6069606160593368e-01  9.6125113975363030e-01  9.6182537967735959e-01  9.6239879371991133e-01  9.6295888648678107e-01  9.6349884712582334e-01  9.6401647586320505e-01  9.6451082087356887e-01  9.6498159965335761e-01  9.6542757893402475e-01  9.6585029902758734e-01  9.6625543797889213e-01  9.6665456656373139e-01  9.6706385354261715e-01  9.6750252327227915e-01  9.6798781341634088e-01  9.6853586547494930e-01  9.6915774116600684e-01  9.6985414158263428e-01  9.7061105224465904e-01  9.7139561531382701e-01  9.7214867750636724e-01  9.7278368946717986e-01  9.7320388887312370e-01  9.7334721375943789e-01  9.7321661846123819e-01  9.7286561869091315e-01  9.7236867759644297e-01  9.7182396187492037e-01  9.7136375047365731e-01  9.7116568660021274e-01  9.71500513318