<?xml version="1.0"?>
<VTKFile type="UnstructuredGrid"  version="0.1"  >
<UnstructuredGrid>
<Piece  NumberOfPoints="28121" NumberOfCells="55200">
<Points>
<DataArray  type="Float64"  NumberOfComponents="3"  format="ascii">0 0 0  0.008260869565217391 0 0  0.01652173913043478 0 0  0.02478260869565217 0 0  0.03304347826086956 0 0  0.04130434782608695 0 0  0.04956521739130434 0 0  0.05782608695652174 0 0  0.06608695652173913 0 0  0.07434782608695652 0 0  0.08260869565217391 0 0  0.0908695652173913 0 0  0.09913043478260869 0 0  0.1073913043478261 0 0  0.1156521739130435 0 0  0.1239130434782609 0 0  0.1321739130434783 0 0  0.1404347826086956 0 0  0.148695652173913 0 0  0.1569565217391304 0 0  0.1652173913043478 0 0  0.1734782608695652 0 0  0.1817391304347826 0 0  0.19 0 0  0.1982608695652174 0 0  0.2065217391304348 0 0  0.2147826086956522 0 0  0.2230434782608696 0 0  0.2313043478260869 0 0  0.2395652173913043 0 0  0.2478260869565218 0 0  0.2560869565217391 0 0  0.2643478260869565 0 0  0.2726086956521739 0 0  0.2808695652173913 0 0  0.2891304347826087 0 0  0.2973913043478261 0 0  0.3056521739130434 0 0  0.3139130434782609 0 0  0.3221739130434783 0 0  0.3304347826086956 0 0  0.338695652173913 0 0  0.3469565217391304 0 0  0.3552173913043478 0 0  0.3634782608695652 0 0  0.3717391304347826 0 0  0.3799999999999999 0 0  0.3882608695652174 0 0  0.3965217391304348 0 0  0.4047826086956521 0 0  0.4130434782608696 0 0  0.4213043478260869 0 0  0.4295652173913043 0 0  0.4378260869565217 0 0  0.4460869565217391 0 0  0.4543478260869565 0 0  0.4626086956521739 0 0  0.4708695652173913 0 0  0.4791304347826086 0 0  0.4873913043478261 0 0  0.4956521739130435 0 0  0.5039130434782608 0 0  0.5121739130434783 0 0  0.5204347826086956 0 0  0.528695652173913 0 0  0.5369565217391304 0 0  0.5452173913043478 0 0  0.5534782608695652 0 0  0.5617391304347825 0 0  0.57 0 0  0.5782608695652174 0 0  0.5865217391304348 0 0  0.5947826086956521 0 0  0.6030434782608696 0 0  0.6113043478260869 0 0  0.6195652173913043 0 0  0.6278260869565218 0 0  0.6360869565217391 0 0  0.6443478260869565 0 0  0.6526086956521739 0 0  0.6608695652173913 0 0  0.6691304347826087 0 0  0.677391304347826 0 0  0.6856521739130435 0 0  0.6939130434782609 0 0  0.7021739130434783 0 0  0.7104347826086956 0 0  0.718695652173913 0 0  0.7269565217391304 0 0  0.7352173913043478 0 0  0.7434782608695653 0 0  0.7517391304347827 0 0  0.7599999999999999 0 0  0.7682608695652173 0 0  0.7765217391304348 0 0  0.7847826086956522 0 0  0.7930434782608695 0 0  0.8013043478260868 0 0  0.8095652173913043 0 0  0.8178260869565217 0 0  0.8260869565217391 0 0  0.8343478260869565 0 0  0.8426086956521739 0 0  0.8508695652173912 0 0  0.8591304347826086 0 0  0.8673913043478261 0 0  0.8756521739130434 0 0  0.8839130434782608 0 0  0.8921739130434783 0 0  0.9004347826086956 0 0  0.908695652173913 0 0  0.9169565217391303 0 0  0.9252173913043478 0 0  0.9334782608695652 0 0  0.9417391304347826 0 0  0.95 0 0  0.9582608695652173 0 0  0.9665217391304347 0 0  0.9747826086956521 0 0  0.9830434782608696 0 0  0.991304347826087 0 0  0.9995652173913042 0 0  1.007826086956522 0 0  1.016086956521739 0 0  1.024347826086957 0 0  1.032608695652174 0 0  1.040869565217391 0 0  1.049130434782609 0 0  1.057391304347826 0 0  1.065652173913043 0 0  1.073913043478261 0 0  1.082173913043478 0 0  1.090434782608696 0 0  1.098695652173913 0 0  1.10695652173913 0 0  1.115217391304348 0 0  1.123478260869565 0 0  1.131739130434783 0 0  1.14 0 0  1.148260869565217 0 0  1.156521739130435 0 0  1.164782608695652 0 0  1.17304347826087 0 0  1.181304347826087 0 0  1.189565217391304 0 0  1.197826086956522 0 0  1.206086956521739 0 0  1.214347826086956 0 0  1.222608695652174 0 0  1.230869565217391 0 0  1.239130434782609 0 0  1.247391304347826 0 0  1.255652173913044 0 0  1.263913043478261 0 0  1.272173913043478 0 0  1.280434782608696 0 0  1.288695652173913 0 0  1.296956521739131 0 0  1.305217391304348 0 0  1.313478260869565 0 0  1.321739130434783 0 0  1.33 0 0  1.338260869565217 0 0  1.346521739130435 0 0  1.354782608695652 0 0  1.36304347826087 0 0  1.371304347826087 0 0  1.379565217391304 0 0  1.387826086956522 0 0  1.396086956521739 0 0  1.404347826086957 0 0  1.412608695652174 0 0  1.420869565217391 0 0  1.429130434782609 0 0  1.437391304347826 0 0  1.445652173913043 0 0  1.453913043478261 0 0  1.462173913043478 0 0  1.470434782608696 0 0  1.478695652173913 0 0  1.486956521739131 0 0  1.495217391304348 0 0  1.503478260869565 0 0  1.511739130434782 0 0  1.52 0 0  1.528260869565217 0 0  1.536521739130435 0 0  1.544782608695652 0 0  1.55304347826087 0 0  1.561304347826087 0 0  1.569565217391304 0 0  1.577826086956522 0 0  1.586086956521739 0 0  1.594347826086957 0 0  1.602608695652174 0 0  1.610869565217391 0 0  1.619130434782609 0 0  1.627391304347826 0 0  1.635652173913043 0 0  1.643913043478261 0 0  1.652173913043478 0 0  1.660434782608696 0 0  1.668695652173913 0 0  1.67695652173913 0 0  1.685217391304348 0 0  1.693478260869565 0 0  1.701739130434782 0 0  1.71 0 0  1.718260869565217 0 0  1.726521739130435 0 0  1.734782608695652 0 0  1.743043478260869 0 0  1.751304347826087 0 0  1.759565217391304 0 0  1.767826086956522 0 0  1.776086956521739 0 0  1.784347826086957 0 0  1.792608695652174 0 0  1.800869565217391 0 0  1.809130434782608 0 0  1.817391304347826 0 0  1.825652173913043 0 0  1.833913043478261 0 0  1.842173913043478 0 0  1.850434782608696 0 0  1.858695652173913 0 0  1.86695652173913 0 0  1.875217391304348 0 0  1.883478260869565 0 0  1.891739130434782 0 0  1.9 0 0  1.908260869565217 0 0  1.916521739130435 0 0  1.924782608695652 0 0  1.933043478260869 0 0  1.941304347826087 0 0  1.949565217391304 0 0  1.957826086956522 0 0  1.966086956521739 0 0  1.974347826086956 0 0  1.982608695652174 0 0  1.990869565217391 0 0  1.999130434782608 0 0  2.007391304347826 0 0  2.015652173913043 0 0  2.023913043478261 0 0  2.032173913043478 0 0  2.040434782608695 0 0  2.048695652173913 0 0  2.05695652173913 0 0  2.065217391304348 0 0  2.073478260869565 0 0  2.081739130434782 0 0  2.09 0 0  2.098260869565217 0 0  2.106521739130435 0 0  2.114782608695652 0 0  2.12304347826087 0 0  2.131304347826087 0 0  2.139565217391304 0 0  2.147826086956522 0 0  2.156086956521739 0 0  2.164347826086956 0 0  2.172608695652174 0 0  2.180869565217391 0 0  2.189130434782609 0 0  2.197391304347826 0 0  2.205652173913043 0 0  2.213913043478261 0 0  2.222173913043478 0 0  2.230434782608695 0 0  2.238695652173913 0 0  2.24695652173913 0 0  2.255217391304348 0 0  2.263478260869565 0 0  2.271739130434783 0 0  2.28 0 0  2.288260869565217 0 0  2.296521739130434 0 0  2.304782608695652 0 0  2.31304347826087 0 0  2.321304347826087 0 0  2.329565217391304 0 0  2.337826086956521 0 0  2.346086956521739 0 0  2.354347826086956 0 0  2.362608695652174 0 0  2.370869565217391 0 0  2.379130434782609 0 0  2.387391304347826 0 0  2.395652173913044 0 0  2.403913043478261 0 0  2.412173913043478 0 0  2.420434782608695 0 0  2.428695652173913 0 0  2.43695652173913 0 0  2.445217391304348 0 0  2.453478260869565 0 0  2.461739130434782 0 0  2.47 0 0  2.478260869565217 0 0  2.486521739130435 0 0  2.494782608695652 0 0  2.503043478260869 0 0  2.511304347826087 0 0  2.519565217391305 0 0  2.527826086956522 0 0  2.536086956521739 0 0  2.544347826086956 0 0  2.552608695652174 0 0  2.560869565217391 0 0  2.569130434782608 0 0  2.577391304347826 0 0  2.585652173913043 0 0  2.593913043478261 0 0  2.602173913043478 0 0  2.610434782608696 0 0  2.618695652173913 0 0  2.62695652173913 0 0  2.635217391304348 0 0  2.643478260869565 0 0  2.651739130434783 0 0  2.66 0 0  2.668260869565217 0 0  2.676521739130435 0 0  2.684782608695652 0 0  2.693043478260869 0 0  2.701304347826087 0 0  2.709565217391304 0 0  2.717826086956522 0 0  2.726086956521739 0 0  2.734347826086956 0 0  2.742608695652174 0 0  2.750869565217391 0 0  2.759130434782609 0 0  2.767391304347826 0 0  2.775652173913044 0 0  2.783913043478261 0 0  2.792173913043478 0 0  2.800434782608696 0 0  2.808695652173913 0 0  2.81695652173913 0 0  2.825217391304347 0 0  2.833478260869565 0 0  2.841739130434783 0 0  2.85 0 0  2.858260869565217 0 0  2.866521739130435 0 0  2.874782608695652 0 0  2.88304347826087 0 0  2.891304347826087 0 0  2.899565217391304 0 0  2.907826086956522 0 0  2.916086956521739 0 0  2.924347826086957 0 0  2.932608695652174 0 0  2.940869565217391 0 0  2.949130434782608 0 0  2.957391304347826 0 0  2.965652173913043 0 0  2.973913043478261 0 0  2.982173913043478 0 0  2.990434782608696 0 0  2.998695652173913 0 0  3.006956521739131 0 0  3.015217391304348 0 0  3.023478260869565 0 0  3.031739130434782 0 0  3.04 0 0  3.048260869565218 0 0  3.056521739130435 0 0  3.064782608695652 0 0  3.073043478260869 0 0  3.081304347826087 0 0  3.089565217391304 0 0  3.097826086956522 0 0  3.106086956521739 0 0  3.114347826086956 0 0  3.122608695652174 0 0  3.130869565217391 0 0  3.139130434782609 0 0  3.147391304347826 0 0  3.155652173913043 0 0  3.163913043478261 0 0  3.172173913043478 0 0  3.180434782608696 0 0  3.188695652173913 0 0  3.19695652173913 0 0  3.205217391304347 0 0  3.213478260869565 0 0  3.221739130434782 0 0  3.23 0 0  3.238260869565217 0 0  3.246521739130435 0 0  3.254782608695652 0 0  3.26304347826087 0 0  3.271304347826087 0 0  3.279565217391304 0 0  3.287826086956521 0 0  3.296086956521739 0 0  3.304347826086957 0 0  3.312608695652174 0 0  3.320869565217391 0 0  3.329130434782608 0 0  3.337391304347826 0 0  3.345652173913043 0 0  3.353913043478261 0 0  3.362173913043478 0 0  3.370434782608696 0 0  3.378695652173913 0 0  3.386956521739131 0 0  3.395217391304348 0 0  3.403478260869565 0 0  3.411739130434782 0 0  3.419999999999999 0 0  3.428260869565217 0 0  3.436521739130435 0 0  3.444782608695652 0 0  3.453043478260869 0 0  3.461304347826087 0 0  3.469565217391304 0 0  3.477826086956522 0 0  3.486086956521739 0 0  3.494347826086956 0 0  3.502608695652174 0 0  3.510869565217391 0 0  3.519130434782609 0 0  3.527391304347826 0 0  3.535652173913043 0 0  3.54391304347826
[...]
<PointData  Scalars="rho_bar"> 
<DataArray  type="Float64"  Name="rho_bar"  format="ascii">9.1112546493091584e-01  9.1047598513273287e-01  9.0975039480513054e-01  9.0878435718814043e-01  9.0753682347141273e-01  9.0600319222950598e-01  9.0419384806568404e-01  9.0212742126909073e-01  8.9982830490176391e-01  8.9732448802896780e-01  8.9464628796029344e-01  8.9182542462135528e-01  8.8889555040803458e-01  8.8589331408634198e-01  8.8286043664769109e-01  8.7984474583926098e-01  8.7690061445502820e-01  8.7408714210681382e-01  8.7146526321359175e-01  8.6909332267438899e-01  8.6702339384300386e-01  8.6529804960317347e-01  8.6394964533506113e-01  8.6300023997275743e-01  8.6246322572304712e-01  8.6234441331382117e-01  8.6264320939074512e-01  8.6335240886932985e-01  8.6445777901310528e-01  8.6593644423943139e-01  8.6775613937626295e-01  8.6987424995742446e-01  8.7223881648952206e-01  8.7479003500334540e-01  8.7746298590267346e-01  8.8018973681841539e-01  8.8290155738121989e-01  8.8552930629871074e-01  8.8800313608039827e-01  8.9025007821660596e-01  8.9219213193172309e-01  8.9374454569866502e-01  8.9481676960952605e-01  8.9531614845050589e-01  8.9515721414297234e-01  8.9427833158620873e-01  8.9267050328094255e-01  8.9040333649959036e-01  8.8760013160639828e-01  8.8435323142283750e-01  8.8067105668721890e-01  8.7652785432648972e-01  8.7194068098953192e-01  8.6699130252982415e-01  8.6180904417057613e-01  8.5653474129252960e-01  8.5130741357059458e-01  8.4626080183460073e-01  8.4151492211803502e-01  8.3716328823898878e-01  8.3326420501224174e-01  8.2983720533595529e-01  8.2686588208806910e-01  8.2430382057295049e-01  8.2208439465197269e-01  8.2013148449695639e-01  8.1837112968755121e-01  8.1674108793395395e-01  8.1519746676731730e-01  8.1371613472807924e-01  8.1229082230819960e-01  8.1092753014054964e-01  8.0963887597667550e-01  8.0843867763711330e-01  8.0733897810022326e-01  8.0634825696192580e-01  8.0547161856200056e-01  8.0471077135787583e-01  8.0406498555919181e-01  8.0353091356762973e-01  8.0310306869021297e-01  8.0277327651215835e-01  8.0253056206486828e-01  8.0236040126601227e-01  8.0224483313898132e-01  8.0216218399846761e-01  8.0208797610313987e-01  8.0199520870601715e-01  8.0185595384164177e-01  8.0164318779403188e-01  8.0133466189450619e-01  8.0091729346280160e-01  8.0039150580333862e-01  7.9977150626473292e-01  7.9908220164842647e-01  7.9835255798374360e-01  7.9761013624854782e-01  7.9687688578942972e-01  7.9616783765552146e-01  7.9549091941959138e-01  7.9484844062534066e-01  7.9423825164856776e-01  7.9365585309414910e-01  7.9309550832811493e-01  7.9255210398455744e-01  7.9202205705891315e-01  7.9150446717292433e-01  7.9100103860402826e-01  7.9051598629690112e-01  7.9005467196506096e-01  7.8962333204302637e-01  7.8922847537260987e-01  7.8887763097933494e-01  7.8857900050936258e-01  7.8834074890991168e-01  7.8816884936592324e-01  7.8806664826153283e-01  7.8803631740165503e-01  7.8808248366092171e-01  7.8821321027887092e-01  7.8843857616754920e-01  7.8876679421536555e-01  7.8920183239239605e-01  7.8974222545310069e-01  7.9038194392504479e-01  7.9111111284562374e-01  7.9191792570381203e-01  7.9278964900624593e-01  7.9371419581865355e-01  7.9468026646717471e-01  7.9567783605037068e-01  7.9669837394000942e-01  7.9773622173868386e-01  7.9878885084803730e-01  7.9985648509566087e-01  8.0093918896378169e-01  8.0203391492182741e-01  8.0313032793956729e-01  8.0420771831808047e-01  8.0523307273168077e-01  8.0616217099551946e-01  8.0694256128687869e-01  8.0752021879201419e-01  8.0784732667922010e-01  8.0789124334632645e-01  8.0764030735164438e-01  8.0710533628038827e-01  8.0631493301990476e-01  8.0530797640271023e-01  8.0412500815848020e-01  8.0280197253437147e-01  8.0136558647772360e-01  7.9983362092123078e-01  7.9821925758280876e-01  7.9653907025760917e-01  7.9481914669206122e-01  7.9309750809355251e-01  7.9142156670760888e-01  7.8984387153741742e-01  7.8841562754643313e-01  7.8718157298451974e-01  7.8617590073138810e-01  7.8542095792080269e-01  7.8492729461901012e-01  7.8469620968163978e-01  7.8472253277862647e-01  7.8499785480237394e-01  7.8551111782621186e-01  7.8624864835744734e-01  7.8719277546816702e-01  7.8832088353609320e-01  7.8960366963719086e-01  7.9100439409942636e-01  7.9247874517686689e-01  7.9397722675751825e-01  7.9544680132178525e-01  7.9683196949123969e-01  7.9807432733533801e-01  7.9911399005198791e-01  7.9989269438696975e-01  8.0035859315965607e-01  8.0046907571484638e-01  8.0019259149282829e-01  7.9950828825141973e-01  7.9840656076381844e-01  7.9688970004771498e-01  7.9497427793484987e-01  7.9269348364762049e-01  7.9009945723622288e-01  7.8726278962592000e-01  7.8426960485011232e-01  7.8121407446339353e-01  7.7818929053490427e-01  7.7527757947158993e-01  7.7254427986146113e-01  7.7003458017811111e-01  7.6777408808194647e-01  7.6577019875354113e-01  7.6401474965894345e-01  7.6248537698987762e-01  7.6114741435070454e-01  7.5995474121151574e-01  7.5885134966496470e-01  7.5777259930742302e-01  7.5664779181121911e-01  7.5540289904725977e-01  7.5396533756908557e-01  7.5226908918660451e-01  7.5026172901729871e-01  7.4791074411531233e-01  7.4520906839234435e-01  7.4217747900157360e-01  7.3886433395297479e-01  7.3533926783767933e-01  7.3168221635583897e-01  7.2797018218386456e-01  7.2426959285932146e-01  7.2063339463015308e-01  7.1710255342660256e-01  7.1370843769453340e-01  7.1047619758975644e-01  7.0742705135219197e-01  7.0458062206333205e-01  7.0195478712483406e-01  6.9956486586905808e-01  6.9742049811352247e-01  6.9552244039466615e-01  6.9386024238283439e-01  6.9241351706065690e-01  6.9115476267330578e-01  6.9005509025961176e-01  6.8908997117372583e-01  6.8824360299946818e-01  6.8750558145190532e-01  6.8686392975614408e-01  6.8630070743442806e-01  6.8579371349373852e-01  6.8532095152469708e-01  6.8486648336838962e-01  6.8442275753078141e-01  6.8398998768582508e-01  6.8357251113826401e-01  6.8317619771731053e-01  6.8280594107353154e-01  6.8246404283351414e-01  6.8214784156545039e-01  6.8184913321210294e-01  6.8155396264366253e-01  6.8124543053005937e-01  6.8090765410391185e-01  6.8053054556527892e-01  6.8011157514086129e-01  6.7965528401675157e-01  6.7916959189527248e-01  6.7866237080627045e-01  6.7813794292890117e-01  6.7759592048851947e-01  6.7703061105415130e-01  6.7643238508614867e-01  6.7578892257688317e-01  6.7508695450117973e-01  6.7431256582897237e-01  6.7345187140941765e-01  6.7249029190618337e-01  6.7141311969932727e-01  6.7020649565808132e-01  6.6886114417217035e-01  6.6737794796471317e-01  6.6577647036910992e-01  6.6410175853224407e-01  6.6242286329765876e-01  6.6081346229323801e-01  6.5932753015070378e-01  6.5798673357203974e-01  6.5678108607316688e-01  6.5567557724812586e-01  6.5462029962386392e-01  6.5356067067504564e-01  6.5244762284452007e-01  6.5124374923822714e-01  6.4992656238230595e-01  6.4848775071633924e-01  6.4693204093040124e-01  6.4527546230860400e-01  6.4354174933526098e-01  6.4175177452014065e-01  6.3991292116241905e-01  6.3801509786250254e-01  6.3603546094775310e-01  6.3394411845303389e-01  6.3170443011242983e-01  6.2927057339176762e-01  6.2659327925686292e-01  6.2362797023903815e-01  6.2034489608066568e-01  6.1673997806726533e-01  6.1284966659091622e-01  6.0876588548847488e-01  6.0463600799609607e-01  6.0062247408671854e-01  5.9684904731034905e-01  5.9338095920194334e-01  5.9022911262278754e-01  5.8735991210131433e-01  5.8471023868328853e-01  5.8221140029020635e-01  5.7981196656199274e-01  5.7747790276868338e-01  5.7518634142906533e-01  5.7293032702170243e-01  5.7072436189378184e-01  5.6859421636649488e-01  5.6655941620588235e-01  5.6462512036743806e-01  5.6278326891437858e-01  5.6101720910912378e-01  5.5931293266131932e-01  5.5767172643970442e-01  5.5611718742501115e-01  5.5469193374575421e-01  5.5344960653047270e-01  5.5244553551789899e-01  5.5172516263036275e-01  5.5131162326436767e-01  5.5120078904607805e-01  5.5135690817979288e-01  5.5169831648546952e-01  5.5208138189248901e-01  5.5231272310782542e-01  5.5219891636149798e-01  5.5159932591124605e-01  5.5044314516065518e-01  5.4872780346811056e-01  5.4651270191744861e-01  5.4390891735590352e-01  5.4105019740365967e-01  5.3805781173087941e-01  5.3502257244963147e-01  5.3200157628462241e-01  5.2902445118386798e-01  5.2610911345205780e-01  5.2328651555330008e-01  5.2062276105203475e-01  5.1819526758479428e-01  5.1604736286457464e-01  5.1419000821322858e-01  5.1262084425180521e-01  5.1133822045300059e-01  5.1034820240310741e-01  5.0966366078509839e-01  5.0929807296966922e-01  5.0925175175861792e-01  5.0948803112630492e-01  5.0988774983439999e-01  5.1021261537933971e-01  5.1018224395581946e-01  5.0961410897253201e-01  5.0844363673408699e-01  5.0669017774820280e-01  5.0441076872224033e-01  5.0165930172892792e-01  4.9848744072866880e-01  4.9497812941262798e-01  4.9129423182251769e-01  4.8771455182848750e-01  4.8456568427332147e-01  4.8186300246487290e-01  4.7911838915619409e-01  4.7573992661881709e-01  4.7118091735836942e-01  4.6500212388679302e-01  4.5702419149564988e-01  4.4729943048371290e-01  4.3572609970618087e-01  4.2224905119616540e-01  4.0725200656822758e-01  3.9149324153008885e-01  3.7547019245062246e-01  3.5925376609065457e-01  3.4263123462406841e-01  3.2526251729689032e-01  3.0680508566179787e-01  2.8703267264639326e-01  2.6596052617631016e-01  2.4394971800733625e-01  2.2174203314549909e-01  2.0024515376377200e-01  1.8006173869623446e-01  1.6144998616785369e-01  1.4445162673480283e-01  1.2899777924839970e-01  1.1497584691894826e-01  1.0226773919726520e-01  9.0765967911789772e-02  8.0376495086186134e-02  7.1016425430099894e-02  6.2610504783678952e-02  5.5088201489837271e-02  4.8381742791293356e-02  4.2424959019367728e-02  3.7152762375279584e-02  3.2501057493955092e-02  2.8407498245715087e-02  2.4812650003202333e-02  2.1660957144011009e-02  1.8901308804521171e-02  1.6487296337598784e-02  1.4377184313761981e-02  1.2533743990665485e-02  1.0923943474802343e-02  9.5186149167612744e-03  8.2920825520715960e-03  7.2218030045227291e-03  6.2880201003059268e-03  5.4734420179604060e-03  4.7629562014599230e-03  4.1433588663621155e-03  3.6031224656632842e-03  3.1321843206806236e-03  2.7217596321016499e-03  2.3641796936950663e-03  2.0527474540249684e-03  1.7816109485858020e-03  1.5456574435227725e-03  1.3404143808856824e-03  1.1619716914554462e-03  1.0069066357549670e-03  8.7222498140115566e-04  7.5530541917409068e-04  6.5385579295260425e-04  5.6587025537445824e-04  4.8959636485817342e-04  4.2350216949717706e-04  3.6625166769407727e-04  3.1667896690740205e-04  2.7376847986794288e-04  2.3663580207756638e-04  2.0451198777210182e-04  1.7672886445816132e-04  1.5270620439838064e-04  1.3194075379754756e-04  1.1399640171412344e-04  9.8495457611214667e-05  8.5111185919559267e-05  7.3561054663537866e-05  6.3601072591430198e-05  5.5020722863305826e-05  4.7638516095274895e-05  4.1298344601444253e-05  3.5866042667010731e-05  3.1226745018356153e-05  2.7282337852604672e-05  2.3949523312160286e-05  2.1157937063230987e-05  1.8848849676517821e-05  1.6973784766432622e-05  1.5493836646341280e-05  1.4378934576717077e-05  1.3608373793730778e-05  1.3173556869000189e-05  1.3091514867938723e-05  9.0793256954705492e-01  9.0761128084041409e-01  9.0694776383883124e-01  9.0597237026144395e-01  9.0468793914631973e-01  9.0310112469503212e-01  9.0122584656852334e-01  8.9908297525933867e-01  8.9669857048497759e-01  8.9410237431519179e-01  8.9132601094285702e-01  8.8840231484908128e-01  8.8536543830690551e-01  8.8225265739873637e-01  8.7910631735605815e-01  8.7597584729885547e-01  8.7291776490247452e-01  8.6999432336000915e-01  8.6726975532132400e-01  8.6480586242023816e-01  8.6265712399138761e-01  8.6086795905579672e-01  8.5947124867799896e-01  8.5848934992959047e-01  8.5793531540523604e-01  8.5781488847178633e-01  8.5812730011750282e-01  8.5886563210817957e-01  8.6001560090088769e-01  8.6155444691974992e-01  8.6344910131029751e-01  8.6565583807224167e-01  8.6812049057141805e-01  8.7078075624737372e-01  8.7356872453810208e-01  8.7641394750250623e-01  8.7924534381025576e-01  8.8199254729635512e-01  8.8458470242402787e-01  8.8694849402497411e-01  8.8900499911337860e-01  8.9066822254878464e-01  8.9184528909991689e-01  8.9244063266215501e-01  8.9236452522362175e-01  8.9154957059203910e-01  8.8997641345073286e-01  8.8770218155482927e-01  8.8484540323129290e-01  8.8150314361147586e-01  8.7769650457169812e-01  8.7340235195792082e-01  8.6863772859717792e-01  8.6348584464606981e-01  8.5808100670652598e-01  8.5257482008825147e-01  8.4711678146204716e-01  8.4185006586304689e-01  8.3690187493710200e-01  8.3237105774733644e-01  8.2831831685648538e-01  8.2476334611830715e-01  8.2168727944372322e-01  8.1903996046631711e-01  8.1674939594009865e-01  8.1473389247698891e-01  8.1291402113160371e-01  8.1122386537947255e-01  8.0961756774396409e-01  8.0807143740875909e-01  8.0658069663118703e-01  8.0515386215989926e-01  8.0380547168366545e-01  8.0255086280240151e-01  8.0140257573686224e-01  8.0036937780831363e-01  7.9945593005016358e-01  7.9866381646938478e-01  7.9799173855880623e-01  7.9743630123945042e-01  7.9699165786737192e-01  7.9664960748854119e-01  7.9639880313086309e-01  7.9622451024433827e-01  7.9610796602004941e-01  7.9602690627084594e-01  7.9595567071119611e-01  7.9586628728278819e-01  7.9572911128439838e-01  7.9551513739478741e-01  7.9519949512990751e-01  7.9476731718018501e-01  7.9421849586130366e-01  7.9356923776879951e-01  7.9284731583285339e-01  7.9208502290019300e-01  7.9131199548072240e-01  7.9055149734609864e-01  7.8981872188247193e-01  7.8912151506411221e-01  7.8846142325524049e-01  7.8783582425754006e-01  7.8723928030712653e-01  7.8666558248581719e-01  7.8610885963342825e-01  7.8556524609671008e-01  7.8503354239720136e-01  7.8451583264771307e-01  7.8401654607944260e-01  7.8354168123507673e-01  7.8309740778841963e-01  7.8269047192032826e-01  7.8232838285754713e-01  7.8202005182496692e-01  7.8177440884457916e-01  7.8159810076703640e-01  7.8149367702264705e-01  7.8146236776322953e-01  7.8150809183398195e-01  7.8163999069318912e-01  7.8186957223992570e-01  7.8220641218236897e-01  7.8265476207164253e-01  7.8321316346749992e-01  7.8387486095216419e-01  7.8462953003674996e-01  7.8546437683338233e-01  7.8636624867020455e-01  7.8732250342218157e-01  7.8832171433494569e-01  7.8935329253100783e-01  7.9040827471265396e-01  7.9148035745808831e-01  7.9256743568198540e-01  7.9367035735190872e-01  7.9479053348245987e-01  7.9592593471384332e-01  7.9706717033907648e-01  7.9819325038839861e-01  7.9927005039520338e-01  8.0025056782241377e-01  8.0107874037680094e-01  8.0169561057382388e-01  8.0204890392729322e-01  8.0210244384110441e-01  8.0184380774402197e-01  8.0128555403182344e-01  8.0046022188882993e-01  7.9941069558845068e-01  7.9818148573333136e-01  7.9681102793454939e-01  7.9532730741562319e-01  7.9374696986252957e-01  7.9208115768130316e-01  7.9034468498625621e-01  7.8856411990822795e-01  7.8677939810771580e-01  7.8504130446783837e-01  7.8340559856941072e-01  7.8192680080813071e-01  7.8065168805987617e-01  7.7961578828309308e-01  7.7884149747097198e-01  7.7833886285992848e-01  7.7810768593293200e-01  7.7814178153083435e-01  7.7843181239331516e-01  7.7896674897304263e-01  7.7973271213604300e-01  7.8071210879336295e-01  7.8188205877315198e-01  7.8321305855223622e-01  7.8466709801315171e-01  7.8619817938612069e-01  7.8775445904308339e-01  7.8928145875502254e-01  7.9072214758707926e-01  7.9201635439646856e-01  7.9310120129089778e-01  7.9391541415216527e-01  7.9440433505672703e-01  7.9452399863776013e-01  7.9424182313087577e-01  7.9353673181623985e-01  7.9239852713567227e-01  7.9082916369137357e-01  7.8884477408382658e-01  7.8647909202132826e-01  7.8378566449651299e-01  7.8083853586796304e-01  7.7772851662303022e-01  7.7455597504425255e-01  7.7141965194701956e-01  7.6840644993718765e-01  7.6558415697277293e-01  7.6299916318429073e-01  7.6067682531528735e-01  7.5862421642954792e-01  7.5683213288139450e-01  7.5527747136348466e-01  7.5392420629749868e-01  7.5272489664846010e-01  7.5162153406982890e-01  7.5054737611165689e-01  7.4942875172659384e-01  7.4818857927328231e-01  7.4675032227140770e-01  7.4504420123126136e-01  7.4301387637569805e-01  7.4062410910232723e-01  7.3786616369878810e-01  7.3476123451393338e-01  7.3136004858700254e-01  7.2773759848464759e-01  7.2397946456248286e-01  7.2016723156556595e-01  7.1636941974667978e-01  7.1263997824250447e-01  7.0901987007709000e-01  7.0554054484473994e-01  7.0222673293765925e-01  6.9909975523687840e-01  6.9617929131793033e-01  6.9348439812351703e-01  6.9103180993624047e-01  6.8883310720976221e-01  6.8688989144465151e-01  6.8519165537413218e-01  6.8371641929902094e-01  6.8243463000691207e-01  6.8131421675576420e-01  6.8032860273810003e-01  6.7946206761165806e-01  6.7870662686470307e-01  6.7805157656775272e-01  6.7747879067294248e-01  6.7696409747681552e-01  6.7648365527068310e-01  6.7602000820137309e-01  6.7556595602615932e-01  6.7512251262624712e-01  6.7469504146600900e-01  6.7428983453485380e-01  6.7391255767245895e-01  6.7356582686204547e-01  6.7324747860822232e-01  6.7294880071548790e-01  6.7265507657286361e-01  6.7234746445832594e-01  6.7200841124286681e-01  6.7162668255369140e-01  6.7120011144689784e-01  6.7073410590614158e-01  6.7023821824945362e-01  6.6972115724960068e-01  6.6918807042798489e-01  6.6863847141909083e-01  6.6806642404433969e-01  6.6746149043137781e-01  6.6681100415393668e-01  6.6610114893673955e-01  6.6531818380719565e-01  6.6444812206430559e-01  6.6347678228948725e-01  6.6238913597574445e-01  6.6117078520281092e-01  6.5981080739828901e-01  6.5830804341567783e-01  6.5667958851627151e-01  6.5497110332203357e-01  6.5325718245956654e-01  6.5161980442248868e-01  6.5011679116503984e-01  6.4876984203299604e-01  6.4756641821336336e-01  6.4646831605495192e-01  6.4542157582951898e-01  6.4436826744585518e-01  6.4325660275179408e-01  6.4204844209669143e-01  6.4072146657816254e-01  6.3926833794890991e-01  6.3769420335962501e-01  6.3601645475499535e-01  6.3426162278742815e-01  6.3245433415427255e-01  6.3060274380726367e-01  6.2869534046378783e-01  6.2670646940900787e-01  6.2460579512281023e-01  6.2235719122505184e-01  6.1991361815563018e-01  6.1722334682238289e-01  6.1423998626837195e-01  6.1093162091434960e-01  6.0729193976242923e-01  6.0335404483598420e-01  5.9920939204829737e-01  5.9501414886233461e-01  5.9094491241446578e-01  5.8713033673039938e-01  5.8363506509848151e-01  5.8046779013643723e-01  5.7759292358842340e-01  5.7494236287648670e-01  5.7244195234999395e-01  5.7003936432015700e-01  5.6770179397124210e-01  5.6540365908499268e-01  5.6313530759336872e-01  5.6091208706085327e-01  5.5876421227805806e-01  5.5671320386979184e-01  5.5476460578659492e-01  5.5290969111655197e-01  5.5113005985110919e-01  5.4940837847131063e-01  5.4774411638866549e-01  5.4616059509898429e-01  5.4470224058804784e-01  5.4342446569237901e-01  5.4238591536966541e-01  5.4163535207120739e-01  5.4119738979743159e-01  5.4106773451679380e-01  5.4121414549969127e-01  5.4156023449154389e-01  5.4196270865645735e-01  5.4221754013093237e-01  5.4211815467646518e-01  5.4151896507024111e-01  5.4034963480397402e-01  5.3860825795326750e-01  5.3635575811814962e-01  5.3370872200307296e-01  5.3081040956110681e-01  5.2778793472626273e-01  5.2473568426087491e-01  5.2171205269126775e-01  5.1874667999699686e-01  5.1585487733532132e-01  5.1306182532756694e-01  5.1043090644211719e-01  5.0804468298246719e-01  5.0594460011329412e-01  5.0413697134240965e-01  5.0261590679197654e-01  5.0137827430104132e-01  5.0042927454884811e-01  4.9978158522164856e-01  4.9944794798862024e-01  4.9942937898768408e-01  4.9969453714801193e-01  5.0013998295009321e-01  5.0053366292682211e-01  5.0057992260319129e-01  5.0009465570748768e-01  4.9902155744349702e-01  4.9738786514564026e-01  4.9525541233218784e-01  4.9267594909782086e-01  4.8969860499581525e-01  4.8640367941023571e-01  4.8294808322978777e-01  4.7959944258252746e-01  4.7666303763469275e-01  4.7419848258961289e-01  4.7174436617912430e-01  4.68712337369