<?xml version="1.0"?>
<VTKFile type="UnstructuredGrid"  version="0.1"  >
<UnstructuredGrid>
<Piece  NumberOfPoints="28121" NumberOfCells="55200">
<Points>
<DataArray  type="Float64"  NumberOfComponents="3"  format="ascii">0 0 0  0.008260869565217391 0 0  0.01652173913043478 0 0  0.02478260869565217 0 0  0.03304347826086956 0 0  0.04130434782608695 0 0  0.04956521739130434 0 0  0.05782608695652174 0 0  0.06608695652173913 0 0  0.07434782608695652 0 0  0.08260869565217391 0 0  0.0908695652173913 0 0  0.09913043478260869 0 0  0.1073913043478261 0 0  0.1156521739130435 0 0  0.1239130434782609 0 0  0.1321739130434783 0 0  0.1404347826086956 0 0  0.148695652173913 0 0  0.1569565217391304 0 0  0.1652173913043478 0 0  0.1734782608695652 0 0  0.1817391304347826 0 0  0.19 0 0  0.1982608695652174 0 0  0.2065217391304348 0 0  0.2147826086956522 0 0  0.2230434782608696 0 0  0.2313043478260869 0 0  0.2395652173913043 0 0  0.2478260869565218 0 0  0.2560869565217391 0 0  0.2643478260869565 0 0  0.2726086956521739 0 0  0.2808695652173913 0 0  0.2891304347826087 0 0  0.2973913043478261 0 0  0.3056521739130434 0 0  0.3139130434782609 0 0  0.3221739130434783 0 0  0.3304347826086956 0 0  0.338695652173913 0 0  0.3469565217391304 0 0  0.3552173913043478 0 0  0.3634782608695652 0 0  0.3717391304347826 0 0  0.3799999999999999 0 0  0.3882608695652174 0 0  0.3965217391304348 0 0  0.4047826086956521 0 0  0.4130434782608696 0 0  0.4213043478260869 0 0  0.4295652173913043 0 0  0.4378260869565217 0 0  0.4460869565217391 0 0  0.4543478260869565 0 0  0.4626086956521739 0 0  0.4708695652173913 0 0  0.4791304347826086 0 0  0.4873913043478261 0 0  0.4956521739130435 0 0  0.5039130434782608 0 0  0.5121739130434783 0 0  0.5204347826086956 0 0  0.528695652173913 0 0  0.5369565217391304 0 0  0.5452173913043478 0 0  0.5534782608695652 0 0  0.5617391304347825 0 0  0.57 0 0  0.5782608695652174 0 0  0.5865217391304348 0 0  0.5947826086956521 0 0  0.6030434782608696 0 0  0.6113043478260869 0 0  0.6195652173913043 0 0  0.6278260869565218 0 0  0.6360869565217391 0 0  0.6443478260869565 0 0  0.6526086956521739 0 0  0.6608695652173913 0 0  0.6691304347826087 0 0  0.677391304347826 0 0  0.6856521739130435 0 0  0.6939130434782609 0 0  0.7021739130434783 0 0  0.7104347826086956 0 0  0.718695652173913 0 0  0.7269565217391304 0 0  0.7352173913043478 0 0  0.7434782608695653 0 0  0.7517391304347827 0 0  0.7599999999999999 0 0  0.7682608695652173 0 0  0.7765217391304348 0 0  0.7847826086956522 0 0  0.7930434782608695 0 0  0.8013043478260868 0 0  0.8095652173913043 0 0  0.8178260869565217 0 0  0.8260869565217391 0 0  0.8343478260869565 0 0  0.8426086956521739 0 0  0.8508695652173912 0 0  0.8591304347826086 0 0  0.8673913043478261 0 0  0.8756521739130434 0 0  0.8839130434782608 0 0  0.8921739130434783 0 0  0.9004347826086956 0 0  0.908695652173913 0 0  0.9169565217391303 0 0  0.9252173913043478 0 0  0.9334782608695652 0 0  0.9417391304347826 0 0  0.95 0 0  0.9582608695652173 0 0  0.9665217391304347 0 0  0.9747826086956521 0 0  0.9830434782608696 0 0  0.991304347826087 0 0  0.9995652173913042 0 0  1.007826086956522 0 0  1.016086956521739 0 0  1.024347826086957 0 0  1.032608695652174 0 0  1.040869565217391 0 0  1.049130434782609 0 0  1.057391304347826 0 0  1.065652173913043 0 0  1.073913043478261 0 0  1.082173913043478 0 0  1.090434782608696 0 0  1.098695652173913 0 0  1.10695652173913 0 0  1.115217391304348 0 0  1.123478260869565 0 0  1.131739130434783 0 0  1.14 0 0  1.148260869565217 0 0  1.156521739130435 0 0  1.164782608695652 0 0  1.17304347826087 0 0  1.181304347826087 0 0  1.189565217391304 0 0  1.197826086956522 0 0  1.206086956521739 0 0  1.214347826086956 0 0  1.222608695652174 0 0  1.230869565217391 0 0  1.239130434782609 0 0  1.247391304347826 0 0  1.255652173913044 0 0  1.263913043478261 0 0  1.272173913043478 0 0  1.280434782608696 0 0  1.288695652173913 0 0  1.296956521739131 0 0  1.305217391304348 0 0  1.313478260869565 0 0  1.321739130434783 0 0  1.33 0 0  1.338260869565217 0 0  1.346521739130435 0 0  1.354782608695652 0 0  1.36304347826087 0 0  1.371304347826087 0 0  1.379565217391304 0 0  1.387826086956522 0 0  1.396086956521739 0 0  1.404347826086957 0 0  1.412608695652174 0 0  1.420869565217391 0 0  1.429130434782609 0 0  1.437391304347826 0 0  1.445652173913043 0 0  1.453913043478261 0 0  1.462173913043478 0 0  1.470434782608696 0 0  1.478695652173913 0 0  1.486956521739131 0 0  1.495217391304348 0 0  1.503478260869565 0 0  1.511739130434782 0 0  1.52 0 0  1.528260869565217 0 0  1.536521739130435 0 0  1.544782608695652 0 0  1.55304347826087 0 0  1.561304347826087 0 0  1.569565217391304 0 0  1.577826086956522 0 0  1.586086956521739 0 0  1.594347826086957 0 0  1.602608695652174 0 0  1.610869565217391 0 0  1.619130434782609 0 0  1.627391304347826 0 0  1.635652173913043 0 0  1.643913043478261 0 0  1.652173913043478 0 0  1.660434782608696 0 0  1.668695652173913 0 0  1.67695652173913 0 0  1.685217391304348 0 0  1.693478260869565 0 0  1.701739130434782 0 0  1.71 0 0  1.718260869565217 0 0  1.726521739130435 0 0  1.734782608695652 0 0  1.743043478260869 0 0  1.751304347826087 0 0  1.759565217391304 0 0  1.767826086956522 0 0  1.776086956521739 0 0  1.784347826086957 0 0  1.792608695652174 0 0  1.800869565217391 0 0  1.809130434782608 0 0  1.817391304347826 0 0  1.825652173913043 0 0  1.833913043478261 0 0  1.842173913043478 0 0  1.850434782608696 0 0  1.858695652173913 0 0  1.86695652173913 0 0  1.875217391304348 0 0  1.883478260869565 0 0  1.891739130434782 0 0  1.9 0 0  1.908260869565217 0 0  1.916521739130435 0 0  1.924782608695652 0 0  1.933043478260869 0 0  1.941304347826087 0 0  1.949565217391304 0 0  1.957826086956522 0 0  1.966086956521739 0 0  1.974347826086956 0 0  1.982608695652174 0 0  1.990869565217391 0 0  1.999130434782608 0 0  2.007391304347826 0 0  2.015652173913043 0 0  2.023913043478261 0 0  2.032173913043478 0 0  2.040434782608695 0 0  2.048695652173913 0 0  2.05695652173913 0 0  2.065217391304348 0 0  2.073478260869565 0 0  2.081739130434782 0 0  2.09 0 0  2.098260869565217 0 0  2.106521739130435 0 0  2.114782608695652 0 0  2.12304347826087 0 0  2.131304347826087 0 0  2.139565217391304 0 0  2.147826086956522 0 0  2.156086956521739 0 0  2.164347826086956 0 0  2.172608695652174 0 0  2.180869565217391 0 0  2.189130434782609 0 0  2.197391304347826 0 0  2.205652173913043 0 0  2.213913043478261 0 0  2.222173913043478 0 0  2.230434782608695 0 0  2.238695652173913 0 0  2.24695652173913 0 0  2.255217391304348 0 0  2.263478260869565 0 0  2.271739130434783 0 0  2.28 0 0  2.288260869565217 0 0  2.296521739130434 0 0  2.304782608695652 0 0  2.31304347826087 0 0  2.321304347826087 0 0  2.329565217391304 0 0  2.337826086956521 0 0  2.346086956521739 0 0  2.354347826086956 0 0  2.362608695652174 0 0  2.370869565217391 0 0  2.379130434782609 0 0  2.387391304347826 0 0  2.395652173913044 0 0  2.403913043478261 0 0  2.412173913043478 0 0  2.420434782608695 0 0  2.428695652173913 0 0  2.43695652173913 0 0  2.445217391304348 0 0  2.453478260869565 0 0  2.461739130434782 0 0  2.47 0 0  2.478260869565217 0 0  2.486521739130435 0 0  2.494782608695652 0 0  2.503043478260869 0 0  2.511304347826087 0 0  2.519565217391305 0 0  2.527826086956522 0 0  2.536086956521739 0 0  2.544347826086956 0 0  2.552608695652174 0 0  2.560869565217391 0 0  2.569130434782608 0 0  2.577391304347826 0 0  2.585652173913043 0 0  2.593913043478261 0 0  2.602173913043478 0 0  2.610434782608696 0 0  2.618695652173913 0 0  2.62695652173913 0 0  2.635217391304348 0 0  2.643478260869565 0 0  2.651739130434783 0 0  2.66 0 0  2.668260869565217 0 0  2.676521739130435 0 0  2.684782608695652 0 0  2.693043478260869 0 0  2.701304347826087 0 0  2.709565217391304 0 0  2.717826086956522 0 0  2.726086956521739 0 0  2.734347826086956 0 0  2.742608695652174 0 0  2.750869565217391 0 0  2.759130434782609 0 0  2.767391304347826 0 0  2.775652173913044 0 0  2.783913043478261 0 0  2.792173913043478 0 0  2.800434782608696 0 0  2.808695652173913 0 0  2.81695652173913 0 0  2.825217391304347 0 0  2.833478260869565 0 0  2.841739130434783 0 0  2.85 0 0  2.858260869565217 0 0  2.866521739130435 0 0  2.874782608695652 0 0  2.88304347826087 0 0  2.891304347826087 0 0  2.899565217391304 0 0  2.907826086956522 0 0  2.916086956521739 0 0  2.924347826086957 0 0  2.932608695652174 0 0  2.940869565217391 0 0  2.949130434782608 0 0  2.957391304347826 0 0  2.965652173913043 0 0  2.973913043478261 0 0  2.982173913043478 0 0  2.990434782608696 0 0  2.998695652173913 0 0  3.006956521739131 0 0  3.015217391304348 0 0  3.023478260869565 0 0  3.031739130434782 0 0  3.04 0 0  3.048260869565218 0 0  3.056521739130435 0 0  3.064782608695652 0 0  3.073043478260869 0 0  3.081304347826087 0 0  3.089565217391304 0 0  3.097826086956522 0 0  3.106086956521739 0 0  3.114347826086956 0 0  3.122608695652174 0 0  3.130869565217391 0 0  3.139130434782609 0 0  3.147391304347826 0 0  3.155652173913043 0 0  3.163913043478261 0 0  3.172173913043478 0 0  3.180434782608696 0 0  3.188695652173913 0 0  3.19695652173913 0 0  3.205217391304347 0 0  3.213478260869565 0 0  3.221739130434782 0 0  3.23 0 0  3.238260869565217 0 0  3.246521739130435 0 0  3.254782608695652 0 0  3.26304347826087 0 0  3.271304347826087 0 0  3.279565217391304 0 0  3.287826086956521 0 0  3.296086956521739 0 0  3.304347826086957 0 0  3.312608695652174 0 0  3.320869565217391 0 0  3.329130434782608 0 0  3.337391304347826 0 0  3.345652173913043 0 0  3.353913043478261 0 0  3.362173913043478 0 0  3.370434782608696 0 0  3.378695652173913 0 0  3.386956521739131 0 0  3.395217391304348 0 0  3.403478260869565 0 0  3.411739130434782 0 0  3.419999999999999 0 0  3.428260869565217 0 0  3.436521739130435 0 0  3.444782608695652 0 0  3.453043478260869 0 0  3.461304347826087 0 0  3.469565217391304 0 0  3.477826086956522 0 0  3.486086956521739 0 0  3.494347826086956 0 0  3.502608695652174 0 0  3.510869565217391 0 0  3.519130434782609 0 0  3.527391304347826 0 0  3.535652173913043 0 0  3.54391304347826
[...]
<PointData  Scalars="rho_bar"> 
<DataArray  type="Float64"  Name="rho_bar"  format="ascii">9.9999972804183690e-01  9.9999994746251675e-01  1.0000001861144181e+00  1.0000006040074145e+00  1.0000006167733346e+00  9.9999951177109525e-01  9.9999771950607452e-01  9.9999828375456978e-01  1.0000042006393115e+00  1.0000095544836742e+00  9.9999698022838512e-01  9.9996867831114933e-01  9.9998351052762402e-01  1.0000740616327835e+00  1.0001161382963670e+00  9.9995518034765440e-01  9.9966656114466934e-01  9.9951666770729597e-01  9.9960853070571565e-01  9.9970242373394425e-01  9.9961168029499226e-01  9.9953768616687610e-01  9.9969456485556041e-01  9.9996281612549220e-01  1.0001139508176256e+00  1.0000946637868235e+00  1.0000142500425375e+00  9.9997013822552605e-01  9.9997009762241784e-01  9.9998749403124765e-01  1.0000031315560440e+00  1.0000087948128336e+00  1.0000058726405918e+00  1.0000005140173318e+00  9.9999829335359025e-01  9.9999933077869008e-01  1.0000002692534145e+00  1.0000001211103720e+00  9.9999994744335652e-01  9.9999999337393675e-01  9.9999993408050358e-01  1.0000003092717364e+00  9.9999933554577403e-01  1.0000002036968869e+00  1.0000037974431129e+00  9.9998830713446418e-01  1.0000027566803240e+00  1.0000642675900187e+00  9.9992077790497746e-01  9.9968409431176186e-01  1.0000852231674735e+00  1.0010888129753077e+00  1.0017583531613352e+00  1.0017958723575568e+00  1.0016516157064137e+00  1.0016242820560077e+00  1.0016910268111356e+00  1.0017614204881065e+00  1.0017973921332237e+00  1.0017902805623149e+00  1.0017510525698903e+00  1.0017067659468022e+00  1.0016761961798082e+00  1.0016659203098981e+00  1.0016763024059645e+00  1.0017034150792201e+00  1.0017393841986466e+00  1.0017744267534821e+00  1.0017998477741750e+00  1.0018113541556621e+00  1.0018108460853914e+00  1.0018035907252298e+00  1.0017929306911959e+00  1.0017783492938841e+00  1.0017575496099362e+00  1.0017294624735695e+00  1.0016959046226028e+00  1.0016596491495069e+00  1.0016211276631393e+00  1.0015792550022340e+00  1.0015350004447352e+00  1.0014927998066070e+00  1.0014591540298134e+00  1.0014391442233368e+00  1.0014329611823229e+00  1.0014358392641434e+00  1.0014406309931145e+00  1.0014408444977532e+00  1.0014331477138638e+00  1.0014172466639135e+00  1.0013937649112616e+00  1.0013632007352504e+00  1.0013261974654304e+00  1.0012836515726335e+00  1.0012361690712739e+00  1.0011836889743000e+00  1.0011261533676967e+00  1.0010642531961476e+00  1.0009984195983868e+00  1.0009277054270362e+00  1.0008531580953437e+00  1.0007817566300568e+00  1.0007220840267612e+00  1.0006779907329773e+00  1.0006505994093007e+00  1.0006427262772875e+00  1.0006568486106013e+00  1.0006897058890918e+00  1.0007315526676230e+00  1.0007711852489622e+00  1.0008012166213338e+00  1.0008196482872709e+00  1.0008279077987601e+00  1.0008279369504527e+00  1.0008205763343134e+00  1.0008053739355571e+00  1.0007809815429511e+00  1.0007454549833463e+00  1.0006968280820039e+00  1.0006350153624877e+00  1.0005638563896415e+00  1.0004904128207170e+00  1.0004222506121239e+00  1.0003647104064328e+00  1.0003161022471063e+00  1.0002648095679527e+00  1.0001971551743050e+00  1.0001095069298194e+00  1.0000120138851776e+00  9.9992246760364079e-01  9.9985505775836947e-01  9.9981376805262356e-01  9.9979593753877749e-01  9.9979785126991783e-01  9.9981330275158098e-01  9.9982971762894624e-01  9.9983270288917514e-01  9.9981455807893937e-01  9.9977543009649483e-01  9.9971995228607158e-01  9.9965470294851755e-01  9.9958589300731915e-01  9.9951967556489552e-01  9.9946371287681990e-01  9.9942237469031292e-01  9.9939242399283168e-01  9.9936997939431671e-01  9.9935541413381546e-01  9.9934731601136462e-01  9.9934033098651709e-01  9.9933009314478349e-01  9.9931489396820239e-01  9.9929508873513118e-01  9.9927392654867475e-01  9.9925589202868581e-01  9.9924252666835089e-01  9.9923141432627904e-01  9.9921865539727561e-01  9.9920130978390420e-01  9.9918036573933589e-01  9.9916304915892740e-01  9.9915877325757640e-01  9.9917289069888937e-01  9.9920653595586795e-01  9.9925625490137970e-01  9.9931041340565474e-01  9.9935075385210370e-01  9.9935602457614048e-01  9.9930464601687807e-01  9.9918343980824964e-01  9.9898923110727222e-01  9.9870730029073840e-01  9.9829221894165410e-01  9.9767746757626041e-01  9.9683695086332680e-01  9.9590475906271358e-01  9.9515342579575372e-01  9.9487777701235591e-01  9.9588490129696816e-01  9.9850110496809197e-01  1.0005341331730413e+00  1.0004318605784110e+00  9.9989602547834766e-01  9.9996434663545675e-01  1.0000267644745064e+00  9.9999777060285711e-01  9.9998283580699510e-01  9.9999610674930439e-01  1.0000907751814105e+00  9.9999903677722324e-01  9.9960517818863770e-01  9.9980800086702082e-01  1.0010988865169150e+00  1.0016279800139600e+00  9.9970781569170286e-01  9.9659565351417445e-01  9.9432692419039870e-01  9.9390544430784511e-01  9.9610534169804055e-01  9.9956169791175142e-01  1.0008532805825270e+00  1.0000990729048587e+00  9.9984149448908421e-01  1.0000298914499379e+00  9.9999922577541622e-01  1.0000643011582298e+00  9.9985685238472910e-01  9.9986836652523758e-01  1.0010616633461373e+00  9.9947984270071744e-01  9.9498882378679798e-01  9.9793026992132461e-01  1.0091739611542847e+00  1.0180523947090911e+00  1.0209694514897187e+00  1.0205466552841784e+00  1.0185102384510529e+00  1.0154762017775718e+00  1.0121009076084220e+00  1.0092960842142549e+00  1.0073988717796001e+00  1.0062132810270854e+00  1.0054868836607544e+00  1.0050899399201647e+00  1.0049636355352547e+00  1.0050758018693413e+00  1.0053791449224383e+00  1.0057809829715703e+00  1.0061609137750218e+00  1.0064163590787958e+00  1.0065003898225724e+00  1.0064399320013890e+00  1.0063105249781028e+00  1.0061650449426776e+00  1.0059960467265223e+00  1.0057820037890435e+00  1.0055331678132950e+00  1.0052801875614314e+00  1.0050458721036879e+00  1.0048295550934923e+00  1.0046142485234488e+00  1.0043875122276755e+00  1.0041494226155059e+00  1.0039053480534774e+00  1.0036599125602494e+00  1.0034170259927317e+00  1.0031807247509923e+00  1.0029549885930626e+00  1.0027430441024334e+00  1.0025461299288252e+00  1.0023620414623029e+00  1.0021831034020596e+00  1.0019929861560857e+00  1.0017650343700066e+00  1.0014737076882234e+00  1.0011234526088044e+00  1.0007539946546327e+00  1.0004008049165583e+00  1.0000720837788737e+00  9.9976312658665434e-01  9.9946598954341392e-01  9.9917429697905558e-01  9.9888713730053347e-01  9.9860182475009374e-01  9.9830979004315279e-01  9.9799714641418880e-01  9.9764027984902282e-01  9.9720200236036827e-01  9.9664085014184367e-01  9.9595338086933072e-01  9.9522099322011104e-01  9.9457573908850905e-01  9.9410376042777227e-01  9.9380739171229793e-01  9.9364280751701273e-01  9.9356183070580084e-01  9.9352939003480045e-01  9.9352883837707373e-01  9.9357356151177012e-01  9.9372735065797424e-01  9.9416169808580246e-01  9.9513839699389650e-01  9.9670951093162874e-01  9.9841302387207032e-01  9.9963496987875189e-01  9.9940103656560830e-01  9.9665459047933158e-01  9.9416688974267109e-01  9.9630756752154115e-01  1.0002090190658883e+00  1.0008157458868341e+00  9.9988100355914311e-01  9.9990374971827867e-01  1.0000343585653348e+00  1.0000328803380210e+00  1.0000058306737347e+00  9.9966274836449953e-01  1.0006003301292119e+00  1.0011406533947234e+00  9.9632930461883662e-01  9.9597479503104402e-01  1.0131870392381033e+00  1.0220249152034633e+00  1.0012463546461277e+00  9.7772067221292358e-01  9.6892724135197861e-01  9.7117873051121784e-01  9.7944734464316929e-01  9.8800846699790001e-01  9.9541683218593946e-01  1.0012178970435663e+00  1.0051113730763872e+00  1.0072347211006023e+00  1.0078851128819453e+00  1.0072655845206446e+00  1.0055421810033343e+00  1.0030138797196513e+00  1.0001612888227371e+00  9.9753625879616381e-01  9.9561819839265608e-01  9.9466819311356502e-01  9.9467868664441994e-01  9.9547722779903292e-01  9.9685632912323330e-01  9.9863342016816481e-01  1.0006264387126602e+00  1.0026023684706651e+00  1.0043180833274259e+00  1.0056226356919551e+00  1.0064994650303161e+00  1.0070485126253128e+00  1.0074334151955677e+00  1.0078053023863081e+00  1.0082607080224997e+00  1.0088476608883019e+00  1.0095752583184616e+00  1.0104143572981470e+00  1.0113128372317168e+00  1.0122315135063726e+00  1.0131678328801255e+00  1.0141404231053466e+00  1.0151603100776798e+00  1.0162160033067211e+00  1.0172685687593457e+00  1.0182620587236593e+00  1.0191493808744461e+00  1.0199116645412132e+00  1.0205609489264527e+00  1.0211255623425910e+00  1.0216256365073104e+00  1.0220620906958344e+00  1.0224220171197016e+00  1.0226799191535731e+00  1.0227890703123228e+00  1.0226815922805834e+00  1.0222944177073172e+00  1.0216090437098226e+00  1.0206876757213224e+00  1.0196960511717468e+00  1.0188848812200557e+00  1.0185026315641925e+00  1.0186746719284578e+00  1.0193463580480080e+00  1.0203349991044892e+00  1.0214083796459159e+00  1.0223325929433877e+00  1.0229118493906832e+00  1.0230857490681633e+00  1.0231574452551353e+00  1.0230013203753401e+00  1.0182491824997455e+00  1.0063318882749857e+00  9.9766557093049602e-01  9.9865588359164803e-01  1.0005873563124787e+00  9.9999161731720965e-01  9.9991659903000307e-01  1.0000614396810417e+00  9.9999758710706887e-01  9.9894372842123680e-01  1.0090500957217328e+00  9.4978338288555908e-01  1.1788226951463137e+00  -1.1221142826965751e-03  1.5756959736224947e-02  -3.1011823802149221e-03  3.5863781403695257e-04  -3.6682825629432466e-04  2.7519796840146262e-04  -9.5624455490650139e-05  9.2174320093075793e-06  7.4461612830244702e-06  -4.4766203452537508e-06  1.2203318350793362e-06  -6.3930596669727149e-08  -1.1531074378839538e-07  7.0995010363219789e-08  -2.6580028119452258e-08  7.2395297966597492e-09  -1.3068582350190453e-09  5.4010609086325761e-12  1.2679502968322108e-10  -7.3231190237091991e-11  3.0020445189156446e-11  -1.0431122435555880e-11  3.2436315396883867e-12  -9.2055060874989198e-13  2.3875732733254684e-13  -5.5599553181474254e-14  1.0972288310980232e-14  -1.4629693116962090e-15  -1.0644022858292482e-16  1.8614521729841513e-16  -9.7577007386776923e-17  4.0045862031245419e-17  -1.4604150903489520e-17  4.9245750022737358e-18  -1.5568973128015215e-18  4.6251568954340637e-19  -1.2836179979628335e-19  3.2749331802089048e-20  -7.3950680306081364e-21  1.3249987490196747e-21  -9.8231695734467137e-23  -6.3339779808953170e-23  4.5712975173223266e-23  -2.0771858356005882e-23  7.8893413592889136e-24  -2.6822461521888982e-24  8.3527271617366896e-25  -2.3919807423039264e-25  6.2288981668547830e-26  -1.4224406593188330e-26  2.5452381890286810e-27  -1.7335385813140808e-28  -1.3267192147805350e-28  9.2905658387109466e-29  -4.1769542342989006e-29  1.5724449708905872e-29  -5.2918191048343997e-30  1.6255102052402548e-30  -4.5603635579781095e-31  1.1474490061991762e-31  -2.4502161771537286e-32  3.6368493382143430e-33  1.4104945176217312e-34  -4.1167098735693769e-34  2.2352447522969160e-34  -9.1062844712998916e-35  3.2130991773619960e-35  -1.0275437351295893e-35  3.0313340076271128e-36  -8.2738920619996727e-37  2.0618202425865484e-37  -4.5751234263077508e-38  7.7753128210102479e-39  -4.9002586790189879e-40  -3.5441273245220433e-40  3.7385634701426281e-40  -6.4425400384865841e-41  1.4696969083931874e-40  1.0000006648364215e+00  1.0000002377668489e+00  9.9999996276746506e-01  9.9999920315430690e-01  9.9999858337956460e-01  9.9999950841116825e-01  1.0000027881358324e+00  1.0000051555831024e+00  9.9999903308048732e-01  9.9998444588244784e-01  9.9998630023267221e-01  1.0000336426847520e+00  1.0000700770037878e+00  9.9995802144136514e-01  9.9976996924828154e-01  9.9986699487239161e-01  1.0003761143641197e+00  1.0008882781743895e+00  1.0009241727785216e+00  1.0006406893837032e+00  1.0006419339141008e+00  1.0009029702505048e+00  1.0008308486735817e+00  1.0003352056135439e+00  9.9987208817337947e-01  9.9975731941757917e-01  9.9989458879186033e-01  1.0000302600743447e+00  1.0000671514165915e+00  1.0000437395877595e+00  1.0000071637292571e+00  9.9998529718056217e-01  9.9998381628261113e-01  9.9999391138052185e-01  1.0000024635703830e+00  1.0000027339708282e+00  9.9999999238959125e-01  9.9999947390562638e-01  1.0000000544148648e+00  1.0000000460129022e+00  1.0000000331033494e+00  1.0000000133322953e+00  9.9999942403935227e-01  1.0000023128390059e+00  9.9999550957588157e-01  9.9999884267909722e-01  1.0000329588557866e+00  9.9993248374099220e-01  9.9991294619629312e-01  1.0004505391378757e+00  1.0004941773906051e+00  9.9886369946343057e-01  9.9694807344623348e-01  9.9633452440332049e-01  9.9657287409012463e-01  9.9676220158384088e-01  9.9669363098934172e-01  9.9654043730515585e-01  9.9643109175829014e-01  9.9640088131675786e-01  9.9645405464466641e-01  9.9654426439102883e-01  9.9662181339364442e-01  9.9666325493851660e-01  9.9666273483884371e-01  9.9662369024864683e-01  9.9655822121133497e-01  9.9648470527631838e-01  9.9642239847676928e-01  9.9638516774607455e-01  9.9637542285709468e-01  9.9638456644621443e-01  9.9640277298972690e-01  9.9642746492704304e-01  9.9646224704064656e-01  9.9651119824571455e-01  9.9657368721719519e-01  9.9664404310333499e-01  9.9671849330513729e-01  9.9679867162942626e-01  9.9688549930977466e-01  9.9697347195142372e-01  9.9705105139129357e-01  9.9710551450409490e-01  9.9713099521961779e-01  9.9713262948945236e-01  9.9712305663016920e-01  9.9711670850930378e-01  9.9712386864370828e-01  9.9714764263362199e-01  9.9718716106182570e-01  9.9724132050455327e-01  9.9730909610108776e-01  9.9738888534840886e-01  9.9747897666505914e-01  9.9757884584736323e-01  9.9768892600994974e-01  9.9780864280141846e-01  9.9793631112675951e-01  9.9807245076613427e-01  9.9821864410551742e-01  9.9836715057950987e-01  9.9849995846884820e-01  9.9860391576891216e-01  9.9867577031366339e-01  9.9871207295282416e-01  9.9870602420486887e-01  9.9865721387963136e-01  9.9857946781347007e-01  9.9849542861412066e-01  9.9842463099400425e-01  9.9837630237337438e-01  9.9835019055426788e-01  9.9834229343009750e-01  9.9834965365152317e-01  9.9837196190204580e-01  9.9841113735216447e-01  9.9847050355903932e-01  9.9855422667794358e-01  9.9866505390261695e-01  9.9879955777357055e-01  9.9894615896535710e-01  9.9908954907103997e-01  9.9921613747841698e-01  9.9932055487204385e-01  9.9941637839878450e-01  9.9953256418595726e-01  9.9968881204150817e-01  9.9987808263851763e-01  1.0000698884383994e+00  1.0002291729280328e+00  1.0003375359678042e+00  1.0003956622247774e+00  1.0004107154965971e+00  1.0003911105474066e+00  1.0003551967473234e+00  1.0003326475443399e+00  1.0003471059330533e+00  1.0004051533361342e+00  1.0005013011906936e+00  1.0006237754273692e+00  1.0007591930791258e+00  1.0008959386408958e+00  1.0010202317209693e+00  1.0011176045195136e+00  1.0011872029731912e+00  1.0012393480043909e+00  1.0012767947476511e+00  1.0012983151463091e+00  1.0013118642576202e+00  1.0013284382028915e+00  1.0013536698834908e+00  1.0013890572699951e+00  1.0014312662641807e+00  1.0014714637058517e+00  1.0015026335974968e+00  1.0015261332178416e+00  1.0015490327683350e+00  1.0015786389825321e+00  1.0016179210951863e+00  1.0016588022130846e+00  1.0016824808093328e+00  1.0016732294866493e+00  1.0016254438075589e+00  1.0015403755222922e+00  1.0014323850904001e+00  1.0013328703134954e+00  1.0012816491368945e+00  1.0013225771977572e+00  1.0014937525568748e+00  1.0018089894535582e+00  1.0022779471720238e+00  1.0029594269275981e+00  1.0039715323093188e+00  1.0054314800534250e+00  1.0072665540292507e+00  1.0090239804429213e+00  1.0101244741199547e+00  1.0097230312833896e+00  1.0059328238239655e+00  1.0003543440293923e+00  9.9857677367510256e-01  9.9991256526314087e-01  1.0002012546947432e+00  9.9994431042243792e-01  9.9999433753487632e-01  1.0000075505157953e+00  1.0000470033871314e+00  9.9992787087074497e-01  9.9980223182175121e-01  1.0003526811615455e+00  1.0009282654504108e+00  9.9929569959574127e-01  9.9668965041301538e-01  9.9802305844078598e-01  1.0037416777200254e+00  1.0094539917963448e+00  1.0123146867211279e+00  1.0107528474098990e+00  1.0041975563837346e+00  9.9863803873832058e-01  9.9897173410461493e-01  1.0003836596446802e+00  1.0000273747106023e+00  9.9996259080731653e-01  9.9999263556234141e-01  9.9988642188288812e-01  1.0005766871211828e+00  9.9935895543766384e-01  9.9778194991093705e-01  1.0057532784204024e+00  1.0105751939073975e+00  9.9355260383669552e-01  9.7093417994039877e-01  9.5983692449277547e-01  9.5795516653903201e-01  9.6066493363718186e-01  9.6579276542852543e-01  9.7247287064657073e-01  9.7883809581543613e-01  9.8352363165759316e-01  9.8652497536477290e-01  9.8839223445159419e-01  9.8949545151555807e-01  9.9000942701158645e-01  9.9001675957804081e-01  9.8958441199642877e-01  9.8884972952485140e-01  9.8803726078133947e-01  9.8738129436611799e-01  9.8703894260874814e-01  9.8703170699809428e-01  9.8724300330353443e-01  9.8752289676101546e-01  9.8782864644508794e-01  9.8820965383397130e-01  9.8867969368536190e-01  9.8918967497957466e-01  9.8968021196977085e-01  9.9012727187651051e-01  9.9055397589743088e-01  9.9099472006416345e-01  9.9146088462981707e-01  9.9194439601636297e-01  9.9243487248624018e-01  9.9292418459838805e-01  9.9340440199812907e-01  9.9386740101864102e-01  9.9430573455172822e-01  9.9471456074927922e-01  9.9509449452881560e-01  9.9545475314108112e-01  9.9581841235769963e-01  9.9622855053420223e-01  9.9674299037614245e-01  9.9739163469260150e-01  9.9812414860483856e-01  9.9885173162177054e-01  9.9953280799051980e-01  1.0001689690756121e+00  1.0007726091747449e+00  1.0013607055433056e+00  1.0019398356380442e+00  1.0025106875049334e+00  1.0030853708198659e+00  1.0036857700318091e+00  1.0043477526467883e+00  1.0051318305860291e+00  1.0061215948068023e+00  1.0073781609293806e+00  1.0088307728672170e+00  1.0102416858800558e+00  1.0113687186953662e+00  1.0121284335275629e+00  1.0125761064664371e+00  1.0128108590267684e+00  1.0129175494399012e+00  1.0129489453424783e+00  1.0129130632146588e+00  1.0127381571933218e+00  1.0122121604558583e+00  1.0108698707963559e+00  1.0082793329006130e+00  1.0048164228359249e+00  1.0017722638215047e+00  1.0004157947395074e+00  1.0032363137484721e+00  1.0100159503438131e+00  1.0110023006793969e+00  1.0028870420693357e+00  9.9792424395891022e-01  9.9958350705600263e-01  1.0004137344623474e+00  9.9991733532035287e-01  1.0000112739554508e+00  9.9986999041093605e-01  1.0002647032165881e+00  1.0004439712884292e+00  9.9735333744430799e-01  1.0007598849974400e+00  1.0116944769323692e+00  9.9562296602165279e-01  9.5581606007938724e-01  9.7089245460249785e-01  1.0254946699803960e+00  1.0562454249508599e+00  1.0624713909786467e+00  1.0496924939299297e+00  1.0322344178765614e+00  1.0161912869903293e+00  1.0028620507961052e+00  9.9316388098008712e-01  9.8723610513674209e-01  9.8453134044445223e-01  9.8453791519380518e-01  9.8692841933136932e-01  9.9128194534635394e-01  9.9679951867045746e-01  1.0024131026332654e+00  1.0070555160487760e+00  1.0099499124624154e+00  1.0108549751758811e+00  1.0099914350606041e+00  1.0077640529489422e+00  1.0045679653010247e+00  1.0007499224746323e+00  9.9671637755233988e-01  9.9297183471258543e-01  9.8993267032146437e-01  9.8776494451705121e-01  9.8637772886393005e-01  9.8548867104736315e-01  9.8476382965528297e-01  9.8395384551397502e-01  9.8291905285956294e-01  9.8160233036759237e-01  9.8002412999108535e-01  9.7827296143739284e-01  9.7645082837562880e-01  9.7460059070516192e-01  9.7269730120971887e-01  9.7070577291402127e-01  9.6862453909571455e-01  9.6650348443928247e-01  9.6444323221256623e-01  9.6255399748236281e-01  9.6090423350589771e-01  9.5949961481067669e-01  9.5829362019342179e-01  9.5723171025286391e-01  9.5629342047778776e-01  9.5549286019110147e-01  9.5486694228128344e-01  9.5448506594565086e-01  9.5446469914382059e-01  9.5494690173434760e-01  9.5602299884833752e-01  9.5765759609765300e-01  9.5962584792795924e-01  9.6149892763288225e-01  9.6274642942112221e-01  9.6296532655153744e-01  9.6208563101824440e-01  9.6036992759914641e-01  9.5824713479380697e-01  9.5619327898615070e-01  9.5464805983954248e-0