<?xml version="1.0"?>
<VTKFile type="UnstructuredGrid"  version="0.1"  >
<UnstructuredGrid>
<Piece  NumberOfPoints="28121" NumberOfCells="55200">
<Points>
<DataArray  type="Float64"  NumberOfComponents="3"  format="ascii">0 0 0  0.008260869565217391 0 0  0.01652173913043478 0 0  0.02478260869565217 0 0  0.03304347826086956 0 0  0.04130434782608695 0 0  0.04956521739130434 0 0  0.05782608695652174 0 0  0.06608695652173913 0 0  0.07434782608695652 0 0  0.08260869565217391 0 0  0.0908695652173913 0 0  0.09913043478260869 0 0  0.1073913043478261 0 0  0.1156521739130435 0 0  0.1239130434782609 0 0  0.1321739130434783 0 0  0.1404347826086956 0 0  0.148695652173913 0 0  0.1569565217391304 0 0  0.1652173913043478 0 0  0.1734782608695652 0 0  0.1817391304347826 0 0  0.19 0 0  0.1982608695652174 0 0  0.2065217391304348 0 0  0.2147826086956522 0 0  0.2230434782608696 0 0  0.2313043478260869 0 0  0.2395652173913043 0 0  0.2478260869565218 0 0  0.2560869565217391 0 0  0.2643478260869565 0 0  0.2726086956521739 0 0  0.2808695652173913 0 0  0.2891304347826087 0 0  0.2973913043478261 0 0  0.3056521739130434 0 0  0.3139130434782609 0 0  0.3221739130434783 0 0  0.3304347826086956 0 0  0.338695652173913 0 0  0.3469565217391304 0 0  0.3552173913043478 0 0  0.3634782608695652 0 0  0.3717391304347826 0 0  0.3799999999999999 0 0  0.3882608695652174 0 0  0.3965217391304348 0 0  0.4047826086956521 0 0  0.4130434782608696 0 0  0.4213043478260869 0 0  0.4295652173913043 0 0  0.4378260869565217 0 0  0.4460869565217391 0 0  0.4543478260869565 0 0  0.4626086956521739 0 0  0.4708695652173913 0 0  0.4791304347826086 0 0  0.4873913043478261 0 0  0.4956521739130435 0 0  0.5039130434782608 0 0  0.5121739130434783 0 0  0.5204347826086956 0 0  0.528695652173913 0 0  0.5369565217391304 0 0  0.5452173913043478 0 0  0.5534782608695652 0 0  0.5617391304347825 0 0  0.57 0 0  0.5782608695652174 0 0  0.5865217391304348 0 0  0.5947826086956521 0 0  0.6030434782608696 0 0  0.6113043478260869 0 0  0.6195652173913043 0 0  0.6278260869565218 0 0  0.6360869565217391 0 0  0.6443478260869565 0 0  0.6526086956521739 0 0  0.6608695652173913 0 0  0.6691304347826087 0 0  0.677391304347826 0 0  0.6856521739130435 0 0  0.6939130434782609 0 0  0.7021739130434783 0 0  0.7104347826086956 0 0  0.718695652173913 0 0  0.7269565217391304 0 0  0.7352173913043478 0 0  0.7434782608695653 0 0  0.7517391304347827 0 0  0.7599999999999999 0 0  0.7682608695652173 0 0  0.7765217391304348 0 0  0.7847826086956522 0 0  0.7930434782608695 0 0  0.8013043478260868 0 0  0.8095652173913043 0 0  0.8178260869565217 0 0  0.8260869565217391 0 0  0.8343478260869565 0 0  0.8426086956521739 0 0  0.8508695652173912 0 0  0.8591304347826086 0 0  0.8673913043478261 0 0  0.8756521739130434 0 0  0.8839130434782608 0 0  0.8921739130434783 0 0  0.9004347826086956 0 0  0.908695652173913 0 0  0.9169565217391303 0 0  0.9252173913043478 0 0  0.9334782608695652 0 0  0.9417391304347826 0 0  0.95 0 0  0.9582608695652173 0 0  0.9665217391304347 0 0  0.9747826086956521 0 0  0.9830434782608696 0 0  0.991304347826087 0 0  0.9995652173913042 0 0  1.007826086956522 0 0  1.016086956521739 0 0  1.024347826086957 0 0  1.032608695652174 0 0  1.040869565217391 0 0  1.049130434782609 0 0  1.057391304347826 0 0  1.065652173913043 0 0  1.073913043478261 0 0  1.082173913043478 0 0  1.090434782608696 0 0  1.098695652173913 0 0  1.10695652173913 0 0  1.115217391304348 0 0  1.123478260869565 0 0  1.131739130434783 0 0  1.14 0 0  1.148260869565217 0 0  1.156521739130435 0 0  1.164782608695652 0 0  1.17304347826087 0 0  1.181304347826087 0 0  1.189565217391304 0 0  1.197826086956522 0 0  1.206086956521739 0 0  1.214347826086956 0 0  1.222608695652174 0 0  1.230869565217391 0 0  1.239130434782609 0 0  1.247391304347826 0 0  1.255652173913044 0 0  1.263913043478261 0 0  1.272173913043478 0 0  1.280434782608696 0 0  1.288695652173913 0 0  1.296956521739131 0 0  1.305217391304348 0 0  1.313478260869565 0 0  1.321739130434783 0 0  1.33 0 0  1.338260869565217 0 0  1.346521739130435 0 0  1.354782608695652 0 0  1.36304347826087 0 0  1.371304347826087 0 0  1.379565217391304 0 0  1.387826086956522 0 0  1.396086956521739 0 0  1.404347826086957 0 0  1.412608695652174 0 0  1.420869565217391 0 0  1.429130434782609 0 0  1.437391304347826 0 0  1.445652173913043 0 0  1.453913043478261 0 0  1.462173913043478 0 0  1.470434782608696 0 0  1.478695652173913 0 0  1.486956521739131 0 0  1.495217391304348 0 0  1.503478260869565 0 0  1.511739130434782 0 0  1.52 0 0  1.528260869565217 0 0  1.536521739130435 0 0  1.544782608695652 0 0  1.55304347826087 0 0  1.561304347826087 0 0  1.569565217391304 0 0  1.577826086956522 0 0  1.586086956521739 0 0  1.594347826086957 0 0  1.602608695652174 0 0  1.610869565217391 0 0  1.619130434782609 0 0  1.627391304347826 0 0  1.635652173913043 0 0  1.643913043478261 0 0  1.652173913043478 0 0  1.660434782608696 0 0  1.668695652173913 0 0  1.67695652173913 0 0  1.685217391304348 0 0  1.693478260869565 0 0  1.701739130434782 0 0  1.71 0 0  1.718260869565217 0 0  1.726521739130435 0 0  1.734782608695652 0 0  1.743043478260869 0 0  1.751304347826087 0 0  1.759565217391304 0 0  1.767826086956522 0 0  1.776086956521739 0 0  1.784347826086957 0 0  1.792608695652174 0 0  1.800869565217391 0 0  1.809130434782608 0 0  1.817391304347826 0 0  1.825652173913043 0 0  1.833913043478261 0 0  1.842173913043478 0 0  1.850434782608696 0 0  1.858695652173913 0 0  1.86695652173913 0 0  1.875217391304348 0 0  1.883478260869565 0 0  1.891739130434782 0 0  1.9 0 0  1.908260869565217 0 0  1.916521739130435 0 0  1.924782608695652 0 0  1.933043478260869 0 0  1.941304347826087 0 0  1.949565217391304 0 0  1.957826086956522 0 0  1.966086956521739 0 0  1.974347826086956 0 0  1.982608695652174 0 0  1.990869565217391 0 0  1.999130434782608 0 0  2.007391304347826 0 0  2.015652173913043 0 0  2.023913043478261 0 0  2.032173913043478 0 0  2.040434782608695 0 0  2.048695652173913 0 0  2.05695652173913 0 0  2.065217391304348 0 0  2.073478260869565 0 0  2.081739130434782 0 0  2.09 0 0  2.098260869565217 0 0  2.106521739130435 0 0  2.114782608695652 0 0  2.12304347826087 0 0  2.131304347826087 0 0  2.139565217391304 0 0  2.147826086956522 0 0  2.156086956521739 0 0  2.164347826086956 0 0  2.172608695652174 0 0  2.180869565217391 0 0  2.189130434782609 0 0  2.197391304347826 0 0  2.205652173913043 0 0  2.213913043478261 0 0  2.222173913043478 0 0  2.230434782608695 0 0  2.238695652173913 0 0  2.24695652173913 0 0  2.255217391304348 0 0  2.263478260869565 0 0  2.271739130434783 0 0  2.28 0 0  2.288260869565217 0 0  2.296521739130434 0 0  2.304782608695652 0 0  2.31304347826087 0 0  2.321304347826087 0 0  2.329565217391304 0 0  2.337826086956521 0 0  2.346086956521739 0 0  2.354347826086956 0 0  2.362608695652174 0 0  2.370869565217391 0 0  2.379130434782609 0 0  2.387391304347826 0 0  2.395652173913044 0 0  2.403913043478261 0 0  2.412173913043478 0 0  2.420434782608695 0 0  2.428695652173913 0 0  2.43695652173913 0 0  2.445217391304348 0 0  2.453478260869565 0 0  2.461739130434782 0 0  2.47 0 0  2.478260869565217 0 0  2.486521739130435 0 0  2.494782608695652 0 0  2.503043478260869 0 0  2.511304347826087 0 0  2.519565217391305 0 0  2.527826086956522 0 0  2.536086956521739 0 0  2.544347826086956 0 0  2.552608695652174 0 0  2.560869565217391 0 0  2.569130434782608 0 0  2.577391304347826 0 0  2.585652173913043 0 0  2.593913043478261 0 0  2.602173913043478 0 0  2.610434782608696 0 0  2.618695652173913 0 0  2.62695652173913 0 0  2.635217391304348 0 0  2.643478260869565 0 0  2.651739130434783 0 0  2.66 0 0  2.668260869565217 0 0  2.676521739130435 0 0  2.684782608695652 0 0  2.693043478260869 0 0  2.701304347826087 0 0  2.709565217391304 0 0  2.717826086956522 0 0  2.726086956521739 0 0  2.734347826086956 0 0  2.742608695652174 0 0  2.750869565217391 0 0  2.759130434782609 0 0  2.767391304347826 0 0  2.775652173913044 0 0  2.783913043478261 0 0  2.792173913043478 0 0  2.800434782608696 0 0  2.808695652173913 0 0  2.81695652173913 0 0  2.825217391304347 0 0  2.833478260869565 0 0  2.841739130434783 0 0  2.85 0 0  2.858260869565217 0 0  2.866521739130435 0 0  2.874782608695652 0 0  2.88304347826087 0 0  2.891304347826087 0 0  2.899565217391304 0 0  2.907826086956522 0 0  2.916086956521739 0 0  2.924347826086957 0 0  2.932608695652174 0 0  2.940869565217391 0 0  2.949130434782608 0 0  2.957391304347826 0 0  2.965652173913043 0 0  2.973913043478261 0 0  2.982173913043478 0 0  2.990434782608696 0 0  2.998695652173913 0 0  3.006956521739131 0 0  3.015217391304348 0 0  3.023478260869565 0 0  3.031739130434782 0 0  3.04 0 0  3.048260869565218 0 0  3.056521739130435 0 0  3.064782608695652 0 0  3.073043478260869 0 0  3.081304347826087 0 0  3.089565217391304 0 0  3.097826086956522 0 0  3.106086956521739 0 0  3.114347826086956 0 0  3.122608695652174 0 0  3.130869565217391 0 0  3.139130434782609 0 0  3.147391304347826 0 0  3.155652173913043 0 0  3.163913043478261 0 0  3.172173913043478 0 0  3.180434782608696 0 0  3.188695652173913 0 0  3.19695652173913 0 0  3.205217391304347 0 0  3.213478260869565 0 0  3.221739130434782 0 0  3.23 0 0  3.238260869565217 0 0  3.246521739130435 0 0  3.254782608695652 0 0  3.26304347826087 0 0  3.271304347826087 0 0  3.279565217391304 0 0  3.287826086956521 0 0  3.296086956521739 0 0  3.304347826086957 0 0  3.312608695652174 0 0  3.320869565217391 0 0  3.329130434782608 0 0  3.337391304347826 0 0  3.345652173913043 0 0  3.353913043478261 0 0  3.362173913043478 0 0  3.370434782608696 0 0  3.378695652173913 0 0  3.386956521739131 0 0  3.395217391304348 0 0  3.403478260869565 0 0  3.411739130434782 0 0  3.419999999999999 0 0  3.428260869565217 0 0  3.436521739130435 0 0  3.444782608695652 0 0  3.453043478260869 0 0  3.461304347826087 0 0  3.469565217391304 0 0  3.477826086956522 0 0  3.486086956521739 0 0  3.494347826086956 0 0  3.502608695652174 0 0  3.510869565217391 0 0  3.519130434782609 0 0  3.527391304347826 0 0  3.535652173913043 0 0  3.54391304347826
[...]
<PointData  Scalars="rho"> 
<DataArray  type="Float64"  Name="rho"  format="ascii">9.9999814044996660e-01  9.9999715274602419e-01  9.9999700800786251e-01  9.9999612882207778e-01  9.9999572311980267e-01  9.9999420484351942e-01  9.9999333464750140e-01  9.9999222150553291e-01  9.9999082665476258e-01  9.9842211078293586e-01  9.9770836877754532e-01  9.9693652827726087e-01  9.9608325179520907e-01  9.9538291027670300e-01  9.9511128874528954e-01  9.9405197360381736e-01  9.9001066881505084e-01  9.7967071428927899e-01  9.7627312447306891e-01  9.7654484390750285e-01  9.7977576846110959e-01  9.8638936198461535e-01  9.9501375519497126e-01  9.9827486835834067e-01  9.9876663576177527e-01  9.9860020816033401e-01  9.9777101806494384e-01  9.9757317191106298e-01  9.9743949281740396e-01  9.9739252589746052e-01  9.9744145669261264e-01  9.9758058393398952e-01  9.9778863687471808e-01  9.9804102054179433e-01  9.9831211608974557e-01  9.9858031116072732e-01  9.9882974912648115e-01  9.9905038135824709e-01  9.9923706421148450e-01  9.9938830527186595e-01  9.9950505674187184e-01  9.9958975855716314e-01  9.9964568982040924e-01  9.9967663187364619e-01  9.9831452085813255e-01  7.5328226736372861e-01  4.8963163490539408e-01  3.8034710720183951e-01  5.0880159912425704e-01  8.3127281765330974e-01  9.8708984783831921e-01  9.9159103495397050e-01  9.9534529796211291e-01  9.8606450577671123e-01  9.9993233755644861e-01  9.9994272393664674e-01  9.9995284170983434e-01  9.9996149952112312e-01  9.9998440822714862e-01  9.9997296751766618e-01  9.9995941818883916e-01  9.9978276487260154e-01  9.9935846049650467e-01  9.9889498311134839e-01  9.9840130259821125e-01  9.9789135884113467e-01  9.9739030757358949e-01  9.9693994399924701e-01  9.9659774235913068e-01  9.9642316375218276e-01  9.9645125302119641e-01  9.9667099510619206e-01  9.9703075760312043e-01  9.9746549756580949e-01  9.9792036961077801e-01  9.9835951313394422e-01  9.9876444491911720e-01  9.9912894222475468e-01  9.9945400082660707e-01  9.9974378983787948e-01  9.9985371342554941e-01  9.9990965052351310e-01  9.9910499735561742e-01  9.9930361365239462e-01  9.9950554807280623e-01  9.9967040971718368e-01  9.9904737402542931e-01  9.9404869617811065e-01  9.9456067418408767e-01  9.8913769102958138e-01  9.8856583279448507e-01  9.8909320783599197e-01  9.8868057399435361e-01  9.8860340220267684e-01  9.8886959773396432e-01  9.8957717221877017e-01  9.9064293283542493e-01  9.9203328703447236e-01  9.9365100636349046e-01  9.9535621406170327e-01  9.9697872193024850e-01  9.9834864720612537e-01  9.9934459718701008e-01  9.9987170671445680e-01  9.9988942780780532e-01  9.9968843762914961e-01  9.9744432893243484e-01  9.9542513041704350e-01  9.9370302474545524e-01  9.9237398856444758e-01  9.9137066778427074e-01  9.9247779807704450e-01  9.9445977301781963e-01  9.9348036388839378e-01  9.8990375103074790e-01  9.8940411709295728e-01  9.8897856558657615e-01  9.9145308309000646e-01  9.9019128765336761e-01  9.8994116146803723e-01  9.8992531618705248e-01  9.8973917173785153e-01  9.8768197433924676e-01  9.8711466649790447e-01  9.8655394346870784e-01  9.8599838916799731e-01  9.8545175715637923e-01  9.8489537783163217e-01  9.8436874004935271e-01  9.8386861489541610e-01  9.8208637102334329e-01  9.8129746888544878e-01  9.8004054138214669e-01  9.7890738615172412e-01  9.7729859539351183e-01  9.8750193192233970e-01  9.8685269943235010e-01  9.8694185032913007e-01  9.8655689166499549e-01  9.8668648059348518e-01  9.8635763329636073e-01  9.8609293335786496e-01  9.8588717571197937e-01  9.8572802268118798e-01  9.8559919541693186e-01  9.8419913391313696e-01  9.8401832866363204e-01  9.8095494966373842e-01  9.8086772376475628e-01  9.8076047923619525e-01  9.8065033711854754e-01  9.8090257118355528e-01  9.8115969191165331e-01  9.8173679535641156e-01  9.8270665744838981e-01  9.8371396332856986e-01  9.8475884133131253e-01  9.8217856973546280e-01  9.8182348988395007e-01  9.8232245850568423e-01  9.8284202246659380e-01  9.8354912189313071e-01  9.8370902608123112e-01  9.7969121121139702e-01  9.8306794369394812e-01  9.8417070621882174e-01  9.8070041228660254e-01  9.8811911711490219e-01  9.9027266826476279e-01  9.9308188868391511e-01  9.9608367751372506e-01  9.9017998314673483e-01  9.9063620581587997e-01  9.9173912255429630e-01  9.9590896109171445e-01  9.9912642874364554e-01  9.9993386622087710e-01  9.9992997465438316e-01  9.8307147099722536e-01  9.9991834059418117e-01  9.9182158037177348e-01  9.7843805008371809e-01  9.5432711723708374e-01  8.7281239359142104e-01  8.8719084212799237e-01  9.0758645398757276e-01  9.4524703455656212e-01  9.7618996227012866e-01  9.9305429443567461e-01  9.9609084833023864e-01  9.9892801490143457e-01  9.9817717109883919e-01  9.9777460672076967e-01  9.9733440871690804e-01  9.9652733872475940e-01  9.8866535960106861e-01  9.7940944567263910e-01  9.7156124471219296e-01  9.6549200553721126e-01  9.6393927669411172e-01  9.6456470634494229e-01  9.3085728394056766e-01  9.4825926175637321e-01  9.0597246866010073e-01  9.0654664826423559e-01  9.0401023847806217e-01  9.0309024272128202e-01  8.7138649390011336e-01  8.6271284065145859e-01  8.5993652194332093e-01  8.4880056876280385e-01  8.3665422522834554e-01  8.8842221083679385e-01  9.4221727456264148e-01  9.5541250906248809e-01  9.6204239532143310e-01  9.7591969463218509e-01  9.7498912889492606e-01  9.7718984887639504e-01  9.7965282165908063e-01  9.8069572861838361e-01  9.8130269174536733e-01  9.8835711940677073e-01  9.9571145136853179e-01  9.9299283013649031e-01  9.9207140161687135e-01  9.9263522022638040e-01  9.9222529594281661e-01  9.9033022530838344e-01  9.8835288365819007e-01  9.8774856771231723e-01  9.8427117357584804e-01  9.8452460500383676e-01  9.8467547223002849e-01  9.8319814454525467e-01  9.8303408481105836e-01  9.8247371589776145e-01  9.8178924799414014e-01  9.7319340973447366e-01  9.7144003013143576e-01  9.7082810600240976e-01  9.7022156944683302e-01  9.6973410450753850e-01  9.6926476939720296e-01  9.6886540317809422e-01  9.7644641249623587e-01  9.7621675863517521e-01  9.7607496813691863e-01  9.7603587886808618e-01  9.7609326407130903e-01  9.7615161956957153e-01  9.7626288121750160e-01  9.7613029538403406e-01  9.7578672983487347e-01  9.7634293570022812e-01  9.7479318416586069e-01  9.7373426127270724e-01  9.7265810297734046e-01  9.6856239998820870e-01  9.6816166641867130e-01  9.6821439361719364e-01  9.6872961514220690e-01  9.6967840523604820e-01  9.7095118916334044e-01  9.7242378444402910e-01  9.7387073398956725e-01  9.7628847743219915e-01  9.7737491953994848e-01  9.6503195772482486e-01  9.6563039946873996e-01  9.6589811235685108e-01  9.7872263041371088e-01  9.6877586921452996e-01  9.6938354672102578e-01  9.7067490960033131e-01  9.6159517372964975e-01  9.6629878004081315e-01  9.7339271485796719e-01  9.7884921723321583e-01  9.8510378185144076e-01  9.8588088241480398e-01  9.8297166588369411e-01  9.9068679202326393e-01  9.9935899636546832e-01  9.9822323026818049e-01  9.7645910832984484e-01  9.4598499345623888e-01  9.3112355183974582e-01  8.5673696666962018e-01  8.6682944237004333e-01  8.6736815790264410e-01  8.5862911013841481e-01  8.5838577989163567e-01  8.6399351109354272e-01  8.9762356710212343e-01  8.8966103975077782e-01  8.9166507991485544e-01  8.9273412076254643e-01  9.0308516471455358e-01  9.0037054611714940e-01  8.9558528742687871e-01  8.5612575997560625e-01  8.0102869727922965e-01  8.6096762196548404e-01  9.1324125909683307e-01  9.0778148604433073e-01  9.7688458224146735e-01  9.7774045206640414e-01  9.7782223801067292e-01  9.7880750043389464e-01  9.7770744584231384e-01  9.8261317534568349e-01  9.7591295681202272e-01  9.7372202299497768e-01  9.7584260354046370e-01  9.7561474567088524e-01  9.7711205401667400e-01  9.7717697110853419e-01  9.7899301541136141e-01  9.6641863264552452e-01  9.7024900163950956e-01  9.7646494257065730e-01  9.8192952072036466e-01  9.8493691786158721e-01  9.8092688194576017e-01  9.8086527978652316e-01  9.7764009784994521e-01  9.8212626078740561e-01  9.8185141487824290e-01  9.8041545400154073e-01  9.8391610559485099e-01  9.7991352742501381e-01  9.6035317656467878e-01  9.5689078354409374e-01  9.5424096050809970e-01  9.5822095351896519e-01  9.5783794747475304e-01  9.6150215158958996e-01  9.6241084331983895e-01  9.6380055772977724e-01  9.6544312888671768e-01  9.6636746392935635e-01  9.7058869415674420e-01  9.7169045460231007e-01  9.7333269490093699e-01  9.7402979371901033e-01  9.7458621551916591e-01  9.7465657590034294e-01  9.7492614345433937e-01  9.7506187314068937e-01  9.7506427814662422e-01  9.7490767297148806e-01  9.7438717588983537e-01  9.7395150989363111e-01  9.7336055757704842e-01  9.7297897484236240e-01  9.7266638516341253e-01  9.7255488374710275e-01  9.7277048436134983e-01  9.7370269658221598e-01  9.7561458315722316e-01  9.7780768495915193e-01  9.8620487588471772e-01  9.8841761109132842e-01  9.9077443216102956e-01  9.9269189487014931e-01  9.9452200188929107e-01  9.9443128052883323e-01  9.9355929511282670e-01  9.9255935272442075e-01  9.8116361081694115e-01  9.0619771525887127e-01  9.2082516753526755e-01  8.8414239050573551e-01  8.7111036934291841e-01  6.7798563145262347e-01  5.9872800657334491e-01  5.8583253787106448e-01  4.2995789908025228e-01  4.1461037135882889e-01  3.9213054552110238e-01  3.4801087866981983e-01  3.3980547996851812e-01  2.9014331646716207e-01  2.4026313259053797e-01  1.7676041285414456e-02  1.7942728461966890e-02  9.7149635939964094e-03  9.3573228028442750e-03  9.7141085942376599e-03  9.2967197148912731e-03  8.4736861491203162e-03  1.1764651834911478e-02  1.3278324308396603e-02  1.3100924906023109e-02  1.1942676178491065e-02  1.5131316486970983e-02  1.2839966255267891e-02  1.0778115550075008e-02  6.8557278929257731e-03  7.8505312665975418e-03  4.9683405329528328e-03  5.1366968670234501e-03  4.1203897566159543e-03  3.0700436547123687e-03  3.0498071752448098e-03  2.3631893457323090e-03  1.2165677376377697e-03  8.8097156696226775e-04  6.0381896769443814e-04  4.7058086615734242e-04  3.6555682613261258e-04  2.7411574874035456e-04  2.9962079024129922e-04  2.3681080184985429e-04  2.2260003505712329e-04  1.4634068503143477e-04  8.0108731351467328e-05  5.2585091897602394e-05  4.1394154294841833e-05  3.2564791051188687e-05  2.5603989050342164e-05  2.0120114097676779e-05  1.5802602791243765e-05  1.2405408478524108e-05  9.8600035225496654e-06  7.7444135106550953e-06  6.0809202629628330e-06  4.7734270666660716e-06  3.7461205435568967e-06  2.9392343348793032e-06  2.3056769489039638e-06  1.5069691388463524e-06  1.1817466237057651e-06  9.2658890771832305e-07  7.2644544214984313e-07  5.6948615316137827e-07  4.4641009105805749e-07  3.4991506052195682e-07  2.7426629060825385e-07  2.1496549518845447e-07  1.6847900212277522e-07  1.3203756492940596e-07  1.0346990593041721e-07  8.1075469659660773e-08  6.3519376903902768e-08  4.9756751311565099e-08  3.8969524188998049e-08  3.0517555428339945e-08  2.3898579987351852e-08  2.9424719174525289e-08  2.8034703878896372e-08  2.2120312668747423e-08  2.5505291894345792e-08  4.0928690039534114e-08  5.1666441174126786e-08  6.1173171042845255e-08  6.8355976632763138e-08  7.3308687579333572e-08  7.6231786672656546e-08  2.5637802477951467e-08  9.9999711509431422e-01  9.9999419403923762e-01  9.9999393330939534e-01  9.9999349282085748e-01  9.9999141371335742e-01  9.9998841196171939e-01  9.9998671231963487e-01  9.9998452364461898e-01  9.9998176420831764e-01  9.9593261672361544e-01  9.9522260942441876e-01  9.9349362220934589e-01  9.9172296689596240e-01  9.9024252038169525e-01  9.8857122726343138e-01  9.8736252324853835e-01  9.7920859900140567e-01  9.5816566631975653e-01  9.5287902375794287e-01  9.4931791762599682e-01  9.5446734544058953e-01  9.6813592939955484e-01  9.8331906214601705e-01  9.9381785042768589e-01  9.9753538865489944e-01  9.9718755585998986e-01  9.9548861402618183e-01  9.9504824026542338e-01  9.9473441644336358e-01  9.9460140752776116e-01  9.9467474424448554e-01  9.9494537365504787e-01  9.9536836253078731e-01  9.9589039622501485e-01  9.9645592798151805e-01  9.9701814430769176e-01  9.9754271489934254e-01  9.9800785828122973e-01  9.9840234301177599e-01  9.9872275200915839e-01  9.9897086393583201e-01  9.9915156643875003e-01  9.9927143067279123e-01  9.9933791261276372e-01  9.9681908104903794e-01  8.2924705459142611e-01  3.2774609454616310e-01  2.2074654469106519e-01  2.3128468174416161e-01  5.4542470993125591e-01  9.7287686514687777e-01  9.7318433037190843e-01  9.5824084061001180e-01  9.4826904757970576e-01  9.9782582659894004e-01  9.9987891075278557e-01  9.9990115087134723e-01  9.9992001260888419e-01  9.9996780770813620e-01  9.9994424453340691e-01  9.9992941494722132e-01  9.9972803126579857e-01  9.9888409684779456e-01  9.9796340410441331e-01  9.9698160759528598e-01  9.9595967119273154e-01  9.9493855177324697e-01  9.9399460074932122e-01  9.9324477523946175e-01  9.9282415761237297e-01  9.9282450769045538e-01  9.9323293934153400e-01  9.9393965553567276e-01  9.9480533632017432e-01  9.9571572672460318e-01  9.9659795117740047e-01  9.9577501868916085e-01  9.9552581417919750e-01  9.9536771993753848e-01  9.9537083582560404e-01  9.9730929098158527e-01  9.9697349485419262e-01  9.9241271232350559e-01  9.9289858509630824e-01  9.9339344391064766e-01  9.9381345203135529e-01  9.9304174180194604e-01  9.8672104836174679e-01  9.8769878988584037e-01  9.7837943035684161e-01  9.7775459900351469e-01  9.7903377434868943e-01  9.7817083486697332e-01  9.7791861672055591e-01  9.7833108681260939e-01  9.7938482270357841e-01  9.8122599340173278e-01  9.8363203239586861e-01  9.8648617576690845e-01  9.8955006260763867e-01  9.9252989924089452e-01  9.9511738143028439e-01  9.9707883264389452e-01  9.9831742877366592e-01  9.9974532284757445e-01  9.9663442470124852e-01  9.9332581585116397e-01  9.8944863056940735e-01  9.8616906679659067e-01  9.8365078800856443e-01  9.8178717848205843e-01  9.8420971907121690e-01  9.8852279842512603e-01  9.8672061902629116e-01  9.7869017213836051e-01  9.7771796830325630e-01  9.7686982676425194e-01  9.7613335663637713e-01  9.8005888063296542e-01  9.7956012911487678e-01  9.7955675934717956e-01  9.7921483602763937e-01  9.7470710065650645e-01  9.7347012013668288e-01  9.7235069880343794e-01  9.7123963702225113e-01  9.7014747261429657e-01  9.6904029088321464e-01  9.6800613686506676e-01  9.6705011740572133e-01  9.6406966841400077e-01  9.6258822723079518e-01  9.6026862978590111e-01  9.5809094556821039e-01  9.5525838705340804e-01  9.7436667635486673e-01  9.7306948084852030e-01  9.7289744056265060e-01  9.7211207703866398e-01  9.7237427534287735e-01  9.7169680163366889e-01  9.7115059791455383e-01  9.7072676305757244e-01  9.7040125805806754e-01  9.7014102172573580e-01  9.6777838398402039e-01  9.6727228843951540e-01  9.6195014519792155e-01  9.6172281294346451e-01  9.6144284693037141e-01  9.6135151202182489e-01  9.6163783164025596e-01  9.6192602757890999e-01  9.6255785144944972e-01  9.6411519316265548e-01  9.6574203313382367e-01  9.6742964616118499e-01  9.6326989375200622e-01  9.6234033827012422e-01  9.6307614558939059e-01  9.6379975254166472e-01  9.6507153946228585e-01  9.6561368662566038e-01  9.5878003190647521e-01  9.6401754110954929e-01  9.6580707548018896e-01  9.6024467998743268e-01  9.7131372634633328e-01  9.7616460363819457e-01  9.8042523049349428e-01  9.8601746561605130e-01  9.7899455766636978e-01  9.7957553823697308e-01  9.8080693225615534e-01  9.8637300781653525e-01  9.9273233097875502e-01  9.9674134207354570e-01  9.9772198351607255e-01  9.4977164533362757e-01  9.9983444184451142e-01  9.7918874331295791e-01  9.5430641027825558e-01  8.6386658253890392e-01  7.5504094153256918e-01  7.8231449487119087e-01  8.1855951330033461e-01  8.9961036432287600e-01  9.5363066458640844e-01  9.8591427721621216e-01  9.9185760102374532e-01  9.9750289748920529e-01  9.9713587974698903e-01  9.9696483172310957e-01  9.9641208640009149e-01  9.9519215851960829e-01  9.8257703346037151e-01  9.6414705704951842e-01  9.4835722834147884e-01  9.3660644747743216e-01  9.3403579924157554e-01  8.5424203206116911e-01  8.6573277360413825e-01  8.9783812222771275e-01  8.6532361153450243e-01  8.7947111343815387e-01  8.8627741152825856e-01  8.9330866394406117e-01  8.3838236510088293e-01  8.3647269394565937e-01  8.1569375360512997e-01  7.7879364344828617e-01  7.3124522096063638e-01  7.6704078645384854e-01  8.9782831847863642e-01  9.4057252230980359e-01  9.1582767256756137e-01  9.2327340598204388e-01  9.5221388436178966e-01  9.5467253630106352e-01  9.5751897032738575e-01  9.6065296804344280e-01  9.6187797173040368e-01  9.6793982422915148e-01  9.9110478604818963e-01  9.8653658058079807e-01  9.8474817689596017e-01  9.8492808303689039e-01  9.7832234232446724e-01  9.7169304467662365e-01  9.6843982342962864e-01  9.6735540982982338e-01  9.6200233056388817e-01  9.6265955437234096e-01  9.6308857263277992e-01  9.6158830409367180e-01  9.6146217614012397e-01  9.5977910384273213e-01  9.4572196490155236e-01  9.4464390591852265e-01  9.4230741765513248e-01  9.4129755009066207e-01  9.4029186245293550e-01  9.3951044923093496e-01  9.3872416493475164e-01  9.3803541130923995e-01  9.3749703571391907e-01  9.3719016001881872e-01  9.5012640125721026e-01  9.5011608166201789e-01  9.5031586600732221e-01  9.5054778878988111e-01  9.5092370112106905e-01  9.5085574643330306e-01  9.5039368451800466e-01  9.5135043333335279e-01  9.3797719534639257e-01  9.3714726352627997e-01  9.3624468237911018e-01  9.3271681847753041e-01  9.3595664635378462e-01  9.3594466816655175e-01  9.3684170721990956e-01  9.3860451016997604e-01  9.4102862511159957e-01  9.4388567146468705e-01  9.4673831915212547e-01  9.4955176147118825e-01  9.5393172178076224e-01  9.3436217680651190e-01  9.3489101977756273e-01  9.3538861762240966e-01  9.5646175621900398e-01  9.3813971285869002e-01  9.3890282357973154e-01  9.4069895544222426e-01  9.2548133584340553e-01  9.2583238508259003e-01  9.4722834845061821e-01  9.5735949335246795e-01  9.6875784271722309e-01  9.7015903333347941e-01  9.6454202951442969e-01  9.7781230846504608e-01  9.9622677664041637e-01  9.9541557315409845e-01  9.5151910439307175e-01  9.0533863226577371e-01  8.8194768191553441e-01  7.9698828071092165e-01  8.1122482365876447e-01  8.1676033977396323e-01  8.0536940296555937e-01  8.0616301104338850e-01  8.1528761086245116e-01  8.6078694165349234e-01  8.6734512147987830e-01  8.7041630119311331e-01  8.7074494300478877e-01  8.6739912685749898e-01  8.7338379375579189e-01  8.6049605696045550e-01  7.7214369594092780e-01  6.6566930518734913e-01  7.0141231604706811e-01  8.2882863684124586e-01  8.1014357073151333e-01  8.7204912348365304e-01  9.5458715968759122e-01  9.5492664544901074e-01  9.3953556934010096e-01  9.5480449993981231e-01  9.5892311893509985e-01  9.5214818239505317e-01  9.4713516449042434e-01  9.5178666395150402e-01  9.5067759759572568e-01  9.5441764808313045e-01  9.5230806192357043e-01  9.3979569906327109e-01  9.1941965996625341e-01  9.2574015677937571e-01  9.3524613668364742e-01  9.4510013303154583e-01  9.5312334371767427e-01  9.4821610075857188e-01  9.5076519232328083e-01  9.4827191159136870e-01  9.6070226090000466e-01  9.5498641454621969e-01  9.4783938973840032e-01  9.6246051256104437e-01  9.5448955972791916e-01  9.1515767190611763e-01  9.0865015040265273e-01  9.0378092073444849e-01  9.1152655086986745e-01  9.1139714335638478e-01  9.2103763701701380e-01  9.2167190857590209e-01  9.2754375971718717e-01  9.3069462931344438e-01  9.3313980513076333e-01  9.4186192966244364e-01  9.4412789743957015e-01  9.4749681594693869e-01  9.4891387244553582e-01  9.4765217753596853e-01  9.4829571135814272e-01  9.5106825247687865e-01  9.5126725550934166e-01  9.5141619944824740e-01  9.5126623062998272e-01  9.5090622624812315e-01  9.4974531078891788e-01  9.4846345739674121e-01  9.4787224847728035e-01  9.4735280419484758e-01  9.4715112180093186e-01  9.4752202130106822e-01  9.4864543887419106e-01  9.5206073615661913e-01  9.5584785299108377e-01  9.7013906664516347e-01  9.7407321709594041e-01  9.7856961702041723e-01  9.8104347925227919e-01  9.8477214654323963e-01  9.8686608967337175e-01  9.8573199545983581e-0