<?xml version="1.0"?>
<VTKFile type="UnstructuredGrid"  version="0.1"  >
<UnstructuredGrid>
<Piece  NumberOfPoints="28121" NumberOfCells="55200">
<Points>
<DataArray  type="Float64"  NumberOfComponents="3"  format="ascii">0 0 0  0.008260869565217391 0 0  0.01652173913043478 0 0  0.02478260869565217 0 0  0.03304347826086956 0 0  0.04130434782608695 0 0  0.04956521739130434 0 0  0.05782608695652174 0 0  0.06608695652173913 0 0  0.07434782608695652 0 0  0.08260869565217391 0 0  0.0908695652173913 0 0  0.09913043478260869 0 0  0.1073913043478261 0 0  0.1156521739130435 0 0  0.1239130434782609 0 0  0.1321739130434783 0 0  0.1404347826086956 0 0  0.148695652173913 0 0  0.1569565217391304 0 0  0.1652173913043478 0 0  0.1734782608695652 0 0  0.1817391304347826 0 0  0.19 0 0  0.1982608695652174 0 0  0.2065217391304348 0 0  0.2147826086956522 0 0  0.2230434782608696 0 0  0.2313043478260869 0 0  0.2395652173913043 0 0  0.2478260869565218 0 0  0.2560869565217391 0 0  0.2643478260869565 0 0  0.2726086956521739 0 0  0.2808695652173913 0 0  0.2891304347826087 0 0  0.2973913043478261 0 0  0.3056521739130434 0 0  0.3139130434782609 0 0  0.3221739130434783 0 0  0.3304347826086956 0 0  0.338695652173913 0 0  0.3469565217391304 0 0  0.3552173913043478 0 0  0.3634782608695652 0 0  0.3717391304347826 0 0  0.3799999999999999 0 0  0.3882608695652174 0 0  0.3965217391304348 0 0  0.4047826086956521 0 0  0.4130434782608696 0 0  0.4213043478260869 0 0  0.4295652173913043 0 0  0.4378260869565217 0 0  0.4460869565217391 0 0  0.4543478260869565 0 0  0.4626086956521739 0 0  0.4708695652173913 0 0  0.4791304347826086 0 0  0.4873913043478261 0 0  0.4956521739130435 0 0  0.5039130434782608 0 0  0.5121739130434783 0 0  0.5204347826086956 0 0  0.528695652173913 0 0  0.5369565217391304 0 0  0.5452173913043478 0 0  0.5534782608695652 0 0  0.5617391304347825 0 0  0.57 0 0  0.5782608695652174 0 0  0.5865217391304348 0 0  0.5947826086956521 0 0  0.6030434782608696 0 0  0.6113043478260869 0 0  0.6195652173913043 0 0  0.6278260869565218 0 0  0.6360869565217391 0 0  0.6443478260869565 0 0  0.6526086956521739 0 0  0.6608695652173913 0 0  0.6691304347826087 0 0  0.677391304347826 0 0  0.6856521739130435 0 0  0.6939130434782609 0 0  0.7021739130434783 0 0  0.7104347826086956 0 0  0.718695652173913 0 0  0.7269565217391304 0 0  0.7352173913043478 0 0  0.7434782608695653 0 0  0.7517391304347827 0 0  0.7599999999999999 0 0  0.7682608695652173 0 0  0.7765217391304348 0 0  0.7847826086956522 0 0  0.7930434782608695 0 0  0.8013043478260868 0 0  0.8095652173913043 0 0  0.8178260869565217 0 0  0.8260869565217391 0 0  0.8343478260869565 0 0  0.8426086956521739 0 0  0.8508695652173912 0 0  0.8591304347826086 0 0  0.8673913043478261 0 0  0.8756521739130434 0 0  0.8839130434782608 0 0  0.8921739130434783 0 0  0.9004347826086956 0 0  0.908695652173913 0 0  0.9169565217391303 0 0  0.9252173913043478 0 0  0.9334782608695652 0 0  0.9417391304347826 0 0  0.95 0 0  0.9582608695652173 0 0  0.9665217391304347 0 0  0.9747826086956521 0 0  0.9830434782608696 0 0  0.991304347826087 0 0  0.9995652173913042 0 0  1.007826086956522 0 0  1.016086956521739 0 0  1.024347826086957 0 0  1.032608695652174 0 0  1.040869565217391 0 0  1.049130434782609 0 0  1.057391304347826 0 0  1.065652173913043 0 0  1.073913043478261 0 0  1.082173913043478 0 0  1.090434782608696 0 0  1.098695652173913 0 0  1.10695652173913 0 0  1.115217391304348 0 0  1.123478260869565 0 0  1.131739130434783 0 0  1.14 0 0  1.148260869565217 0 0  1.156521739130435 0 0  1.164782608695652 0 0  1.17304347826087 0 0  1.181304347826087 0 0  1.189565217391304 0 0  1.197826086956522 0 0  1.206086956521739 0 0  1.214347826086956 0 0  1.222608695652174 0 0  1.230869565217391 0 0  1.239130434782609 0 0  1.247391304347826 0 0  1.255652173913044 0 0  1.263913043478261 0 0  1.272173913043478 0 0  1.280434782608696 0 0  1.288695652173913 0 0  1.296956521739131 0 0  1.305217391304348 0 0  1.313478260869565 0 0  1.321739130434783 0 0  1.33 0 0  1.338260869565217 0 0  1.346521739130435 0 0  1.354782608695652 0 0  1.36304347826087 0 0  1.371304347826087 0 0  1.379565217391304 0 0  1.387826086956522 0 0  1.396086956521739 0 0  1.404347826086957 0 0  1.412608695652174 0 0  1.420869565217391 0 0  1.429130434782609 0 0  1.437391304347826 0 0  1.445652173913043 0 0  1.453913043478261 0 0  1.462173913043478 0 0  1.470434782608696 0 0  1.478695652173913 0 0  1.486956521739131 0 0  1.495217391304348 0 0  1.503478260869565 0 0  1.511739130434782 0 0  1.52 0 0  1.528260869565217 0 0  1.536521739130435 0 0  1.544782608695652 0 0  1.55304347826087 0 0  1.561304347826087 0 0  1.569565217391304 0 0  1.577826086956522 0 0  1.586086956521739 0 0  1.594347826086957 0 0  1.602608695652174 0 0  1.610869565217391 0 0  1.619130434782609 0 0  1.627391304347826 0 0  1.635652173913043 0 0  1.643913043478261 0 0  1.652173913043478 0 0  1.660434782608696 0 0  1.668695652173913 0 0  1.67695652173913 0 0  1.685217391304348 0 0  1.693478260869565 0 0  1.701739130434782 0 0  1.71 0 0  1.718260869565217 0 0  1.726521739130435 0 0  1.734782608695652 0 0  1.743043478260869 0 0  1.751304347826087 0 0  1.759565217391304 0 0  1.767826086956522 0 0  1.776086956521739 0 0  1.784347826086957 0 0  1.792608695652174 0 0  1.800869565217391 0 0  1.809130434782608 0 0  1.817391304347826 0 0  1.825652173913043 0 0  1.833913043478261 0 0  1.842173913043478 0 0  1.850434782608696 0 0  1.858695652173913 0 0  1.86695652173913 0 0  1.875217391304348 0 0  1.883478260869565 0 0  1.891739130434782 0 0  1.9 0 0  1.908260869565217 0 0  1.916521739130435 0 0  1.924782608695652 0 0  1.933043478260869 0 0  1.941304347826087 0 0  1.949565217391304 0 0  1.957826086956522 0 0  1.966086956521739 0 0  1.974347826086956 0 0  1.982608695652174 0 0  1.990869565217391 0 0  1.999130434782608 0 0  2.007391304347826 0 0  2.015652173913043 0 0  2.023913043478261 0 0  2.032173913043478 0 0  2.040434782608695 0 0  2.048695652173913 0 0  2.05695652173913 0 0  2.065217391304348 0 0  2.073478260869565 0 0  2.081739130434782 0 0  2.09 0 0  2.098260869565217 0 0  2.106521739130435 0 0  2.114782608695652 0 0  2.12304347826087 0 0  2.131304347826087 0 0  2.139565217391304 0 0  2.147826086956522 0 0  2.156086956521739 0 0  2.164347826086956 0 0  2.172608695652174 0 0  2.180869565217391 0 0  2.189130434782609 0 0  2.197391304347826 0 0  2.205652173913043 0 0  2.213913043478261 0 0  2.222173913043478 0 0  2.230434782608695 0 0  2.238695652173913 0 0  2.24695652173913 0 0  2.255217391304348 0 0  2.263478260869565 0 0  2.271739130434783 0 0  2.28 0 0  2.288260869565217 0 0  2.296521739130434 0 0  2.304782608695652 0 0  2.31304347826087 0 0  2.321304347826087 0 0  2.329565217391304 0 0  2.337826086956521 0 0  2.346086956521739 0 0  2.354347826086956 0 0  2.362608695652174 0 0  2.370869565217391 0 0  2.379130434782609 0 0  2.387391304347826 0 0  2.395652173913044 0 0  2.403913043478261 0 0  2.412173913043478 0 0  2.420434782608695 0 0  2.428695652173913 0 0  2.43695652173913 0 0  2.445217391304348 0 0  2.453478260869565 0 0  2.461739130434782 0 0  2.47 0 0  2.478260869565217 0 0  2.486521739130435 0 0  2.494782608695652 0 0  2.503043478260869 0 0  2.511304347826087 0 0  2.519565217391305 0 0  2.527826086956522 0 0  2.536086956521739 0 0  2.544347826086956 0 0  2.552608695652174 0 0  2.560869565217391 0 0  2.569130434782608 0 0  2.577391304347826 0 0  2.585652173913043 0 0  2.593913043478261 0 0  2.602173913043478 0 0  2.610434782608696 0 0  2.618695652173913 0 0  2.62695652173913 0 0  2.635217391304348 0 0  2.643478260869565 0 0  2.651739130434783 0 0  2.66 0 0  2.668260869565217 0 0  2.676521739130435 0 0  2.684782608695652 0 0  2.693043478260869 0 0  2.701304347826087 0 0  2.709565217391304 0 0  2.717826086956522 0 0  2.726086956521739 0 0  2.734347826086956 0 0  2.742608695652174 0 0  2.750869565217391 0 0  2.759130434782609 0 0  2.767391304347826 0 0  2.775652173913044 0 0  2.783913043478261 0 0  2.792173913043478 0 0  2.800434782608696 0 0  2.808695652173913 0 0  2.81695652173913 0 0  2.825217391304347 0 0  2.833478260869565 0 0  2.841739130434783 0 0  2.85 0 0  2.858260869565217 0 0  2.866521739130435 0 0  2.874782608695652 0 0  2.88304347826087 0 0  2.891304347826087 0 0  2.899565217391304 0 0  2.907826086956522 0 0  2.916086956521739 0 0  2.924347826086957 0 0  2.932608695652174 0 0  2.940869565217391 0 0  2.949130434782608 0 0  2.957391304347826 0 0  2.965652173913043 0 0  2.973913043478261 0 0  2.982173913043478 0 0  2.990434782608696 0 0  2.998695652173913 0 0  3.006956521739131 0 0  3.015217391304348 0 0  3.023478260869565 0 0  3.031739130434782 0 0  3.04 0 0  3.048260869565218 0 0  3.056521739130435 0 0  3.064782608695652 0 0  3.073043478260869 0 0  3.081304347826087 0 0  3.089565217391304 0 0  3.097826086956522 0 0  3.106086956521739 0 0  3.114347826086956 0 0  3.122608695652174 0 0  3.130869565217391 0 0  3.139130434782609 0 0  3.147391304347826 0 0  3.155652173913043 0 0  3.163913043478261 0 0  3.172173913043478 0 0  3.180434782608696 0 0  3.188695652173913 0 0  3.19695652173913 0 0  3.205217391304347 0 0  3.213478260869565 0 0  3.221739130434782 0 0  3.23 0 0  3.238260869565217 0 0  3.246521739130435 0 0  3.254782608695652 0 0  3.26304347826087 0 0  3.271304347826087 0 0  3.279565217391304 0 0  3.287826086956521 0 0  3.296086956521739 0 0  3.304347826086957 0 0  3.312608695652174 0 0  3.320869565217391 0 0  3.329130434782608 0 0  3.337391304347826 0 0  3.345652173913043 0 0  3.353913043478261 0 0  3.362173913043478 0 0  3.370434782608696 0 0  3.378695652173913 0 0  3.386956521739131 0 0  3.395217391304348 0 0  3.403478260869565 0 0  3.411739130434782 0 0  3.419999999999999 0 0  3.428260869565217 0 0  3.436521739130435 0 0  3.444782608695652 0 0  3.453043478260869 0 0  3.461304347826087 0 0  3.469565217391304 0 0  3.477826086956522 0 0  3.486086956521739 0 0  3.494347826086956 0 0  3.502608695652174 0 0  3.510869565217391 0 0  3.519130434782609 0 0  3.527391304347826 0 0  3.535652173913043 0 0  3.54391304347826
[...]
<PointData  Scalars="rho_bar"> 
<DataArray  type="Float64"  Name="rho_bar"  format="ascii">9.9999984303730549e-01  9.9999983226387978e-01  9.9999984290629973e-01  1.0000001051916632e+00  1.0000005938210450e+00  1.0000007404204487e+00  9.9999960366516061e-01  9.9999757984991589e-01  9.9999826935293779e-01  1.0000049109981408e+00  1.0000103251343815e+00  9.9999507422172795e-01  9.9996516780562172e-01  9.9998527476092969e-01  1.0000744241871959e+00  1.0001183587969331e+00  1.0000292462976468e+00  9.9985644948841701e-01  9.9969867068942619e-01  9.9965274926579939e-01  9.9975811342380327e-01  9.9994612360349444e-01  1.0000947370596200e+00  1.0001187123148849e+00  1.0000452920224043e+00  9.9997585561064906e-01  9.9996238156192874e-01  9.9998276210090786e-01  1.0000024939392920e+00  1.0000097955014775e+00  1.0000077539882384e+00  1.0000020290539877e+00  9.9999820270282858e-01  9.9999823532922205e-01  9.9999973501186223e-01  1.0000003432647018e+00  1.0000000844605010e+00  9.9999992514558844e-01  9.9999998725399442e-01  1.0000000357565724e+00  9.9999996629189913e-01  9.9999997087701931e-01  1.0000003212920647e+00  9.9999909322719149e-01  1.0000006175619005e+00  1.0000043298354335e+00  9.9998646332830232e-01  9.9999692126121076e-01  1.0000724257095888e+00  9.9997717844919265e-01  9.9967169182771198e-01  9.9964848488682445e-01  1.0000294494700079e+00  1.0003610937089322e+00  1.0004731516590193e+00  1.0004889969879442e+00  1.0004421970407471e+00  1.0003539919230924e+00  1.0002823938780487e+00  1.0002487544569441e+00  1.0002308115702045e+00  1.0002085425837630e+00  1.0001876983321480e+00  1.0001802291689394e+00  1.0001892240472503e+00  1.0002086276011393e+00  1.0002286646526237e+00  1.0002437583076746e+00  1.0002550325767636e+00  1.0002659706448256e+00  1.0002776777660405e+00  1.0002892951452835e+00  1.0003012076164763e+00  1.0003156045620409e+00  1.0003343461363445e+00  1.0003569492582272e+00  1.0003805945092665e+00  1.0004029053102657e+00  1.0004240393191783e+00  1.0004448605703040e+00  1.0004641819922895e+00  1.0004783092574612e+00  1.0004826632428974e+00  1.0004747521090973e+00  1.0004561966896075e+00  1.0004314467853641e+00  1.0004049667998978e+00  1.0003795240140716e+00  1.0003560578705228e+00  1.0003347225062267e+00  1.0003157931516058e+00  1.0002996301252030e+00  1.0002864103397073e+00  1.0002761001599589e+00  1.0002685222530077e+00  1.0002634259421177e+00  1.0002605902855308e+00  1.0002599511375203e+00  1.0002617500785618e+00  1.0002671358112967e+00  1.0002789613459104e+00  1.0003011463678315e+00  1.0003365629830994e+00  1.0003857033165611e+00  1.0004467508150532e+00  1.0005157502209285e+00  1.0005876299010468e+00  1.0006594358713388e+00  1.0007330777198782e+00  1.0008136578572817e+00  1.0009039760462453e+00  1.0010002320865772e+00  1.0010933717323272e+00  1.0011748080699601e+00  1.0012408853832790e+00  1.0012929191000142e+00  1.0013347920130133e+00  1.0013713150810719e+00  1.0014079603390236e+00  1.0014500061808620e+00  1.0014997056938730e+00  1.0015538201951315e+00  1.0016049455044345e+00  1.0016466111804652e+00  1.0016789533606139e+00  1.0017090502841941e+00  1.0017433411071028e+00  1.0017806540314005e+00  1.0018142350487045e+00  1.0018387505835895e+00  1.0018538740540119e+00  1.0018623041902719e+00  1.0018664020532879e+00  1.0018672097794910e+00  1.0018656152927388e+00  1.0018635790695236e+00  1.0018635256599222e+00  1.0018666283015816e+00  1.0018723451357192e+00  1.0018792825907412e+00  1.0018861706331463e+00  1.0018923857119479e+00  1.0018977008143535e+00  1.0019018251812062e+00  1.0019046796247784e+00  1.0019066664272460e+00  1.0019080796698911e+00  1.0019088504666234e+00  1.0019091296896872e+00  1.0019094017259844e+00  1.0019100356267903e+00  1.0019111741882867e+00  1.0019127752047852e+00  1.0019144942239862e+00  1.0019158569206290e+00  1.0019167268102132e+00  1.0019174255835710e+00  1.0019184717083329e+00  1.0019202977775818e+00  1.0019226990045320e+00  1.0019243866501424e+00  1.0019236844470463e+00  1.0019193836270377e+00  1.0019107871029442e+00  1.0018984592324820e+00  1.0018854612559420e+00  1.0018769997038852e+00  1.0018786597891014e+00  1.0018946201086674e+00  1.0019230609529604e+00  1.0019527985007424e+00  1.0019683644982531e+00  1.0019534658637337e+00  1.0018831285739620e+00  1.0016916155072308e+00  1.0013205335048672e+00  1.0010984191307151e+00  1.0014793011703034e+00  1.0017446619628829e+00  1.0009465979899823e+00  9.9998707594861203e-01  9.9986569970447670e-01  1.0000239650668663e+00  1.0000098387405163e+00  9.9999232232168100e-01  1.0000056979583667e+00  1.0000014613393400e+00  9.9997617710419950e-01  1.0000049963975319e+00  1.0001044507053185e+00  9.9998269519164096e-01  9.9960982357040773e-01  9.9966577752331143e-01  1.0005906707695778e+00  1.0017169283756513e+00  1.0018582429683596e+00  1.0013183131289083e+00  1.0014531346745768e+00  1.0015213195415402e+00  1.0005083956260379e+00  9.9976693961418306e-01  9.9992579147766281e-01  1.0000543909872801e+00  9.9999795977689332e-01  9.9998703074747719e-01  9.9999668830575428e-01  1.0000704176996860e+00  9.9986284094803257e-01  9.9983852391235872e-01  1.0009048994215934e+00  1.0006144960763084e+00  9.9647772536016077e-01  9.9277506249352598e-01  9.9426801339360171e-01  9.9744622989977949e-01  9.9795423972998143e-01  9.9657597927248254e-01  9.9464559705255240e-01  9.9321874467864024e-01  9.9283302821241293e-01  9.9278346802980022e-01  9.9272824430729922e-01  9.9271083359305057e-01  9.9270454270056419e-01  9.9270388764644824e-01  9.9271197319707583e-01  9.9273719266785676e-01  9.9278138977873853e-01  9.9283232931148735e-01  9.9287208714853936e-01  9.9288879072947733e-01  9.9288341937370417e-01  9.9286797327591580e-01  9.9285098754399304e-01  9.9282963261639667e-01  9.9280145169179101e-01  9.9277169527382292e-01  9.9274662370897016e-01  9.9272816587961299e-01  9.9271460398503653e-01  9.9270405305817933e-01  9.9269670463647008e-01  9.9269398328820024e-01  9.9269725192279978e-01  9.9270759281959275e-01  9.9272581603944632e-01  9.9275207953931266e-01  9.9278546325003381e-01  9.9282399508230723e-01  9.9286534158439743e-01  9.9290793895715157e-01  9.9295264552731954e-01  9.9300587358269465e-01  9.9308348344102948e-01  9.9320364877558098e-01  9.9336472783937635e-01  9.9354071420371892e-01  9.9370655907962369e-01  9.9385391846410698e-01  9.9398415620520097e-01  9.9410047044077698e-01  9.9420454738144259e-01  9.9429662365785587e-01  9.9437886203578929e-01  9.9445585624936661e-01  9.9453344938630983e-01  9.9461994356129468e-01  9.9472734233604199e-01  9.9487020685520233e-01  9.9508981576062361e-01  9.9550612395300431e-01  9.9622681238710709e-01  9.9711989071396412e-01  9.9787819208806527e-01  9.9834889826019024e-01  9.9859128339218262e-01  9.9869568663056985e-01  9.9870456999702084e-01  9.9860576670610923e-01  9.9825265110928907e-01  9.9741061558326305e-01  9.9619669207450023e-01  9.9520012907470590e-01  9.9469666570706938e-01  9.9444941070767945e-01  9.9487556342128469e-01  9.9702810998962799e-01  1.0000653738296592e+00  1.0012064142120793e+00  1.0002908384236353e+00  9.9976840041998549e-01  9.9999769199853950e-01  1.0000380193167875e+00  9.9998822030444745e-01  9.9997863480576710e-01  1.0000644847210836e+00  9.9996227398627602e-01  9.9964348073592912e-01  1.0009515486574476e+00  1.0009256002192186e+00  9.9517645880629024e-01  9.9590471857102336e-01  1.0109276542644290e+00  1.0252665425234102e+00  1.0263617524483830e+00  1.0209610588285321e+00  1.0221309619513086e+00  1.0264856120045909e+00  1.0270709012273727e+00  1.0256214570468214e+00  1.0235038944768771e+00  1.0217197863283627e+00  1.0208997782328393e+00  1.0208666513187541e+00  1.0214296788063892e+00  1.0226416297800114e+00  1.0242896608063625e+00  1.0257863375502640e+00  1.0266580092317550e+00  1.0269425854685634e+00  1.0269735547053784e+00  1.0269524384816062e+00  1.0268938949726192e+00  1.0267565450307217e+00  1.0264914246047667e+00  1.0260840312094914e+00  1.0255964602121639e+00  1.0251370403917044e+00  1.0248012494251437e+00  1.0246409044146547e+00  1.0246207038045190e+00  1.0245999038738356e+00  1.0243936212124316e+00  1.0238592178967183e+00  1.0229878824318808e+00  1.0219534083556427e+00  1.0209950579016245e+00  1.0202271649550714e+00  1.0196095910084380e+00  1.0190521265789638e+00  1.0184727510870022e+00  1.0177878870518311e+00  1.0168971840200753e+00  1.0157018601922989e+00  1.0141778947396798e+00  1.0124464581186432e+00  1.0107254807791763e+00  1.0091806620892392e+00  1.0078543898235153e+00  1.0067266403885882e+00  1.0057779076652000e+00  1.0049994918308733e+00  1.0043901391582122e+00  1.0039460005865311e+00  1.0036398252574688e+00  1.0033794787403836e+00  1.0029497154510953e+00  1.0021069567393242e+00  1.0009324355922793e+00  9.9994236530817382e-01  9.9965822834074758e-01  1.0002335160694242e+00  1.0013695728910628e+00  1.0024628383419207e+00  1.0031192465411036e+00  1.0034190965448930e+00  1.0037694565136843e+00  1.0042608716534334e+00  1.0049932366541996e+00  1.0040253161826056e+00  9.9879630581733592e-01  9.9540477219819568e-01  9.9831055763593812e-01  1.0005709203110671e+00  1.0000114578149346e+00  9.9992498865339785e-01  1.0000479439662846e+00  9.9999775488695608e-01  9.9996963552690621e-01  1.0003111670741762e+00  9.9882051279900230e-01  1.0009667861130778e+00  1.0274134257841512e+00  7.3240928073193889e-01  -6.6734173201581454e-02  -8.1014003295786802e-03  8.2881356225659591e-03  -2.3973031098002452e-03  -1.0054718547246802e-04  3.0763896423726479e-04  -9.6686806285028139e-05  2.2516020573705997e-07  1.2663338752570893e-05  -6.0531626644784660e-06  1.3917033415458339e-06  3.5430535398266397e-08  -1.9143849400671992e-07  1.0427147771372842e-07  -3.8299685182801397e-08  1.0924069522301831e-08  -2.4001072273064983e-09  3.2164211046521478e-10  3.7896440730400099e-11  -5.0260685238747373e-11  2.5301472109319808e-11  -1.0067598485257632e-11  3.5517590245537200e-12  -1.1503343222172027e-12  3.4551406526940739e-13  -9.6303877638208333e-14  2.4822038172785745e-14  -5.8732170420832990e-15  1.2534083334588112e-15  -2.2797876177895967e-16  2.7057116767733447e-17  3.6245371792716882e-18  -4.5688795406473019e-18  2.4177536212200401e-18  -1.0257481766406501e-18  3.8451646668220120e-19  -1.3124603130554157e-19  4.1305263307337624e-20  -1.2049585741950818e-20  3.2530803155891564e-21  -8.0134174720413898e-22  1.7217832026712924e-22  -2.7577585292595676e-23  3.3779560153582787e-25  2.3524754993380852e-24  -1.4098607790800710e-24  6.0614756791675095e-25  -2.2307518708724466e-25  7.3933920049192504e-26  -2.2464797824526190e-26  6.2668882847349645e-27  -1.5806791446322456e-27  3.4336133895761233e-28  -5.4212254204527422e-29  -1.5322222308325250e-31  5.1102054114184414e-30  -2.9625215884771234e-30  1.2510746157901000e-30  -4.5357961471248739e-31  1.4808198883190320e-31  -4.4206880549170805e-32  1.2044164828078712e-32  -2.9321923297975885e-33  5.9843561098710108e-34  -7.9584776016494172e-35  -8.1252552143763287e-36  1.1804138901717644e-35  -6.0499966652095232e-36  2.4248413471961634e-36  -8.5427985662301704e-37  2.7705520768324411e-37  -8.4184407694733099e-38  2.3325743663559524e-38  -6.6645267862918887e-39  1.3216146869993351e-39  -4.0591058992334835e-40  1.4836054547443451e-40  1.0000002238719523e+00  1.0000002858574644e+00  1.0000003743790851e+00  1.0000001281742368e+00  9.9999933788709261e-01  9.9999845784370722e-01  9.9999922215183557e-01  1.0000028067174911e+00  1.0000055172237035e+00  9.9999842929344551e-01  9.9998254046846358e-01  9.9998649151845009e-01  1.0000405393463558e+00  1.0000737827454416e+00  9.9995059697535138e-01  9.9977431368412129e-01  9.9981877468265001e-01  1.0001060822817247e+00  1.0004606107594800e+00  1.0006887777951257e+00  1.0006245823508531e+00  1.0003016409430823e+00  9.9993356300471370e-01  9.9974980785722833e-01  9.9982404065709829e-01  9.9999279931291496e-01  1.0000757970629632e+00  1.0000577493954645e+00  1.0000115265511931e+00  9.9998471282972889e-01  9.9998077670206453e-01  9.9999004905547983e-01  1.0000008854370157e+00  1.0000043742628846e+00  1.0000019508920939e+00  9.9999955477535085e-01  9.9999950569435392e-01  1.0000001067189892e+00  1.0000000819869901e+00  9.9999997579993682e-01  9.9999994015739080e-01  1.0000001576501067e+00  9.9999978592684569e-01  9.9999971814484589e-01  1.0000025327465882e+00  9.9999390303639024e-01  9.9999956701220138e-01  1.0000404174545612e+00  9.9993937424285251e-01  9.9985629877317028e-01  1.0003401071105946e+00  1.0008319857382526e+00  1.0003719889524065e+00  9.9953487333968238e-01  9.9913054496899778e-01  9.9902495470549713e-01  9.9905037998077761e-01  9.9920153444145587e-01  9.9937419432986341e-01  9.9947725084596339e-01  9.9951988305907224e-01  9.9955903370995403e-01  9.9960608358757164e-01  9.9963643553962678e-01  9.9963441576384737e-01  9.9960348370935537e-01  9.9956168913728316e-01  9.9952612395043128e-01  9.9950075251184511e-01  9.9947928528160612e-01  9.9945644761250929e-01  9.9943288619430803e-01  9.9940978567857719e-01  9.9938414161832334e-01  9.9935126781913741e-01  9.9930941686168739e-01  9.9926226504082005e-01  9.9921602414712785e-01  9.9917294300784354e-01  9.9913105609432951e-01  9.9909025153901776e-01  9.9905561757022265e-01  9.9903603203979241e-01  9.9903944754822782e-01  9.9906686615822193e-01  9.9911144432571852e-01  9.9916363357343019e-01  9.9921598062714978e-01  9.9926493499541735e-01  9.9930976813285866e-01  9.9935013883739210e-01  9.9938530539207016e-01  9.9941470248665798e-01  9.9943820135163142e-01  9.9945603187212817e-01  9.9946863831780441e-01  9.9947652758656702e-01  9.9948001301701306e-01  9.9947896338837272e-01  9.9947224290152703e-01  9.9945599395234108e-01  9.9942298092035664e-01  9.9936581781163636e-01  9.9928106839686248e-01  9.9917016475437004e-01  9.9903885603171938e-01  9.9889670294743627e-01  9.9875281430328200e-01  9.9860852427223279e-01  9.9845569570381565e-01  9.9828480384126828e-01  9.9809632304805940e-01  9.9790430680291442e-01  9.9772805792182928e-01  9.9758038931048276e-01  9.9746309095468666e-01  9.9737031304711643e-01  9.9729319382329218e-01  9.9722148475746830e-01  9.9714397359448814e-01  9.9705217484647279e-01  9.9694679488390459e-01  9.9683941893153749e-01  9.9674552886735424e-01  9.9667268815871746e-01  9.9661262102710368e-01  9.9654908088644856e-01  9.9647604363443776e-01  9.9640320619345002e-01  9.9634438635293388e-01  9.9630530734492984e-01  9.9628254310609687e-01  9.9627040626942964e-01  9.9626563058581763e-01  9.9626673140268829e-01  9.9627102829457936e-01  9.9627366402051165e-01  9.9627065531416192e-01  9.9626152438326532e-01  9.9624848476340699e-01  9.9623440957992793e-01  9.9622124436928094e-01  9.9620966277111567e-01  9.9620012933923963e-01  9.9619320489756680e-01  9.9618851042386347e-01  9.9618511064705384e-01  9.9618289189632858e-01  9.9618195202400450e-01  9.9618153281062238e-01  9.9618067935317767e-01  9.9617892580930845e-01  9.9617614621003447e-01  9.9617269396946617e-01  9.9616950729585996e-01  9.9616731142514481e-01  9.9616586689210862e-01  9.9616425709789769e-01  9.9616146609651790e-01  9.9615705521429576e-01  9.9615250555823731e-01  9.9615114276553973e-01  9.9615591875472120e-01  9.9616869458916357e-01  9.9619002267223555e-01  9.9621647545086756e-01  9.9623941131311466e-01  9.9624752905269964e-01  9.9623068167371176e-01  9.9618459762924683e-01  9.9612251020715892e-01  9.9607338156499847e-01  9.9606839275799597e-01  9.9614546311468799e-01  9.9638261047793530e-01  9.9694071196094958e-01  9.9770267020546888e-01  9.9760215506479322e-01  9.9653840087748968e-01  9.9701466365370983e-01  9.9927967342058754e-01  1.0003529498863393e+00  1.0000444304924827e+00  9.9994590508441350e-01  1.0000164349997565e+00  9.9999882968575093e-01  9.9998718460862956e-01  1.0000174938420594e+00  1.0000507459768984e+00  9.9989395092573896e-01  9.9979885116371026e-01  1.0003959261234965e+00  1.0009503668077955e+00  9.9995205345226912e-01  9.9758458128950711e-01  9.9604017671456191e-01  9.9686747362807371e-01  9.9752189816372527e-01  9.9669888147731056e-01  9.9775639474775402e-01  1.0000742887962617e+00  1.0004077988093318e+00  9.9990416145693950e-01  9.9997078995393429e-01  1.0000146198479993e+00  1.0000269638682371e+00  9.9995424699090973e-01  9.9990473528313117e-01  1.0005522710667412e+00  9.9954828701136289e-01  9.9751050472951197e-01  1.0019546946506779e+00  1.0119173499839140e+00  1.0143845931586186e+00  1.0077007204639168e+00  1.0038494632749448e+00  1.0052767129489728e+00  1.0086954308423048e+00  1.0124704160244673e+00  1.0141340373071219e+00  1.0143657717014110e+00  1.0145031879493251e+00  1.0145649283173446e+00  1.0145861773995628e+00  1.0145928338789876e+00  1.0145872452328395e+00  1.0145562950187741e+00  1.0144854454897392e+00  1.0143856241843650e+00  1.0142906494175254e+00  1.0142325291163650e+00  1.0142233454340741e+00  1.0142480144421089e+00  1.0142808622712869e+00  1.0143173721505747e+00  1.0143675103823351e+00  1.0144274705971750e+00  1.0144834058809675e+00  1.0145267924153953e+00  1.0145580960987546e+00  1.0145819824772320e+00  1.0146002040374686e+00  1.0146106638799242e+00  1.0146104079758327e+00  1.0145970482018631e+00  1.0145686393582269e+00  1.0145240763439725e+00  1.0144640453933402e+00  1.0143915275457402e+00  1.0143110847901144e+00  1.0142269234369561e+00  1.0141402661357226e+00  1.0140448910123876e+00  1.0139194237553453e+00  1.0137253647424214e+00  1.0134395832906247e+00  1.0130940517015881e+00  1.0127481622277470e+00  1.0124348441994604e+00  1.0121580427657975e+00  1.0119122941661489e+00  1.0116919427181894e+00  1.0114958680881556e+00  1.0113225562296531e+00  1.0111646177093596e+00  1.0110116578314823e+00  1.0108500941042458e+00  1.0106596793506861e+00  1.0104132184329306e+00  1.0100675819531211e+00  1.0094748053608960e+00  1.0083485087062174e+00  1.0066580467989688e+00  1.0049297788215434e+00  1.0037012504271761e+00  1.0030173170521204e+00  1.0026865403259428e+00  1.0025784730877372e+00  1.0026570902528518e+00  1.0030469990756585e+00  1.0041868564517789e+00  1.0063566252065284e+00  1.0087479262409771e+00  1.0102050076441116e+00  1.0108802253434799e+00  1.0109854279692958e+00  1.0086491214181881e+00  1.0027960799874471e+00  9.9789053642271242e-01  9.9831211481439430e-01  1.0003279625986599e+00  1.0002225709302881e+00  9.9988114320569887e-01  1.0000118426924363e+00  1.0000151693329327e+00  1.0000225737369930e+00  9.9981351770372684e-01  1.0004456776089310e+00  1.0001669688614132e+00  9.9669384468866307e-01  1.0024653509218033e+00  1.0135901132641956e+00  9.9564367448736213e-01  9.6098773217212574e-01  9.4456793690122975e-01  9.5323300507763997e-01  9.5963746123686056e-01  9.5024631749243949e-01  9.4569591490416616e-01  9.4703784688782111e-01  9.5081038411950025e-01  9.5500731076223100e-01  9.5763149389779934e-01  9.5837595258010655e-01  9.5785936494400270e-01  9.5609745808743329e-01  9.5311798276614501e-01  9.4979905114961316e-01  9.4736810118051584e-01  9.4629340961478392e-01  9.4606305201092411e-01  9.4606877189781424e-01  9.4614018781831732e-01  9.4632363550760801e-01  9.4671406961148141e-01  9.4739136845406513e-01  9.4831259550895530e-01  9.4928748805392360e-01  9.5010253595228233e-01  9.5060474336908363e-01  9.5076156677209722e-01  9.5075591767008139e-01  9.5093720819992023e-01  9.5165236727749103e-01  9.5307922721018334e-01  9.5505081236797940e-01  9.5709749239832809e-01  9.5882704724142942e-01  9.6018913343831280e-01  9.6134244776934752e-01  9.6246000144603294e-01  9.6370173847755358e-01  9.6524963281340681e-01  9.6731394150429384e-01  9.7004293853892365e-01  9.7334921808655772e-01  9.7685971979807507e-01  9.8015027776044616e-01  9.8301780067048150e-01  9.8546537862005268e-01  9.8753855146981773e-01  9.8926465942484276e-01  9.9065284167082235e-01  9.9170399464583003e-01  9.9244302138673035e-01  9.9297476317739686e-01  9.9359203024716181e-01  9.9481560565969041e-01  9.9692244860064261e-01  9.9925558359876221e-01  1.0006219885101946e+00  1.0003153857787543e+00  9.9847016539705913e-01  9.9607293872407210e-01  9.9429413653407483e-01  9.9340715639919830e-01  9.9289120243872109e-01 