<?xml version="1.0"?>
<VTKFile type="UnstructuredGrid"  version="0.1"  >
<UnstructuredGrid>
<Piece  NumberOfPoints="28121" NumberOfCells="55200">
<Points>
<DataArray  type="Float64"  NumberOfComponents="3"  format="ascii">0 0 0  0.008260869565217391 0 0  0.01652173913043478 0 0  0.02478260869565217 0 0  0.03304347826086956 0 0  0.04130434782608695 0 0  0.04956521739130434 0 0  0.05782608695652174 0 0  0.06608695652173913 0 0  0.07434782608695652 0 0  0.08260869565217391 0 0  0.0908695652173913 0 0  0.09913043478260869 0 0  0.1073913043478261 0 0  0.1156521739130435 0 0  0.1239130434782609 0 0  0.1321739130434783 0 0  0.1404347826086956 0 0  0.148695652173913 0 0  0.1569565217391304 0 0  0.1652173913043478 0 0  0.1734782608695652 0 0  0.1817391304347826 0 0  0.19 0 0  0.1982608695652174 0 0  0.2065217391304348 0 0  0.2147826086956522 0 0  0.2230434782608696 0 0  0.2313043478260869 0 0  0.2395652173913043 0 0  0.2478260869565218 0 0  0.2560869565217391 0 0  0.2643478260869565 0 0  0.2726086956521739 0 0  0.2808695652173913 0 0  0.2891304347826087 0 0  0.2973913043478261 0 0  0.3056521739130434 0 0  0.3139130434782609 0 0  0.3221739130434783 0 0  0.3304347826086956 0 0  0.338695652173913 0 0  0.3469565217391304 0 0  0.3552173913043478 0 0  0.3634782608695652 0 0  0.3717391304347826 0 0  0.3799999999999999 0 0  0.3882608695652174 0 0  0.3965217391304348 0 0  0.4047826086956521 0 0  0.4130434782608696 0 0  0.4213043478260869 0 0  0.4295652173913043 0 0  0.4378260869565217 0 0  0.4460869565217391 0 0  0.4543478260869565 0 0  0.4626086956521739 0 0  0.4708695652173913 0 0  0.4791304347826086 0 0  0.4873913043478261 0 0  0.4956521739130435 0 0  0.5039130434782608 0 0  0.5121739130434783 0 0  0.5204347826086956 0 0  0.528695652173913 0 0  0.5369565217391304 0 0  0.5452173913043478 0 0  0.5534782608695652 0 0  0.5617391304347825 0 0  0.57 0 0  0.5782608695652174 0 0  0.5865217391304348 0 0  0.5947826086956521 0 0  0.6030434782608696 0 0  0.6113043478260869 0 0  0.6195652173913043 0 0  0.6278260869565218 0 0  0.6360869565217391 0 0  0.6443478260869565 0 0  0.6526086956521739 0 0  0.6608695652173913 0 0  0.6691304347826087 0 0  0.677391304347826 0 0  0.6856521739130435 0 0  0.6939130434782609 0 0  0.7021739130434783 0 0  0.7104347826086956 0 0  0.718695652173913 0 0  0.7269565217391304 0 0  0.7352173913043478 0 0  0.7434782608695653 0 0  0.7517391304347827 0 0  0.7599999999999999 0 0  0.7682608695652173 0 0  0.7765217391304348 0 0  0.7847826086956522 0 0  0.7930434782608695 0 0  0.8013043478260868 0 0  0.8095652173913043 0 0  0.8178260869565217 0 0  0.8260869565217391 0 0  0.8343478260869565 0 0  0.8426086956521739 0 0  0.8508695652173912 0 0  0.8591304347826086 0 0  0.8673913043478261 0 0  0.8756521739130434 0 0  0.8839130434782608 0 0  0.8921739130434783 0 0  0.9004347826086956 0 0  0.908695652173913 0 0  0.9169565217391303 0 0  0.9252173913043478 0 0  0.9334782608695652 0 0  0.9417391304347826 0 0  0.95 0 0  0.9582608695652173 0 0  0.9665217391304347 0 0  0.9747826086956521 0 0  0.9830434782608696 0 0  0.991304347826087 0 0  0.9995652173913042 0 0  1.007826086956522 0 0  1.016086956521739 0 0  1.024347826086957 0 0  1.032608695652174 0 0  1.040869565217391 0 0  1.049130434782609 0 0  1.057391304347826 0 0  1.065652173913043 0 0  1.073913043478261 0 0  1.082173913043478 0 0  1.090434782608696 0 0  1.098695652173913 0 0  1.10695652173913 0 0  1.115217391304348 0 0  1.123478260869565 0 0  1.131739130434783 0 0  1.14 0 0  1.148260869565217 0 0  1.156521739130435 0 0  1.164782608695652 0 0  1.17304347826087 0 0  1.181304347826087 0 0  1.189565217391304 0 0  1.197826086956522 0 0  1.206086956521739 0 0  1.214347826086956 0 0  1.222608695652174 0 0  1.230869565217391 0 0  1.239130434782609 0 0  1.247391304347826 0 0  1.255652173913044 0 0  1.263913043478261 0 0  1.272173913043478 0 0  1.280434782608696 0 0  1.288695652173913 0 0  1.296956521739131 0 0  1.305217391304348 0 0  1.313478260869565 0 0  1.321739130434783 0 0  1.33 0 0  1.338260869565217 0 0  1.346521739130435 0 0  1.354782608695652 0 0  1.36304347826087 0 0  1.371304347826087 0 0  1.379565217391304 0 0  1.387826086956522 0 0  1.396086956521739 0 0  1.404347826086957 0 0  1.412608695652174 0 0  1.420869565217391 0 0  1.429130434782609 0 0  1.437391304347826 0 0  1.445652173913043 0 0  1.453913043478261 0 0  1.462173913043478 0 0  1.470434782608696 0 0  1.478695652173913 0 0  1.486956521739131 0 0  1.495217391304348 0 0  1.503478260869565 0 0  1.511739130434782 0 0  1.52 0 0  1.528260869565217 0 0  1.536521739130435 0 0  1.544782608695652 0 0  1.55304347826087 0 0  1.561304347826087 0 0  1.569565217391304 0 0  1.577826086956522 0 0  1.586086956521739 0 0  1.594347826086957 0 0  1.602608695652174 0 0  1.610869565217391 0 0  1.619130434782609 0 0  1.627391304347826 0 0  1.635652173913043 0 0  1.643913043478261 0 0  1.652173913043478 0 0  1.660434782608696 0 0  1.668695652173913 0 0  1.67695652173913 0 0  1.685217391304348 0 0  1.693478260869565 0 0  1.701739130434782 0 0  1.71 0 0  1.718260869565217 0 0  1.726521739130435 0 0  1.734782608695652 0 0  1.743043478260869 0 0  1.751304347826087 0 0  1.759565217391304 0 0  1.767826086956522 0 0  1.776086956521739 0 0  1.784347826086957 0 0  1.792608695652174 0 0  1.800869565217391 0 0  1.809130434782608 0 0  1.817391304347826 0 0  1.825652173913043 0 0  1.833913043478261 0 0  1.842173913043478 0 0  1.850434782608696 0 0  1.858695652173913 0 0  1.86695652173913 0 0  1.875217391304348 0 0  1.883478260869565 0 0  1.891739130434782 0 0  1.9 0 0  1.908260869565217 0 0  1.916521739130435 0 0  1.924782608695652 0 0  1.933043478260869 0 0  1.941304347826087 0 0  1.949565217391304 0 0  1.957826086956522 0 0  1.966086956521739 0 0  1.974347826086956 0 0  1.982608695652174 0 0  1.990869565217391 0 0  1.999130434782608 0 0  2.007391304347826 0 0  2.015652173913043 0 0  2.023913043478261 0 0  2.032173913043478 0 0  2.040434782608695 0 0  2.048695652173913 0 0  2.05695652173913 0 0  2.065217391304348 0 0  2.073478260869565 0 0  2.081739130434782 0 0  2.09 0 0  2.098260869565217 0 0  2.106521739130435 0 0  2.114782608695652 0 0  2.12304347826087 0 0  2.131304347826087 0 0  2.139565217391304 0 0  2.147826086956522 0 0  2.156086956521739 0 0  2.164347826086956 0 0  2.172608695652174 0 0  2.180869565217391 0 0  2.189130434782609 0 0  2.197391304347826 0 0  2.205652173913043 0 0  2.213913043478261 0 0  2.222173913043478 0 0  2.230434782608695 0 0  2.238695652173913 0 0  2.24695652173913 0 0  2.255217391304348 0 0  2.263478260869565 0 0  2.271739130434783 0 0  2.28 0 0  2.288260869565217 0 0  2.296521739130434 0 0  2.304782608695652 0 0  2.31304347826087 0 0  2.321304347826087 0 0  2.329565217391304 0 0  2.337826086956521 0 0  2.346086956521739 0 0  2.354347826086956 0 0  2.362608695652174 0 0  2.370869565217391 0 0  2.379130434782609 0 0  2.387391304347826 0 0  2.395652173913044 0 0  2.403913043478261 0 0  2.412173913043478 0 0  2.420434782608695 0 0  2.428695652173913 0 0  2.43695652173913 0 0  2.445217391304348 0 0  2.453478260869565 0 0  2.461739130434782 0 0  2.47 0 0  2.478260869565217 0 0  2.486521739130435 0 0  2.494782608695652 0 0  2.503043478260869 0 0  2.511304347826087 0 0  2.519565217391305 0 0  2.527826086956522 0 0  2.536086956521739 0 0  2.544347826086956 0 0  2.552608695652174 0 0  2.560869565217391 0 0  2.569130434782608 0 0  2.577391304347826 0 0  2.585652173913043 0 0  2.593913043478261 0 0  2.602173913043478 0 0  2.610434782608696 0 0  2.618695652173913 0 0  2.62695652173913 0 0  2.635217391304348 0 0  2.643478260869565 0 0  2.651739130434783 0 0  2.66 0 0  2.668260869565217 0 0  2.676521739130435 0 0  2.684782608695652 0 0  2.693043478260869 0 0  2.701304347826087 0 0  2.709565217391304 0 0  2.717826086956522 0 0  2.726086956521739 0 0  2.734347826086956 0 0  2.742608695652174 0 0  2.750869565217391 0 0  2.759130434782609 0 0  2.767391304347826 0 0  2.775652173913044 0 0  2.783913043478261 0 0  2.792173913043478 0 0  2.800434782608696 0 0  2.808695652173913 0 0  2.81695652173913 0 0  2.825217391304347 0 0  2.833478260869565 0 0  2.841739130434783 0 0  2.85 0 0  2.858260869565217 0 0  2.866521739130435 0 0  2.874782608695652 0 0  2.88304347826087 0 0  2.891304347826087 0 0  2.899565217391304 0 0  2.907826086956522 0 0  2.916086956521739 0 0  2.924347826086957 0 0  2.932608695652174 0 0  2.940869565217391 0 0  2.949130434782608 0 0  2.957391304347826 0 0  2.965652173913043 0 0  2.973913043478261 0 0  2.982173913043478 0 0  2.990434782608696 0 0  2.998695652173913 0 0  3.006956521739131 0 0  3.015217391304348 0 0  3.023478260869565 0 0  3.031739130434782 0 0  3.04 0 0  3.048260869565218 0 0  3.056521739130435 0 0  3.064782608695652 0 0  3.073043478260869 0 0  3.081304347826087 0 0  3.089565217391304 0 0  3.097826086956522 0 0  3.106086956521739 0 0  3.114347826086956 0 0  3.122608695652174 0 0  3.130869565217391 0 0  3.139130434782609 0 0  3.147391304347826 0 0  3.155652173913043 0 0  3.163913043478261 0 0  3.172173913043478 0 0  3.180434782608696 0 0  3.188695652173913 0 0  3.19695652173913 0 0  3.205217391304347 0 0  3.213478260869565 0 0  3.221739130434782 0 0  3.23 0 0  3.238260869565217 0 0  3.246521739130435 0 0  3.254782608695652 0 0  3.26304347826087 0 0  3.271304347826087 0 0  3.279565217391304 0 0  3.287826086956521 0 0  3.296086956521739 0 0  3.304347826086957 0 0  3.312608695652174 0 0  3.320869565217391 0 0  3.329130434782608 0 0  3.337391304347826 0 0  3.345652173913043 0 0  3.353913043478261 0 0  3.362173913043478 0 0  3.370434782608696 0 0  3.378695652173913 0 0  3.386956521739131 0 0  3.395217391304348 0 0  3.403478260869565 0 0  3.411739130434782 0 0  3.419999999999999 0 0  3.428260869565217 0 0  3.436521739130435 0 0  3.444782608695652 0 0  3.453043478260869 0 0  3.461304347826087 0 0  3.469565217391304 0 0  3.477826086956522 0 0  3.486086956521739 0 0  3.494347826086956 0 0  3.502608695652174 0 0  3.510869565217391 0 0  3.519130434782609 0 0  3.527391304347826 0 0  3.535652173913043 0 0  3.54391304347826
[...]
<PointData  Scalars="rho_bar"> 
<DataArray  type="Float64"  Name="rho_bar"  format="ascii">9.9917648573826756e-01  9.9916201646029912e-01  9.9913776751111105e-01  9.9910013698957256e-01  9.9904681320636501e-01  9.9897520836183162e-01  9.9888185315987377e-01  9.9876187309058484e-01  9.9860866165199913e-01  9.9841384592958748e-01  9.9816730903361295e-01  9.9785547194281188e-01  9.9745662867885809e-01  9.9693807295825110e-01  9.9626367797501758e-01  9.9540419169529748e-01  9.9432962697742611e-01  9.9299523050213467e-01  9.9136510644617637e-01  9.8947218591213204e-01  9.8745865390896115e-01  9.8556304844404174e-01  9.8406197515252603e-01  9.8318297575970925e-01  9.8302658788967301e-01  9.8354422839557010e-01  9.8457987891490972e-01  9.8593700440002585e-01  9.8743345224840240e-01  9.8893012630770538e-01  9.9033782522828095e-01  9.9161012143625427e-01  9.9273116179752907e-01  9.9370329517609368e-01  9.9453761330488832e-01  9.9524769066163621e-01  9.9584651629163157e-01  9.9634517173928572e-01  9.9675231381306495e-01  9.9707344928259412e-01  9.9731031989164143e-01  9.9745992626108237e-01  9.9751274602767404e-01  9.9744903990949940e-01  9.9723224676698019e-01  9.9679960698055925e-01  9.9605762236132722e-01  9.9490772462857979e-01  9.9330594121534221e-01  9.9123955908182448e-01  9.8859774193090655e-01  9.8520904052377700e-01  9.8102444193470451e-01  9.7621202462994761e-01  9.7115311827058359e-01  9.6634446431733478e-01  9.6224711443581923e-01  9.5915506188065014e-01  9.5714672420882452e-01  9.5612196797686522e-01  9.5587552274955245e-01  9.5616539419724289e-01  9.5676657337854676e-01  9.5750212335801499e-01  9.5824932142274344e-01  9.5893034376316200e-01  9.5950212305631322e-01  9.5994736758960975e-01  9.6026823845321108e-01  9.6047948375477843e-01  9.6060297671110062e-01  9.6066134419294591e-01  9.6067370260175311e-01  9.6065244513760972e-01  9.6060359462341682e-01  9.6052830944074208e-01  9.6042606790206819e-01  9.6029591022365546e-01  9.6013794922981155e-01  9.5995344778325997e-01  9.5974617036480736e-01  9.5952236582003081e-01  9.5929080457563054e-01  9.5906047861154575e-01  9.5883887771688847e-01  9.5863005193934192e-01  9.5843517502071440e-01  9.5825273047144732e-01  9.5808035431583194e-01  9.5791554987505556e-01  9.5775712953554137e-01  9.5760508745759609e-01  9.5746113610121031e-01  9.5732768665222689e-01  9.5720780841054709e-01  9.5710375192128549e-01  9.5701694905745949e-01  9.5694712472319288e-01  9.5689268086386847e-01  9.5685008145864026e-01  9.5681448427429372e-01  9.5677936240247907e-01  9.5673783831432191e-01  9.5668311091883818e-01  9.5661037864021026e-01  9.5651733092615043e-01  9.5640491418238460e-01  9.5627600243965871e-01  9.5613470052158123e-01  9.5598467062393511e-01  9.5582927607778312e-01  9.5567076242608340e-01  9.5551107253058076e-01  9.5535160737781022e-01  9.5519391075492333e-01  9.5503866732159148e-01  9.5488567645336730e-01  9.5473306076972742e-01  9.5457834304727307e-01  9.5441844528370057e-01  9.5425115445618836e-01  9.5407513501273489e-01  9.5389063275326558e-01  9.5369833758132427e-01  9.5349889053976011e-01  9.5329120783568344e-01  9.5307325404644916e-01  9.5284261387102465e-01  9.5259882589297140e-01  9.5234421823888604e-01  9.5208577289209517e-01  9.5183414412837519e-01  9.5160147637224124e-01  9.5139671257111758e-01  9.5122397814166049e-01  9.5108203038740946e-01  9.5096669770512521e-01  9.5087183607919079e-01  9.5079060876838439e-01  9.5071465848258629e-01  9.5063492184647047e-01  9.5054327279055673e-01  9.5043666907369107e-01  9.5031704718567922e-01  9.5019005326382255e-01  9.5006101319392444e-01  9.4993192091010681e-01  9.4979839627285967e-01  9.4965103933822637e-01  9.4947765969278997e-01  9.4926702718213163e-01  9.4901064896866461e-01  9.4870608015076496e-01  9.4835848829116975e-01  9.4798205069983721e-01  9.4759648917429062e-01  9.4722211439196069e-01  9.4687442527187637e-01  9.4656261851169154e-01  9.4628941761060792e-01  9.4605468788200020e-01  9.4585648235545872e-01  9.4568942983510051e-01  9.4553923922512384e-01  9.4537816492648274e-01  9.4516139421163869e-01  9.4482938778572001e-01  9.4431260322227184e-01  9.4353964510797106e-01  9.4244496820101831e-01  9.4097992868112401e-01  9.3912600992309747e-01  9.3691548504432343e-01  9.3445817875328863e-01  9.3198055737316898e-01  9.2987261013851907e-01  9.2872046501774486e-01  9.2927360092248745e-01  9.3230046732509397e-01  9.3824704215182075e-01  9.4678851941084108e-01  9.5673429195606796e-01  9.6647905864523875e-01  9.7471504269399567e-01  9.8087859282282819e-01  9.8506491849894173e-01  9.8765988902306368e-01  9.8903747988043278e-01  9.8944797470790691e-01  9.8901068532309666e-01  9.8768179139711021e-01  9.8522594765054694e-01  9.8131315284643095e-01  9.7563361218566280e-01  9.6792317226916535e-01  9.5818282866625881e-01  9.4725346156139412e-01  9.3721268874474617e-01  9.3085532587267905e-01  9.3023254332060767e-01  9.3533846105021623e-01  9.4412640409181181e-01  9.5383001647895571e-01  9.6235697617048421e-01  9.6873848341723989e-01  9.7278943722440481e-01  9.7461808597038113e-01  9.7425273583518657e-01  9.7142467383112907e-01  9.6549630567133338e-01  9.5548770716462916e-01  9.4033269349044690e-01  9.1975325709311151e-01  8.9531140636494622e-01  8.7035253675610935e-01  8.4868976981075128e-01  8.3307359794856040e-01  8.2440376086606737e-01  8.2184866159571723e-01  8.2365783904148671e-01  8.2802513123245303e-01  8.3353775164706134e-01  8.3926100611805565e-01  8.4463926614221552e-01  8.4937641192368729e-01  8.5333976647523069e-01  8.5650086826512539e-01  8.5889958290167689e-01  8.6062522934787333e-01  8.6179588000175467e-01  8.6254442932645936e-01  8.6300623542905885e-01  8.6331236622497354e-01  8.6357976876851261e-01  8.6390759557552887e-01  8.6437699249396938e-01  8.6504121148259550e-01  8.6590435904657637e-01  8.6692213906066462e-01  8.6802588443149931e-01  8.6915793521976781e-01  8.7028081898376597e-01  8.7137365676772627e-01  8.7242389079152616e-01  8.7342571453532314e-01  8.7437718401564213e-01  8.7528157200034262e-01  8.7614512609465611e-01  8.7697850720473214e-01  8.7779490616991551e-01  8.7861107029820051e-01  8.7944487487628242e-01  8.8031548416738947e-01  8.8123903621090860e-01  8.8222638544978282e-01  8.8327612083489193e-01  8.8437118762613365e-01  8.8547738400739917e-01  8.8655468936985149e-01  8.8756928315310657e-01  8.8850219519193518e-01  8.8935022920346918e-01  8.9012791463015073e-01  8.9086311367733817e-01  8.9159433513117992e-01  8.9236396156618158e-01  8.9321208471849700e-01  8.9416636759748824e-01  8.9523613504045763e-01  8.9640523510507064e-01  8.9763005026531295e-01  8.9883822320544049e-01  8.9993644952005492e-01  9.0082219860874035e-01  9.0139925732212078e-01  9.0158520852247093e-01  9.0131798787635775e-01  9.0055978274248094e-01  8.9930381422509453e-01  8.9757802905743522e-01  8.9545569535993108e-01  8.9307481788393939e-01  8.9068090982940451e-01  8.8868975749344903e-01  8.8774622481951582e-01  8.8870842613005407e-01  8.9242527723800735e-01  8.9925347126481925e-01  9.0877984078020502e-01  9.1993078847556331e-01  9.3124149421012925e-01  9.4141778866539383e-01  9.4972672440735040e-01  9.5593551121993370e-01  9.6008684156322222e-01  9.6229351741106683e-01  9.6260216997071590e-01  9.6090485161037686e-01  9.5687572724986758e-01  9.4991855059509966e-01  9.3912556590160223e-01  9.2327639318547283e-01  9.0107806867146378e-01  8.7191069035426338e-01  8.3691492020088243e-01  7.9974053635896836e-01  7.6566737376113203e-01  7.3869953989015713e-01  7.1999607160321932e-01  7.0874646438037070e-01  7.0350341539130812e-01  7.0266738733155887e-01  7.0473107405277313e-01  7.0842634337504828e-01  7.1274855376385537e-01  7.1692750512627268e-01  7.2041357745191092e-01  7.2287974618953721e-01  7.2423351651922840e-01  7.2458675378635595e-01  7.2418879375477285e-01  7.2332711903604829e-01  7.2225139162536012e-01  7.2115156972894123e-01  7.2017967788913062e-01  7.1944831457947045e-01  7.1901422437352458e-01  7.1887095251472322e-01  7.1898536091620424e-01  7.1933808776586750e-01  7.1993378187656487e-01  7.2077879990731342e-01  7.2186982587396697e-01  7.2318772072045434e-01  7.2470655476744927e-01  7.2639271595369059e-01  7.2821126841398143e-01  7.3012790199921529e-01  7.3211673958509560e-01  7.3416137746065546e-01  7.3625932363569557e-01  7.3841442419093717e-01  7.4062788336206720e-01  7.4288275027654760e-01  7.4514482399570048e-01  7.4736516379567375e-01  7.4949550946499321e-01  7.5150162946292243e-01  7.5338224654104780e-01  7.5518064831235043e-01  7.5699132701576310e-01  7.5893974297835221e-01  7.6115377974215037e-01  7.6372664240154808e-01  7.6669041992694464e-01  7.6998881475046288e-01  7.7346336155861228e-01  7.7685442099719637e-01  7.7982735632296385e-01  7.8200161154749692e-01  7.8300281013394624e-01  7.8253563872618737e-01  7.8047043102988534e-01  7.7687376892984172e-01  7.7195681341938605e-01  7.6600324848177836e-01  7.5937858271152248e-01  7.5260077803273406e-01  7.4638690551259779e-01  7.4157051581945699e-01  7.3890240844060029e-01  7.3876169362013455e-01  7.4076146599806447e-01  7.4345042048804966e-01  7.4452643193153800e-01  7.4156493321728267e-01  7.3308100445976054e-01  7.1799462500477462e-01  6.9486010328981407e-01  6.6099510149583451e-01  6.1068662423934117e-01  5.3646325238697945e-01  4.3412656750875378e-01  3.1210057098523070e-01  1.9632650766558016e-01  1.1142790995751563e-01  6.0532992289359551e-02  3.2909846677334841e-02  1.8312399499706117e-02  1.0529975862424074e-02  6.2792387877904808e-03  3.8861231500552148e-03  2.4944148854645892e-03  1.6577612964133366e-03  1.1378699583789280e-03  8.0420150185994720e-04  5.8332760776579984e-04  4.3281882887956981e-04  3.2748150789397283e-04  2.5194860025276578e-04  1.9659684292368563e-04  1.5524470693596451e-04  1.2382383363175245e-04  9.9593995275473561e-05  8.0669068976192891e-05  6.5723977835403341e-05  5.3809916263979097e-05  4.4235399477031443e-05  3.6488150392250330e-05  3.0182947339998673e-05  2.5026095429761638e-05  2.0790930887620144e-05  1.7300533408136661e-05  1.4415492043010813e-05  1.2024912090277778e-05  1.0039997891415682e-05  8.3890664913373490e-06  7.0139974776469419e-06  5.8673516124290156e-06  4.9102645293787768e-06  4.1107604860249457e-06  3.4424625266852021e-06  2.8835332872875822e-06  2.4158713992831213e-06  2.0244189881897590e-06  1.6966643001802917e-06  1.4221661386390113e-06  1.1922262723028928e-06  9.9957306729376474e-07  8.3813733685630953e-07  7.0284265928319321e-07  5.8944331468936753e-07  4.9438512800807956e-07  4.1469515511286097e-07  3.4788231789860519e-07  2.9186293208612733e-07  2.4489099806937516e-07  2.0550270911218172e-07  1.7247295237161220e-07  1.4477417431688018e-07  1.2154693782141457e-07  1.0206883499952107e-07  8.5735286440550874e-08  7.2040257021991127e-08  6.0560159456100404e-08  5.0939159952750082e-08  4.2879756609025827e-08  3.6133130709394135e-08  3.0491766179795294e-08  2.5781300037235553e-08  2.1856762061891644e-08  1.8597595088256785e-08  1.5904116741249724e-08  1.3693674955505019e-08  1.1898741543870127e-08  1.0464783271394180e-08  9.3486626606096062e-09  8.5170956391137267e-09  7.9466523671459511e-09  7.6250335243237252e-09  7.5596313452068791e-09  9.9912987884367688e-01  9.9912020521623934e-01  9.9909601391826564e-01  9.9905671448707500e-01  9.9900041036897280e-01  9.9892432059837122e-01  9.9882466863898500e-01  9.9869662557204752e-01  9.9853396459546107e-01  9.9832791210378979e-01  9.9806479161137984e-01  9.9772425312998148e-01  9.9728197861027745e-01  9.9671548942470878e-01  9.9599716257640081e-01  9.9506933967812761e-01  9.9384267694666095e-01  9.9225116149721138e-01  9.9030543639844315e-01  9.8808673918048240e-01  9.8573866431884916e-01  9.8350124664543559e-01  9.8170232677769120e-01  9.8064639078094096e-01  9.8048057405145195e-01  9.8114681788557079e-01  9.8243617126539728e-01  9.8408806139705840e-01  9.8587183563632086e-01  9.8762471716597289e-01  9.8925216842158137e-01  9.9071112235285330e-01  9.9199027801345596e-01  9.9309507188592505e-01  9.9403856024841775e-01  9.9483702872949931e-01  9.9550723309060718e-01  9.9606410771967435e-01  9.9651888740173700e-01  9.9687865028997791e-01  9.9714626435982401e-01  9.9731970993948205e-01  9.9739007639071420e-01  9.9733786531876067e-01  9.9712632911579546e-01  9.9669089247830722e-01  9.9592939911235234e-01  9.9472054241106345e-01  9.9297758625521004e-01  9.9064799182819552e-01  9.8760979566103024e-01  9.8368664588291321e-01  9.7881339048113536e-01  9.7314636813530797e-01  9.6712060559489887e-01  9.6136062520652643e-01  9.5645937019702187e-01  9.5279002402217194e-01  9.5044539274930595e-01  9.4929503650342106e-01  9.4907929243518196e-01  9.4949534089332199e-01  9.5026416675063996e-01  9.5117407259868392e-01  9.5208295642170016e-01  9.5290291715300679e-01  9.5358507363676215e-01  9.5411094552990183e-01  9.5448441473644230e-01  9.5472496657408623e-01  9.5486005755792458e-01  9.5491919568446437e-01  9.5492698953179034e-01  9.5489928241690158e-01  9.5484205958581669e-01  9.5475538588134501e-01  9.5463713700471842e-01  9.5448609135194984e-01  9.5430203428535121e-01  9.5408643117870684e-01  9.5384235211913770e-01  9.5357675942845055e-01  9.5330051771164070e-01  9.5302610214416084e-01  9.5276301481906589e-01  9.5251667618958225e-01  9.5228789188132845e-01  9.5207468893076230e-01  9.5187331852999002e-01  9.5168060980469837e-01  9.5149456030914081e-01  9.5131536328571553e-01  9.5114471078328788e-01  9.5098610498878411e-01  9.5084325119042745e-01  9.5071957100812921e-01  9.5061666873442263e-01  9.5053462861280891e-01  9.5047132720349936e-01  9.5042304297483871e-01  9.5038373954777600e-01  9.5034592514201999e-01  9.5030066067309438e-01  9.5023960378950745e-01  9.5015601128342941e-01  9.5004709329543313e-01  9.4991389991952790e-01  9.4976078579108647e-01  9.4959274211122091e-01  9.4941480318501559e-01  9.4923069920775116e-01  9.4904336874349027e-01  9.4885454793411217e-01  9.4866611407534573e-01  9.4847976763345121e-01  9.4829701529353450e-01  9.4811737601346180e-01  9.4793891154581755e-01  9.4775801450266295e-01  9.4757105301676381e-01  9.4737464522445169e-01  9.4716726407793139e-01  9.4694896279993868e-01  9.4672136902030468e-01  9.4648554765673099e-01  9.4624142648868859e-01  9.4598639631990178e-01  9.4571710043925361e-01  9.4543093227361519e-01  9.4512900454033277e-01  9.4481859289640369e-01  9.4451446542514139e-01  9.4423346228913241e-01  9.4398831002023331e-01  9.4378346339196939e-01  9.4361693773716449e-01  9.4348253472951293e-01  9.4337297502357120e-01  9.4327991548437862e-01  9.4319370664095625e-01  9.4310206374415173e-01  9.4299429142272884e-01  9.4286590255280933e-01  9.4272023550923723e-01  9.4256529719712001e-01  9.4241027675836964e-01  9.4225889337453961e-01  9.4210586565563426e-01  9.4193779227988161e-01  9.4173901206480759e-01  9.4149441699618397e-01  9.4119307342229386e-01  9.4083048445226292e-01  9.4041260955638128e-01  9.3995704367283639e-01  9.3949035937323333e-01  9.3903869589713784e-01  9.3862206894537437e-01  9.3825046013920932e-01  9.3792614901608640e-01  9.3764772014508868e-01  9.3741433372859762e-01  9.3722181018887674e-01  9.3705654008515427e-01  9.3688688880167892e-01  9.3665957999595684e-01  9.3630056456875077e-01  9.3572352412307580e-01  9.3483786347080589e-01  9.3355887823110395e-01  9.3181904130742566e-01  9.2958692712702862e-01  9.2689176973358389e-01  9.2385845815419132e-01  9.2075577896933092e-01  9.1805850099682040e-01  9.1648225071829892e-01  9.1694373308276012e-01  9.2039137237283997e-01  9.2741459357724054e-01  9.3768034042195525e-01  9.4975042118974695e-01  9.6159960556562840e-01  9.7154548719184930e-01  9.7887772428675834e-01  9.8376127820502179e-01  9.8672678985758511e-01  9.8827725297707669e-01  9.8874178060386997e-01  9.8822373405758790e-01  9.8662838898825089e-01  9.8378750405789994e-01  9.7942385576219837e-01  9.7295242082865108e-01  9.6370138496023650e-01  9.5165950982359526e-01  9.3809962755368226e-01  9.2570393351264457e-01  9.1792769653550599e-01  9.1732326100449990e-01  9.2386623390014111e-01  9.3494922058254870e-01  9.4705938573130366e-01  9.5756991389414059e-01  9.6533246124988614e-01  9.7022566392224974e-01  9.7247472668661539e-01  9.7217164230282427e-01  9.6905813473801106e-01  9.6236783505563150e-01  9.5072003675434502e-01  9.3264076352713510e-01  9.0786373514181840e-01  8.7844182461739195e-01  8.4850827709816934e-01  8.2266313256766976e-01  8.0416046201189240e-01  7.9403680016376799e-01  7.9121124235080664e-01  7.9349996813711021e-01  7.9871981969677108e-01  8.0520939953256199e-01  8.1189564117511093e-01  8.1815311168005045e-01  8.2364855802996029e-01  8.2823331562978875e-01  8.3187251213378521e-01  8.3461230878494275e-01  8.3655856396028250e-01  8.3785635000944936e-01  8.3866487532488931e-01  8.3914537713018689e-01  8.3944885402203473e-01  8.3971215512844544e-01  8.4005017511849134e-01  8.4056356590666614e-01  8.4132127444252158e-01  8.4233155217531608e-01  8.4353533988700802e-01  8.4484196263060052e-01  8.4617721599478857e-01  8.4749845064877982e-01  8.4878191236933398e-01  8.5001466596450126e-01  8.5118901235506028e-01  8.5230361013335354e-01  8.5336119043489722e-01  8.5437012265990564e-01  8.5534208321158134e-01  8.5629354254460321e-01  8.5724361602700749e-01  8.5821502706643127e-01  8.5923072859683935e-01  8.6031295601580227e-01  8.6147641503007077e-01  8.6272248720769984e-01  8.6402919199809314e-01  8.6535229613009135e-01  8.6663795366551799e-01  8.6784405754705729e-01  8.6894627593171225e-01  8.6994177732009914e-01  8.7084802561551322e-01  8.7170092676770783e-01  8.7254778659311083e-01  8.7344284663390648e-01  8.7443674504582092e-01  8.7556684498216275e-01  8.7684664039249249e-01  8.7826034119177776e-01  8.7975553346992874e-01  8.8124382734066331e-01  8.8260733049563234e-01  8.8371795714692825e-01  8.8445583687443508e-01  8.8472074135444434e-01  8.8443702640820521e-01  8.8356176729687397e-01  8.8208934737561029e-01  8.8005693455386147e-01  8.7755116799647059e-01  8.7473248166964190e-01  8.7188351051543833e-01  8.6949556911732429e-01  8.6834476516871462e-01  8.6948135943346283e-01  8.7397037095302266e-01  8.8228417787727886e-01  8.9389616615846046e-01  9.0746697592868908e-01  9.2118039767654314e-01  9.3343322034937271e-01  9.4335901210685091e-01  9.5072824616543583e-01  9.5564299780698447e-01  9.5827987498209055e-01  9.5872395469568350e-01  9.5687025738136267e-01  9.5235021638258643e-01  9.4445076614888968e-01  9.3203013373415955e-01  9.1357865250144010e-01  8.8761948936114310e-01  8.5350000069675824e-01  8.1246512222033040e-01  7.6873411519303469e-01  7.2884948143575556e-01  6.9775727046408054e-01  6.7657147595424449e-01  6.6396108013135990e-01  6.5808163915073392e-01  6.5713202477581789e-01  6.5943523098353207e-01  6.6357653103590197e-01  6.6843021873812369e-01  6.7312766607529861e-01  6.7703162379252180e-01  6.7975204222941499e-01  6.8117270260066820e-01  6.8143095087247196e-01  6.8083426928868651e-01  6.7973851168403265e-01  6.7843330562098847e-01  6.7712482267625917e-01  6.7597661868847247e-01  6.7512253053517624e-01  6.7462858797634484e-01  6.7447794084612855e-01  6.7461152821938930e-01  6.7500080414421748e-01  6.7565369122681929e-01  6.7658508336485279e-01  6.7779443262619588e-01  6.7926357448564390e-01  6.8096221688341774e-01  6.8285386214506871e-01  6.8489613479441136e-01  6.8705014726580493e-01  6.8928361670390714e-01  6.9157896798282315e-01  6.9393275747857686e-01  6.9635433086036314e-01  6.9884719890343139e-01  7.0139565722676778e-01  7.0395920440834747e-01  7.0648022849836978e-01  7.0889673318656110e-01  7.1116562345861334e-01  7.1327774092257590e-01  7.1528028568618074e-01  7.1728282071899185e-01  7.1943980835931176e-01  7.2190839033663090e-01  7.2480861387418205e-01  7.2818854029035873e-01  7.3199880985906562e-01  7.3606535916376947e-01  7.4009345232723411e-01  7.4369493734177761e-01  7.4642358808053566e-01  7.4782538208624771e-01  7.4753253958898480e-01  7.4538026233960675e-01  7.4147311149863060e-01  7.3610264996306585e-01  7.2963121001519604e-01  7.2249230730618041e-01  7.1531390733003641e-01  7.08999932680