<?xml version="1.0"?>
<VTKFile type="UnstructuredGrid"  version="0.1"  >
<UnstructuredGrid>
<Piece  NumberOfPoints="28121" NumberOfCells="55200">
<Points>
<DataArray  type="Float64"  NumberOfComponents="3"  format="ascii">0 0 0  0.008260869565217391 0 0  0.01652173913043478 0 0  0.02478260869565217 0 0  0.03304347826086956 0 0  0.04130434782608695 0 0  0.04956521739130434 0 0  0.05782608695652174 0 0  0.06608695652173913 0 0  0.07434782608695652 0 0  0.08260869565217391 0 0  0.0908695652173913 0 0  0.09913043478260869 0 0  0.1073913043478261 0 0  0.1156521739130435 0 0  0.1239130434782609 0 0  0.1321739130434783 0 0  0.1404347826086956 0 0  0.148695652173913 0 0  0.1569565217391304 0 0  0.1652173913043478 0 0  0.1734782608695652 0 0  0.1817391304347826 0 0  0.19 0 0  0.1982608695652174 0 0  0.2065217391304348 0 0  0.2147826086956522 0 0  0.2230434782608696 0 0  0.2313043478260869 0 0  0.2395652173913043 0 0  0.2478260869565218 0 0  0.2560869565217391 0 0  0.2643478260869565 0 0  0.2726086956521739 0 0  0.2808695652173913 0 0  0.2891304347826087 0 0  0.2973913043478261 0 0  0.3056521739130434 0 0  0.3139130434782609 0 0  0.3221739130434783 0 0  0.3304347826086956 0 0  0.338695652173913 0 0  0.3469565217391304 0 0  0.3552173913043478 0 0  0.3634782608695652 0 0  0.3717391304347826 0 0  0.3799999999999999 0 0  0.3882608695652174 0 0  0.3965217391304348 0 0  0.4047826086956521 0 0  0.4130434782608696 0 0  0.4213043478260869 0 0  0.4295652173913043 0 0  0.4378260869565217 0 0  0.4460869565217391 0 0  0.4543478260869565 0 0  0.4626086956521739 0 0  0.4708695652173913 0 0  0.4791304347826086 0 0  0.4873913043478261 0 0  0.4956521739130435 0 0  0.5039130434782608 0 0  0.5121739130434783 0 0  0.5204347826086956 0 0  0.528695652173913 0 0  0.5369565217391304 0 0  0.5452173913043478 0 0  0.5534782608695652 0 0  0.5617391304347825 0 0  0.57 0 0  0.5782608695652174 0 0  0.5865217391304348 0 0  0.5947826086956521 0 0  0.6030434782608696 0 0  0.6113043478260869 0 0  0.6195652173913043 0 0  0.6278260869565218 0 0  0.6360869565217391 0 0  0.6443478260869565 0 0  0.6526086956521739 0 0  0.6608695652173913 0 0  0.6691304347826087 0 0  0.677391304347826 0 0  0.6856521739130435 0 0  0.6939130434782609 0 0  0.7021739130434783 0 0  0.7104347826086956 0 0  0.718695652173913 0 0  0.7269565217391304 0 0  0.7352173913043478 0 0  0.7434782608695653 0 0  0.7517391304347827 0 0  0.7599999999999999 0 0  0.7682608695652173 0 0  0.7765217391304348 0 0  0.7847826086956522 0 0  0.7930434782608695 0 0  0.8013043478260868 0 0  0.8095652173913043 0 0  0.8178260869565217 0 0  0.8260869565217391 0 0  0.8343478260869565 0 0  0.8426086956521739 0 0  0.8508695652173912 0 0  0.8591304347826086 0 0  0.8673913043478261 0 0  0.8756521739130434 0 0  0.8839130434782608 0 0  0.8921739130434783 0 0  0.9004347826086956 0 0  0.908695652173913 0 0  0.9169565217391303 0 0  0.9252173913043478 0 0  0.9334782608695652 0 0  0.9417391304347826 0 0  0.95 0 0  0.9582608695652173 0 0  0.9665217391304347 0 0  0.9747826086956521 0 0  0.9830434782608696 0 0  0.991304347826087 0 0  0.9995652173913042 0 0  1.007826086956522 0 0  1.016086956521739 0 0  1.024347826086957 0 0  1.032608695652174 0 0  1.040869565217391 0 0  1.049130434782609 0 0  1.057391304347826 0 0  1.065652173913043 0 0  1.073913043478261 0 0  1.082173913043478 0 0  1.090434782608696 0 0  1.098695652173913 0 0  1.10695652173913 0 0  1.115217391304348 0 0  1.123478260869565 0 0  1.131739130434783 0 0  1.14 0 0  1.148260869565217 0 0  1.156521739130435 0 0  1.164782608695652 0 0  1.17304347826087 0 0  1.181304347826087 0 0  1.189565217391304 0 0  1.197826086956522 0 0  1.206086956521739 0 0  1.214347826086956 0 0  1.222608695652174 0 0  1.230869565217391 0 0  1.239130434782609 0 0  1.247391304347826 0 0  1.255652173913044 0 0  1.263913043478261 0 0  1.272173913043478 0 0  1.280434782608696 0 0  1.288695652173913 0 0  1.296956521739131 0 0  1.305217391304348 0 0  1.313478260869565 0 0  1.321739130434783 0 0  1.33 0 0  1.338260869565217 0 0  1.346521739130435 0 0  1.354782608695652 0 0  1.36304347826087 0 0  1.371304347826087 0 0  1.379565217391304 0 0  1.387826086956522 0 0  1.396086956521739 0 0  1.404347826086957 0 0  1.412608695652174 0 0  1.420869565217391 0 0  1.429130434782609 0 0  1.437391304347826 0 0  1.445652173913043 0 0  1.453913043478261 0 0  1.462173913043478 0 0  1.470434782608696 0 0  1.478695652173913 0 0  1.486956521739131 0 0  1.495217391304348 0 0  1.503478260869565 0 0  1.511739130434782 0 0  1.52 0 0  1.528260869565217 0 0  1.536521739130435 0 0  1.544782608695652 0 0  1.55304347826087 0 0  1.561304347826087 0 0  1.569565217391304 0 0  1.577826086956522 0 0  1.586086956521739 0 0  1.594347826086957 0 0  1.602608695652174 0 0  1.610869565217391 0 0  1.619130434782609 0 0  1.627391304347826 0 0  1.635652173913043 0 0  1.643913043478261 0 0  1.652173913043478 0 0  1.660434782608696 0 0  1.668695652173913 0 0  1.67695652173913 0 0  1.685217391304348 0 0  1.693478260869565 0 0  1.701739130434782 0 0  1.71 0 0  1.718260869565217 0 0  1.726521739130435 0 0  1.734782608695652 0 0  1.743043478260869 0 0  1.751304347826087 0 0  1.759565217391304 0 0  1.767826086956522 0 0  1.776086956521739 0 0  1.784347826086957 0 0  1.792608695652174 0 0  1.800869565217391 0 0  1.809130434782608 0 0  1.817391304347826 0 0  1.825652173913043 0 0  1.833913043478261 0 0  1.842173913043478 0 0  1.850434782608696 0 0  1.858695652173913 0 0  1.86695652173913 0 0  1.875217391304348 0 0  1.883478260869565 0 0  1.891739130434782 0 0  1.9 0 0  1.908260869565217 0 0  1.916521739130435 0 0  1.924782608695652 0 0  1.933043478260869 0 0  1.941304347826087 0 0  1.949565217391304 0 0  1.957826086956522 0 0  1.966086956521739 0 0  1.974347826086956 0 0  1.982608695652174 0 0  1.990869565217391 0 0  1.999130434782608 0 0  2.007391304347826 0 0  2.015652173913043 0 0  2.023913043478261 0 0  2.032173913043478 0 0  2.040434782608695 0 0  2.048695652173913 0 0  2.05695652173913 0 0  2.065217391304348 0 0  2.073478260869565 0 0  2.081739130434782 0 0  2.09 0 0  2.098260869565217 0 0  2.106521739130435 0 0  2.114782608695652 0 0  2.12304347826087 0 0  2.131304347826087 0 0  2.139565217391304 0 0  2.147826086956522 0 0  2.156086956521739 0 0  2.164347826086956 0 0  2.172608695652174 0 0  2.180869565217391 0 0  2.189130434782609 0 0  2.197391304347826 0 0  2.205652173913043 0 0  2.213913043478261 0 0  2.222173913043478 0 0  2.230434782608695 0 0  2.238695652173913 0 0  2.24695652173913 0 0  2.255217391304348 0 0  2.263478260869565 0 0  2.271739130434783 0 0  2.28 0 0  2.288260869565217 0 0  2.296521739130434 0 0  2.304782608695652 0 0  2.31304347826087 0 0  2.321304347826087 0 0  2.329565217391304 0 0  2.337826086956521 0 0  2.346086956521739 0 0  2.354347826086956 0 0  2.362608695652174 0 0  2.370869565217391 0 0  2.379130434782609 0 0  2.387391304347826 0 0  2.395652173913044 0 0  2.403913043478261 0 0  2.412173913043478 0 0  2.420434782608695 0 0  2.428695652173913 0 0  2.43695652173913 0 0  2.445217391304348 0 0  2.453478260869565 0 0  2.461739130434782 0 0  2.47 0 0  2.478260869565217 0 0  2.486521739130435 0 0  2.494782608695652 0 0  2.503043478260869 0 0  2.511304347826087 0 0  2.519565217391305 0 0  2.527826086956522 0 0  2.536086956521739 0 0  2.544347826086956 0 0  2.552608695652174 0 0  2.560869565217391 0 0  2.569130434782608 0 0  2.577391304347826 0 0  2.585652173913043 0 0  2.593913043478261 0 0  2.602173913043478 0 0  2.610434782608696 0 0  2.618695652173913 0 0  2.62695652173913 0 0  2.635217391304348 0 0  2.643478260869565 0 0  2.651739130434783 0 0  2.66 0 0  2.668260869565217 0 0  2.676521739130435 0 0  2.684782608695652 0 0  2.693043478260869 0 0  2.701304347826087 0 0  2.709565217391304 0 0  2.717826086956522 0 0  2.726086956521739 0 0  2.734347826086956 0 0  2.742608695652174 0 0  2.750869565217391 0 0  2.759130434782609 0 0  2.767391304347826 0 0  2.775652173913044 0 0  2.783913043478261 0 0  2.792173913043478 0 0  2.800434782608696 0 0  2.808695652173913 0 0  2.81695652173913 0 0  2.825217391304347 0 0  2.833478260869565 0 0  2.841739130434783 0 0  2.85 0 0  2.858260869565217 0 0  2.866521739130435 0 0  2.874782608695652 0 0  2.88304347826087 0 0  2.891304347826087 0 0  2.899565217391304 0 0  2.907826086956522 0 0  2.916086956521739 0 0  2.924347826086957 0 0  2.932608695652174 0 0  2.940869565217391 0 0  2.949130434782608 0 0  2.957391304347826 0 0  2.965652173913043 0 0  2.973913043478261 0 0  2.982173913043478 0 0  2.990434782608696 0 0  2.998695652173913 0 0  3.006956521739131 0 0  3.015217391304348 0 0  3.023478260869565 0 0  3.031739130434782 0 0  3.04 0 0  3.048260869565218 0 0  3.056521739130435 0 0  3.064782608695652 0 0  3.073043478260869 0 0  3.081304347826087 0 0  3.089565217391304 0 0  3.097826086956522 0 0  3.106086956521739 0 0  3.114347826086956 0 0  3.122608695652174 0 0  3.130869565217391 0 0  3.139130434782609 0 0  3.147391304347826 0 0  3.155652173913043 0 0  3.163913043478261 0 0  3.172173913043478 0 0  3.180434782608696 0 0  3.188695652173913 0 0  3.19695652173913 0 0  3.205217391304347 0 0  3.213478260869565 0 0  3.221739130434782 0 0  3.23 0 0  3.238260869565217 0 0  3.246521739130435 0 0  3.254782608695652 0 0  3.26304347826087 0 0  3.271304347826087 0 0  3.279565217391304 0 0  3.287826086956521 0 0  3.296086956521739 0 0  3.304347826086957 0 0  3.312608695652174 0 0  3.320869565217391 0 0  3.329130434782608 0 0  3.337391304347826 0 0  3.345652173913043 0 0  3.353913043478261 0 0  3.362173913043478 0 0  3.370434782608696 0 0  3.378695652173913 0 0  3.386956521739131 0 0  3.395217391304348 0 0  3.403478260869565 0 0  3.411739130434782 0 0  3.419999999999999 0 0  3.428260869565217 0 0  3.436521739130435 0 0  3.444782608695652 0 0  3.453043478260869 0 0  3.461304347826087 0 0  3.469565217391304 0 0  3.477826086956522 0 0  3.486086956521739 0 0  3.494347826086956 0 0  3.502608695652174 0 0  3.510869565217391 0 0  3.519130434782609 0 0  3.527391304347826 0 0  3.535652173913043 0 0  3.54391304347826
[...]
<PointData  Scalars="rho_bar"> 
<DataArray  type="Float64"  Name="rho_bar"  format="ascii">8.3832223158109276e-01  8.3749771672844631e-01  8.3670712664561697e-01  8.3571904259627461e-01  8.3447163945709524e-01  8.3295177193227321e-01  8.3116543948668009e-01  8.2912901161921337e-01  8.2686648222755510e-01  8.2440778393652248e-01  8.2178792223853270e-01  8.1904606461491336e-01  8.1622490763618416e-01  8.1336979906478213e-01  8.1052801562049892e-01  8.0774737237097982e-01  8.0507512212552912e-01  8.0255638558640607e-01  8.0023304694780506e-01  7.9814246878994077e-01  7.9631692552518873e-01  7.9478275921110986e-01  7.9356045808058018e-01  7.9266427507170101e-01  7.9210268478852519e-01  7.9187848392202154e-01  7.9198936992812385e-01  7.9242813174052029e-01  7.9318320662443775e-01  7.9423859722638535e-01  7.9557429935859902e-01  7.9716591427758898e-01  7.9898487582594446e-01  8.0099816458922635e-01  8.0316851258578847e-01  8.0545425577737517e-01  8.0780965738295885e-01  8.1018464080894315e-01  8.1252515048836993e-01  8.1477282702319032e-01  8.1686547491589390e-01  8.1873729525480166e-01  8.2031997016211466e-01  8.2154398398839190e-01  8.2234123887681831e-01  8.2264819220137131e-01  8.2241073331681003e-01  8.2158924169580072e-01  8.2016451485024500e-01  8.1814239003097111e-01  8.1555662881852786e-01  8.1246814346590202e-01  8.0896140363026670e-01  8.0513681255467395e-01  8.0109739014998482e-01  7.9693762287157577e-01  7.9273824552568184e-01  7.8856596338284612e-01  7.8447955948724601e-01  7.8053040323369050e-01  7.7676053533749145e-01  7.7320255480283562e-01  7.6988267318559145e-01  7.6682225329598097e-01  7.6403693336053491e-01  7.6153364450047445e-01  7.5930866162879485e-01  7.5734642612636205e-01  7.5562006319871478e-01  7.5409409100353220e-01  7.5273118971683683e-01  7.5149897045998393e-01  7.5037418575168591e-01  7.4934294229617382e-01  7.4839931106688928e-01  7.4754299063551599e-01  7.4677762705905215e-01  7.4610878013867177e-01  7.4554239940822886e-01  7.4508242488011822e-01  7.4472936644576837e-01  7.4447914273530957e-01  7.4432340152148779e-01  7.4425045158113246e-01  7.4424700225551665e-01  7.4429909930146099e-01  7.4439306117787418e-01  7.4451530001306454e-01  7.4465249685755619e-01  7.4479123705083783e-01  7.4491804764356395e-01  7.4501908928166349e-01  7.4508036536121824e-01  7.4508746994465325e-01  7.4502612893575038e-01  7.4488217005654023e-01  7.4464228028592572e-01  7.4429429673950431e-01  7.4382792281830179e-01  7.4323501993317309e-01  7.4251026342700654e-01  7.4165124773039959e-01  7.4065911975095233e-01  7.3953847973870435e-01  7.3829781175797271e-01  7.3694935319510757e-01  7.3550924828177400e-01  7.3399714983084741e-01  7.3243607114763065e-01  7.3085149602611099e-01  7.2927100927302080e-01  7.2772316212238741e-01  7.2623699277352760e-01  7.2484096499279416e-01  7.2356216560433717e-01  7.2242496479604890e-01  7.2145024871409624e-01  7.2065470073696003e-01  7.2005126532212449e-01  7.1964932275010718e-01  7.1945543582956362e-01  7.1947331651778013e-01  7.1970384247181163e-01  7.2014441353182423e-01  7.2078858092242870e-01  7.2162503469154249e-01  7.2263725645144783e-01  7.2380260510616523e-01  7.2509232160163073e-01  7.2647134078686093e-01  7.2789888509488621e-01  7.2932900094323305e-01  7.3071183967690845e-01  7.3199479860662886e-01  7.3312471320604800e-01  7.3404998364661667e-01  7.3472398134302219e-01  7.3510859413566221e-01  7.3517834499371892e-01  7.3492290660798665e-01  7.3434635129033599e-01  7.3346106656417509e-01  7.3228107833301326e-01  7.3081804024055486e-01  7.2908178386004374e-01  7.2708338118462101e-01  7.2484016591137723e-01  7.2237902397874310e-01  7.1973634777746576e-01  7.1695329130563701e-01  7.1407067005097524e-01  7.1112650606259864e-01  7.0815716533035600e-01  7.0519914193183486e-01  7.0229077098452775e-01  6.9947142755498237e-01  6.9677805516918323e-01  6.9424023804168522e-01  6.9187804890286797e-01  6.8970133788676424e-01  6.8771087704778722e-01  6.8589998484437353e-01  6.8425770147589238e-01  6.8277176910656767e-01  6.8143091882208306e-01  6.8022550488037758e-01  6.7914809870520343e-01  6.7819304827678795e-01  6.7735646959790941e-01  6.7663558015594560e-01  6.7602834487053176e-01  6.7553278219406498e-01  6.7514695407615677e-01  6.7486881154284040e-01  6.7469638142880417e-01  6.7462616777706197e-01  6.7465051596606274e-01  6.7475317955211744e-01  6.7490562245726038e-01  6.7506743441369865e-01  6.7519520489840668e-01  6.7525337959482734e-01  6.7521960930206004e-01  6.7508373540811806e-01  6.7484493928281553e-01  6.7450811452010262e-01  6.7408132168507762e-01  6.7357369264442535e-01  6.7299445272348668e-01  6.7235194496469308e-01  6.7165351207115409e-01  6.7090488581736785e-01  6.7011023357782074e-01  6.6927178235135343e-01  6.6838990701619594e-01  6.6746296577268605e-01  6.6648777517307545e-01  6.6545972714582757e-01  6.6437372728153954e-01  6.6322477739960151e-01  6.6200979516238667e-01  6.6072975859597349e-01  6.5939303139492600e-01  6.5801794780939982e-01  6.5663234389852054e-01  6.5526648664791498e-01  6.5394470825254736e-01  6.5268123780126674e-01  6.5148105261375444e-01  6.5034220217206451e-01  6.4925872856856925e-01  6.4822267664861999e-01  6.4722586192836107e-01  6.4626043475130623e-01  6.4531951248178498e-01  6.4439685284217829e-01  6.4348718033241614e-01  6.4258610443996755e-01  6.4169053880010463e-01  6.4079879454833089e-01  6.3991110513234539e-01  6.3902956210818040e-01  6.3815817301387168e-01  6.3730160602998831e-01  6.3646428153865775e-01  6.3564944313339444e-01  6.3485898868263302e-01  6.3409301353129133e-01  6.3334974417499346e-01  6.3262489954082857e-01  6.3191179458473190e-01  6.3120114503073910e-01  6.3048203696992644e-01  6.2974280641777991e-01  6.2897248448548948e-01  6.2816161267049719e-01  6.2730256745573088e-01  6.2638854858298632e-01  6.2541330751115409e-01  6.2437091627593599e-01  6.2325657912168719e-01  6.2206736513738825e-01  6.2080374823669393e-01  6.1947124890653382e-01  6.1808291786079550e-01  6.1666119050333712e-01  6.1523732294763178e-01  6.1384263681007056e-01  6.1249810144754413e-01  6.1121139006944647e-01  6.0998013133538831e-01  6.0879628203108138e-01  6.0764968984865253e-01  6.0652963216475086e-01  6.0542590531810625e-01  6.0432889847196247e-01  6.0323050219397811e-01  6.0212584308345829e-01  6.0101824089747413e-01  5.9992107987958687e-01  5.9884328729798431e-01  5.9778672321262993e-01  5.9674930318530950e-01  5.9572619768841317e-01  5.9471133223410144e-01  5.9369910576464491e-01  5.9268661266208866e-01  5.9167409485066125e-01  5.9066430731095221e-01  5.8966074898202492e-01  5.8866644134555901e-01  5.8768242630862066e-01  5.8670727969949765e-01  5.8573619498176865e-01  5.8475953822128224e-01  5.8375867396260195e-01  5.8270697367521707e-01  5.8159137084129553e-01  5.8041509411626324e-01  5.7918781093913352e-01  5.7791624133512043e-01  5.7659874579801818e-01  5.7522202200807659e-01  5.7376029426791308e-01  5.7218499454925775e-01  5.7047989052162085e-01  5.6865149933720716e-01  5.6673274096714665e-01  5.6476228452153776e-01  5.6275290996410066e-01  5.6068911343798467e-01  5.5853789797040609e-01  5.5626423040804063e-01  5.5385104914515249e-01  5.5132578681292421e-01  5.4875177908402539e-01  5.4619438003937371e-01  5.4372699526437474e-01  5.4138854953973092e-01  5.3918606976044570e-01  5.3711370790980051e-01  5.3516281796345866e-01  5.3332713192849812e-01  5.3160469292756352e-01  5.2999855951500707e-01  5.2851541442426064e-01  5.2716279620940798e-01  5.2594334699800127e-01  5.2484381962101068e-01  5.2382474386973787e-01  5.2283389243946654e-01  5.2181937873118245e-01  5.2075886242128122e-01  5.1964711197174640e-01  5.1847721856511275e-01  5.1722923813485278e-01  5.1587553287639898e-01  5.1439330122533744e-01  5.1276602671612004e-01  5.1098170389401976e-01  5.0903550382784413e-01  5.0693917198039051e-01  5.0472913868822955e-01  5.0244484745705498e-01  5.0009441221695672e-01  4.9765422818372773e-01  4.9508403324887690e-01  4.9234774980052703e-01  4.8944804874814879e-01  4.8647584766338059e-01  4.8358385484095323e-01  4.8089670783047045e-01  4.7852001431330082e-01  4.7649958745505544e-01  4.7482763527886407e-01  4.7345500986705569e-01  4.7229877790138131e-01  4.7128896578292551e-01  4.7035753342649289e-01  4.6939752934999662e-01  4.6828467628549542e-01  4.6695233999728802e-01  4.6538586506507357e-01  4.6359952294531548e-01  4.6162207749730533e-01  4.5948902079751525e-01  4.5723909087948028e-01  4.5491228729508482e-01  4.5254871735592822e-01  4.5018681582268738e-01  4.4786128360178790e-01  4.4559925069002249e-01  4.4341465376591660e-01  4.4129856405750956e-01  4.3921160080440363e-01  4.3709497498392819e-01  4.3489027615348125e-01  4.3253871808025673e-01  4.2997537522492196e-01  4.2712756700940568e-01  4.2392169489250048e-01  4.2029905732337947e-01  4.1624217415351389e-01  4.1180939378972498e-01  4.0716518046822947e-01  4.0256877052000817e-01  3.9822338484418346e-01  3.9410374444861673e-01  3.9007369393959751e-01  3.8596830577085794e-01  3.8161788032314803e-01  3.7687830395451971e-01  3.7166824669661019e-01  3.6597231920520978e-01  3.5981371738455242e-01  3.5321924129985494e-01  3.4621402329260237e-01  3.3881190703476366e-01  3.3097491146124525e-01  3.2261524347169096e-01  3.1361260231712923e-01  3.0382849281614632e-01  2.9312157902139746e-01  2.8136798946048580e-01  2.6849266996421839e-01  2.5453823100888084e-01  2.3973850774222003e-01  2.2442930271658387e-01  2.0895380559961385e-01  1.9369768876325624e-01  1.7905067890875723e-01  1.6528279376361066e-01  1.5250710430682671e-01  1.4069616571183044e-01  1.2970830712513512e-01  1.1938295814760751e-01  1.0967881866724112e-01  1.0059089384940433e-01  9.2105332398767212e-02  8.4199637742951333e-02  7.6845778772181683e-02  7.0012063138820677e-02  6.3665070742716365e-02  5.7772099088699055e-02  5.2303681910424046e-02  4.7235277921312220e-02  4.2547495999945943e-02  3.8224865076004658e-02  3.4253960406798088e-02  3.0621503143802103e-02  2.7313066123753463e-02  2.4312484748272224e-02  2.1601901988972824e-02  1.9162158997332302e-02  1.6973327992321950e-02  1.5015237782929059e-02  1.3267952878176470e-02  1.1712152094809528e-02  1.0329429622139896e-02  9.1024879494171519e-03  8.0152627081610840e-03  7.0529717913598950e-03  6.2021214080698875e-03  5.4504747049508896e-03  4.7869921074907597e-03  4.2017567060900537e-03  3.6858904161251476e-03  3.2314660062432343e-03  2.8314188766854374e-03  2.4794643460502820e-03  2.1700145018590448e-03  1.8981099693165622e-03  1.6593474686971350e-03  1.4498241679623612e-03  1.2660795047848891e-03  1.1050483122949325e-03  9.6401656206404824e-04  8.4058376000782349e-04  7.3262740020534718e-04  6.3827293196735881e-04  5.5586577319320109e-04  4.8394793109022389e-04  4.2123523236301793e-04  3.6659848648170105e-04  3.1904565422422515e-04  2.7770722170908748e-04  2.4182174544143731e-04  2.1072404891340181e-04  1.8383418459154793e-04  1.6064825526736405e-04  1.4072976365848673e-04  1.2370219549787072e-04  1.0924276663857460e-04  9.7076833467898841e-05  8.6973373703220003e-05  7.8740681693099113e-05  7.2224057453435230e-05  6.7304064189704541e-05  6.3899105345010973e-05  6.1978988317690662e-05  6.1626948973341635e-05  8.3383511634899832e-01  8.3347859364140064e-01  8.3279287083698650e-01  8.3181855618570721e-01  8.3055496099005888e-01  8.2900437743084210e-01  8.2717730074462104e-01  8.2509225918963380e-01  8.2277449165505578e-01  8.2025516396646847e-01  8.1757037861346671e-01  8.1476050632589692e-01  8.1186936338105387e-01  8.0894362076214588e-01  8.0603176384182551e-01  8.0318307746864026e-01  8.0044603857647789e-01  7.9786706321737122e-01  7.9548899898689873e-01  7.9335021540717243e-01  7.9148352861052218e-01  7.8991595481008936e-01  7.8866815568411952e-01  7.8775470955378224e-01  7.8718402288305389e-01  7.8695890781466626e-01  7.8707682733451789e-01  7.8753050185336559e-01  7.8830801289939489e-01  7.8939330333931990e-01  7.9076595758454471e-01  7.9240144014245428e-01  7.9427069469566425e-01  7.9634031060357391e-01  7.9857233371460778e-01  8.0092454999480833e-01  8.0335032760874536e-01  8.0579895479816877e-01  8.0821532539788432e-01  8.1054022488839039e-01  8.1271017297532777e-01  8.1465807430048987e-01  8.1631387887588269e-01  8.1760625050120384e-01  8.1846467794609767e-01  8.1882322090008663e-01  8.1862489903705293e-01  8.1782767073516094e-01  8.1641021122317137e-01  8.1437747439653596e-01  8.1176370895613092e-01  8.0863196391032344e-01  8.0506868660794462e-01  8.0117536721933091e-01  7.9705604833019938e-01  7.9280721536840204e-01  7.8851242457082382e-01  7.8424206094747861e-01  7.8005710280391338e-01  7.7601063021446504e-01  7.7214562739244408e-01  7.6849536546857766e-01  7.6508656002129483e-01  7.6194221385543626e-01  7.5907955923367343e-01  7.5650689153970696e-01  7.5422107402909933e-01  7.5220680005145701e-01  7.5043619503371539e-01  7.4887173992528111e-01  7.4747339002756641e-01  7.4620731940642937e-01  7.4504974361093335e-01  7.4398707631740113e-01  7.4301368743221341e-01  7.4212974448276881e-01  7.4133904708985132e-01  7.4064773387630867e-01  7.4006211192938609e-01  7.3958672050858021e-01  7.3922213117402258e-01  7.3896413210236878e-01  7.3880368476117464e-01  7.3872844006631389e-01  7.3872430657322519e-01  7.3877701646022331e-01  7.3887244102791505e-01  7.3899691850778226e-01  7.3913683209369263e-01  7.3927863878429156e-01  7.3940853919775429e-01  7.3951256558818090e-01  7.3957628113615981e-01  7.3958511458280707e-01  7.3952424509785741e-01  7.3937924758558959e-01  7.3913628133103548e-01  7.3878288303208695e-01  7.3830832743639985e-01  7.3770430996324665e-01  7.3696516312824889e-01  7.3608850892118294e-01  7.3507531025285366e-01  7.3393037427102426e-01  7.3266223969149380e-01  7.3128348377000918e-01  7.2981052983212380e-01  7.2826365730192655e-01  7.2666634670696306e-01  7.2504494608897863e-01  7.2342760516347504e-01  7.2184376144798135e-01  7.2032306636560128e-01  7.1889482674514937e-01  7.1758682028687282e-01  7.1642421355188934e-01  7.1542820838312415e-01  7.1461582674301660e-01  7.1399988010685045e-01  7.1358987919462247e-01  7.1339234625497316e-01  7.1341121979009980e-01  7.1364747929737837e-01  7.1409886542962631e-01  7.1475897708447333e-01  7.1561680538037031e-01  7.1665568460994300e-01  7.1785297981037033e-01  7.1917946801931698e-01  7.2059961869043654e-01  7.2207182420443949e-01  7.2354934421145378e-01  7.2498114032446093e-01  7.2631354197956843e-01  7.2749181629001647e-01  7.2846286939303795e-01  7.2917812230354573e-01  7.2959760261516937e-01  7.2969414914217856e-01  7.2945721373811223e-01  7.2889211747672633e-01  7.2801341206426529e-01  7.2683596806189088e-01  7.2537143704579543e-01  7.2362848811817115e-01  7.2161671863006660e-01  7.1935218231321563e-01  7.1686187483029695e-01  7.1418348823136146e-01  7.1136036365801847e-01  7.0843439724235091e-01  7.0544426770676771e-01  7.0242647656277213e-01  6.9941797664237393e-01  6.9645793731232697e-01  6.9358761623196896e-01  6.9084580823491260e-01  6.8826346820061801e-01  6.8586097851897920e-01  6.8364837179529303e-01  6.8162599675617064e-01  6.7978652997102174e-01  6.7811802627468365e-01  6.7660773858264556e-01  6.7524393027822471e-01  6.7401696022535584e-01  6.7291917010908342e-01  6.7194504145358780e-01  6.7109060767277295e-01  6.7035322564554267e-01  6.6973080190651024e-01  6.6922137144197880e-01  6.6882259811971123e-01  6.6853231105403577e-01  6.6834844412956274e-01  6.6826821982043572e-01  6.6828498743491915e-01  6.6838382215768610e-01  6.6853623531512985e-01  6.6869967646194250e-01  6.6882733042429332e-01  6.6888229879585426e-01  6.6884220940005479e-01  6.6869787491816901e-01  6.6844922171783860e-01  6.6810188565882189e-01  6.6766426607002671e-01  6.6714585846988694e-01  6.6655590049582358e-01  6.6590297648462238e-01  6.6519436430971235e-01  6.6443601944118558e-01  6.6363209028598280e-01  6.6278495165168372e-01  6.6189490754888192e-01  6.6096041101090941e-01  6.5997806595353636e-01  6.5894333391212390e-01  6.5785080658499162e-01  6.5669533255759249e-01  6.5547314285139902e-01  6.5418440574316639e-01  6.5283642029402056e-01  6.5144750160433118e-01  6.5004707600414036e-01  6.4866802795390788e-01  6.4733565078005872e-01  6.4606414746622842e-01  6.4485770539291765e-01  6.4371373836430423e-01  6.4262562862488615e-01  6.4158516029252743e-01  6.4058379312116731e-01  6.3961377129546459e-01  6.3866805727002518e-01  6.3774054594537499e-01  6.3682579920078985e-01  6.3591943636451942e-01  6.3501819100773516e-01  6.3412038437019935e-01  6.3322604641580194e-01  6.3233746179810457e-01  6.3145876313244620e-01  6.3059512325971656e-01  6.2975110809886348e-01  6.2893018486906316e-01  6.2813427745531170e-01  6.2736375108114462e-01  6.2661685874632833e-01  6.2588961346524907e-01  6.2517519168074687e-01  6.2446431053530127e-01  6.2374567547263360e-01  6.2300739568125030e-01  6.2223811764856229e-01  6.2142833768076966e-01  6.2057029466243951e-01  6.1965722129333023e-01  6.1868244814169049e-01  6.1763986680932470e-01  6.1652429237570971e-01  6.1533261415487284e-01  6.1406494443775883e-01  6.1272660149505487e-01  6.1133008356179275e-01  6.0989792235468365e-01  6.0846284757779034e-01  6.0705888232765071e-01  6.0570762031846437e-01  6.0441613866447641e-01  6.0318097936888548e-01  6.0199362556648650e-01  6.0084368435485780e-01  5.9972079980500981e-01  5.9861508119822771e-01  5.9751771112806396e-01  5.9642130799270687e-01  5.9532178636701971e-01  5.9422143359571733e-01  5.9313081379391253e-01  5.9205908269727558e-01  5.9100921043436760e-01  5.8997972994527492e-01  5.8896643417907413e-01  5.8796317041528012e-01  5.8696401520838315e-01  5.8596556347905870e-01  5.8496802596780539e-01  5.8397405107155831e-01  5.8298730244907393e-01  5.8201048103249986e-01  5.8104428437835443e-01  5.8008636570728811e-01  5.7913086939288871e-01  5.7816696121064304e-01  5.7717685380045813e-01  5.7613668630443748e-01  5.7503240985282189e-01  5.7386675255409436e-01  5.7265039337890611e-01  5.7139044487021362e-01  5.7008591423419241e-01  5.6872461186554846e-01  5.6728134089901205e-01  5.6572613774333380e-01  5.6404188248156406e-01  5.6223276756631368e-01  5.6033197399531898e-01  5.5838281561453351e-01  5.5639992219889656e-01  5.5436785985533110e-01  5.5225439883712912e-01  5.5002600825485304e-01  5.4766592810209547e-01  5.4519604999809579e-01  5.4268007034586518e-01  5.4018094261896932e-01  5.3776107012678431e-01  5.3546035228543676e-01  5.3328890419766528e-01  5.3124275416878597e-01  5.2931462125528406e-01  5.2749871167194162e-01  5.2579337863045683e-01  5.2420139838275837e-01  5.2272879056102917e-01  5.2138133240722184e-01  5.2015934189249935e-01  5.1904968559942977e-01  5.1801942921104416e-01  5.1702327324438557e-01  5.1601080505799757e-01  5.1495708236535731e-01  5.1385564709115517e-01  5.1269934831373964e-01  5.1146753771600595e-01  5.1013005258427335e-01  5.0866390028090935e-01  5.0705326050607136e-01  5.0528687544464723e-01  5.0335925253617464e-01  5.0127948538487643e-01  4.9908406586732951e-01  4.9681851417864092e-01  4.9449372335081049e-01  4.9208818677659655e-01  4.8956499465153241e-01  4.8689257489777676e-01  4.8407295348793677e-01  4.8118243258438298e-01  4.7837063344546854e-01  4.7575926804689767e-01  4.7343852712521944e-01  4.7145296574515094e-01  4.6979579201143357e-01  4.6842299781447699e-01  4.6726180437461717e-01  4.6624148038017488e-01  4.6529529051988255e-01  4.6432871329640163e-01  4.6322083550924614e-01  4.6190293800368804e-01  4.6035981947873539e-01  4.5860523334828607e-01  4.5666689317251197e-01  4.5457930197131668e-01  4.5238014419132966e-01  4.5010860278384041e-01  4.4780379104901130e-01  4.4550330558470352e-01  4.4324071347116689e-01  4.4104240702519665e-01  4.3892220936558946e-01  4.3687282639555292e-01  4.3485501492817019e-01  4.3280726948312093e-01  4.3067118611381083e-01  4.2838991799931064e-01  4.2590041390468064e-01  4.2313205472206755e-01  4.2001335455363603e-01  4.1648816550400813e-01  4.1254223826037739e-01  4.0823723069939338e-01  4.0373796038966980e-01  3.9928738227363025e-01  3.9508375751309277e-01  3.9110787014601872e-01  3.87224428257