<?xml version="1.0"?>
<VTKFile type="UnstructuredGrid"  version="0.1"  >
<UnstructuredGrid>
<Piece  NumberOfPoints="28121" NumberOfCells="55200">
<Points>
<DataArray  type="Float64"  NumberOfComponents="3"  format="ascii">0 0 0  0.008260869565217391 0 0  0.01652173913043478 0 0  0.02478260869565217 0 0  0.03304347826086956 0 0  0.04130434782608695 0 0  0.04956521739130434 0 0  0.05782608695652174 0 0  0.06608695652173913 0 0  0.07434782608695652 0 0  0.08260869565217391 0 0  0.0908695652173913 0 0  0.09913043478260869 0 0  0.1073913043478261 0 0  0.1156521739130435 0 0  0.1239130434782609 0 0  0.1321739130434783 0 0  0.1404347826086956 0 0  0.148695652173913 0 0  0.1569565217391304 0 0  0.1652173913043478 0 0  0.1734782608695652 0 0  0.1817391304347826 0 0  0.19 0 0  0.1982608695652174 0 0  0.2065217391304348 0 0  0.2147826086956522 0 0  0.2230434782608696 0 0  0.2313043478260869 0 0  0.2395652173913043 0 0  0.2478260869565218 0 0  0.2560869565217391 0 0  0.2643478260869565 0 0  0.2726086956521739 0 0  0.2808695652173913 0 0  0.2891304347826087 0 0  0.2973913043478261 0 0  0.3056521739130434 0 0  0.3139130434782609 0 0  0.3221739130434783 0 0  0.3304347826086956 0 0  0.338695652173913 0 0  0.3469565217391304 0 0  0.3552173913043478 0 0  0.3634782608695652 0 0  0.3717391304347826 0 0  0.3799999999999999 0 0  0.3882608695652174 0 0  0.3965217391304348 0 0  0.4047826086956521 0 0  0.4130434782608696 0 0  0.4213043478260869 0 0  0.4295652173913043 0 0  0.4378260869565217 0 0  0.4460869565217391 0 0  0.4543478260869565 0 0  0.4626086956521739 0 0  0.4708695652173913 0 0  0.4791304347826086 0 0  0.4873913043478261 0 0  0.4956521739130435 0 0  0.5039130434782608 0 0  0.5121739130434783 0 0  0.5204347826086956 0 0  0.528695652173913 0 0  0.5369565217391304 0 0  0.5452173913043478 0 0  0.5534782608695652 0 0  0.5617391304347825 0 0  0.57 0 0  0.5782608695652174 0 0  0.5865217391304348 0 0  0.5947826086956521 0 0  0.6030434782608696 0 0  0.6113043478260869 0 0  0.6195652173913043 0 0  0.6278260869565218 0 0  0.6360869565217391 0 0  0.6443478260869565 0 0  0.6526086956521739 0 0  0.6608695652173913 0 0  0.6691304347826087 0 0  0.677391304347826 0 0  0.6856521739130435 0 0  0.6939130434782609 0 0  0.7021739130434783 0 0  0.7104347826086956 0 0  0.718695652173913 0 0  0.7269565217391304 0 0  0.7352173913043478 0 0  0.7434782608695653 0 0  0.7517391304347827 0 0  0.7599999999999999 0 0  0.7682608695652173 0 0  0.7765217391304348 0 0  0.7847826086956522 0 0  0.7930434782608695 0 0  0.8013043478260868 0 0  0.8095652173913043 0 0  0.8178260869565217 0 0  0.8260869565217391 0 0  0.8343478260869565 0 0  0.8426086956521739 0 0  0.8508695652173912 0 0  0.8591304347826086 0 0  0.8673913043478261 0 0  0.8756521739130434 0 0  0.8839130434782608 0 0  0.8921739130434783 0 0  0.9004347826086956 0 0  0.908695652173913 0 0  0.9169565217391303 0 0  0.9252173913043478 0 0  0.9334782608695652 0 0  0.9417391304347826 0 0  0.95 0 0  0.9582608695652173 0 0  0.9665217391304347 0 0  0.9747826086956521 0 0  0.9830434782608696 0 0  0.991304347826087 0 0  0.9995652173913042 0 0  1.007826086956522 0 0  1.016086956521739 0 0  1.024347826086957 0 0  1.032608695652174 0 0  1.040869565217391 0 0  1.049130434782609 0 0  1.057391304347826 0 0  1.065652173913043 0 0  1.073913043478261 0 0  1.082173913043478 0 0  1.090434782608696 0 0  1.098695652173913 0 0  1.10695652173913 0 0  1.115217391304348 0 0  1.123478260869565 0 0  1.131739130434783 0 0  1.14 0 0  1.148260869565217 0 0  1.156521739130435 0 0  1.164782608695652 0 0  1.17304347826087 0 0  1.181304347826087 0 0  1.189565217391304 0 0  1.197826086956522 0 0  1.206086956521739 0 0  1.214347826086956 0 0  1.222608695652174 0 0  1.230869565217391 0 0  1.239130434782609 0 0  1.247391304347826 0 0  1.255652173913044 0 0  1.263913043478261 0 0  1.272173913043478 0 0  1.280434782608696 0 0  1.288695652173913 0 0  1.296956521739131 0 0  1.305217391304348 0 0  1.313478260869565 0 0  1.321739130434783 0 0  1.33 0 0  1.338260869565217 0 0  1.346521739130435 0 0  1.354782608695652 0 0  1.36304347826087 0 0  1.371304347826087 0 0  1.379565217391304 0 0  1.387826086956522 0 0  1.396086956521739 0 0  1.404347826086957 0 0  1.412608695652174 0 0  1.420869565217391 0 0  1.429130434782609 0 0  1.437391304347826 0 0  1.445652173913043 0 0  1.453913043478261 0 0  1.462173913043478 0 0  1.470434782608696 0 0  1.478695652173913 0 0  1.486956521739131 0 0  1.495217391304348 0 0  1.503478260869565 0 0  1.511739130434782 0 0  1.52 0 0  1.528260869565217 0 0  1.536521739130435 0 0  1.544782608695652 0 0  1.55304347826087 0 0  1.561304347826087 0 0  1.569565217391304 0 0  1.577826086956522 0 0  1.586086956521739 0 0  1.594347826086957 0 0  1.602608695652174 0 0  1.610869565217391 0 0  1.619130434782609 0 0  1.627391304347826 0 0  1.635652173913043 0 0  1.643913043478261 0 0  1.652173913043478 0 0  1.660434782608696 0 0  1.668695652173913 0 0  1.67695652173913 0 0  1.685217391304348 0 0  1.693478260869565 0 0  1.701739130434782 0 0  1.71 0 0  1.718260869565217 0 0  1.726521739130435 0 0  1.734782608695652 0 0  1.743043478260869 0 0  1.751304347826087 0 0  1.759565217391304 0 0  1.767826086956522 0 0  1.776086956521739 0 0  1.784347826086957 0 0  1.792608695652174 0 0  1.800869565217391 0 0  1.809130434782608 0 0  1.817391304347826 0 0  1.825652173913043 0 0  1.833913043478261 0 0  1.842173913043478 0 0  1.850434782608696 0 0  1.858695652173913 0 0  1.86695652173913 0 0  1.875217391304348 0 0  1.883478260869565 0 0  1.891739130434782 0 0  1.9 0 0  1.908260869565217 0 0  1.916521739130435 0 0  1.924782608695652 0 0  1.933043478260869 0 0  1.941304347826087 0 0  1.949565217391304 0 0  1.957826086956522 0 0  1.966086956521739 0 0  1.974347826086956 0 0  1.982608695652174 0 0  1.990869565217391 0 0  1.999130434782608 0 0  2.007391304347826 0 0  2.015652173913043 0 0  2.023913043478261 0 0  2.032173913043478 0 0  2.040434782608695 0 0  2.048695652173913 0 0  2.05695652173913 0 0  2.065217391304348 0 0  2.073478260869565 0 0  2.081739130434782 0 0  2.09 0 0  2.098260869565217 0 0  2.106521739130435 0 0  2.114782608695652 0 0  2.12304347826087 0 0  2.131304347826087 0 0  2.139565217391304 0 0  2.147826086956522 0 0  2.156086956521739 0 0  2.164347826086956 0 0  2.172608695652174 0 0  2.180869565217391 0 0  2.189130434782609 0 0  2.197391304347826 0 0  2.205652173913043 0 0  2.213913043478261 0 0  2.222173913043478 0 0  2.230434782608695 0 0  2.238695652173913 0 0  2.24695652173913 0 0  2.255217391304348 0 0  2.263478260869565 0 0  2.271739130434783 0 0  2.28 0 0  2.288260869565217 0 0  2.296521739130434 0 0  2.304782608695652 0 0  2.31304347826087 0 0  2.321304347826087 0 0  2.329565217391304 0 0  2.337826086956521 0 0  2.346086956521739 0 0  2.354347826086956 0 0  2.362608695652174 0 0  2.370869565217391 0 0  2.379130434782609 0 0  2.387391304347826 0 0  2.395652173913044 0 0  2.403913043478261 0 0  2.412173913043478 0 0  2.420434782608695 0 0  2.428695652173913 0 0  2.43695652173913 0 0  2.445217391304348 0 0  2.453478260869565 0 0  2.461739130434782 0 0  2.47 0 0  2.478260869565217 0 0  2.486521739130435 0 0  2.494782608695652 0 0  2.503043478260869 0 0  2.511304347826087 0 0  2.519565217391305 0 0  2.527826086956522 0 0  2.536086956521739 0 0  2.544347826086956 0 0  2.552608695652174 0 0  2.560869565217391 0 0  2.569130434782608 0 0  2.577391304347826 0 0  2.585652173913043 0 0  2.593913043478261 0 0  2.602173913043478 0 0  2.610434782608696 0 0  2.618695652173913 0 0  2.62695652173913 0 0  2.635217391304348 0 0  2.643478260869565 0 0  2.651739130434783 0 0  2.66 0 0  2.668260869565217 0 0  2.676521739130435 0 0  2.684782608695652 0 0  2.693043478260869 0 0  2.701304347826087 0 0  2.709565217391304 0 0  2.717826086956522 0 0  2.726086956521739 0 0  2.734347826086956 0 0  2.742608695652174 0 0  2.750869565217391 0 0  2.759130434782609 0 0  2.767391304347826 0 0  2.775652173913044 0 0  2.783913043478261 0 0  2.792173913043478 0 0  2.800434782608696 0 0  2.808695652173913 0 0  2.81695652173913 0 0  2.825217391304347 0 0  2.833478260869565 0 0  2.841739130434783 0 0  2.85 0 0  2.858260869565217 0 0  2.866521739130435 0 0  2.874782608695652 0 0  2.88304347826087 0 0  2.891304347826087 0 0  2.899565217391304 0 0  2.907826086956522 0 0  2.916086956521739 0 0  2.924347826086957 0 0  2.932608695652174 0 0  2.940869565217391 0 0  2.949130434782608 0 0  2.957391304347826 0 0  2.965652173913043 0 0  2.973913043478261 0 0  2.982173913043478 0 0  2.990434782608696 0 0  2.998695652173913 0 0  3.006956521739131 0 0  3.015217391304348 0 0  3.023478260869565 0 0  3.031739130434782 0 0  3.04 0 0  3.048260869565218 0 0  3.056521739130435 0 0  3.064782608695652 0 0  3.073043478260869 0 0  3.081304347826087 0 0  3.089565217391304 0 0  3.097826086956522 0 0  3.106086956521739 0 0  3.114347826086956 0 0  3.122608695652174 0 0  3.130869565217391 0 0  3.139130434782609 0 0  3.147391304347826 0 0  3.155652173913043 0 0  3.163913043478261 0 0  3.172173913043478 0 0  3.180434782608696 0 0  3.188695652173913 0 0  3.19695652173913 0 0  3.205217391304347 0 0  3.213478260869565 0 0  3.221739130434782 0 0  3.23 0 0  3.238260869565217 0 0  3.246521739130435 0 0  3.254782608695652 0 0  3.26304347826087 0 0  3.271304347826087 0 0  3.279565217391304 0 0  3.287826086956521 0 0  3.296086956521739 0 0  3.304347826086957 0 0  3.312608695652174 0 0  3.320869565217391 0 0  3.329130434782608 0 0  3.337391304347826 0 0  3.345652173913043 0 0  3.353913043478261 0 0  3.362173913043478 0 0  3.370434782608696 0 0  3.378695652173913 0 0  3.386956521739131 0 0  3.395217391304348 0 0  3.403478260869565 0 0  3.411739130434782 0 0  3.419999999999999 0 0  3.428260869565217 0 0  3.436521739130435 0 0  3.444782608695652 0 0  3.453043478260869 0 0  3.461304347826087 0 0  3.469565217391304 0 0  3.477826086956522 0 0  3.486086956521739 0 0  3.494347826086956 0 0  3.502608695652174 0 0  3.510869565217391 0 0  3.519130434782609 0 0  3.527391304347826 0 0  3.535652173913043 0 0  3.54391304347826
[...]
<PointData  Scalars="rho_bar"> 
<DataArray  type="Float64"  Name="rho_bar"  format="ascii">1.0000000447447510e+00  1.0000003253386769e+00  1.0000006422025505e+00  1.0000005767816902e+00  9.9999940449805691e-01  9.9999763453871093e-01  9.9999820465938782e-01  1.0000039230280040e+00  1.0000094879656323e+00  9.9999866242029345e-01  9.9997105659785002e-01  9.9997303066581278e-01  1.0000677775578111e+00  1.0001443833418733e+00  9.9993072834881613e-01  9.9961229684194952e-01  9.9969928662619656e-01  1.0001097881132244e+00  1.0004702851558267e+00  1.0006308836455420e+00  1.0005272133048242e+00  1.0001783414163794e+00  9.9971042196903259e-01  9.9951051970144289e-01  9.9976266441279704e-01  1.0000547117313541e+00  1.0001225682032620e+00  1.0000691654276244e+00  9.9999718467756016e-01  9.9996512320688646e-01  9.9997425853483857e-01  9.9999356220442848e-01  1.0000066905515743e+00  1.0000071227867322e+00  1.0000012938366218e+00  9.9999843343135464e-01  9.9999940243503416e-01  1.0000003489063116e+00  1.0000001397773695e+00  9.9999982173573876e-01  1.0000001719988230e+00  1.0000000056733458e+00  9.9999872503327469e-01  1.0000046789007859e+00  9.9999385795012818e-01  9.9998628071611950e-01  1.0000641862344657e+00  9.9999112023023506e-01  9.9962165703353467e-01  9.9993441829936436e-01  1.0013867033745854e+00  1.0019576238003356e+00  1.0005575939566540e+00  9.9918810123728774e-01  9.9898503234466107e-01  9.9906236348143773e-01  9.9903925243885794e-01  9.9932320108383277e-01  1.0000198933796021e+00  1.0008013281969939e+00  1.0014458867294638e+00  1.0018318409641418e+00  1.0019285440700096e+00  1.0019264902091454e+00  1.0019341111033711e+00  1.0019318123251069e+00  1.0019188492821971e+00  1.0018902400394556e+00  1.0018232717255460e+00  1.0017007792863459e+00  1.0015395946666843e+00  1.0013751707512251e+00  1.0012165598184408e+00  1.0010571093882448e+00  1.0009087226362785e+00  1.0007807962952520e+00  1.0006366729668810e+00  1.0003983656997142e+00  1.0000264200951021e+00  9.9960861512444688e-01  9.9929831929155066e-01  9.9914934727385463e-01  9.9909912740692075e-01  9.9908245833185438e-01  9.9907621588963591e-01  9.9907516233814919e-01  9.9907769167361793e-01  9.9908413410007202e-01  9.9909678888323450e-01  9.9912133994629759e-01  9.9916974376969347e-01  9.9926423667620379e-01  9.9943099259375245e-01  9.9966937042501580e-01  9.9992644308507794e-01  1.0001265454576740e+00  1.0002264379419754e+00  1.0002090624056972e+00  1.0000300137427596e+00  9.9968034492756164e-01  9.9931198880804417e-01  9.9910728304340390e-01  9.9905925536609930e-01  9.9905783211920873e-01  9.9905622532196392e-01  9.9905500902009958e-01  9.9905428996352974e-01  9.9905333574038169e-01  9.9905217854925854e-01  9.9905062359622687e-01  9.9904830124973665e-01  9.9904446016605386e-01  9.9903732906797971e-01  9.9902302955937095e-01  9.9899318768479206e-01  9.9891958906727996e-01  9.9875908925297008e-01  9.9852282152266902e-01  9.9823770189888894e-01  9.9776622270833382e-01  9.9696064890837555e-01  9.9604382780067668e-01  9.9540555926664276e-01  9.9511592827696549e-01  9.9499925674962442e-01  9.9493669740580892e-01  9.9489634801138649e-01  9.9486838960117807e-01  9.9484833385359950e-01  9.9483297024953721e-01  9.9482031589779119e-01  9.9481002292629528e-01  9.9480233906347282e-01  9.9479749864305755e-01  9.9479543502924295e-01  9.9479521209871069e-01  9.9479496142441404e-01  9.9479302005726133e-01  9.9478901410619669e-01  9.9478377373676941e-01  9.9477852809984690e-01  9.9477415833140692e-01  9.9477096643073371e-01  9.9476890921885752e-01  9.9476783422765547e-01  9.9476755501446201e-01  9.9476791879559112e-01  9.9476884485960682e-01  9.9477026643683308e-01  9.9477209444715642e-01  9.9477424962789107e-01  9.9477667135351355e-01  9.9477930712729201e-01  9.9478213614996447e-01  9.9478517214100948e-01  9.9478838766785305e-01  9.9479163825557770e-01  9.9479466173694431e-01  9.9479703832240951e-01  9.9479834300830805e-01  9.9479895504300753e-01  9.9480039737811876e-01  9.9480410884354009e-01  9.9481023164067206e-01  9.9481573521286193e-01  9.9482295738298798e-01  9.9481086427875909e-01  9.9481234309946265e-01  9.9481625565525778e-01  9.9452546609261516e-01  9.9379067547115452e-01  9.9294968928042837e-01  9.9262050915014499e-01  9.9250680426277127e-01  9.9249442136486388e-01  9.9410933579842875e-01  9.9683610009903445e-01  9.9807688222168056e-01  9.9612023309427944e-01  9.9324640364181649e-01  9.9506414467383375e-01  9.9967534095207888e-01  1.0007912723147943e+00  9.9990048210202565e-01  9.9994117109579617e-01  1.0000334609784443e+00  9.9996004217368917e-01  1.0000725508740145e+00  1.0000932096389457e+00  9.9973418544232406e-01  9.9966288621523480e-01  1.0009128599086725e+00  1.0018485639950265e+00  9.9992669422438041e-01  9.9543215332733337e-01  9.9239578785642413e-01  9.9393030215125988e-01  9.9483394723570462e-01  9.9323725262238638e-01  9.9552006524987613e-01  9.9984236038466423e-01  1.0006375069901878e+00  9.9987343883177804e-01  9.9991537626764693e-01  1.0000971037927311e+00  9.9999459408050173e-01  9.9963272394662750e-01  1.0008294146610843e+00  1.0005900512741568e+00  9.9466877438106527e-01  9.9693788596090804e-01  1.0166059156976319e+00  1.0284014876856769e+00  1.0148214404449465e+00  9.9635201293916975e-01  9.8995301375074307e-01  9.9314358289623261e-01  1.0019340390952318e+00  1.0129838256286325e+00  1.0218384145748365e+00  1.0255862093526260e+00  1.0264077345130320e+00  1.0268580523101372e+00  1.0270392973620057e+00  1.0270820797110314e+00  1.0270121870341709e+00  1.0267820643897585e+00  1.0263252089849737e+00  1.0256598075455565e+00  1.0249370657914700e+00  1.0243479217959721e+00  1.0240023536152758e+00  1.0238674139091601e+00  1.0238395668699194e+00  1.0239028433476138e+00  1.0241096860379466e+00  1.0244440832470882e+00  1.0248229812287690e+00  1.0251798164815125e+00  1.0255106038725765e+00  1.0258508563457034e+00  1.0262137568540797e+00  1.0265704634468800e+00  1.0268801063152457e+00  1.0271189086289647e+00  1.0272842013155874e+00  1.0273864965756501e+00  1.0274412211166835e+00  1.0274614087239833e+00  1.0274519463009502e+00  1.0274068889120487e+00  1.0273090232590374e+00  1.0271245279513104e+00  1.0267653010744135e+00  1.0260451781489379e+00  1.0248103729693561e+00  1.0232222163614908e+00  1.0217564379822714e+00  1.0207601040786098e+00  1.0201882707826717e+00  1.0198530463666926e+00  1.0196414008190204e+00  1.0194969875706139e+00  1.0193877478025148e+00  1.0192935306643636e+00  1.0191982777915791e+00  1.0190826750758382e+00  1.0188911630669331e+00  1.0185792013720740e+00  1.0176201739908621e+00  1.0148024051598714e+00  1.0104643886963360e+00  1.0067698563669272e+00  1.0046526575286479e+00  1.0037390708702789e+00  1.0035599358427167e+00  1.0035595432272086e+00  1.0035378406921998e+00  1.0035476225540039e+00  1.0035451257343022e+00  1.0035810351353929e+00  1.0042082346138144e+00  1.0056464430219965e+00  1.0073288128901914e+00  1.0076934149441250e+00  1.0067807888174645e+00  1.0038752616885880e+00  9.9706534287868820e-01  9.9462245812109862e-01  9.9927281781959598e-01  1.0009813653357542e+00  9.9984651086778520e-01  9.9993239424371483e-01  1.0000417522014529e+00  9.9997414586087818e-01  1.0000874643072151e+00  9.9979436394391985e-01  9.9999155152395469e-01  1.0012876343430748e+00  9.9793987715645727e-01  9.9493595167762305e-01  1.0124831440540245e+00  1.0239011374231017e+00  9.8959115722059299e-01  9.3530602641738980e-01  9.0403268012417559e-01  8.9714196781819389e-01  8.9793759846347843e-01  8.9889563817342211e-01  8.9896451561753765e-01  9.0015276520123610e-01  9.0090636768756460e-01  9.0065758803640628e-01  8.9972263079371306e-01  8.9884152692701624e-01  8.9869863518799964e-01  9.0001865915821211e-01  9.0589785080004714e-01  9.2129509873928617e-01  9.4058182652052824e-01  9.5220597080403058e-01  9.5354903022649917e-01  9.4721110146243492e-01  9.3678901917324131e-01  9.2597911293900870e-01  9.1732513395371673e-01  9.1162148585361102e-01  9.0833845029060944e-01  9.0664407391049773e-01  9.0596912198764235e-01  9.0600244931805529e-01  9.0645401053256147e-01  9.0684957728716620e-01  9.0663721519959550e-01  9.0559249938483155e-01  9.0404161836481778e-01  9.0253841591613870e-01  9.0137871837445371e-01  9.0054913933559255e-01  8.9994660789688874e-01  8.9949161912589970e-01  8.9914268989852586e-01  8.9889689036753573e-01  8.9879552805119112e-01  8.9894659445803871e-01  8.9958152551603343e-01  9.0112858625154346e-01  9.0422995568497322e-01  9.0940646019362426e-01  9.1610414795617123e-01  9.2240455902528462e-01  9.2673641961745634e-01  9.3014473937683195e-01  9.3792665106003059e-01  9.5307550252613271e-01  9.6898573869233950e-01  9.7938504660790571e-01  9.8464662850707207e-01  9.8642130534042605e-01  9.8669423139104295e-01  9.8675489537818484e-01  9.8668953672126580e-01  9.8642666041112892e-01  9.8366300876313595e-01  9.7516924572708219e-01  9.5843557624209652e-01  9.3908771725399698e-01  9.2788435233069022e-01  9.2407045478436400e-01  9.2138770262487335e-01  9.2494413553487176e-01  9.4791860739439870e-01  9.8878842581276871e-01  1.0167690978195771e+00  1.0094274257023008e+00  9.9691452782114831e-01  9.9947206673162681e-01  9.9980426052839400e-01  1.0103590566453846e+00  9.3219866467173640e-01  1.2709340555865567e+00  -6.2321398472787760e-02  2.0234835116253680e-02  -3.2879132282288212e-03  5.9295234279075129e-04  -4.1768473443393953e-04  3.3883365742898519e-04  -1.4181733940080716e-04  2.4807118755289512e-05  6.3202430284959317e-06  -5.9903836006272170e-06  2.0643246311694032e-06  -2.8647914286132268e-07  -9.9850393567223614e-08  8.4976871810464645e-08  -3.3857649336678181e-08  8.9574056077546336e-09  -1.2723367859457586e-09  -2.4064465103148848e-10  2.7021362112300872e-10  -1.3088538306241489e-10  4.8841084760466307e-11  -1.5658675322271148e-11  4.4831166360996204e-12  -1.1593120269828919e-12  2.6757335207578920e-13  -5.2070272040486267e-14  6.6914370629906635e-15  6.3553385106539658e-16  -9.3165709885339537e-16  4.7644632057971786e-16  -1.9215461974374079e-16  6.8981538235918646e-17  -2.2981747059589830e-17  7.2343884569862198e-18  -2.1667540425780340e-18  6.1708477983494526e-19  -1.6572156080982587e-19  4.1132220810696870e-20  -9.0103542192841687e-21  1.5208741918065128e-21  -6.6319902229473481e-23  -9.9895422659393049e-23  6.4077942882129431e-23  -2.8096720281602878e-23  1.0465086549066533e-23  -3.5113366167248843e-24  1.0833373586674104e-24  -3.0834491556227048e-25  8.0041251552973174e-26  -1.8279151274999511e-26  3.2916719184997066e-27  -2.4021572173712453e-28  -1.6043102005881463e-28  1.1445851243869899e-28  -5.1529526143606046e-29  1.9379100154957659e-29  -6.5247275443301695e-30  2.0143947703818291e-30  -5.7290573131222966e-31  1.4842537685044763e-31  -3.3751893839906310e-32  6.0035070709994702e-33  -3.9460934464119702e-34  -3.1882737112967661e-34  2.1965231119757914e-34  -9.7516397686120935e-35  3.6198085700347139e-35  -1.2003135417668957e-35  3.6406989360522150e-36  -1.0162385524534997e-36  2.5928208875450477e-37  -5.8744077271957543e-38  1.0833335230585155e-38  -1.1061617207365874e-39  -3.4663267159575706e-40  2.8200767755084046e-40  -1.2933509610893461e-40  6.0392150114890007e-41  -1.2084763534583242e-41  1.8031464267900413e-41  1.0000002379923245e+00  9.9999962884498916e-01  9.9999905166532144e-01  9.9999857066683584e-01  9.9999967563778047e-01  1.0000030052078392e+00  1.0000052865972962e+00  9.9999932064117492e-01  9.9998506396229525e-01  9.9998517941665044e-01  1.0000285610407185e+00  1.0000724226226696e+00  9.9998906830205336e-01  9.9974889202066175e-01  9.9981870500039749e-01  1.0005107698612354e+00  1.0008373321254025e+00  1.0002037655184124e+00  9.9938208425089292e-01  9.9883672440223692e-01  9.9877187543080337e-01  9.9924187212375626e-01  1.0001042859901697e+00  1.0009200175438120e+00  1.0008118801609376e+00  1.0001175108842661e+00  9.9977573761363381e-01  9.9979461919708335e-01  9.9993800807962407e-01  1.0000532935704309e+00  1.0000656152027025e+00  1.0000322664871160e+00  9.9999657235638417e-01  9.9998301349330276e-01  9.9999162595239044e-01  1.0000017144286935e+00  1.0000026371414061e+00  9.9999976438464877e-01  9.9999941779020729e-01  1.0000000775566515e+00  1.0000003013480283e+00  9.9999926895095115e-01  1.0000012655129586e+00  1.0000002171001430e+00  9.9998945470578982e-01  1.0000334916353659e+00  9.9997864412397197e-01  9.9984009669944585e-01  1.0003436209758410e+00  1.0008286386587468e+00  9.9886392623909204e-01  9.9602994258729283e-01  9.9712503734607305e-01  1.0006293182651438e+00  1.0020350648723266e+00  1.0018846057343194e+00  1.0019161614296002e+00  1.0017732989711843e+00  1.0007275248680811e+00  9.9915053035269086e-01  9.9771259500178844e-01  9.9663316022924564e-01  9.9618410147858294e-01  9.9615110072473723e-01  9.9613810106112788e-01  9.9613041436162675e-01  9.9614766847026293e-01  9.9618475750085644e-01  9.9627346187689825e-01  9.9646121328355508e-01  9.9675501566128444e-01  9.9708822531987118e-01  9.9740818518388519e-01  9.9772599529104933e-01  9.9804003531684971e-01  9.9831484393255832e-01  9.9857006938010029e-01  9.9893033072176740e-01  9.9954302564808717e-01  1.0003742236545199e+00  1.0011375612788078e+00  1.0015884996473809e+00  1.0017647351818142e+00  1.0018219797945609e+00  1.0018429735615926e+00  1.0018495684344915e+00  1.0018479907694269e+00  1.0018392859905996e+00  1.0018210714307496e+00  1.0017858248963554e+00  1.0017168889382808e+00  1.0015810914413823e+00  1.0013258303482764e+00  1.0009143883198499e+00  1.0003987825656817e+00  9.9992393023773374e-01  9.9961999287571135e-01  9.9953288936666795e-01  9.9971169757386658e-01  1.0002535575312190e+00  1.0010344064106884e+00  1.0016358131796896e+00  1.0018567156030187e+00  1.0018829607173705e+00  1.0018858025809634e+00  1.0018891008834849e+00  1.0018906144134612e+00  1.0018923433157012e+00  1.0018944152067533e+00  1.0018970694771605e+00  1.0019008198346524e+00  1.0019067345349906e+00  1.0019170698079813e+00  1.0019371981253617e+00  1.0019784548201349e+00  1.0020706728121558e+00  1.0022944215171150e+00  1.0027071054289927e+00  1.0032260344270649e+00  1.0039163377607607e+00  1.0051858187106000e+00  1.0070272093097610e+00  1.0086582032006923e+00  1.0095452409605516e+00  1.0099045662004102e+00  1.0100713507093222e+00  1.0101707546927379e+00  1.0102376577696013e+00  1.0102848324943638e+00  1.0103194860194722e+00  1.0103472783562146e+00  1.0103702773624879e+00  1.0103883263779860e+00  1.0104008956469108e+00  1.0104077213775500e+00  1.0104096181638285e+00  1.0104095473132035e+00  1.0104114523355607e+00  1.0104174997273412e+00  1.0104270610570449e+00  1.0104378466296167e+00  1.0104476030367469e+00  1.0104551747037325e+00  1.0104603922289270e+00  1.0104634797852976e+00  1.0104647854150683e+00  1.0104646730299134e+00  1.0104633706462709e+00  1.0104610021586886e+00  1.0104577288774224e+00  1.0104537297487386e+00  1.0104491384672456e+00  1.0104440690946119e+00  1.0104386057717654e+00  1.0104327461441829e+00  1.0104264755238719e+00  1.0104199562742679e+00  1.0104136042565921e+00  1.0104080722435738e+00  1.0104043104165630e+00  1.0104026638757955e+00  1.0104011008019609e+00  1.0103961751203987e+00  1.0103861838395780e+00  1.0103731992101967e+00  1.0103630006393793e+00  1.0103548274658380e+00  1.0103949294566512e+00  1.0103544812779448e+00  1.0105278471602348e+00  1.0115922889987070e+00  1.0132981069012985e+00  1.0146472329467575e+00  1.0147629928312001e+00  1.0151591291229740e+00  1.0140495367518263e+00  1.0089571951209304e+00  1.0044413955719038e+00  1.0048497911663894e+00  1.0111278666190142e+00  1.0135407335714717e+00  1.0048059601100716e+00  9.9824030853937029e-01  9.9959796298918668e-01  1.0003343689994331e+00  9.9987514617293516e-01  1.0000738642569822e+00  9.9999300329571283e-01  9.9976271817591866e-01  1.0000542847490665e+00  1.0008651109968638e+00  9.9982270768192616e-01  9.9668298748691708e-01  9.9735154346146915e-01  1.0042280152042005e+00  1.0133142837733877e+00  1.0148171249180362e+00  1.0097771010821119e+00  1.0121372798239421e+00  1.0129739560661009e+00  1.0039260416807374e+00  9.9846809104523127e-01  9.9976148837597500e-01  1.0003417534997654e+00  9.9992684638503149e-01  9.9982685706269259e-01  1.0003244468261157e+00  1.0003653769631999e+00  9.9703499144314656e-01  1.0034457602133002e+00  1.0137839480259621e+00  9.8976504905195772e-01  9.4774751703184523e-01  9.5133434183982679e-01  9.9182458651290206e-01  1.0167321475717355e+00  1.0186610132583258e+00  1.0059647116299815e+00  9.8516946682188411e-01  9.6399282945717679e-01  9.5120690932767538e-01  9.4791138807050457e-01  9.4664327755901068e-01  9.4605904957305120e-01  9.4585299233033970e-01  9.4587502633847043e-01  9.4615634050861186e-01  9.4682876831253282e-01  9.4797466876488179e-01  9.4941477121021756e-01  9.5077016674459969e-01  9.5171635816410349e-01  9.5216891313749452e-01  9.5230788489242013e-01  9.5228828586942948e-01  9.5202855763378802e-01  9.5146892095501256e-01  9.5073249567035634e-01  9.4998661077902802e-01  9.4930714722575293e-01  9.4864570474290144e-01  9.4793954585665074e-01  9.4720852368480868e-01  9.4653315438988217e-01  9.4598184062644974e-01  9.4557927967123157e-01  9.4531541377968997e-01  9.4516238527721674e-01  9.4508999872290833e-01  9.4507919139631602e-01  9.4513082088281053e-01  9.4526802760104145e-01  9.4553919419015808e-01  9.4605005978917667e-01  9.4706918393744977e-01  9.4900744459384323e-01  9.5192773924286511e-01  9.5512220619684018e-01  9.5761731963628483e-01  9.5913001374540607e-01  9.5999859868391912e-01  9.6052742641514754e-01  9.6087335415913033e-01  9.6112110881825263e-01  9.6132038865670522e-01  9.6150600655314922e-01  9.6171105720200234e-01  9.6199619714121809e-01  9.6249937543401798e-01  9.6350735192085357e-01  9.6694132284057777e-01  9.7460918033620114e-01  9.8321152281138280e-01  9.8892038497533519e-01  9.9186717882010922e-01  9.9280931188336374e-01  9.9286157353973459e-01  9.9291090851117325e-01  9.9292198652160790e-01  9.9289366260312306e-01  9.9290663134926249e-01  9.9247358307049238e-01  9.9028797400936219e-01  9.8700417317263678e-01  9.8433945917372156e-01  9.8552549514006649e-01  9.8834780009117273e-01  9.9810334899497699e-01  1.0114517624641062e+00  1.0065117828234482e+00  9.9786785198933059e-01  9.9962838765970763e-01  1.0003751999471933e+00  9.9988348578703468e-01  1.0000379875563008e+00  9.9997496660672291e-01  9.9987838556922459e-01  1.0006990146834227e+00  9.9878533160120675e-01  9.9838605102935496e-01  1.0096825244909162e+00  1.0002981098709653e+00  9.5283391341658807e-01  9.7442552367679003e-01  1.0771974227411769e+00  1.1700725793342603e+00  1.2016053831743605e+00  1.2059835740063143e+00  1.2021848269763811e+00  1.2026771999615409e+00  1.2009050498997278e+00  1.1987012116387579e+00  1.1981745077594628e+00  1.1995382280194606e+00  1.2015443210351868e+00  1.2027204634535935e+00  1.2017535344505332e+00  1.1958922367142175e+00  1.1757573095334557e+00  1.1371174955233163e+00  1.1043863500937885e+00  1.0919300598642840e+00  1.0977139953575030e+00  1.1154833770578632e+00  1.1375542331098594e+00  1.1574512005021169e+00  1.1717730000791544e+00  1.1805306843917942e+00  1.1853211373298704e+00  1.1875928171367602e+00  1.1881765224776515e+00  1.1876045323152766e+00  1.1866073918916726e+00  1.1862982321965456e+00  1.1875690533988912e+00  1.1903140037719047e+00  1.1934956597489275e+00  1.1961789050343161e+00  1.1981411472524757e+00  1.1995487599271579e+00  1.2005910280038081e+00  1.2013894585635589e+00  1.2019882114694316e+00  1.2023520043131535e+00  1.2023396661607182e+00  1.2016320216954475e+00  1.1995858101663377e+00  1.1951226897708442e+00  1.1869199195781797e+00  1.1746936478381267e+00  1.1610883986014227e+00  1.1502776405012340e+00  1.1432384514318006e+00  1.1339957950940516e+00  1.1106141307727175e+00  1.0767031667721831e+00  1.0501093425836210e+00  1.0349193339929061e+00  1.0282376045116906e+00  1.0268280495179634e+00  1.0265011559495920e+00  1.0265422738596903e+00  1.0267983380818444e+00  1.0287454079425609e+00  1.0394676126989135e+00  1.0639753576172046e+00  1.1035894321659041e