<?xml version="1.0"?>
<VTKFile type="UnstructuredGrid"  version="0.1"  >
<UnstructuredGrid>
<Piece  NumberOfPoints="28121" NumberOfCells="55200">
<Points>
<DataArray  type="Float64"  NumberOfComponents="3"  format="ascii">0 0 0  0.008260869565217391 0 0  0.01652173913043478 0 0  0.02478260869565217 0 0  0.03304347826086956 0 0  0.04130434782608695 0 0  0.04956521739130434 0 0  0.05782608695652174 0 0  0.06608695652173913 0 0  0.07434782608695652 0 0  0.08260869565217391 0 0  0.0908695652173913 0 0  0.09913043478260869 0 0  0.1073913043478261 0 0  0.1156521739130435 0 0  0.1239130434782609 0 0  0.1321739130434783 0 0  0.1404347826086956 0 0  0.148695652173913 0 0  0.1569565217391304 0 0  0.1652173913043478 0 0  0.1734782608695652 0 0  0.1817391304347826 0 0  0.19 0 0  0.1982608695652174 0 0  0.2065217391304348 0 0  0.2147826086956522 0 0  0.2230434782608696 0 0  0.2313043478260869 0 0  0.2395652173913043 0 0  0.2478260869565218 0 0  0.2560869565217391 0 0  0.2643478260869565 0 0  0.2726086956521739 0 0  0.2808695652173913 0 0  0.2891304347826087 0 0  0.2973913043478261 0 0  0.3056521739130434 0 0  0.3139130434782609 0 0  0.3221739130434783 0 0  0.3304347826086956 0 0  0.338695652173913 0 0  0.3469565217391304 0 0  0.3552173913043478 0 0  0.3634782608695652 0 0  0.3717391304347826 0 0  0.3799999999999999 0 0  0.3882608695652174 0 0  0.3965217391304348 0 0  0.4047826086956521 0 0  0.4130434782608696 0 0  0.4213043478260869 0 0  0.4295652173913043 0 0  0.4378260869565217 0 0  0.4460869565217391 0 0  0.4543478260869565 0 0  0.4626086956521739 0 0  0.4708695652173913 0 0  0.4791304347826086 0 0  0.4873913043478261 0 0  0.4956521739130435 0 0  0.5039130434782608 0 0  0.5121739130434783 0 0  0.5204347826086956 0 0  0.528695652173913 0 0  0.5369565217391304 0 0  0.5452173913043478 0 0  0.5534782608695652 0 0  0.5617391304347825 0 0  0.57 0 0  0.5782608695652174 0 0  0.5865217391304348 0 0  0.5947826086956521 0 0  0.6030434782608696 0 0  0.6113043478260869 0 0  0.6195652173913043 0 0  0.6278260869565218 0 0  0.6360869565217391 0 0  0.6443478260869565 0 0  0.6526086956521739 0 0  0.6608695652173913 0 0  0.6691304347826087 0 0  0.677391304347826 0 0  0.6856521739130435 0 0  0.6939130434782609 0 0  0.7021739130434783 0 0  0.7104347826086956 0 0  0.718695652173913 0 0  0.7269565217391304 0 0  0.7352173913043478 0 0  0.7434782608695653 0 0  0.7517391304347827 0 0  0.7599999999999999 0 0  0.7682608695652173 0 0  0.7765217391304348 0 0  0.7847826086956522 0 0  0.7930434782608695 0 0  0.8013043478260868 0 0  0.8095652173913043 0 0  0.8178260869565217 0 0  0.8260869565217391 0 0  0.8343478260869565 0 0  0.8426086956521739 0 0  0.8508695652173912 0 0  0.8591304347826086 0 0  0.8673913043478261 0 0  0.8756521739130434 0 0  0.8839130434782608 0 0  0.8921739130434783 0 0  0.9004347826086956 0 0  0.908695652173913 0 0  0.9169565217391303 0 0  0.9252173913043478 0 0  0.9334782608695652 0 0  0.9417391304347826 0 0  0.95 0 0  0.9582608695652173 0 0  0.9665217391304347 0 0  0.9747826086956521 0 0  0.9830434782608696 0 0  0.991304347826087 0 0  0.9995652173913042 0 0  1.007826086956522 0 0  1.016086956521739 0 0  1.024347826086957 0 0  1.032608695652174 0 0  1.040869565217391 0 0  1.049130434782609 0 0  1.057391304347826 0 0  1.065652173913043 0 0  1.073913043478261 0 0  1.082173913043478 0 0  1.090434782608696 0 0  1.098695652173913 0 0  1.10695652173913 0 0  1.115217391304348 0 0  1.123478260869565 0 0  1.131739130434783 0 0  1.14 0 0  1.148260869565217 0 0  1.156521739130435 0 0  1.164782608695652 0 0  1.17304347826087 0 0  1.181304347826087 0 0  1.189565217391304 0 0  1.197826086956522 0 0  1.206086956521739 0 0  1.214347826086956 0 0  1.222608695652174 0 0  1.230869565217391 0 0  1.239130434782609 0 0  1.247391304347826 0 0  1.255652173913044 0 0  1.263913043478261 0 0  1.272173913043478 0 0  1.280434782608696 0 0  1.288695652173913 0 0  1.296956521739131 0 0  1.305217391304348 0 0  1.313478260869565 0 0  1.321739130434783 0 0  1.33 0 0  1.338260869565217 0 0  1.346521739130435 0 0  1.354782608695652 0 0  1.36304347826087 0 0  1.371304347826087 0 0  1.379565217391304 0 0  1.387826086956522 0 0  1.396086956521739 0 0  1.404347826086957 0 0  1.412608695652174 0 0  1.420869565217391 0 0  1.429130434782609 0 0  1.437391304347826 0 0  1.445652173913043 0 0  1.453913043478261 0 0  1.462173913043478 0 0  1.470434782608696 0 0  1.478695652173913 0 0  1.486956521739131 0 0  1.495217391304348 0 0  1.503478260869565 0 0  1.511739130434782 0 0  1.52 0 0  1.528260869565217 0 0  1.536521739130435 0 0  1.544782608695652 0 0  1.55304347826087 0 0  1.561304347826087 0 0  1.569565217391304 0 0  1.577826086956522 0 0  1.586086956521739 0 0  1.594347826086957 0 0  1.602608695652174 0 0  1.610869565217391 0 0  1.619130434782609 0 0  1.627391304347826 0 0  1.635652173913043 0 0  1.643913043478261 0 0  1.652173913043478 0 0  1.660434782608696 0 0  1.668695652173913 0 0  1.67695652173913 0 0  1.685217391304348 0 0  1.693478260869565 0 0  1.701739130434782 0 0  1.71 0 0  1.718260869565217 0 0  1.726521739130435 0 0  1.734782608695652 0 0  1.743043478260869 0 0  1.751304347826087 0 0  1.759565217391304 0 0  1.767826086956522 0 0  1.776086956521739 0 0  1.784347826086957 0 0  1.792608695652174 0 0  1.800869565217391 0 0  1.809130434782608 0 0  1.817391304347826 0 0  1.825652173913043 0 0  1.833913043478261 0 0  1.842173913043478 0 0  1.850434782608696 0 0  1.858695652173913 0 0  1.86695652173913 0 0  1.875217391304348 0 0  1.883478260869565 0 0  1.891739130434782 0 0  1.9 0 0  1.908260869565217 0 0  1.916521739130435 0 0  1.924782608695652 0 0  1.933043478260869 0 0  1.941304347826087 0 0  1.949565217391304 0 0  1.957826086956522 0 0  1.966086956521739 0 0  1.974347826086956 0 0  1.982608695652174 0 0  1.990869565217391 0 0  1.999130434782608 0 0  2.007391304347826 0 0  2.015652173913043 0 0  2.023913043478261 0 0  2.032173913043478 0 0  2.040434782608695 0 0  2.048695652173913 0 0  2.05695652173913 0 0  2.065217391304348 0 0  2.073478260869565 0 0  2.081739130434782 0 0  2.09 0 0  2.098260869565217 0 0  2.106521739130435 0 0  2.114782608695652 0 0  2.12304347826087 0 0  2.131304347826087 0 0  2.139565217391304 0 0  2.147826086956522 0 0  2.156086956521739 0 0  2.164347826086956 0 0  2.172608695652174 0 0  2.180869565217391 0 0  2.189130434782609 0 0  2.197391304347826 0 0  2.205652173913043 0 0  2.213913043478261 0 0  2.222173913043478 0 0  2.230434782608695 0 0  2.238695652173913 0 0  2.24695652173913 0 0  2.255217391304348 0 0  2.263478260869565 0 0  2.271739130434783 0 0  2.28 0 0  2.288260869565217 0 0  2.296521739130434 0 0  2.304782608695652 0 0  2.31304347826087 0 0  2.321304347826087 0 0  2.329565217391304 0 0  2.337826086956521 0 0  2.346086956521739 0 0  2.354347826086956 0 0  2.362608695652174 0 0  2.370869565217391 0 0  2.379130434782609 0 0  2.387391304347826 0 0  2.395652173913044 0 0  2.403913043478261 0 0  2.412173913043478 0 0  2.420434782608695 0 0  2.428695652173913 0 0  2.43695652173913 0 0  2.445217391304348 0 0  2.453478260869565 0 0  2.461739130434782 0 0  2.47 0 0  2.478260869565217 0 0  2.486521739130435 0 0  2.494782608695652 0 0  2.503043478260869 0 0  2.511304347826087 0 0  2.519565217391305 0 0  2.527826086956522 0 0  2.536086956521739 0 0  2.544347826086956 0 0  2.552608695652174 0 0  2.560869565217391 0 0  2.569130434782608 0 0  2.577391304347826 0 0  2.585652173913043 0 0  2.593913043478261 0 0  2.602173913043478 0 0  2.610434782608696 0 0  2.618695652173913 0 0  2.62695652173913 0 0  2.635217391304348 0 0  2.643478260869565 0 0  2.651739130434783 0 0  2.66 0 0  2.668260869565217 0 0  2.676521739130435 0 0  2.684782608695652 0 0  2.693043478260869 0 0  2.701304347826087 0 0  2.709565217391304 0 0  2.717826086956522 0 0  2.726086956521739 0 0  2.734347826086956 0 0  2.742608695652174 0 0  2.750869565217391 0 0  2.759130434782609 0 0  2.767391304347826 0 0  2.775652173913044 0 0  2.783913043478261 0 0  2.792173913043478 0 0  2.800434782608696 0 0  2.808695652173913 0 0  2.81695652173913 0 0  2.825217391304347 0 0  2.833478260869565 0 0  2.841739130434783 0 0  2.85 0 0  2.858260869565217 0 0  2.866521739130435 0 0  2.874782608695652 0 0  2.88304347826087 0 0  2.891304347826087 0 0  2.899565217391304 0 0  2.907826086956522 0 0  2.916086956521739 0 0  2.924347826086957 0 0  2.932608695652174 0 0  2.940869565217391 0 0  2.949130434782608 0 0  2.957391304347826 0 0  2.965652173913043 0 0  2.973913043478261 0 0  2.982173913043478 0 0  2.990434782608696 0 0  2.998695652173913 0 0  3.006956521739131 0 0  3.015217391304348 0 0  3.023478260869565 0 0  3.031739130434782 0 0  3.04 0 0  3.048260869565218 0 0  3.056521739130435 0 0  3.064782608695652 0 0  3.073043478260869 0 0  3.081304347826087 0 0  3.089565217391304 0 0  3.097826086956522 0 0  3.106086956521739 0 0  3.114347826086956 0 0  3.122608695652174 0 0  3.130869565217391 0 0  3.139130434782609 0 0  3.147391304347826 0 0  3.155652173913043 0 0  3.163913043478261 0 0  3.172173913043478 0 0  3.180434782608696 0 0  3.188695652173913 0 0  3.19695652173913 0 0  3.205217391304347 0 0  3.213478260869565 0 0  3.221739130434782 0 0  3.23 0 0  3.238260869565217 0 0  3.246521739130435 0 0  3.254782608695652 0 0  3.26304347826087 0 0  3.271304347826087 0 0  3.279565217391304 0 0  3.287826086956521 0 0  3.296086956521739 0 0  3.304347826086957 0 0  3.312608695652174 0 0  3.320869565217391 0 0  3.329130434782608 0 0  3.337391304347826 0 0  3.345652173913043 0 0  3.353913043478261 0 0  3.362173913043478 0 0  3.370434782608696 0 0  3.378695652173913 0 0  3.386956521739131 0 0  3.395217391304348 0 0  3.403478260869565 0 0  3.411739130434782 0 0  3.419999999999999 0 0  3.428260869565217 0 0  3.436521739130435 0 0  3.444782608695652 0 0  3.453043478260869 0 0  3.461304347826087 0 0  3.469565217391304 0 0  3.477826086956522 0 0  3.486086956521739 0 0  3.494347826086956 0 0  3.502608695652174 0 0  3.510869565217391 0 0  3.519130434782609 0 0  3.527391304347826 0 0  3.535652173913043 0 0  3.54391304347826
[...]
<PointData  Scalars="rho"> 
<DataArray  type="Float64"  Name="rho"  format="ascii">9.9996596046757158e-01  9.9994838791811347e-01  9.9994708060498150e-01  9.9996017114285796e-01  9.9995901483791871e-01  9.9995843164758602e-01  9.9995886556761371e-01  9.9966168242818554e-01  9.9985757158346700e-01  9.9733811731689603e-01  9.9661393171811652e-01  9.9583804298734335e-01  9.9498716711257384e-01  9.9429460798702263e-01  9.9403358918391060e-01  9.9298334120817811e-01  9.8894343526965267e-01  9.7859008584097740e-01  9.7515836891902419e-01  9.7537437201166166e-01  9.7853640407210829e-01  9.8508663634883442e-01  9.9367753137947945e-01  9.9693762088038362e-01  9.9864800036536394e-01  9.9992414279591757e-01  9.9999820088066926e-01  9.9999871032736687e-01  9.9999884942031103e-01  9.9999893599147638e-01  9.9999898744066396e-01  9.9999901775426359e-01  9.9999885280213952e-01  9.9999886672415095e-01  9.9999887327853876e-01  9.9999864316128129e-01  9.9999861819009561e-01  9.9999855542678140e-01  9.9999712419806219e-01  9.9999524876190815e-01  9.9999281630844439e-01  9.9998972161072952e-01  9.9998587103602665e-01  9.9973920369114633e-01  9.9700974858911873e-01  7.5191483547406646e-01  4.8816851378685849e-01  3.7872524647711941e-01  5.0699458432678468e-01  8.2922796942175614e-01  9.8474787029507149e-01  9.8889438217359016e-01  9.9224905522543205e-01  9.8255089628889913e-01  9.9678271273087704e-01  9.9998396869532880e-01  9.9998716477816940e-01  9.9999004478504838e-01  9.9999257939228203e-01  9.9999309258234359e-01  9.9999330141192566e-01  9.9999194065685471e-01  9.9999175492835557e-01  9.9999151700207778e-01  9.9998969838241958e-01  9.9998684670191240e-01  9.9920026246746996e-01  9.9868224563729957e-01  9.9835555196499859e-01  9.9598669711369359e-01  9.9548433870368913e-01  9.9522237385133350e-01  9.9499271697868641e-01  9.9479010601741480e-01  9.9457127316762695e-01  9.9258900596898891e-01  9.9233841732200334e-01  9.9210087450577444e-01  9.9190476330317801e-01  9.9176627185011146e-01  9.9267424523617764e-01  9.9363704424397148e-01  9.8978344034353927e-01  9.8986297937409895e-01  9.8999268480054914e-01  9.9012187875075486e-01  9.8935991258239908e-01  9.8980986012631333e-01  9.9043313118223719e-01  9.8510544189608573e-01  9.8466939669060383e-01  9.8535717409203594e-01  9.8513830003226233e-01  9.8527218603768840e-01  9.8575048389100139e-01  9.8664422626441783e-01  9.8789534599464057e-01  9.8944368919063086e-01  9.9118854192563477e-01  9.9298990231199713e-01  9.9468030762688264e-01  9.9609452989676683e-01  9.9711520196450276e-01  9.9770640419231427e-01  9.9944588791823297e-01  9.9744954547352638e-01  9.9516819863194950e-01  9.9309061828106582e-01  9.9129212552736068e-01  9.8987588934918547e-01  9.8878447934229641e-01  9.8981295084766074e-01  9.9173398117444811e-01  9.9071819922568383e-01  9.8713200350450037e-01  9.8664906934528673e-01  9.8626334862742338e-01  9.8879596668577474e-01  9.8760647999681772e-01  9.8743597730616595e-01  9.8750567105368858e-01  9.8740996585055574e-01  9.8544763190740436e-01  9.8497776138250825e-01  9.8451228418755021e-01  9.8404222467976121e-01  9.8356281393734279e-01  9.8304833677558900e-01  9.8253465147760477e-01  9.8201920166577206e-01  9.8019808009938858e-01  9.7935429990025835e-01  9.7803506177030886e-01  9.7683992132013442e-01  9.7517506569585655e-01  9.8533101804963763e-01  9.8464305965542298e-01  9.8470011578369021e-01  9.8428695845101355e-01  9.8439008805249129e-01  9.8403579475458791e-01  9.8374766782908130e-01  9.8352299763111350e-01  9.8335272193205037e-01  9.8322368257074189e-01  9.8183651717571574e-01  9.8168268296605199e-01  9.7866021141689952e-01  9.7862688883579318e-01  9.7858504398979695e-01  9.7854992355774650e-01  9.7888475671841046e-01  9.7923006793050549e-01  9.7989922276346697e-01  9.8096215597825109e-01  9.8206560033563051e-01  9.8320930940017159e-01  9.8072576209626272e-01  9.8046622750707180e-01  9.8105721693806880e-01  9.8177790234125395e-01  9.8255215950950359e-01  9.8345444101687274e-01  9.7970667259035149e-01  9.8311218244637766e-01  9.8423248021217347e-01  9.8076427583537995e-01  9.8815382772907034e-01  9.9010173101595800e-01  9.9247314908335160e-01  9.9529583279648470e-01  9.8915820796532405e-01  9.8932864886998562e-01  9.9010092758672352e-01  9.9390148034980086e-01  9.9673185527404973e-01  9.9809564119092253e-01  9.9765732386264394e-01  9.7971100585907001e-01  9.9851135387730283e-01  9.8671117354906157e-01  9.7365635108053150e-01  9.5150495820903558e-01  8.7022957041176707e-01  8.8485560199980440e-01  9.0558697633153007e-01  9.4351632324147416e-01  9.7457880379589790e-01  9.9152754729601589e-01  9.9438255928867647e-01  9.9724977131521619e-01  9.9617142160392147e-01  9.9630732778210374e-01  9.9596054305485981e-01  9.9526568687800243e-01  9.8755430713587711e-01  9.7846321636472944e-01  9.7078522827917746e-01  9.6582526313961770e-01  9.6440940192970293e-01  9.6511551930185513e-01  9.3151536836591908e-01  9.4990125413663185e-01  9.0403160563894480e-01  9.0497009932630468e-01  8.9912744399898081e-01  8.9823541915003979e-01  8.7171038329542438e-01  8.6305467436793526e-01  8.5994065741599968e-01  8.4840815236600919e-01  8.3778905351367805e-01  8.8895822884377185e-01  9.4369474984612978e-01  9.5507538976598294e-01  9.6178982710478667e-01  9.7518103383408405e-01  9.7392787885389787e-01  9.7594129303977140e-01  9.7838431166599493e-01  9.7950290323615241e-01  9.8024911537905524e-01  9.8747712853980074e-01  9.9501343599856584e-01  9.9246364988660807e-01  9.9168205651726882e-01  9.9109477671000068e-01  9.9070131415107388e-01  9.8875034720260302e-01  9.8665324989970815e-01  9.8577456875316782e-01  9.8208016677292187e-01  9.8210279351287744e-01  9.8208169738006679e-01  9.8196110179081464e-01  9.8170108370697251e-01  9.8131220174251643e-01  9.8080054063581623e-01  9.7239663075389515e-01  9.7196900881941173e-01  9.7157968852383503e-01  9.7118986625479164e-01  9.7087239823765381e-01  9.7057569157067447e-01  9.7030388789349331e-01  9.7795629326180633e-01  9.7774133345812808e-01  9.7756719301862405e-01  9.7746276021152312e-01  9.7743294573328621e-01  9.7740000132821070e-01  9.7732049436912927e-01  9.7711849137411722e-01  9.7672377896146156e-01  9.7608781191816951e-01  9.7522461454771181e-01  9.7422373145442032e-01  9.7324436724483665e-01  9.6923940092816763e-01  9.6893200109496824e-01  9.6906544116081517e-01  9.6965018722458729e-01  9.7063730372554435e-01  9.7193073934627783e-01  9.7339932646373950e-01  9.7481396354115868e-01  9.7615083898166100e-01  9.7718356279248864e-01  9.6477615731298305e-01  9.6530498829190559e-01  9.6550615248474614e-01  9.7826442179821704e-01  9.6828156146270816e-01  9.6883482646137820e-01  9.7007825114368218e-01  9.6094952425606039e-01  9.6560345164346006e-01  9.7074327641992886e-01  9.7608659680370480e-01  9.8219846641916386e-01  9.8280488499674024e-01  9.7969017606606223e-01  9.8719898090202629e-01  9.9566424506404960e-01  9.9662031453545130e-01  9.7465993367897352e-01  9.4398412389088271e-01  9.2891215124179460e-01  8.5427505743895826e-01  8.6405085238460622e-01  8.6414691540242639e-01  8.5906748962584789e-01  8.5839611897029688e-01  8.6299012967690625e-01  8.9558581265614090e-01  8.8677561385161019e-01  8.8831082090804470e-01  8.8944855214565544e-01  9.0045642830004080e-01  8.9901940158432880e-01  8.9598154180720868e-01  8.5886534078065013e-01  8.0604323527041910e-01  8.6754694004827615e-01  9.2073260968636150e-01  9.1557135276842883e-01  9.8458209979663780e-01  9.8519317529431649e-01  9.8503658342975098e-01  9.8576265250025075e-01  9.8398022669094998e-01  9.8290080852343897e-01  9.7641551924035308e-01  9.7434346767013658e-01  9.7644326417940142e-01  9.7759777559750505e-01  9.7958320231967577e-01  9.7887675380160510e-01  9.8029140808118898e-01  9.6715966335918890e-01  9.7038845298120313e-01  9.7440805378196971e-01  9.7837941851992449e-01  9.8003081547878124e-01  9.7486445830731461e-01  9.7388213578040184e-01  9.6994622782889495e-01  9.7380850585086398e-01  9.7322826436432308e-01  9.7532667292938235e-01  9.7879470389513190e-01  9.7480499035573853e-01  9.5763350619616561e-01  9.5423226493763968e-01  9.5165263328155636e-01  9.5571272102938587e-01  9.5541287221592752e-01  9.6264596659242363e-01  9.6344978178644614e-01  9.6474688000908082e-01  9.6632532581015573e-01  9.6783580572943329e-01  9.7180033303467706e-01  9.7288041470997177e-01  9.7447899467775456e-01  9.7509923612595162e-01  9.7555128857329543e-01  9.7566515431881617e-01  9.7581963009739359e-01  9.7586195293530165e-01  9.7580364230750549e-01  9.7562432096638696e-01  9.7467032493372308e-01  9.7430847262314901e-01  9.7404554028172508e-01  9.7379150735895170e-01  9.7362473290645313e-01  9.7364015714167174e-01  9.7393464364468751e-01  9.7514294676054036e-01  9.7658946022922899e-01  9.7859478010847700e-01  9.8678972865072501e-01  9.8865515076438670e-01  9.9067321435488365e-01  9.9235129004976286e-01  9.9335581884913393e-01  9.9258440722248809e-01  9.9181659705529024e-01  9.8897336713269068e-01  9.8107997095589694e-01  9.0726582359527974e-01  9.2207247829453887e-01  8.8709325134307615e-01  8.7424435281140578e-01  6.8102172985822018e-01  6.0144051360548878e-01  5.8707624949003190e-01  4.0034370041477296e-01  3.8278319383974563e-01  3.6496511879146504e-01  3.2996621587551628e-01  3.2349793044631148e-01  2.7521358666848950e-01  2.2540989724811733e-01  1.8622370164830611e-03  3.2309836468196115e-03  2.2959072060518217e-03  2.5922057378897777e-03  3.4685058955360943e-03  3.5280920035706664e-03  3.1962353822738909e-03  7.0061482249260581e-03  9.0678894714280867e-03  9.5263999658693112e-03  8.8949955916471698e-03  1.2570149912501995e-02  1.0816150234821078e-02  9.1306508285461680e-03  5.6836196416466239e-03  6.9270606155521844e-03  4.3414542718531544e-03  4.6471876718313602e-03  3.7449894047584336e-03  2.7803655678926534e-03  1.9791557648822823e-03  1.5154462756947675e-03  5.4793137568111012e-04  3.5457717081213989e-04  2.2656470194861339e-04  1.7474003980635903e-04  1.3409046720808508e-04  9.3498057884338481e-05  4.6763254503502670e-05  3.3670326004749442e-05  2.3828685454256014e-05  1.5998755158232362e-05  9.9895704262763760e-06  5.5133526007785736e-06  2.8452916093359193e-06  1.8618327915713290e-06  1.6914721161582119e-06  1.1032507926601901e-06  0.0000000000000000e+00  0.0000000000000000e+00  0.0000000000000000e+00  0.0000000000000000e+00  0.0000000000000000e+00  0.0000000000000000e+00  0.0000000000000000e+00  0.0000000000000000e+00  0.0000000000000000e+00  0.0000000000000000e+00  0.0000000000000000e+00  0.0000000000000000e+00  0.0000000000000000e+00  0.0000000000000000e+00  0.0000000000000000e+00  0.0000000000000000e+00  0.0000000000000000e+00  0.0000000000000000e+00  0.0000000000000000e+00  0.0000000000000000e+00  0.0000000000000000e+00  0.0000000000000000e+00  0.0000000000000000e+00  0.0000000000000000e+00  0.0000000000000000e+00  0.0000000000000000e+00  0.0000000000000000e+00  0.0000000000000000e+00  0.0000000000000000e+00  0.0000000000000000e+00  0.0000000000000000e+00  0.0000000000000000e+00  0.0000000000000000e+00  0.0000000000000000e+00  0.0000000000000000e+00  0.0000000000000000e+00  0.0000000000000000e+00  0.0000000000000000e+00  9.9994679042197698e-01  9.9989401352699203e-01  9.9989119053143061e-01  9.9991788872072995e-01  9.9991496202314956e-01  9.9991307514964223e-01  9.9991322967792740e-01  9.9990110992071168e-01  9.9989169611809547e-01  9.9419242409554931e-01  9.9350522548757847e-01  9.9181663884702931e-01  9.9010460398886380e-01  9.8869972910197723e-01  9.8711705172928699e-01  9.8600264691567241e-01  9.7793731146589247e-01  9.5696226927799488e-01  9.5170731637725725e-01  9.4813345193840393e-01  9.5323517436632010e-01  9.6685326257266868e-01  9.8203006606634302e-01  9.9257160361048336e-01  9.9755057027148430e-01  9.9998342219934455e-01  9.9999626911288053e-01  9.9999733700364823e-01  9.9999762759835165e-01  9.9999780425846618e-01  9.9999790638614550e-01  9.9999796534417240e-01  9.9999762163735439e-01  9.9999765207084246e-01  9.9999767145464835e-01  9.9999720821739557e-01  9.9999717430103685e-01  9.9999708250262453e-01  9.9999495507286573e-01  9.9999133360455061e-01  9.9998658333500379e-01  9.9998047920676991e-01  9.9997281400755078e-01  9.9996822153090859e-01  9.9498540404074531e-01  8.2734644053771123e-01  3.2573683316042040e-01  2.1852634294280252e-01  2.2882104299903525e-01  5.4262531306357797e-01  9.6963252798345867e-01  9.6937075833569242e-01  9.5374982262228891e-01  9.4304121042148115e-01  9.9187729400756719e-01  9.9997049494006973e-01  9.9997250369617219e-01  9.9997943401564360e-01  9.9998477119100604e-01  9.9998588102595720e-01  9.9998632043450975e-01  9.9998625438604394e-01  9.9998304519905334e-01  9.9998244931221525e-01  9.9997729422308690e-01  9.9995256285874279e-01  9.9735484232358185e-01  9.9634306943884365e-01  9.9569903043701280e-01  9.9162845760991125e-01  9.9067115128661476e-01  9.9016437806974056e-01  9.8971950983137191e-01  9.8932243173991452e-01  9.8888480518933186e-01  9.8753817855066628e-01  9.8457726091016018e-01  9.8408163777651136e-01  9.8366108672013142e-01  9.8337119321797695e-01  9.8498074429770366e-01  9.8431566800509718e-01  9.7939774304824012e-01  9.7955640785567799e-01  9.7981318595969102e-01  9.8006649876301388e-01  9.7891091887029724e-01  9.7982587487687456e-01  9.8108973135870770e-01  9.7193279606760552e-01  9.7156058019816738e-01  9.7314929852234267e-01  9.7268156371770098e-01  9.7284987591644201e-01  9.7369699358126338e-01  9.7516463480497306e-01  9.7734769557685408e-01  9.8007604903078005e-01  9.8318068235455747e-01  9.8642721210697093e-01  9.8952880231110119e-01  9.9218894360204957e-01  9.9418527072985130e-01  9.9543671125366551e-01  9.9862241485258330e-01  9.9371387752662421e-01  9.9033781994926284e-01  9.8634929830397877e-01  9.8291715530594093e-01  9.8021770516066487e-01  9.7816425407572305e-01  9.8041025722898856e-01  9.8457876909826647e-01  9.8268032241342951e-01  9.7460880877979972e-01  9.7365160432975062e-01  9.7286892589360507e-01  9.7223794517662210e-01  9.7629919403331988e-01  9.7595036104760502e-01  9.7610700989133448e-01  9.7593318179142163e-01  9.7160240005865195e-01  9.7055012334695201e-01  9.6961550765424021e-01  9.6867463082957717e-01  9.6772028589838610e-01  9.6670335240551875e-01  9.6570343833166028e-01  9.6472584168660802e-01  9.6167637024140495e-01  9.6009268578784623e-01  9.5765419436744825e-01  9.5535632225369593e-01  9.5241372771086075e-01  9.7142821340036434e-01  9.7005402271257124e-01  9.6981820739263014e-01  9.6897707194790095e-01  9.6918718214437560e-01  9.6845954818196633e-01  9.6786662562336934e-01  9.6740404340788777e-01  9.6705404205959422e-01  9.6678964040453508e-01  9.6444733680066996e-01  9.6398770419431978e-01  9.5873764350660151e-01  9.5860609430929644e-01  9.5844275445316285e-01  9.5848539626300011e-01  9.5891925058992689e-01  9.5936485173410702e-01  9.6016075745039819e-01  9.6188336073340974e-01  9.6368144499703157e-01  9.6554608058075320e-01  9.6155972616877883e-01  9.6080237005031333e-01  9.6170475672077194e-01  9.6282198427926391e-01  9.6421246884780953e-01  9.6574173482519343e-01  9.5926500134205894e-01  9.6456280611305989e-01  9.6639412036946981e-01  9.6084746898326245e-01  9.7187461538711539e-01  9.7636042116701338e-01  9.8041371656779308e-01  9.8531315620805204e-01  9.7789261708960984e-01  9.7797133128239888e-01  9.7860665381929901e-01  9.8348646091344860e-01  9.8910364230442549e-01  9.9236198912389306e-01  9.9264611959544646e-01  9.4413376332949384e-01  9.9914471258660642e-01  9.7334538452913588e-01  9.4718409995235830e-01  8.5899089890660529e-01  7.5056724989574564e-01  7.7825189965432207e-01  8.1506071412621994e-01  8.9647010427832974e-01  9.5069442940103521e-01  9.8313165155836102e-01  9.8884194678107529e-01  9.9454829905395870e-01  9.9382174805460710e-01  9.9433725878444590e-01  9.9396147909330590e-01  9.9295270036652272e-01  9.8062353198104901e-01  9.6250275710026711e-01  9.4702336404278109e-01  9.3752022255527101e-01  9.3518988690915650e-01  8.5551956960171094e-01  8.6718144281907850e-01  9.0127638716164504e-01  8.6712341219956546e-01  8.7594876821787204e-01  8.7615840556822033e-01  8.8314729158799365e-01  8.3893758981983846e-01  8.3717431769797468e-01  8.1600990475649993e-01  7.7869279841496364e-01  7.2865150500316678e-01  7.6923805444511029e-01  9.0185321788476114e-01  9.4066049121841255e-01  9.1594127772986755e-01  9.2240212475249839e-01  9.5068263939074060e-01  9.5274136508452001e-01  9.5552751216040077e-01  9.5879458686553043e-01  9.6029067585615113e-01  9.6670721100181756e-01  9.9025939237865079e-01  9.8606646192950576e-01  9.8460768883190242e-01  9.8343914160420587e-01  9.7701679867694802e-01  9.7043719211590984e-01  9.6710516942245872e-01  9.6561705342853155e-01  9.5995620766898371e-01  9.6025254873610222e-01  9.6040760691375615e-01  9.6035330838442245e-01  9.6002148753337169e-01  9.5941954936797236e-01  9.4562044950318391e-01  9.4481980485967176e-01  9.4405779637682585e-01  9.4339325210518865e-01  9.4273797183176455e-01  9.4223638837327561e-01  9.4177313205863300e-01  9.4135199386466062e-01  9.4099678976943091e-01  9.4077672688724467e-01  9.5371095638083159e-01  9.5362654370846567e-01  9.5369366855217719e-01  9.5376625174099694e-01  9.5376796495449556e-01  9.5354928505309300e-01  9.5296080267078687e-01  9.5188182847530756e-01  9.3984183626295048e-01  9.3906766817218146e-01  9.3830517189496987e-01  9.3491080606667898e-01  9.3829664730742812e-01  9.3841240377175461e-01  9.3942233782619933e-01  9.4124243361368987e-01  9.4369663406736626e-01  9.4654179659957483e-01  9.4933205980544721e-01  9.5203342086663967e-01  9.5417858949148149e-01  9.3449336628256008e-01  9.3489442847300686e-01  9.3527036263015084e-01  9.5622194740134447e-01  9.3783827563054123e-01  9.3850265963446977e-01  9.4021231525037974e-01  9.2490634194884913e-01  9.2517056207002712e-01  9.4405814238803354e-01  9.5402087093831967e-01  9.6519995683231896e-01  9.6632924152771138e-01  9.6036156237884429e-01  9.7325858544397603e-01  9.9125312571165192e-01  9.9307589714087108e-01  9.4874674757307365e-01  9.0209929795354948e-01  8.7821038536959251e-01  7.9267572850544132e-01  8.0621679867808871e-01  8.1082041060200938e-01  8.0021966229459618e-01  8.0716225177721568e-01  8.1428690792642211e-01  8.5772202432773470e-01  8.6256488121563324e-01  8.6465314730115561e-01  8.6505110473455260e-01  8.6293347098863049e-01  8.7137471553342671e-01  8.6189720169391304e-01  7.7760037464045362e-01  6.7676336797682479e-01  7.1571266317184601e-01  8.4485424616781202e-01  8.2653253199047072e-01  8.8799718330949928e-01  9.6987118177985354e-01  9.6963920981238827e-01  9.5369530866482821e-01  9.6748885416724439e-01  9.6588321266693855e-01  9.5251601579277023e-01  9.4782394859278285e-01  9.5261984753732654e-01  9.5447513234222325e-01  9.5806608502773061e-01  9.5597182332433173e-01  9.4276109184550350e-01  9.2176884711450102e-01  9.2721500612964824e-01  9.3517506755288293e-01  9.4297351616117042e-01  9.4914024287390586e-01  9.4267985772189866e-01  9.4402461394550796e-01  9.4059699912432881e-01  9.5209151491520982e-01  9.4594677448383013e-01  9.3854863065244276e-01  9.5704106800451016e-01  9.4905265762183078e-01  9.1457953310832241e-01  9.0808055754428840e-01  9.0321068506592284e-01  9.1095239257357374e-01  9.1079356385493393e-01  9.2487797529864924e-01  9.2519020076081837e-01  9.3076580608866244e-01  9.3369711248957943e-01  9.3679679650092995e-01  9.4500316138230178e-01  9.4723034093396508e-01  9.5051437741544609e-01  9.5176404524060676e-01  9.5026247412746234e-01  9.5096467244786775e-01  9.5345644818236963e-01  9.5341424031095001e-01  9.5338731931088627e-01  9.5314167991806298e-01  9.5277291396918995e-01  9.5105569772844933e-01  9.5037443343090422e-01  9.4998577889028468e-01  9.4972725253422952e-01  9.4976891527929808e-01  9.5029167226654854e-01  9.5195982413495184e-01  9.5445186044430941e-01  9.5785268631564591e-01  9.7173730517178114e-01  9.7498431339538105e-01  9.7881278411489170e-01  9.8101417050723694e-01  9.8315712159978419e-01  9.8325452498537602e-01  9.7972229892913676e-0