<?xml version="1.0"?>
<VTKFile type="UnstructuredGrid"  version="0.1"  >
<UnstructuredGrid>
<Piece  NumberOfPoints="28121" NumberOfCells="55200">
<Points>
<DataArray  type="Float64"  NumberOfComponents="3"  format="ascii">0 0 0  0.008260869565217391 0 0  0.01652173913043478 0 0  0.02478260869565217 0 0  0.03304347826086956 0 0  0.04130434782608695 0 0  0.04956521739130434 0 0  0.05782608695652174 0 0  0.06608695652173913 0 0  0.07434782608695652 0 0  0.08260869565217391 0 0  0.0908695652173913 0 0  0.09913043478260869 0 0  0.1073913043478261 0 0  0.1156521739130435 0 0  0.1239130434782609 0 0  0.1321739130434783 0 0  0.1404347826086956 0 0  0.148695652173913 0 0  0.1569565217391304 0 0  0.1652173913043478 0 0  0.1734782608695652 0 0  0.1817391304347826 0 0  0.19 0 0  0.1982608695652174 0 0  0.2065217391304348 0 0  0.2147826086956522 0 0  0.2230434782608696 0 0  0.2313043478260869 0 0  0.2395652173913043 0 0  0.2478260869565218 0 0  0.2560869565217391 0 0  0.2643478260869565 0 0  0.2726086956521739 0 0  0.2808695652173913 0 0  0.2891304347826087 0 0  0.2973913043478261 0 0  0.3056521739130434 0 0  0.3139130434782609 0 0  0.3221739130434783 0 0  0.3304347826086956 0 0  0.338695652173913 0 0  0.3469565217391304 0 0  0.3552173913043478 0 0  0.3634782608695652 0 0  0.3717391304347826 0 0  0.3799999999999999 0 0  0.3882608695652174 0 0  0.3965217391304348 0 0  0.4047826086956521 0 0  0.4130434782608696 0 0  0.4213043478260869 0 0  0.4295652173913043 0 0  0.4378260869565217 0 0  0.4460869565217391 0 0  0.4543478260869565 0 0  0.4626086956521739 0 0  0.4708695652173913 0 0  0.4791304347826086 0 0  0.4873913043478261 0 0  0.4956521739130435 0 0  0.5039130434782608 0 0  0.5121739130434783 0 0  0.5204347826086956 0 0  0.528695652173913 0 0  0.5369565217391304 0 0  0.5452173913043478 0 0  0.5534782608695652 0 0  0.5617391304347825 0 0  0.57 0 0  0.5782608695652174 0 0  0.5865217391304348 0 0  0.5947826086956521 0 0  0.6030434782608696 0 0  0.6113043478260869 0 0  0.6195652173913043 0 0  0.6278260869565218 0 0  0.6360869565217391 0 0  0.6443478260869565 0 0  0.6526086956521739 0 0  0.6608695652173913 0 0  0.6691304347826087 0 0  0.677391304347826 0 0  0.6856521739130435 0 0  0.6939130434782609 0 0  0.7021739130434783 0 0  0.7104347826086956 0 0  0.718695652173913 0 0  0.7269565217391304 0 0  0.7352173913043478 0 0  0.7434782608695653 0 0  0.7517391304347827 0 0  0.7599999999999999 0 0  0.7682608695652173 0 0  0.7765217391304348 0 0  0.7847826086956522 0 0  0.7930434782608695 0 0  0.8013043478260868 0 0  0.8095652173913043 0 0  0.8178260869565217 0 0  0.8260869565217391 0 0  0.8343478260869565 0 0  0.8426086956521739 0 0  0.8508695652173912 0 0  0.8591304347826086 0 0  0.8673913043478261 0 0  0.8756521739130434 0 0  0.8839130434782608 0 0  0.8921739130434783 0 0  0.9004347826086956 0 0  0.908695652173913 0 0  0.9169565217391303 0 0  0.9252173913043478 0 0  0.9334782608695652 0 0  0.9417391304347826 0 0  0.95 0 0  0.9582608695652173 0 0  0.9665217391304347 0 0  0.9747826086956521 0 0  0.9830434782608696 0 0  0.991304347826087 0 0  0.9995652173913042 0 0  1.007826086956522 0 0  1.016086956521739 0 0  1.024347826086957 0 0  1.032608695652174 0 0  1.040869565217391 0 0  1.049130434782609 0 0  1.057391304347826 0 0  1.065652173913043 0 0  1.073913043478261 0 0  1.082173913043478 0 0  1.090434782608696 0 0  1.098695652173913 0 0  1.10695652173913 0 0  1.115217391304348 0 0  1.123478260869565 0 0  1.131739130434783 0 0  1.14 0 0  1.148260869565217 0 0  1.156521739130435 0 0  1.164782608695652 0 0  1.17304347826087 0 0  1.181304347826087 0 0  1.189565217391304 0 0  1.197826086956522 0 0  1.206086956521739 0 0  1.214347826086956 0 0  1.222608695652174 0 0  1.230869565217391 0 0  1.239130434782609 0 0  1.247391304347826 0 0  1.255652173913044 0 0  1.263913043478261 0 0  1.272173913043478 0 0  1.280434782608696 0 0  1.288695652173913 0 0  1.296956521739131 0 0  1.305217391304348 0 0  1.313478260869565 0 0  1.321739130434783 0 0  1.33 0 0  1.338260869565217 0 0  1.346521739130435 0 0  1.354782608695652 0 0  1.36304347826087 0 0  1.371304347826087 0 0  1.379565217391304 0 0  1.387826086956522 0 0  1.396086956521739 0 0  1.404347826086957 0 0  1.412608695652174 0 0  1.420869565217391 0 0  1.429130434782609 0 0  1.437391304347826 0 0  1.445652173913043 0 0  1.453913043478261 0 0  1.462173913043478 0 0  1.470434782608696 0 0  1.478695652173913 0 0  1.486956521739131 0 0  1.495217391304348 0 0  1.503478260869565 0 0  1.511739130434782 0 0  1.52 0 0  1.528260869565217 0 0  1.536521739130435 0 0  1.544782608695652 0 0  1.55304347826087 0 0  1.561304347826087 0 0  1.569565217391304 0 0  1.577826086956522 0 0  1.586086956521739 0 0  1.594347826086957 0 0  1.602608695652174 0 0  1.610869565217391 0 0  1.619130434782609 0 0  1.627391304347826 0 0  1.635652173913043 0 0  1.643913043478261 0 0  1.652173913043478 0 0  1.660434782608696 0 0  1.668695652173913 0 0  1.67695652173913 0 0  1.685217391304348 0 0  1.693478260869565 0 0  1.701739130434782 0 0  1.71 0 0  1.718260869565217 0 0  1.726521739130435 0 0  1.734782608695652 0 0  1.743043478260869 0 0  1.751304347826087 0 0  1.759565217391304 0 0  1.767826086956522 0 0  1.776086956521739 0 0  1.784347826086957 0 0  1.792608695652174 0 0  1.800869565217391 0 0  1.809130434782608 0 0  1.817391304347826 0 0  1.825652173913043 0 0  1.833913043478261 0 0  1.842173913043478 0 0  1.850434782608696 0 0  1.858695652173913 0 0  1.86695652173913 0 0  1.875217391304348 0 0  1.883478260869565 0 0  1.891739130434782 0 0  1.9 0 0  1.908260869565217 0 0  1.916521739130435 0 0  1.924782608695652 0 0  1.933043478260869 0 0  1.941304347826087 0 0  1.949565217391304 0 0  1.957826086956522 0 0  1.966086956521739 0 0  1.974347826086956 0 0  1.982608695652174 0 0  1.990869565217391 0 0  1.999130434782608 0 0  2.007391304347826 0 0  2.015652173913043 0 0  2.023913043478261 0 0  2.032173913043478 0 0  2.040434782608695 0 0  2.048695652173913 0 0  2.05695652173913 0 0  2.065217391304348 0 0  2.073478260869565 0 0  2.081739130434782 0 0  2.09 0 0  2.098260869565217 0 0  2.106521739130435 0 0  2.114782608695652 0 0  2.12304347826087 0 0  2.131304347826087 0 0  2.139565217391304 0 0  2.147826086956522 0 0  2.156086956521739 0 0  2.164347826086956 0 0  2.172608695652174 0 0  2.180869565217391 0 0  2.189130434782609 0 0  2.197391304347826 0 0  2.205652173913043 0 0  2.213913043478261 0 0  2.222173913043478 0 0  2.230434782608695 0 0  2.238695652173913 0 0  2.24695652173913 0 0  2.255217391304348 0 0  2.263478260869565 0 0  2.271739130434783 0 0  2.28 0 0  2.288260869565217 0 0  2.296521739130434 0 0  2.304782608695652 0 0  2.31304347826087 0 0  2.321304347826087 0 0  2.329565217391304 0 0  2.337826086956521 0 0  2.346086956521739 0 0  2.354347826086956 0 0  2.362608695652174 0 0  2.370869565217391 0 0  2.379130434782609 0 0  2.387391304347826 0 0  2.395652173913044 0 0  2.403913043478261 0 0  2.412173913043478 0 0  2.420434782608695 0 0  2.428695652173913 0 0  2.43695652173913 0 0  2.445217391304348 0 0  2.453478260869565 0 0  2.461739130434782 0 0  2.47 0 0  2.478260869565217 0 0  2.486521739130435 0 0  2.494782608695652 0 0  2.503043478260869 0 0  2.511304347826087 0 0  2.519565217391305 0 0  2.527826086956522 0 0  2.536086956521739 0 0  2.544347826086956 0 0  2.552608695652174 0 0  2.560869565217391 0 0  2.569130434782608 0 0  2.577391304347826 0 0  2.585652173913043 0 0  2.593913043478261 0 0  2.602173913043478 0 0  2.610434782608696 0 0  2.618695652173913 0 0  2.62695652173913 0 0  2.635217391304348 0 0  2.643478260869565 0 0  2.651739130434783 0 0  2.66 0 0  2.668260869565217 0 0  2.676521739130435 0 0  2.684782608695652 0 0  2.693043478260869 0 0  2.701304347826087 0 0  2.709565217391304 0 0  2.717826086956522 0 0  2.726086956521739 0 0  2.734347826086956 0 0  2.742608695652174 0 0  2.750869565217391 0 0  2.759130434782609 0 0  2.767391304347826 0 0  2.775652173913044 0 0  2.783913043478261 0 0  2.792173913043478 0 0  2.800434782608696 0 0  2.808695652173913 0 0  2.81695652173913 0 0  2.825217391304347 0 0  2.833478260869565 0 0  2.841739130434783 0 0  2.85 0 0  2.858260869565217 0 0  2.866521739130435 0 0  2.874782608695652 0 0  2.88304347826087 0 0  2.891304347826087 0 0  2.899565217391304 0 0  2.907826086956522 0 0  2.916086956521739 0 0  2.924347826086957 0 0  2.932608695652174 0 0  2.940869565217391 0 0  2.949130434782608 0 0  2.957391304347826 0 0  2.965652173913043 0 0  2.973913043478261 0 0  2.982173913043478 0 0  2.990434782608696 0 0  2.998695652173913 0 0  3.006956521739131 0 0  3.015217391304348 0 0  3.023478260869565 0 0  3.031739130434782 0 0  3.04 0 0  3.048260869565218 0 0  3.056521739130435 0 0  3.064782608695652 0 0  3.073043478260869 0 0  3.081304347826087 0 0  3.089565217391304 0 0  3.097826086956522 0 0  3.106086956521739 0 0  3.114347826086956 0 0  3.122608695652174 0 0  3.130869565217391 0 0  3.139130434782609 0 0  3.147391304347826 0 0  3.155652173913043 0 0  3.163913043478261 0 0  3.172173913043478 0 0  3.180434782608696 0 0  3.188695652173913 0 0  3.19695652173913 0 0  3.205217391304347 0 0  3.213478260869565 0 0  3.221739130434782 0 0  3.23 0 0  3.238260869565217 0 0  3.246521739130435 0 0  3.254782608695652 0 0  3.26304347826087 0 0  3.271304347826087 0 0  3.279565217391304 0 0  3.287826086956521 0 0  3.296086956521739 0 0  3.304347826086957 0 0  3.312608695652174 0 0  3.320869565217391 0 0  3.329130434782608 0 0  3.337391304347826 0 0  3.345652173913043 0 0  3.353913043478261 0 0  3.362173913043478 0 0  3.370434782608696 0 0  3.378695652173913 0 0  3.386956521739131 0 0  3.395217391304348 0 0  3.403478260869565 0 0  3.411739130434782 0 0  3.419999999999999 0 0  3.428260869565217 0 0  3.436521739130435 0 0  3.444782608695652 0 0  3.453043478260869 0 0  3.461304347826087 0 0  3.469565217391304 0 0  3.477826086956522 0 0  3.486086956521739 0 0  3.494347826086956 0 0  3.502608695652174 0 0  3.510869565217391 0 0  3.519130434782609 0 0  3.527391304347826 0 0  3.535652173913043 0 0  3.54391304347826
[...]
<PointData  Scalars="rho_bar"> 
<DataArray  type="Float64"  Name="rho_bar"  format="ascii">9.9983343340937736e-01  9.9983051949356283e-01  9.9982562856699164e-01  9.9981801423409378e-01  9.9980717965449539e-01  9.9979259260558961e-01  9.9977361341852233e-01  9.9974940800144418e-01  9.9971873388707522e-01  9.9967959258029571e-01  9.9962914168635986e-01  9.9956438838582218e-01  9.9948287950198889e-01  9.9938069564142507e-01  9.9924840587612540e-01  9.9907225291836088e-01  9.9884282166668725e-01  9.9855946972758536e-01  9.9822494500573444e-01  9.9784448197106757e-01  9.9743771083503763e-01  9.9704791472226917e-01  9.9673360728097793e-01  9.9654671536439010e-01  9.9651242766853865e-01  9.9662210013606878e-01  9.9684137374413551e-01  9.9712613402830486e-01  9.9743665577730978e-01  9.9774439901625600e-01  9.9803236893573899e-01  9.9829231919099815e-01  9.9852156848992801e-01  9.9872048616662046e-01  9.9889101074128761e-01  9.9903580164140504e-01  9.9915766725360922e-01  9.9925906012932098e-01  9.9934181413967038e-01  9.9940705297389432e-01  9.9945514703475524e-01  9.9948551390825802e-01  9.9949623396977461e-01  9.9948330232442961e-01  9.9943930699568140e-01  9.9935142967809676e-01  9.9920056784640621e-01  9.9896664895459364e-01  9.9863981690474191e-01  9.9821590475548938e-01  9.9767302789675860e-01  9.9697798845840280e-01  9.9611755988628270e-01  9.9511860768616511e-01  9.9405566423681879e-01  9.9303463800067637e-01  9.9215816167972493e-01  9.9149391804239073e-01  9.9106214035052931e-01  9.9084276958426210e-01  9.9079170194347044e-01  9.9085647135623378e-01  9.9098830051970810e-01  9.9114886495540677e-01  9.9131164282026341e-01  9.9145987309222883e-01  9.9158429674451154e-01  9.9168119804588140e-01  9.9175104508863887e-01  9.9179702063674224e-01  9.9182388669322930e-01  9.9183663568451486e-01  9.9183950832817336e-01  9.9183521724173362e-01  9.9182503216127860e-01  9.9180916459344348e-01  9.9178749212948836e-01  9.9175982866172963e-01  9.9172619723263744e-01  9.9168678975861058e-01  9.9164231806604097e-01  9.9159411648210727e-01  9.9154413872688596e-01  9.9149438342168428e-01  9.9144650020627578e-01  9.9140138180486470e-01  9.9135928394194639e-01  9.9131986767539215e-01  9.9128261265472684e-01  9.9124697365062808e-01  9.9121268412463426e-01  9.9117973303503926e-01  9.9114849566013485e-01  9.9111951174120283e-01  9.9109346358505834e-01  9.9107084953692015e-01  9.9105198718684950e-01  9.9103682560329043e-01  9.9102502982597707e-01  9.9101583965272144e-01  9.9100820265158851e-01  9.9100068932087215e-01  9.9099177710826292e-01  9.9097995415707696e-01  9.9096416504551632e-01  9.9094392184933922e-01  9.9091944470891991e-01  9.9089136191522575e-01  9.9086057112602199e-01  9.9082787486456758e-01  9.9079400037318976e-01  9.9075942677300377e-01  9.9072457887348286e-01  9.9068977559651250e-01  9.9065536580356606e-01  9.9062150177673858e-01  9.9058813480288421e-01  9.9055484526141946e-01  9.9052107483921159e-01  9.9048612443182116e-01  9.9044948672847388e-01  9.9041086311084714e-01  9.9037031593036340e-01  9.9032802959930877e-01  9.9028421329730199e-01  9.9023867717561986e-01  9.9019093910690792e-01  9.9014036510196202e-01  9.9008673742949560e-01  9.9003054608173791e-01  9.8997344872274995e-01  9.8991792972826742e-01  9.8986669953151829e-01  9.8982168490226075e-01  9.8978374420518023e-01  9.8975258119927623e-01  9.8972728215539596e-01  9.8970650219213330e-01  9.8968870351232641e-01  9.8967197704772358e-01  9.8965428094029351e-01  9.8963382857495530e-01  9.8960998960012458e-01  9.8958329308522108e-01  9.8955512248472643e-01  9.8952667954804963e-01  9.8949828933657269e-01  9.8946887395279248e-01  9.8943630094752233e-01  9.8939782842589508e-01  9.8935092569155214e-01  9.8929367673996405e-01  9.8922555198503392e-01  9.8914780108547007e-01  9.8906369980267805e-01  9.8897768391471552e-01  9.8889423882504679e-01  9.8881673293624905e-01  9.8874713242851586e-01  9.8868603505571528e-01  9.8863350959589502e-01  9.8858926014635584e-01  9.8855214596807139e-01  9.8851890892005989e-01  9.8848317720749157e-01  9.8843470781837484e-01  9.8835995447542591e-01  9.8824306050150601e-01  9.8806752678759202e-01  9.8781792727126527e-01  9.8748266570404031e-01  9.8705730005239434e-01  9.8654951194142848e-01  9.8598569694588645e-01  9.8541979065373353e-01  9.8494259345519763e-01  9.8468809142237157e-01  9.8482519132004043e-01  9.8552236469130416e-01  9.8686723176999702e-01  9.8876779540583837e-01  9.9094350108141827e-01  9.9303958563714501e-01  9.9478480842191619e-01  9.9607564356264044e-01  9.9694472845087279e-01  9.9748027504509218e-01  9.9776581842932466e-01  9.9785188141411585e-01  9.9775429782436353e-01  9.9747184251278243e-01  9.9698103319753717e-01  9.9620286597827479e-01  9.9501785275248045e-01  9.9334515552980474e-01  9.9121216591634398e-01  9.8881690090834473e-01  9.8660124200375088e-01  9.8518820262853268e-01  9.8506060005376139e-01  9.8621904381141079e-01  9.8818038450324241e-01  9.9031165515697128e-01  9.9215629533463801e-01  9.9351965800270026e-01  9.9437785948333801e-01  9.9476294346165739e-01  9.9468564577063090e-01  9.9409271420602940e-01  9.9283532419412657e-01  9.9066609425263830e-01  9.8731123389226416e-01  9.8264584215689610e-01  9.7691233892393414e-01  9.7079731555851434e-01  9.6524643481830497e-01  9.6108944154862286e-01  9.5871609546740377e-01  9.5799479928369724e-01  9.5847232276713201e-01  9.5964681649403594e-01  9.6112221657568309e-01  9.6264094608942508e-01  9.6405508919073546e-01  9.6529000012810995e-01  9.6631552244004004e-01  9.6712858810243651e-01  9.6774288977385481e-01  9.6818358615021138e-01  9.6848204891273659e-01  9.6867265172487249e-01  9.6879000400173276e-01  9.6886763020513378e-01  9.6893543576322771e-01  9.6901841532292410e-01  9.6913676215034561e-01  9.6930386977813565e-01  9.6952097911945212e-01  9.6977703601346932e-01  9.7005458299826997e-01  9.7033888586756123e-01  9.7062042982897434e-01  9.7089398987278230e-01  9.7115646534701650e-01  9.7140646190423141e-01  9.7164355002138392e-01  9.7186860197399527e-01  9.7208321955584431e-01  9.7229009711622183e-01  9.7249254437042509e-01  9.7269474257906485e-01  9.7290113510843279e-01  9.7311647284389335e-01  9.7334473057497917e-01  9.7358846360964946e-01  9.7384706015861355e-01  9.7411614230980470e-01  9.7438731795398625e-01  9.7465086472444329e-01  9.7489863017133371e-01  9.7512613925943425e-01  9.7533276678050396e-01  9.7552220281033775e-01  9.7570135553388115e-01  9.7587965859163528e-01  9.7606742124987456e-01  9.7627435562923703e-01  9.7650710211312552e-01  9.7676779167765038e-01  9.7705227980752907e-01  9.7734965681531549e-01  9.7764213949147549e-01  9.7790717528075677e-01  9.7812024789140328e-01  9.7825853255645578e-01  9.7830272970972121e-01  9.7823860139338203e-01  9.7805763893074427e-01  9.7775843889316372e-01  9.7734761523296554e-01  9.7684265383906188e-01  9.7627693821219841e-01  9.7570997900684830e-01  9.7524193778463120e-01  9.7502820844647964e-01  9.7527689184262245e-01  9.7619132761545457e-01  9.7784398986632859e-01  9.8011019624050288e-01  9.8271108937532792e-01  9.8529626783694091e-01  9.8757910286541706e-01  9.8941405199011745e-01  9.9076870260252747e-01  9.9166677082337606e-01  9.9214176322820358e-01  9.9220833865514435e-01  9.9184421025648928e-01  9.9097558543742781e-01  9.8945867589030212e-01  9.8706127378934383e-01  9.8346231986950916e-01  9.7828974986019313e-01  9.7122432551676130e-01  9.6224554483110092e-01  9.5200884887832782e-01  9.4192821999718446e-01  9.3344144006198915e-01  9.2727654713093821e-01  9.2345404225140859e-01  9.2164323002025372e-01  9.2135403199068733e-01  9.2207177562207221e-01  9.2334789750810875e-01  9.2482850881911793e-01  9.2624951832173186e-01  9.2742897165343907e-01  9.2826241295900902e-01  9.2872258875802827e-01  9.2884778121173517e-01  9.2872093956967983e-01  9.2843782347389991e-01  9.2808145639035555e-01  9.2771468634834131e-01  9.2738824196865877e-01  9.2714099107955195e-01  9.2699363667787882e-01  9.2694455731975323e-01  9.2698227486103668e-01  9.2709998718908559e-01  9.2729893410481223e-01  9.2758068663019566e-01  9.2794361663161962e-01  9.2838091519706267e-01  9.2888353301645077e-01  9.2943981993196401e-01  9.3003776238708691e-01  9.3066562149471399e-01  9.3131443625153409e-01  9.3197837390289362e-01  9.3265639544185241e-01  9.3334962811916156e-01  9.3405831659985095e-01  9.3477701968872584e-01  9.3549507718477543e-01  9.3619727114819151e-01  9.3686874558696498e-01  9.3749902076016223e-01  9.3808761878250957e-01  9.3864764871947515e-01  9.3920804851292994e-01  9.3980715944386717e-01  9.4048362994970780e-01  9.4126481504767801e-01  9.4215919442175367e-01  9.4314865855687524e-01  9.4418479059666338e-01  9.4519023228576360e-01  9.4606780274233038e-01  9.4670914593644340e-01  9.4700784558207263e-01  9.4687698326803371e-01  9.4627315503616571e-01  9.4520753831542370e-01  9.4373274086677517e-01  9.4192203594672297e-01  9.3987456637449018e-01  9.3774356931172431e-01  9.3575778685962996e-01  9.3419724091186152e-01  9.3332275341520188e-01  9.3326988737173000e-01  9.3391384106997721e-01  9.3477994188466629e-01  9.3512986325115066e-01  9.3419076162349424e-01  9.3145673276504415e-01  9.2647338500541032e-01  9.1852537817165913e-01  9.0618687938710063e-01  8.8614482554142693e-01  8.5209962188284794e-01  7.9349116100082151e-01  6.9586118616281356e-01  5.5240246466593934e-01  3.8684025724366400e-01  2.4368925494643962e-01  1.4482648422347572e-01  8.4726526995177950e-02  5.0090169782478357e-02  3.0337520466002042e-02  1.8943140099761811e-02  1.2222864143407539e-02  8.1490010285417969e-03  5.6044901251515629e-03  3.9661030672986305e-03  2.8792630389910742e-03  2.1376052968413240e-03  1.6180262866528810e-03  1.2451973869336520e-03  9.7184363969778532e-04  7.6755003779483528e-04  6.1227626981471899e-04  4.9251274391361340e-04  3.9895463891705812e-04  3.2506164447216961e-04  2.6614877680613939e-04  2.1880055038045270e-04  1.8048599114586623e-04  1.4930145370685422e-04  1.2379533337252574e-04  1.0284716631424207e-04  8.5582277370886508e-05  7.1311362626748259e-05  5.9486066293204846e-05  4.9667276621305198e-05  4.1500485544022183e-05  3.4698243622242902e-05  2.9025917555572484e-05  2.4291278007220026e-05  2.0336162903884660e-05  1.7030100085946924e-05  1.4265069821208510e-05  1.1951531009543092e-05  1.0014996463068191e-05  8.3935731399453892e-06  7.0356100335693403e-06  5.8980779198159481e-06  4.9450045149937460e-06  4.1463657625465657e-06  3.4770486408087430e-06  2.9160495057568041e-06  2.4457857279937094e-06  2.0515500000148581e-06  1.7210187961543407e-06  1.4438839708996764e-06  1.2115079138736266e-06  1.0166490353315455e-06  8.5324657826153987e-07  7.1621712625682197e-07  6.0130894805338121e-07  5.0494820830538247e-07  4.2414398149238557e-07  3.5639285005680541e-07  2.9959927541957404e-07  2.5200290300998570e-07  2.1213195300685845e-07  1.7875548727626764e-07  1.5084689698491138e-07  1.2754358532987428e-07  1.0812836580668056e-07  9.2004825892819190e-08  7.8679823981472263e-08  6.7744469061185645e-08  5.8864690170708008e-08  5.1770704233830631e-08  4.6249104092521878e-08  4.2135229226322694e-08  3.9313169046169695e-08  3.7722076829937099e-08  3.7398523497450671e-08  9.9982400105716640e-01  9.9982201105673840e-01  9.9981708123217872e-01  9.9980909790087036e-01  9.9979772977012904e-01  9.9978245694934331e-01  9.9976247364804605e-01  9.9973657292177531e-01  9.9970316939529225e-01  9.9966057378019268e-01  9.9960714334977430e-01  9.9954020991298675e-01  9.9945342363973599e-01  9.9933638227413224e-01  9.9918094443748706e-01  9.9898626157275427e-01  9.9874860666658472e-01  9.9844836589493036e-01  9.9806307014080298e-01  9.9759762965092380e-01  9.9709471386407911e-01  9.9662117205473566e-01  9.9624969621736559e-01  9.9603851807079002e-01  9.9601076542264277e-01  9.9614904643555247e-01  9.9640987336409548e-01  9.9674375334981580e-01  9.9710756660673994e-01  9.9746883437096168e-01  9.9780620967839040e-01  9.9810837875290714e-01  9.9837169749831489e-01  9.9859749010332555e-01  9.9878950312383696e-01  9.9895196142346276e-01  9.9908848329432387e-01  9.9920190281423504e-01  9.9929439759051930e-01  9.9936748821475252e-01  9.9942183772258031e-01  9.9945705504804616e-01  9.9947133705169922e-01  9.9946074210405511e-01  9.9941779736207192e-01  9.9932932641582428e-01  9.9917458803941051e-01  9.9892839456329618e-01  9.9857223547386154e-01  9.9809625067786545e-01  9.9747404464580947e-01  9.9665986769857595e-01  9.9563156770815175e-01  9.9442418345382977e-01  9.9313520320358106e-01  9.9189755373558142e-01  9.9083665659074216e-01  9.9003490209216027e-01  9.8951678212651983e-01  9.8925805678614975e-01  9.8920473375039530e-01  9.8929142050414409e-01  9.8945655423980572e-01  9.8965308407324204e-01  9.8984949282524959e-01  9.9002639370692902e-01  9.9017315628272939e-01  9.9028592713684060e-01  9.9036574708426794e-01  9.9041701166359231e-01  9.9044574685669062e-01  9.9045824535144866e-01  9.9045960517137122e-01  9.9045309952120886e-01  9.9044003372291323e-01  9.9042050088832490e-01  9.9039408800903239e-01  9.9036050599569592e-01  9.9031965323714444e-01  9.9027190907574369e-01  9.9021814045159495e-01  9.9015997826075430e-01  9.9009970366396338e-01  9.9003989475435894e-01  9.8998254015379783e-01  9.8992878308499255e-01  9.8987878924967410e-01  9.8983215251299361e-01  9.8978808720183786e-01  9.8974591899384667e-01  9.8970522695281282e-01  9.8966607989035826e-01  9.8962885860166239e-01  9.8959430738266407e-01  9.8956320296637301e-01  9.8953627265167021e-01  9.8951385715017748e-01  9.8949596727620170e-01  9.8948212223258314e-01  9.8947149109282595e-01  9.8946275150386498e-01  9.8945428025359861e-01  9.8944416475594521e-01  9.8943065287609366e-01  9.8941232295105996e-01  9.8938855451604191e-01  9.8935953273528165e-01  9.8932618589166110e-01  9.8928959132838912e-01  9.8925082839164535e-01  9.8921070392397359e-01  9.8916987670750811e-01  9.8912873548607760e-01  9.8908767182830637e-01  9.8904702742720896e-01  9.8900711730832491e-01  9.8896784030747598e-01  9.8892878952810659e-01  9.8888920166601224e-01  9.8884832695208336e-01  9.8880547862276413e-01  9.8876035091716508e-01  9.8871294549015054e-01  9.8866357853606368e-01  9.8861237302911420e-01  9.8855916522542253e-01  9.8850336131495520e-01  9.8844437137121854e-01  9.8838185102659371e-01  9.8831620769140960e-01  9.8824890931055942e-01  9.8818287074841948e-01  9.8812159540777211e-01  9.8806790886161788e-01  9.8802291116253493e-01  9.8798626029896874e-01  9.8795662770249892e-01  9.8793240518087755e-01  9.8791178214191511e-01  9.8789275892298023e-01  9.8787276953656378e-01  9.8784950358504287e-01  9.8782192818666059e-01  9.8779064751561618e-01  9.8775714813221616e-01  9.8772323477504986e-01  9.8768984055821307e-01  9.8765606918566073e-01  9.8761912197663049e-01  9.8757564884490245e-01  9.8752241675171537e-01  9.8745708674420707e-01  9.8737867772204280e-01  9.8728834001164900e-01  9.8718961938913063e-01  9.8708811640206828e-01  9.8698953928042943e-01  9.8689841031455072e-01  9.8681712373021813e-01  9.8674632290367770e-01  9.8668564098614508e-01  9.8663465980789100e-01  9.8659226623885998e-01  9.8655549641493023e-01  9.8651763683853955e-01  9.8646736826112258e-01  9.8638881195085659e-01  9.8626333417735346e-01  9.8607143201792458e-01  9.8579503083122355e-01  9.8541949120623995e-01  9.8493693983635222e-01  9.8435124116665151e-01  9.8368568787637567e-01  9.8299430668923837e-01  9.8237970032106459e-01  9.8200633105032542e-01  9.8209177530511538e-01  9.8286160085948204e-01  9.8444815402540375e-01  9.8675367829750360e-01  9.8942379330151276e-01  9.9199586329660216e-01  9.9411653307415637e-01  9.9565795205984420e-01  9.9667459065534125e-01  9.9728928179731002e-01  9.9760837871665486e-01  9.9769832351448684e-01  9.9759536006614347e-01  9.9728954106827483e-01  9.9670120760600123e-01  9.9573278935061627e-01  9.9432465799759062e-01  9.9240676875307965e-01  9.8990807706721218e-01  9.8697262630830784e-01  9.8416117595844865e-01  9.8232802464741997e-01  9.8214440230698774e-01  9.8362783074175852e-01  9.8613730879371686e-01  9.8883187450978538e-01  9.9112562012557237e-01  9.9279432672122048e-01  9.9383561788406682e-01  9.9431138526887397e-01  9.9424924043604457e-01  9.9358839862804982e-01  9.9215138126607805e-01  9.8964166122641040e-01  9.8568788926291950e-01  9.8004710658684036e-01  9.7296231497995822e-01  9.6532266661251009e-01  9.5837939863949262e-01  9.5321240949301433e-01  9.5032205801984926e-01  9.4952098394795559e-01  9.5020708694692613e-01  9.5173390660173407e-01  9.5360483735037072e-01  9.5550584976080166e-01  9.5726204552453409e-01  9.5878689080345603e-01  9.6004705550099467e-01  9.6103981938531735e-01  9.6178282323923259e-01  9.6230815810074322e-01  9.6265722531899467e-01  9.6287425439138707e-01  9.6300331308814746e-01  9.6308504843775600e-01  9.6315566062397739e-01  9.6324570783404373e-01  9.6338261373764489e-01  9.6358506945692735e-01  9.6385470479153568e-01  9.6417487189294038e-01  9.6452102107283932e-01  9.6487357549308506e-01  9.6522144985226188e-01  9.6555847256956562e-01  9.6588132815856353e-01  9.6618809597370481e-01  9.6647853375806947e-01  9.6675344766401439e-01  9.6701509609339587e-01  9.6726655840317044e-01  9.6751211546875437e-01  9.6775667769028262e-01  9.6800603609478097e-01  9.6826597419172522e-01  9.6854203436577613e-01  9.6883784763261727e-01  9.6915392655206312e-01  9.6948496815637508e-01  9.6981976179793228e-01  9.7014455812563383e-01  9.7044869677079426e-01  9.7072603833126037e-01  9.7097588067542628e-01  9.7120258909102797e-01  9.7141506711561065e-01  9.7162501311405125e-01  9.7184584300901045e-01  9.7208999147751363e-01  9.7236650679430514e-01  9.7267849364908499e-01  9.7302190345942963e-01  9.7338402781962785e-01  9.7374379076712592e-01  9.7407303512119026e-01  9.7434115102600583e-01  9.7451958349344348e-01  9.7458429565648064e-01  9.7451637290967419e-01  9.7430390641836795e-01  9.7394343776734149e-01  9.7344158769373190e-01  9.7281669976829344e-01  9.7210494834814631e-01  9.7137338906645376e-01  9.7074466825517813e-01  9.7041947888952096e-01  9.7067013960739645e-01  9.7176264640440857e-01  9.7379473802875127e-01  9.7660137099420885e-01  9.7982223505267119e-01  9.8300809731715466e-01  9.8579522571956713e-01  9.8801215485709504e-01  9.8963479940190124e-01  9.9070616796414956e-01  9.9127748906273694e-01  9.9137352653858435e-01  9.9097249949707278e-01  9.8998910207285529e-01  9.8825515551368814e-01  9.8549836380376687e-01  9.8131873233492761e-01  9.7519304842297405e-01  9.6663202952667282e-01  9.5556895025712152e-01  9.4282693940911944e-01  9.3024036354648953e-01  9.1968723059552282e-01  9.1207137044091890e-01  9.0735204238748013e-01  9.0508768735893419e-01  9.0469200283820239e-01  9.0554208428315874e-01  9.0708746589078215e-01  9.0888926983866924e-01  9.1061674875355514e-01  9.1203666659240479e-01  9.1301436535810643e-01  9.1351672161321207e-01  9.1360034193076001e-01  9.1337872490633809e-01  9.1297859067979448e-01  9.1250241555123124e-01  9.1202483502677545e-01  9.1160647857498700e-01  9.1129647932886937e-01  9.1111746463002141e-01  9.1106248500803999e-01  9.1111095120535013e-01  9.1125303655351708e-01  9.1149145603233173e-01  9.1183165427792134e-01  9.1227328905059379e-01  9.1280902613420911e-01  9.1342675118409244e-01  9.1411226286914959e-01  9.1484943961182497e-01  9.1562366521195204e-01  9.1642301682684246e-01  9.1724128637912639e-01  9.1807717318736271e-01  9.1893346072433568e-01  9.1981089112854075e-01  9.2070356766676398e-01  9.2159670337374766e-01  9.2246988176258315e-01  9.2330178376040939e-01  9.2407813964376762e-01  9.2479705999205541e-01  9.2547643600811547e-01  9.2615480320791477e-01  9.2688474214173133e-01  9.2771849982185395e-01  9.2869489892861623e-01  9.2982755004497730e-01  9.3109621092881079e-01  9.3243965101537052e-01  9.3375964709164383e-01  9.3493060367949687e-01  9.3581093122329961e-01  9.3625858898441816e-01  9.3616134911222171e-01  9.3547173809037798e-01  9.3422199430340014e-01  9.3249605409472069e-01  9.3039861486991304e-01  9.2806230067951323e-01  9.2569018407056536e-01  9.23583294551