<?xml version="1.0"?>
<VTKFile type="UnstructuredGrid"  version="0.1"  >
<UnstructuredGrid>
<Piece  NumberOfPoints="28121" NumberOfCells="55200">
<Points>
<DataArray  type="Float64"  NumberOfComponents="3"  format="ascii">0 0 0  0.008260869565217391 0 0  0.01652173913043478 0 0  0.02478260869565217 0 0  0.03304347826086956 0 0  0.04130434782608695 0 0  0.04956521739130434 0 0  0.05782608695652174 0 0  0.06608695652173913 0 0  0.07434782608695652 0 0  0.08260869565217391 0 0  0.0908695652173913 0 0  0.09913043478260869 0 0  0.1073913043478261 0 0  0.1156521739130435 0 0  0.1239130434782609 0 0  0.1321739130434783 0 0  0.1404347826086956 0 0  0.148695652173913 0 0  0.1569565217391304 0 0  0.1652173913043478 0 0  0.1734782608695652 0 0  0.1817391304347826 0 0  0.19 0 0  0.1982608695652174 0 0  0.2065217391304348 0 0  0.2147826086956522 0 0  0.2230434782608696 0 0  0.2313043478260869 0 0  0.2395652173913043 0 0  0.2478260869565218 0 0  0.2560869565217391 0 0  0.2643478260869565 0 0  0.2726086956521739 0 0  0.2808695652173913 0 0  0.2891304347826087 0 0  0.2973913043478261 0 0  0.3056521739130434 0 0  0.3139130434782609 0 0  0.3221739130434783 0 0  0.3304347826086956 0 0  0.338695652173913 0 0  0.3469565217391304 0 0  0.3552173913043478 0 0  0.3634782608695652 0 0  0.3717391304347826 0 0  0.3799999999999999 0 0  0.3882608695652174 0 0  0.3965217391304348 0 0  0.4047826086956521 0 0  0.4130434782608696 0 0  0.4213043478260869 0 0  0.4295652173913043 0 0  0.4378260869565217 0 0  0.4460869565217391 0 0  0.4543478260869565 0 0  0.4626086956521739 0 0  0.4708695652173913 0 0  0.4791304347826086 0 0  0.4873913043478261 0 0  0.4956521739130435 0 0  0.5039130434782608 0 0  0.5121739130434783 0 0  0.5204347826086956 0 0  0.528695652173913 0 0  0.5369565217391304 0 0  0.5452173913043478 0 0  0.5534782608695652 0 0  0.5617391304347825 0 0  0.57 0 0  0.5782608695652174 0 0  0.5865217391304348 0 0  0.5947826086956521 0 0  0.6030434782608696 0 0  0.6113043478260869 0 0  0.6195652173913043 0 0  0.6278260869565218 0 0  0.6360869565217391 0 0  0.6443478260869565 0 0  0.6526086956521739 0 0  0.6608695652173913 0 0  0.6691304347826087 0 0  0.677391304347826 0 0  0.6856521739130435 0 0  0.6939130434782609 0 0  0.7021739130434783 0 0  0.7104347826086956 0 0  0.718695652173913 0 0  0.7269565217391304 0 0  0.7352173913043478 0 0  0.7434782608695653 0 0  0.7517391304347827 0 0  0.7599999999999999 0 0  0.7682608695652173 0 0  0.7765217391304348 0 0  0.7847826086956522 0 0  0.7930434782608695 0 0  0.8013043478260868 0 0  0.8095652173913043 0 0  0.8178260869565217 0 0  0.8260869565217391 0 0  0.8343478260869565 0 0  0.8426086956521739 0 0  0.8508695652173912 0 0  0.8591304347826086 0 0  0.8673913043478261 0 0  0.8756521739130434 0 0  0.8839130434782608 0 0  0.8921739130434783 0 0  0.9004347826086956 0 0  0.908695652173913 0 0  0.9169565217391303 0 0  0.9252173913043478 0 0  0.9334782608695652 0 0  0.9417391304347826 0 0  0.95 0 0  0.9582608695652173 0 0  0.9665217391304347 0 0  0.9747826086956521 0 0  0.9830434782608696 0 0  0.991304347826087 0 0  0.9995652173913042 0 0  1.007826086956522 0 0  1.016086956521739 0 0  1.024347826086957 0 0  1.032608695652174 0 0  1.040869565217391 0 0  1.049130434782609 0 0  1.057391304347826 0 0  1.065652173913043 0 0  1.073913043478261 0 0  1.082173913043478 0 0  1.090434782608696 0 0  1.098695652173913 0 0  1.10695652173913 0 0  1.115217391304348 0 0  1.123478260869565 0 0  1.131739130434783 0 0  1.14 0 0  1.148260869565217 0 0  1.156521739130435 0 0  1.164782608695652 0 0  1.17304347826087 0 0  1.181304347826087 0 0  1.189565217391304 0 0  1.197826086956522 0 0  1.206086956521739 0 0  1.214347826086956 0 0  1.222608695652174 0 0  1.230869565217391 0 0  1.239130434782609 0 0  1.247391304347826 0 0  1.255652173913044 0 0  1.263913043478261 0 0  1.272173913043478 0 0  1.280434782608696 0 0  1.288695652173913 0 0  1.296956521739131 0 0  1.305217391304348 0 0  1.313478260869565 0 0  1.321739130434783 0 0  1.33 0 0  1.338260869565217 0 0  1.346521739130435 0 0  1.354782608695652 0 0  1.36304347826087 0 0  1.371304347826087 0 0  1.379565217391304 0 0  1.387826086956522 0 0  1.396086956521739 0 0  1.404347826086957 0 0  1.412608695652174 0 0  1.420869565217391 0 0  1.429130434782609 0 0  1.437391304347826 0 0  1.445652173913043 0 0  1.453913043478261 0 0  1.462173913043478 0 0  1.470434782608696 0 0  1.478695652173913 0 0  1.486956521739131 0 0  1.495217391304348 0 0  1.503478260869565 0 0  1.511739130434782 0 0  1.52 0 0  1.528260869565217 0 0  1.536521739130435 0 0  1.544782608695652 0 0  1.55304347826087 0 0  1.561304347826087 0 0  1.569565217391304 0 0  1.577826086956522 0 0  1.586086956521739 0 0  1.594347826086957 0 0  1.602608695652174 0 0  1.610869565217391 0 0  1.619130434782609 0 0  1.627391304347826 0 0  1.635652173913043 0 0  1.643913043478261 0 0  1.652173913043478 0 0  1.660434782608696 0 0  1.668695652173913 0 0  1.67695652173913 0 0  1.685217391304348 0 0  1.693478260869565 0 0  1.701739130434782 0 0  1.71 0 0  1.718260869565217 0 0  1.726521739130435 0 0  1.734782608695652 0 0  1.743043478260869 0 0  1.751304347826087 0 0  1.759565217391304 0 0  1.767826086956522 0 0  1.776086956521739 0 0  1.784347826086957 0 0  1.792608695652174 0 0  1.800869565217391 0 0  1.809130434782608 0 0  1.817391304347826 0 0  1.825652173913043 0 0  1.833913043478261 0 0  1.842173913043478 0 0  1.850434782608696 0 0  1.858695652173913 0 0  1.86695652173913 0 0  1.875217391304348 0 0  1.883478260869565 0 0  1.891739130434782 0 0  1.9 0 0  1.908260869565217 0 0  1.916521739130435 0 0  1.924782608695652 0 0  1.933043478260869 0 0  1.941304347826087 0 0  1.949565217391304 0 0  1.957826086956522 0 0  1.966086956521739 0 0  1.974347826086956 0 0  1.982608695652174 0 0  1.990869565217391 0 0  1.999130434782608 0 0  2.007391304347826 0 0  2.015652173913043 0 0  2.023913043478261 0 0  2.032173913043478 0 0  2.040434782608695 0 0  2.048695652173913 0 0  2.05695652173913 0 0  2.065217391304348 0 0  2.073478260869565 0 0  2.081739130434782 0 0  2.09 0 0  2.098260869565217 0 0  2.106521739130435 0 0  2.114782608695652 0 0  2.12304347826087 0 0  2.131304347826087 0 0  2.139565217391304 0 0  2.147826086956522 0 0  2.156086956521739 0 0  2.164347826086956 0 0  2.172608695652174 0 0  2.180869565217391 0 0  2.189130434782609 0 0  2.197391304347826 0 0  2.205652173913043 0 0  2.213913043478261 0 0  2.222173913043478 0 0  2.230434782608695 0 0  2.238695652173913 0 0  2.24695652173913 0 0  2.255217391304348 0 0  2.263478260869565 0 0  2.271739130434783 0 0  2.28 0 0  2.288260869565217 0 0  2.296521739130434 0 0  2.304782608695652 0 0  2.31304347826087 0 0  2.321304347826087 0 0  2.329565217391304 0 0  2.337826086956521 0 0  2.346086956521739 0 0  2.354347826086956 0 0  2.362608695652174 0 0  2.370869565217391 0 0  2.379130434782609 0 0  2.387391304347826 0 0  2.395652173913044 0 0  2.403913043478261 0 0  2.412173913043478 0 0  2.420434782608695 0 0  2.428695652173913 0 0  2.43695652173913 0 0  2.445217391304348 0 0  2.453478260869565 0 0  2.461739130434782 0 0  2.47 0 0  2.478260869565217 0 0  2.486521739130435 0 0  2.494782608695652 0 0  2.503043478260869 0 0  2.511304347826087 0 0  2.519565217391305 0 0  2.527826086956522 0 0  2.536086956521739 0 0  2.544347826086956 0 0  2.552608695652174 0 0  2.560869565217391 0 0  2.569130434782608 0 0  2.577391304347826 0 0  2.585652173913043 0 0  2.593913043478261 0 0  2.602173913043478 0 0  2.610434782608696 0 0  2.618695652173913 0 0  2.62695652173913 0 0  2.635217391304348 0 0  2.643478260869565 0 0  2.651739130434783 0 0  2.66 0 0  2.668260869565217 0 0  2.676521739130435 0 0  2.684782608695652 0 0  2.693043478260869 0 0  2.701304347826087 0 0  2.709565217391304 0 0  2.717826086956522 0 0  2.726086956521739 0 0  2.734347826086956 0 0  2.742608695652174 0 0  2.750869565217391 0 0  2.759130434782609 0 0  2.767391304347826 0 0  2.775652173913044 0 0  2.783913043478261 0 0  2.792173913043478 0 0  2.800434782608696 0 0  2.808695652173913 0 0  2.81695652173913 0 0  2.825217391304347 0 0  2.833478260869565 0 0  2.841739130434783 0 0  2.85 0 0  2.858260869565217 0 0  2.866521739130435 0 0  2.874782608695652 0 0  2.88304347826087 0 0  2.891304347826087 0 0  2.899565217391304 0 0  2.907826086956522 0 0  2.916086956521739 0 0  2.924347826086957 0 0  2.932608695652174 0 0  2.940869565217391 0 0  2.949130434782608 0 0  2.957391304347826 0 0  2.965652173913043 0 0  2.973913043478261 0 0  2.982173913043478 0 0  2.990434782608696 0 0  2.998695652173913 0 0  3.006956521739131 0 0  3.015217391304348 0 0  3.023478260869565 0 0  3.031739130434782 0 0  3.04 0 0  3.048260869565218 0 0  3.056521739130435 0 0  3.064782608695652 0 0  3.073043478260869 0 0  3.081304347826087 0 0  3.089565217391304 0 0  3.097826086956522 0 0  3.106086956521739 0 0  3.114347826086956 0 0  3.122608695652174 0 0  3.130869565217391 0 0  3.139130434782609 0 0  3.147391304347826 0 0  3.155652173913043 0 0  3.163913043478261 0 0  3.172173913043478 0 0  3.180434782608696 0 0  3.188695652173913 0 0  3.19695652173913 0 0  3.205217391304347 0 0  3.213478260869565 0 0  3.221739130434782 0 0  3.23 0 0  3.238260869565217 0 0  3.246521739130435 0 0  3.254782608695652 0 0  3.26304347826087 0 0  3.271304347826087 0 0  3.279565217391304 0 0  3.287826086956521 0 0  3.296086956521739 0 0  3.304347826086957 0 0  3.312608695652174 0 0  3.320869565217391 0 0  3.329130434782608 0 0  3.337391304347826 0 0  3.345652173913043 0 0  3.353913043478261 0 0  3.362173913043478 0 0  3.370434782608696 0 0  3.378695652173913 0 0  3.386956521739131 0 0  3.395217391304348 0 0  3.403478260869565 0 0  3.411739130434782 0 0  3.419999999999999 0 0  3.428260869565217 0 0  3.436521739130435 0 0  3.444782608695652 0 0  3.453043478260869 0 0  3.461304347826087 0 0  3.469565217391304 0 0  3.477826086956522 0 0  3.486086956521739 0 0  3.494347826086956 0 0  3.502608695652174 0 0  3.510869565217391 0 0  3.519130434782609 0 0  3.527391304347826 0 0  3.535652173913043 0 0  3.54391304347826
[...]
<PointData  Scalars="rho_bar"> 
<DataArray  type="Float64"  Name="rho_bar"  format="ascii">9.8638326945890331e-01  9.8621089719260724e-01  9.8595613169961827e-01  9.8558040175951289e-01  9.8506941859362640e-01  9.8441454442360876e-01  9.8360826315830596e-01  9.8264275931705614e-01  9.8150981730571807e-01  9.8020060848464030e-01  9.7870589688152931e-01  9.7701593592504021e-01  9.7512094937329130e-01  9.7301139487180566e-01  9.7067917952944727e-01  9.6811883454152969e-01  9.6532973248420206e-01  9.6231835264423649e-01  9.5910181572496289e-01  9.5571186094059479e-01  9.5220022384213476e-01  9.4864291869115758e-01  9.4514273401738824e-01  9.4182581823317024e-01  9.3883240603144191e-01  9.3630097922499589e-01  9.3435095451633809e-01  9.3306637117005697e-01  9.3248585035481379e-01  9.3259939724390084e-01  9.3335212447124916e-01  9.3465109058312890e-01  9.3637475896596856e-01  9.3838168396503940e-01  9.4051883356766441e-01  9.4262618641032181e-01  9.4453830539139505e-01  9.4608088448403593e-01  9.4706248256226222e-01  9.4725745844322962e-01  9.4637943743994601e-01  9.4404067556598548e-01  9.3969970373870781e-01  9.3261613565190615e-01  9.2189094912128344e-01  9.0684035138651820e-01  8.8804482202424573e-01  8.6824200498356341e-01  8.5173625283117438e-01  8.4219586274402347e-01  8.4046607446861643e-01  8.4457643189315368e-01  8.5145917903216117e-01  8.5847713998598163e-01  8.6435580896484709e-01  8.6882123166008030e-01  8.7201324211680487e-01  8.7416445835937284e-01  8.7550461344334196e-01  8.7623081362301258e-01  8.7650162978843549e-01  8.7643916101149344e-01  8.7613862896191430e-01  8.7567702755525489e-01  8.7511885713754145e-01  8.7451660082854610e-01  8.7391199544486109e-01  8.7333709920742020e-01  8.7281704075005528e-01  8.7237087408431069e-01  8.7201319916683795e-01  8.7175352388943261e-01  8.7159651434046381e-01  8.7154098275554481e-01  8.7158119031121517e-01  8.7170777432217472e-01  8.7190784207697170e-01  8.7216409635208847e-01  8.7245815257521364e-01  8.7277155766115588e-01  8.7308741864929096e-01  8.7339097785516706e-01  8.7367099858914066e-01  8.7391908988237610e-01  8.7413007111255991e-01  8.7430078363802954e-01  8.7443039772073738e-01  8.7451907213660374e-01  8.7456816863083564e-01  8.7457933568271085e-01  8.7455533294210408e-01  8.7449958499734393e-01  8.7441684360274208e-01  8.7431215410851593e-01  8.7419126411220704e-01  8.7405938300848951e-01  8.7392159806688074e-01  8.7378194115021135e-01  8.7364379508072176e-01  8.7350906446253873e-01  8.7337879629283810e-01  8.7325244542501712e-01  8.7312884643316102e-01  8.7300572211848049e-01  8.7288100572185390e-01  8.7275286576765854e-01  8.7262093893425940e-01  8.7248585675062285e-01  8.7234953633554291e-01  8.7221351727663687e-01  8.7207904512754442e-01  8.7194624506222296e-01  8.7181549527294711e-01  8.7168711566842050e-01  8.7156127319305898e-01  8.7143563784945477e-01  8.7130557685052012e-01  8.7116582342279858e-01  8.7101519828927498e-01  8.7085771496940800e-01  8.7070152418150126e-01  8.7055433644476710e-01  8.7042102387479214e-01  8.7030188348666371e-01  8.7019383000276607e-01  8.7009086415731973e-01  8.6998652696593970e-01  8.6987480901478631e-01  8.6975221193000485e-01  8.6961730465230858e-01  8.6947078626444807e-01  8.6931412135410879e-01  8.6915008759692636e-01  8.6898256961482190e-01  8.6881834185210260e-01  8.6866651295328468e-01  8.6853762818864055e-01  8.6843904280575779e-01  8.6837140550270919e-01  8.6832631511598002e-01  8.6828863159330749e-01  8.6823963625765410e-01  8.6816308806374953e-01  8.6804967243480091e-01  8.6790177177432737e-01  8.6773389750882035e-01  8.6757045085705264e-01  8.6743824521137602e-01  8.6735876194088946e-01  8.6733995617570303e-01  8.6737201860191315e-01  8.6742446081069757e-01  8.6744942257834823e-01  8.6738888812801718e-01  8.6718677119606180e-01  8.6679918457660188e-01  8.6620189567403627e-01  8.6539094622090429e-01  8.6438036183707601e-01  8.6319530103073516e-01  8.6186695417814674e-01  8.6042929424213666e-01  8.5891970975006227e-01  8.5737758973796063e-01  8.5584711724506701e-01  8.5438307559113480e-01  8.5306061723969029e-01  8.5198714267598485e-01  8.5131156399817987e-01  8.5122034008521208e-01  8.5192163584222991e-01  8.5361757896513479e-01  8.5647318204751854e-01  8.6057950643249237e-01  8.6592591804261954e-01  8.7239568634874642e-01  8.7978864313193195e-01  8.8783038030325268e-01  8.9618489479523156e-01  9.0447940024436391e-01  9.1234069737264267e-01  9.1943140332718154e-01  9.2547949933475715e-01  9.3029274811559093e-01  9.3375662540097637e-01  9.3581437128096612e-01  9.3644477887435107e-01  9.3564468875803652e-01  9.3342173334454714e-01  9.2979747006256774e-01  9.2482294728043302e-01  9.1860281625040652e-01  9.1132381612300750e-01  9.0327691804844301e-01  8.9486627470964764e-01  8.8659198767395897e-01  8.7900305157590664e-01  8.7262292853387058e-01  8.6786426069467504e-01  8.6494931731572977e-01  8.6385977571105610e-01  8.6432826558074327e-01  8.6587853364811063e-01  8.6789998956080161e-01  8.6973530704647450e-01  8.7075409984135477e-01  8.7040473906008631e-01  8.6825272174208123e-01  8.6401539249461756e-01  8.5758261202285047e-01  8.4905047636946673e-01  8.3873555139527933e-01  8.2714875659403542e-01  8.1491707016067194e-01  8.0267998367855276e-01  7.9100634149078553e-01  7.8034572162673199e-01  7.7099697522607313e-01  7.6311694076651415e-01  7.5676683898557040e-01  7.5194792536584687e-01  7.4859086875307868e-01  7.4656120710297191e-01  7.4567314898484427e-01  7.4570793899075138e-01  7.4643425830580523e-01  7.4763367275970027e-01  7.4911351517734770e-01  7.5071398684803492e-01  7.5230956819273465e-01  7.5380936169880230e-01  7.5515273575041253e-01  7.5630872398330151e-01  7.5727470226020810e-01  7.5807416600714528e-01  7.5874770975151373e-01  7.5934436783624115e-01  7.5991123181444409e-01  7.6048701485468428e-01  7.6109618824533065e-01  7.6174871840482516e-01  7.6244063480788571e-01  7.6315981310185854e-01  7.6389044775518589e-01  7.6461719207294920e-01  7.6532400612826823e-01  7.6599411243520432e-01  7.6660886237321979e-01  7.6715395773048356e-01  7.6762791858760138e-01  7.6805100053644371e-01  7.6846457281560010e-01  7.6892351399873526e-01  7.6948021781370035e-01  7.7017085963966903e-01  7.7100451167603690e-01  7.7196338616354743e-01  7.7301018583707770e-01  7.7410255367314107e-01  7.7520320230852857e-01  7.7628487242973310e-01  7.7732680720688818e-01  7.7831128543952677e-01  7.7921809505540340e-01  7.8002308480889992e-01  7.8069691036912936e-01  7.8120852326761170e-01  7.8152924280248848e-01  7.8164013058209014e-01  7.8153735077611963e-01  7.8123773270687757e-01  7.8077597889274597e-01  7.8019699427148048e-01  7.7954390635517989e-01  7.7885126258449133e-01  7.7814321786666907e-01  7.7744391746756569e-01  7.7679156729484622e-01  7.7625238878219593e-01  7.7592164292709753e-01  7.7591094809842542e-01  7.7633014564023595e-01  7.7727530431125813e-01  7.7882298525164129e-01  7.8100334298929863e-01  7.8375536533807877e-01  7.8692105126540690e-01  7.9029710172651668e-01  7.9367027000335000e-01  7.9684221054091320e-01  7.9964052948603093e-01  8.0190339763253260e-01  8.0346085443255344e-01  8.0412676023429308e-01  8.0370774239596332e-01  8.0202038720295599e-01  7.9891730985961307e-01  7.9431650614798444e-01  7.8823045104407952e-01  7.8077406979028430e-01  7.7214701267408514e-01  7.6260491310859868e-01  7.5243525628639241e-01  7.4192979185592567e-01  7.3136337769149140e-01  7.2099499417951185e-01  7.1107716465039017e-01  7.0182833708725068e-01  6.9340794646276271e-01  6.8591512751197015e-01  6.7938938056816767e-01  6.7378858160969179e-01  6.6899719109409883e-01  6.6485825906142126e-01  6.6121620055873964e-01  6.5794165846637287e-01  6.5494083398019753e-01  6.5216042601871804e-01  6.4958990446282638e-01  6.4724940596900016e-01  6.4517360889563580e-01  6.4338887409720236e-01  6.4189848435364649e-01  6.4068337784956542e-01  6.3971499771361784e-01  6.3896351184122124e-01  6.3840091623151007e-01  6.3799679490485905e-01  6.3772144488533655e-01  6.3755073289995989e-01  6.3747081542879913e-01  6.3747881336398482e-01  6.3758371241530698e-01  6.3779910151020658e-01  6.3813692882779938e-01  6.3860181840579333e-01  6.3919237260513140e-01  6.3990215601132683e-01  6.4072379400510959e-01  6.4164995593613294e-01  6.4267486427704479e-01  6.4378957687895799e-01  6.4497933187599454e-01  6.4622179819372338e-01  6.4749295901403203e-01  6.4877267627320134e-01  6.5005209537366626e-01  6.5133755423648199e-01  6.5265646693557522e-01  6.5405902473592648e-01  6.5561757943704102e-01  6.5740039276468865e-01  6.5940062267858657e-01  6.6146164189743317e-01  6.6329600348862483e-01  6.6456354213712565e-01  6.6494618397564964e-01  6.6421155051032266e-01  6.6225640687873244e-01  6.5913133698039428e-01  6.5503866179864167e-01  6.5026844116763394e-01  6.4512239742166433e-01  6.3988790973101695e-01  6.3482959638446335e-01  6.3019210307633367e-01  6.2620817156082775e-01  6.2306792784452925e-01  6.2087819872348049e-01  6.1956533236942091e-01  6.1877544581553889e-01  6.1786326828710580e-01  6.1595579640727294e-01  6.1207583253203235e-01  6.0525438843131552e-01  5.9483057983345022e-01  5.8082929193429145e-01  5.6358109223544539e-01  5.4328390758789769e-01  5.1957898233914479e-01  4.9117455215089328e-01  4.5654970310736709e-01  4.1500331046304340e-01  3.6734902836705358e-01  3.1620161609104874e-01  2.6551999456866471e-01  2.1909305321980233e-01  1.7884814940329580e-01  1.4509518561293608e-01  1.1731903877961775e-01  9.4715427416647180e-02  7.6451154711132188e-02  6.1765110896496611e-02  4.9994961573251333e-02  4.0578427213570432e-02  3.3046774657303664e-02  2.7015462567460676e-02  2.2173428807704287e-02  1.8272123677457688e-02  1.5115115948292379e-02  1.2548346265748070e-02  1.0451417620852504e-02  8.7302875276023123e-03  7.3113422367663099e-03  6.1367430545847951e-03  5.1608137307218487e-03  4.3472757140038832e-03  3.6671360818556894e-03  3.0970807753816988e-03  2.6182460653465579e-03  2.2152800537122326e-03  1.8756202869489502e-03  1.5889344081565003e-03  1.3466870065149314e-03  1.1417950085736916e-03  9.6836378111713503e-04  8.2146733073233506e-04  6.9698208557843937e-04  5.9144471349424426e-04  5.0194168645802020e-04  4.2601707853073145e-04  3.6159846810004281e-04  3.0693376588376674e-04  2.6054151729261416e-04  2.2116639196503835e-04  1.8774596091340737e-04  1.5937871044781587e-04  1.3530063854110181e-04  1.1486304180223313e-04  9.7515810036233515e-05  8.2791783252756558e-05  7.0294521393154957e-05  5.9687253659388863e-05  5.0684335675733979e-05  4.3043071701127316e-05  3.6557605157460027e-05  3.1053102909487541e-05  2.6381166144282394e-05  2.2415889710989562e-05  1.9050385084978938e-05  1.6194019489204973e-05  1.3769835115025792e-05  1.1712580843701749e-05  9.9669722976397930e-06  8.4861569023230024e-06  7.2303982931459530e-06  6.1660747818358742e-06  5.2647382386055639e-06  4.5023775459497523e-06  3.8586710101946478e-06  3.3165262057958036e-06  2.8615863113660278e-06  2.4818560347169883e-06  2.1673287926559841e-06  1.9097622168772276e-06  1.7024410624173173e-06  1.5400224443593789e-06  1.4183854805048203e-06  1.3346515304092512e-06  1.2874276693934869e-06  1.2781686255681295e-06  9.8573039469320967e-01  9.8562429326868040e-01  9.8537498633796550e-01  9.8498498357106923e-01  9.8444889971292027e-01  9.8375992888968278e-01  9.8291047184234404e-01  9.8189230969313634e-01  9.8069642360696518e-01  9.7931323359617228e-01  9.7773247921383455e-01  9.7594351672706880e-01  9.7393531101121067e-01  9.7169719744207006e-01  9.6921964190560694e-01  9.6649608143873988e-01  9.6352477572981798e-01  9.6031171032004170e-01  9.5687376689129400e-01  9.5324367711817370e-01  9.4947554080398755e-01  9.4565095907618513e-01  9.4188164225512450e-01  9.3830694325366260e-01  9.3508254174557937e-01  9.3236284164838079e-01  9.3028024934134657e-01  9.2892750217353204e-01  9.2834527762640195e-01  9.2852018784493406e-01  9.2938901136655760e-01  9.3084854958693053e-01  9.3276621047571906e-01  9.3499019206929945e-01  9.3735750655853234e-01  9.3969951830685539e-01  9.4184331573938362e-01  9.4360982265795890e-01  9.4480523618526047e-01  9.4520551330763292e-01  9.4453028946779627e-01  9.4240608585015062e-01  9.3831866313118339e-01  9.3157435436036062e-01  9.2133730558941740e-01  9.0693692878532284e-01  8.8878628004412541e-01  8.6932769439275326e-01  8.5260008206718707e-01  8.4222830072869093e-01  8.3931789186979777e-01  8.4219670956453563e-01  8.4803032861508232e-01  8.5423760205368038e-01  8.5947083622104814e-01  8.6343007981479569e-01  8.6622993362205236e-01  8.6806989536805867e-01  8.6915525410302685e-01  8.6966825525472891e-01  8.6975683609941945e-01  8.6953489831754827e-01  8.6909051994141218e-01  8.6849741006487424e-01  8.6781842439139767e-01  8.6710559532277243e-01  8.6639929784650949e-01  8.6573091420772119e-01  8.6512459648375473e-01  8.6459973750159158e-01  8.6417108513806262e-01  8.6384952433301698e-01  8.6364051455672930e-01  8.6354388791341263e-01  8.6355344515891186e-01  8.6365899892802800e-01  8.6384609728432504e-01  8.6409636029946479e-01  8.6438938674247190e-01  8.6470572076697050e-01  8.6502675947458274e-01  8.6533673406108536e-01  8.6562300663536285e-01  8.6587680258474520e-01  8.6609211333047464e-01  8.6626591996503743e-01  8.6639685629938856e-01  8.6648540413333341e-01  8.6653248729133769e-01  8.6653985068429940e-01  8.6650983042325480e-01  8.6644633878729926e-01  8.6635407155679323e-01  8.6623891261360964e-01  8.6610668635299193e-01  8.6596346481823316e-01  8.6581441632561829e-01  8.6566421810939798e-01  8.6551617344243070e-01  8.6537269070868117e-01  8.6523444814641304e-01  8.6510116681184712e-01  8.6497099354444640e-01  8.6484163992557372e-01  8.6471023121748702e-01  8.6457484312327670e-01  8.6443462805751459e-01  8.6429080757026988e-01  8.6414541829022340e-01  8.6400085131794091e-01  8.6385801972752363e-01  8.6371722902105286e-01  8.6357838768674655e-01  8.6344247335104085e-01  8.6331007036780838e-01  8.6317936717659660e-01  8.6304402368391930e-01  8.6289714419010888e-01  8.6273616016057575e-01  8.6256655021401685e-01  8.6239838160505011e-01  8.6224154463383917e-01  8.6210134562206808e-01  8.6197826009166445e-01  8.6186801952947800e-01  8.6176388855167796e-01  8.6165772023285037e-01  8.6154290000812705e-01  8.6141518902293956e-01  8.6127360214819959e-01  8.6111882099093395e-01  8.6095288418555560e-01  8.6077813267840519e-01  8.6059873983956792e-01  8.6042136592805862e-01  8.6025685545993036e-01  8.6011780252943804e-01  8.6001420007307228e-01  8.5994712238882764e-01  8.5990733250497497e-01  8.5987658098818520e-01  8.5983307923681496e-01  8.5975677634835135e-01  8.5963645318574011e-01  8.5947381651811450e-01  8.5928592450819863e-01  8.5910137495964334e-01  8.5895282803239303e-01  8.5886595753989381e-01  8.5885183977006629e-01  8.5890049941136726e-01  8.5897893888044152e-01  8.5903251710451733e-01  8.5899479073336260e-01  8.5880082570170768e-01  8.5840136849923765e-01  8.5776982761304288e-01  8.5690426424924071e-01  8.5582250097761559e-01  8.5455541037467053e-01  8.5313855089420587e-01  8.5160992427396232e-01  8.5001028644897836e-01  8.4838338250025780e-01  8.4677614867153805e-01  8.4524584567501615e-01  8.4386796253186624e-01  8.4275320689229105e-01  8.4205855840503374e-01  8.4198459696742101e-01  8.4275615102405788e-01  8.4459229718593998e-01  8.4767096606679093e-01  8.5209149721159061e-01  8.5784228138318830e-01  8.6479737601732320e-01  8.7274204866678262e-01  8.8138445283987676e-01  8.9036578430382807e-01  8.9928662126402070e-01  9.0774390588627885e-01  9.1537171047968557e-01  9.2187335366606160e-01  9.2703984993759658e-01  9.3074782948899115e-01  9.3293881046880278e-01  9.3359273280466093e-01  9.3270833298413924e-01  9.3029396215344717e-01  9.2637218790404485e-01  9.2099653082102217e-01  9.1427981666271729e-01  9.0642501676743048e-01  8.9775032745753913e-01  8.8869757233536084e-01  8.7981313567123465e-01  8.7169382791322148e-01  8.6490690048517571e-01  8.5989718918369218e-01  8.5690423271182170e-01  8.5590685761556429e-01  8.5661455536953246e-01  8.5850831242598102e-01  8.6092297153618813e-01  8.6314174204673610e-01  8.6447840476479720e-01  8.6433166650323712e-01  8.6222366460344679e-01  8.5783611538023474e-01  8.5103857868344668e-01  8.4193104282238473e-01  8.3086483518904009e-01  8.1840827401995087e-01  8.0525426449406312e-01  7.9209679146646372e-01  7.7954587517451523e-01  7.6808261420224411e-01  7.5802443356342686e-01  7.4952837363407199e-01  7.4264886300488087e-01  7.3738651418961587e-01  7.3367643333699395e-01  7.3138263693014938e-01  7.3031243258097389e-01  7.3023403820793731e-01  7.3090080087941478e-01  7.3207779069797696e-01  7.3356017780884597e-01  7.3517796731960972e-01  7.3679889992098979e-01  7.3832506520727303e-01  7.3969125261046587e-01  7.4086228945460497e-01  7.4183459002865848e-01  7.4263274309479355e-01  7.4330169407154600e-01  7.4389432784424470e-01  7.4446256438895142e-01  7.4504762939848179e-01  7.4567615231712481e-01  7.4635734630250883e-01  7.4708548818548137e-01  7.4784491854832569e-01  7.4861817638572259e-01  7.4938835384841451e-01  7.5013958478233600e-01  7.5085351945755396e-01  7.5150916144139446e-01  7.5208708670847957e-01  7.5258287024582848e-01  7.5301689408346018e-01  7.5343655516282515e-01  7.5390483059867619e-01  7.5448341997581858e-01  7.5521369253628989e-01  7.5610635571932594e-01  7.5713899316212963e-01  7.5826749092798684e-01  7.5944199311583560e-01  7.6062150737954526e-01  7.6177679573882273e-01  7.6288787978220174e-01  7.6393701377698331e-01  7.6490478222146074e-01  7.6576600613712698e-01  7.6649030230605197e-01  7.6704367025195619e-01  7.6739498015216578e-01  7.6752211630452216e-01  7.6742111769793808e-01  7.6711153066893656e-01  7.6663657374913574e-01  7.6605073861624129e-01  7.6540617507391773e-01  7.6474207902852820e-01  7.6408326778539593e-01  7.6344958620740389e-01  7.6287803273264065e-01  7.6243816407451004e-01  7.6223279240977382e-01  7.6237768620032231e-01  7.6298488740152060e-01  7.6415135158802805e-01  7.6595761397040152e-01  7.6844073892083098e-01  7.7154451085786735e-01  7.7509820406218044e-01  7.7887485579463533e-01  7.8263536481841500e-01  7.8616375482835643e-01  7.8928056070456720e-01  7.9182205871527034e-01  7.9361188400007310e-01  7.9445339271453574e-01  7.9413816785262770e-01  7.9246726810110102e-01  7.8927714115007830e-01  7.8447357013675700e-01  7.7806506394513342e-01  7.7017556525370467e-01  7.6101938231933874e-01  7.5086972999905588e-01  7.4003302122021608e-01  7.2882202311419875e-01  7.1752545309945037e-01  7.0641460424864400e-01  6.9576502623343783e-01  6.8581851423434370e-01  6.7674270812049830e-01  6.6864421449826050e-01  6.6157332865441199e-01  6.5549912944722744e-01  6.5030398432781977e-01  6.4582358116481797e-01  6.4188868578563385e-01  6.3835846936875740e-01  6.3512841018530397e-01  6.3213904900025386e-01  6.2937742161143551e-01  6.2686653374950785e-01  6.2464547744677512e-01  6.2274505937215530e-01  6.2116546230719938e-01  6.1988210807211108e-01  6.1886006720803444e-01  6.1806745503058025e-01  6.1747475818093689e-01  6.1705015557556442e-01  6.1675968090389099e-01  6.1657727142805474e-01  6.1648682854662729e-01  6.1648564555209340e-01  6.1658378055702734e-01  6.1679829077910009e-01  6.1714196678864075e-01  6.1762025747386406e-01  6.1823028406669078e-01  6.1896501092892653e-01  6.1981539291527632e-01  6.2077450464685946e-01  6.2183690566056127e-01  6.2299581079590793e-01  6.2423578507959809e-01  6.2553355881367623e-01  6.2686200448052409e-01  6.2819948794462621e-01  6.2953523643640241e-01  6.3087569845040825e-01  6.3224797577954905e-01  6.3370486058926578e-01  6.3532557481399143e-01  6.3720107302539353e-01  6.3934885313768286e-01  6.4160790857740280e-01  6.4365936141394853e-01  6.4513107202130815e-01  6.4567487149330571e-01  6.4504159347378298e-01  6.4312183442589332e-01  6.3997615929396301e-01  6.3583817860661429e-01  6.3103971010705073e-01  6.2590889735685695e-01  6.2075976710738900e-01  6.1587976504967445e-01  6.1152658751001887e-01  6.0794496031891654e-01  6.0533302861894744e-01  6.03809612251