<?xml version="1.0"?>
<VTKFile type="UnstructuredGrid"  version="0.1"  >
<UnstructuredGrid>
<Piece  NumberOfPoints="28121" NumberOfCells="55200">
<Points>
<DataArray  type="Float64"  NumberOfComponents="3"  format="ascii">0 0 0  0.008260869565217391 0 0  0.01652173913043478 0 0  0.02478260869565217 0 0  0.03304347826086956 0 0  0.04130434782608695 0 0  0.04956521739130434 0 0  0.05782608695652174 0 0  0.06608695652173913 0 0  0.07434782608695652 0 0  0.08260869565217391 0 0  0.0908695652173913 0 0  0.09913043478260869 0 0  0.1073913043478261 0 0  0.1156521739130435 0 0  0.1239130434782609 0 0  0.1321739130434783 0 0  0.1404347826086956 0 0  0.148695652173913 0 0  0.1569565217391304 0 0  0.1652173913043478 0 0  0.1734782608695652 0 0  0.1817391304347826 0 0  0.19 0 0  0.1982608695652174 0 0  0.2065217391304348 0 0  0.2147826086956522 0 0  0.2230434782608696 0 0  0.2313043478260869 0 0  0.2395652173913043 0 0  0.2478260869565218 0 0  0.2560869565217391 0 0  0.2643478260869565 0 0  0.2726086956521739 0 0  0.2808695652173913 0 0  0.2891304347826087 0 0  0.2973913043478261 0 0  0.3056521739130434 0 0  0.3139130434782609 0 0  0.3221739130434783 0 0  0.3304347826086956 0 0  0.338695652173913 0 0  0.3469565217391304 0 0  0.3552173913043478 0 0  0.3634782608695652 0 0  0.3717391304347826 0 0  0.3799999999999999 0 0  0.3882608695652174 0 0  0.3965217391304348 0 0  0.4047826086956521 0 0  0.4130434782608696 0 0  0.4213043478260869 0 0  0.4295652173913043 0 0  0.4378260869565217 0 0  0.4460869565217391 0 0  0.4543478260869565 0 0  0.4626086956521739 0 0  0.4708695652173913 0 0  0.4791304347826086 0 0  0.4873913043478261 0 0  0.4956521739130435 0 0  0.5039130434782608 0 0  0.5121739130434783 0 0  0.5204347826086956 0 0  0.528695652173913 0 0  0.5369565217391304 0 0  0.5452173913043478 0 0  0.5534782608695652 0 0  0.5617391304347825 0 0  0.57 0 0  0.5782608695652174 0 0  0.5865217391304348 0 0  0.5947826086956521 0 0  0.6030434782608696 0 0  0.6113043478260869 0 0  0.6195652173913043 0 0  0.6278260869565218 0 0  0.6360869565217391 0 0  0.6443478260869565 0 0  0.6526086956521739 0 0  0.6608695652173913 0 0  0.6691304347826087 0 0  0.677391304347826 0 0  0.6856521739130435 0 0  0.6939130434782609 0 0  0.7021739130434783 0 0  0.7104347826086956 0 0  0.718695652173913 0 0  0.7269565217391304 0 0  0.7352173913043478 0 0  0.7434782608695653 0 0  0.7517391304347827 0 0  0.7599999999999999 0 0  0.7682608695652173 0 0  0.7765217391304348 0 0  0.7847826086956522 0 0  0.7930434782608695 0 0  0.8013043478260868 0 0  0.8095652173913043 0 0  0.8178260869565217 0 0  0.8260869565217391 0 0  0.8343478260869565 0 0  0.8426086956521739 0 0  0.8508695652173912 0 0  0.8591304347826086 0 0  0.8673913043478261 0 0  0.8756521739130434 0 0  0.8839130434782608 0 0  0.8921739130434783 0 0  0.9004347826086956 0 0  0.908695652173913 0 0  0.9169565217391303 0 0  0.9252173913043478 0 0  0.9334782608695652 0 0  0.9417391304347826 0 0  0.95 0 0  0.9582608695652173 0 0  0.9665217391304347 0 0  0.9747826086956521 0 0  0.9830434782608696 0 0  0.991304347826087 0 0  0.9995652173913042 0 0  1.007826086956522 0 0  1.016086956521739 0 0  1.024347826086957 0 0  1.032608695652174 0 0  1.040869565217391 0 0  1.049130434782609 0 0  1.057391304347826 0 0  1.065652173913043 0 0  1.073913043478261 0 0  1.082173913043478 0 0  1.090434782608696 0 0  1.098695652173913 0 0  1.10695652173913 0 0  1.115217391304348 0 0  1.123478260869565 0 0  1.131739130434783 0 0  1.14 0 0  1.148260869565217 0 0  1.156521739130435 0 0  1.164782608695652 0 0  1.17304347826087 0 0  1.181304347826087 0 0  1.189565217391304 0 0  1.197826086956522 0 0  1.206086956521739 0 0  1.214347826086956 0 0  1.222608695652174 0 0  1.230869565217391 0 0  1.239130434782609 0 0  1.247391304347826 0 0  1.255652173913044 0 0  1.263913043478261 0 0  1.272173913043478 0 0  1.280434782608696 0 0  1.288695652173913 0 0  1.296956521739131 0 0  1.305217391304348 0 0  1.313478260869565 0 0  1.321739130434783 0 0  1.33 0 0  1.338260869565217 0 0  1.346521739130435 0 0  1.354782608695652 0 0  1.36304347826087 0 0  1.371304347826087 0 0  1.379565217391304 0 0  1.387826086956522 0 0  1.396086956521739 0 0  1.404347826086957 0 0  1.412608695652174 0 0  1.420869565217391 0 0  1.429130434782609 0 0  1.437391304347826 0 0  1.445652173913043 0 0  1.453913043478261 0 0  1.462173913043478 0 0  1.470434782608696 0 0  1.478695652173913 0 0  1.486956521739131 0 0  1.495217391304348 0 0  1.503478260869565 0 0  1.511739130434782 0 0  1.52 0 0  1.528260869565217 0 0  1.536521739130435 0 0  1.544782608695652 0 0  1.55304347826087 0 0  1.561304347826087 0 0  1.569565217391304 0 0  1.577826086956522 0 0  1.586086956521739 0 0  1.594347826086957 0 0  1.602608695652174 0 0  1.610869565217391 0 0  1.619130434782609 0 0  1.627391304347826 0 0  1.635652173913043 0 0  1.643913043478261 0 0  1.652173913043478 0 0  1.660434782608696 0 0  1.668695652173913 0 0  1.67695652173913 0 0  1.685217391304348 0 0  1.693478260869565 0 0  1.701739130434782 0 0  1.71 0 0  1.718260869565217 0 0  1.726521739130435 0 0  1.734782608695652 0 0  1.743043478260869 0 0  1.751304347826087 0 0  1.759565217391304 0 0  1.767826086956522 0 0  1.776086956521739 0 0  1.784347826086957 0 0  1.792608695652174 0 0  1.800869565217391 0 0  1.809130434782608 0 0  1.817391304347826 0 0  1.825652173913043 0 0  1.833913043478261 0 0  1.842173913043478 0 0  1.850434782608696 0 0  1.858695652173913 0 0  1.86695652173913 0 0  1.875217391304348 0 0  1.883478260869565 0 0  1.891739130434782 0 0  1.9 0 0  1.908260869565217 0 0  1.916521739130435 0 0  1.924782608695652 0 0  1.933043478260869 0 0  1.941304347826087 0 0  1.949565217391304 0 0  1.957826086956522 0 0  1.966086956521739 0 0  1.974347826086956 0 0  1.982608695652174 0 0  1.990869565217391 0 0  1.999130434782608 0 0  2.007391304347826 0 0  2.015652173913043 0 0  2.023913043478261 0 0  2.032173913043478 0 0  2.040434782608695 0 0  2.048695652173913 0 0  2.05695652173913 0 0  2.065217391304348 0 0  2.073478260869565 0 0  2.081739130434782 0 0  2.09 0 0  2.098260869565217 0 0  2.106521739130435 0 0  2.114782608695652 0 0  2.12304347826087 0 0  2.131304347826087 0 0  2.139565217391304 0 0  2.147826086956522 0 0  2.156086956521739 0 0  2.164347826086956 0 0  2.172608695652174 0 0  2.180869565217391 0 0  2.189130434782609 0 0  2.197391304347826 0 0  2.205652173913043 0 0  2.213913043478261 0 0  2.222173913043478 0 0  2.230434782608695 0 0  2.238695652173913 0 0  2.24695652173913 0 0  2.255217391304348 0 0  2.263478260869565 0 0  2.271739130434783 0 0  2.28 0 0  2.288260869565217 0 0  2.296521739130434 0 0  2.304782608695652 0 0  2.31304347826087 0 0  2.321304347826087 0 0  2.329565217391304 0 0  2.337826086956521 0 0  2.346086956521739 0 0  2.354347826086956 0 0  2.362608695652174 0 0  2.370869565217391 0 0  2.379130434782609 0 0  2.387391304347826 0 0  2.395652173913044 0 0  2.403913043478261 0 0  2.412173913043478 0 0  2.420434782608695 0 0  2.428695652173913 0 0  2.43695652173913 0 0  2.445217391304348 0 0  2.453478260869565 0 0  2.461739130434782 0 0  2.47 0 0  2.478260869565217 0 0  2.486521739130435 0 0  2.494782608695652 0 0  2.503043478260869 0 0  2.511304347826087 0 0  2.519565217391305 0 0  2.527826086956522 0 0  2.536086956521739 0 0  2.544347826086956 0 0  2.552608695652174 0 0  2.560869565217391 0 0  2.569130434782608 0 0  2.577391304347826 0 0  2.585652173913043 0 0  2.593913043478261 0 0  2.602173913043478 0 0  2.610434782608696 0 0  2.618695652173913 0 0  2.62695652173913 0 0  2.635217391304348 0 0  2.643478260869565 0 0  2.651739130434783 0 0  2.66 0 0  2.668260869565217 0 0  2.676521739130435 0 0  2.684782608695652 0 0  2.693043478260869 0 0  2.701304347826087 0 0  2.709565217391304 0 0  2.717826086956522 0 0  2.726086956521739 0 0  2.734347826086956 0 0  2.742608695652174 0 0  2.750869565217391 0 0  2.759130434782609 0 0  2.767391304347826 0 0  2.775652173913044 0 0  2.783913043478261 0 0  2.792173913043478 0 0  2.800434782608696 0 0  2.808695652173913 0 0  2.81695652173913 0 0  2.825217391304347 0 0  2.833478260869565 0 0  2.841739130434783 0 0  2.85 0 0  2.858260869565217 0 0  2.866521739130435 0 0  2.874782608695652 0 0  2.88304347826087 0 0  2.891304347826087 0 0  2.899565217391304 0 0  2.907826086956522 0 0  2.916086956521739 0 0  2.924347826086957 0 0  2.932608695652174 0 0  2.940869565217391 0 0  2.949130434782608 0 0  2.957391304347826 0 0  2.965652173913043 0 0  2.973913043478261 0 0  2.982173913043478 0 0  2.990434782608696 0 0  2.998695652173913 0 0  3.006956521739131 0 0  3.015217391304348 0 0  3.023478260869565 0 0  3.031739130434782 0 0  3.04 0 0  3.048260869565218 0 0  3.056521739130435 0 0  3.064782608695652 0 0  3.073043478260869 0 0  3.081304347826087 0 0  3.089565217391304 0 0  3.097826086956522 0 0  3.106086956521739 0 0  3.114347826086956 0 0  3.122608695652174 0 0  3.130869565217391 0 0  3.139130434782609 0 0  3.147391304347826 0 0  3.155652173913043 0 0  3.163913043478261 0 0  3.172173913043478 0 0  3.180434782608696 0 0  3.188695652173913 0 0  3.19695652173913 0 0  3.205217391304347 0 0  3.213478260869565 0 0  3.221739130434782 0 0  3.23 0 0  3.238260869565217 0 0  3.246521739130435 0 0  3.254782608695652 0 0  3.26304347826087 0 0  3.271304347826087 0 0  3.279565217391304 0 0  3.287826086956521 0 0  3.296086956521739 0 0  3.304347826086957 0 0  3.312608695652174 0 0  3.320869565217391 0 0  3.329130434782608 0 0  3.337391304347826 0 0  3.345652173913043 0 0  3.353913043478261 0 0  3.362173913043478 0 0  3.370434782608696 0 0  3.378695652173913 0 0  3.386956521739131 0 0  3.395217391304348 0 0  3.403478260869565 0 0  3.411739130434782 0 0  3.419999999999999 0 0  3.428260869565217 0 0  3.436521739130435 0 0  3.444782608695652 0 0  3.453043478260869 0 0  3.461304347826087 0 0  3.469565217391304 0 0  3.477826086956522 0 0  3.486086956521739 0 0  3.494347826086956 0 0  3.502608695652174 0 0  3.510869565217391 0 0  3.519130434782609 0 0  3.527391304347826 0 0  3.535652173913043 0 0  3.54391304347826
[...]
<PointData  Scalars="rho_bar"> 
<DataArray  type="Float64"  Name="rho_bar"  format="ascii">8.2415343881098435e-01  8.2342936477676754e-01  8.2297096010571757e-01  8.2252600997826453e-01  8.2201045187272670e-01  8.2138723732447894e-01  8.2063772624301023e-01  8.1975357218385625e-01  8.1873410895569287e-01  8.1758457781492566e-01  8.1631508257515428e-01  8.1493972896640487e-01  8.1347619175622132e-01  8.1194524323541728e-01  8.1037030278098798e-01  8.0877617459638207e-01  8.0718785431606177e-01  8.0562889875615906e-01  8.0412030370288590e-01  8.0267937935134237e-01  8.0131942678238965e-01  8.0004932478544588e-01  7.9887414722409178e-01  7.9779549562274032e-01  7.9681257899551228e-01  7.9592256009754758e-01  7.9512063423688062e-01  7.9439925037338521e-01  7.9374761556372231e-01  7.9315093694119820e-01  7.9259064376332122e-01  7.9204448206955902e-01  7.9148800029380340e-01  7.9089682414873952e-01  7.9025063548835239e-01  7.8953526993604473e-01  7.8874069302625172e-01  7.8785798695961207e-01  7.8687830306808593e-01  7.8579261597790828e-01  7.8459342145306532e-01  7.8327652372292189e-01  7.8184194833794618e-01  7.8029353872810281e-01  7.7864024414960598e-01  7.7689697284423553e-01  7.7508302843020571e-01  7.7321882871047365e-01  7.7132427093117262e-01  7.6941763784598161e-01  7.6751542919433235e-01  7.6563213148664433e-01  7.6378046266281274e-01  7.6197121889931774e-01  7.6021368708891368e-01  7.5851545095189121e-01  7.5688274774693198e-01  7.5532038246068289e-01  7.5383196237429106e-01  7.5241981069654607e-01  7.5108526218857663e-01  7.4982849608012525e-01  7.4864893996802406e-01  7.4754503381543946e-01  7.4651461573409572e-01  7.4555485509299424e-01  7.4466255501014456e-01  7.4383417661258067e-01  7.4306621874814416e-01  7.4235518483209062e-01  7.4169794300282721e-01  7.4109130749118968e-01  7.4053213151656394e-01  7.4001706558618763e-01  7.3954269677940998e-01  7.3910539399469488e-01  7.3870155698845830e-01  7.3832738526091179e-01  7.3797923674256849e-01  7.3765332663736549e-01  7.3734602402280391e-01  7.3705366282818563e-01  7.3677271142982415e-01  7.3649961273980280e-01  7.3623095953170437e-01  7.3596325822570541e-01  7.3569320594324794e-01  7.3541739298168485e-01  7.3513253837415049e-01  7.3483531084597808e-01  7.3452247617784028e-01  7.3419071817341330e-01  7.3383687099895500e-01  7.3345768405597567e-01  7.3305020412829724e-01  7.3261150891146964e-01  7.3213904039151834e-01  7.3163043917167447e-01  7.3108372766564822e-01  7.3049714758533668e-01  7.2986933536653309e-01  7.2919907825951791e-01  7.2848559342503805e-01  7.2772823084277583e-01  7.2692671899002137e-01  7.2608099333381249e-01  7.2519135339919549e-01  7.2425827999950987e-01  7.2328264722919244e-01  7.2226544247376689e-01  7.2120808075713017e-01  7.2011206360774904e-01  7.1897924269692681e-01  7.1781160206526651e-01  7.1661140564277892e-01  7.1538101008169963e-01  7.1412302022773777e-01  7.1284002630645360e-01  7.1153485860641641e-01  7.1021026595890235e-01  7.0886913029418119e-01  7.0751426470762768e-01  7.0614853802404920e-01  7.0477466505940511e-01  7.0339538782091426e-01  7.0201317825768794e-01  7.0063052891452193e-01  6.9924960605878794e-01  6.9787250324652761e-01  6.9650102839398875e-01  6.9513685673560333e-01  6.9378136160905723e-01  6.9243578996471777e-01  6.9110103368144205e-01  6.8977791496090657e-01  6.8846691279892569e-01  6.8716842020468849e-01  6.8588259915462679e-01  6.8460955178688765e-01  6.8334917476021340e-01  6.8210138207078175e-01  6.8086587281583055e-01  6.7964245309390825e-01  6.7843074154681848e-01  6.7723044738618732e-01  6.7604119765075199e-01  6.7486270685116523e-01  6.7369462267990665e-01  6.7253672277078225e-01  6.7138868419326958e-01  6.7025037864650983e-01  6.6912158435015001e-01  6.6800223201747877e-01  6.6689223559157929e-01  6.6579163061172120e-01  6.6470041451991002e-01  6.6361871444531706e-01  6.6254654685220127e-01  6.6148409217677351e-01  6.6043139925551575e-01  6.5938862549298372e-01  6.5835586397479096e-01  6.5733329352378422e-01  6.5632101266984111e-01  6.5531923169920625e-01  6.5432802137768864e-01  6.5334760491866573e-01  6.5237805247588598e-01  6.5141952260124480e-01  6.5047206819447578e-01  6.4953576804517510e-01  6.4861055744517859e-01  6.4769637196028917e-01  6.4679291509111236e-01  6.4589991727265050e-01  6.4501687642301653e-01  6.4414330806530928e-01  6.4327861241448603e-01  6.4242223643413299e-01  6.4157351040481114e-01  6.4073183005326195e-01  6.3989637738529803e-01  6.3906637778281994e-01  6.3824075647177292e-01  6.3741835293063498e-01  6.3659771216670191e-01  6.3577723701978683e-01  6.3495507758849745e-01  6.3412936865651437e-01  6.3329810371757789e-01  6.3245946681850707e-01  6.3161161384441744e-01  6.3075291865081218e-01  6.2988182562205108e-01  6.2899699363705297e-01  6.2809713466484629e-01  6.2718121247793390e-01  6.2624820314554330e-01  6.2529739495811354e-01  6.2432809974607562e-01  6.2333991041805337e-01  6.2233252398937478e-01  6.2130589225932598e-01  6.2026006999957950e-01  6.1919536861676427e-01  6.1811213339943816e-01  6.1701098351802974e-01  6.1589253405945033e-01  6.1475759909758598e-01  6.1360702081178020e-01  6.1244179181180169e-01  6.1126287698400494e-01  6.1007138762906132e-01  6.0886832461473850e-01  6.0765485053847890e-01  6.0643198720106617e-01  6.0520085157756121e-01  6.0396247050053686e-01  6.0271792085435405e-01  6.0146817832391442e-01  6.0021426851776727e-01  5.9895705372024111e-01  5.9769747340811774e-01  5.9643628030055673e-01  5.9517424649878470e-01  5.9391200443034886e-01  5.9265017369064299e-01  5.9138919495001174e-01  5.9012950770042960e-01  5.8887130963159107e-01  5.8761483353147648e-01  5.8636006712437339e-01  5.8510700044258912e-01  5.8385546529582977e-01  5.8260529350847268e-01  5.8135619229019375e-01  5.8010791309325305e-01  5.7886006530660750e-01  5.7761236985634534e-01  5.7636442049482917e-01  5.7511590113117073e-01  5.7386644636165884e-01  5.7261577697217647e-01  5.7136355163028651e-01  5.7010954364382038e-01  5.6885341425938840e-01  5.6759497568266581e-01  5.6633391535229916e-01  5.6507002089135405e-01  5.6380301142632794e-01  5.6253267221181036e-01  5.6125870961352420e-01  5.5998090480315432e-01  5.5869891039878827e-01  5.5741249243168967e-01  5.5612128169081310e-01  5.5482498773939304e-01  5.5352325738794772e-01  5.5221580730588815e-01  5.5090229052220985e-01  5.4958246267026201e-01  5.4825597967176809e-01  5.4692265027741882e-01  5.4558218540850445e-01  5.4423441480423485e-01  5.4287913944095201e-01  5.4151626386240570e-01  5.4014565413330240e-01  5.3876729883096020e-01  5.3738109831131242e-01  5.3598711224025797e-01  5.3458530253856718e-01  5.3317574966769443e-01  5.3175850116735091e-01  5.3033370541927061e-01  5.2890148671796733e-01  5.2746209483705286e-01  5.2601571723660678e-01  5.2456270409665218e-01  5.2310332409623106e-01  5.2163794078442649e-01  5.2016684417841841e-01  5.1869033841450940e-01  5.1720856372573032e-01  5.1572163966936246e-01  5.1422946695893101e-01  5.1273202340782253e-01  5.1122917478920626e-01  5.0972093115528172e-01  5.0820731416839093e-01  5.0668848992637794e-01  5.0516464790836169e-01  5.0363614048275640e-01  5.0210330620470245e-01  5.0056667830186541e-01  4.9902675375926769e-01  4.9748416468610301e-01  4.9593953457283763e-01  4.9439358302613445e-01  4.9284697898170671e-01  4.9130048959055528e-01  4.8975476836847892e-01  4.8821058175978183e-01  4.8666855228499450e-01  4.8512934661820595e-01  4.8359350703089871e-01  4.8206155235305120e-01  4.8053383470986444e-01  4.7901064918815900e-01  4.7749204675731061e-01  4.7597802720852173e-01  4.7446832345937573e-01  4.7296258021619753e-01  4.7146023790559316e-01  4.6996065726771913e-01  4.6846300489462234e-01  4.6696641925214161e-01  4.6546982965078715e-01  4.6397219011597651e-01  4.6247225052648461e-01  4.6096875389368130e-01  4.5946029856865278e-01  4.5794546293468580e-01  4.5642270090528547e-01  4.5489047547295763e-01  4.5334710373983828e-01  4.5179095311325190e-01  4.5022023730095678e-01  4.4863317785033718e-01  4.4702787447582643e-01  4.4540239775970553e-01  4.4375464926028957e-01  4.4208249365104385e-01  4.4038358899437446e-01  4.3865566807943845e-01  4.3689645218999235e-01  4.3510402512183288e-01  4.3327690707656535e-01  4.3141438041581170e-01  4.2951659356677019e-01  4.2758489363083957e-01  4.2562186574811567e-01  4.2363164176570461e-01  4.2161970871077692e-01  4.1959289785879295e-01  4.1755891685038382e-01  4.1552590804796791e-01  4.1350161338173169e-01  4.1149258543970779e-01  4.0950290458912897e-01  4.0753307328039862e-01  4.0557838366966670e-01  4.0362759869116921e-01  4.0166137418952585e-01  3.9965104411311114e-01  3.9755748275394232e-01  3.9533069840424290e-01  3.9291009638964414e-01  3.9022681941514603e-01  3.8720873071984985e-01  3.8378989741298869e-01  3.7992500881993946e-01  3.7561026574179374e-01  3.7090884551973469e-01  3.6597375796831072e-01  3.6105377911890840e-01  3.5641097313293690e-01  3.5215039185450503e-01  3.4824657883937593e-01  3.4462182630738625e-01  3.4118558166474700e-01  3.3785078233837545e-01  3.3454118022287060e-01  3.3119380556111400e-01  3.2775921718344769e-01  3.2420017040453203e-01  3.2049003185043334e-01  3.1661086062479088e-01  3.1255179953812579e-01  3.0830757088328720e-01  3.0387739410249393e-01  2.9926401861393598e-01  2.9447325542859726e-01  2.8951351391504515e-01  2.8439572860859236e-01  2.7913305632633661e-01  2.7374025681840392e-01  2.6823182879954632e-01  2.6261922010092198e-01  2.5691078809667345e-01  2.5111628913568956e-01  2.4524645900056558e-01  2.3930979308130057e-01  2.3330566798610122e-01  2.2721609235854101e-01  2.2101953915531833e-01  2.1471939048552238e-01  2.0831789002941933e-01  2.0178945508319202e-01  1.9506007944296966e-01  1.8799462467291012e-01  1.8044201533934237e-01  1.7233201967598114e-01  1.6371712651694428e-01  1.5474272205009504e-01  1.4555036532801144e-01  1.3625548741048799e-01  1.2695554817877017e-01  1.1773915839418604e-01  1.0869269447705403e-01  9.9904485996371112e-02  9.1465335022687513e-02  8.3463060828482386e-02  7.5969314155891560e-02  6.9027573725577551e-02  6.2653726146371089e-02  5.6841570294492730e-02  5.1566672382589031e-02  4.6791389182830510e-02  4.2471975001531173e-02  3.8563737741223424e-02  3.5023799151993225e-02  3.1812507656286619e-02  2.8894075873173830e-02  2.6236790027764797e-02  2.3812898523500822e-02  2.1598339278167268e-02  1.9572367644454469e-02  1.7717144398334508e-02  1.6017325566707812e-02  1.4459669797043958e-02  1.3032674272627784e-02  1.1726252737524395e-02  1.0531451306798532e-02  9.4402171591063608e-03  8.4452061682393827e-03  7.5396400258437553e-03  6.7171927700956533e-03  5.9719157366988178e-03  5.2981808092480978e-03  4.6906494590572860e-03  4.1442482828143020e-03  3.6541627843347762e-03  3.2158320647344661e-03  2.8249504493253275e-03  2.4774702241118175e-03  2.1696027706913854e-03  1.8978242533822410e-03  1.6588734830016768e-03  1.4497545988490772e-03  1.2677338848175040e-03  1.1103379218986966e-03  9.7535039503685538e-04  8.6080922547301486e-04  7.6500243487159542e-04  6.8646588034338037e-04  6.2398368693391377e-04  5.7659691880317869e-04  5.4363546618442667e-04  5.2484097704582808e-04  5.2086879753881533e-04  8.1943475282273670e-01  8.1919821077287613e-01  8.1886192274430558e-01  8.1845172562715351e-01  8.1794523518170514e-01  8.1732034992317826e-01  8.1656237423782074e-01  8.1566461157580783e-01  8.1462721999504839e-01  8.1345621211270336e-01  8.1216228644047839e-01  8.1076012561186306e-01  8.0926788287329421e-01  8.0770699893479592e-01  8.0610155873236511e-01  8.0447734482438926e-01  8.0286015428661228e-01  8.0127441046358105e-01  7.9974168093048437e-01  7.9827988335678846e-01  7.9690250195239021e-01  7.9561871849216204e-01  7.9443343865013638e-01  7.9334826715794393e-01  7.9236219021984522e-01  7.9147244960590091e-01  7.9067428439289233e-01  7.8996039471725599e-01  7.8931995735656013e-01  7.8873839036450577e-01  7.8819701633178640e-01  7.8767380196331960e-01  7.8714431117511652e-01  7.8658424918238690e-01  7.8597270295317689e-01  7.8529464738140486e-01  7.8453926396610740e-01  7.8369737708167908e-01  7.8275966112943018e-01  7.8171684590744706e-01  7.8056086540462422e-01  7.7928728972903238e-01  7.7789615612124330e-01  7.7639150043380212e-01  7.7478170104275068e-01  7.7308100400515767e-01  7.7130782256634811e-01  7.6948210451823251e-01  7.6762313966798268e-01  7.6574888962879151e-01  7.6387549242883157e-01  7.6201734329895332e-01  7.6018692420753697e-01  7.5839512590746960e-01  7.5665110316270368e-01  7.5496262485662391e-01  7.5333593210729277e-01  7.5177602256451548e-01  7.5028657378696417e-01  7.4887017467646233e-01  7.4752820459574554e-01  7.4626118352400816e-01  7.4506859481827914e-01  7.4394923135535418e-01  7.4290104608744001e-01  7.4192149816690589e-01  7.4100753563851851e-01  7.4015591413170811e-01  7.3936321850862496e-01  7.3862625408088545e-01  7.3794190709713492e-01  7.3730726107872857e-01  7.3671922062670991e-01  7.3617463266909622e-01  7.3567012558235612e-01  7.3520229009719085e-01  7.3476749791511953e-01  7.3436220481148640e-01  7.3398271997919751e-01  7.3362550453923447e-01  7.3328692780702132e-01  7.3296349547745643e-01  7.3265169707049960e-01  7.3234815472516845e-01  7.3204942586567889e-01  7.3175222391372408e-01  7.3145318478472932e-01  7.3114909203192924e-01  7.3083663990881298e-01  7.3051262059172073e-01  7.3017376316890503e-01  7.2981689213717726e-01  7.2943872016661393e-01  7.2903615265593114e-01  7.2860608230316271e-01  7.2814573248662762e-01  7.2765245288131419e-01  7.2712397560572806e-01  7.2655827135184792e-01  7.2595369979768809e-01  7.2530880331298220e-01  7.2462252589823106e-01  7.2389397475745643e-01  7.2312265134387443e-01  7.2230821996761541e-01  7.2145070868979055e-01  7.2055035684579871e-01  7.1960777473461468e-01  7.1862371652563939e-01  7.1759933721671609e-01  7.1653591415013207e-01  7.1543510565752799e-01  7.1429867334939856e-01  7.1312868421396414e-01  7.1192733251934159e-01  7.1069706759531093e-01  7.0944037020112560e-01  7.0815995189866687e-01  7.0685849552064550e-01  7.0553885873277833e-01  7.0420381449275626e-01  7.0285621931375131e-01  7.0149883113866895e-01  7.0013443716643131e-01  6.9876560435727786e-01  6.9739490935920045e-01  6.9602464781696394e-01  6.9465707707306734e-01  6.9329413840282594e-01  6.9193765731042711e-01  6.9058917625487493e-01  6.8925009622870015e-01  6.8792147965200301e-01  6.8660427607324914e-01  6.8529910291235219e-01  6.8400648755689775e-01  6.8272666162580076e-01  6.8145977524623391e-01  6.8020577556442663e-01  6.7896458127030557e-01  6.7773589876175488e-01  6.7651949015880242e-01  6.7531494135337111e-01  6.7412193279168064e-01  6.7294000850167757e-01  6.7176879707745274e-01  6.7060787160703006e-01  6.6945690977348382e-01  6.6831550486100222e-01  6.6718340771876139e-01  6.6606030228234947e-01  6.6494604627813858e-01  6.6384044554643151e-01  6.6274344371103622e-01  6.6165498156240010e-01  6.6057512451724709e-01  6.5950386418544571e-01  6.5844133283887751e-01  6.5738756853392488e-01  6.5634274081801236e-01  6.5530691905845306e-01  6.5428026599379197e-01  6.5326289230904089e-01  6.5225500435711592e-01  6.5125669966292854e-01  6.5026820348536096e-01  6.4928962227559750e-01  6.4832118284605322e-01  6.4736298491574562e-01  6.4641518440401780e-01  6.4547783264526182e-01  6.4455098948885325e-01  6.4363451925379200e-01  6.4272828167279050e-01  6.4183191418002838e-01  6.4094506054327016e-01  6.4006718544139662e-01  6.3919778954205586e-01  6.3833629004407644e-01  6.3748217150558373e-01  6.3663476591692170e-01  6.3579346204338749e-01  6.3495741845536791e-01  6.3412576478551008e-01  6.3329731808388401e-01  6.3247075076767567e-01  6.3164444270801101e-01  6.3081665612717497e-01  6.2998543812124030e-01  6.2914892470043082e-01  6.2830521033551079e-01  6.2745260578170392e-01  6.2658944842638886e-01  6.2571428745853974e-01  6.2482574566655225e-01  6.2392266540821173e-01  6.2300391181891634e-01  6.2206861734616214e-01  6.2111594851563168e-01  6.2014535867138987e-01  6.1915635851449446e-01  6.1814871810991334e-01  6.1712232534706546e-01  6.1607731718097736e-01  6.1501389392578265e-01  6.1393251077328070e-01  6.1283365694832603e-01  6.1171804875379143e-01  6.1058640715710399e-01  6.0943961899111487e-01  6.0827858382307354e-01  6.0710433948444964e-01  6.0591784849541841e-01  6.0472021579083324e-01  6.0351243827432621e-01  6.0229563252066620e-01  6.0107079368017546e-01  5.9983898140807324e-01  5.9860117428627624e-01  5.9735839553686243e-01  5.9611153314642995e-01  5.9486153137400988e-01  5.9360918182718414e-01  5.9235531959946375e-01  5.9110061419321558e-01  5.8984573461318290e-01  5.8859120740881710e-01  5.8733754619492273e-01  5.8608505133577471e-01  5.8483403109952914e-01  5.8358456916207258e-01  5.8233676065287598e-01  5.8109049469688911e-01  5.7984565551167833e-01  5.7860200254893257e-01  5.7735931501475979e-01  5.7611723879686982e-01  5.7487549326779486e-01  5.7363368700807238e-01  5.7239152618348865e-01  5.7114862737309446e-01  5.6990469232843743e-01  5.6865938387104298e-01  5.6741246042844051e-01  5.6616359187319298e-01  5.6491257381682913e-01  5.6365910341093739e-01  5.6240299761032297e-01  5.6114397287234286e-01  5.5988182224454097e-01  5.5861627913508671e-01  5.5734714105210781e-01  5.5607409743870806e-01  5.5479692314753670e-01  5.5351527952861612e-01  5.5222891649247285e-01  5.5093748037275569e-01  5.4964068577851632e-01  5.4833819788984883e-01  5.4702976199686204e-01  5.4571503849019476e-01  5.4439380689799088e-01  5.4306576785240557e-01  5.4173075124464831e-01  5.4038851922469044e-01  5.3903893859974084e-01  5.3768185789433309e-01  5.3631723191728198e-01  5.3494494804159642e-01  5.3356502520642801e-01  5.3217740722036599e-01  5.3078216822216229e-01  5.2937931068766308e-01  5.2796893829405822e-01  5.2655113831946010e-01  5.2512610568754325e-01  5.2369399059108557e-01  5.2225508294291023e-01  5.2080962537600084e-01  5.1935799081374012e-01  5.1790047840500630e-01  5.1643744184688412e-01  5.1496912884913126e-01  5.1349576398567875e-01  5.1201734867086346e-01  5.1053387178981280e-01  5.0904516230743457e-01  5.0755116893864372e-01  5.0605180747974143e-01  5.0454714351289842e-01  5.0303727507431018e-01  5.0152244875770091e-01  5.0000291594655799e-01  4.9847910521902633e-01  4.9695144373982841e-01  4.9542052090778715e-01  4.9388690039457178e-01  4.9235125508639349e-01  4.9081423936181673e-01  4.8927659694893494e-01  4.8773898604214216e-01  4.8620216356189433e-01  4.8466677657858265e-01  4.8313354766838568e-01  4.8160306433055483e-01  4.8007592028711660e-01  4.7855257668283485e-01  4.7703344839791773e-01  4.7551873911738379e-01  4.7400858774244042e-01  4.7250289149269509e-01  4.7100146940414728e-01  4.6950389974188123e-01  4.6800967219009909e-01  4.6651809243347014e-01  4.6502841176085324e-01  4.6353968527077577e-01  4.6205096863836304e-01  4.6056113597430476e-01  4.5906907082320081e-01  4.5757348162895350e-01  4.5607305875437265e-01  4.5456637220559509e-01  4.5305198720794887e-01  4.5152833956183730e-01  4.4999389905609438e-01  4.4844701433556994e-01  4.4688606984140006e-01  4.4530932079819291e-01  4.4371501879106856e-01  4.4210129166870799e-01  4.4046623110647931e-01  4.3880772301703425e-01  4.3712362388725268e-01  4.3541164098634744e-01  4.3366965258242141e-01  4.3189572813316202e-01  4.3008848777668490e-01  4.2824720136566552e-01  4.2637209257825487e-01  4.2446441939335278e-01  4.2252682143237091e-01  4.2056330380809370e-01  4.1857938954092688e-01  4.1658179117350708e-01  4.1457816683913024e-01  4.1257647160256317e-01  4.1058433062341448e-01  4.0860799393673680e-01  4.0665138542226442e-01  4.0471465348383645e-01  4.0279292654736604e-01  4.0087470718306084e-01  3.9894061267176556e-01  3.9696204526343659e-01  3.9490034982111871e-01  3.9270624761135686e-01  3.9032038877738690e-01  3.8767527128622042e-01  3.8470056267833336e-01  3.8133241200718870e-01  3.7752818429852120e-01  3.7328799793545558e-01  3.6868048639104728e-01  3.6386193413315326e-01  3.5906528439309904e-01  3.5453132059977149e-01  3.5036608008258618e-01  3.46546830951