<?xml version="1.0"?>
<VTKFile type="UnstructuredGrid"  version="0.1"  >
<UnstructuredGrid>
<Piece  NumberOfPoints="28121" NumberOfCells="55200">
<Points>
<DataArray  type="Float64"  NumberOfComponents="3"  format="ascii">0 0 0  0.008260869565217391 0 0  0.01652173913043478 0 0  0.02478260869565217 0 0  0.03304347826086956 0 0  0.04130434782608695 0 0  0.04956521739130434 0 0  0.05782608695652174 0 0  0.06608695652173913 0 0  0.07434782608695652 0 0  0.08260869565217391 0 0  0.0908695652173913 0 0  0.09913043478260869 0 0  0.1073913043478261 0 0  0.1156521739130435 0 0  0.1239130434782609 0 0  0.1321739130434783 0 0  0.1404347826086956 0 0  0.148695652173913 0 0  0.1569565217391304 0 0  0.1652173913043478 0 0  0.1734782608695652 0 0  0.1817391304347826 0 0  0.19 0 0  0.1982608695652174 0 0  0.2065217391304348 0 0  0.2147826086956522 0 0  0.2230434782608696 0 0  0.2313043478260869 0 0  0.2395652173913043 0 0  0.2478260869565218 0 0  0.2560869565217391 0 0  0.2643478260869565 0 0  0.2726086956521739 0 0  0.2808695652173913 0 0  0.2891304347826087 0 0  0.2973913043478261 0 0  0.3056521739130434 0 0  0.3139130434782609 0 0  0.3221739130434783 0 0  0.3304347826086956 0 0  0.338695652173913 0 0  0.3469565217391304 0 0  0.3552173913043478 0 0  0.3634782608695652 0 0  0.3717391304347826 0 0  0.3799999999999999 0 0  0.3882608695652174 0 0  0.3965217391304348 0 0  0.4047826086956521 0 0  0.4130434782608696 0 0  0.4213043478260869 0 0  0.4295652173913043 0 0  0.4378260869565217 0 0  0.4460869565217391 0 0  0.4543478260869565 0 0  0.4626086956521739 0 0  0.4708695652173913 0 0  0.4791304347826086 0 0  0.4873913043478261 0 0  0.4956521739130435 0 0  0.5039130434782608 0 0  0.5121739130434783 0 0  0.5204347826086956 0 0  0.528695652173913 0 0  0.5369565217391304 0 0  0.5452173913043478 0 0  0.5534782608695652 0 0  0.5617391304347825 0 0  0.57 0 0  0.5782608695652174 0 0  0.5865217391304348 0 0  0.5947826086956521 0 0  0.6030434782608696 0 0  0.6113043478260869 0 0  0.6195652173913043 0 0  0.6278260869565218 0 0  0.6360869565217391 0 0  0.6443478260869565 0 0  0.6526086956521739 0 0  0.6608695652173913 0 0  0.6691304347826087 0 0  0.677391304347826 0 0  0.6856521739130435 0 0  0.6939130434782609 0 0  0.7021739130434783 0 0  0.7104347826086956 0 0  0.718695652173913 0 0  0.7269565217391304 0 0  0.7352173913043478 0 0  0.7434782608695653 0 0  0.7517391304347827 0 0  0.7599999999999999 0 0  0.7682608695652173 0 0  0.7765217391304348 0 0  0.7847826086956522 0 0  0.7930434782608695 0 0  0.8013043478260868 0 0  0.8095652173913043 0 0  0.8178260869565217 0 0  0.8260869565217391 0 0  0.8343478260869565 0 0  0.8426086956521739 0 0  0.8508695652173912 0 0  0.8591304347826086 0 0  0.8673913043478261 0 0  0.8756521739130434 0 0  0.8839130434782608 0 0  0.8921739130434783 0 0  0.9004347826086956 0 0  0.908695652173913 0 0  0.9169565217391303 0 0  0.9252173913043478 0 0  0.9334782608695652 0 0  0.9417391304347826 0 0  0.95 0 0  0.9582608695652173 0 0  0.9665217391304347 0 0  0.9747826086956521 0 0  0.9830434782608696 0 0  0.991304347826087 0 0  0.9995652173913042 0 0  1.007826086956522 0 0  1.016086956521739 0 0  1.024347826086957 0 0  1.032608695652174 0 0  1.040869565217391 0 0  1.049130434782609 0 0  1.057391304347826 0 0  1.065652173913043 0 0  1.073913043478261 0 0  1.082173913043478 0 0  1.090434782608696 0 0  1.098695652173913 0 0  1.10695652173913 0 0  1.115217391304348 0 0  1.123478260869565 0 0  1.131739130434783 0 0  1.14 0 0  1.148260869565217 0 0  1.156521739130435 0 0  1.164782608695652 0 0  1.17304347826087 0 0  1.181304347826087 0 0  1.189565217391304 0 0  1.197826086956522 0 0  1.206086956521739 0 0  1.214347826086956 0 0  1.222608695652174 0 0  1.230869565217391 0 0  1.239130434782609 0 0  1.247391304347826 0 0  1.255652173913044 0 0  1.263913043478261 0 0  1.272173913043478 0 0  1.280434782608696 0 0  1.288695652173913 0 0  1.296956521739131 0 0  1.305217391304348 0 0  1.313478260869565 0 0  1.321739130434783 0 0  1.33 0 0  1.338260869565217 0 0  1.346521739130435 0 0  1.354782608695652 0 0  1.36304347826087 0 0  1.371304347826087 0 0  1.379565217391304 0 0  1.387826086956522 0 0  1.396086956521739 0 0  1.404347826086957 0 0  1.412608695652174 0 0  1.420869565217391 0 0  1.429130434782609 0 0  1.437391304347826 0 0  1.445652173913043 0 0  1.453913043478261 0 0  1.462173913043478 0 0  1.470434782608696 0 0  1.478695652173913 0 0  1.486956521739131 0 0  1.495217391304348 0 0  1.503478260869565 0 0  1.511739130434782 0 0  1.52 0 0  1.528260869565217 0 0  1.536521739130435 0 0  1.544782608695652 0 0  1.55304347826087 0 0  1.561304347826087 0 0  1.569565217391304 0 0  1.577826086956522 0 0  1.586086956521739 0 0  1.594347826086957 0 0  1.602608695652174 0 0  1.610869565217391 0 0  1.619130434782609 0 0  1.627391304347826 0 0  1.635652173913043 0 0  1.643913043478261 0 0  1.652173913043478 0 0  1.660434782608696 0 0  1.668695652173913 0 0  1.67695652173913 0 0  1.685217391304348 0 0  1.693478260869565 0 0  1.701739130434782 0 0  1.71 0 0  1.718260869565217 0 0  1.726521739130435 0 0  1.734782608695652 0 0  1.743043478260869 0 0  1.751304347826087 0 0  1.759565217391304 0 0  1.767826086956522 0 0  1.776086956521739 0 0  1.784347826086957 0 0  1.792608695652174 0 0  1.800869565217391 0 0  1.809130434782608 0 0  1.817391304347826 0 0  1.825652173913043 0 0  1.833913043478261 0 0  1.842173913043478 0 0  1.850434782608696 0 0  1.858695652173913 0 0  1.86695652173913 0 0  1.875217391304348 0 0  1.883478260869565 0 0  1.891739130434782 0 0  1.9 0 0  1.908260869565217 0 0  1.916521739130435 0 0  1.924782608695652 0 0  1.933043478260869 0 0  1.941304347826087 0 0  1.949565217391304 0 0  1.957826086956522 0 0  1.966086956521739 0 0  1.974347826086956 0 0  1.982608695652174 0 0  1.990869565217391 0 0  1.999130434782608 0 0  2.007391304347826 0 0  2.015652173913043 0 0  2.023913043478261 0 0  2.032173913043478 0 0  2.040434782608695 0 0  2.048695652173913 0 0  2.05695652173913 0 0  2.065217391304348 0 0  2.073478260869565 0 0  2.081739130434782 0 0  2.09 0 0  2.098260869565217 0 0  2.106521739130435 0 0  2.114782608695652 0 0  2.12304347826087 0 0  2.131304347826087 0 0  2.139565217391304 0 0  2.147826086956522 0 0  2.156086956521739 0 0  2.164347826086956 0 0  2.172608695652174 0 0  2.180869565217391 0 0  2.189130434782609 0 0  2.197391304347826 0 0  2.205652173913043 0 0  2.213913043478261 0 0  2.222173913043478 0 0  2.230434782608695 0 0  2.238695652173913 0 0  2.24695652173913 0 0  2.255217391304348 0 0  2.263478260869565 0 0  2.271739130434783 0 0  2.28 0 0  2.288260869565217 0 0  2.296521739130434 0 0  2.304782608695652 0 0  2.31304347826087 0 0  2.321304347826087 0 0  2.329565217391304 0 0  2.337826086956521 0 0  2.346086956521739 0 0  2.354347826086956 0 0  2.362608695652174 0 0  2.370869565217391 0 0  2.379130434782609 0 0  2.387391304347826 0 0  2.395652173913044 0 0  2.403913043478261 0 0  2.412173913043478 0 0  2.420434782608695 0 0  2.428695652173913 0 0  2.43695652173913 0 0  2.445217391304348 0 0  2.453478260869565 0 0  2.461739130434782 0 0  2.47 0 0  2.478260869565217 0 0  2.486521739130435 0 0  2.494782608695652 0 0  2.503043478260869 0 0  2.511304347826087 0 0  2.519565217391305 0 0  2.527826086956522 0 0  2.536086956521739 0 0  2.544347826086956 0 0  2.552608695652174 0 0  2.560869565217391 0 0  2.569130434782608 0 0  2.577391304347826 0 0  2.585652173913043 0 0  2.593913043478261 0 0  2.602173913043478 0 0  2.610434782608696 0 0  2.618695652173913 0 0  2.62695652173913 0 0  2.635217391304348 0 0  2.643478260869565 0 0  2.651739130434783 0 0  2.66 0 0  2.668260869565217 0 0  2.676521739130435 0 0  2.684782608695652 0 0  2.693043478260869 0 0  2.701304347826087 0 0  2.709565217391304 0 0  2.717826086956522 0 0  2.726086956521739 0 0  2.734347826086956 0 0  2.742608695652174 0 0  2.750869565217391 0 0  2.759130434782609 0 0  2.767391304347826 0 0  2.775652173913044 0 0  2.783913043478261 0 0  2.792173913043478 0 0  2.800434782608696 0 0  2.808695652173913 0 0  2.81695652173913 0 0  2.825217391304347 0 0  2.833478260869565 0 0  2.841739130434783 0 0  2.85 0 0  2.858260869565217 0 0  2.866521739130435 0 0  2.874782608695652 0 0  2.88304347826087 0 0  2.891304347826087 0 0  2.899565217391304 0 0  2.907826086956522 0 0  2.916086956521739 0 0  2.924347826086957 0 0  2.932608695652174 0 0  2.940869565217391 0 0  2.949130434782608 0 0  2.957391304347826 0 0  2.965652173913043 0 0  2.973913043478261 0 0  2.982173913043478 0 0  2.990434782608696 0 0  2.998695652173913 0 0  3.006956521739131 0 0  3.015217391304348 0 0  3.023478260869565 0 0  3.031739130434782 0 0  3.04 0 0  3.048260869565218 0 0  3.056521739130435 0 0  3.064782608695652 0 0  3.073043478260869 0 0  3.081304347826087 0 0  3.089565217391304 0 0  3.097826086956522 0 0  3.106086956521739 0 0  3.114347826086956 0 0  3.122608695652174 0 0  3.130869565217391 0 0  3.139130434782609 0 0  3.147391304347826 0 0  3.155652173913043 0 0  3.163913043478261 0 0  3.172173913043478 0 0  3.180434782608696 0 0  3.188695652173913 0 0  3.19695652173913 0 0  3.205217391304347 0 0  3.213478260869565 0 0  3.221739130434782 0 0  3.23 0 0  3.238260869565217 0 0  3.246521739130435 0 0  3.254782608695652 0 0  3.26304347826087 0 0  3.271304347826087 0 0  3.279565217391304 0 0  3.287826086956521 0 0  3.296086956521739 0 0  3.304347826086957 0 0  3.312608695652174 0 0  3.320869565217391 0 0  3.329130434782608 0 0  3.337391304347826 0 0  3.345652173913043 0 0  3.353913043478261 0 0  3.362173913043478 0 0  3.370434782608696 0 0  3.378695652173913 0 0  3.386956521739131 0 0  3.395217391304348 0 0  3.403478260869565 0 0  3.411739130434782 0 0  3.419999999999999 0 0  3.428260869565217 0 0  3.436521739130435 0 0  3.444782608695652 0 0  3.453043478260869 0 0  3.461304347826087 0 0  3.469565217391304 0 0  3.477826086956522 0 0  3.486086956521739 0 0  3.494347826086956 0 0  3.502608695652174 0 0  3.510869565217391 0 0  3.519130434782609 0 0  3.527391304347826 0 0  3.535652173913043 0 0  3.54391304347826
[...]
<PointData  Scalars="rho_bar"> 
<DataArray  type="Float64"  Name="rho_bar"  format="ascii">9.8746761091183011e-01  9.8730656720158871e-01  9.8706148123577386e-01  9.8669654471216195e-01  9.8619754275392124e-01  9.8555483435526281e-01  9.8475918328150902e-01  9.8380038821456128e-01  9.8266715444035402e-01  9.8134686517818204e-01  9.7982579293407901e-01  9.7808905591944439e-01  9.7612121511838190e-01  9.7390674531045496e-01  9.7143161839686265e-01  9.6868517367850537e-01  9.6566358450514700e-01  9.6237407586147350e-01  9.5884107063251300e-01  9.5511298452358673e-01  9.5126979386289390e-01  9.4742769356676870e-01  9.4373902112891905e-01  9.4038269195653645e-01  9.3754614530632285e-01  9.3540012434883169e-01  9.3407355040715734e-01  9.3363326496557519e-01  9.3407468557432827e-01  9.3532347359232437e-01  9.3724883602463982e-01  9.3968267028754493e-01  9.4244116567754233e-01  9.4534202905636033e-01  9.4821560233088886e-01  9.5090792418510528e-01  9.5327824022217211e-01  9.5519046822931974e-01  9.5650039203250303e-01  9.5703598157987824e-01  9.5657040103058089e-01  9.5478268780091113e-01  9.5120577582225307e-01  9.4517374669859255e-01  9.3582900683818682e-01  9.2240159022698842e-01  9.0512505358896123e-01  8.8623948107621575e-01  8.6975001624174986e-01  8.5940708774642982e-01  8.5634882297462012e-01  8.5883663085037454e-01  8.6395896995667032e-01  8.6925758514815710e-01  8.7357476212867669e-01  8.7666202051717856e-01  8.7864294795891529e-01  8.7973763921813219e-01  8.8016327980498554e-01  8.8010222496611634e-01  8.7969716286179089e-01  8.7905509936961546e-01  8.7825917084488592e-01  8.7737968362521301e-01  8.7648160944136266e-01  8.7562445683871681e-01  8.7485947309229806e-01  8.7422422206625428e-01  8.7373912523254482e-01  8.7340466493914126e-01  8.7320417728060173e-01  8.7311018913326077e-01  8.7309372251281170e-01  8.7312840128469649e-01  8.7319224575903465e-01  8.7326673547374734e-01  8.7333712408308151e-01  8.7339140694425854e-01  8.7342112515482195e-01  8.7342078637909215e-01  8.7338902641363514e-01  8.7332808361529679e-01  8.7324380194510309e-01  8.7314342801440470e-01  8.7303449355424956e-01  8.7292268565797537e-01  8.7281196918936488e-01  8.7270363533644812e-01  8.7259752599556706e-01  8.7249223771183981e-01  8.7238670826014597e-01  8.7228015565956374e-01  8.7217301705831207e-01  8.7206607090050503e-01  8.7196101687205108e-01  8.7185933278792205e-01  8.7176281878776829e-01  8.7167271744957509e-01  8.7159019200098042e-01  8.7151548695384140e-01  8.7144855809543975e-01  8.7138826569156724e-01  8.7133330282594279e-01  8.7128161187281838e-01  8.7123167318112060e-01  8.7118242187107342e-01  8.7113434471771201e-01  8.7108876197963825e-01  8.7104790216437644e-01  8.7101298244131342e-01  8.7098403699359928e-01  8.7095870114405982e-01  8.7093335410708650e-01  8.7090315545843822e-01  8.7086329228525416e-01  8.7080838633059310e-01  8.7073349567751435e-01  8.7063483791624841e-01  8.7051304658322715e-01  8.7037371181686107e-01  8.7022704815085283e-01  8.7008419694892825e-01  8.6995479912749152e-01  8.6984420487023717e-01  8.6975332855299026e-01  8.6967806297253836e-01  8.6961140325046216e-01  8.6954485519444358e-01  8.6947184599469285e-01  8.6938877933357417e-01  8.6929593287830775e-01  8.6919576241268237e-01  8.6909212652387680e-01  8.6898844170966794e-01  8.6888860255667189e-01  8.6879686984528970e-01  8.6871896545336369e-01  8.6866029104974041e-01  8.6862448019211935e-01  8.6861076884078547e-01  8.6861402295417500e-01  8.6862489338876214e-01  8.6863321082770961e-01  8.6863042009267410e-01  8.6861320777391138e-01  8.6858398139682447e-01  8.6855056816324960e-01  8.6852275773743570e-01  8.6850976158954674e-01  8.6851664080187263e-01  8.6854315332270671e-01  8.6858178296145105e-01  8.6861894398801864e-01  8.6863681488939815e-01  8.6861842126559430e-01  8.6855118089468308e-01  8.6842940698098037e-01  8.6825221534285968e-01  8.6802097995537886e-01  8.6773452790147565e-01  8.6738697851896374e-01  8.6696584068665683e-01  8.6645307636942803e-01  8.6582596231488773e-01  8.6506046459251718e-01  8.6413479011560435e-01  8.6303717408537883e-01  8.6177485839806023e-01  8.6038600397075937e-01  8.5894839266850798e-01  8.5758637392159587e-01  8.5647228396077690e-01  8.5582372023568198e-01  8.5589223659820524e-01  8.5694783084281145e-01  8.5925283411930442e-01  8.6301977091953508e-01  8.6835552429813989e-01  8.7520817985986410e-01  8.8332137434990321e-01  8.9223511791224230e-01  9.0134181276343572e-01  9.0998503748317139e-01  9.1758762251895365e-01  9.2373071486886571e-01  9.2816713725116029e-01  9.3078964641315132e-01  9.3157888529259436e-01  9.3055907212992950e-01  9.2777513917455612e-01  9.2329471147842013e-01  9.1722796539241125e-01  9.0975989771821886e-01  9.0118135330716720e-01  8.9190571877023517e-01  8.8245867326426275e-01  8.7344029424714398e-01  8.6545679546757637e-01  8.5903600010752046e-01  8.5453730333158229e-01  8.5207047696095084e-01  8.5146095610387307e-01  8.5226053416084913e-01  8.5378043640324131e-01  8.5520450187837160e-01  8.5571902827575674e-01  8.5461091064050065e-01  8.5134236557426524e-01  8.4561863729664255e-01  8.3742872679846936e-01  8.2710283419674324e-01  8.1532578234026631e-01  8.0305647874830166e-01  7.9133294575491897e-01  7.8103390486010593e-01  7.7271345446047979e-01  7.6653119217765797e-01  7.6226094337146300e-01  7.5949210453560034e-01  7.5781582815256410e-01  7.5691240461247766e-01  7.5654207653571692e-01  7.5651404541549605e-01  7.5667695502790588e-01  7.5692875063593912e-01  7.5721277962826450e-01  7.5750579802647400e-01  7.5780263350298260e-01  7.5810623966505919e-01  7.5841926731725273e-01  7.5874182559239545e-01  7.5907061962336952e-01  7.5940359488696141e-01  7.5974316264148389e-01  7.6009927456800652e-01  7.6048650807491203e-01  7.6092103027506042e-01  7.6141615888219394e-01  7.6198198200068956e-01  7.6262345914180407e-01  7.6334129744012225e-01  7.6413076325179408e-01  7.6498287785557839e-01  7.6588346877412994e-01  7.6681293856354582e-01  7.6774229337407229e-01  7.6863252628148848e-01  7.6943652185976874e-01  7.7011247546203321e-01  7.7064048487938319e-01  7.7103596275746811e-01  7.7134795691595681e-01  7.7164567260513373e-01  7.7199551965524993e-01  7.7244350039268872e-01  7.7300388680056242e-01  7.7366079667043119e-01  7.7437698959092960e-01  7.7510935526498237e-01  7.7581996074666071e-01  7.7648278163890982e-01  7.7708243218598405e-01  7.7761236519217780e-01  7.7807026055530104e-01  7.7845675009890070e-01  7.7877269360863255e-01  7.7901875907548157e-01  7.7919459090300747e-01  7.7930304878464729e-01  7.7935355112514959e-01  7.7936536940204126e-01  7.7936181207407074e-01  7.7935884302248704e-01  7.7934986332877720e-01  7.7930011268541188e-01  7.7915280651189900e-01  7.7885036440063826e-01  7.7835804572545564e-01  7.7768496722642233e-01  7.7689816689314306e-01  7.7613571138830717e-01  7.7558946503914949e-01  7.7544454823291109e-01  7.7584218308550801e-01  7.7685310221260606e-01  7.7843892309326346e-01  7.8045533869512762e-01  7.8271683199159903e-01  7.8503048938926467e-01  7.8721637448872750e-01  7.8911651374905956e-01  7.9057851757671416e-01  7.9143695209931286e-01  7.9150680012561103e-01  7.9059435244029963e-01  7.8851578952084123e-01  7.8512450756482322e-01  7.8034205142586632e-01  7.7418859710106014e-01  7.6678983470553808e-01  7.5835717665733404e-01  7.4915600631227131e-01  7.3947833568628119e-01  7.2961373324368262e-01  7.1982792732530609e-01  7.1036346161838537e-01  7.0144979931095841e-01  6.9328231585943156e-01  6.8599735355652591e-01  6.7964678948430801e-01  6.7419735985693818e-01  6.6955201309001144e-01  6.6558929606213679e-01  6.6217872363314556e-01  6.5920371802578892e-01  6.5656845790363239e-01  6.5419635280905175e-01  6.5203009853959737e-01  6.5004325164090138e-01  6.4824562182158896e-01  6.4667402478674729e-01  6.4536755009624558e-01  6.4434751010780333e-01  6.4361215581173259e-01  6.4314407079121960e-01  6.4291478879979747e-01  6.4288699322694165e-01  6.4301259651482512e-01  6.4324146308527352e-01  6.4353199993446453e-01  6.4385849219783697e-01  6.4421153036190992e-01  6.4459744397793139e-01  6.4502960401850995e-01  6.4552120757438780e-01  6.4607898974216049e-01  6.4670425202791382e-01  6.4739383427789821e-01  6.4814452136161393e-01  6.4895465447531486e-01  6.4982666830052582e-01  6.5076367250180878e-01  6.5176788915061767e-01  6.5283851643381863e-01  6.5397477694865969e-01  6.5517750220998017e-01  6.5645342251397709e-01  6.5781594433536450e-01  6.5928660889031543e-01  6.6089091742657646e-01  6.6265263534190522e-01  6.6457604724755603e-01  6.6661467933847407e-01  6.6863534045978978e-01  6.7042246835334307e-01  6.7172094956055695e-01  6.7228780663408783e-01  6.7193539074499997e-01  6.7056758387293047e-01  6.6820560606661594e-01  6.6499390721687823e-01  6.6115225625663920e-01  6.5691427558290105e-01  6.5250206581041814e-01  6.4810364395789133e-01  6.4385491253558935e-01  6.3985712653932836e-01  6.3619492437771397e-01  6.3293925335093337e-01  6.3009106546573745e-01  6.2748866447321761e-01  6.2474175224912643e-01  6.2121932500197086e-01  6.1610837562744547e-01  6.0854087647525523e-01  5.9791099514732926e-01  5.8426465187435406e-01  5.6792459219164892e-01  5.4904832327235809e-01  5.2719620087693164e-01  5.0094374609851244e-01  4.6855561113636607e-01  4.2898904850052733e-01  3.8260739444895198e-01  3.3165191130534782e-01  2.7999593549549229e-01  2.3169092624995402e-01  1.8908472752744016e-01  1.5288193793513263e-01  1.2285925829470280e-01  9.8387852118729024e-02  7.8701555610019888e-02  6.3015091182377816e-02  5.0588730580392233e-02  4.0769160342961401e-02  3.3006460745424085e-02  2.6853735641779244e-02  2.1956631141404524e-02  1.8038668597472683e-02  1.4886154621494237e-02  1.2334662272110705e-02  1.0257730593595266e-02  8.5578803725316014e-03  7.1596392678177877e-03  6.0042430720445234e-03  5.0456300355020299e-03  4.2474386968963749e-03  3.5807537562379086e-03  3.0224156787832948e-03  2.5537444022954237e-03  2.1595743759812379e-03  1.8275188922207567e-03  1.5474045341883039e-03  1.3108363853254728e-03  1.1108536227149195e-03  9.4166726563605870e-04  7.9844208486576514e-04  6.7713250234885012e-04  5.7434210232387196e-04  4.8721486707670105e-04  4.1334438246270528e-04  3.5070095003599764e-04  2.9756943643593581e-04  2.5250039754540069e-04  2.1426630301363392e-04  1.8182890236546469e-04  1.5430773138899232e-04  1.3095713726031852e-04  1.1114440891462728e-04  9.4333373157016849e-05  8.0069021378164330e-05  6.7965477444020575e-05  5.7695168748026141e-05  4.8980421505235855e-05  4.1585457678637118e-05  3.5310401691676686e-05  2.9985590674077336e-05  2.5467073978582621e-05  2.1632775781603866e-05  1.8379093450616709e-05  1.5618211686289878e-05  1.3275576058239144e-05  1.1287987703609008e-05  9.6019112452757833e-06  8.1719814015371854e-06  6.9597233857084330e-06  5.9325836589816260e-06  5.0630207091659567e-06  4.3277879864505577e-06  3.7072093362481250e-06  3.1847347314683767e-06  2.7464633533738692e-06  2.3807804340582997e-06  2.0779963227746907e-06  1.8301293120720205e-06  1.6306764707469305e-06  1.4744637249207118e-06  1.3574990366959361e-06  1.2769921257555144e-06  1.2315847035208849e-06  1.2226550373864554e-06  9.8687911770713899e-01  9.8677824991134477e-01  9.8653786139296207e-01  9.8615947532235193e-01  9.8563689842963076e-01  9.8496205135762771e-01  9.8412546246014920e-01  9.8311635517661378e-01  9.8192240824952937e-01  9.8052994771310864e-01  9.7892382893205443e-01  9.7708778272858676e-01  9.7500452764064860e-01  9.7265672536585224e-01  9.7002807853367323e-01  9.6710583530846461e-01  9.6388391214990632e-01  9.6036792959167983e-01  9.5658136390359783e-01  9.5257390758445193e-01  9.4842972779991663e-01  9.4427426939112868e-01  9.4027407241148953e-01  9.3662732340351862e-01  9.3354247597212292e-01  9.3121026910385329e-01  9.2977439569877784e-01  9.2930958027473554e-01  9.2981035267010381e-01  9.3119408338805942e-01  9.3331519683105724e-01  9.3598811076441768e-01  9.3901096206160484e-01  9.4218601048600703e-01  9.4533115891297725e-01  9.4828384237779084e-01  9.5089749795409351e-01  9.5303355199874640e-01  9.5454755298050087e-01  9.5527032944764856e-01  9.5498093732693223e-01  9.5337033583869013e-01  9.4999318139955258e-01  9.4422101009012982e-01  9.3524929348932018e-01  9.2232589187438985e-01  9.0554975850118291e-01  8.8688607429178845e-01  8.7006946774054472e-01  8.5880413597637328e-01  8.5451063870922472e-01  8.5578605093503612e-01  8.5993530060420131e-01  8.6451064645019104e-01  8.6826157204015808e-01  8.7089637444297419e-01  8.7250978675916635e-01  8.7329863170912470e-01  8.7346389395430102e-01  8.7317777591638068e-01  8.7257484445703981e-01  8.7175513561897811e-01  8.7079523602148501e-01  8.6976294930456421e-01  8.6872351392655400e-01  8.6773952401669208e-01  8.6686527679794501e-01  8.6614148144150183e-01  8.6558946487134469e-01  8.6520896347946552e-01  8.6497892891671446e-01  8.6486703947768251e-01  8.6483998836562292e-01  8.6486916381494350e-01  8.6493047440898785e-01  8.6500429942203905e-01  8.6507422555449043e-01  8.6512752919725477e-01  8.6515436287509839e-01  8.6514886893971399e-01  8.6510897397873665e-01  8.6503744643127789e-01  8.6494065236703199e-01  8.6482735430884994e-01  8.6470568063325604e-01  8.6458235168417474e-01  8.6446117454964366e-01  8.6434373395900110e-01  8.6422911784820655e-01  8.6411572057500219e-01  8.6400176097861814e-01  8.6388668310195060e-01  8.6377057593978634e-01  8.6365478862038803e-01  8.6354081192140186e-01  8.6343074797800323e-01  8.6332624587186857e-01  8.6322902789870437e-01  8.6314003599120903e-01  8.6305995723575224e-01  8.6298834333328656e-01  8.6292435429934988e-01  8.6286603313839116e-01  8.6281139317079458e-01  8.6275819116637620e-01  8.6270541451123650e-01  8.6265321050214372e-01  8.6260365131339201e-01  8.6255918916146956e-01  8.6252198832991089e-01  8.6249179926221087e-01  8.6246637592024178e-01  8.6244117894515504e-01  8.6241110100997564e-01  8.6237059575912201e-01  8.6231421655297336e-01  8.6223563945103365e-01  8.6213017896580812e-01  8.6199741153542719e-01  8.6184419123789813e-01  8.6168237433602968e-01  8.6152553921903230e-01  8.6138453271865922e-01  8.6126585667635092e-01  8.6117000513202080e-01  8.6109250212197708e-01  8.6102448275179888e-01  8.6095621879895434e-01  8.6087960212665804e-01  8.6079102398910479e-01  8.6069082125594454e-01  8.6058263203674068e-01  8.6047058686515165e-01  8.6035870677629978e-01  8.6025035007089878e-01  8.6015035038057830e-01  8.6006491752005720e-01  8.6000108490956562e-01  8.5996322367341016e-01  8.5995126813573708e-01  8.5995893989766181e-01  8.5997560665987449e-01  8.5998852145952609e-01  8.5998774224207031e-01  8.5996882785326278e-01  8.5993509552138947e-01  8.5989573868411595e-01  8.5986308860213923e-01  8.5984780367285674e-01  8.5985662303009014e-01  8.5988933103802034e-01  8.5993819867623578e-01  8.5998727935409680e-01  8.6001595421385313e-01  8.6000383992191054e-01  8.5993710411497060e-01  8.5980984069379907e-01  8.5962309640258594e-01  8.5937976363614710e-01  8.5908054619413876e-01  8.5871962806169899e-01  8.5828420414589124e-01  8.5775446861300364e-01  8.5710605844266219e-01  8.5631195236120827e-01  8.5534753992506329e-01  8.5419711934404308e-01  8.5286597458264091e-01  8.5139246130484059e-01  8.4985938381041348e-01  8.4839998485756463e-01  8.4720119649338088e-01  8.4649898977580662e-01  8.4656657174914618e-01  8.4769574114451129e-01  8.5017431620110806e-01  8.5423928196438514e-01  8.6001411927989657e-01  8.6745074162123925e-01  8.7627725141843305e-01  8.8598597884437580e-01  8.9590409541343852e-01  9.0530498035976126e-01  9.1355281692975909e-01  9.2019262481176323e-01  9.2496373962767708e-01  9.2775895335100955e-01  9.2856581840442798e-01  9.2741539441238141e-01  9.2435764055277825e-01  9.1946376094153792e-01  9.1285105773501762e-01  9.0471945898901629e-01  8.9538905145877679e-01  8.8531818624155301e-01  8.7509156575388558e-01  8.6537614145884068e-01  8.5684577375035220e-01  8.5008379507857712e-01  8.4548353225043515e-01  8.4315533052810909e-01  8.4288837006301620e-01  8.4417116013003746e-01  8.4623924672642492e-01  8.4819445700821661e-01  8.4914700568042745e-01  8.4831881227583461e-01  8.4511651210053462e-01  8.3920008806955271e-01  8.3053464163326829e-01  8.1946112162334517e-01  8.0672144707458104e-01  7.9336955066072201e-01  7.8055215701137093e-01  7.6923398676939159e-01  7.6002519357791798e-01  7.5312373313683034e-01  7.4832051519634957e-01  7.4516640654140376e-01  7.4320103515873892e-01  7.4207688723878695e-01  7.4154264288068472e-01  7.4139293582781196e-01  7.4146055951645606e-01  7.4163284200935520e-01  7.4184988178102429e-01  7.4208706763824361e-01  7.4233978581334836e-01  7.4261023314938324e-01  7.4290087587830089e-01  7.4320936207822796e-01  7.4353019300003054e-01  7.4385796960855899e-01  7.4419399757870164e-01  7.4454823297806660e-01  7.4493774509635224e-01  7.4537987146127394e-01  7.4588958448213660e-01  7.4647685929710861e-01  7.4714747618056621e-01  7.4790155153070226e-01  7.4873434938638550e-01  7.4963565233668727e-01  7.5059151242428868e-01  7.5158174736510508e-01  7.5257722856394826e-01  7.5353509112436334e-01  7.5440150023093588e-01  7.5512464154380088e-01  7.5567867551061940e-01  7.5607912785374887e-01  7.5638382050021014e-01  7.5667370495873665e-01  7.5702696714976192e-01  7.5749564080663212e-01  7.5809551450356016e-01  7.5880566900111113e-01  7.5958169461297032e-01  7.6037277081617727e-01  7.6113718200127700e-01  7.6184688683766122e-01  7.6248745062129775e-01  7.6305269550323607e-01  7.6354182681746152e-01  7.6395575030011575e-01  7.6429650857647335e-01  7.6456441494237970e-01  7.6475873279102347e-01  7.6488053428817537e-01  7.6494002006518302e-01  7.6495948859884710e-01  7.6497034449067480e-01  7.6499649671742520e-01  7.6503676977314361e-01  7.6505478723771703e-01  7.6498755256238615e-01  7.6476919806471999e-01  7.6436305102813962e-01  7.6378247669985466e-01  7.6310430736382984e-01  7.6247278540110408e-01  7.6208374877499352e-01  7.6212752047637866e-01  7.6275265750196686e-01  7.6403798709074078e-01  7.6595090846112668e-01  7.6833460195292835e-01  7.7097925633605702e-01  7.7366570205730700e-01  7.7619608285033193e-01  7.7840521499800419e-01  7.8013885144112338e-01  7.8122508542885549e-01  7.8146824448504881e-01  7.8065918052604788e-01  7.7859804997275706e-01  7.7512128280404424e-01  7.7013749517012509e-01  7.6366246340177246e-01  7.5583114615628322e-01  7.4686952353873381e-01  7.3705998348342683e-01  7.2671265500943727e-01  7.1613812308098623e-01  7.0561738347950687e-01  6.9540833728342377e-01  6.8576629856766036e-01  6.7690936752091890e-01  6.6898043074666824e-01  6.6204215772463681e-01  6.5607918016449018e-01  6.5100341836517250e-01  6.4668287768515487e-01  6.4297170777918689e-01  6.3973967918004693e-01  6.3688331241145302e-01  6.3431779318409021e-01  6.3197798774633063e-01  6.2983041923474770e-01  6.2788608697067272e-01  6.2618725448000823e-01  6.2477962554177391e-01  6.2368380474348772e-01  6.2289480322023516e-01  6.2239046767412398e-01  6.2214091399271043e-01  6.2210659526137879e-01  6.2223587820020876e-01  6.2247191268836910e-01  6.2276982188076158e-01  6.2310137917038155e-01  6.2345768069714202e-01  6.2384654511733850e-01  6.2428516188421079e-01  6.2478781780648518e-01  6.2536224576261068e-01  6.2600834409901129e-01  6.2672235568591084e-01  6.2749929679903083e-01  6.2833773520522695e-01  6.2924019460734637e-01  6.3021182827211564e-01  6.3125462145558775e-01  6.3236823420650501e-01  6.3355061488041120e-01  6.3480253276533438e-01  6.3612998178276381e-01  6.3754785292265137e-01  6.3907899728928086e-01  6.4075304213513040e-01  6.4259881497949389e-01  6.4463163409081492e-01  6.4681554197351310e-01  6.4901596085952962e-01  6.5099774455798143e-01  6.5248230678654251e-01  6.5320424530185994e-01  6.5296185215403901e-01  6.5165145878166719e-01  6.4929959832173667e-01  6.4607381279594167e-01  6.4222690632832358e-01  6.3801354105430375e-01  6.3368004352354035e-01  6.2943762323287489e-01  6.2543458613073455e-01  6.2178198176064570e-01  6.1858127532710239e-01  6.15928131460