<?xml version="1.0"?>
<VTKFile type="UnstructuredGrid"  version="0.1"  >
<UnstructuredGrid>
<Piece  NumberOfPoints="28121" NumberOfCells="55200">
<Points>
<DataArray  type="Float64"  NumberOfComponents="3"  format="ascii">0 0 0  0.008260869565217391 0 0  0.01652173913043478 0 0  0.02478260869565217 0 0  0.03304347826086956 0 0  0.04130434782608695 0 0  0.04956521739130434 0 0  0.05782608695652174 0 0  0.06608695652173913 0 0  0.07434782608695652 0 0  0.08260869565217391 0 0  0.0908695652173913 0 0  0.09913043478260869 0 0  0.1073913043478261 0 0  0.1156521739130435 0 0  0.1239130434782609 0 0  0.1321739130434783 0 0  0.1404347826086956 0 0  0.148695652173913 0 0  0.1569565217391304 0 0  0.1652173913043478 0 0  0.1734782608695652 0 0  0.1817391304347826 0 0  0.19 0 0  0.1982608695652174 0 0  0.2065217391304348 0 0  0.2147826086956522 0 0  0.2230434782608696 0 0  0.2313043478260869 0 0  0.2395652173913043 0 0  0.2478260869565218 0 0  0.2560869565217391 0 0  0.2643478260869565 0 0  0.2726086956521739 0 0  0.2808695652173913 0 0  0.2891304347826087 0 0  0.2973913043478261 0 0  0.3056521739130434 0 0  0.3139130434782609 0 0  0.3221739130434783 0 0  0.3304347826086956 0 0  0.338695652173913 0 0  0.3469565217391304 0 0  0.3552173913043478 0 0  0.3634782608695652 0 0  0.3717391304347826 0 0  0.3799999999999999 0 0  0.3882608695652174 0 0  0.3965217391304348 0 0  0.4047826086956521 0 0  0.4130434782608696 0 0  0.4213043478260869 0 0  0.4295652173913043 0 0  0.4378260869565217 0 0  0.4460869565217391 0 0  0.4543478260869565 0 0  0.4626086956521739 0 0  0.4708695652173913 0 0  0.4791304347826086 0 0  0.4873913043478261 0 0  0.4956521739130435 0 0  0.5039130434782608 0 0  0.5121739130434783 0 0  0.5204347826086956 0 0  0.528695652173913 0 0  0.5369565217391304 0 0  0.5452173913043478 0 0  0.5534782608695652 0 0  0.5617391304347825 0 0  0.57 0 0  0.5782608695652174 0 0  0.5865217391304348 0 0  0.5947826086956521 0 0  0.6030434782608696 0 0  0.6113043478260869 0 0  0.6195652173913043 0 0  0.6278260869565218 0 0  0.6360869565217391 0 0  0.6443478260869565 0 0  0.6526086956521739 0 0  0.6608695652173913 0 0  0.6691304347826087 0 0  0.677391304347826 0 0  0.6856521739130435 0 0  0.6939130434782609 0 0  0.7021739130434783 0 0  0.7104347826086956 0 0  0.718695652173913 0 0  0.7269565217391304 0 0  0.7352173913043478 0 0  0.7434782608695653 0 0  0.7517391304347827 0 0  0.7599999999999999 0 0  0.7682608695652173 0 0  0.7765217391304348 0 0  0.7847826086956522 0 0  0.7930434782608695 0 0  0.8013043478260868 0 0  0.8095652173913043 0 0  0.8178260869565217 0 0  0.8260869565217391 0 0  0.8343478260869565 0 0  0.8426086956521739 0 0  0.8508695652173912 0 0  0.8591304347826086 0 0  0.8673913043478261 0 0  0.8756521739130434 0 0  0.8839130434782608 0 0  0.8921739130434783 0 0  0.9004347826086956 0 0  0.908695652173913 0 0  0.9169565217391303 0 0  0.9252173913043478 0 0  0.9334782608695652 0 0  0.9417391304347826 0 0  0.95 0 0  0.9582608695652173 0 0  0.9665217391304347 0 0  0.9747826086956521 0 0  0.9830434782608696 0 0  0.991304347826087 0 0  0.9995652173913042 0 0  1.007826086956522 0 0  1.016086956521739 0 0  1.024347826086957 0 0  1.032608695652174 0 0  1.040869565217391 0 0  1.049130434782609 0 0  1.057391304347826 0 0  1.065652173913043 0 0  1.073913043478261 0 0  1.082173913043478 0 0  1.090434782608696 0 0  1.098695652173913 0 0  1.10695652173913 0 0  1.115217391304348 0 0  1.123478260869565 0 0  1.131739130434783 0 0  1.14 0 0  1.148260869565217 0 0  1.156521739130435 0 0  1.164782608695652 0 0  1.17304347826087 0 0  1.181304347826087 0 0  1.189565217391304 0 0  1.197826086956522 0 0  1.206086956521739 0 0  1.214347826086956 0 0  1.222608695652174 0 0  1.230869565217391 0 0  1.239130434782609 0 0  1.247391304347826 0 0  1.255652173913044 0 0  1.263913043478261 0 0  1.272173913043478 0 0  1.280434782608696 0 0  1.288695652173913 0 0  1.296956521739131 0 0  1.305217391304348 0 0  1.313478260869565 0 0  1.321739130434783 0 0  1.33 0 0  1.338260869565217 0 0  1.346521739130435 0 0  1.354782608695652 0 0  1.36304347826087 0 0  1.371304347826087 0 0  1.379565217391304 0 0  1.387826086956522 0 0  1.396086956521739 0 0  1.404347826086957 0 0  1.412608695652174 0 0  1.420869565217391 0 0  1.429130434782609 0 0  1.437391304347826 0 0  1.445652173913043 0 0  1.453913043478261 0 0  1.462173913043478 0 0  1.470434782608696 0 0  1.478695652173913 0 0  1.486956521739131 0 0  1.495217391304348 0 0  1.503478260869565 0 0  1.511739130434782 0 0  1.52 0 0  1.528260869565217 0 0  1.536521739130435 0 0  1.544782608695652 0 0  1.55304347826087 0 0  1.561304347826087 0 0  1.569565217391304 0 0  1.577826086956522 0 0  1.586086956521739 0 0  1.594347826086957 0 0  1.602608695652174 0 0  1.610869565217391 0 0  1.619130434782609 0 0  1.627391304347826 0 0  1.635652173913043 0 0  1.643913043478261 0 0  1.652173913043478 0 0  1.660434782608696 0 0  1.668695652173913 0 0  1.67695652173913 0 0  1.685217391304348 0 0  1.693478260869565 0 0  1.701739130434782 0 0  1.71 0 0  1.718260869565217 0 0  1.726521739130435 0 0  1.734782608695652 0 0  1.743043478260869 0 0  1.751304347826087 0 0  1.759565217391304 0 0  1.767826086956522 0 0  1.776086956521739 0 0  1.784347826086957 0 0  1.792608695652174 0 0  1.800869565217391 0 0  1.809130434782608 0 0  1.817391304347826 0 0  1.825652173913043 0 0  1.833913043478261 0 0  1.842173913043478 0 0  1.850434782608696 0 0  1.858695652173913 0 0  1.86695652173913 0 0  1.875217391304348 0 0  1.883478260869565 0 0  1.891739130434782 0 0  1.9 0 0  1.908260869565217 0 0  1.916521739130435 0 0  1.924782608695652 0 0  1.933043478260869 0 0  1.941304347826087 0 0  1.949565217391304 0 0  1.957826086956522 0 0  1.966086956521739 0 0  1.974347826086956 0 0  1.982608695652174 0 0  1.990869565217391 0 0  1.999130434782608 0 0  2.007391304347826 0 0  2.015652173913043 0 0  2.023913043478261 0 0  2.032173913043478 0 0  2.040434782608695 0 0  2.048695652173913 0 0  2.05695652173913 0 0  2.065217391304348 0 0  2.073478260869565 0 0  2.081739130434782 0 0  2.09 0 0  2.098260869565217 0 0  2.106521739130435 0 0  2.114782608695652 0 0  2.12304347826087 0 0  2.131304347826087 0 0  2.139565217391304 0 0  2.147826086956522 0 0  2.156086956521739 0 0  2.164347826086956 0 0  2.172608695652174 0 0  2.180869565217391 0 0  2.189130434782609 0 0  2.197391304347826 0 0  2.205652173913043 0 0  2.213913043478261 0 0  2.222173913043478 0 0  2.230434782608695 0 0  2.238695652173913 0 0  2.24695652173913 0 0  2.255217391304348 0 0  2.263478260869565 0 0  2.271739130434783 0 0  2.28 0 0  2.288260869565217 0 0  2.296521739130434 0 0  2.304782608695652 0 0  2.31304347826087 0 0  2.321304347826087 0 0  2.329565217391304 0 0  2.337826086956521 0 0  2.346086956521739 0 0  2.354347826086956 0 0  2.362608695652174 0 0  2.370869565217391 0 0  2.379130434782609 0 0  2.387391304347826 0 0  2.395652173913044 0 0  2.403913043478261 0 0  2.412173913043478 0 0  2.420434782608695 0 0  2.428695652173913 0 0  2.43695652173913 0 0  2.445217391304348 0 0  2.453478260869565 0 0  2.461739130434782 0 0  2.47 0 0  2.478260869565217 0 0  2.486521739130435 0 0  2.494782608695652 0 0  2.503043478260869 0 0  2.511304347826087 0 0  2.519565217391305 0 0  2.527826086956522 0 0  2.536086956521739 0 0  2.544347826086956 0 0  2.552608695652174 0 0  2.560869565217391 0 0  2.569130434782608 0 0  2.577391304347826 0 0  2.585652173913043 0 0  2.593913043478261 0 0  2.602173913043478 0 0  2.610434782608696 0 0  2.618695652173913 0 0  2.62695652173913 0 0  2.635217391304348 0 0  2.643478260869565 0 0  2.651739130434783 0 0  2.66 0 0  2.668260869565217 0 0  2.676521739130435 0 0  2.684782608695652 0 0  2.693043478260869 0 0  2.701304347826087 0 0  2.709565217391304 0 0  2.717826086956522 0 0  2.726086956521739 0 0  2.734347826086956 0 0  2.742608695652174 0 0  2.750869565217391 0 0  2.759130434782609 0 0  2.767391304347826 0 0  2.775652173913044 0 0  2.783913043478261 0 0  2.792173913043478 0 0  2.800434782608696 0 0  2.808695652173913 0 0  2.81695652173913 0 0  2.825217391304347 0 0  2.833478260869565 0 0  2.841739130434783 0 0  2.85 0 0  2.858260869565217 0 0  2.866521739130435 0 0  2.874782608695652 0 0  2.88304347826087 0 0  2.891304347826087 0 0  2.899565217391304 0 0  2.907826086956522 0 0  2.916086956521739 0 0  2.924347826086957 0 0  2.932608695652174 0 0  2.940869565217391 0 0  2.949130434782608 0 0  2.957391304347826 0 0  2.965652173913043 0 0  2.973913043478261 0 0  2.982173913043478 0 0  2.990434782608696 0 0  2.998695652173913 0 0  3.006956521739131 0 0  3.015217391304348 0 0  3.023478260869565 0 0  3.031739130434782 0 0  3.04 0 0  3.048260869565218 0 0  3.056521739130435 0 0  3.064782608695652 0 0  3.073043478260869 0 0  3.081304347826087 0 0  3.089565217391304 0 0  3.097826086956522 0 0  3.106086956521739 0 0  3.114347826086956 0 0  3.122608695652174 0 0  3.130869565217391 0 0  3.139130434782609 0 0  3.147391304347826 0 0  3.155652173913043 0 0  3.163913043478261 0 0  3.172173913043478 0 0  3.180434782608696 0 0  3.188695652173913 0 0  3.19695652173913 0 0  3.205217391304347 0 0  3.213478260869565 0 0  3.221739130434782 0 0  3.23 0 0  3.238260869565217 0 0  3.246521739130435 0 0  3.254782608695652 0 0  3.26304347826087 0 0  3.271304347826087 0 0  3.279565217391304 0 0  3.287826086956521 0 0  3.296086956521739 0 0  3.304347826086957 0 0  3.312608695652174 0 0  3.320869565217391 0 0  3.329130434782608 0 0  3.337391304347826 0 0  3.345652173913043 0 0  3.353913043478261 0 0  3.362173913043478 0 0  3.370434782608696 0 0  3.378695652173913 0 0  3.386956521739131 0 0  3.395217391304348 0 0  3.403478260869565 0 0  3.411739130434782 0 0  3.419999999999999 0 0  3.428260869565217 0 0  3.436521739130435 0 0  3.444782608695652 0 0  3.453043478260869 0 0  3.461304347826087 0 0  3.469565217391304 0 0  3.477826086956522 0 0  3.486086956521739 0 0  3.494347826086956 0 0  3.502608695652174 0 0  3.510869565217391 0 0  3.519130434782609 0 0  3.527391304347826 0 0  3.535652173913043 0 0  3.54391304347826
[...]
<PointData  Scalars="rho_bar"> 
<DataArray  type="Float64"  Name="rho_bar"  format="ascii">9.9144012267313164e-01  9.9132967954793061e-01  9.9116157868620547e-01  9.9091122655806241e-01  9.9056880908129208e-01  9.9012761869844779e-01  9.8958118863311728e-01  9.8892234531570233e-01  9.8814311121608123e-01  9.8723453689912000e-01  9.8618683376923877e-01  9.8498932955177976e-01  9.8363086266698307e-01  9.8210008781596547e-01  9.8038655183312184e-01  9.7848197969846151e-01  9.7638268978730125e-01  9.7409257219084788e-01  9.7162747092191670e-01  9.6902010007914507e-01  9.6632558934052148e-01  9.6362507530972896e-01  9.6102599491338359e-01  9.5865559631315367e-01  9.5664818549998987e-01  9.5512693698151707e-01  9.5418546551927941e-01  9.5387277531100423e-01  9.5418616540098766e-01  9.5507235419660252e-01  9.5643726278525620e-01  9.5816016598325571e-01  9.6010956717243956e-01  9.6215577365711613e-01  9.6417889755376429e-01  9.6607096209910970e-01  9.6773397770511338e-01  9.6907372316127394e-01  9.6999052160872035e-01  9.7036516826947383e-01  9.7003959688533359e-01  9.6878849348436880e-01  9.6628099815650570e-01  9.6203952070890320e-01  9.5543636769393159e-01  9.4587794006437853e-01  9.3345307157261870e-01  9.1970271824193139e-01  9.0754999817439741e-01  8.9985708043499080e-01  8.9757214460153634e-01  8.9943021849705551e-01  9.0324561534534964e-01  9.0717809280319783e-01  9.1037181614474738e-01  9.1265010676795610e-01  9.1410955995669296e-01  9.1491529036112040e-01  9.1522844368487455e-01  9.1518356156148051e-01  9.1488558289098187e-01  9.1441306791698618e-01  9.1382702221681877e-01  9.1317907674052490e-01  9.1251703351454605e-01  9.1188477606260898e-01  9.1132019060418257e-01  9.1085112723047357e-01  9.1049279751796175e-01  9.1024566660114048e-01  9.1009749561191511e-01  9.1002802089342416e-01  9.1001584104735511e-01  9.1004146415722997e-01  9.1008864388239807e-01  9.1014369064184075e-01  9.1019570647502968e-01  9.1023582082880672e-01  9.1025778447818062e-01  9.1025753910304252e-01  9.1023407604245266e-01  9.1018904723306815e-01  9.1012676866964204e-01  9.1005259267594485e-01  9.0997208378397143e-01  9.0988944441975106e-01  9.0980760586961951e-01  9.0972752286174141e-01  9.0964907904983494e-01  9.0957123680811947e-01  9.0949321088523261e-01  9.0941442267601458e-01  9.0933519540893448e-01  9.0925610437131976e-01  9.0917840697660068e-01  9.0910319632274872e-01  9.0903180476444223e-01  9.0896515213873597e-01  9.0890410012429645e-01  9.0884883046787313e-01  9.0879931170797856e-01  9.0875470124269164e-01  9.0871403310307253e-01  9.0867578496288937e-01  9.0863883258682820e-01  9.0860238729375220e-01  9.0856680898730002e-01  9.0853307468548672e-01  9.0850283445394475e-01  9.0847698967047363e-01  9.0845556697958230e-01  9.0843681624272998e-01  9.0841805705698886e-01  9.0839570651169199e-01  9.0836620386911227e-01  9.0832556883900806e-01  9.0827014115139248e-01  9.0819711564518435e-01  9.0810695664688212e-01  9.0800379861691061e-01  9.0789520216757502e-01  9.0778941660547119e-01  9.0769358368756337e-01  9.0761166972492036e-01  9.0754435675715728e-01  9.0748860519782792e-01  9.0743922741287841e-01  9.0738993059568784e-01  9.0733584487135976e-01  9.0727430441299006e-01  9.0720551392886151e-01  9.0713129209789300e-01  9.0705449783537295e-01  9.0697766167041027e-01  9.0690366908573761e-01  9.0683567778630436e-01  9.0677793061528911e-01  9.0673443372897478e-01  9.0670788359572285e-01  9.0669771626312978e-01  9.0670012762901131e-01  9.0670818722600988e-01  9.0671435641164255e-01  9.0671229170545509e-01  9.0669953538950798e-01  9.0667787073446870e-01  9.0665309984673870e-01  9.0663247993002227e-01  9.0662284048639130e-01  9.0662793432711253e-01  9.0664758451849747e-01  9.0667622091398337e-01  9.0670377282600967e-01  9.0671702836868939e-01  9.0670340403365424e-01  9.0665357003220914e-01  9.0656330492749293e-01  9.0643194323150211e-01  9.0626049053450830e-01  9.0604805914243924e-01  9.0579026422388043e-01  9.0547780573996084e-01  9.0509724877490039e-01  9.0463164912331018e-01  9.0406304218216382e-01  9.0337506399990941e-01  9.0255873474610648e-01  9.0161915678792115e-01  9.0058445147232080e-01  8.9951237436380127e-01  8.9849567302612710e-01  8.9766329678527690e-01  8.9717836860427436e-01  8.9722945289080969e-01  8.9801826176589428e-01  8.9973900725538813e-01  9.0254559198336026e-01  9.0650908015656684e-01  9.1157870333747948e-01  9.1755089089918129e-01  9.2407505047473326e-01  9.3070035901304871e-01  9.3695134594718521e-01  9.4242010901314188e-01  9.4681897002510151e-01  9.4998470696066939e-01  9.5185177808643040e-01  9.5241310590658657e-01  9.5168794711234073e-01  9.4970576630840120e-01  9.4650803206364076e-01  9.4216305177721094e-01  9.3679043442092780e-01  9.3058591029197413e-01  9.2383709999175001e-01  9.1692029810643250e-01  9.1027617785908266e-01  9.0436059032671234e-01  8.9957963261984208e-01  8.9621742121344317e-01  8.9436938130519406e-01  8.9391219341283323e-01  8.9451158771265571e-01  8.9565014862911241e-01  8.9671587494219318e-01  8.9710083164076060e-01  8.9627248801829729e-01  8.9382514596264528e-01  8.8952635914552125e-01  8.8334624349656399e-01  8.7550491745619397e-01  8.6649343145544822e-01  8.5702694565647430e-01  8.4790592462379155e-01  8.3983154515844427e-01  8.3326592210149275e-01  8.2836287965125666e-01  8.2496393637074061e-01  8.2275466560673227e-01  8.2141504537855481e-01  8.2069233610456604e-01  8.2039585128904235e-01  8.2037325285527496e-01  8.2050345898806298e-01  8.2070477838163647e-01  8.2093185936599511e-01  8.2116609614945246e-01  8.2140334460585107e-01  8.2164596160088943e-01  8.2189605945901156e-01  8.2215371975812057e-01  8.2241630396766396e-01  8.2268216870096633e-01  8.2295323496488582e-01  8.2323743962609630e-01  8.2354640144583557e-01  8.2389299622275980e-01  8.2428780877314733e-01  8.2473883208236842e-01  8.2524995099050036e-01  8.2582164985610529e-01  8.2645007208638099e-01  8.2712798599273119e-01  8.2784404127300326e-01  8.2858260244200899e-01  8.2932060670285501e-01  8.3002710527389623e-01  8.3066479402533167e-01  8.3120065505114393e-01  8.3161906195596236e-01  8.3193234815027950e-01  8.3217943375815506e-01  8.3241515141559852e-01  8.3269207582945282e-01  8.3304658345199378e-01  8.3348989411787122e-01  8.3400935246109553e-01  8.3457542932027162e-01  8.3515400801309692e-01  8.3571512295306827e-01  8.3623826394844503e-01  8.3671134529725966e-01  8.3712926670961474e-01  8.3749025862196047e-01  8.3779487278590170e-01  8.3804383016075790e-01  8.3823769229429745e-01  8.3837620442179273e-01  8.3846163935558859e-01  8.3850142868800115e-01  8.3851075828794164e-01  8.3850798722899877e-01  8.3850569262717523e-01  8.3849868300235852e-01  8.3845958790823161e-01  8.3834368239615831e-01  8.3810558517034150e-01  8.3771783538851863e-01  8.3718745262952632e-01  8.3656709778924110e-01  8.3596556569399816e-01  8.3553437713199641e-01  8.3541993278378157e-01  8.3573384891015634e-01  8.3653160533749149e-01  8.3778196168176644e-01  8.3936986971702332e-01  8.4114815363684292e-01  8.4296459115853350e-01  8.4467806589232164e-01  8.4616547849115731e-01  8.4730864449934340e-01  8.4797942716817565e-01  8.4803421643289756e-01  8.4732178836112959e-01  8.4569691565019656e-01  8.4304074435167120e-01  8.3928432213731785e-01  8.3443268182039232e-01  8.2857167224947181e-01  8.2185473997248837e-01  8.1448041063335308e-01  8.0667276345181460e-01  7.9865952361181747e-01  7.9065509591965144e-01  7.8286066236045437e-01  7.7547183939597886e-01  7.6866028044971946e-01  7.6255116368436915e-01  7.5719964633343395e-01  7.5258814284864206e-01  7.4864292134222377e-01  7.4526711826441683e-01  7.4235405088417750e-01  7.3980723847839958e-01  7.3754677015749703e-01  7.3550840531252604e-01  7.3364390907372590e-01  7.3193126402918984e-01  7.3037957500643858e-01  7.2902130324665815e-01  7.2789095378503010e-01  7.2700764755534908e-01  7.2637042309730393e-01  7.2596458015287157e-01  7.2576567846476625e-01  7.2574147684618107e-01  7.2585029637837695e-01  7.2604863960613297e-01  7.2630041028173209e-01  7.2658328780049908e-01  7.2688908933903362e-01  7.2722327542934451e-01  7.2759739629820841e-01  7.2802283878096263e-01  7.2850537516097036e-01  7.2904606500281055e-01  7.2964209827221271e-01  7.3029061501935322e-01  7.3099009445045249e-01  7.3174254859861820e-01  7.3255055809989156e-01  7.3341592700810887e-01  7.3433783918607154e-01  7.3531549539925900e-01  7.3634946986954952e-01  7.3744539252792896e-01  7.3861458737062780e-01  7.3987529548643138e-01  7.4124905031398658e-01  7.4275578257370145e-01  7.4439866481555261e-01  7.4613754894907558e-01  7.4785867292612884e-01  7.4937890890819536e-01  7.5048241756868139e-01  7.5096414805962719e-01  7.5066555295662962e-01  7.4950432009723078e-01  7.4749589869287092e-01  7.4475916837185896e-01  7.4147710533903977e-01  7.3784571755333761e-01  7.3405310566742832e-01  7.3026024322755934e-01  7.2658497924504273e-01  7.2311647539396884e-01  7.1993036104365937e-01  7.1709093628528153e-01  7.1460159283564917e-01  7.1232285749755697e-01  7.0991324402344580e-01  7.0681661142961494e-01  7.0230955906996950e-01  6.9560545263157647e-01  6.8612489625296669e-01  6.7384393846791468e-01  6.5897409059626200e-01  6.4157007103904740e-01  6.2111589877111917e-01  5.9609902166661277e-01  5.6454460011345453e-01  5.2491484397354959e-01  4.7686227102674472e-01  4.2196141319128083e-01  3.6390424425896761e-01  3.0729047457459369e-01  2.5538598845997856e-01  2.0975599783396515e-01  1.7080304437447311e-01  1.3827747209490715e-01  1.1159038470132147e-01  8.9983998962236161e-02  7.2648546006469125e-02  5.8810169476037157e-02  4.7782123975646157e-02  3.8985269805476938e-02  3.1947930947726758e-02  2.6294708031417858e-02  2.1731051958060518e-02  1.8027675794875513e-02  1.5006621991305166e-02  1.2529719064715878e-02  1.0489361715478667e-02  8.8013655312173082e-03  7.3994828459213492e-03  6.2312453878575315e-03  5.2548143077133774e-03  4.4366009740360902e-03  3.7494598451263358e-03  3.1713155167065982e-03  2.6841116538599426e-03  2.2730000711824452e-03  1.9257154690432159e-03  1.6320786713942283e-03  1.3836176645481823e-03  1.1732515692635553e-03  9.9505258673416664e-04  8.4404171937254148e-04  7.1603045994452451e-04  6.0748843927931984e-04  5.1543707211726029e-04  4.3735876032977039e-04  3.7112544700679869e-04  3.1493455518307611e-04  2.6726122125708956e-04  2.2681214811320688e-04  1.9249193773307230e-04  1.6337101952900693e-04  1.3866159131944400e-04  1.1769506030522341e-04  9.9904384288317880e-05  8.4808173709794845e-05  7.1998351490665523e-05  6.1128399264623995e-05  5.1904554927854112e-05  4.4077454307249249e-05  3.7435519475026888e-05  3.1799320688414495e-05  2.7016578110139665e-05  2.2958215123992140e-05  1.9514645552899297e-05  1.6592973668390309e-05  1.4114507419279846e-05  1.2012563579338125e-05  1.0230587050171269e-05  8.7207262944634491e-06  7.4424969513898663e-06  6.3617278750623916e-06  5.4494961156253217e-06  4.6814739111324835e-06  4.0372276678290595e-06  3.4996841561340805e-06  3.0545999676526329e-06  2.6902422894915240e-06  2.3970520454469584e-06  2.1674235256701419e-06  1.9954885692791250e-06  1.8771455572480498e-06  1.8103978536359731e-06  1.7972714814458908e-06  9.9103652074375193e-01  9.9096732050243841e-01  9.9080239203904319e-01  9.9054273270959825e-01  9.9018402071810530e-01  9.8972060719534427e-01  9.8914584729078581e-01  9.8845215254074503e-01  9.8763081557505461e-01  9.8667212838440999e-01  9.8556528418193712e-01  9.8429859557761978e-01  9.8285954972323508e-01  9.8123544787326289e-01  9.7941415072026716e-01  9.7738580796956165e-01  9.7514503611822922e-01  9.7269446102191703e-01  9.7004909771887038e-01  9.6724236652232209e-01  9.6433217693851281e-01  9.6140612630524269e-01  9.5858182307321993e-01  9.5600053107350602e-01  9.5381204372311956e-01  9.5215443246675502e-01  9.5113246536107954e-01  9.5080119341035196e-01  9.5115739694377643e-01  9.5214166774310016e-01  9.5364893103057990e-01  9.5554544579633383e-01  9.5768633533693892e-01  9.5993051342912095e-01  9.6214900356603694e-01  9.6422761310775762e-01  9.6606423116030571e-01  9.6756292459834436e-01  9.6862392016322141e-01  9.6913008291297809e-01  9.6892751726477688e-01  9.6779928207557209e-01  9.6542980196848704e-01  9.6136811034901937e-01  9.5502506843247703e-01  9.4582286095671786e-01  9.3375903015053341e-01  9.2017614245920043e-01  9.0778790246815100e-01  8.9940855188266589e-01  8.9619800562122931e-01  8.9715228555620963e-01  9.0025101508054417e-01  9.0365774993013959e-01  9.0644307127360546e-01  9.0839577721671283e-01  9.0959018348905685e-01  9.1017411411923177e-01  9.1029700666764912e-01  9.1008626589514430e-01  9.0964119553573652e-01  9.0903553080979105e-01  9.0832571329937251e-01  9.0756177001648441e-01  9.0679193981896344e-01  9.0606262948223038e-01  9.0541421015030332e-01  9.0487705068161817e-01  9.0446716245683989e-01  9.0418451127947996e-01  9.0401357756281575e-01  9.0393041070136382e-01  9.0391028632498638e-01  9.0393194929480147e-01  9.0397749686816209e-01  9.0403234884674655e-01  9.0408430940480622e-01  9.0412392663083418e-01  9.0414388550928226e-01  9.0413983528075281e-01  9.0411023384464795e-01  9.0405713327180759e-01  9.0398525581695732e-01  9.0390110599219597e-01  9.0381071981592342e-01  9.0371909065127765e-01  9.0362904799482313e-01  9.0354177188972917e-01  9.0345658703781129e-01  9.0337230242004674e-01  9.0328759447878315e-01  9.0320204982848074e-01  9.0311573338227824e-01  9.0302964777645067e-01  9.0294490065410427e-01  9.0286305559363267e-01  9.0278533929409865e-01  9.0271303389963331e-01  9.0264684098631554e-01  9.0258727340132283e-01  9.0253399877903040e-01  9.0248639402139519e-01  9.0244300405271782e-01  9.0240235206658426e-01  9.0236276936700377e-01  9.0232350318183230e-01  9.0228466292719522e-01  9.0224778966726082e-01  9.0221470599510845e-01  9.0218702240030546e-01  9.0216455345016877e-01  9.0214562961813527e-01  9.0212687616526166e-01  9.0210449566097162e-01  9.0207435889746812e-01  9.0203240885397395e-01  9.0197393781948543e-01  9.0189546070805693e-01  9.0179665868165215e-01  9.0168262357192053e-01  9.0156217059304500e-01  9.0144540456571209e-01  9.0134040371323643e-01  9.0125201593150484e-01  9.0118061511560221e-01  9.0112287475756647e-01  9.0107219890668888e-01  9.0102134655776067e-01  9.0096427802669965e-01  9.0089830199071363e-01  9.0082366369695543e-01  9.0074306827783346e-01  9.0065958911564448e-01  9.0057622260503478e-01  9.0049547365247307e-01  9.0042094680929641e-01  9.0035726941446159e-01  9.0030968361843278e-01  9.0028144877542238e-01  9.0027251912390904e-01  9.0027821818067477e-01  9.0029062575171148e-01  9.0030024396022035e-01  9.0029966444623954e-01  9.0028557566508061e-01  9.0026044564122387e-01  9.0023111955929014e-01  9.0020678450891245e-01  9.0019538437431068e-01  9.0020194554271316e-01  9.0022630898965883e-01  9.0026271465444674e-01  9.0029928013323846e-01  9.0032064600860262e-01  9.0031162560808364e-01  9.0026190725883359e-01  9.0016707725695833e-01  9.0002789799827598e-01  8.9984650349403739e-01  8.9962339678936687e-01  8.9935421661384740e-01  8.9902937978827258e-01  8.9863405870241198e-01  8.9814998948917024e-01  8.9755687055999267e-01  8.9683613310734756e-01  8.9597578277382872e-01  8.9497944474855184e-01  8.9387548261261218e-01  8.9272567678756931e-01  8.9162992220038417e-01  8.9072885636182819e-01  8.9020040217361629e-01  8.9025059039475440e-01  8.9109872434659854e-01  8.9295908106002397e-01  8.9600412420682507e-01  9.0031639357580628e-01  9.0584562271143076e-01  9.1237311712420921e-01  9.1950907423763806e-01  9.2675161823294405e-01  9.3357263521662526e-01  9.3952221363853505e-01  9.4428842705798854e-01  9.4770051301268743e-01  9.4969473125636794e-01  9.5027002540351890e-01  9.4945084197427321e-01  9.4726975292461235e-01  9.4376958715548176e-01  9.3902204969615477e-01  9.3315556370964292e-01  9.2638520558012538e-01  9.1903018301774508e-01  9.1151028906829423e-01  9.0431774818451127e-01  8.9796278379398453e-01  8.9289814820933899e-01  8.8943820928547312e-01  8.8768169260795315e-01  8.8747809128319444e-01  8.8844317009556772e-01  8.8999893777037553e-01  8.9146824019304571e-01  8.9218353597688771e-01  8.9156202682931140e-01  8.8915505988615384e-01  8.8469431194727421e-01  8.7812866134534262e-01  8.6968194490439366e-01  8.5988460951924905e-01  8.4952336039739829e-01  8.3948582791368509e-01  8.3054721156597322e-01  8.2322195265528653e-01  8.1770103041248987e-01  8.1384293716463108e-01  8.1130255680623398e-01  8.0971697693447342e-01  8.0880926300941303e-01  8.0837780026593198e-01  8.0825710397999961e-01  8.0831212958928189e-01  8.0845176688841858e-01  8.0862754033045259e-01  8.0881951537609631e-01  8.0902394091595553e-01  8.0924258106710756e-01  8.0947742931568545e-01  8.0972659368287403e-01  8.0998564668644135e-01  8.1025023309598943e-01  8.1052139805471335e-01  8.1080715300781969e-01  8.1112123968664174e-01  8.1147760428949056e-01  8.1188827456326340e-01  8.1236123055681064e-01  8.1290105687022085e-01  8.1350776189722795e-01  8.1417744164119632e-01  8.1490178159948268e-01  8.1566948188581934e-01  8.1646426087780344e-01  8.1726271902279812e-01  8.1803052955031830e-01  8.1872467699541329e-01  8.1930383474069335e-01  8.1974747546693438e-01  8.2006810915344697e-01  8.2031200845570396e-01  8.2054389815951789e-01  8.2082627628429772e-01  8.2120071441818032e-01  8.2167979088265120e-01  8.2224673220827671e-01  8.2286601417075744e-01  8.2349703572598909e-01  8.2410651906616472e-01  8.2467213743718470e-01  8.2518244157025611e-01  8.2563257118410793e-01  8.2602195554232227e-01  8.2635137065663222e-01  8.2662249203029459e-01  8.2683561259556193e-01  8.2699018685690540e-01  8.2708709039061656e-01  8.2713442993485975e-01  8.2714990289211798e-01  8.2715844513596182e-01  8.2717905291126104e-01  8.2721081088474846e-01  8.2722484175549549e-01  8.2717110681979922e-01  8.2699722731679337e-01  8.2667393275425427e-01  8.2621164630315314e-01  8.2567125372238381e-01  8.2516743347955268e-01  8.2485627601673495e-01  8.2488965260663516e-01  8.2538594346735528e-01  8.2640738314108608e-01  8.2792680035964794e-01  8.2981790985928638e-01  8.3191280037436133e-01  8.3403716222131041e-01  8.3603471457063849e-01  8.3777595204908306e-01  8.3914065405316529e-01  8.3999502060397768e-01  8.4018642408776822e-01  8.3955076345002511e-01  8.3792932976558188e-01  8.3518884602441301e-01  8.3124889415953185e-01  8.2610960853166193e-01  8.1986279256218597e-01  8.1267235642100322e-01  8.0474974264081911e-01  7.9633349631003625e-01  7.8766890771887532e-01  7.7898400985098915e-01  7.7049433984153859e-01  7.6241932986204486e-01  7.5495263322038308e-01  7.4822800846054716e-01  7.4231220884475435e-01  7.3720443022249549e-01  7.3283934217503255e-01  7.2911119441526928e-01  7.2589968362130475e-01  7.2309588265901825e-01  7.2061258315766807e-01  7.1837781906701581e-01  7.1633609651204078e-01  7.1445907652353635e-01  7.1275709643269003e-01  7.1126789430326365e-01  7.1003237348168924e-01  7.0906947786120633e-01  7.0837555363885241e-01  7.0793163583318630e-01  7.0771174097924505e-01  7.0768121285805063e-01  7.0779468153881608e-01  7.0800213362847642e-01  7.0826404997711923e-01  7.0855554982308977e-01  7.0886875391716486e-01  7.0921047331287734e-01  7.0959575625731008e-01  7.1003710166371869e-01  7.1054125105385679e-01  7.1110805296085211e-01  7.1173413886099424e-01  7.1241505310340281e-01  7.1314944851195494e-01  7.1393942327690241e-01  7.1478936725765208e-01  7.1570088816249233e-01  7.1667355625543261e-01  7.1770543472530546e-01  7.1879704033999015e-01  7.1995341819871306e-01  7.2118732043961864e-01  7.2251834314992736e-01  7.2397186002906899e-01  7.2557239632577719e-01  7.2733260733898575e-01  7.2922074159033290e-01  7.3112023475558885e-01  7.3282864331597763e-01  7.3410717584839547e-01  7.3472898029268696e-01  7.3452150556448137e-01  7.3339490317206968e-01  7.3136921603298033e-01  7.2858432340282375e-01  7.2525381853385396e-01  7.2159455071756828e-01  7.1781836945928434e-01  7.1410906080449899e-01  7.1059755248217304e-01  7.0738339706593811e-01  7.0455846950949552e-01  7.02210011629