<?xml version="1.0"?>
<VTKFile type="UnstructuredGrid"  version="0.1"  >
<UnstructuredGrid>
<Piece  NumberOfPoints="28121" NumberOfCells="55200">
<Points>
<DataArray  type="Float64"  NumberOfComponents="3"  format="ascii">0 0 0  0.008260869565217391 0 0  0.01652173913043478 0 0  0.02478260869565217 0 0  0.03304347826086956 0 0  0.04130434782608695 0 0  0.04956521739130434 0 0  0.05782608695652174 0 0  0.06608695652173913 0 0  0.07434782608695652 0 0  0.08260869565217391 0 0  0.0908695652173913 0 0  0.09913043478260869 0 0  0.1073913043478261 0 0  0.1156521739130435 0 0  0.1239130434782609 0 0  0.1321739130434783 0 0  0.1404347826086956 0 0  0.148695652173913 0 0  0.1569565217391304 0 0  0.1652173913043478 0 0  0.1734782608695652 0 0  0.1817391304347826 0 0  0.19 0 0  0.1982608695652174 0 0  0.2065217391304348 0 0  0.2147826086956522 0 0  0.2230434782608696 0 0  0.2313043478260869 0 0  0.2395652173913043 0 0  0.2478260869565218 0 0  0.2560869565217391 0 0  0.2643478260869565 0 0  0.2726086956521739 0 0  0.2808695652173913 0 0  0.2891304347826087 0 0  0.2973913043478261 0 0  0.3056521739130434 0 0  0.3139130434782609 0 0  0.3221739130434783 0 0  0.3304347826086956 0 0  0.338695652173913 0 0  0.3469565217391304 0 0  0.3552173913043478 0 0  0.3634782608695652 0 0  0.3717391304347826 0 0  0.3799999999999999 0 0  0.3882608695652174 0 0  0.3965217391304348 0 0  0.4047826086956521 0 0  0.4130434782608696 0 0  0.4213043478260869 0 0  0.4295652173913043 0 0  0.4378260869565217 0 0  0.4460869565217391 0 0  0.4543478260869565 0 0  0.4626086956521739 0 0  0.4708695652173913 0 0  0.4791304347826086 0 0  0.4873913043478261 0 0  0.4956521739130435 0 0  0.5039130434782608 0 0  0.5121739130434783 0 0  0.5204347826086956 0 0  0.528695652173913 0 0  0.5369565217391304 0 0  0.5452173913043478 0 0  0.5534782608695652 0 0  0.5617391304347825 0 0  0.57 0 0  0.5782608695652174 0 0  0.5865217391304348 0 0  0.5947826086956521 0 0  0.6030434782608696 0 0  0.6113043478260869 0 0  0.6195652173913043 0 0  0.6278260869565218 0 0  0.6360869565217391 0 0  0.6443478260869565 0 0  0.6526086956521739 0 0  0.6608695652173913 0 0  0.6691304347826087 0 0  0.677391304347826 0 0  0.6856521739130435 0 0  0.6939130434782609 0 0  0.7021739130434783 0 0  0.7104347826086956 0 0  0.718695652173913 0 0  0.7269565217391304 0 0  0.7352173913043478 0 0  0.7434782608695653 0 0  0.7517391304347827 0 0  0.7599999999999999 0 0  0.7682608695652173 0 0  0.7765217391304348 0 0  0.7847826086956522 0 0  0.7930434782608695 0 0  0.8013043478260868 0 0  0.8095652173913043 0 0  0.8178260869565217 0 0  0.8260869565217391 0 0  0.8343478260869565 0 0  0.8426086956521739 0 0  0.8508695652173912 0 0  0.8591304347826086 0 0  0.8673913043478261 0 0  0.8756521739130434 0 0  0.8839130434782608 0 0  0.8921739130434783 0 0  0.9004347826086956 0 0  0.908695652173913 0 0  0.9169565217391303 0 0  0.9252173913043478 0 0  0.9334782608695652 0 0  0.9417391304347826 0 0  0.95 0 0  0.9582608695652173 0 0  0.9665217391304347 0 0  0.9747826086956521 0 0  0.9830434782608696 0 0  0.991304347826087 0 0  0.9995652173913042 0 0  1.007826086956522 0 0  1.016086956521739 0 0  1.024347826086957 0 0  1.032608695652174 0 0  1.040869565217391 0 0  1.049130434782609 0 0  1.057391304347826 0 0  1.065652173913043 0 0  1.073913043478261 0 0  1.082173913043478 0 0  1.090434782608696 0 0  1.098695652173913 0 0  1.10695652173913 0 0  1.115217391304348 0 0  1.123478260869565 0 0  1.131739130434783 0 0  1.14 0 0  1.148260869565217 0 0  1.156521739130435 0 0  1.164782608695652 0 0  1.17304347826087 0 0  1.181304347826087 0 0  1.189565217391304 0 0  1.197826086956522 0 0  1.206086956521739 0 0  1.214347826086956 0 0  1.222608695652174 0 0  1.230869565217391 0 0  1.239130434782609 0 0  1.247391304347826 0 0  1.255652173913044 0 0  1.263913043478261 0 0  1.272173913043478 0 0  1.280434782608696 0 0  1.288695652173913 0 0  1.296956521739131 0 0  1.305217391304348 0 0  1.313478260869565 0 0  1.321739130434783 0 0  1.33 0 0  1.338260869565217 0 0  1.346521739130435 0 0  1.354782608695652 0 0  1.36304347826087 0 0  1.371304347826087 0 0  1.379565217391304 0 0  1.387826086956522 0 0  1.396086956521739 0 0  1.404347826086957 0 0  1.412608695652174 0 0  1.420869565217391 0 0  1.429130434782609 0 0  1.437391304347826 0 0  1.445652173913043 0 0  1.453913043478261 0 0  1.462173913043478 0 0  1.470434782608696 0 0  1.478695652173913 0 0  1.486956521739131 0 0  1.495217391304348 0 0  1.503478260869565 0 0  1.511739130434782 0 0  1.52 0 0  1.528260869565217 0 0  1.536521739130435 0 0  1.544782608695652 0 0  1.55304347826087 0 0  1.561304347826087 0 0  1.569565217391304 0 0  1.577826086956522 0 0  1.586086956521739 0 0  1.594347826086957 0 0  1.602608695652174 0 0  1.610869565217391 0 0  1.619130434782609 0 0  1.627391304347826 0 0  1.635652173913043 0 0  1.643913043478261 0 0  1.652173913043478 0 0  1.660434782608696 0 0  1.668695652173913 0 0  1.67695652173913 0 0  1.685217391304348 0 0  1.693478260869565 0 0  1.701739130434782 0 0  1.71 0 0  1.718260869565217 0 0  1.726521739130435 0 0  1.734782608695652 0 0  1.743043478260869 0 0  1.751304347826087 0 0  1.759565217391304 0 0  1.767826086956522 0 0  1.776086956521739 0 0  1.784347826086957 0 0  1.792608695652174 0 0  1.800869565217391 0 0  1.809130434782608 0 0  1.817391304347826 0 0  1.825652173913043 0 0  1.833913043478261 0 0  1.842173913043478 0 0  1.850434782608696 0 0  1.858695652173913 0 0  1.86695652173913 0 0  1.875217391304348 0 0  1.883478260869565 0 0  1.891739130434782 0 0  1.9 0 0  1.908260869565217 0 0  1.916521739130435 0 0  1.924782608695652 0 0  1.933043478260869 0 0  1.941304347826087 0 0  1.949565217391304 0 0  1.957826086956522 0 0  1.966086956521739 0 0  1.974347826086956 0 0  1.982608695652174 0 0  1.990869565217391 0 0  1.999130434782608 0 0  2.007391304347826 0 0  2.015652173913043 0 0  2.023913043478261 0 0  2.032173913043478 0 0  2.040434782608695 0 0  2.048695652173913 0 0  2.05695652173913 0 0  2.065217391304348 0 0  2.073478260869565 0 0  2.081739130434782 0 0  2.09 0 0  2.098260869565217 0 0  2.106521739130435 0 0  2.114782608695652 0 0  2.12304347826087 0 0  2.131304347826087 0 0  2.139565217391304 0 0  2.147826086956522 0 0  2.156086956521739 0 0  2.164347826086956 0 0  2.172608695652174 0 0  2.180869565217391 0 0  2.189130434782609 0 0  2.197391304347826 0 0  2.205652173913043 0 0  2.213913043478261 0 0  2.222173913043478 0 0  2.230434782608695 0 0  2.238695652173913 0 0  2.24695652173913 0 0  2.255217391304348 0 0  2.263478260869565 0 0  2.271739130434783 0 0  2.28 0 0  2.288260869565217 0 0  2.296521739130434 0 0  2.304782608695652 0 0  2.31304347826087 0 0  2.321304347826087 0 0  2.329565217391304 0 0  2.337826086956521 0 0  2.346086956521739 0 0  2.354347826086956 0 0  2.362608695652174 0 0  2.370869565217391 0 0  2.379130434782609 0 0  2.387391304347826 0 0  2.395652173913044 0 0  2.403913043478261 0 0  2.412173913043478 0 0  2.420434782608695 0 0  2.428695652173913 0 0  2.43695652173913 0 0  2.445217391304348 0 0  2.453478260869565 0 0  2.461739130434782 0 0  2.47 0 0  2.478260869565217 0 0  2.486521739130435 0 0  2.494782608695652 0 0  2.503043478260869 0 0  2.511304347826087 0 0  2.519565217391305 0 0  2.527826086956522 0 0  2.536086956521739 0 0  2.544347826086956 0 0  2.552608695652174 0 0  2.560869565217391 0 0  2.569130434782608 0 0  2.577391304347826 0 0  2.585652173913043 0 0  2.593913043478261 0 0  2.602173913043478 0 0  2.610434782608696 0 0  2.618695652173913 0 0  2.62695652173913 0 0  2.635217391304348 0 0  2.643478260869565 0 0  2.651739130434783 0 0  2.66 0 0  2.668260869565217 0 0  2.676521739130435 0 0  2.684782608695652 0 0  2.693043478260869 0 0  2.701304347826087 0 0  2.709565217391304 0 0  2.717826086956522 0 0  2.726086956521739 0 0  2.734347826086956 0 0  2.742608695652174 0 0  2.750869565217391 0 0  2.759130434782609 0 0  2.767391304347826 0 0  2.775652173913044 0 0  2.783913043478261 0 0  2.792173913043478 0 0  2.800434782608696 0 0  2.808695652173913 0 0  2.81695652173913 0 0  2.825217391304347 0 0  2.833478260869565 0 0  2.841739130434783 0 0  2.85 0 0  2.858260869565217 0 0  2.866521739130435 0 0  2.874782608695652 0 0  2.88304347826087 0 0  2.891304347826087 0 0  2.899565217391304 0 0  2.907826086956522 0 0  2.916086956521739 0 0  2.924347826086957 0 0  2.932608695652174 0 0  2.940869565217391 0 0  2.949130434782608 0 0  2.957391304347826 0 0  2.965652173913043 0 0  2.973913043478261 0 0  2.982173913043478 0 0  2.990434782608696 0 0  2.998695652173913 0 0  3.006956521739131 0 0  3.015217391304348 0 0  3.023478260869565 0 0  3.031739130434782 0 0  3.04 0 0  3.048260869565218 0 0  3.056521739130435 0 0  3.064782608695652 0 0  3.073043478260869 0 0  3.081304347826087 0 0  3.089565217391304 0 0  3.097826086956522 0 0  3.106086956521739 0 0  3.114347826086956 0 0  3.122608695652174 0 0  3.130869565217391 0 0  3.139130434782609 0 0  3.147391304347826 0 0  3.155652173913043 0 0  3.163913043478261 0 0  3.172173913043478 0 0  3.180434782608696 0 0  3.188695652173913 0 0  3.19695652173913 0 0  3.205217391304347 0 0  3.213478260869565 0 0  3.221739130434782 0 0  3.23 0 0  3.238260869565217 0 0  3.246521739130435 0 0  3.254782608695652 0 0  3.26304347826087 0 0  3.271304347826087 0 0  3.279565217391304 0 0  3.287826086956521 0 0  3.296086956521739 0 0  3.304347826086957 0 0  3.312608695652174 0 0  3.320869565217391 0 0  3.329130434782608 0 0  3.337391304347826 0 0  3.345652173913043 0 0  3.353913043478261 0 0  3.362173913043478 0 0  3.370434782608696 0 0  3.378695652173913 0 0  3.386956521739131 0 0  3.395217391304348 0 0  3.403478260869565 0 0  3.411739130434782 0 0  3.419999999999999 0 0  3.428260869565217 0 0  3.436521739130435 0 0  3.444782608695652 0 0  3.453043478260869 0 0  3.461304347826087 0 0  3.469565217391304 0 0  3.477826086956522 0 0  3.486086956521739 0 0  3.494347826086956 0 0  3.502608695652174 0 0  3.510869565217391 0 0  3.519130434782609 0 0  3.527391304347826 0 0  3.535652173913043 0 0  3.54391304347826
[...]
<PointData  Scalars="rho_bar"> 
<DataArray  type="Float64"  Name="rho_bar"  format="ascii">8.5311086024307770e-01  8.5227068219855684e-01  8.5131873379376477e-01  8.5004712268656946e-01  8.4840998616182595e-01  8.4641032237317415e-01  8.4407139762075212e-01  8.4142684722050531e-01  8.3851621991837433e-01  8.3538180801857331e-01  8.3206736064742282e-01  8.2861812093623932e-01  8.2508252339320842e-01  8.2151399174142792e-01  8.1797227333271516e-01  8.1452231289080412e-01  8.1123160278917439e-01  8.0816560999664178e-01  8.0538334487133267e-01  8.0293333903159092e-01  8.0085196551896920e-01  7.9916319761961996e-01  7.9788077067995378e-01  7.9701042685706414e-01  7.9655292436144631e-01  7.9650585978838984e-01  7.9686497893189456e-01  7.9762390128677074e-01  7.9877335156292029e-01  8.0029912967069050e-01  8.0218068848046453e-01  8.0438944136930757e-01  8.0688876779967844e-01  8.0963431517999351e-01  8.1257510516165110e-01  8.1565374880999320e-01  8.1880643087834248e-01  8.2196162590706012e-01  8.2503945094631059e-01  8.2795073221438797e-01  8.3059786072599429e-01  8.3287627100878558e-01  8.3467763057808508e-01  8.3589372345125745e-01  8.3642225496121425e-01  8.3617375489856771e-01  8.3508123226970665e-01  8.3311116183475298e-01  8.3027410957832204e-01  8.2662253322270329e-01  8.2223642346030068e-01  8.1722089354189842e-01  8.1171046340558428e-01  8.0586214717397320e-01  7.9983872619932128e-01  7.9379567671639939e-01  7.8787890284391693e-01  7.8222067201985157e-01  7.7693296823900271e-01  7.7210247689326206e-01  7.6778817756911255e-01  7.6401884216240257e-01  7.6079247764361169e-01  7.5807766954142752e-01  7.5581974441456301e-01  7.5394981340626011e-01  7.5239553456671959e-01  7.5108930875692037e-01  7.4997249225779605e-01  7.4899566430811515e-01  7.4811890647124690e-01  7.4731250794682380e-01  7.4655888747831733e-01  7.4585283764449462e-01  7.4520055565501286e-01  7.4461699177765706e-01  7.4412313728977775e-01  7.4374218703557415e-01  7.4349568164074742e-01  7.4339841332624557e-01  7.4345474574682724e-01  7.4365606174532051e-01  7.4398115326611358e-01  7.4439872470037050e-01  7.4487199983882257e-01  7.4536261813617044e-01  7.4583374940585745e-01  7.4625082835000711e-01  7.4658198445690838e-01  7.4679790876159347e-01  7.4687295668143949e-01  7.4678678520931363e-01  7.4652695538119029e-01  7.4609032853992296e-01  7.4548382072178077e-01  7.4472271751280095e-01  7.4382837469822494e-01  7.4282463345447136e-01  7.4173476795822701e-01  7.4057844873280965e-01  7.3936995182128806e-01  7.3811695973300295e-01  7.3682174661252842e-01  7.3548355277902044e-01  7.3410260515227943e-01  7.3268236266110620e-01  7.3122957015904788e-01  7.2975210797672940e-01  7.2825769466530921e-01  7.2675358161881431e-01  7.2524868495841155e-01  7.2375599373763666e-01  7.2229583120193785e-01  7.2089737104662566e-01  7.1959809138758557e-01  7.1843991919995831e-01  7.1746515342738615e-01  7.1671374077832206e-01  7.1622326422164306e-01  7.1602831001439626e-01  7.1615877161018282e-01  7.1663585943949715e-01  7.1746813252890240e-01  7.1864752139044408e-01  7.2014696126529898e-01  7.2191949740688999e-01  7.2390155679679113e-01  7.2601921100172362e-01  7.2819695778007720e-01  7.3036467400099314e-01  7.3246218425133325e-01  7.3444034982618611e-01  7.3626040467089060e-01  7.3789147607514105e-01  7.3930843366696475e-01  7.4048900930125927e-01  7.4141153299802043e-01  7.4205218701506703e-01  7.4238411213367028e-01  7.4237907738810083e-01  7.4201305175573806e-01  7.4127325119230503e-01  7.4016518964983502e-01  7.3871435811642072e-01  7.3696186232461935e-01  7.3495612891571749e-01  7.3274720789280912e-01  7.3038383501163351e-01  7.2791294371876802e-01  7.2537916530606317e-01  7.2282480639133118e-01  7.2028875278331661e-01  7.1780630340297458e-01  7.1540898421882027e-01  7.1312510073918434e-01  7.1097924613142804e-01  7.0899157906575949e-01  7.0717707187746559e-01  7.0554692968138133e-01  7.0410975439424806e-01  7.0287291379509631e-01  7.0184249101668084e-01  7.0102301315858617e-01  7.0041652390335674e-01  7.0002280674976314e-01  6.9983992808760087e-01  6.9986547764279339e-01  7.0009551594417530e-01  7.0052197739323951e-01  7.0112741929934841e-01  7.0187936844643972e-01  7.0272592843894210e-01  7.0359764886331966e-01  7.0441711396859097e-01  7.0511341553204432e-01  7.0563237404546453e-01  7.0594066665903676e-01  7.0602392226286081e-01  7.0588252313860689e-01  7.0552641110566916e-01  7.0497113240766029e-01  7.0423443395176633e-01  7.0333478385693882e-01  7.0229014879660390e-01  7.0111830500664307e-01  6.9983705097152304e-01  6.9846501593553034e-01  6.9702168575104217e-01  6.9552740054608053e-01  6.9400237004922372e-01  6.9246614743575552e-01  6.9093637745152747e-01  6.8942836626804238e-01  6.8795431414374564e-01  6.8652330375327242e-01  6.8514118683710479e-01  6.8381129616058844e-01  6.8253464023229049e-01  6.8131070359834345e-01  6.8013728342748669e-01  6.7901087131369708e-01  6.7792631218748400e-01  6.7687689381750593e-01  6.7585398608975056e-01  6.7484724372087546e-01  6.7384438129556945e-01  6.7283179091495904e-01  6.7179470460818280e-01  6.7071837404239232e-01  6.6958911413332767e-01  6.6839619218775947e-01  6.6713331847258017e-01  6.6579986219030907e-01  6.6439921470458196e-01  6.6293503208284177e-01  6.6140621000214217e-01  6.5980534793252543e-01  6.5812009562286333e-01  6.5633776112687003e-01  6.5445132978039811e-01  6.5246671135200551e-01  6.5040765891345342e-01  6.4831448219431154e-01  6.4623178290703387e-01  6.4419419580575610e-01  6.4221967350211961e-01  6.4031077386075830e-01  6.3845912203712218e-01  6.3665136978266912e-01  6.3487453082859246e-01  6.3312175714565222e-01  6.3139640392430219e-01  6.2971324089927450e-01  6.2809293034500902e-01  6.2655452767113740e-01  6.2511143199296371e-01  6.2377184632437199e-01  6.2254080537113554e-01  6.2142337747110199e-01  6.2042644103007261e-01  6.1955953965840782e-01  6.1883365732255757e-01  6.1825921920982496e-01  6.1784248345841186e-01  6.1758159611550056e-01  6.1746291009182686e-01  6.1746083617304059e-01  6.1753747624156197e-01  6.1764082390994579e-01  6.1770666255922790e-01  6.1767199003324247e-01  6.1749100844878935e-01  6.1714145015926725e-01  6.1662142735869097e-01  6.1594332766580084e-01  6.1512701407771242e-01  6.1419524666485614e-01  6.1317053392015419e-01  6.1207427496474309e-01  6.1092658880479422e-01  6.0974699585829106e-01  6.0855453545252203e-01  6.0736837307925839e-01  6.0620694139654419e-01  6.0508543863935782e-01  6.0400971683900306e-01  6.0297204522245007e-01  6.0195218621057500e-01  6.0092192066229344e-01  5.9984878166842248e-01  5.9869895177618837e-01  5.9743805563375585e-01  5.9603261720596601e-01  5.9445206640599901e-01  5.9267209465522119e-01  5.9067904459924814e-01  5.8847820179991539e-01  5.8610523323043318e-01  5.8363170326296088e-01  5.8114661728192973e-01  5.7872822119072720e-01  5.7643301720864049e-01  5.7429762368379988e-01  5.7234480452987990e-01  5.7059071434926212e-01  5.6905017152820436e-01  5.6773805527871424e-01  5.6666169623120966e-01  5.6580997553001122e-01  5.6514636205343827e-01  5.6460799570493203e-01  5.6411251766722958e-01  5.6357284063010704e-01  5.6291524491668787e-01  5.6209436704299010e-01  5.6109381016389570e-01  5.5991954863134719e-01  5.5859043204269265e-01  5.5712913617098425e-01  5.5555477794226127e-01  5.5388031388974124e-01  5.5211226691747495e-01  5.5025141337075967e-01  5.4829392318799663e-01  5.4623410905282521e-01  5.4406659598202090e-01  5.4178870712998628e-01  5.3940323647353938e-01  5.3692409311404887e-01  5.3438279391574650e-01  5.3183112705385571e-01  5.2933278318162158e-01  5.2694844705411170e-01  5.2472211269576308e-01  5.2267081237645818e-01  5.2078052856382395e-01  5.1901853525148278e-01  5.1735283752790284e-01  5.1575984977421918e-01  5.1422650717373453e-01  5.1275387116787752e-01  5.1136356868027188e-01  5.1010043948948214e-01  5.0900959468677653e-01  5.0810525803289874e-01  5.0736799701283386e-01  5.0675091670653860e-01  5.0618500902588681e-01  5.0558797586467430e-01  5.0487873528580118e-01  5.0399441866945094e-01  5.0290364621323980e-01  5.0161297110657166e-01  5.0015008210509571e-01  4.9855205882881987e-01  4.9684875298013770e-01  4.9505453917209313e-01  4.9319039903820266e-01  4.9128663989098065e-01  4.8937691923938753e-01  4.8749633492704669e-01  4.8568340674663296e-01  4.8398172378544041e-01  4.8242530954356894e-01  4.8102076668939103e-01  4.7975314131232599e-01  4.7859997246843777e-01  4.7754102342535604e-01  4.7656307524475477e-01  4.7566001687136078e-01  4.7483110281318835e-01  4.7407635640054824e-01  4.7338452456129371e-01  4.7270277558058049e-01  4.7191453888910995e-01  4.7088185159308660e-01  4.6951908338117282e-01  4.6779758331280097e-01  4.6571644696607617e-01  4.6327468540913075e-01  4.6046171925166796e-01  4.5726546065621482e-01  4.5369639018300678e-01  4.4982454572314096e-01  4.4581216907608973e-01  4.4187643816759686e-01  4.3806333053956842e-01  4.3411718790723508e-01  4.2972695416533058e-01  4.2462081403405705e-01  4.1860204851493038e-01  4.1163427326661811e-01  4.0385728065972681e-01  3.9542726950317586e-01  3.8649503438946309e-01  3.7722084368715564e-01  3.6776250492225571e-01  3.5818080013679765e-01  3.4839655131804370e-01  3.3822688939404261e-01  3.2743154101248989e-01  3.1575007231478319e-01  3.0293999892680229e-01  2.8882440268190190e-01  2.7335745704802339e-01  2.5674472837295853e-01  2.3953809323468886e-01  2.2236800441821308e-01  2.0563506802441470e-01  1.8955981578288589e-01  1.7427412590598731e-01  1.5984597614070428e-01  1.4629651313464703e-01  1.3361726291643028e-01  1.2178323270794171e-01  1.1076210440813851e-01  1.0051971433502399e-01  9.1022649831834251e-02  8.2238873317042521e-02  7.4137261059909698e-02  6.6686963120024909e-02  5.9856835403714191e-02  5.3615048968872328e-02  4.7928875530378917e-02  4.2764725160379491e-02  3.8088386321948969e-02  3.3865458385203141e-02  3.0061788603443246e-02  2.6643972650941750e-02  2.3579720454969321e-02  2.0838198806940510e-02  1.8390243283785020e-02  1.6208504760755624e-02  1.4267511606587719e-02  1.2543678529868700e-02  1.1015275518883549e-02  9.6623584979313761e-03  8.4666836869051899e-03  7.4116138097444348e-03  6.4820140195303777e-03  5.6641533289378916e-03  4.9456028867737086e-03  4.3151384500817475e-03  3.7626525857335680e-03  3.2790619801509532e-03  2.8562282319090312e-03  2.4868759490212560e-03  2.1645198518780591e-03  1.8833930740367931e-03  1.6383831877894188e-03  1.4249664725283400e-03  1.2391535535961906e-03  1.0774309701965705e-03  9.3671501316222171e-04  8.1430173912518708e-04  7.0782602906317845e-04  6.1522175969246724e-04  5.3468763977813970e-04  4.6465457143940784e-04  4.0375737248463263e-04  3.5080918726292147e-04  3.0477959814094723e-04  2.6477395674525962e-04  2.3001638656719353e-04  1.9983392518944885e-04  1.7364370758801489e-04  1.5094086280597664e-04  1.3128854968584989e-04  1.1430920954893154e-04  9.9677106304393647e-05  8.7111871364534618e-05  7.6372890518559779e-05  6.7254772767447692e-05  5.9583259165685063e-05  5.3212165079529180e-05  4.8020355784524371e-05  4.3910233838223468e-05  4.0806388931924531e-05  3.8657222978048853e-05  3.7443079193276693e-05  3.7214178998411504e-05  8.4901383100031746e-01  8.4860489470503175e-01  8.4774214090076416e-01  8.4647070599733043e-01  8.4480195786208601e-01  8.4275396784391410e-01  8.4035518617839966e-01  8.3764244298262158e-01  8.3465744598695479e-01  8.3144420929402996e-01  8.2804738878879036e-01  8.2451271516074143e-01  8.2088875694198660e-01  8.1722963625080747e-01  8.1359636308295091e-01  8.1005627974029737e-01  8.0667957674378898e-01  8.0353470083686940e-01  8.0068295973674897e-01  7.9817458006627495e-01  7.9604631346171884e-01  7.9432203995847539e-01  7.9301454366198176e-01  7.9212883518634869e-01  7.9166479141958890e-01  7.9161967884492557e-01  7.9198908552190128e-01  7.9276706662635399e-01  7.9394467895565879e-01  7.9550837227321614e-01  7.9743758470922743e-01  7.9970358453260604e-01  8.0226882168604274e-01  8.0508801461600243e-01  8.0810909212543547e-01  8.1127404945022741e-01  8.1451829040395807e-01  8.1776981610028221e-01  8.2094756525432566e-01  8.2396102175419494e-01  8.2671032642422437e-01  8.2908838053289913e-01  8.3098364474376119e-01  8.3228455078331898e-01  8.3288475924827221e-01  8.3269084723868769e-01  8.3163142422780323e-01  8.2966873851522938e-01  8.2680908911996376e-01  8.2310409119782169e-01  8.1863757475149912e-01  8.1351902830477063e-01  8.0788662359315544e-01  8.0190049796481555e-01  7.9572787435159620e-01  7.8953077567128638e-01  7.8346096546983035e-01  7.7765577548748621e-01  7.7223103808677163e-01  7.6727664281104191e-01  7.6285382734442231e-01  7.5899303526952500e-01  7.5569218701192775e-01  7.5291840979142644e-01  7.5061369301860725e-01  7.4870537071488874e-01  7.4711759369193720e-01  7.4578092995054235e-01  7.4463575345923083e-01  7.4363219344024745e-01  7.4272915140010221e-01  7.4189593962314793e-01  7.4111425437007672e-01  7.4037913820545131e-01  7.3969737920876644e-01  7.3908508767274417e-01  7.3856432889702672e-01  7.3816003984656764e-01  7.3789530275434279e-01  7.3778653301054165e-01  7.3783870792890449e-01  7.3804305274216486e-01  7.3837690797520816e-01  7.3880704215535165e-01  7.3929442315586025e-01  7.3979927326525174e-01  7.4028363309516798e-01  7.4071253934226233e-01  7.4105348512805469e-01  7.4127648695203630e-01  7.4135468385331726e-01  7.4126668271834595e-01  7.4099900083466608e-01  7.4054846458313950e-01  7.3992233682372410e-01  7.3913724655921775e-01  7.3821592618568588e-01  7.3718385616403215e-01  7.3606556762242392e-01  7.3488192657417750e-01  7.3364764775227775e-01  7.3237047785692799e-01  7.3105161714229816e-01  7.2968915651599930e-01  7.2828235547984221e-01  7.2683500102419007e-01  7.2535467404026988e-01  7.2385025291861005e-01  7.2232952736827050e-01  7.2079951976703716e-01  7.1926814227502722e-01  7.1774769974965669e-01  7.1625795316410201e-01  7.1482872609523496e-01  7.1349904949074794e-01  7.1231296469060812e-01  7.1131389229459763e-01  7.1054243514080295e-01  7.1003640709847160e-01  7.0983156955398508e-01  7.0995930252077533e-01  7.1044260770537315e-01  7.1129135686102152e-01  7.1249855423795039e-01  7.1403701578084799e-01  7.1585861456479416e-01  7.1789667120749912e-01  7.2007369216612283e-01  7.2231066955488865e-01  7.2453526525380851e-01  7.2668603466174819e-01  7.2871373322622190e-01  7.3057972950300198e-01  7.3225380017638020e-01  7.3371111702378777e-01  7.3493006900085178e-01  7.3588931396154766e-01  7.3656508557106659e-01  7.3692924642271229e-01  7.3695128947574540e-01  7.3660379288829514e-01  7.3587111997030186e-01  7.3475719152600372e-01  7.3328880620873838e-01  7.3150956225464236e-01  7.2947018243551875e-01  7.2722198063665089e-01  7.2481479935310078e-01  7.2229638971833676e-01  7.1971274937708329e-01  7.1710733765339774e-01  7.1452043416966238e-01  7.1198809356700077e-01  7.0954258341753118e-01  7.0721278284691924e-01  7.0502424774653838e-01  7.0299754305911732e-01  7.0114779881118972e-01  6.9948575776470789e-01  6.9802000189383540e-01  6.9675780889535666e-01  6.9570561134132547e-01  6.9486808973714109e-01  6.9424741297796844e-01  6.9384274376571442e-01  6.9365176488061353e-01  6.9367177007953440e-01  6.9389961498809760e-01  6.9432844034590613e-01  6.9494259848400541e-01  6.9571071378769045e-01  6.9658030739220300e-01  6.9747812123214958e-01  6.9832160320749581e-01  6.9903549880211446e-01  6.9956398712936196e-01  6.9987381454612041e-01  6.9995195662522847e-01  6.9980021689021554e-01  6.9943007217367814e-01  6.9885797864423693e-01  6.9810260842866523e-01  6.9718269357388407e-01  6.9611659096573864e-01  6.9492201463101178e-01  6.9361690880740090e-01  6.9221994363809836e-01  6.9075106126278774e-01  6.8923091078637366e-01  6.8768039263942937e-01  6.8611940125138082e-01  6.8456618668685221e-01  6.8303627961529634e-01  6.8154219457299947e-01  6.8009295020542593e-01  6.7869444866018491e-01  6.7734969844710358e-01  6.7605974135411251e-01  6.7482377930060733e-01  6.7363972561909413e-01  6.7250391110236807e-01  6.7141125612323571e-01  6.7035489031356332e-01  6.6932622415691001e-01  6.6831461861727948e-01  6.6730774454096353e-01  6.6629153512954598e-01  6.6525098583572140e-01  6.6417069849976673e-01  6.6303642464725721e-01  6.6183660647282161e-01  6.6056462193957466e-01  6.5921995137042921e-01  6.5780747007679652e-01  6.5633224790506672e-01  6.5479411408474308e-01  6.5318522601816054e-01  6.5149219339510722e-01  6.4970049201760505e-01  6.4780119080032539e-01  6.4579831424006451e-01  6.4371587669055641e-01  6.4159725382904431e-01  6.3949151212982713e-01  6.3743514703291781e-01  6.3544601730671568e-01  6.3352540218938891e-01  6.3166369745728890e-01  6.2984604018897850e-01  6.2805823915587655e-01  6.2629195715061203e-01  6.2455022944632987e-01  6.2284901835551043e-01  6.2121130939230051e-01  6.1965716685716599e-01  6.1820006179158138e-01  6.1684738639419801e-01  6.1560351210667130e-01  6.1447272316974244e-01  6.1346188927554857e-01  6.1258069584682850e-01  6.1184078992124058e-01  6.1125335499211730e-01  6.1082594965422021e-01  6.1055756167201625e-01  6.1043486519504064e-01  6.1043208561789464e-01  6.1051237681426951e-01  6.1062354203697611e-01  6.1069800850311817e-01  6.1066789442180036e-01  6.1048566798660053e-01  6.1012964873885789e-01  6.0959986302925873e-01  6.0891026220651756e-01  6.0808217926337649e-01  6.0713904910074212e-01  6.0610380281849296e-01  6.0499778713562569e-01  6.0384128703703033e-01  6.0265373553556079e-01  6.0145441399087485e-01  6.0026246580863607e-01  5.9909710077474310e-01  5.9797477991839598e-01  5.9690238706360765e-01  5.9587125373035466e-01  5.9485968948445178e-01  5.9383796816496115e-01  5.9277299631844127e-01  5.9163048629522563e-01  5.9037605476380728e-01  5.8897583320620550e-01  5.8739921210982526e-01  5.8562160387958029e-01  5.8362840595232934e-01  5.8142199276954876e-01  5.7903562049454660e-01  5.7654342764321198e-01  5.7404111367983057e-01  5.7160964954352422e-01  5.6930573450961885e-01  5.6716494726949396e-01  5.6520895167052776e-01  5.6345251873612878e-01  5.6191002540709045e-01  5.6059740867818397e-01  5.5952466455265426e-01  5.5868222099910669e-01  5.5803428623525408e-01  5.5751668732018511e-01  5.5704400339642335e-01  5.5652465830340836e-01  5.5588115142877692e-01  5.5506737199302547e-01  5.5406851840626348e-01  5.5289262633816472e-01  5.5156105317109227e-01  5.5009849245887577e-01  5.4852514949708331e-01  5.4685347340733503e-01  5.4508922580759767e-01  5.4323173575933292e-01  5.4127601222247124e-01  5.3921532394391558e-01  5.3704393548544282e-01  5.3475862048688971e-01  5.3236114205823826e-01  5.2986345511255983e-01  5.2729620428843227e-01  5.2471267567963231e-01  5.2218064789439267e-01  5.1976437314207191e-01  5.1751074274769815e-01  5.1543880736342018e-01  5.1353463588044412e-01  5.1176263517583642e-01  5.1008972445268042e-01  5.0849193780871804e-01  5.0695610676914127e-01  5.0548222623669548e-01  5.0408978088112655e-01  5.0282372237321482e-01  5.0173347856581252e-01  5.0083374699870353e-01  5.0010471827383485e-01  4.9949955115330252e-01  4.9894933798690771e-01  4.9837029216146106e-01  4.9767963515500613e-01  4.9681380586314933e-01  4.9573972957111978e-01  4.9445933244961160e-01  4.9299985762498660e-01  4.9139968636735937e-01  4.8969236552710343e-01  4.8789852542168738e-01  4.8604041218961724e-01  4.8414851046344903e-01  4.8225696249375205e-01  4.8040059098935406e-01  4.7861652716596598e-01  4.7694768029086471e-01  4.7542958559036058e-01  4.7406637343223690e-01  4.7283941201091478e-01  4.7172390876796300e-01  4.7069930934821363e-01  4.6975325199543660e-01  4.6888169603824742e-01  4.6808608612579466e-01  4.6736882829203025e-01  4.6672168587621388e-01  4.6609968635325766e-01  4.6538909100213061e-01  4.6444423444834099e-01  4.6317775369503816e-01  4.6156245877590257e-01  4.5959807101852262e-01  4.5728363358202034e-01  4.5460834199806677e-01  4.5156074835178728e-01  4.4815233794825837e-01  4.4445225791568416e-01  4.4061816897717349e-01  4.3685412399662554e-01  4.3323068559834549e-01  4.2950833842261110e-01  4.25377635547