<?xml version="1.0"?>
<VTKFile type="UnstructuredGrid"  version="0.1"  >
<UnstructuredGrid>
<Piece  NumberOfPoints="28121" NumberOfCells="55200">
<Points>
<DataArray  type="Float64"  NumberOfComponents="3"  format="ascii">0 0 0  0.008260869565217391 0 0  0.01652173913043478 0 0  0.02478260869565217 0 0  0.03304347826086956 0 0  0.04130434782608695 0 0  0.04956521739130434 0 0  0.05782608695652174 0 0  0.06608695652173913 0 0  0.07434782608695652 0 0  0.08260869565217391 0 0  0.0908695652173913 0 0  0.09913043478260869 0 0  0.1073913043478261 0 0  0.1156521739130435 0 0  0.1239130434782609 0 0  0.1321739130434783 0 0  0.1404347826086956 0 0  0.148695652173913 0 0  0.1569565217391304 0 0  0.1652173913043478 0 0  0.1734782608695652 0 0  0.1817391304347826 0 0  0.19 0 0  0.1982608695652174 0 0  0.2065217391304348 0 0  0.2147826086956522 0 0  0.2230434782608696 0 0  0.2313043478260869 0 0  0.2395652173913043 0 0  0.2478260869565218 0 0  0.2560869565217391 0 0  0.2643478260869565 0 0  0.2726086956521739 0 0  0.2808695652173913 0 0  0.2891304347826087 0 0  0.2973913043478261 0 0  0.3056521739130434 0 0  0.3139130434782609 0 0  0.3221739130434783 0 0  0.3304347826086956 0 0  0.338695652173913 0 0  0.3469565217391304 0 0  0.3552173913043478 0 0  0.3634782608695652 0 0  0.3717391304347826 0 0  0.3799999999999999 0 0  0.3882608695652174 0 0  0.3965217391304348 0 0  0.4047826086956521 0 0  0.4130434782608696 0 0  0.4213043478260869 0 0  0.4295652173913043 0 0  0.4378260869565217 0 0  0.4460869565217391 0 0  0.4543478260869565 0 0  0.4626086956521739 0 0  0.4708695652173913 0 0  0.4791304347826086 0 0  0.4873913043478261 0 0  0.4956521739130435 0 0  0.5039130434782608 0 0  0.5121739130434783 0 0  0.5204347826086956 0 0  0.528695652173913 0 0  0.5369565217391304 0 0  0.5452173913043478 0 0  0.5534782608695652 0 0  0.5617391304347825 0 0  0.57 0 0  0.5782608695652174 0 0  0.5865217391304348 0 0  0.5947826086956521 0 0  0.6030434782608696 0 0  0.6113043478260869 0 0  0.6195652173913043 0 0  0.6278260869565218 0 0  0.6360869565217391 0 0  0.6443478260869565 0 0  0.6526086956521739 0 0  0.6608695652173913 0 0  0.6691304347826087 0 0  0.677391304347826 0 0  0.6856521739130435 0 0  0.6939130434782609 0 0  0.7021739130434783 0 0  0.7104347826086956 0 0  0.718695652173913 0 0  0.7269565217391304 0 0  0.7352173913043478 0 0  0.7434782608695653 0 0  0.7517391304347827 0 0  0.7599999999999999 0 0  0.7682608695652173 0 0  0.7765217391304348 0 0  0.7847826086956522 0 0  0.7930434782608695 0 0  0.8013043478260868 0 0  0.8095652173913043 0 0  0.8178260869565217 0 0  0.8260869565217391 0 0  0.8343478260869565 0 0  0.8426086956521739 0 0  0.8508695652173912 0 0  0.8591304347826086 0 0  0.8673913043478261 0 0  0.8756521739130434 0 0  0.8839130434782608 0 0  0.8921739130434783 0 0  0.9004347826086956 0 0  0.908695652173913 0 0  0.9169565217391303 0 0  0.9252173913043478 0 0  0.9334782608695652 0 0  0.9417391304347826 0 0  0.95 0 0  0.9582608695652173 0 0  0.9665217391304347 0 0  0.9747826086956521 0 0  0.9830434782608696 0 0  0.991304347826087 0 0  0.9995652173913042 0 0  1.007826086956522 0 0  1.016086956521739 0 0  1.024347826086957 0 0  1.032608695652174 0 0  1.040869565217391 0 0  1.049130434782609 0 0  1.057391304347826 0 0  1.065652173913043 0 0  1.073913043478261 0 0  1.082173913043478 0 0  1.090434782608696 0 0  1.098695652173913 0 0  1.10695652173913 0 0  1.115217391304348 0 0  1.123478260869565 0 0  1.131739130434783 0 0  1.14 0 0  1.148260869565217 0 0  1.156521739130435 0 0  1.164782608695652 0 0  1.17304347826087 0 0  1.181304347826087 0 0  1.189565217391304 0 0  1.197826086956522 0 0  1.206086956521739 0 0  1.214347826086956 0 0  1.222608695652174 0 0  1.230869565217391 0 0  1.239130434782609 0 0  1.247391304347826 0 0  1.255652173913044 0 0  1.263913043478261 0 0  1.272173913043478 0 0  1.280434782608696 0 0  1.288695652173913 0 0  1.296956521739131 0 0  1.305217391304348 0 0  1.313478260869565 0 0  1.321739130434783 0 0  1.33 0 0  1.338260869565217 0 0  1.346521739130435 0 0  1.354782608695652 0 0  1.36304347826087 0 0  1.371304347826087 0 0  1.379565217391304 0 0  1.387826086956522 0 0  1.396086956521739 0 0  1.404347826086957 0 0  1.412608695652174 0 0  1.420869565217391 0 0  1.429130434782609 0 0  1.437391304347826 0 0  1.445652173913043 0 0  1.453913043478261 0 0  1.462173913043478 0 0  1.470434782608696 0 0  1.478695652173913 0 0  1.486956521739131 0 0  1.495217391304348 0 0  1.503478260869565 0 0  1.511739130434782 0 0  1.52 0 0  1.528260869565217 0 0  1.536521739130435 0 0  1.544782608695652 0 0  1.55304347826087 0 0  1.561304347826087 0 0  1.569565217391304 0 0  1.577826086956522 0 0  1.586086956521739 0 0  1.594347826086957 0 0  1.602608695652174 0 0  1.610869565217391 0 0  1.619130434782609 0 0  1.627391304347826 0 0  1.635652173913043 0 0  1.643913043478261 0 0  1.652173913043478 0 0  1.660434782608696 0 0  1.668695652173913 0 0  1.67695652173913 0 0  1.685217391304348 0 0  1.693478260869565 0 0  1.701739130434782 0 0  1.71 0 0  1.718260869565217 0 0  1.726521739130435 0 0  1.734782608695652 0 0  1.743043478260869 0 0  1.751304347826087 0 0  1.759565217391304 0 0  1.767826086956522 0 0  1.776086956521739 0 0  1.784347826086957 0 0  1.792608695652174 0 0  1.800869565217391 0 0  1.809130434782608 0 0  1.817391304347826 0 0  1.825652173913043 0 0  1.833913043478261 0 0  1.842173913043478 0 0  1.850434782608696 0 0  1.858695652173913 0 0  1.86695652173913 0 0  1.875217391304348 0 0  1.883478260869565 0 0  1.891739130434782 0 0  1.9 0 0  1.908260869565217 0 0  1.916521739130435 0 0  1.924782608695652 0 0  1.933043478260869 0 0  1.941304347826087 0 0  1.949565217391304 0 0  1.957826086956522 0 0  1.966086956521739 0 0  1.974347826086956 0 0  1.982608695652174 0 0  1.990869565217391 0 0  1.999130434782608 0 0  2.007391304347826 0 0  2.015652173913043 0 0  2.023913043478261 0 0  2.032173913043478 0 0  2.040434782608695 0 0  2.048695652173913 0 0  2.05695652173913 0 0  2.065217391304348 0 0  2.073478260869565 0 0  2.081739130434782 0 0  2.09 0 0  2.098260869565217 0 0  2.106521739130435 0 0  2.114782608695652 0 0  2.12304347826087 0 0  2.131304347826087 0 0  2.139565217391304 0 0  2.147826086956522 0 0  2.156086956521739 0 0  2.164347826086956 0 0  2.172608695652174 0 0  2.180869565217391 0 0  2.189130434782609 0 0  2.197391304347826 0 0  2.205652173913043 0 0  2.213913043478261 0 0  2.222173913043478 0 0  2.230434782608695 0 0  2.238695652173913 0 0  2.24695652173913 0 0  2.255217391304348 0 0  2.263478260869565 0 0  2.271739130434783 0 0  2.28 0 0  2.288260869565217 0 0  2.296521739130434 0 0  2.304782608695652 0 0  2.31304347826087 0 0  2.321304347826087 0 0  2.329565217391304 0 0  2.337826086956521 0 0  2.346086956521739 0 0  2.354347826086956 0 0  2.362608695652174 0 0  2.370869565217391 0 0  2.379130434782609 0 0  2.387391304347826 0 0  2.395652173913044 0 0  2.403913043478261 0 0  2.412173913043478 0 0  2.420434782608695 0 0  2.428695652173913 0 0  2.43695652173913 0 0  2.445217391304348 0 0  2.453478260869565 0 0  2.461739130434782 0 0  2.47 0 0  2.478260869565217 0 0  2.486521739130435 0 0  2.494782608695652 0 0  2.503043478260869 0 0  2.511304347826087 0 0  2.519565217391305 0 0  2.527826086956522 0 0  2.536086956521739 0 0  2.544347826086956 0 0  2.552608695652174 0 0  2.560869565217391 0 0  2.569130434782608 0 0  2.577391304347826 0 0  2.585652173913043 0 0  2.593913043478261 0 0  2.602173913043478 0 0  2.610434782608696 0 0  2.618695652173913 0 0  2.62695652173913 0 0  2.635217391304348 0 0  2.643478260869565 0 0  2.651739130434783 0 0  2.66 0 0  2.668260869565217 0 0  2.676521739130435 0 0  2.684782608695652 0 0  2.693043478260869 0 0  2.701304347826087 0 0  2.709565217391304 0 0  2.717826086956522 0 0  2.726086956521739 0 0  2.734347826086956 0 0  2.742608695652174 0 0  2.750869565217391 0 0  2.759130434782609 0 0  2.767391304347826 0 0  2.775652173913044 0 0  2.783913043478261 0 0  2.792173913043478 0 0  2.800434782608696 0 0  2.808695652173913 0 0  2.81695652173913 0 0  2.825217391304347 0 0  2.833478260869565 0 0  2.841739130434783 0 0  2.85 0 0  2.858260869565217 0 0  2.866521739130435 0 0  2.874782608695652 0 0  2.88304347826087 0 0  2.891304347826087 0 0  2.899565217391304 0 0  2.907826086956522 0 0  2.916086956521739 0 0  2.924347826086957 0 0  2.932608695652174 0 0  2.940869565217391 0 0  2.949130434782608 0 0  2.957391304347826 0 0  2.965652173913043 0 0  2.973913043478261 0 0  2.982173913043478 0 0  2.990434782608696 0 0  2.998695652173913 0 0  3.006956521739131 0 0  3.015217391304348 0 0  3.023478260869565 0 0  3.031739130434782 0 0  3.04 0 0  3.048260869565218 0 0  3.056521739130435 0 0  3.064782608695652 0 0  3.073043478260869 0 0  3.081304347826087 0 0  3.089565217391304 0 0  3.097826086956522 0 0  3.106086956521739 0 0  3.114347826086956 0 0  3.122608695652174 0 0  3.130869565217391 0 0  3.139130434782609 0 0  3.147391304347826 0 0  3.155652173913043 0 0  3.163913043478261 0 0  3.172173913043478 0 0  3.180434782608696 0 0  3.188695652173913 0 0  3.19695652173913 0 0  3.205217391304347 0 0  3.213478260869565 0 0  3.221739130434782 0 0  3.23 0 0  3.238260869565217 0 0  3.246521739130435 0 0  3.254782608695652 0 0  3.26304347826087 0 0  3.271304347826087 0 0  3.279565217391304 0 0  3.287826086956521 0 0  3.296086956521739 0 0  3.304347826086957 0 0  3.312608695652174 0 0  3.320869565217391 0 0  3.329130434782608 0 0  3.337391304347826 0 0  3.345652173913043 0 0  3.353913043478261 0 0  3.362173913043478 0 0  3.370434782608696 0 0  3.378695652173913 0 0  3.386956521739131 0 0  3.395217391304348 0 0  3.403478260869565 0 0  3.411739130434782 0 0  3.419999999999999 0 0  3.428260869565217 0 0  3.436521739130435 0 0  3.444782608695652 0 0  3.453043478260869 0 0  3.461304347826087 0 0  3.469565217391304 0 0  3.477826086956522 0 0  3.486086956521739 0 0  3.494347826086956 0 0  3.502608695652174 0 0  3.510869565217391 0 0  3.519130434782609 0 0  3.527391304347826 0 0  3.535652173913043 0 0  3.54391304347826
[...]
<PointData  Scalars="rho_bar"> 
<DataArray  type="Float64"  Name="rho_bar"  format="ascii">9.9981609985906439e-01  9.9981303245357500e-01  9.9980825364688519e-01  9.9980097730500428e-01  9.9979079418755656e-01  9.9977732086101334e-01  9.9976012380052603e-01  9.9973863049055867e-01  9.9971200861431009e-01  9.9967903918163792e-01  9.9963814056621803e-01  9.9958762773213361e-01  9.9952604742424012e-01  9.9945202793712984e-01  9.9936335122807562e-01  9.9925592803136698e-01  9.9912422603119844e-01  9.9896363649366149e-01  9.9877321954604614e-01  9.9855656073202170e-01  9.9832088274655773e-01  9.9807677924076832e-01  9.9783951442608732e-01  9.9762934825334915e-01  9.9746871834849027e-01  9.9737675978116280e-01  9.9736374879179845e-01  9.9742806052895594e-01  9.9755729310624830e-01  9.9773267189611903e-01  9.9793436596574603e-01  9.9814526005984217e-01  9.9835250180128376e-01  9.9854732619743980e-01  9.9872434502038898e-01  9.9888081535296080e-01  9.9901596530295200e-01  9.9913017607383525e-01  9.9922420824014702e-01  9.9929861094452721e-01  9.9935337579336303e-01  9.9938754049406120e-01  9.9939857905569052e-01  9.9938133838864629e-01  9.9932627033841059e-01  9.9921716831134066e-01  9.9903249315069498e-01  9.9876090601340217e-01  9.9842499290835574e-01  9.9805987691271703e-01  9.9765979681855776e-01  9.9719445989551958e-01  9.9665008606883865e-01  9.9603273747106469e-01  9.9536357347023441e-01  9.9467381396133137e-01  9.9399940804995668e-01  9.9337528666609298e-01  9.9282998096795905e-01  9.9238118215223692e-01  9.9203403475734575e-01  9.9178257864503494e-01  9.9161397883611091e-01  9.9151289017701538e-01  9.9146458823900985e-01  9.9145612600515176e-01  9.9147669233746660e-01  9.9151742262629639e-01  9.9157134358557941e-01  9.9163299405127003e-01  9.9169823646669286e-01  9.9176371483240122e-01  9.9182646778955774e-01  9.9188343331194495e-01  9.9193155818167489e-01  9.9196809044334699e-01  9.9199116025249034e-01  9.9199988926534155e-01  9.9199444778992607e-01  9.9197573632014324e-01  9.9194544675760843e-01  9.9190599042177041e-01  9.9186040156927668e-01  9.9181170703121568e-01  9.9176244952364434e-01  9.9171422093033912e-01  9.9166773464147151e-01  9.9162285831909869e-01  9.9157902427367528e-01  9.9153541707179216e-01  9.9149131486264586e-01  9.9144614683910148e-01  9.9139971193517196e-01  9.9135205569884022e-01  9.9130350851987870e-01  9.9125440660452135e-01  9.9120511560699287e-01  9.9115586988326765e-01  9.9110688155759052e-01  9.9105824492881445e-01  9.9101008796404966e-01  9.9096245931223870e-01  9.9091547658181056e-01  9.9086918167135130e-01  9.9082367750454925e-01  9.9077899856898111e-01  9.9073519592672765e-01  9.9069217370308593e-01  9.9064978266589176e-01  9.9060765153650976e-01  9.9056532484424153e-01  9.9052215292509505e-01  9.9047753079406087e-01  9.9043088715879812e-01  9.9038188198542676e-01  9.9033031678318506e-01  9.9027629097777958e-01  9.9022008362662084e-01  9.9016233899516959e-01  9.9010395009892749e-01  9.9004623862643437e-01  9.8999077667939417e-01  9.8993929703154171e-01  9.8989315653755605e-01  9.8985290866437159e-01  9.8981756272168997e-01  9.8978451681126445e-01  9.8974988107137585e-01  9.8970986166614072e-01  9.8966213484988586e-01  9.8960686908282014e-01  9.8954636487038838e-01  9.8948404641659005e-01  9.8942290889206930e-01  9.8936480221006551e-01  9.8931012387945694e-01  9.8925837014677886e-01  9.8920854774440581e-01  9.8915978976261809e-01  9.8911153357804293e-01  9.8906383749660853e-01  9.8901722678557069e-01  9.8897272933783364e-01  9.8893142436254211e-01  9.8889413238825108e-01  9.8886063228693499e-01  9.8882936957751078e-01  9.8879743623274718e-01  9.8876147467475106e-01  9.8871848752740865e-01  9.8866666271585379e-01  9.8860535391625404e-01  9.8853514874907322e-01  9.8845757641973209e-01  9.8837502310674241e-01  9.8829006509015849e-01  9.8820483275651361e-01  9.8811998679996160e-01  9.8803439829539330e-01  9.8794504675491002e-01  9.8784773753381805e-01  9.8773755857164458e-01  9.8760944348662461e-01  9.8745814738927329e-01  9.8727847011073244e-01  9.8706550951478056e-01  9.8681596898320745e-01  9.8652982669882150e-01  9.8621308174455669e-01  9.8588057943002794e-01  9.8555937972608210e-01  9.8529131459461328e-01  9.8513454649336551e-01  9.8516168120433079e-01  9.8545226534574470e-01  9.8607628418362969e-01  9.8707017034725342e-01  9.8841115342412977e-01  9.9000598519308169e-01  9.9170592347878272e-01  9.9334552825441136e-01  9.9478864557403857e-01  9.9595998341981984e-01  9.9684702402007352e-01  9.9747929400499180e-01  9.9790279469810783e-01  9.9816240793330990e-01  9.9829272653692691e-01  9.9831273615252480e-01  9.9822722353834081e-01  9.9803693037077845e-01  9.9774346527356172e-01  9.9734268460402731e-01  9.9682652522541515e-01  9.9620508444040945e-01  9.9552865966284421e-01  9.9488852396590965e-01  9.9439489976389450e-01  9.9414083165392386e-01  9.9416507530005416e-01  9.9443480552078356e-01  9.9486114538887993e-01  9.9533732012812193e-01  9.9577182719229851e-01  9.9610012542313264e-01  9.9627843403085126e-01  9.9627067759083687e-01  9.9603329497826154e-01  9.9550096424143864e-01  9.9457151696179003e-01  9.9309978720279202e-01  9.9092494953569243e-01  9.8793896274947679e-01  9.8416049169869768e-01  9.7977109311111121e-01  9.7511100148233043e-01  9.7060824759121289e-01  9.6665491370298784e-01  9.6349289673892213e-01  9.6119100871793495e-01  9.5969421069557015e-01  9.5888588747758818e-01  9.5863135253810594e-01  9.5879928654815949e-01  9.5927218171943551e-01  9.5994945720227376e-01  9.6074687598244102e-01  9.6159385431414146e-01  9.6243479719506775e-01  9.6323007316131315e-01  9.6395604417818970e-01  9.6460206606444776e-01  9.6516766555829525e-01  9.6565859695329470e-01  9.6608432705496272e-01  9.6645540165154264e-01  9.6678257077465146e-01  9.6707553547140390e-01  9.6734315446920294e-01  9.6759280486813903e-01  9.6783070606187238e-01  9.6806167761243256e-01  9.6828991389133856e-01  9.6851854891932576e-01  9.6874984610698456e-01  9.6898488797859927e-01  9.6922432568823180e-01  9.6946806933346175e-01  9.6971593103525355e-01  9.6996733548322878e-01  9.7022182492226827e-01  9.7047871727610002e-01  9.7073765457916572e-01  9.7099822406933867e-01  9.7126033889794749e-01  9.7152357520368715e-01  9.7178757471974897e-01  9.7205163898310953e-01  9.7231505588814038e-01  9.7257658021244220e-01  9.7283470323288113e-01  9.7308709800969351e-01  9.7333096469779656e-01  9.7356256185440881e-01  9.7377765597906352e-01  9.7397115712136639e-01  9.7413748615979523e-01  9.7427045147972047e-01  9.7436434641836267e-01  9.7441463932031802e-01  9.7441939552624779e-01  9.7437950358733150e-01  9.7429900642628764e-01  9.7418429865827838e-01  9.7404489213494683e-01  9.7389507611004811e-01  9.7375752081968980e-01  9.7366654223751747e-01  9.7367001351627080e-01  9.7382752164885256e-01  9.7420717763705256e-01  9.7487575519888570e-01  9.7588540199178309e-01  9.7725780889025293e-01  9.7896963876672849e-01  9.8094225815476210e-01  9.8304845625366932e-01  9.8514180394529594e-01  9.8709773823121150e-01  9.8883583062882452e-01  9.9031141829149272e-01  9.9150839529124990e-01  9.9243071419927742e-01  9.9309168680186710e-01  9.9350518539214006e-01  9.9367809403203911e-01  9.9360435275133308e-01  9.9325968846837964e-01  9.9259656839608779e-01  9.9153771585010730e-01  9.8996906235156445e-01  9.8773756851327565e-01  9.8466374606389262e-01  9.8056857147356513e-01  9.7530875114781224e-01  9.6884514751271178e-01  9.6135355422798718e-01  9.5327070555137694e-01  9.4522069587373692e-01  9.3786663406859982e-01  9.3175209160618255e-01  9.2717724574848137e-01  9.2417097117350822e-01  9.2254862140493787e-01  9.2199818090554986e-01  9.2216921181891265e-01  9.2274297984721931e-01  9.2347188682773951e-01  9.2419553450373260e-01  9.2483224714083734e-01  9.2535929224599633e-01  9.2578491203354341e-01  9.2612647073763343e-01  9.2639969144261625e-01  9.2661757475875295e-01  9.2678856640573959e-01  9.2691448748538097e-01  9.2698833867561614e-01  9.2700452730728056e-01  9.2696970549824520e-01  9.2690595664356512e-01  9.2684589376227244e-01  9.2682768566211704e-01  9.2688598242858655e-01  9.2704604378008337e-01  9.2732001712017509e-01  9.2770933931649580e-01  9.2820698837065552e-01  9.2880198632968547e-01  9.2948144779469744e-01  9.3023320790187991e-01  9.3104404705630484e-01  9.3189969112742022e-01  9.3278396019751186e-01  9.3368018249253182e-01  9.3457126831223836e-01  9.3544374647754658e-01  9.3629073165905286e-01  9.3711529081952993e-01  9.3792892973083797e-01  9.3874784545985746e-01  9.3958477575787136e-01  9.4044454359291618e-01  9.4132101945742930e-01  9.4219716243950602e-01  9.4304375108473859e-01  9.4381888423161697e-01  9.4446496817157088e-01  9.4490919145575547e-01  9.4506816072276001e-01  9.4486230420371409e-01  9.4423854508396143e-01  9.4320105506517693e-01  9.4182309894563476e-01  9.4022609190462170e-01  9.3855704639056836e-01  9.3699776934718104e-01  9.3577989696538488e-01  9.3517711394415970e-01  9.3543177419878376e-01  9.3664323035524566e-01  9.3867591450343801e-01  9.4112026907481849e-01  9.4333213315535558e-01  9.4456635856703353e-01  9.4413966288894591e-01  9.4159785903517934e-01  9.3649445401117837e-01  9.2809003304770699e-01  9.1484949518052161e-01  8.9321238543576587e-01  8.5621947308314539e-01  7.9194648174495863e-01  6.8434317093539510e-01  5.2838572464409161e-01  3.5596521195065306e-01  2.1581909992178255e-01  1.2471852510337018e-01  7.1845621795468828e-02  4.2273034088501402e-02  2.5681011530404921e-02  1.6167109592971608e-02  1.0547914368023235e-02  7.1193514558121253e-03  4.9572606775723027e-03  3.5494043326392763e-03  2.6044080057113354e-03  1.9519829426579468e-03  1.4898223079083837e-03  1.1547751465461765e-03  9.0682457573764200e-04  7.1996638574111477e-04  5.7689424204962806e-04  4.6582673615762837e-04  3.7857255365718914e-04  3.0932215287942196e-04  2.5387859567773736e-04  2.0915785698118490e-04  1.7285761555333953e-04  1.4323437297158401e-04  1.1895029224974946e-04  9.8966837935303664e-05  8.2469122222261391e-05  6.8812003782818911e-05  5.7480159871018623e-05  4.8059458570368820e-05  4.0214527809007605e-05  3.3672763118845308e-05  2.8211208439032529e-05  2.3646924391239380e-05  1.9829214347620155e-05  1.6633660100054453e-05  1.3957189551514823e-05  1.1714324789474903e-05  9.8339260413667635e-06  8.2568565593840195e-06  6.9337355686910430e-06  5.8233986078927809e-06  4.8914010086765563e-06  4.1089650883670282e-06  3.4519909234332975e-06  2.9002959432664260e-06  2.4369583338789352e-06  2.0478005045467452e-06  1.7209203494925612e-06  1.4463430483835944e-06  1.2156932576080050e-06  1.0219350304435860e-06  8.5916768288367924e-07  7.2243190755198763e-07  6.0757140552532162e-07  5.1108571683237063e-07  4.3003962470546528e-07  3.6197161099114832e-07  3.0481743403310544e-07  2.5683994526880726e-07  2.1658433777979429e-07  1.8283169496785821e-07  1.5456387605826245e-07  1.3092406164581537e-07  1.1119885616929071e-07  9.4794131366429941e-08  8.1218015223457503e-08  7.0062156888242059e-08  6.0992599947802654e-08  5.3739359206119103e-08  4.8088756343341116e-08  4.3875856069706784e-08  4.0984754272773309e-08  3.9355373159758944e-08  3.9027794552816282e-08  9.9980510761210295e-01  9.9980314943520943e-01  9.9979837678949324e-01  9.9979079167856444e-01  9.9978011591542104e-01  9.9976593061416930e-01  9.9974761617284458e-01  9.9972434527806420e-01  9.9969516564731697e-01  9.9965915246583026e-01  9.9961540178660013e-01  9.9956259128587666e-01  9.9949810056634802e-01  9.9941751090853970e-01  9.9931560506218120e-01  9.9918881666602333e-01  9.9903674383224228e-01  9.9886044446091926e-01  9.9865889126411211e-01  9.9842851113649222e-01  9.9816851202656021e-01  9.9788797279703267e-01  9.9760781976652535e-01  9.9735652328333912e-01  9.9716303224678926e-01  9.9704999544303663e-01  9.9702878894296665e-01  9.9709785376083249e-01  9.9724425396459715e-01  9.9744745063235640e-01  9.9768397392487884e-01  9.9793191315930319e-01  9.9817397897889815e-01  9.9839884748860919e-01  9.9860075030725715e-01  9.9877786940205537e-01  9.9893038048674132e-01  9.9905912435535449e-01  9.9916504661686800e-01  9.9924899727292238e-01  9.9931133460444355e-01  9.9935139281431351e-01  9.9936682996768045e-01  9.9935264092209641e-01  9.9929938607266078e-01  9.9919070788154674e-01  9.9900316567727965e-01  9.9871874133228733e-01  9.9834998513181961e-01  9.9793220226416424e-01  9.9746689068404359e-01  9.9692084167168982e-01  9.9627451060956662e-01  9.9553337497170025e-01  9.9472480080832293e-01  9.9389036332873748e-01  9.9307611874269264e-01  9.9232487458644736e-01  9.9167040493259784e-01  9.9113336007058639e-01  9.9071938330722020e-01  9.9042075169592503e-01  9.9022114120697635e-01  9.9010162513579847e-01  9.9004439720214321e-01  9.9003425060235994e-01  9.9005846108601225e-01  9.9010666918034884e-01  9.9017061461775380e-01  9.9024402768601771e-01  9.9032202505074829e-01  9.9040066352550127e-01  9.9047621666645469e-01  9.9054490509456850e-01  9.9060282791637289e-01  9.9064659646864273e-01  9.9067381882411820e-01  9.9068348659896210e-01  9.9067575638841021e-01  9.9065194481703001e-01  9.9061428684546504e-01  9.9056589714031473e-01  9.9051042506851983e-01  9.9045166124463457e-01  9.9039263584506876e-01  9.9033528094434109e-01  9.9028026296374438e-01  9.9022736966135061e-01  9.9017573528639846e-01  9.9012434970135099e-01  9.9007224475956856e-01  9.9001881609648179e-01  9.8996377103869648e-01  9.8990726586555722e-01  9.8984965479206877e-01  9.8979145604244101e-01  9.8973306051321741e-01  9.8967481058262585e-01  9.8961688232682188e-01  9.8955945096699849e-01  9.8950258200106000e-01  9.8944640635534764e-01  9.8939097935411613e-01  9.8933643525749415e-01  9.8928283092787694e-01  9.8923027594928425e-01  9.8917876859016340e-01  9.8912828379049911e-01  9.8907856205885936e-01  9.8902923324999459e-01  9.8897966627936784e-01  9.8892916201218861e-01  9.8887689665926359e-01  9.8882222773825401e-01  9.8876466296967980e-01  9.8870404282955426e-01  9.8864040004130183e-01  9.8857414642509445e-01  9.8850595213585757e-01  9.8843697400359709e-01  9.8836872123326402e-01  9.8830315166316141e-01  9.8824231625011028e-01  9.8818802404524420e-01  9.8814093009088022e-01  9.8810006271998096e-01  9.8806236222872490e-01  9.8802317123060579e-01  9.8797753829216195e-01  9.8792237571695896e-01  9.8785745347406695e-01  9.8778560484590494e-01  9.8771128483716542e-01  9.8763866715631354e-01  9.8757008761741161e-01  9.8750605780584100e-01  9.8744571798532421e-01  9.8738778701397678e-01  9.8733101825070568e-01  9.8727475217847793e-01  9.8721892446520232e-01  9.8716425890642046e-01  9.8711191806261822e-01  9.8706332285288878e-01  9.8701941141766725e-01  9.8698026493863733e-01  9.8694436084721937e-01  9.8690838905562572e-01  9.8686787258001707e-01  9.8681897307911748e-01  9.8675927374349404e-01  9.8668813610685768e-01  9.8660629117666665e-01  9.8651566642148958e-01  9.8641886202285922e-01  9.8631903061332882e-01  9.8621899425079507e-01  9.8612016212996512e-01  9.8602140348654932e-01  9.8591932720949216e-01  9.8580875650118005e-01  9.8568376323005713e-01  9.8553820399004932e-01  9.8536612164347237e-01  9.8516152124800171e-01  9.8491886404822915e-01  9.8463379043729315e-01  9.8430541775525415e-01  9.8393924586702763e-01  9.8355089604508483e-01  9.8316958900548501e-01  9.8284212521221570e-01  9.8263544255337676e-01  9.8263558691859998e-01  9.8293944646389886e-01  9.8363862174471361e-01  9.8478994909020334e-01  9.8637705580831314e-01  9.8828886604509580e-01  9.9033954962459259e-01  9.9231992059452989e-01  9.9405741908576717e-01  9.9545715502374477e-01  9.9650538051207227e-01  9.9724234849930582e-01  9.9772937601720679e-01  9.9802398154340488e-01  9.9816667489567423e-01  9.9818219560791233e-01  9.9808727203095005e-01  9.9788442884244499e-01  9.9755099741785314e-01  9.9705757156807984e-01  9.9640439923196267e-01  9.9563187846797141e-01  9.9481096909461364e-01  9.9404320105869493e-01  9.9345596291654570e-01  9.9316503898720621e-01  9.9321947194844462e-01  9.9357501364887169e-01  9.9411868875965081e-01  9.9471883589150767e-01  9.9526429543204975e-01  9.9567854303817038e-01  9.9591293953309235e-01  9.9592933276053031e-01  9.9567987556568172e-01  9.9508583752496849e-01  9.9402066522434618e-01  9.9231347760667210e-01  9.8977487904829797e-01  9.8624912590251568e-01  9.8171195020455593e-01  9.7636650690287796e-01  9.7065749205846352e-01  9.6514942762350531e-01  9.6034115216645766e-01  9.5651838167089331e-01  9.5374562537427909e-01  9.5194512368193696e-01  9.5097434618877896e-01  9.5067259800427761e-01  9.5088461013403802e-01  9.5146966957059154e-01  9.5230597145139495e-01  9.5328968039825157e-01  9.5433332677849292e-01  9.5536682225407177e-01  9.5634112669941973e-01  9.5722699962768387e-01  9.5801246959259612e-01  9.5869769935582483e-01  9.5929094427926120e-01  9.5980423040767404e-01  9.6025123083927644e-01  9.6064505138182732e-01  9.6099796475809784e-01  9.6132047042771074e-01  9.6162179881586374e-01  9.6190923050056087e-01  9.6218880853351385e-01  9.6246524355065044e-01  9.6274258622986986e-01  9.6302327426089851e-01  9.6330885247320841e-01  9.6359975248587360e-01  9.6389610581710627e-01  9.6419738592695936e-01  9.6450308167039855e-01  9.6481233871676286e-01  9.6512455873793179e-01  9.6543900015029072e-01  9.6575542751672849e-01  9.6607349022255173e-01  9.6639297025276338e-01  9.6671320538876693e-01  9.6703358514110160e-01  9.6735304697561686e-01  9.6767041243809004e-01  9.6798372058668192e-01  9.6829050281587692e-01  9.6858711369547079e-01  9.6886926777872817e-01  9.6913170061107501e-01  9.6936859886387239e-01  9.6957311871515739e-01  9.6973799715255227e-01  9.6985566270669676e-01  9.6991983937158799e-01  9.6992702183715385e-01  9.6987853668578339e-01  9.6977960587359191e-01  9.6963828872319524e-01  9.6946521489791659e-01  9.6927600193313468e-01  9.6909514300526856e-01  9.6896289822200432e-01  9.6893811917535666e-01  9.6909531530060611e-01  9.6951849156193859e-01  9.7029020544024036e-01  9.7147515460977663e-01  9.7310402048155031e-01  9.7515613958406444e-01  9.7754334704043189e-01  9.8010966590311510e-01  9.8266737414980410e-01  9.8505185750922841e-01  9.8715954752765334e-01  9.8893850936502981e-01  9.9037413406974339e-01  9.9147603561129294e-01  9.9226476339014291e-01  9.9276069355373753e-01  9.9297520283395591e-01  9.9290320006180199e-01  9.9251709367752983e-01  9.9176045476835795e-01  9.9054084967798983e-01  9.8872369762720180e-01  9.8613059769612310e-01  9.8253602359731207e-01  9.7767457011662406e-01  9.7130210176446030e-01  9.6333695353245830e-01  9.5402314778043862e-01  9.4395739050503891e-01  9.3395190954805696e-01  9.2484102353074193e-01  9.1729401572526770e-01  9.1167171421062343e-01  9.0799220237380873e-01  9.0601994237801375e-01  9.0536425159117229e-01  9.0558810165962944e-01  9.0629317317996472e-01  9.0717297626527538e-01  9.0803249033916089e-01  9.0877935999203929e-01  9.0939339587488133e-01  9.0989094319508201e-01  9.1029368870595073e-01  9.1062066834021393e-01  9.1088667865253248e-01  9.1110201646092137e-01  9.1126526046763889e-01  9.1136321205473059e-01  9.1138394270535561e-01  9.1133540409049874e-01  9.1124584310593304e-01  9.1115885367439609e-01  9.1112384555605697e-01  9.1118629730377843e-01  9.1137713008047005e-01  9.1171129516455585e-01  9.1218873599845862e-01  9.1280011975455477e-01  9.1353060063740066e-01  9.1436504370160576e-01  9.1528847498733501e-01  9.1628587195896005e-01  9.1733928845049084e-01  9.1842937643436262e-01  9.1953421065483154e-01  9.2063147439355608e-01  9.2170216848665987e-01  9.2273770491222218e-01  9.2374263603914231e-01  9.2473486665678506e-01  9.2573725115344618e-01  9.2676848094612985e-01  9.2783516806257660e-01  9.2893092923335019e-01  9.3003531610151868e-01  9.3111457723973801e-01  9.3211826348842786e-01  9.3297570680260600e-01  9.3359292368525648e-01  9.3385963623849599e-01  9.3366763456580137e-01  9.3294871106207677e-01  9.3171743775805838e-01  9.3008518293283049e-01  9.2821874933177617e-01  9.2630564706978591e-01  9.2457057077894089e-01  9.2330420791977330e-01  9.22856320059