<?xml version="1.0"?>
<VTKFile type="UnstructuredGrid"  version="0.1"  >
<UnstructuredGrid>
<Piece  NumberOfPoints="28121" NumberOfCells="55200">
<Points>
<DataArray  type="Float64"  NumberOfComponents="3"  format="ascii">0 0 0  0.008260869565217391 0 0  0.01652173913043478 0 0  0.02478260869565217 0 0  0.03304347826086956 0 0  0.04130434782608695 0 0  0.04956521739130434 0 0  0.05782608695652174 0 0  0.06608695652173913 0 0  0.07434782608695652 0 0  0.08260869565217391 0 0  0.0908695652173913 0 0  0.09913043478260869 0 0  0.1073913043478261 0 0  0.1156521739130435 0 0  0.1239130434782609 0 0  0.1321739130434783 0 0  0.1404347826086956 0 0  0.148695652173913 0 0  0.1569565217391304 0 0  0.1652173913043478 0 0  0.1734782608695652 0 0  0.1817391304347826 0 0  0.19 0 0  0.1982608695652174 0 0  0.2065217391304348 0 0  0.2147826086956522 0 0  0.2230434782608696 0 0  0.2313043478260869 0 0  0.2395652173913043 0 0  0.2478260869565218 0 0  0.2560869565217391 0 0  0.2643478260869565 0 0  0.2726086956521739 0 0  0.2808695652173913 0 0  0.2891304347826087 0 0  0.2973913043478261 0 0  0.3056521739130434 0 0  0.3139130434782609 0 0  0.3221739130434783 0 0  0.3304347826086956 0 0  0.338695652173913 0 0  0.3469565217391304 0 0  0.3552173913043478 0 0  0.3634782608695652 0 0  0.3717391304347826 0 0  0.3799999999999999 0 0  0.3882608695652174 0 0  0.3965217391304348 0 0  0.4047826086956521 0 0  0.4130434782608696 0 0  0.4213043478260869 0 0  0.4295652173913043 0 0  0.4378260869565217 0 0  0.4460869565217391 0 0  0.4543478260869565 0 0  0.4626086956521739 0 0  0.4708695652173913 0 0  0.4791304347826086 0 0  0.4873913043478261 0 0  0.4956521739130435 0 0  0.5039130434782608 0 0  0.5121739130434783 0 0  0.5204347826086956 0 0  0.528695652173913 0 0  0.5369565217391304 0 0  0.5452173913043478 0 0  0.5534782608695652 0 0  0.5617391304347825 0 0  0.57 0 0  0.5782608695652174 0 0  0.5865217391304348 0 0  0.5947826086956521 0 0  0.6030434782608696 0 0  0.6113043478260869 0 0  0.6195652173913043 0 0  0.6278260869565218 0 0  0.6360869565217391 0 0  0.6443478260869565 0 0  0.6526086956521739 0 0  0.6608695652173913 0 0  0.6691304347826087 0 0  0.677391304347826 0 0  0.6856521739130435 0 0  0.6939130434782609 0 0  0.7021739130434783 0 0  0.7104347826086956 0 0  0.718695652173913 0 0  0.7269565217391304 0 0  0.7352173913043478 0 0  0.7434782608695653 0 0  0.7517391304347827 0 0  0.7599999999999999 0 0  0.7682608695652173 0 0  0.7765217391304348 0 0  0.7847826086956522 0 0  0.7930434782608695 0 0  0.8013043478260868 0 0  0.8095652173913043 0 0  0.8178260869565217 0 0  0.8260869565217391 0 0  0.8343478260869565 0 0  0.8426086956521739 0 0  0.8508695652173912 0 0  0.8591304347826086 0 0  0.8673913043478261 0 0  0.8756521739130434 0 0  0.8839130434782608 0 0  0.8921739130434783 0 0  0.9004347826086956 0 0  0.908695652173913 0 0  0.9169565217391303 0 0  0.9252173913043478 0 0  0.9334782608695652 0 0  0.9417391304347826 0 0  0.95 0 0  0.9582608695652173 0 0  0.9665217391304347 0 0  0.9747826086956521 0 0  0.9830434782608696 0 0  0.991304347826087 0 0  0.9995652173913042 0 0  1.007826086956522 0 0  1.016086956521739 0 0  1.024347826086957 0 0  1.032608695652174 0 0  1.040869565217391 0 0  1.049130434782609 0 0  1.057391304347826 0 0  1.065652173913043 0 0  1.073913043478261 0 0  1.082173913043478 0 0  1.090434782608696 0 0  1.098695652173913 0 0  1.10695652173913 0 0  1.115217391304348 0 0  1.123478260869565 0 0  1.131739130434783 0 0  1.14 0 0  1.148260869565217 0 0  1.156521739130435 0 0  1.164782608695652 0 0  1.17304347826087 0 0  1.181304347826087 0 0  1.189565217391304 0 0  1.197826086956522 0 0  1.206086956521739 0 0  1.214347826086956 0 0  1.222608695652174 0 0  1.230869565217391 0 0  1.239130434782609 0 0  1.247391304347826 0 0  1.255652173913044 0 0  1.263913043478261 0 0  1.272173913043478 0 0  1.280434782608696 0 0  1.288695652173913 0 0  1.296956521739131 0 0  1.305217391304348 0 0  1.313478260869565 0 0  1.321739130434783 0 0  1.33 0 0  1.338260869565217 0 0  1.346521739130435 0 0  1.354782608695652 0 0  1.36304347826087 0 0  1.371304347826087 0 0  1.379565217391304 0 0  1.387826086956522 0 0  1.396086956521739 0 0  1.404347826086957 0 0  1.412608695652174 0 0  1.420869565217391 0 0  1.429130434782609 0 0  1.437391304347826 0 0  1.445652173913043 0 0  1.453913043478261 0 0  1.462173913043478 0 0  1.470434782608696 0 0  1.478695652173913 0 0  1.486956521739131 0 0  1.495217391304348 0 0  1.503478260869565 0 0  1.511739130434782 0 0  1.52 0 0  1.528260869565217 0 0  1.536521739130435 0 0  1.544782608695652 0 0  1.55304347826087 0 0  1.561304347826087 0 0  1.569565217391304 0 0  1.577826086956522 0 0  1.586086956521739 0 0  1.594347826086957 0 0  1.602608695652174 0 0  1.610869565217391 0 0  1.619130434782609 0 0  1.627391304347826 0 0  1.635652173913043 0 0  1.643913043478261 0 0  1.652173913043478 0 0  1.660434782608696 0 0  1.668695652173913 0 0  1.67695652173913 0 0  1.685217391304348 0 0  1.693478260869565 0 0  1.701739130434782 0 0  1.71 0 0  1.718260869565217 0 0  1.726521739130435 0 0  1.734782608695652 0 0  1.743043478260869 0 0  1.751304347826087 0 0  1.759565217391304 0 0  1.767826086956522 0 0  1.776086956521739 0 0  1.784347826086957 0 0  1.792608695652174 0 0  1.800869565217391 0 0  1.809130434782608 0 0  1.817391304347826 0 0  1.825652173913043 0 0  1.833913043478261 0 0  1.842173913043478 0 0  1.850434782608696 0 0  1.858695652173913 0 0  1.86695652173913 0 0  1.875217391304348 0 0  1.883478260869565 0 0  1.891739130434782 0 0  1.9 0 0  1.908260869565217 0 0  1.916521739130435 0 0  1.924782608695652 0 0  1.933043478260869 0 0  1.941304347826087 0 0  1.949565217391304 0 0  1.957826086956522 0 0  1.966086956521739 0 0  1.974347826086956 0 0  1.982608695652174 0 0  1.990869565217391 0 0  1.999130434782608 0 0  2.007391304347826 0 0  2.015652173913043 0 0  2.023913043478261 0 0  2.032173913043478 0 0  2.040434782608695 0 0  2.048695652173913 0 0  2.05695652173913 0 0  2.065217391304348 0 0  2.073478260869565 0 0  2.081739130434782 0 0  2.09 0 0  2.098260869565217 0 0  2.106521739130435 0 0  2.114782608695652 0 0  2.12304347826087 0 0  2.131304347826087 0 0  2.139565217391304 0 0  2.147826086956522 0 0  2.156086956521739 0 0  2.164347826086956 0 0  2.172608695652174 0 0  2.180869565217391 0 0  2.189130434782609 0 0  2.197391304347826 0 0  2.205652173913043 0 0  2.213913043478261 0 0  2.222173913043478 0 0  2.230434782608695 0 0  2.238695652173913 0 0  2.24695652173913 0 0  2.255217391304348 0 0  2.263478260869565 0 0  2.271739130434783 0 0  2.28 0 0  2.288260869565217 0 0  2.296521739130434 0 0  2.304782608695652 0 0  2.31304347826087 0 0  2.321304347826087 0 0  2.329565217391304 0 0  2.337826086956521 0 0  2.346086956521739 0 0  2.354347826086956 0 0  2.362608695652174 0 0  2.370869565217391 0 0  2.379130434782609 0 0  2.387391304347826 0 0  2.395652173913044 0 0  2.403913043478261 0 0  2.412173913043478 0 0  2.420434782608695 0 0  2.428695652173913 0 0  2.43695652173913 0 0  2.445217391304348 0 0  2.453478260869565 0 0  2.461739130434782 0 0  2.47 0 0  2.478260869565217 0 0  2.486521739130435 0 0  2.494782608695652 0 0  2.503043478260869 0 0  2.511304347826087 0 0  2.519565217391305 0 0  2.527826086956522 0 0  2.536086956521739 0 0  2.544347826086956 0 0  2.552608695652174 0 0  2.560869565217391 0 0  2.569130434782608 0 0  2.577391304347826 0 0  2.585652173913043 0 0  2.593913043478261 0 0  2.602173913043478 0 0  2.610434782608696 0 0  2.618695652173913 0 0  2.62695652173913 0 0  2.635217391304348 0 0  2.643478260869565 0 0  2.651739130434783 0 0  2.66 0 0  2.668260869565217 0 0  2.676521739130435 0 0  2.684782608695652 0 0  2.693043478260869 0 0  2.701304347826087 0 0  2.709565217391304 0 0  2.717826086956522 0 0  2.726086956521739 0 0  2.734347826086956 0 0  2.742608695652174 0 0  2.750869565217391 0 0  2.759130434782609 0 0  2.767391304347826 0 0  2.775652173913044 0 0  2.783913043478261 0 0  2.792173913043478 0 0  2.800434782608696 0 0  2.808695652173913 0 0  2.81695652173913 0 0  2.825217391304347 0 0  2.833478260869565 0 0  2.841739130434783 0 0  2.85 0 0  2.858260869565217 0 0  2.866521739130435 0 0  2.874782608695652 0 0  2.88304347826087 0 0  2.891304347826087 0 0  2.899565217391304 0 0  2.907826086956522 0 0  2.916086956521739 0 0  2.924347826086957 0 0  2.932608695652174 0 0  2.940869565217391 0 0  2.949130434782608 0 0  2.957391304347826 0 0  2.965652173913043 0 0  2.973913043478261 0 0  2.982173913043478 0 0  2.990434782608696 0 0  2.998695652173913 0 0  3.006956521739131 0 0  3.015217391304348 0 0  3.023478260869565 0 0  3.031739130434782 0 0  3.04 0 0  3.048260869565218 0 0  3.056521739130435 0 0  3.064782608695652 0 0  3.073043478260869 0 0  3.081304347826087 0 0  3.089565217391304 0 0  3.097826086956522 0 0  3.106086956521739 0 0  3.114347826086956 0 0  3.122608695652174 0 0  3.130869565217391 0 0  3.139130434782609 0 0  3.147391304347826 0 0  3.155652173913043 0 0  3.163913043478261 0 0  3.172173913043478 0 0  3.180434782608696 0 0  3.188695652173913 0 0  3.19695652173913 0 0  3.205217391304347 0 0  3.213478260869565 0 0  3.221739130434782 0 0  3.23 0 0  3.238260869565217 0 0  3.246521739130435 0 0  3.254782608695652 0 0  3.26304347826087 0 0  3.271304347826087 0 0  3.279565217391304 0 0  3.287826086956521 0 0  3.296086956521739 0 0  3.304347826086957 0 0  3.312608695652174 0 0  3.320869565217391 0 0  3.329130434782608 0 0  3.337391304347826 0 0  3.345652173913043 0 0  3.353913043478261 0 0  3.362173913043478 0 0  3.370434782608696 0 0  3.378695652173913 0 0  3.386956521739131 0 0  3.395217391304348 0 0  3.403478260869565 0 0  3.411739130434782 0 0  3.419999999999999 0 0  3.428260869565217 0 0  3.436521739130435 0 0  3.444782608695652 0 0  3.453043478260869 0 0  3.461304347826087 0 0  3.469565217391304 0 0  3.477826086956522 0 0  3.486086956521739 0 0  3.494347826086956 0 0  3.502608695652174 0 0  3.510869565217391 0 0  3.519130434782609 0 0  3.527391304347826 0 0  3.535652173913043 0 0  3.54391304347826
[...]
<PointData  Scalars="rho_bar"> 
<DataArray  type="Float64"  Name="rho_bar"  format="ascii">9.2578984500465478e-01  9.2519453968093035e-01  9.2444431583283138e-01  9.2339950294214634e-01  9.2202466874946776e-01  9.2031469351941253e-01  9.1827662145235012e-01  9.1592420956401566e-01  9.1327679011910667e-01  9.1035832904306102e-01  9.0719750629160334e-01  9.0382760015614305e-01  9.0028775987027587e-01  8.9662398749540617e-01  8.9289084534536922e-01  8.8915133175793371e-01  8.8547614906245065e-01  8.8194079428276706e-01  8.7862242176767724e-01  8.7559551007358394e-01  8.7292855915933210e-01  8.7068050571565958e-01  8.6889907902396668e-01  8.6761888523028063e-01  8.6686120425995605e-01  8.6663336456017759e-01  8.6692927431740452e-01  8.6772932233664080e-01  8.6900107071611665e-01  8.7069869951365642e-01  8.7276304455181397e-01  8.7512022539284573e-01  8.7768142138966287e-01  8.8034232470277507e-01  8.8298421542626027e-01  8.8547485611752486e-01  8.8766996648505658e-01  8.8941237041287302e-01  8.9053001389391706e-01  8.9083113497409627e-01  8.9010082234337518e-01  8.8810168439867632e-01  8.8459083196745669e-01  8.7936480280416018e-01  8.7231366252290876e-01  8.6347037251514192e-01  8.5309550770813614e-01  8.4172326087352523e-01  8.3010513159440702e-01  8.1901354947387595e-01  8.0904613046537577e-01  8.0059979222010536e-01  7.9392742870267818e-01  7.8913398242390154e-01  7.8614657683498645e-01  7.8472372492822673e-01  7.8453272020859577e-01  7.8518630591552485e-01  7.8628193237789257e-01  7.8751466303417450e-01  7.8871741931810146e-01  7.8981595196321752e-01  7.9078431476583577e-01  7.9161812139588417e-01  7.9232071241484203e-01  7.9289532724657830e-01  7.9334307951440097e-01  7.9366285589553309e-01  7.9385312676105657e-01  7.9391314504319954e-01  7.9384579624498874e-01  7.9365872835974360e-01  7.9336491972439638e-01  7.9298075608140650e-01  7.9252442218479757e-01  7.9201355046984345e-01  7.9146443264482313e-01  7.9089075470163261e-01  7.9030403531795357e-01  7.8971315714648427e-01  7.8912530204460629e-01  7.8854592257386391e-01  7.8797961376270509e-01  7.8743000463418078e-01  7.8690054414587607e-01  7.8639413806052239e-01  7.8591387440620286e-01  7.8546244254131747e-01  7.8504271789029967e-01  7.8465729031413556e-01  7.8430888969585921e-01  7.8399983978451382e-01  7.8373243333972298e-01  7.8350809375147534e-01  7.8332771657779032e-01  7.8319082425109665e-01  7.8309608266141961e-01  7.8304082938620745e-01  7.8302158741756878e-01  7.8303366691178033e-01  7.8307180831051448e-01  7.8312981538349902e-01  7.8320148446235238e-01  7.8328040360798634e-01  7.8336111067341641e-01  7.8343924665068587e-01  7.8351250845154796e-01  7.8358025489802241e-01  7.8364358673573598e-01  7.8370399325953910e-01  7.8376350604409606e-01  7.8382428072244814e-01  7.8388980093122396e-01  7.8396454622590339e-01  7.8405343215754308e-01  7.8415938547501940e-01  7.8428297353282783e-01  7.8442364260176356e-01  7.8458349028040364e-01  7.8476806524294895e-01  7.8498509850644738e-01  7.8524047731290725e-01  7.8553606546883259e-01  7.8586837779431618e-01  7.8622955209081014e-01  7.8660780592316204e-01  7.8698946689475702e-01  7.8736003777470243e-01  7.8770641737471347e-01  7.8801742188556667e-01  7.8828459150808672e-01  7.8850182706976701e-01  7.8866623191131890e-01  7.8877823432960814e-01  7.8884301727883710e-01  7.8887004440717334e-01  7.8887208598361380e-01  7.8886121747741533e-01  7.8884538322709241e-01  7.8882582747772878e-01  7.8879801160787111e-01  7.8875334762048877e-01  7.8868328846979208e-01  7.8858260779850653e-01  7.8845357967436958e-01  7.8830750019509788e-01  7.8816407944398015e-01  7.8804628024975731e-01  7.8797423925231280e-01  7.8795858710162836e-01  7.8799650219183281e-01  7.8806851511439857e-01  7.8813999631628262e-01  7.8816651194835607e-01  7.8810409396987735e-01  7.8791863378094940e-01  7.8759244035942211e-01  7.8712458149066455e-01  7.8652803846660979e-01  7.8582320893510860e-01  7.8503316025252967e-01  7.8418068820907694e-01  7.8328949736118458e-01  7.8238676194987600e-01  7.8150816135900281e-01  7.8070184714545254e-01  7.8003114073848745e-01  7.7957142570501248e-01  7.7940393083948112e-01  7.7960660659957093e-01  7.8024705675763040e-01  7.8137646631500512e-01  7.8302639153455811e-01  7.8520585896260431e-01  7.8789917593376713e-01  7.9105955564224784e-01  7.9460348795640134e-01  7.9840921184821279e-01  8.0232265383170187e-01  8.0616780008481448e-01  8.0976052111794894e-01  8.1292103514979808e-01  8.1548612798857412e-01  8.1731771799930264e-01  8.1831006125818917e-01  8.1839435245707559e-01  8.1754313545214508e-01  8.1577271599221080e-01  8.1314467491697362e-01  8.0976367776120517e-01  8.0577254650815233e-01  8.0134162850764545e-01  7.9665512165230246e-01  7.9189452594813503e-01  7.8722424012040959e-01  7.8277921055164668e-01  7.7865701631800388e-01  7.7491176415873630e-01  7.7155048048315156e-01  7.6852821712337838e-01  7.6574685913484419e-01  7.6305982089428703e-01  7.6028614414454110e-01  7.5723247768826929e-01  7.5372693942780711e-01  7.4964723333863548e-01  7.4492123665856502e-01  7.3952173932793863e-01  7.3347196790073788e-01  7.2686508586047216e-01  7.1987470791673824e-01  7.1274920390851948e-01  7.0578826224263147e-01  6.9930066029761118e-01  6.9355345725509876e-01  6.8872262795771544e-01  6.8485996054500886e-01  6.8187554977152309e-01  6.7958584833925340e-01  6.7781806857869586e-01  6.7643340620227932e-01  6.7532244760489757e-01  6.7439441809149259e-01  6.7357849203577724e-01  6.7283392341476167e-01  6.7214581276801078e-01  6.7151360481344502e-01  6.7094078309861138e-01  6.7043102655938935e-01  6.6998649999583215e-01  6.6960848183407351e-01  6.6929631604564699e-01  6.6904672300192602e-01  6.6885132408527304e-01  6.6869688159417018e-01  6.6856818949604913e-01  6.6845468061110169e-01  6.6835534177957956e-01  6.6828108980122614e-01  6.6825149430447139e-01  6.6829039032381421e-01  6.6841965832771710e-01  6.6865501683883510e-01  6.6900169972141288e-01  6.6945234530315711e-01  6.6998686140987096e-01  6.7057825340486144e-01  6.7119853656203787e-01  6.7182414203454677e-01  6.7243894371945123e-01  6.7303705515644929e-01  6.7362201697012847e-01  6.7420438764835999e-01  6.7479613096258462e-01  6.7540600138414764e-01  6.7603483453011937e-01  6.7667416121954460e-01  6.7730631148336595e-01  6.7790822813458818e-01  6.7845503899697401e-01  6.7892379141598580e-01  6.7929460084972759e-01  6.7955195648485833e-01  6.7968362805542026e-01  6.7968055760033841e-01  6.7953639693519763e-01  6.7924989323811280e-01  6.7882848532741435e-01  6.7829493429692267e-01  6.7769218184243085e-01  6.7708238354279848e-01  6.7653168116863072e-01  6.7609205862766719e-01  6.7579175918167389e-01  6.7563577940748920e-01  6.7560955905946352e-01  6.7568519621193790e-01  6.7582683324490045e-01  6.7599651210498923e-01  6.7615693700794488e-01  6.7627432816828148e-01  6.7631994046048483e-01  6.7627305150012307e-01  6.7612227147089698e-01  6.7586402691956959e-01  6.7549289346539787e-01  6.7499194558079723e-01  6.7432943777428234e-01  6.7346561195843979e-01  6.7236216795543335e-01  6.7098614444728788e-01  6.6930381336712430e-01  6.6727716160026795e-01  6.6486480909977042e-01  6.6202981456504906e-01  6.5875153029280742e-01  6.5504397581373819e-01  6.5097494345702922e-01  6.4667105510029266e-01  6.4228230253836205e-01  6.3793052236977221e-01  6.3368786008777767e-01  6.2957943635059210e-01  6.2559121276692586e-01  6.2168350677347950e-01  6.1781471982680669e-01  6.1396502669478514e-01  6.1013528273013229e-01  6.0633852692557466e-01  6.0260123977230751e-01  5.9896558257150945e-01  5.9547605562917127e-01  5.9216079867195526e-01  5.8902387580375537e-01  5.8604885122055894e-01  5.8320628915173234e-01  5.8046821811910099e-01  5.7782225547952071e-01  5.7527836179482317e-01  5.7286480834521059e-01  5.7062181293131564e-01  5.6859535808388006e-01  5.6682974860363311e-01  5.6535835691860503e-01  5.6420080357799718e-01  5.6335857825587610e-01  5.6279921366102570e-01  5.6243648111785849e-01  5.6213787591678632e-01  5.6176905222294271e-01  5.6124260440653417e-01  5.6053176675127137e-01  5.5966693758062858e-01  5.5872818651859013e-01  5.5783503389231015e-01  5.5711805229926747e-01  5.5668554835347062e-01  5.5660717410985505e-01  5.5691124710165030e-01  5.5758801663251090e-01  5.5859688301945076e-01  5.5987226160245851e-01  5.6132970349991895e-01  5.6287155572199443e-01  5.6439771109196069e-01  5.6581841017311618e-01  5.6706566221004606e-01  5.6809773948368181e-01  5.6890191677430602e-01  5.6949462187304700e-01  5.6991644254454132e-01  5.7021550011327082e-01  5.7042611092788442e-01  5.7053880545937052e-01  5.7047449374592285e-01  5.7010742379990020e-01  5.6932445745201310e-01  5.6804472598855693e-01  5.6622431071969681e-01  5.6385357630533184e-01  5.6095489667515419e-01  5.5759037604178452e-01  5.5388189141370980e-01  5.5004677467894270e-01  5.4642791161384174e-01  5.4341640957514581e-01  5.4115733479191297e-01  5.3939698302097949e-01  5.3773887648274421e-01  5.3574304104552184e-01  5.3297951697449641e-01  5.2915017656103136e-01  5.2410111179592844e-01  5.1757177115423125e-01  5.0938925877523700e-01  4.9978772772353947e-01  4.8932349482642679e-01  4.7824212720280385e-01  4.6629530735443664e-01  4.5287077733745645e-01  4.3716894529974265e-01  4.1845776585511341e-01  3.9633940257786343e-01  3.7090780721040228e-01  3.4281953709517587e-01  3.1327762710378226e-01  2.8375811098829906e-01  2.5536853767242185e-01  2.2872573223406600e-01  2.0409537450371373e-01  1.8153497144219477e-01  1.6099543120539556e-01  1.4238391751259005e-01  1.2559379851033703e-01  1.1051423123161973e-01  9.7031450467922317e-02  8.5028437713143792e-02  7.4385494379726566e-02  6.4982057971892632e-02  5.6699138151179738e-02  4.9421898244337140e-02  4.3041704936618269e-02  3.7457595468172393e-02  3.2577049452438792e-02  2.8316261840537399e-02  2.4599983745173158e-02  2.1361129375071886e-02  1.8540193561074447e-02  1.6084629169832280e-02  1.3948165033999793e-02  1.2090167663360801e-02  1.0475017117960837e-02  9.0715369283445486e-03  7.8524727512600100e-03  6.7940141724274795e-03  5.8753852162715236e-03  5.0784555310618229e-03  4.3874189079925957e-03  3.7884925669158208e-03  3.2696618868070706e-03  2.8204544415038474e-03  2.4317443101149003e-03  2.0955762497488297e-03  1.8050212663106992e-03  1.5540392043394021e-03  1.3373727852557010e-03  1.1504415585950245e-03  9.8926046153119873e-04  8.5036107175122139e-04  7.3072958178982080e-04  6.2774642872102926e-04  5.3913858724187230e-04  4.6293335191058938e-04  3.9742275491644129e-04  3.4112722951597148e-04  2.9276765695656861e-04  2.5123835186514215e-04  2.1558499440680644e-04  1.8498450070803514e-04  1.5872743316674593e-04  1.3620301798938588e-04  1.1688577937691258e-04  1.0032396617467733e-04  8.6129748161066887e-05  7.3970237873388343e-05  6.3559996788217660e-05  5.4654587668735989e-05  4.7044871185271850e-05  4.0552285267895983e-05  3.5024428914890383e-05  3.0331746148881774e-05  2.6364386874326812e-05  2.3029696898302333e-05  2.0249874439081917e-05  1.7960335803202056e-05  1.6108079119696518e-05  1.4650701475875283e-05  1.3555472682164390e-05  1.2799654270930616e-05  1.2372971747120103e-05  1.2290292606466896e-05  9.2312992165752017e-01  9.2281070756234707e-01  9.2210770453570789e-01  9.2104635556007786e-01  9.1962853052847615e-01  9.1785868094067613e-01  9.1574661019620784e-01  9.1330771571418545e-01  9.1056228326457689e-01  9.0753552373263890e-01  9.0425699186052633e-01  9.0076109188689779e-01  8.9708766367401960e-01  8.9328405000042765e-01  8.8940635418212610e-01  8.8552035058977496e-01  8.8169984159960535e-01  8.7802421446386225e-01  8.7457423479350827e-01  8.7142817665893035e-01  8.6865733477748419e-01  8.6632328793975566e-01  8.6447522451073600e-01  8.6314914131628995e-01  8.6236671561544420e-01  8.6213559952296914e-01  8.6244924912034060e-01  8.6328773606277032e-01  8.6461765337271912e-01  8.6639259674450886e-01  8.6855211606116955e-01  8.7102120374879288e-01  8.7370888824645654e-01  8.7650843054894467e-01  8.7929779609808845e-01  8.8194181682130535e-01  8.8429348923864803e-01  8.8619472193042315e-01  8.8747367889022966e-01  8.8794105725214001e-01  8.8738557714214839e-01  8.8557511620902452e-01  8.8227015791214802e-01  8.7726371736106723e-01  8.7043836802129115e-01  8.6181215599293282e-01  8.5161466997996227e-01  8.4034258000121576e-01  8.2871680905479428e-01  8.1749731044543072e-01  8.0729449884420568e-01  7.9851477325887066e-01  7.9142733681641464e-01  7.8616426788518867e-01  7.8268635717748536e-01  7.8078337344833437e-01  7.8014642016432201e-01  7.8041578680730961e-01  7.8120158045490928e-01  7.8218832484126799e-01  7.8319524749487412e-01  7.8413870988035295e-01  7.8498430322248036e-01  7.8572128890484516e-01  7.8634718350134458e-01  7.8686047051548802e-01  7.8725757764905802e-01  7.8753401062133510e-01  7.8768503390320765e-01  7.8770772492447227e-01  7.8760291388267079e-01  7.8737781487588898e-01  7.8704534114358815e-01  7.8662269844147858e-01  7.8612852685204471e-01  7.8558128327184706e-01  7.8499733806646155e-01  7.8439085400782571e-01  7.8377308513839306e-01  7.8315315150713338e-01  7.8253789663676143e-01  7.8193286750300073e-01  7.8134232526222891e-01  7.8077006914935665e-01  7.8021921063191790e-01  7.7969291612642588e-01  7.7919396579581923e-01  7.7872534856396780e-01  7.7828972024383591e-01  7.7788990311383654e-01  7.7752842459884675e-01  7.7720792933666016e-01  7.7693051188995088e-01  7.7669798910179089e-01  7.7651098786619943e-01  7.7636931003535503e-01  7.7627130546629552e-01  7.7621441882026676e-01  7.7619479936956948e-01  7.7620784175671753e-01  7.7624778379012405e-01  7.7630845687772210e-01  7.7638302775760615e-01  7.7646501222807862e-01  7.7654833295758918e-01  7.7662855286261534e-01  7.7670302974752603e-01  7.7677154697626738e-01  7.7683524094015732e-01  7.7689614514619965e-01  7.7695594422471681e-01  7.7701690880308572e-01  7.7708227675554487e-01  7.7715722510192309e-01  7.7724730586422419e-01  7.7735616108053451e-01  7.7748341457380288e-01  7.7762756775702302e-01  7.7778985096484288e-01  7.7797690830650301e-01  7.7819774923815377e-01  7.7845960925120461e-01  7.7876445241985370e-01  7.7910878815243201e-01  7.7948386639225775e-01  7.7987739384172250e-01  7.8027440089968469e-01  7.8065971883378460e-01  7.8101930085807914e-01  7.8134178606743709e-01  7.8161824133895541e-01  7.8184257307993088e-01  7.8201127346851518e-01  7.8212476520527863e-01  7.8218795225965021e-01  7.8221137246132799e-01  7.8220917575273241e-01  7.8219543247845380e-01  7.8217885851197211e-01  7.8216089285835577e-01  7.8213578807015760e-01  7.8209382680073158e-01  7.8202452640128162e-01  7.8192151229045748e-01  7.8178607874621808e-01  7.8163034344745363e-01  7.8147592802481292e-01  7.8134902945426787e-01  7.8127220751415982e-01  7.8125835015834166e-01  7.8130527843283848e-01  7.8139317993059687e-01  7.8148434040842063e-01  7.8152993270740834e-01  7.8148107074677997e-01  7.8130089094015620e-01  7.8097072925630362e-01  7.8049135131205527e-01  7.7987811020534992e-01  7.7915443656432504e-01  7.7834491357196922e-01  7.7747317075341282e-01  7.7656248059757005e-01  7.7563960269774346e-01  7.7473934967916325e-01  7.7391064415836097e-01  7.7321882931056618e-01  7.7274369357959849e-01  7.7257100540263857e-01  7.7278320586527993e-01  7.7345090410712547e-01  7.7462767150465550e-01  7.7634572299029103e-01  7.7861464515560175e-01  7.8141900146518761e-01  7.8471254193361029e-01  7.8840945668811602e-01  7.9238319551895908e-01  7.9647185209249460e-01  8.0049063869512993e-01  8.0424578518902989e-01  8.0754881953632440e-01  8.1022818483002312e-01  8.1213943386176179e-01  8.1317140938862364e-01  8.1325196815856460e-01  8.1235191627757408e-01  8.1048861429990293e-01  8.0772693686961161e-01  8.0417826781348423e-01  7.9999438719713345e-01  7.9535732999099995e-01  7.9046321723048441e-01  7.8550502181466419e-01  7.8065631871373609e-01  7.7605954864234838e-01  7.7181719957557893e-01  7.6798742783513385e-01  7.6457986318521143e-01  7.6155147514907140e-01  7.5880294292045281e-01  7.5618444665395834e-01  7.5350964975744816e-01  7.5057824344719160e-01  7.4720678811120511e-01  7.4325869239319919e-01  7.3864481690800332e-01  7.3332157854542968e-01  7.2729697965206497e-01  7.2065211193400247e-01  7.1355461185478553e-01  7.0625602206459615e-01  6.9906703594061070e-01  6.9231373481872582e-01  6.8628142365898881e-01  6.8116299376746892e-01  6.7702511721800507e-01  6.7379807508894729e-01  6.7130677836262498e-01  6.6937201546888814e-01  6.6784739360793433e-01  6.6661982079774862e-01  6.6559258147598399e-01  6.6468816162723476e-01  6.6386305135593071e-01  6.6310343895048363e-01  6.6240919348076710e-01  6.6178356513842840e-01  6.6122870420584212e-01  6.6074590343587969e-01  6.6033526585470870e-01  6.5999612921768436e-01  6.5972502279798095e-01  6.5951350963500033e-01  6.5934663785240788e-01  6.5920714812432757e-01  6.5908187768359761e-01  6.5896907683463712e-01  6.5887982618389052e-01  6.5883552302670645e-01  6.5886162220060529e-01  6.5898182428301799e-01  6.5921286554041303e-01  6.5956127957347133e-01  6.6001941040741030e-01  6.6056589052338099e-01  6.6117109541574903e-01  6.6180553340329817e-01  6.6244379828651190e-01  6.6306882528900934e-01  6.6367422132833653e-01  6.6426465664537893e-01  6.6485202593464621e-01  6.6545045883973386e-01  6.6606976394921369e-01  6.6671177219405786e-01  6.6736742041013064e-01  6.6801794639022527e-01  6.6863834990620785e-01  6.6920273552695952e-01  6.6968704470920015e-01  6.7007139818891825e-01  6.7034005760896509e-01  6.7048148107028538e-01  6.7048655212774544e-01  6.7034891502287752e-01  6.7006615022645699e-01  6.6964447145758665e-01  6.6910485931210750e-01  6.6849121856797256e-01  6.6787026448534992e-01  6.6731508808067064e-01  6.6688092201100535e-01  6.6659674487526632e-01  6.6646629895417919e-01  6.6647368734353496e-01  6.6658876686508861e-01  6.6677412942597991e-01  6.6699009085574179e-01  6.6719863635783472e-01  6.6736462410909980e-01  6.6745817949436814e-01  6.6745686805039084e-01  6.6734921031868610e-01  6.6713311530407360e-01  6.6680591503370090e-01  6.6635033453653014e-01  6.6573210916749259e-01  6.6490693564158709e-01  6.6383462203013144e-01  6.6248309180011933e-01  6.6082000047084255e-01  6.5880676852142250e-01  6.5640079186829614e-01  6.5356209847324420e-01  6.5026631161771564e-01  6.4652216115992944e-01  6.4239513390640701e-01  6.3801875558047527e-01  6.3355628061256153e-01  6.2913452915623369e-01  6.2482547677519662e-01  6.2065252945136473e-01  6.1660060131398642e-01  6.1262568647649618e-01  6.0868152737729486e-01  6.0474868073067034e-01  6.0083122986069315e-01  5.9694161375112265e-01  5.9310601866418577e-01  5.8936946952662539e-01  5.8578257013383672e-01  5.8237613357711626e-01  5.7915481112705414e-01  5.7610107344997696e-01  5.7318341546266915e-01  5.7037045824781096e-01  5.6764885637727325e-01  5.6502905175260720e-01  5.6254127813865029e-01  5.6022672001189122e-01  5.5813365028841355e-01  5.5630850410495192e-01  5.5478541687274263e-01  5.5358333412245142e-01  5.5270736992518676e-01  5.5213071806050396e-01  5.5176844039659856e-01  5.5147826536242772e-01  5.5111357814971618e-01  5.5058251217647936e-01  5.4985917497466963e-01  5.4897452156598403e-01  5.4800983988870433e-01  5.4708930148298995e-01  5.4635188522051115e-01  5.4591007675206682e-01  5.4583542852440348e-01  5.4615579711871831e-01  5.4686057560039047e-01  5.4790757717229743e-01  5.4923041463365341e-01  5.5074277261918969e-01  5.5234442312033893e-01  5.5393092344060646e-01  5.5540945707637668e-01  5.5671073991000219e-01  5.5779382960227242e-01  5.5864639743469779e-01  5.5928576872485691e-01  5.5975324451240138e-01  5.6009821019530281e-01  5.6035657933161731e-01  5.6052480961993156e-01  5.6052571842444954e-01  5.6022679722340241e-01  5.5951325685696285e-01  5.5830650410209914e-01  5.5656467852124958e-01  5.5428206737790719e-01  5.5148447292839220e-01  5.4823859083129090e-01  5.4466986554581587e-01  5.4099507406919356e-01  5.3755359456287266e-01  5.3473003962107246e-01  5.3270034846506531e-01  5.3122652270430715e-01  5.29914664542