<?xml version="1.0"?>
<VTKFile type="UnstructuredGrid"  version="0.1"  >
<UnstructuredGrid>
<Piece  NumberOfPoints="28121" NumberOfCells="55200">
<Points>
<DataArray  type="Float64"  NumberOfComponents="3"  format="ascii">0 0 0  0.008260869565217391 0 0  0.01652173913043478 0 0  0.02478260869565217 0 0  0.03304347826086956 0 0  0.04130434782608695 0 0  0.04956521739130434 0 0  0.05782608695652174 0 0  0.06608695652173913 0 0  0.07434782608695652 0 0  0.08260869565217391 0 0  0.0908695652173913 0 0  0.09913043478260869 0 0  0.1073913043478261 0 0  0.1156521739130435 0 0  0.1239130434782609 0 0  0.1321739130434783 0 0  0.1404347826086956 0 0  0.148695652173913 0 0  0.1569565217391304 0 0  0.1652173913043478 0 0  0.1734782608695652 0 0  0.1817391304347826 0 0  0.19 0 0  0.1982608695652174 0 0  0.2065217391304348 0 0  0.2147826086956522 0 0  0.2230434782608696 0 0  0.2313043478260869 0 0  0.2395652173913043 0 0  0.2478260869565218 0 0  0.2560869565217391 0 0  0.2643478260869565 0 0  0.2726086956521739 0 0  0.2808695652173913 0 0  0.2891304347826087 0 0  0.2973913043478261 0 0  0.3056521739130434 0 0  0.3139130434782609 0 0  0.3221739130434783 0 0  0.3304347826086956 0 0  0.338695652173913 0 0  0.3469565217391304 0 0  0.3552173913043478 0 0  0.3634782608695652 0 0  0.3717391304347826 0 0  0.3799999999999999 0 0  0.3882608695652174 0 0  0.3965217391304348 0 0  0.4047826086956521 0 0  0.4130434782608696 0 0  0.4213043478260869 0 0  0.4295652173913043 0 0  0.4378260869565217 0 0  0.4460869565217391 0 0  0.4543478260869565 0 0  0.4626086956521739 0 0  0.4708695652173913 0 0  0.4791304347826086 0 0  0.4873913043478261 0 0  0.4956521739130435 0 0  0.5039130434782608 0 0  0.5121739130434783 0 0  0.5204347826086956 0 0  0.528695652173913 0 0  0.5369565217391304 0 0  0.5452173913043478 0 0  0.5534782608695652 0 0  0.5617391304347825 0 0  0.57 0 0  0.5782608695652174 0 0  0.5865217391304348 0 0  0.5947826086956521 0 0  0.6030434782608696 0 0  0.6113043478260869 0 0  0.6195652173913043 0 0  0.6278260869565218 0 0  0.6360869565217391 0 0  0.6443478260869565 0 0  0.6526086956521739 0 0  0.6608695652173913 0 0  0.6691304347826087 0 0  0.677391304347826 0 0  0.6856521739130435 0 0  0.6939130434782609 0 0  0.7021739130434783 0 0  0.7104347826086956 0 0  0.718695652173913 0 0  0.7269565217391304 0 0  0.7352173913043478 0 0  0.7434782608695653 0 0  0.7517391304347827 0 0  0.7599999999999999 0 0  0.7682608695652173 0 0  0.7765217391304348 0 0  0.7847826086956522 0 0  0.7930434782608695 0 0  0.8013043478260868 0 0  0.8095652173913043 0 0  0.8178260869565217 0 0  0.8260869565217391 0 0  0.8343478260869565 0 0  0.8426086956521739 0 0  0.8508695652173912 0 0  0.8591304347826086 0 0  0.8673913043478261 0 0  0.8756521739130434 0 0  0.8839130434782608 0 0  0.8921739130434783 0 0  0.9004347826086956 0 0  0.908695652173913 0 0  0.9169565217391303 0 0  0.9252173913043478 0 0  0.9334782608695652 0 0  0.9417391304347826 0 0  0.95 0 0  0.9582608695652173 0 0  0.9665217391304347 0 0  0.9747826086956521 0 0  0.9830434782608696 0 0  0.991304347826087 0 0  0.9995652173913042 0 0  1.007826086956522 0 0  1.016086956521739 0 0  1.024347826086957 0 0  1.032608695652174 0 0  1.040869565217391 0 0  1.049130434782609 0 0  1.057391304347826 0 0  1.065652173913043 0 0  1.073913043478261 0 0  1.082173913043478 0 0  1.090434782608696 0 0  1.098695652173913 0 0  1.10695652173913 0 0  1.115217391304348 0 0  1.123478260869565 0 0  1.131739130434783 0 0  1.14 0 0  1.148260869565217 0 0  1.156521739130435 0 0  1.164782608695652 0 0  1.17304347826087 0 0  1.181304347826087 0 0  1.189565217391304 0 0  1.197826086956522 0 0  1.206086956521739 0 0  1.214347826086956 0 0  1.222608695652174 0 0  1.230869565217391 0 0  1.239130434782609 0 0  1.247391304347826 0 0  1.255652173913044 0 0  1.263913043478261 0 0  1.272173913043478 0 0  1.280434782608696 0 0  1.288695652173913 0 0  1.296956521739131 0 0  1.305217391304348 0 0  1.313478260869565 0 0  1.321739130434783 0 0  1.33 0 0  1.338260869565217 0 0  1.346521739130435 0 0  1.354782608695652 0 0  1.36304347826087 0 0  1.371304347826087 0 0  1.379565217391304 0 0  1.387826086956522 0 0  1.396086956521739 0 0  1.404347826086957 0 0  1.412608695652174 0 0  1.420869565217391 0 0  1.429130434782609 0 0  1.437391304347826 0 0  1.445652173913043 0 0  1.453913043478261 0 0  1.462173913043478 0 0  1.470434782608696 0 0  1.478695652173913 0 0  1.486956521739131 0 0  1.495217391304348 0 0  1.503478260869565 0 0  1.511739130434782 0 0  1.52 0 0  1.528260869565217 0 0  1.536521739130435 0 0  1.544782608695652 0 0  1.55304347826087 0 0  1.561304347826087 0 0  1.569565217391304 0 0  1.577826086956522 0 0  1.586086956521739 0 0  1.594347826086957 0 0  1.602608695652174 0 0  1.610869565217391 0 0  1.619130434782609 0 0  1.627391304347826 0 0  1.635652173913043 0 0  1.643913043478261 0 0  1.652173913043478 0 0  1.660434782608696 0 0  1.668695652173913 0 0  1.67695652173913 0 0  1.685217391304348 0 0  1.693478260869565 0 0  1.701739130434782 0 0  1.71 0 0  1.718260869565217 0 0  1.726521739130435 0 0  1.734782608695652 0 0  1.743043478260869 0 0  1.751304347826087 0 0  1.759565217391304 0 0  1.767826086956522 0 0  1.776086956521739 0 0  1.784347826086957 0 0  1.792608695652174 0 0  1.800869565217391 0 0  1.809130434782608 0 0  1.817391304347826 0 0  1.825652173913043 0 0  1.833913043478261 0 0  1.842173913043478 0 0  1.850434782608696 0 0  1.858695652173913 0 0  1.86695652173913 0 0  1.875217391304348 0 0  1.883478260869565 0 0  1.891739130434782 0 0  1.9 0 0  1.908260869565217 0 0  1.916521739130435 0 0  1.924782608695652 0 0  1.933043478260869 0 0  1.941304347826087 0 0  1.949565217391304 0 0  1.957826086956522 0 0  1.966086956521739 0 0  1.974347826086956 0 0  1.982608695652174 0 0  1.990869565217391 0 0  1.999130434782608 0 0  2.007391304347826 0 0  2.015652173913043 0 0  2.023913043478261 0 0  2.032173913043478 0 0  2.040434782608695 0 0  2.048695652173913 0 0  2.05695652173913 0 0  2.065217391304348 0 0  2.073478260869565 0 0  2.081739130434782 0 0  2.09 0 0  2.098260869565217 0 0  2.106521739130435 0 0  2.114782608695652 0 0  2.12304347826087 0 0  2.131304347826087 0 0  2.139565217391304 0 0  2.147826086956522 0 0  2.156086956521739 0 0  2.164347826086956 0 0  2.172608695652174 0 0  2.180869565217391 0 0  2.189130434782609 0 0  2.197391304347826 0 0  2.205652173913043 0 0  2.213913043478261 0 0  2.222173913043478 0 0  2.230434782608695 0 0  2.238695652173913 0 0  2.24695652173913 0 0  2.255217391304348 0 0  2.263478260869565 0 0  2.271739130434783 0 0  2.28 0 0  2.288260869565217 0 0  2.296521739130434 0 0  2.304782608695652 0 0  2.31304347826087 0 0  2.321304347826087 0 0  2.329565217391304 0 0  2.337826086956521 0 0  2.346086956521739 0 0  2.354347826086956 0 0  2.362608695652174 0 0  2.370869565217391 0 0  2.379130434782609 0 0  2.387391304347826 0 0  2.395652173913044 0 0  2.403913043478261 0 0  2.412173913043478 0 0  2.420434782608695 0 0  2.428695652173913 0 0  2.43695652173913 0 0  2.445217391304348 0 0  2.453478260869565 0 0  2.461739130434782 0 0  2.47 0 0  2.478260869565217 0 0  2.486521739130435 0 0  2.494782608695652 0 0  2.503043478260869 0 0  2.511304347826087 0 0  2.519565217391305 0 0  2.527826086956522 0 0  2.536086956521739 0 0  2.544347826086956 0 0  2.552608695652174 0 0  2.560869565217391 0 0  2.569130434782608 0 0  2.577391304347826 0 0  2.585652173913043 0 0  2.593913043478261 0 0  2.602173913043478 0 0  2.610434782608696 0 0  2.618695652173913 0 0  2.62695652173913 0 0  2.635217391304348 0 0  2.643478260869565 0 0  2.651739130434783 0 0  2.66 0 0  2.668260869565217 0 0  2.676521739130435 0 0  2.684782608695652 0 0  2.693043478260869 0 0  2.701304347826087 0 0  2.709565217391304 0 0  2.717826086956522 0 0  2.726086956521739 0 0  2.734347826086956 0 0  2.742608695652174 0 0  2.750869565217391 0 0  2.759130434782609 0 0  2.767391304347826 0 0  2.775652173913044 0 0  2.783913043478261 0 0  2.792173913043478 0 0  2.800434782608696 0 0  2.808695652173913 0 0  2.81695652173913 0 0  2.825217391304347 0 0  2.833478260869565 0 0  2.841739130434783 0 0  2.85 0 0  2.858260869565217 0 0  2.866521739130435 0 0  2.874782608695652 0 0  2.88304347826087 0 0  2.891304347826087 0 0  2.899565217391304 0 0  2.907826086956522 0 0  2.916086956521739 0 0  2.924347826086957 0 0  2.932608695652174 0 0  2.940869565217391 0 0  2.949130434782608 0 0  2.957391304347826 0 0  2.965652173913043 0 0  2.973913043478261 0 0  2.982173913043478 0 0  2.990434782608696 0 0  2.998695652173913 0 0  3.006956521739131 0 0  3.015217391304348 0 0  3.023478260869565 0 0  3.031739130434782 0 0  3.04 0 0  3.048260869565218 0 0  3.056521739130435 0 0  3.064782608695652 0 0  3.073043478260869 0 0  3.081304347826087 0 0  3.089565217391304 0 0  3.097826086956522 0 0  3.106086956521739 0 0  3.114347826086956 0 0  3.122608695652174 0 0  3.130869565217391 0 0  3.139130434782609 0 0  3.147391304347826 0 0  3.155652173913043 0 0  3.163913043478261 0 0  3.172173913043478 0 0  3.180434782608696 0 0  3.188695652173913 0 0  3.19695652173913 0 0  3.205217391304347 0 0  3.213478260869565 0 0  3.221739130434782 0 0  3.23 0 0  3.238260869565217 0 0  3.246521739130435 0 0  3.254782608695652 0 0  3.26304347826087 0 0  3.271304347826087 0 0  3.279565217391304 0 0  3.287826086956521 0 0  3.296086956521739 0 0  3.304347826086957 0 0  3.312608695652174 0 0  3.320869565217391 0 0  3.329130434782608 0 0  3.337391304347826 0 0  3.345652173913043 0 0  3.353913043478261 0 0  3.362173913043478 0 0  3.370434782608696 0 0  3.378695652173913 0 0  3.386956521739131 0 0  3.395217391304348 0 0  3.403478260869565 0 0  3.411739130434782 0 0  3.419999999999999 0 0  3.428260869565217 0 0  3.436521739130435 0 0  3.444782608695652 0 0  3.453043478260869 0 0  3.461304347826087 0 0  3.469565217391304 0 0  3.477826086956522 0 0  3.486086956521739 0 0  3.494347826086956 0 0  3.502608695652174 0 0  3.510869565217391 0 0  3.519130434782609 0 0  3.527391304347826 0 0  3.535652173913043 0 0  3.54391304347826
[...]
<PointData  Scalars="rho_bar"> 
<DataArray  type="Float64"  Name="rho_bar"  format="ascii">9.8011102880687873e-01  9.7986087283801970e-01  9.7949121833148134e-01  9.7894620374099184e-01  9.7820530382306270e-01  9.7725628561381450e-01  9.7608865108070408e-01  9.7469159073208367e-01  9.7305385446900072e-01  9.7116346378189489e-01  9.6900803214666831e-01  9.6657464167935248e-01  9.6385056461703977e-01  9.6082366877748449e-01  9.5748417733677771e-01  9.5382634161481539e-01  9.4985156628976641e-01  9.4557154096525031e-01  9.4101308928391381e-01  9.3622352110997387e-01  9.3127781892454997e-01  9.2628412027880858e-01  9.2138659228079445e-01  9.1676009298739691e-01  9.1259698641302145e-01  9.0908537724945382e-01  9.0638590672888808e-01  9.0461031167455364e-01  9.0380864439700481e-01  9.0396554329497314e-01  9.0500546284334604e-01  9.0680165080295994e-01  9.0918839679348551e-01  9.1197212909075864e-01  9.1494215115080324e-01  9.1787650093307049e-01  9.2054394432956610e-01  9.2269930439379599e-01  9.2407240977771499e-01  9.2434518423925804e-01  9.2311628436166848e-01  9.1984774675018899e-01  9.1379909027680595e-01  9.0397920775053853e-01  8.8922920444586795e-01  8.6877094693089640e-01  8.4361624830998427e-01  8.1758124422064404e-01  7.9623856674520987e-01  7.8404548505176175e-01  7.8184541197374346e-01  7.8708133734419672e-01  7.9589423964647077e-01  8.0493721649035144e-01  8.1255575676263569e-01  8.1836913856806992e-01  8.2253861136907602e-01  8.2535509958121778e-01  8.2711233849275878e-01  8.2806537046535178e-01  8.2842089898525861e-01  8.2833883443981993e-01  8.2794425278563089e-01  8.2733843257064854e-01  8.2660622331991107e-01  8.2581660532961454e-01  8.2502434604043984e-01  8.2427142455796021e-01  8.2359066634131939e-01  8.2300689769551760e-01  8.2253909478576193e-01  8.2219957661973253e-01  8.2199435116470709e-01  8.2192180720642161e-01  8.2197442081396255e-01  8.2213996330180039e-01  8.2240161121474897e-01  8.2273679041711534e-01  8.2312149643139243e-01  8.2353161865388635e-01  8.2394506379288424e-01  8.2434251128817337e-01  8.2470923105644889e-01  8.2503420871592403e-01  8.2531062859825255e-01  8.2553432488037071e-01  8.2570418579525551e-01  8.2582040213435137e-01  8.2588474644516052e-01  8.2589937379677025e-01  8.2586790018446832e-01  8.2579481815608657e-01  8.2568636158949205e-01  8.2554915110363103e-01  8.2539072567356131e-01  8.2521791815522383e-01  8.2503739756580241e-01  8.2485444816588127e-01  8.2467350072600887e-01  8.2449704875597341e-01  8.2432646067981108e-01  8.2416102088290277e-01  8.2399920096307555e-01  8.2383801939128309e-01  8.2367477071588946e-01  8.2350706004056529e-01  8.2333441381678674e-01  8.2315766038836191e-01  8.2297930821516685e-01  8.2280137166355072e-01  8.2262547885542125e-01  8.2245179502347987e-01  8.2228081475085835e-01  8.2211295365108072e-01  8.2194842470891960e-01  8.2178418061625469e-01  8.2161416891215355e-01  8.2143151294503336e-01  8.2123467648110859e-01  8.2102890844248932e-01  8.2082485879532330e-01  8.2063259789705223e-01  8.2045848283647893e-01  8.2030289397522160e-01  8.2016179518942312e-01  8.2002735032923690e-01  8.1989112557569799e-01  8.1974527822553944e-01  8.1958524492271689e-01  8.1940916347810711e-01  8.1921795172246237e-01  8.1901352681523731e-01  8.1879951801897211e-01  8.1858099965897391e-01  8.1836681020962743e-01  8.1816882463158325e-01  8.1800078172282054e-01  8.1787225787234130e-01  8.1778408557587556e-01  8.1772530432778834e-01  8.1767617350700406e-01  8.1761229396091595e-01  8.1751250120579233e-01  8.1736466921355622e-01  8.1717192183343279e-01  8.1695318597403832e-01  8.1674025916649817e-01  8.1656806249161484e-01  8.1646455547123953e-01  8.1644007812334363e-01  8.1648184016562042e-01  8.1655012853214937e-01  8.1658260235761249e-01  8.1650369280636048e-01  8.1624037730435917e-01  8.1573562410055755e-01  8.1495815603832544e-01  8.1390326475777863e-01  8.1258977185601022e-01  8.1105102518374228e-01  8.0932816546857334e-01  8.0746582517203669e-01  8.0551287599650045e-01  8.0352053931099654e-01  8.0154595342670265e-01  7.9965960645903322e-01  7.9795783251512542e-01  7.9657800160715431e-01  7.9571041640805407e-01  7.9559353489078566e-01  7.9649453435755424e-01  7.9867525834937103e-01  8.0235418083731058e-01  8.0766044591431729e-01  8.1459793085463561e-01  8.2303708851062995e-01  8.3274010185103575e-01  8.4336769068028195e-01  8.5449023155819193e-01  8.6561611803270533e-01  8.7623833591355460e-01  8.8588461948244379e-01  8.9416189018687631e-01  9.0078187648694474e-01  9.0556398026656393e-01  9.0841193330186032e-01  9.0928536365241652e-01  9.0817645906879318e-01  9.0510007815052662e-01  9.0009785512618323e-01  8.9325892215436109e-01  8.8475114043330816e-01  8.7485618990705827e-01  8.6399347708094731e-01  8.5272436482749303e-01  8.4172153879048983e-01  8.3170225325372327e-01  8.2333187083095771e-01  8.1712003341407180e-01  8.1332813767800849e-01  8.1191356827097072e-01  8.1252223184474726e-01  8.1453732117228839e-01  8.1716902204965403e-01  8.1956250275923614e-01  8.2089265447895587e-01  8.2043565246275074e-01  8.1762631775540262e-01  8.1211074170066722e-01  8.0377710940546854e-01  7.9279696894516605e-01  7.7963290796842644e-01  7.6498797166470400e-01  7.4968886792507028e-01  7.3454570156399401e-01  7.2024893439222049e-01  7.0731799070382984e-01  6.9607516852054496e-01  6.8666803407592203e-01  6.7913310527581294e-01  6.7344217501587234e-01  6.6949147740050741e-01  6.6710855644865208e-01  6.6606756277417600e-01  6.6610898651031825e-01  6.6696151372339441e-01  6.6837007031305051e-01  6.7010975207481327e-01  6.7199359865709207e-01  6.7387416644631581e-01  6.7564410641996298e-01  6.7723132447845624e-01  6.7859855963359139e-01  6.7974207263186937e-01  6.8068917217907576e-01  6.8148760549346432e-01  6.8219529216859587e-01  6.8286798788763681e-01  6.8355160742836907e-01  6.8427523695683201e-01  6.8505077814769100e-01  6.8587358965910983e-01  6.8672932030695266e-01  6.8759920613865733e-01  6.8846498234719100e-01  6.8930751741372420e-01  6.9010675283489742e-01  6.9084035762951790e-01  6.9149115681630258e-01  6.9205727627829250e-01  6.9256283057637291e-01  6.9305722146774928e-01  6.9360607010886643e-01  6.9427212547344674e-01  6.9509885191923182e-01  6.9609739189259812e-01  6.9724677142487379e-01  6.9850259303477502e-01  6.9981425645908746e-01  7.0113708458699664e-01  7.0243830049263656e-01  7.0369284089290796e-01  7.0487921216733784e-01  7.0597285325442449e-01  7.0694438369951840e-01  7.0775809912759335e-01  7.0837620005318025e-01  7.0876376007410036e-01  7.0889769375809131e-01  7.0877329709197701e-01  7.0841098490091114e-01  7.0785287428965826e-01  7.0715342132442660e-01  7.0636488231245087e-01  7.0552907163854772e-01  7.0467519056320804e-01  7.0383236531398730e-01  7.0304659452108986e-01  7.0239749804769258e-01  7.0199950719608040e-01  7.0198668995296321e-01  7.0249120598499259e-01  7.0362929199021829e-01  7.0549478156977274e-01  7.0812695788654656e-01  7.1145619583976882e-01  7.1529553565439363e-01  7.1940149619480609e-01  7.2351585734477497e-01  7.2739566748507756e-01  7.3082725014822836e-01  7.3360819827832524e-01  7.3552525017995840e-01  7.3634539516006603e-01  7.3582836260313400e-01  7.3374981100770109e-01  7.2993559313952716e-01  7.2429935888012764e-01  7.1687798484316467e-01  7.0783851480835480e-01  6.9745176641320383e-01  6.8605221924797266e-01  6.7400445344836646e-01  6.6166737642584450e-01  6.4936846027990702e-01  6.3740562957223246e-01  6.2605924805318280e-01  6.1556227754265924e-01  6.0607524568855586e-01  5.9768854027476825e-01  5.9042621309081322e-01  5.8422403206226992e-01  5.7894050302899480e-01  5.7439286728302186e-01  5.7040366563735223e-01  5.6682695410673789e-01  5.6355747212781537e-01  5.6053519508897487e-01  5.5774711608229133e-01  5.5521360258023300e-01  5.5297066568581699e-01  5.5104526006469401e-01  5.4943954095105929e-01  5.4813185015034560e-01  5.4709061683618376e-01  5.4628317070097376e-01  5.4567901175861366e-01  5.4524521708806151e-01  5.4494974527281315e-01  5.4476661423441597e-01  5.4468093132558415e-01  5.4468959949452467e-01  5.4480226514311036e-01  5.4503354041384755e-01  5.4539630917494442e-01  5.4589564320312167e-01  5.4653018888108285e-01  5.4729321962242528e-01  5.4817702022789883e-01  5.4917393910950207e-01  5.5027799800436317e-01  5.5147981346424169e-01  5.5276370473762249e-01  5.5410577517941362e-01  5.5548021754256627e-01  5.5686532853558013e-01  5.5825154796659116e-01  5.5964576905193797e-01  5.6107780807911500e-01  5.6260238391512718e-01  5.6429856719347959e-01  5.6624137221301041e-01  5.6842432989416991e-01  5.7067720382419074e-01  5.7268530908961923e-01  5.7407433519503426e-01  5.7449327537505535e-01  5.7368637441397796e-01  5.7154287730587894e-01  5.6812453775651539e-01  5.6366142262115160e-01  5.5847853334083353e-01  5.5291005691960193e-01  5.4726984539633150e-01  5.4184222272756211e-01  5.3688568284883820e-01  5.3264249998894586e-01  5.2930747258188537e-01  5.2698675825736718e-01  5.2559697831133267e-01  5.2476096243701720e-01  5.2379573725625894e-01  5.2178015343201389e-01  5.1769050200588296e-01  5.1053145199959482e-01  4.9966752178303148e-01  4.8521690527258127e-01  4.6763399674075801e-01  4.4724429111257868e-01  4.2383079639330445e-01  3.9632534667839375e-01  3.6358418899718625e-01  3.2540357716101503e-01  2.8303615667477650e-01  2.3917906210614995e-01  1.9728491151651237e-01  1.6019782057523943e-01  1.2899532234461170e-01  1.0347370821003921e-01  8.2898529670061227e-02  6.6431362321095269e-02  5.3302536266252719e-02  4.2858508751219049e-02  3.4559569556662582e-02  2.7965357976419868e-02  2.2719760612397749e-02  1.8537346268432720e-02  1.5191304598620420e-02  1.2502868699978496e-02  1.0332234494205457e-02  8.5706445815372963e-03  7.1336480191084781e-03  5.9556155750571920e-03  4.9853856823846915e-03  4.1828952886480263e-03  3.5165934687230315e-03  2.9614784964590935e-03  2.4976082066339761e-03  2.1089726415124662e-03  1.7826358080396485e-03  1.5080823466412181e-03  1.2767161537594574e-03  1.0814731567655598e-03  9.1652208725296681e-04  7.7702691955775481e-04  6.5896519044821912e-04  5.5897696965127711e-04  4.7425073917347889e-04  4.0242593193357587e-04  3.4151728631797454e-04  2.8985175521703755e-04  2.4601783797900505e-04  2.0882241956005207e-04  1.7725682972849122e-04  1.5046646822702660e-04  1.2772813615962261e-04  1.0842822739805157e-04  9.2046772631650166e-05  7.8142302951771781e-05  6.6340467387420384e-05  5.6323378165003675e-05  4.7821281297670129e-05  4.0605032226054475e-05  3.4480279415091537e-05  2.9281897617346272e-05  2.4869829183334711e-05  2.1125125894839314e-05  1.7946825752490383e-05  1.5249271263811234e-05  1.2959743390617726e-05  1.1016582878894240e-05  9.3674342420137548e-06  7.9679065195879400e-06  6.7803894350584938e-06  5.7730090700465433e-06  4.9187327923559863e-06  4.1946878612147268e-06  3.5815211501729868e-06  3.0628980516244549e-06  2.6249938785823562e-06  2.2561808102251491e-06  1.9466920467838257e-06  1.6883673231037331e-06  1.4743992780691587e-06  1.2991807301117431e-06  1.1581433841474206e-06  1.0476525459129311e-06  9.6490483486147934e-07  9.0794195091144953e-07  8.7581630534396908e-07  8.6951752441217633e-07  9.7916360107612577e-01  9.7900971757318700e-01  9.7864816084908912e-01  9.7808273156988801e-01  9.7730585140902759e-01  9.7630798106824024e-01  9.7507854870184718e-01  9.7360622011056686e-01  9.7187866169810655e-01  9.6988291181736352e-01  9.6760523592450332e-01  9.6503158440752557e-01  9.6214760902586471e-01  9.5893978038512862e-01  9.5539649369028057e-01  9.5151070559756312e-01  9.4728254268812528e-01  9.4272333450555723e-01  9.3785992205351676e-01  9.3274135852499507e-01  9.2744621569121599e-01  9.2209054197615181e-01  9.1683073935440784e-01  9.1185943583050977e-01  9.0738942571501491e-01  9.0362956180057807e-01  9.0075706123602317e-01  8.9889448929888771e-01  8.9809400656738669e-01  8.9833542516551301e-01  8.9953211823247547e-01  9.0154400943322777e-01  9.0419117616756428e-01  9.0726682378690715e-01  9.1054746090157146e-01  9.1379997116640532e-01  9.1678329970160410e-01  9.1924598421471237e-01  9.2091476002379880e-01  9.2147389399952906e-01  9.2053050993379426e-01  9.1756655893818051e-01  9.1187914975933870e-01  9.0254035447691405e-01  8.8847317525325131e-01  8.6890474715018118e-01  8.4460422750944930e-01  8.1899791283105539e-01  7.9734638366726096e-01  7.8408511684791726e-01  7.8038594697431396e-01  7.8404728807006108e-01  7.9149630647937497e-01  7.9946543630752964e-01  8.0621759561106610e-01  8.1134596153280747e-01  8.1498273902854690e-01  8.1737698343063392e-01  8.1879051228451072e-01  8.1945839049803204e-01  8.1957269154512613e-01  8.1928189133467066e-01  8.1870109304289163e-01  8.1792672589885218e-01  8.1704099000972796e-01  8.1611182907320889e-01  8.1519185201042954e-01  8.1432184217575998e-01  8.1353309591904144e-01  8.1285067190424798e-01  8.1229357453874385e-01  8.1187579399737075e-01  8.1160429847504012e-01  8.1147878478299029e-01  8.1149116200288074e-01  8.1162819703836508e-01  8.1187114601637900e-01  8.1219617682046463e-01  8.1257683288043747e-01  8.1298786839764325e-01  8.1340512346076177e-01  8.1380809746611404e-01  8.1418034230526659e-01  8.1451042021402253e-01  8.1479048726142456e-01  8.1501658797900745e-01  8.1518692264947035e-01  8.1530209975278678e-01  8.1536330893630515e-01  8.1537281344222845e-01  8.1533365414508308e-01  8.1525092844812075e-01  8.1513075863761353e-01  8.1498081280457979e-01  8.1480868170430665e-01  8.1462227389369313e-01  8.1442831931683313e-01  8.1423290408053750e-01  8.1404032459671805e-01  8.1385370944817315e-01  8.1367393694100409e-01  8.1350063863388156e-01  8.1333140133299675e-01  8.1316324599172773e-01  8.1299243468460958e-01  8.1281646608002500e-01  8.1263424178845123e-01  8.1244735387598555e-01  8.1225845517381756e-01  8.1207065365209863e-01  8.1188513502772397e-01  8.1170229083448364e-01  8.1152199730219010e-01  8.1134552469104904e-01  8.1117363913262086e-01  8.1100398731113554e-01  8.1082832723024845e-01  8.1063769739552516e-01  8.1042877452590334e-01  8.1020869196754586e-01  8.0999053059395210e-01  8.0978712050287105e-01  8.0960533172829519e-01  8.0944576332256057e-01  8.0930286666813267e-01  8.0916789658901367e-01  8.0903028453099057e-01  8.0888145549657553e-01  8.0871592352239585e-01  8.0853242250975521e-01  8.0833184730411722e-01  8.0811684785146765e-01  8.0789046505417828e-01  8.0765810773738678e-01  8.0742840422639250e-01  8.0721540171921380e-01  8.0703541098937637e-01  8.0690135840992128e-01  8.0681461112496755e-01  8.0676318518232903e-01  8.0672343829800075e-01  8.0666715417646850e-01  8.0656838077263981e-01  8.0641261238862616e-01  8.0620209114545660e-01  8.0595893496102411e-01  8.0572018281394742e-01  8.0552808996845116e-01  8.0541583791788163e-01  8.0539771323163811e-01  8.0546078794537768e-01  8.0556236232439760e-01  8.0563173014018252e-01  8.0558291156050521e-01  8.0533193178327522e-01  8.0481523218314288e-01  8.0399876727454034e-01  8.0288057763406084e-01  8.0148438989445248e-01  7.9985080969600542e-01  7.9802640742538966e-01  7.9606074610304478e-01  7.9400671337525508e-01  7.9192075306980214e-01  7.8986308059161703e-01  7.8790675992044301e-01  7.8614775012904514e-01  7.8472653145889759e-01  7.8384218453967480e-01  7.8374928718212022e-01  7.8473423900314832e-01  7.8707878992652125e-01  7.9101706909350877e-01  7.9668941344464783e-01  8.0410081697261315e-01  8.1311383128761938e-01  8.2347667100099309e-01  8.3483249679976135e-01  8.4672648357786662e-01  8.5863530435684365e-01  8.7001382372152436e-01  8.8035110626768009e-01  8.8921871310207168e-01  8.9630263527790055e-01  9.0140712443668458e-01  9.0443107087077912e-01  9.0533414684332836e-01  9.0411071795732056e-01  9.0077735419468097e-01  8.9537891333875086e-01  8.8801063677130843e-01  8.7885474424690857e-01  8.6821803291204613e-01  8.5655875352646049e-01  8.4448877536496092e-01  8.3273932359292724e-01  8.2208454570620160e-01  8.1323882360973343e-01  8.0674525028118582e-01  8.0288133447334442e-01  8.0159839404018973e-01  8.0251436293676848e-01  8.0496231886399894e-01  8.0808821994587254e-01  8.1096587144849364e-01  8.1270174403746609e-01  8.1251006052196262e-01  8.0977133369779331e-01  8.0408813461120254e-01  7.9532690760289426e-01  7.8367060602873728e-01  7.6963302445898885e-01  7.5399453223586754e-01  7.3766478870730845e-01  7.2151700116720863e-01  7.0628423212344926e-01  6.9251467733320915e-01  6.8054371089894672e-01  6.7051152844775208e-01  6.6244105395822983e-01  6.5629950282437810e-01  6.5198621461459638e-01  6.4932661137909109e-01  6.4808801950508932e-01  6.4799819166628603e-01  6.4877110474717559e-01  6.5013574624788895e-01  6.5185603477254994e-01  6.5373566783537618e-01  6.5562133493638053e-01  6.5739894513827424e-01  6.5899199822340893e-01  6.6035880766158206e-01  6.6149456555390618e-01  6.6242753511959629e-01  6.6320997697228012e-01  6.6390361762366046e-01  6.6456917679637906e-01  6.6525493615362119e-01  6.6599212776326810e-01  6.6679160274256000e-01  6.6764669879296801e-01  6.6853908077933455e-01  6.6944826901471743e-01  6.7035440104185573e-01  6.7123878529005909e-01  6.7207974849254148e-01  6.7285243464470879e-01  6.7353380683915931e-01  6.7411852859799781e-01  6.7463060011449960e-01  6.7512598853782824e-01  6.7567913992832707e-01  6.7636306698680981e-01  6.7722685671005833e-01  6.7828343808132219e-01  6.7950660399288121e-01  6.8084440954841530e-01  6.8223797669785080e-01  6.8363877172835763e-01  6.8501206869490905e-01  6.8633402476515670e-01  6.8758336560962940e-01  6.8873674597257850e-01  6.8976387863128141e-01  6.9062819669567843e-01  6.9128877530688759e-01  6.9170812480313548e-01  6.9185961670788787e-01  6.9173847805949307e-01  6.9136821225639267e-01  6.9080071569857115e-01  6.9010134090322106e-01  6.8933252881688178e-01  6.8854111600587087e-01  6.8775667289373765e-01  6.8700279788601604e-01  6.8632350298711631e-01  6.8580151537941825e-01  6.8555902009396164e-01  6.8573358374589666e-01  6.8645862938326030e-01  6.8785043024194670e-01  6.9000696078816148e-01  6.9297593090995313e-01  6.9669490508785403e-01  7.0096434873729485e-01  7.0551528429014743e-01  7.1006090223582075e-01  7.1433887416198383e-01  7.1812829946714674e-01  7.2122550551710984e-01  7.2341040945980517e-01  7.2443825104915072e-01  7.2405160991809481e-01  7.2200863700607409e-01  7.1811721878673973e-01  7.1227822438699928e-01  7.0452603675901493e-01  6.9504082836316794e-01  6.8411273977527964e-01  6.7209810159269623e-01  6.5938372987158844e-01  6.4635190197528447e-01  6.3334389060442742e-01  6.2066875578638192e-01  6.0862925036811111e-01  5.9748003943801076e-01  5.8738618426521638e-01  5.7844243689141073e-01  5.7068175648988451e-01  5.6405046214268195e-01  5.5840450601084124e-01  5.5355407838930393e-01  5.4930841505673667e-01  5.4551062892667868e-01  5.4204504504693340e-01  5.3884567096267333e-01  5.3589692426293245e-01  5.3322174269404476e-01  5.3086009275825163e-01  5.2884297375559197e-01  5.2716890716842801e-01  5.2581046991440683e-01  5.2472969603133213e-01  5.2389220210692133e-01  5.2326636609220023e-01  5.2281826521560315e-01  5.2251183904432930e-01  5.2231948602058131e-01  5.2222418626335465e-01  5.2222308938237239e-01  5.2232685965217895e-01  5.2255355833215600e-01  5.2291675406668758e-01  5.2342228930966295e-01  5.2406725905772689e-01  5.2484440551160583e-01  5.2574438121881606e-01  5.2676010120156824e-01  5.2788608006590332e-01  5.2911540339980401e-01  5.3043195182390890e-01  5.3181121562392430e-01  5.3322450145895972e-01  5.3464887029915809e-01  5.3607289310986417e-01  5.3750348772687995e-01  5.3896969434674513e-01  5.4052817819329824e-01  5.4226424582017019e-01  5.4427636152325587e-01  5.4658452446108985e-01  5.4901638334794978e-01  5.5122811378572512e-01  5.5281635538841878e-01  5.5340252433319714e-01  5.5271629905035224e-01  5.5064196413022692e-01  5.4725166751833931e-01  5.4280667598615828e-01  5.3767240806957239e-01  5.3220600492661085e-01  5.2674435340608061e-01  5.2159075713479586e-01  5.1701257648274423e-01  5.1326025874685677e-01  5.1053374668657514e-01  5.08950428952