<?xml version="1.0"?>
<VTKFile type="UnstructuredGrid"  version="0.1"  >
<UnstructuredGrid>
<Piece  NumberOfPoints="28121" NumberOfCells="55200">
<Points>
<DataArray  type="Float64"  NumberOfComponents="3"  format="ascii">0 0 0  0.008260869565217391 0 0  0.01652173913043478 0 0  0.02478260869565217 0 0  0.03304347826086956 0 0  0.04130434782608695 0 0  0.04956521739130434 0 0  0.05782608695652174 0 0  0.06608695652173913 0 0  0.07434782608695652 0 0  0.08260869565217391 0 0  0.0908695652173913 0 0  0.09913043478260869 0 0  0.1073913043478261 0 0  0.1156521739130435 0 0  0.1239130434782609 0 0  0.1321739130434783 0 0  0.1404347826086956 0 0  0.148695652173913 0 0  0.1569565217391304 0 0  0.1652173913043478 0 0  0.1734782608695652 0 0  0.1817391304347826 0 0  0.19 0 0  0.1982608695652174 0 0  0.2065217391304348 0 0  0.2147826086956522 0 0  0.2230434782608696 0 0  0.2313043478260869 0 0  0.2395652173913043 0 0  0.2478260869565218 0 0  0.2560869565217391 0 0  0.2643478260869565 0 0  0.2726086956521739 0 0  0.2808695652173913 0 0  0.2891304347826087 0 0  0.2973913043478261 0 0  0.3056521739130434 0 0  0.3139130434782609 0 0  0.3221739130434783 0 0  0.3304347826086956 0 0  0.338695652173913 0 0  0.3469565217391304 0 0  0.3552173913043478 0 0  0.3634782608695652 0 0  0.3717391304347826 0 0  0.3799999999999999 0 0  0.3882608695652174 0 0  0.3965217391304348 0 0  0.4047826086956521 0 0  0.4130434782608696 0 0  0.4213043478260869 0 0  0.4295652173913043 0 0  0.4378260869565217 0 0  0.4460869565217391 0 0  0.4543478260869565 0 0  0.4626086956521739 0 0  0.4708695652173913 0 0  0.4791304347826086 0 0  0.4873913043478261 0 0  0.4956521739130435 0 0  0.5039130434782608 0 0  0.5121739130434783 0 0  0.5204347826086956 0 0  0.528695652173913 0 0  0.5369565217391304 0 0  0.5452173913043478 0 0  0.5534782608695652 0 0  0.5617391304347825 0 0  0.57 0 0  0.5782608695652174 0 0  0.5865217391304348 0 0  0.5947826086956521 0 0  0.6030434782608696 0 0  0.6113043478260869 0 0  0.6195652173913043 0 0  0.6278260869565218 0 0  0.6360869565217391 0 0  0.6443478260869565 0 0  0.6526086956521739 0 0  0.6608695652173913 0 0  0.6691304347826087 0 0  0.677391304347826 0 0  0.6856521739130435 0 0  0.6939130434782609 0 0  0.7021739130434783 0 0  0.7104347826086956 0 0  0.718695652173913 0 0  0.7269565217391304 0 0  0.7352173913043478 0 0  0.7434782608695653 0 0  0.7517391304347827 0 0  0.7599999999999999 0 0  0.7682608695652173 0 0  0.7765217391304348 0 0  0.7847826086956522 0 0  0.7930434782608695 0 0  0.8013043478260868 0 0  0.8095652173913043 0 0  0.8178260869565217 0 0  0.8260869565217391 0 0  0.8343478260869565 0 0  0.8426086956521739 0 0  0.8508695652173912 0 0  0.8591304347826086 0 0  0.8673913043478261 0 0  0.8756521739130434 0 0  0.8839130434782608 0 0  0.8921739130434783 0 0  0.9004347826086956 0 0  0.908695652173913 0 0  0.9169565217391303 0 0  0.9252173913043478 0 0  0.9334782608695652 0 0  0.9417391304347826 0 0  0.95 0 0  0.9582608695652173 0 0  0.9665217391304347 0 0  0.9747826086956521 0 0  0.9830434782608696 0 0  0.991304347826087 0 0  0.9995652173913042 0 0  1.007826086956522 0 0  1.016086956521739 0 0  1.024347826086957 0 0  1.032608695652174 0 0  1.040869565217391 0 0  1.049130434782609 0 0  1.057391304347826 0 0  1.065652173913043 0 0  1.073913043478261 0 0  1.082173913043478 0 0  1.090434782608696 0 0  1.098695652173913 0 0  1.10695652173913 0 0  1.115217391304348 0 0  1.123478260869565 0 0  1.131739130434783 0 0  1.14 0 0  1.148260869565217 0 0  1.156521739130435 0 0  1.164782608695652 0 0  1.17304347826087 0 0  1.181304347826087 0 0  1.189565217391304 0 0  1.197826086956522 0 0  1.206086956521739 0 0  1.214347826086956 0 0  1.222608695652174 0 0  1.230869565217391 0 0  1.239130434782609 0 0  1.247391304347826 0 0  1.255652173913044 0 0  1.263913043478261 0 0  1.272173913043478 0 0  1.280434782608696 0 0  1.288695652173913 0 0  1.296956521739131 0 0  1.305217391304348 0 0  1.313478260869565 0 0  1.321739130434783 0 0  1.33 0 0  1.338260869565217 0 0  1.346521739130435 0 0  1.354782608695652 0 0  1.36304347826087 0 0  1.371304347826087 0 0  1.379565217391304 0 0  1.387826086956522 0 0  1.396086956521739 0 0  1.404347826086957 0 0  1.412608695652174 0 0  1.420869565217391 0 0  1.429130434782609 0 0  1.437391304347826 0 0  1.445652173913043 0 0  1.453913043478261 0 0  1.462173913043478 0 0  1.470434782608696 0 0  1.478695652173913 0 0  1.486956521739131 0 0  1.495217391304348 0 0  1.503478260869565 0 0  1.511739130434782 0 0  1.52 0 0  1.528260869565217 0 0  1.536521739130435 0 0  1.544782608695652 0 0  1.55304347826087 0 0  1.561304347826087 0 0  1.569565217391304 0 0  1.577826086956522 0 0  1.586086956521739 0 0  1.594347826086957 0 0  1.602608695652174 0 0  1.610869565217391 0 0  1.619130434782609 0 0  1.627391304347826 0 0  1.635652173913043 0 0  1.643913043478261 0 0  1.652173913043478 0 0  1.660434782608696 0 0  1.668695652173913 0 0  1.67695652173913 0 0  1.685217391304348 0 0  1.693478260869565 0 0  1.701739130434782 0 0  1.71 0 0  1.718260869565217 0 0  1.726521739130435 0 0  1.734782608695652 0 0  1.743043478260869 0 0  1.751304347826087 0 0  1.759565217391304 0 0  1.767826086956522 0 0  1.776086956521739 0 0  1.784347826086957 0 0  1.792608695652174 0 0  1.800869565217391 0 0  1.809130434782608 0 0  1.817391304347826 0 0  1.825652173913043 0 0  1.833913043478261 0 0  1.842173913043478 0 0  1.850434782608696 0 0  1.858695652173913 0 0  1.86695652173913 0 0  1.875217391304348 0 0  1.883478260869565 0 0  1.891739130434782 0 0  1.9 0 0  1.908260869565217 0 0  1.916521739130435 0 0  1.924782608695652 0 0  1.933043478260869 0 0  1.941304347826087 0 0  1.949565217391304 0 0  1.957826086956522 0 0  1.966086956521739 0 0  1.974347826086956 0 0  1.982608695652174 0 0  1.990869565217391 0 0  1.999130434782608 0 0  2.007391304347826 0 0  2.015652173913043 0 0  2.023913043478261 0 0  2.032173913043478 0 0  2.040434782608695 0 0  2.048695652173913 0 0  2.05695652173913 0 0  2.065217391304348 0 0  2.073478260869565 0 0  2.081739130434782 0 0  2.09 0 0  2.098260869565217 0 0  2.106521739130435 0 0  2.114782608695652 0 0  2.12304347826087 0 0  2.131304347826087 0 0  2.139565217391304 0 0  2.147826086956522 0 0  2.156086956521739 0 0  2.164347826086956 0 0  2.172608695652174 0 0  2.180869565217391 0 0  2.189130434782609 0 0  2.197391304347826 0 0  2.205652173913043 0 0  2.213913043478261 0 0  2.222173913043478 0 0  2.230434782608695 0 0  2.238695652173913 0 0  2.24695652173913 0 0  2.255217391304348 0 0  2.263478260869565 0 0  2.271739130434783 0 0  2.28 0 0  2.288260869565217 0 0  2.296521739130434 0 0  2.304782608695652 0 0  2.31304347826087 0 0  2.321304347826087 0 0  2.329565217391304 0 0  2.337826086956521 0 0  2.346086956521739 0 0  2.354347826086956 0 0  2.362608695652174 0 0  2.370869565217391 0 0  2.379130434782609 0 0  2.387391304347826 0 0  2.395652173913044 0 0  2.403913043478261 0 0  2.412173913043478 0 0  2.420434782608695 0 0  2.428695652173913 0 0  2.43695652173913 0 0  2.445217391304348 0 0  2.453478260869565 0 0  2.461739130434782 0 0  2.47 0 0  2.478260869565217 0 0  2.486521739130435 0 0  2.494782608695652 0 0  2.503043478260869 0 0  2.511304347826087 0 0  2.519565217391305 0 0  2.527826086956522 0 0  2.536086956521739 0 0  2.544347826086956 0 0  2.552608695652174 0 0  2.560869565217391 0 0  2.569130434782608 0 0  2.577391304347826 0 0  2.585652173913043 0 0  2.593913043478261 0 0  2.602173913043478 0 0  2.610434782608696 0 0  2.618695652173913 0 0  2.62695652173913 0 0  2.635217391304348 0 0  2.643478260869565 0 0  2.651739130434783 0 0  2.66 0 0  2.668260869565217 0 0  2.676521739130435 0 0  2.684782608695652 0 0  2.693043478260869 0 0  2.701304347826087 0 0  2.709565217391304 0 0  2.717826086956522 0 0  2.726086956521739 0 0  2.734347826086956 0 0  2.742608695652174 0 0  2.750869565217391 0 0  2.759130434782609 0 0  2.767391304347826 0 0  2.775652173913044 0 0  2.783913043478261 0 0  2.792173913043478 0 0  2.800434782608696 0 0  2.808695652173913 0 0  2.81695652173913 0 0  2.825217391304347 0 0  2.833478260869565 0 0  2.841739130434783 0 0  2.85 0 0  2.858260869565217 0 0  2.866521739130435 0 0  2.874782608695652 0 0  2.88304347826087 0 0  2.891304347826087 0 0  2.899565217391304 0 0  2.907826086956522 0 0  2.916086956521739 0 0  2.924347826086957 0 0  2.932608695652174 0 0  2.940869565217391 0 0  2.949130434782608 0 0  2.957391304347826 0 0  2.965652173913043 0 0  2.973913043478261 0 0  2.982173913043478 0 0  2.990434782608696 0 0  2.998695652173913 0 0  3.006956521739131 0 0  3.015217391304348 0 0  3.023478260869565 0 0  3.031739130434782 0 0  3.04 0 0  3.048260869565218 0 0  3.056521739130435 0 0  3.064782608695652 0 0  3.073043478260869 0 0  3.081304347826087 0 0  3.089565217391304 0 0  3.097826086956522 0 0  3.106086956521739 0 0  3.114347826086956 0 0  3.122608695652174 0 0  3.130869565217391 0 0  3.139130434782609 0 0  3.147391304347826 0 0  3.155652173913043 0 0  3.163913043478261 0 0  3.172173913043478 0 0  3.180434782608696 0 0  3.188695652173913 0 0  3.19695652173913 0 0  3.205217391304347 0 0  3.213478260869565 0 0  3.221739130434782 0 0  3.23 0 0  3.238260869565217 0 0  3.246521739130435 0 0  3.254782608695652 0 0  3.26304347826087 0 0  3.271304347826087 0 0  3.279565217391304 0 0  3.287826086956521 0 0  3.296086956521739 0 0  3.304347826086957 0 0  3.312608695652174 0 0  3.320869565217391 0 0  3.329130434782608 0 0  3.337391304347826 0 0  3.345652173913043 0 0  3.353913043478261 0 0  3.362173913043478 0 0  3.370434782608696 0 0  3.378695652173913 0 0  3.386956521739131 0 0  3.395217391304348 0 0  3.403478260869565 0 0  3.411739130434782 0 0  3.419999999999999 0 0  3.428260869565217 0 0  3.436521739130435 0 0  3.444782608695652 0 0  3.453043478260869 0 0  3.461304347826087 0 0  3.469565217391304 0 0  3.477826086956522 0 0  3.486086956521739 0 0  3.494347826086956 0 0  3.502608695652174 0 0  3.510869565217391 0 0  3.519130434782609 0 0  3.527391304347826 0 0  3.535652173913043 0 0  3.54391304347826
[...]
<PointData  Scalars="rho"> 
<DataArray  type="Float64"  Name="rho"  format="ascii">9.9999709942052506e-01  9.9999555256123451e-01  9.9999530872961684e-01  9.9999490849115014e-01  9.9999431952746121e-01  9.9999350005848264e-01  9.9999239796479411e-01  9.9966453002635569e-01  9.9985516431811416e-01  9.9732866414181842e-01  9.9659567176788044e-01  9.9580914625018047e-01  9.9494537452420861e-01  9.9426751695796711e-01  9.9398999720745296e-01  9.9291203047717647e-01  9.8883436220975351e-01  9.7842920191360894e-01  9.7492797888197502e-01  9.7505530171349164e-01  9.7814394470348209e-01  9.8465623701581806e-01  9.9315123119601989e-01  9.9632925243549741e-01  9.9792756280681183e-01  9.9892743219580082e-01  9.9939431299828063e-01  9.9986065965068727e-01  9.9995655313676635e-01  9.9997464211015541e-01  9.9997839201303385e-01  9.9998034186175522e-01  9.9998121506318760e-01  9.9998338362978978e-01  9.9998544281284618e-01  9.9998722708408572e-01  9.9998845992309982e-01  9.9998798739383887e-01  9.9998705013793554e-01  9.9998552568538956e-01  9.9998327957939903e-01  9.9993065822504712e-01  9.9979115483223102e-01  9.9907661314844709e-01  9.9637454984315110e-01  7.5127216318228263e-01  4.8749183998393492e-01  3.7797016218194512e-01  5.0610533644401856e-01  8.2813753637981569e-01  9.8338174046118776e-01  9.8718071140397645e-01  9.9013548548409158e-01  9.8002272671789847e-01  9.9387333659020016e-01  9.9955292316007727e-01  9.9994420944552787e-01  9.9995150885438888e-01  9.9995675230616698e-01  9.9996009539369524e-01  9.9996192820399776e-01  9.9996271471965725e-01  9.9996289537097460e-01  9.9996283814206655e-01  9.9930798031823131e-01  9.9811104821231078e-01  9.9681602539057601e-01  9.9631715745572269e-01  9.9598182669961910e-01  9.9358129980524679e-01  9.9303079254044802e-01  9.9271023557252136e-01  9.9241761264664108e-01  9.9215176052568621e-01  9.9187163732897388e-01  9.8983076910232148e-01  9.8952412628878983e-01  9.8923251642526455e-01  9.8898353437051101e-01  9.8879232480153245e-01  9.8964637171084890e-01  9.9055225884257758e-01  9.8663630600389041e-01  9.8664447050828752e-01  9.8668847176251240e-01  9.8671001716981377e-01  9.8580808601972869e-01  9.8610467108440691e-01  9.8647539545853113e-01  9.8137879689253493e-01  9.8047539176499776e-01  9.7988185390668703e-01  9.7900151242954903e-01  9.7832707200756464e-01  9.7784540078728222e-01  9.7763612964648761e-01  9.7766968359441808e-01  9.7794149925662699e-01  9.7843959554062487e-01  9.7914665594936889e-01  9.8004042631213606e-01  9.8109152448818149e-01  9.8225931155929036e-01  9.8348843364188987e-01  9.8625280452575737e-01  9.8552769795702633e-01  9.8462824783314751e-01  9.8393434784335332e-01  9.8344508551976717e-01  9.8321706561615430e-01  9.8316975954366237e-01  9.8509227223201767e-01  9.8776309125324091e-01  9.8736592291244074e-01  9.8428384260746860e-01  9.8420808052602760e-01  9.8414927048292800e-01  9.8694340063691977e-01  9.8596271946961345e-01  9.8595885427468044e-01  9.8616161494436994e-01  9.8617232150005774e-01  9.8429520359328482e-01  9.8389352759673843e-01  9.8348226418253193e-01  9.8305452333936072e-01  9.8260691917996124e-01  9.8211480960054132e-01  9.8161533230659737e-01  9.8110786182544674e-01  9.7929119903555384e-01  9.7845152581102013e-01  9.7713900639106233e-01  9.7595525783145087e-01  9.7430718561987073e-01  9.8448458008572637e-01  9.8382073157597305e-01  9.8390180036567276e-01  9.8350973249383755e-01  9.8362884044741261e-01  9.8328430734569416e-01  9.8299983160897497e-01  9.8277390841326362e-01  9.8259948366033134e-01  9.8246582626508694e-01  9.8107598581059241e-01  9.8092338526900524e-01  9.7790730467761322e-01  9.7788603578185584e-01  9.7786173863806658e-01  9.7784891894105808e-01  9.7820971451477090e-01  9.7858350799735161e-01  9.7928270776267601e-01  9.8037657932465538e-01  9.8151356968406145e-01  9.8268878338166699e-01  9.8018632427177210e-01  9.8020029056249114e-01  9.8080410156541009e-01  9.8153630403409609e-01  9.8232023185100015e-01  9.8322954673810681e-01  9.7948492368148032e-01  9.8289862123205329e-01  9.8400798259867150e-01  9.8051695947890483e-01  9.8786794775054587e-01  9.8972165064397244e-01  9.9199982324827241e-01  9.9470064825187454e-01  9.8840619631588456e-01  9.8840456053723935e-01  9.8898359147403869e-01  9.9290893594296958e-01  9.9559869840069015e-01  9.9684833100223746e-01  9.9592482802120941e-01  9.7797798376236200e-01  9.9687789517005754e-01  9.8528290430046539e-01  9.7251266371611655e-01  9.5066709577009922e-01  8.6968683241892752e-01  8.8438527943688960e-01  9.0514932606442788e-01  9.4311397212214065e-01  9.7409829800535885e-01  9.9087840997759491e-01  9.9357149108795451e-01  9.9629162242364666e-01  9.9495817660679764e-01  9.9480511196765675e-01  9.9416376223897396e-01  9.9309146972219997e-01  9.8491892204211007e-01  9.7531920736400723e-01  9.6698498384430631e-01  9.6145248580497322e-01  9.5953396336092311e-01  9.5989857168292170e-01  9.2619637061764282e-01  9.4478440200623415e-01  8.9984206463292737e-01  9.0140129177365103e-01  8.9684065440818550e-01  8.9668690664335915e-01  8.7002761787778538e-01  8.6183312026142944e-01  8.5903810108192935e-01  8.4763582091948020e-01  8.3679198409277822e-01  8.8777784065481347e-01  9.4257750246053307e-01  9.5373869834144054e-01  9.6026778006204061e-01  9.7353580141156759e-01  9.7224852610584511e-01  9.7436331800595044e-01  9.7695462042398273e-01  9.7827357535167214e-01  9.7924393178548019e-01  9.8669355306604190e-01  9.9442965698476848e-01  9.9204545083112161e-01  9.9138894450854664e-01  9.9089911839421141e-01  9.9054909261858815e-01  9.8861223904393025e-01  9.8650070841389470e-01  9.8559624748426211e-01  9.8187786810823108e-01  9.8183655307022855e-01  9.8179571613514760e-01  9.8166787499607200e-01  9.8141384001965992e-01  9.8102880396882919e-01  9.8055535697856266e-01  9.7220057861705445e-01  9.7183017275750883e-01  9.7150348015647292e-01  9.7121735433201029e-01  9.7095857490901294e-01  9.7071947654481339e-01  9.7050251898922346e-01  9.7820398251888119e-01  9.7801015005214631e-01  9.7787388015538479e-01  9.7780352107299806e-01  9.7778555946523993e-01  9.7778130229156390e-01  9.7772918341285309e-01  9.7755416724470046e-01  9.7718477515536917e-01  9.7657753490593324e-01  9.7574497830470686e-01  9.7477700803132439e-01  9.7383296667268904e-01  9.6986582667675791e-01  9.6959905839827520e-01  9.6977665869005203e-01  9.7041034059148124e-01  9.7145292323155630e-01  9.7281049510197648e-01  9.7435418175776412e-01  9.7592926992454165e-01  9.7736886481038376e-01  9.7851891977805605e-01  9.6625299245848528e-01  9.6692524603426044e-01  9.6726126370757504e-01  9.8201420690343799e-01  9.7227764577821885e-01  9.7296334701505538e-01  9.7418618903351628e-01  9.6486602576500446e-01  9.6917025490854369e-01  9.8038035395153544e-01  9.8442829413690047e-01  9.8418020897843206e-01  9.8412801438610553e-01  9.8396526946699625e-01  9.9017910591538261e-01  9.9738675201476790e-01  9.9716886435336627e-01  9.7415560963365355e-01  9.4260618254090911e-01  9.2691417521026009e-01  8.5191468649424229e-01  8.6169510529955751e-01  8.6413915736259606e-01  8.5757979656381023e-01  8.5717258140037267e-01  8.6195089138433223e-01  8.9466859790454500e-01  8.8603557374914343e-01  8.8785118708319155e-01  8.8922504165856253e-01  9.0087431930007600e-01  9.0022475283961856e-01  8.9802822822839401e-01  8.6565480052318444e-01  8.1370950766179662e-01  8.7528348939611689e-01  9.2788684967321688e-01  9.2207746858734541e-01  9.9062637291349043e-01  9.9125096676242075e-01  9.9150183458661190e-01  9.9266554502366422e-01  9.9167648397020181e-01  9.9039151407583659e-01  9.8952101076934773e-01  9.8881807549738321e-01  9.8794040867920807e-01  9.8876407838811464e-01  9.8893682721621001e-01  9.8959271212740263e-01  9.9006761644231045e-01  9.7595105930389703e-01  9.7804285676531244e-01  9.8109469076891132e-01  9.8437920604613638e-01  9.8584047795796703e-01  9.8559427320791704e-01  9.8554039896919388e-01  9.8311152550366820e-01  9.9163045201555211e-01  9.9089473844222842e-01  9.9018270605105074e-01  9.8947346913517631e-01  9.8883049069289719e-01  9.7483330439627380e-01  9.7412738235558394e-01  9.7343546046215079e-01  9.7307797783347572e-01  9.7255871547300754e-01  9.7210971549637204e-01  9.7233703818875006e-01  9.7293328106324595e-01  9.7374756043626776e-01  9.7449879265043482e-01  9.7523512660213296e-01  9.7586932339904120e-01  9.7635015614990617e-01  9.7666981502503647e-01  9.7685017455945544e-01  9.7681811519333828e-01  9.7680181106806918e-01  9.7670958647891393e-01  9.7654605055187060e-01  9.7630849282845111e-01  9.7599334281777528e-01  9.7564905071905228e-01  9.7528133855010168e-01  9.7495427701770321e-01  9.7473272531783062e-01  9.7470326057685974e-01  9.7495321041284977e-01  9.7608371825293128e-01  9.7746917340733563e-01  9.7944873299962110e-01  9.8758521808303601e-01  9.8937401494905819e-01  9.9132015101858550e-01  9.9293924025626823e-01  9.9392098329119249e-01  9.9317949398879957e-01  9.9216953541559649e-01  9.8960910928029755e-01  9.8194816065116408e-01  9.0957748047117670e-01  9.2479263545592316e-01  8.9114327454884923e-01  8.7982706442528302e-01  6.8953916133105031e-01  6.1116249852720039e-01  6.0854993623226294e-01  4.0233037331541649e-01  3.8756954084905726e-01  3.7456468246543478e-01  3.4426918688011704e-01  3.3841870007736602e-01  2.8608888276951433e-01  2.3127297804284494e-01  0.0000000000000000e+00  0.0000000000000000e+00  0.0000000000000000e+00  0.0000000000000000e+00  0.0000000000000000e+00  0.0000000000000000e+00  0.0000000000000000e+00  5.8598102696899969e-03  7.9969457126545258e-03  8.6776860762721696e-03  8.1802183782191153e-03  1.1985172628798151e-02  1.0352501747023549e-02  8.7729847035618262e-03  5.0932368238100767e-03  6.4811488707746988e-03  4.0021655037592949e-03  4.3988114630653177e-03  3.5661155518380019e-03  2.6539371549064257e-03  1.8918236048963706e-03  1.4569142956249127e-03  5.3060345306734627e-04  3.4919068312033573e-04  2.3674759608190754e-04  1.8908635047058816e-04  1.5057376990397535e-04  9.4151462945153634e-05  5.4590956907259855e-05  4.2443149796477780e-05  3.2933773540655187e-05  2.5027285822972332e-05  1.8678317947984059e-05  1.3701909269979127e-05  1.0213580514242097e-05  4.6951549416725038e-06  2.7274676783706311e-06  1.5614403550512393e-06  7.3613591695423723e-07  8.0170669263378027e-08  0.0000000000000000e+00  0.0000000000000000e+00  0.0000000000000000e+00  0.0000000000000000e+00  0.0000000000000000e+00  0.0000000000000000e+00  0.0000000000000000e+00  0.0000000000000000e+00  0.0000000000000000e+00  0.0000000000000000e+00  0.0000000000000000e+00  0.0000000000000000e+00  0.0000000000000000e+00  0.0000000000000000e+00  0.0000000000000000e+00  0.0000000000000000e+00  0.0000000000000000e+00  0.0000000000000000e+00  0.0000000000000000e+00  0.0000000000000000e+00  0.0000000000000000e+00  0.0000000000000000e+00  0.0000000000000000e+00  0.0000000000000000e+00  0.0000000000000000e+00  0.0000000000000000e+00  0.0000000000000000e+00  0.0000000000000000e+00  0.0000000000000000e+00  0.0000000000000000e+00  0.0000000000000000e+00  0.0000000000000000e+00  0.0000000000000000e+00  0.0000000000000000e+00  0.0000000000000000e+00  0.0000000000000000e+00  9.9999550680992277e-01  9.9999094714609948e-01  9.9999051293172936e-01  9.9998976859953159e-01  9.9998865358321032e-01  9.9998708522437951e-01  9.9998495839076806e-01  9.9990987976173062e-01  9.9989024535622595e-01  9.9417699718312180e-01  9.9347228289098466e-01  9.9176284850550589e-01  9.9002592041462900e-01  9.8865426855341720e-01  9.8703169255325962e-01  9.8587528145600667e-01  9.7773957101694697e-01  9.5666603367365644e-01  9.5127481554839466e-01  9.4752084112440071e-01  9.5246540205520169e-01  9.6599308919663085e-01  9.8095872157192410e-01  9.9131720606130092e-01  9.9605394969214478e-01  9.9796907599568274e-01  9.9842113395447796e-01  9.9974195583796810e-01  9.9991330369302189e-01  9.9994710098796979e-01  9.9995474571380960e-01  9.9995869034280405e-01  9.9996039710748463e-01  9.9996500563904589e-01  9.9996948690553344e-01  9.9997348924386431e-01  9.9997651471320537e-01  9.9997576780968900e-01  9.9997410880500748e-01  9.9997128535665203e-01  9.9996702026666218e-01  9.9991993805305823e-01  9.9978063841945020e-01  9.9921440288027652e-01  9.9369207554146821e-01  8.2605660247206081e-01  3.2440028187794001e-01  2.1705666239737478e-01  2.2710741989835745e-01  5.4052985448433177e-01  9.6699385672387506e-01  9.6602239541615775e-01  9.4955827477732968e-01  9.3795266422039869e-01  9.8594895198484511e-01  9.9597707350976106e-01  9.9988420144517254e-01  9.9990009125832946e-01  9.9991134123347447e-01  9.9991837015088758e-01  9.9992208494563328e-01  9.9992352545567686e-01  9.9992366042032410e-01  9.9992329006341452e-01  9.9721118304631506e-01  9.9495765615554188e-01  9.9247021521645928e-01  9.9150389341959155e-01  9.9084494516032096e-01  9.8670906061759267e-01  9.8564970525811435e-01  9.8501955522789153e-01  9.8444180671618142e-01  9.8391209996873319e-01  9.8334680985087353e-01  9.8187877880076135e-01  9.7880215967371109e-01  9.7819528536086719e-01  9.7766637966086389e-01  9.7726903292131206e-01  9.7876946700244494e-01  9.7799044108615352e-01  9.7294953810985163e-01  9.7297003946632388e-01  9.7306413737028008e-01  9.7311645412386860e-01  9.7170227687987609e-01  9.7234437834221443e-01  9.7314271846407230e-01  9.6454681668472064e-01  9.6330596301839699e-01  9.6235657201643843e-01  9.6068367934454246e-01  9.5938546182615148e-01  9.5849983884636003e-01  9.5798683692930464e-01  9.5799213893311785e-01  9.5843920136013849e-01  9.5930506009613892e-01  9.6055861477919624e-01  9.6216313807197895e-01  9.6407288004874925e-01  9.6622349035942479e-01  9.6851542764284659e-01  9.7345147905468288e-01  9.7076373799389037e-01  9.6984787104284786e-01  9.6836938064358891e-01  9.6735753148782777e-01  9.6689546786894320e-01  9.6684192418041481e-01  9.7082653045563583e-01  9.7647220156626235e-01  9.7580599084681729e-01  9.6874804918635715e-01  9.6861599917568308e-01  9.6850027665259442e-01  9.6840585396019507e-01  9.7289754682356611e-01  9.7289356027392948e-01  9.7332645795517092e-01  9.7337417059344078e-01  9.6922135384190833e-01  9.6831207751931403e-01  9.6749179229730586e-01  9.6664082215716796e-01  9.6575456099763557e-01  9.6478561399336649e-01  9.6381567051318640e-01  9.6285367242482378e-01  9.5981112484426212e-01  9.5823282066566140e-01  9.5580511876757235e-01  9.5352847562891008e-01  9.5061958155443382e-01  9.6967897854253371e-01  9.6835667295227579e-01  9.6817347917903640e-01  9.6737912871767995e-01  9.6762498921141038e-01  9.6691929960836209e-01  9.6633449017971462e-01  9.6586865224546614e-01  9.6550833817569059e-01  9.6523191712407308e-01  9.6288133668570908e-01  9.6242165820210990e-01  9.5718260848028636e-01  9.5707432424160044e-01  9.5694625286902335e-01  9.5703457574853845e-01  9.5752205654339873e-01  9.5802663644331276e-01  9.5888473155087994e-01  9.6067131211581025e-01  9.6253885040210840e-01  9.6446888063410663e-01  9.6044438722013048e-01  9.6019267700446953e-01  9.6118276905302513e-01  9.6232479586217834e-01  9.6373673788146585e-01  9.6528280370255171e-01  9.5881601242361869e-01  9.6413573017858500e-01  9.6595111520463539e-01  9.6036567719273658e-01  9.7132289097991353e-01  9.7563130773120721e-01  9.7950378568983099e-01  9.8416176396880084e-01  9.7642448621932920e-01  9.7614296593644212e-01  9.7638212229979759e-01  9.8149062086500760e-01  9.8679983852079944e-01  9.8979635418523948e-01  9.8903585667916394e-01  9.4047760009283021e-01  9.9567816667074793e-01  9.7028701947306117e-01  9.4474397983184655e-01  8.5723507802950827e-01  7.4947409719919922e-01  7.7732806538122634e-01  8.1423426221876738e-01  8.9572147269579194e-01  9.4979416884193935e-01  9.8189791323437348e-01  9.8728607007583224e-01  9.9269761938468515e-01  9.9146588513320033e-01  9.9141759441442212e-01  9.9049259527743116e-01  9.8876317962386551e-01  9.7559109246191333e-01  9.5652842909722835e-01  9.3981057702707105e-01  9.2919573551480361e-01  9.2586014499965053e-01  8.4546621174657277e-01  8.5686214711014497e-01  8.9129672524415982e-01  8.5811341671385333e-01  8.6896185208968235e-01  8.7170925927088683e-01  8.8015216947767105e-01  8.3568463374028912e-01  8.3488137719717515e-01  8.0736810542673776e-01  7.7747030790080907e-01  7.2731334075299692e-01  7.6716665718339783e-01  8.9975500443529866e-01  9.3805597004296692e-01  9.1289673315570952e-01  9.1905304534453647e-01  9.4722316340122281e-01  9.4946839875036526e-01  9.5255219302623506e-01  9.5680346858253407e-01  9.5819886181637526e-01  9.6508191527103016e-01  9.8905699135916292e-01  9.8521625527163093e-01  9.8402457447687519e-01  9.8306330869207503e-01  9.7673334366307452e-01  9.7018151614046089e-01  9.6681642628556064e-01  9.6526893402905012e-01  9.5955231803834984e-01  9.5971358824813235e-01  9.5982249827193622e-01  9.5974874404222044e-01  9.5942546657910521e-01  9.5882641082099740e-01  9.4510447106979556e-01  9.4440469808147498e-01  9.4376085127298115e-01  9.4322569462934458e-01  9.4278684798124246e-01  9.4240744538714227e-01  9.4206467731024413e-01  9.4175845238745914e-01  9.4150568858261374e-01  9.4133066392293285e-01  9.5434293993119990e-01  9.5432844508210080e-01  9.5441956967242891e-01  9.5455059800141784e-01  9.5460783572939523e-01  9.5444361982643255e-01  9.5390599864594849e-01  9.5288487441402336e-01  9.4090672499903194e-01  9.4019909532551105e-01  9.3950787828068993e-01  9.3618928034704352e-01  9.3965541589957835e-01  9.3985680940512584e-01  9.4095950991048649e-01  9.4288218594865059e-01  9.4545207518611085e-01  9.4842945931886224e-01  9.5152043886393267e-01  9.5439475268500784e-01  9.5673349884507408e-01  9.3728268735549791e-01  9.3790224443649084e-01  9.3850340980146685e-01  9.6294022929279777e-01  9.4496104612582266e-01  9.4584928602988938e-01  9.4753337133902149e-01  9.3191547714138667e-01  9.3159425941576290e-01  9.6150836663588524e-01  9.6931378444628069e-01  9.6890617339628582e-01  9.6885212380915942e-01  9.6857532244325506e-01  9.7910428124580950e-01  9.9475437311972770e-01  9.9432632839328938e-01  9.4791500229754366e-01  8.9951274259583092e-01  8.7434691139382081e-01  7.8805596885082296e-01  8.0162052859376387e-01  8.1118140749524359e-01  8.0056345018790465e-01  8.0492610377105989e-01  8.1234841300066662e-01  8.5597254405832335e-01  8.6101230022675013e-01  8.6356424306558222e-01  8.6435190104175785e-01  8.6350065053717517e-01  8.7357529435929904e-01  8.6592378002431314e-01  7.9155291973468167e-01  6.9290389111206918e-01  7.3210269715140586e-01  8.5980781199989809e-01  8.3975419469503776e-01  8.9998043269006178e-01  9.8180953760937495e-01  9.8248471537851556e-01  9.6758873245868637e-01  9.8316650308764253e-01  9.8116265412157588e-01  9.7965285578798300e-01  9.7796048049060158e-01  9.7670140126696170e-01  9.7802593679360950e-01  9.7804853150588322e-01  9.7870059424501532e-01  9.6362466499685773e-01  9.4061738590243715e-01  9.4368324606492215e-01  9.4957444934183266e-01  9.5586205826149129e-01  9.6154121592901487e-01  9.6517032881369835e-01  9.6831589275689556e-01  9.6780096867916710e-01  9.8313668490613393e-01  9.8161239125640853e-01  9.7952040431058640e-01  9.7770027468850018e-01  9.7596060620651659e-01  9.4786229113659204e-01  9.4679632161142158e-01  9.4583717909174880e-01  9.4513839763488439e-01  9.4471508117939695e-01  9.4391673617670013e-01  9.4316287372331975e-01  9.4740432681258679e-01  9.4885226690554458e-01  9.5045806613676509e-01  9.5203398060580713e-01  9.5337431389166072e-01  9.5436728358336520e-01  9.5500901932480564e-01  9.5295258391505966e-01  9.5322146241537076e-01  9.5549475189633815e-01  9.5517354615616978e-01  9.5492743610252506e-01  9.5455999125470448e-01  9.5406769855810325e-01  9.5352774183444755e-01  9.5293351767896406e-01  9.5239471404481801e-01  9.5202726571516760e-01  9.5198292740171397e-01  9.5242086691934991e-01  9.5394362614701955e-01  9.5631285555380741e-01  9.5965168402675038e-01  9.7341500841543582e-01  9.7650002783577194e-01  9.8017096312957697e-01  9.8223460009005459e-01  9.8430690557071276e-01  9.8443467878719715e-01  9.8108291023752825e-0