<?xml version="1.0"?>
<VTKFile type="UnstructuredGrid"  version="0.1"  >
<UnstructuredGrid>
<Piece  NumberOfPoints="28121" NumberOfCells="55200">
<Points>
<DataArray  type="Float64"  NumberOfComponents="3"  format="ascii">0 0 0  0.008260869565217391 0 0  0.01652173913043478 0 0  0.02478260869565217 0 0  0.03304347826086956 0 0  0.04130434782608695 0 0  0.04956521739130434 0 0  0.05782608695652174 0 0  0.06608695652173913 0 0  0.07434782608695652 0 0  0.08260869565217391 0 0  0.0908695652173913 0 0  0.09913043478260869 0 0  0.1073913043478261 0 0  0.1156521739130435 0 0  0.1239130434782609 0 0  0.1321739130434783 0 0  0.1404347826086956 0 0  0.148695652173913 0 0  0.1569565217391304 0 0  0.1652173913043478 0 0  0.1734782608695652 0 0  0.1817391304347826 0 0  0.19 0 0  0.1982608695652174 0 0  0.2065217391304348 0 0  0.2147826086956522 0 0  0.2230434782608696 0 0  0.2313043478260869 0 0  0.2395652173913043 0 0  0.2478260869565218 0 0  0.2560869565217391 0 0  0.2643478260869565 0 0  0.2726086956521739 0 0  0.2808695652173913 0 0  0.2891304347826087 0 0  0.2973913043478261 0 0  0.3056521739130434 0 0  0.3139130434782609 0 0  0.3221739130434783 0 0  0.3304347826086956 0 0  0.338695652173913 0 0  0.3469565217391304 0 0  0.3552173913043478 0 0  0.3634782608695652 0 0  0.3717391304347826 0 0  0.3799999999999999 0 0  0.3882608695652174 0 0  0.3965217391304348 0 0  0.4047826086956521 0 0  0.4130434782608696 0 0  0.4213043478260869 0 0  0.4295652173913043 0 0  0.4378260869565217 0 0  0.4460869565217391 0 0  0.4543478260869565 0 0  0.4626086956521739 0 0  0.4708695652173913 0 0  0.4791304347826086 0 0  0.4873913043478261 0 0  0.4956521739130435 0 0  0.5039130434782608 0 0  0.5121739130434783 0 0  0.5204347826086956 0 0  0.528695652173913 0 0  0.5369565217391304 0 0  0.5452173913043478 0 0  0.5534782608695652 0 0  0.5617391304347825 0 0  0.57 0 0  0.5782608695652174 0 0  0.5865217391304348 0 0  0.5947826086956521 0 0  0.6030434782608696 0 0  0.6113043478260869 0 0  0.6195652173913043 0 0  0.6278260869565218 0 0  0.6360869565217391 0 0  0.6443478260869565 0 0  0.6526086956521739 0 0  0.6608695652173913 0 0  0.6691304347826087 0 0  0.677391304347826 0 0  0.6856521739130435 0 0  0.6939130434782609 0 0  0.7021739130434783 0 0  0.7104347826086956 0 0  0.718695652173913 0 0  0.7269565217391304 0 0  0.7352173913043478 0 0  0.7434782608695653 0 0  0.7517391304347827 0 0  0.7599999999999999 0 0  0.7682608695652173 0 0  0.7765217391304348 0 0  0.7847826086956522 0 0  0.7930434782608695 0 0  0.8013043478260868 0 0  0.8095652173913043 0 0  0.8178260869565217 0 0  0.8260869565217391 0 0  0.8343478260869565 0 0  0.8426086956521739 0 0  0.8508695652173912 0 0  0.8591304347826086 0 0  0.8673913043478261 0 0  0.8756521739130434 0 0  0.8839130434782608 0 0  0.8921739130434783 0 0  0.9004347826086956 0 0  0.908695652173913 0 0  0.9169565217391303 0 0  0.9252173913043478 0 0  0.9334782608695652 0 0  0.9417391304347826 0 0  0.95 0 0  0.9582608695652173 0 0  0.9665217391304347 0 0  0.9747826086956521 0 0  0.9830434782608696 0 0  0.991304347826087 0 0  0.9995652173913042 0 0  1.007826086956522 0 0  1.016086956521739 0 0  1.024347826086957 0 0  1.032608695652174 0 0  1.040869565217391 0 0  1.049130434782609 0 0  1.057391304347826 0 0  1.065652173913043 0 0  1.073913043478261 0 0  1.082173913043478 0 0  1.090434782608696 0 0  1.098695652173913 0 0  1.10695652173913 0 0  1.115217391304348 0 0  1.123478260869565 0 0  1.131739130434783 0 0  1.14 0 0  1.148260869565217 0 0  1.156521739130435 0 0  1.164782608695652 0 0  1.17304347826087 0 0  1.181304347826087 0 0  1.189565217391304 0 0  1.197826086956522 0 0  1.206086956521739 0 0  1.214347826086956 0 0  1.222608695652174 0 0  1.230869565217391 0 0  1.239130434782609 0 0  1.247391304347826 0 0  1.255652173913044 0 0  1.263913043478261 0 0  1.272173913043478 0 0  1.280434782608696 0 0  1.288695652173913 0 0  1.296956521739131 0 0  1.305217391304348 0 0  1.313478260869565 0 0  1.321739130434783 0 0  1.33 0 0  1.338260869565217 0 0  1.346521739130435 0 0  1.354782608695652 0 0  1.36304347826087 0 0  1.371304347826087 0 0  1.379565217391304 0 0  1.387826086956522 0 0  1.396086956521739 0 0  1.404347826086957 0 0  1.412608695652174 0 0  1.420869565217391 0 0  1.429130434782609 0 0  1.437391304347826 0 0  1.445652173913043 0 0  1.453913043478261 0 0  1.462173913043478 0 0  1.470434782608696 0 0  1.478695652173913 0 0  1.486956521739131 0 0  1.495217391304348 0 0  1.503478260869565 0 0  1.511739130434782 0 0  1.52 0 0  1.528260869565217 0 0  1.536521739130435 0 0  1.544782608695652 0 0  1.55304347826087 0 0  1.561304347826087 0 0  1.569565217391304 0 0  1.577826086956522 0 0  1.586086956521739 0 0  1.594347826086957 0 0  1.602608695652174 0 0  1.610869565217391 0 0  1.619130434782609 0 0  1.627391304347826 0 0  1.635652173913043 0 0  1.643913043478261 0 0  1.652173913043478 0 0  1.660434782608696 0 0  1.668695652173913 0 0  1.67695652173913 0 0  1.685217391304348 0 0  1.693478260869565 0 0  1.701739130434782 0 0  1.71 0 0  1.718260869565217 0 0  1.726521739130435 0 0  1.734782608695652 0 0  1.743043478260869 0 0  1.751304347826087 0 0  1.759565217391304 0 0  1.767826086956522 0 0  1.776086956521739 0 0  1.784347826086957 0 0  1.792608695652174 0 0  1.800869565217391 0 0  1.809130434782608 0 0  1.817391304347826 0 0  1.825652173913043 0 0  1.833913043478261 0 0  1.842173913043478 0 0  1.850434782608696 0 0  1.858695652173913 0 0  1.86695652173913 0 0  1.875217391304348 0 0  1.883478260869565 0 0  1.891739130434782 0 0  1.9 0 0  1.908260869565217 0 0  1.916521739130435 0 0  1.924782608695652 0 0  1.933043478260869 0 0  1.941304347826087 0 0  1.949565217391304 0 0  1.957826086956522 0 0  1.966086956521739 0 0  1.974347826086956 0 0  1.982608695652174 0 0  1.990869565217391 0 0  1.999130434782608 0 0  2.007391304347826 0 0  2.015652173913043 0 0  2.023913043478261 0 0  2.032173913043478 0 0  2.040434782608695 0 0  2.048695652173913 0 0  2.05695652173913 0 0  2.065217391304348 0 0  2.073478260869565 0 0  2.081739130434782 0 0  2.09 0 0  2.098260869565217 0 0  2.106521739130435 0 0  2.114782608695652 0 0  2.12304347826087 0 0  2.131304347826087 0 0  2.139565217391304 0 0  2.147826086956522 0 0  2.156086956521739 0 0  2.164347826086956 0 0  2.172608695652174 0 0  2.180869565217391 0 0  2.189130434782609 0 0  2.197391304347826 0 0  2.205652173913043 0 0  2.213913043478261 0 0  2.222173913043478 0 0  2.230434782608695 0 0  2.238695652173913 0 0  2.24695652173913 0 0  2.255217391304348 0 0  2.263478260869565 0 0  2.271739130434783 0 0  2.28 0 0  2.288260869565217 0 0  2.296521739130434 0 0  2.304782608695652 0 0  2.31304347826087 0 0  2.321304347826087 0 0  2.329565217391304 0 0  2.337826086956521 0 0  2.346086956521739 0 0  2.354347826086956 0 0  2.362608695652174 0 0  2.370869565217391 0 0  2.379130434782609 0 0  2.387391304347826 0 0  2.395652173913044 0 0  2.403913043478261 0 0  2.412173913043478 0 0  2.420434782608695 0 0  2.428695652173913 0 0  2.43695652173913 0 0  2.445217391304348 0 0  2.453478260869565 0 0  2.461739130434782 0 0  2.47 0 0  2.478260869565217 0 0  2.486521739130435 0 0  2.494782608695652 0 0  2.503043478260869 0 0  2.511304347826087 0 0  2.519565217391305 0 0  2.527826086956522 0 0  2.536086956521739 0 0  2.544347826086956 0 0  2.552608695652174 0 0  2.560869565217391 0 0  2.569130434782608 0 0  2.577391304347826 0 0  2.585652173913043 0 0  2.593913043478261 0 0  2.602173913043478 0 0  2.610434782608696 0 0  2.618695652173913 0 0  2.62695652173913 0 0  2.635217391304348 0 0  2.643478260869565 0 0  2.651739130434783 0 0  2.66 0 0  2.668260869565217 0 0  2.676521739130435 0 0  2.684782608695652 0 0  2.693043478260869 0 0  2.701304347826087 0 0  2.709565217391304 0 0  2.717826086956522 0 0  2.726086956521739 0 0  2.734347826086956 0 0  2.742608695652174 0 0  2.750869565217391 0 0  2.759130434782609 0 0  2.767391304347826 0 0  2.775652173913044 0 0  2.783913043478261 0 0  2.792173913043478 0 0  2.800434782608696 0 0  2.808695652173913 0 0  2.81695652173913 0 0  2.825217391304347 0 0  2.833478260869565 0 0  2.841739130434783 0 0  2.85 0 0  2.858260869565217 0 0  2.866521739130435 0 0  2.874782608695652 0 0  2.88304347826087 0 0  2.891304347826087 0 0  2.899565217391304 0 0  2.907826086956522 0 0  2.916086956521739 0 0  2.924347826086957 0 0  2.932608695652174 0 0  2.940869565217391 0 0  2.949130434782608 0 0  2.957391304347826 0 0  2.965652173913043 0 0  2.973913043478261 0 0  2.982173913043478 0 0  2.990434782608696 0 0  2.998695652173913 0 0  3.006956521739131 0 0  3.015217391304348 0 0  3.023478260869565 0 0  3.031739130434782 0 0  3.04 0 0  3.048260869565218 0 0  3.056521739130435 0 0  3.064782608695652 0 0  3.073043478260869 0 0  3.081304347826087 0 0  3.089565217391304 0 0  3.097826086956522 0 0  3.106086956521739 0 0  3.114347826086956 0 0  3.122608695652174 0 0  3.130869565217391 0 0  3.139130434782609 0 0  3.147391304347826 0 0  3.155652173913043 0 0  3.163913043478261 0 0  3.172173913043478 0 0  3.180434782608696 0 0  3.188695652173913 0 0  3.19695652173913 0 0  3.205217391304347 0 0  3.213478260869565 0 0  3.221739130434782 0 0  3.23 0 0  3.238260869565217 0 0  3.246521739130435 0 0  3.254782608695652 0 0  3.26304347826087 0 0  3.271304347826087 0 0  3.279565217391304 0 0  3.287826086956521 0 0  3.296086956521739 0 0  3.304347826086957 0 0  3.312608695652174 0 0  3.320869565217391 0 0  3.329130434782608 0 0  3.337391304347826 0 0  3.345652173913043 0 0  3.353913043478261 0 0  3.362173913043478 0 0  3.370434782608696 0 0  3.378695652173913 0 0  3.386956521739131 0 0  3.395217391304348 0 0  3.403478260869565 0 0  3.411739130434782 0 0  3.419999999999999 0 0  3.428260869565217 0 0  3.436521739130435 0 0  3.444782608695652 0 0  3.453043478260869 0 0  3.461304347826087 0 0  3.469565217391304 0 0  3.477826086956522 0 0  3.486086956521739 0 0  3.494347826086956 0 0  3.502608695652174 0 0  3.510869565217391 0 0  3.519130434782609 0 0  3.527391304347826 0 0  3.535652173913043 0 0  3.54391304347826
[...]
<PointData  Scalars="rho_bar"> 
<DataArray  type="Float64"  Name="rho_bar"  format="ascii">8.2540924678413041e-01  8.2453265018214073e-01  8.2369227676792578e-01  8.2264211782262364e-01  8.2131663005333388e-01  8.1970204946030478e-01  8.1780499866425793e-01  8.1564314165927232e-01  8.1324224352214713e-01  8.1063435597030997e-01  8.0785687339058543e-01  8.0495154287504500e-01  8.0196377213296832e-01  7.9894168235575980e-01  7.9593533185136567e-01  7.9299523986245501e-01  7.9017122596001255e-01  7.8751076210055404e-01  7.8505782455124562e-01  7.8285156084020180e-01  7.8092571866806737e-01  7.7930778248221755e-01  7.7801908155525457e-01  7.7707440921232906e-01  7.7648252092249770e-01  7.7624625086500909e-01  7.7636312674300745e-01  7.7682557039298694e-01  7.7762147943218352e-01  7.7873413058192242e-01  7.8014261760720638e-01  7.8182142667664722e-01  7.8374065713292251e-01  7.8586569947286444e-01  7.8815742951624812e-01  7.9057203099706008e-01  7.9306131636665844e-01  7.9557242661631489e-01  7.9804819819833350e-01  8.0042681056540310e-01  8.0264227868185600e-01  8.0462470642754602e-01  8.0630145299496836e-01  8.0759856367018223e-01  8.0844358597655575e-01  8.0876895157277928e-01  8.0851720832381169e-01  8.0764644087112314e-01  8.0613659326286580e-01  8.0399437007824615e-01  8.0125624685183050e-01  7.9798755500628937e-01  7.9427854673901133e-01  7.9023618829147457e-01  7.8596997123059520e-01  7.8158008640349752e-01  7.7715192732004756e-01  7.7275584337433278e-01  7.6845362471393230e-01  7.6429907624323667e-01  7.6033604718612557e-01  7.5659836292075022e-01  7.5311307848131637e-01  7.4990212640652931e-01  7.4698142464476791e-01  7.4435777700164252e-01  7.4202685952345027e-01  7.3997201228037690e-01  7.3816479877496965e-01  7.3656784976877399e-01  7.3514194379844067e-01  7.3385307561363500e-01  7.3267684211959228e-01  7.3159864789113604e-01  7.3061223897308891e-01  7.2971725170350665e-01  7.2891745178499490e-01  7.2821860685856177e-01  7.2762689389270963e-01  7.2714639401790426e-01  7.2677761056300583e-01  7.2651625809830911e-01  7.2635359783441689e-01  7.2627741038968952e-01  7.2627381105321009e-01  7.2632822540868014e-01  7.2642636540426098e-01  7.2655404115051914e-01  7.2669734293154997e-01  7.2684225987272655e-01  7.2697471874589925e-01  7.2708026229492106e-01  7.2714426813114996e-01  7.2715168639693917e-01  7.2708760627318758e-01  7.2693722647894554e-01  7.2668664841828590e-01  7.2632318230345871e-01  7.2583609717202047e-01  7.2521692720834874e-01  7.2446015748791304e-01  7.2356333353193547e-01  7.2252772081485939e-01  7.2135819811167701e-01  7.2006370192195390e-01  7.1865708408910045e-01  7.1715526451210210e-01  7.1557880770226379e-01  7.1395176030313467e-01  7.1230071630206271e-01  7.1065442656711353e-01  7.0904261394298773e-01  7.0749547365415455e-01  7.0604257088270472e-01  7.0471201090622404e-01  7.0352905309302105e-01  7.0251532240004633e-01  7.0168807224909824e-01  7.0106067623477131e-01  7.0064281747323431e-01  7.0044127039307358e-01  7.0045986981442776e-01  7.0069953014088959e-01  7.0115757666998435e-01  7.0182735813346508e-01  7.0269718953582261e-01  7.0374998344731710e-01  7.0496228879411704e-01  7.0630428241715104e-01  7.0773955863968085e-01  7.0922573214018003e-01  7.1071498353856399e-01  7.1215538432354830e-01  7.1349208273583964e-01  7.1466959239599825e-01  7.1563402173346524e-01  7.1633664531179575e-01  7.1673762565313381e-01  7.1681033335402633e-01  7.1654398856672707e-01  7.1594288622518354e-01  7.1502004777415917e-01  7.1379025074392666e-01  7.1226584093321188e-01  7.1045730161174003e-01  7.0837643930910088e-01  7.0604160112535463e-01  7.0348107624087841e-01  7.0073301471825156e-01  6.9784046000334798e-01  6.9484602741852686e-01  6.9178934808232884e-01  6.8870825090723031e-01  6.8564061427682210e-01  6.8262614006272215e-01  6.7970552081170998e-01  6.7691684859294221e-01  6.7429053137310113e-01  6.7184709485547889e-01  6.6959647754344287e-01  6.6753924030227729e-01  6.6566826405109503e-01  6.6397204085653061e-01  6.6243775441256936e-01  6.6105363846364595e-01  6.5980962651428221e-01  6.5869795970916623e-01  6.5771272791551449e-01  6.5684985754579162e-01  6.5610642174622558e-01  6.5548027374573881e-01  6.5496933053172868e-01  6.5457156199165745e-01  6.5428483135428939e-01  6.5410708711244536e-01  6.5403471475724184e-01  6.5405981904166155e-01  6.5416565305789576e-01  6.5432280360930162e-01  6.5448961526090121e-01  6.5462133514492737e-01  6.5468130615857612e-01  6.5464648550354410e-01  6.5450640278238803e-01  6.5426022255019700e-01  6.5391300377231143e-01  6.5347307403943888e-01  6.5294986730491200e-01  6.5235291421569364e-01  6.5169083542341899e-01  6.5097121925147772e-01  6.5019999262116646e-01  6.4938146935747609e-01  6.4851796384544258e-01  6.4760988314068846e-01  6.4665555909645189e-01  6.4565173909868423e-01  6.4459370827909024e-01  6.4347625657126495e-01  6.4229427917384441e-01  6.4104464827021002e-01  6.3972841635839606e-01  6.3835422936788078e-01  6.3694097272237982e-01  6.3551727486442722e-01  6.3411423084904017e-01  6.3275680934849410e-01  6.3145958321448092e-01  6.3022761758945567e-01  6.2905886657120003e-01  6.2794717709074854e-01  6.2688435450465640e-01  6.2586197684199052e-01  6.2487197285486606e-01  6.2390726911443328e-01  6.2296145402946412e-01  6.2202911140977413e-01  6.2110573574887096e-01  6.2018816071796201e-01  6.1927465367085777e-01  6.1836545184089253e-01  6.1746269501803286e-01  6.1657048308396434e-01  6.1569358953100595e-01  6.1483653115168091e-01  6.1400261783638210e-01  6.1319378074617159e-01  6.1241010617991309e-01  6.1164976902802115e-01  6.1090838092052646e-01  6.1017909768607781e-01  6.0945242135238875e-01  6.0871719297777727e-01  6.0796149304242708e-01  6.0717411925662412e-01  6.0634541975994027e-01  6.0546762416940048e-01  6.0453380931500411e-01  6.0353762178563697e-01  6.0247304226013954e-01  6.0133521451185601e-01  6.0012119288310528e-01  5.9883151225588671e-01  5.9747185922901036e-01  5.9605559854235235e-01  5.9460565292853562e-01  5.9315391340181134e-01  5.9173230301953705e-01  5.9036216318046342e-01  5.8905127063094231e-01  5.8779716699609730e-01  5.8659162317482594e-01  5.8542427191189161e-01  5.8428417546899092e-01  5.8316093382945788e-01  5.8204475898769659e-01  5.8092739826483042e-01  5.7980389707100488e-01  5.7867763604979860e-01  5.7756222220895770e-01  5.7646672136794008e-01  5.7539301117753527e-01  5.7433896083973235e-01  5.7329965333328037e-01  5.7226891132404700e-01  5.7124104314284208e-01  5.7021309782318963e-01  5.6918532129077737e-01  5.6816050933937590e-01  5.6714221040179758e-01  5.6613348577176825e-01  5.6513538678547615e-01  5.6414646326304529e-01  5.6316183682244303e-01  5.6217173888526939e-01  5.6115728438308876e-01  5.6009150561729126e-01  5.5896119678558909e-01  5.5776966919765902e-01  5.5652675264999263e-01  5.5523928504020992e-01  5.5390563762635370e-01  5.5251238286663096e-01  5.5103349091723064e-01  5.4944014113222583e-01  5.4771602540885533e-01  5.4586785755677558e-01  5.4392902491800488e-01  5.4193867537844664e-01  5.3990976440193694e-01  5.3782668697119207e-01  5.3565621872322100e-01  5.3336314056737644e-01  5.3093041655375139e-01  5.2838587789694114e-01  5.2579345741405248e-01  5.2321900104459496e-01  5.2073632303755646e-01  5.1838443354789687e-01  5.1617022361469678e-01  5.1408764885331981e-01  5.1212787449309827e-01  5.1028447504449148e-01  5.0855536865450224e-01  5.0694351576199315e-01  5.0545551602819505e-01  5.0409882784347915e-01  5.0287600102746832e-01  5.0177366291460035e-01  5.0075217942401795e-01  4.9975916640246310e-01  4.9874262451993229e-01  4.9768019078230663e-01  4.9656665362238911e-01  4.9539512630719168e-01  4.9414568032216316e-01  4.9279070941244546e-01  4.9130747951969350e-01  4.8967957622883607e-01  4.8789512647281646e-01  4.8594945982516335e-01  4.8385448848537305e-01  4.8164677305116471e-01  4.7936582716782650e-01  4.7701983690604177e-01  4.7458533985436713e-01  4.7202231472297651e-01  4.6929499686826420e-01  4.6640630541625711e-01  4.6344701279471845e-01  4.6056915576033763e-01  4.5789653492426236e-01  4.5553380167956348e-01  4.5352605961501097e-01  4.5186516925447462e-01  4.5050200348840502e-01  4.4935400350748300e-01  4.4835157770184753e-01  4.4742711826108211e-01  4.4647445637349131e-01  4.4537031730757576e-01  4.4404870906431748e-01  4.4249526381176457e-01  4.4072433037591680e-01  4.3876462523557297e-01  4.3665150876203945e-01  4.3442351466627416e-01  4.3212037050209690e-01  4.2978184683405557e-01  4.2744599266710692e-01  4.2514710045949655e-01  4.2291192452822485e-01  4.2075414685299023e-01  4.1866485803929349e-01  4.1660511639256281e-01  4.1451689897768340e-01  4.1234264710506857e-01  4.1002452713278992e-01  4.0749876574092758e-01  4.0469409396049089e-01  4.0153852673832374e-01  3.9797496128231635e-01  3.9398704344698582e-01  3.8963302608076839e-01  3.8507516242641743e-01  3.8056807216648159e-01  3.7631062246799868e-01  3.7227745801764717e-01  3.6833491810821267e-01  3.6432163615302227e-01  3.6007207388435525e-01  3.5544620714490371e-01  3.5036575692139832e-01  3.4481705057267414e-01  3.3882411692768594e-01  3.3241449429763420e-01  3.2561407830809830e-01  3.1843778132407019e-01  3.1085038008778532e-01  3.0276883168950725e-01  2.9407937963648151e-01  2.8465169213005670e-01  2.7435392624543653e-01  2.6307242424015587e-01  2.5074175029091450e-01  2.3741003356083989e-01  2.2330753063526701e-01  2.0875922328026641e-01  1.9409372979312289e-01  1.7967617546514897e-01  1.6587147423085530e-01  1.5292841197007814e-01  1.4094661801223179e-01  1.2989391927515220e-01  1.1963232862225189e-01  1.1000775656641859e-01  1.0097836817825299e-01  9.2536488734024480e-02  8.4666467367200696e-02  7.7344926055111118e-02  7.0543670392745977e-02  6.4231426214241841e-02  5.8375614561926324e-02  5.2944584431896938e-02  4.7909899904294305e-02  4.3247854530132489e-02  3.8939638456214405e-02  3.4970174738883836e-02  3.1326375640908691e-02  2.7995385075116872e-02  2.4963384688815864e-02  2.2215049796887255e-02  1.9733586723687510e-02  1.7501085403421480e-02  1.5499000673850655e-02  1.3708625644815097e-02  1.2111522001445753e-02  1.0689858326183929e-02  9.4266778706956593e-03  8.3060681087653316e-03  7.3132688452612416e-03  6.4347119665051191e-03  5.6580226565884706e-03  4.9719871649625035e-03  4.3664954076294733e-03  3.8324704800834176e-03  3.3617902245866370e-03  2.9472054210094552e-03  2.5822580723678999e-03  2.2612049771207317e-03  1.9789411135731393e-03  1.7309368000875821e-03  1.5131711463431670e-03  1.3220809288497755e-03  1.1545072406526009e-03  1.0076525156319360e-03  8.7903999048254415e-04  7.6647927389437087e-04  6.6803382367062547e-04  5.8199347599437146e-04  5.0684885979439850e-04  4.4127002740665725e-04  3.8408565260885643e-04  3.3426582415130459e-04  2.9090576297341480e-04  2.5321246777800123e-04  2.2049152077409595e-04  1.9213631446124166e-04  1.6761797883877284e-04  1.4647700596022873e-04  1.2831535765739176e-04  1.1278969912548651e-04  9.9605694748425028e-05  8.8512909408844856e-05  7.9300686292706654e-05  7.1794220677962446e-05  6.5852451904426957e-05  6.1366473907234861e-05  5.8261884441468796e-05  5.6511151872553075e-05  5.6190167979124590e-05  8.2063921475396839e-01  8.2026062345323292e-01  8.1953224279734760e-01  8.1849745657419226e-01  8.1715572657211311e-01  8.1550970617677343e-01  8.1357080439183160e-01  8.1135897963335035e-01  8.0890131502119267e-01  8.0623116139956130e-01  8.0338706128314752e-01  8.0041201559762665e-01  7.9735259028685856e-01  7.9425827294906204e-01  7.9118036005161441e-01  7.8817087883180836e-01  7.8528089220067976e-01  7.8255918767132149e-01  7.8005070580167268e-01  7.7779560591574659e-01  7.7582816056818926e-01  7.7417652432999173e-01  7.7286217590241146e-01  7.7190022620644172e-01  7.7129934228500552e-01  7.7106236656662241e-01  7.7118658012733299e-01  7.7166434083000968e-01  7.7248318713665676e-01  7.7362635506323518e-01  7.7507253342420590e-01  7.7679609843811281e-01  7.7876667206649619e-01  7.8094927590341956e-01  7.8330410906790171e-01  7.8578682449622561e-01  7.8834834080703209e-01  7.9093517979940298e-01  7.9348911921193643e-01  7.9594748487155698e-01  7.9824298154564688e-01  8.0030438740632381e-01  8.0205727094119572e-01  8.0342578843882928e-01  8.0433496541905525e-01  8.0471472265444621e-01  8.0450459174858113e-01  8.0366011138370486e-01  8.0215899158283244e-01  8.0000700996579699e-01  7.9724115875969193e-01  7.9392902033441115e-01  7.9016291371817271e-01  7.8605091622184398e-01  7.8170355634071187e-01  7.7722309140402301e-01  7.7269784828445909e-01  7.6820201021001799e-01  7.6379962995036532e-01  7.5954626027127858e-01  7.5548669147124348e-01  7.5165540829853195e-01  7.4807995224555035e-01  7.4478393570320767e-01  7.4178490959935672e-01  7.3909107539577901e-01  7.3669870438287743e-01  7.3459139337791024e-01  7.3273966766653342e-01  7.3110404843880905e-01  7.2964249417420191e-01  7.2831952629697783e-01  7.2711020266381565e-01  7.2600026169050835e-01  7.2498376644222839e-01  7.2406084147108618e-01  7.2323540699699229e-01  7.2251382683872900e-01  7.2190264262843606e-01  7.2140655420810051e-01  7.2102612628007656e-01  7.2075693936590735e-01  7.2058954572395195e-01  7.2051105089655199e-01  7.2050674842771989e-01  7.2056175154995694e-01  7.2066132051678622e-01  7.2079120304648403e-01  7.2093719311838844e-01  7.2108516039952275e-01  7.2122070553561002e-01  7.2132925204898912e-01  7.2139573312913197e-01  7.2140494163388502e-01  7.2134141144172581e-01  7.2119009256047517e-01  7.2093655025480985e-01  7.2056779480909694e-01  7.2007266005740955e-01  7.1944251722611019e-01  7.1867150165259575e-01  7.1775719289796880e-01  7.1670066672123234e-01  7.1550701648114468e-01  7.1418523069418738e-01  7.1274850646211008e-01  7.1121404114584641e-01  7.0960303424561821e-01  7.0793999673502905e-01  7.0625239607319978e-01  7.0456954109065884e-01  7.0292204405371128e-01  7.0134070331654241e-01  6.9985592523143225e-01  6.9849649820181325e-01  6.9728847625703805e-01  6.9625378294209417e-01  6.9540999882430232e-01  6.9477033985666425e-01  6.9434461014056981e-01  6.9413953197375711e-01  6.9415916979505732e-01  6.9440454262067930e-01  6.9487333367994586e-01  6.9555895098984921e-01  6.9645003868717659e-01  6.9752937988185559e-01  6.9877356104937927e-01  7.0015231550350332e-01  7.0162879913306508e-01  7.0315981446174292e-01  7.0469677883292781e-01  7.0618658321991956e-01  7.0757332204865664e-01  7.0879993175755263e-01  7.0981101601606889e-01  7.1055586172735941e-01  7.1099272719590489e-01  7.1109324955846809e-01  7.1084642640836271e-01  7.1025784899062105e-01  7.0934278070280898e-01  7.0811686471977964e-01  7.0659243339695854e-01  7.0477875225239239e-01  7.0268608735957494e-01  7.0033144624281540e-01  6.9774321760630220e-01  6.9496087877455992e-01  6.9202971362892163e-01  6.8899342415282672e-01  6.8589228780100520e-01  6.8276423940472364e-01  6.7964759688810505e-01  6.7658288663301425e-01  6.7361270604274881e-01  6.7077701617686347e-01  6.6810759942604814e-01  6.6562526730715554e-01  6.6334012413322585e-01  6.6125228231608890e-01  6.5935395907598315e-01  6.5763263586261878e-01  6.5607500149875464e-01  6.5466881750564476e-01  6.5340403099885991e-01  6.5227265309013460e-01  6.5126891612831028e-01  6.5038866444140231e-01  6.4962911653182076e-01  6.4898806644539264e-01  6.4846344904941633e-01  6.4805282525539065e-01  6.4775393407135018e-01  6.4756463001186182e-01  6.4748204203327120e-01  6.4749931748372569e-01  6.4760108924339532e-01  6.4775802594774134e-01  6.4792631492247399e-01  6.4805774912818648e-01  6.4811433194641632e-01  6.4807302683145407e-01  6.4792437860251961e-01  6.4766832223493020e-01  6.4731067658073149e-01  6.4686010923027215e-01  6.4632641790580980e-01  6.4571913497624478e-01  6.4504711928479286e-01  6.4431788346080798e-01  6.4353757742186557e-01  6.4271049018584692e-01  6.4183908514783994e-01  6.4092369567988772e-01  6.3996275277855530e-01  6.3895278884771345e-01  6.3788916598751599e-01  6.3676635771506362e-01  6.3557910787671901e-01  6.3432358725824933e-01  6.3300001616013013e-01  6.3161593880482869e-01  6.3019020181507768e-01  6.2875303551861328e-01  6.2733818414084142e-01  6.2597156898152662e-01  6.2466771387305542e-01  6.2343086400421244e-01  6.2225832173829132e-01  6.2114326384158414e-01  6.2007723789248825e-01  6.1905146772294817e-01  6.1805798824333869e-01  6.1708957635690109e-01  6.1613996896662659e-01  6.1520359027764582e-01  6.1427595059451157e-01  6.1335370350641349e-01  6.1243512915700093e-01  6.1152025680499489e-01  6.1061142164555660e-01  6.0971284704562434e-01  6.0882981683713000e-01  6.0796699083624672e-01  6.0712790296746566e-01  6.0631450810797738e-01  6.0552716768570836e-01  6.0476408541520166e-01  6.0402117810451050e-01  6.0329146788070975e-01  6.0256546919043497e-01  6.0183164764990982e-01  6.0107786656621653e-01  6.0029254488900685e-01  5.9946599687859203e-01  5.9859032171163951e-01  5.9765863841266997e-01  5.9666417199059540e-01  5.9560072662941987e-01  5.9446305572086611e-01  5.9324803479653121e-01  5.9195583072730829e-01  5.9059191869505545e-01  5.8916908625796693e-01  5.8771032911820720e-01  5.8624900337960228e-01  5.8481974315281282e-01  5.8344449457888392e-01  5.8213041323644477e-01  5.8087393512788033e-01  5.7966635837907565e-01  5.7849708392190724e-01  5.7735556075115135e-01  5.7623172031884973e-01  5.7511659333701703e-01  5.7400267685615269e-01  5.7288582228732587e-01  5.7176835578013252e-01  5.7066100231006811e-01  5.6957304767135319e-01  5.6850749385491717e-01  5.6746283909648354e-01  5.6643480338517471e-01  5.6541713667591964e-01  5.6440382638883946e-01  5.6339141824093031e-01  5.6238012600436504e-01  5.6137263375017343e-01  5.6037265190439178e-01  5.5938291236485671e-01  5.5840411522971134e-01  5.5743387657441890e-01  5.5646626075077543e-01  5.5549029553007412e-01  5.5448797864414001e-01  5.5343517795381336e-01  5.5231771114828421e-01  5.5113838105710500e-01  5.4990802950343720e-01  5.4863388189904638e-01  5.4731496358524501e-01  5.4593898556374543e-01  5.4448053009869812e-01  5.4290939803334470e-01  5.4120840330868381e-01  5.3938190512379569e-01  5.3746351961919914e-01  5.3549703509092661e-01  5.3349724841290302e-01  5.3144863383831775e-01  5.2931877139435390e-01  5.2707398925711813e-01  5.2469756568915094e-01  5.2221171233326535e-01  5.1968064564791117e-01  5.1716771489002078e-01  5.1473559429010607e-01  5.1242424284125421e-01  5.1024365913236214e-01  5.0818969984814533e-01  5.0625491776165144e-01  5.0443337617701711e-01  5.0272331141183157e-01  5.0112740187722371e-01  4.9965157901565466e-01  4.9830153120670750e-01  4.9707747983792294e-01  4.9596618400280301e-01  4.9493459985060934e-01  4.9393733863055256e-01  4.9292393318524180e-01  4.9186943859790355e-01  4.9076741832960530e-01  4.8961074663351745e-01  4.8837880636457770e-01  4.8704149268584040e-01  4.8557590485876173e-01  4.8396634158991597e-01  4.8220168781903489e-01  4.8027661275841682e-01  4.7820036795776477e-01  4.7600954291633307e-01  4.7374967312973837e-01  4.7143169714545963e-01  4.6903425609663046e-01  4.6652069668732343e-01  4.6385975980832184e-01  4.6105369383513434e-01  4.5817861672999682e-01  4.5538334134762326e-01  4.5278864109086059e-01  4.5048377019318314e-01  4.4851257003387268e-01  4.4686792831199207e-01  4.4550588443500799e-01  4.4435404082133695e-01  4.4334212376744997e-01  4.4240388434457106e-01  4.4144557885270869e-01  4.4034738404532625e-01  4.3904130177790041e-01  4.3751243112387872e-01  4.3577458496691990e-01  4.3385540185618149e-01  4.3178921906067014e-01  4.2961348192628163e-01  4.2736706516930051e-01  4.2508871361370171e-01  4.2281560893199122e-01  4.2058089042915231e-01  4.1841055994040338e-01  4.1631817615872441e-01  4.1429644957441497e-01  4.1230660198590713e-01  4.1028797586655846e-01  4.0818306420802414e-01  4.0593598546356546e-01  4.0348485184460103e-01  4.0076046224796880e-01  3.9769294158972546e-01  3.9422770959602049e-01  3.9035156000457527e-01  3.8612590772095140e-01  3.8171318990233849e-01  3.7735185878530714e-01  3.7323580532665490e-01  3.6934563396390363e-01  3.65548611377